Title
29212
    1ASP      N    1   4.870   3.987   2.851 -0.0077 -0.3826 -0.4761
    1ASP    HT1    2   4.894   4.047   2.770 -2.9426 -0.5300 -1.6042
    1ASP    HT2    3   4.929   3.902   2.844  1.0078  0.3316 -0.7206
    1ASP    HT3    4   4.901   4.034   2.938  0.4007  0.7469 -1.2112
    1ASP     CA    5   4.728   3.957   2.855 -0.0443  0.2632  0.7856
    1ASP     HA    6   4.670   4.046   2.837  0.9175  0.4089 -1.9571
    1ASP     CB    7   4.704   3.848   2.739 -0.4751  0.2103  0.5610
    1ASP    HB1    8   4.753   3.755   2.774 -0.6346  0.2684  0.9348
    1ASP    HB2    9   4.757   3.884   2.648 -0.5591 -0.0292  0.4155
    1ASP     CG   10   4.562   3.830   2.703 -0.1336  1.0939  0.5791
    1ASP    OD1   11   4.463   3.878   2.766 -0.6447  0.1241  0.4014
    1ASP    OD2   12   4.538   3.743   2.610 -0.3782 -0.4111 -0.4783
    1ASP      C   13   4.692   3.907   2.995  0.1608 -0.0338 -0.3418
    1ASP      O   14   4.779   3.893   3.080  0.3481  0.5835  0.2447
    2GLY      N   15   4.570   3.863   3.021  0.1734  0.3008 -0.2240
    2GLY     HN   16   4.498   3.859   2.952  0.8821  0.2663 -0.9827
    2GLY     CA   17   4.518   3.789   3.142 -0.8282  0.8453  0.1599
    2GLY    HA1   18   4.424   3.746   3.109 -0.0181  0.0557 -1.2178
    2GLY    HA2   19   4.515   3.862   3.222 -0.0598  0.6150  0.4119
    2GLY      C   20   4.598   3.669   3.187 -0.0123 -0.4340  0.1748
    2GLY      O   21   4.698   3.628   3.123  0.2148 -0.5547  0.5575
    3ASP      N   22   4.578   3.619   3.312  0.3188  0.2601 -0.0279
    3ASP     HN   23   4.497   3.654   3.359  1.9203  2.2858  1.3893
    3ASP     CA   24   4.668   3.528   3.390 -0.0049 -0.3714 -0.3909
    3ASP     HA   25   4.768   3.566   3.373 -0.6840  2.7316  1.7310
    3ASP     CB   26   4.646   3.532   3.546 -0.0389 -0.4335 -0.0492
    3ASP    HB1   27   4.690   3.444   3.597 -0.4184  0.3524  1.6951
    3ASP    HB2   28   4.541   3.516   3.579  0.7126 -1.9708  1.7512
    3ASP     CG   29   4.683   3.660   3.620 -0.0261 -0.0240  0.2799
    3ASP    OD1   30   4.697   3.767   3.561 -0.0521 -0.6613 -0.3663
    3ASP    OD2   31   4.699   3.655   3.745  0.2416  0.0594  0.2849
    3ASP      C   32   4.675   3.383   3.343 -0.1470  0.1840  0.3873
    3ASP      O   33   4.598   3.296   3.389  0.5968 -0.0536  0.4676
    4GLY      N   34   4.777   3.350   3.260  0.2728 -0.1049  0.4900
    4GLY     HN   35   4.834   3.421   3.220  0.3489 -0.9545 -1.0108
    4GLY     CA   36   4.776   3.221   3.191  0.2612  0.1647  0.3113
    4GLY    HA1   37   4.767   3.141   3.264 -0.2803 -2.1773 -2.1691
    4GLY    HA2   38   4.874   3.221   3.146 -0.7631  1.3121 -2.0775
    4GLY      C   39   4.662   3.194   3.094  0.1655 -0.8149 -0.5705
    4GLY      O   40   4.587   3.282   3.056 -0.1292  0.0770  0.5287
    5PRO      N   41   4.649   3.073   3.054  0.3965 -0.1067 -0.2682
    5PRO     CD   42   4.766   2.982   3.047  0.5729  0.5190  0.0191
    5PRO    HD1   43   4.792   2.935   3.143 -1.6194  0.0752  0.4575
    5PRO    HD2   44   4.849   3.032   2.994 -0.2867  0.1578 -1.7651
    5PRO     CA   45   4.538   3.017   2.985  0.2477 -0.7071  1.3332
    5PRO     HA   46   4.540   3.080   2.897 -0.7038  1.1622  2.5940
    5PRO     CB   47   4.569   2.866   2.958  0.3855 -0.3201 -0.4723
    5PRO    HB1   48   4.516   2.814   2.876 -1.5583 -2.5849  2.0194
    5PRO    HB2   49   4.544   2.807   3.050  1.2761 -2.5270 -1.5712
    5PRO     CG   50   4.723   2.873   2.949 -0.1281 -0.3418  0.1715
    5PRO    HG1   51   4.761   2.774   2.984  1.6838  0.3905  0.3406
    5PRO    HG2   52   4.755   2.903   2.847  0.7544  0.1241  0.5762
    5PRO      C   53   4.402   3.034   3.045 -0.3047 -0.3086  0.0638
    5PRO      O   54   4.383   3.039   3.169  0.7172 -0.9376  0.5356
    6GLY      N   55   4.300   3.032   2.962 -0.0279  0.2647 -0.3610
    6GLY     HN   56   4.323   3.007   2.868  1.1971  1.5212 -0.4328
    6GLY     CA   57   4.155   3.040   3.009 -0.2124  0.3271  0.2390
    6GLY    HA1   58   4.087   3.063   2.928  0.9002 -1.4464 -1.2810
    6GLY    HA2   59   4.157   3.120   3.081  0.2539  1.1249 -0.6324
    6GLY      C   60   4.114   2.913   3.069 -0.0645  0.0114  0.3337
    6GLY      O   61   4.188   2.819   3.101 -0.5212  0.4973  0.1201
    7ASP      N   62   3.981   2.908   3.081  0.1265  0.6546  0.2201
    7ASP     HN   63   3.930   2.989   3.053 -0.8882 -0.4576 -1.2588
    7ASP     CA   64   3.909   2.795   3.126  0.0824 -0.3406 -0.1115
    7ASP     HA   65   3.951   2.748   3.214 -0.0145 -1.3632 -0.5905
    7ASP     CB   66   3.764   2.835   3.155  0.2987 -0.5126 -0.5546
    7ASP    HB1   67   3.707   2.753   3.205 -0.7532  1.1387  1.0728
    7ASP    HB2   68   3.708   2.870   3.066 -0.8439  1.7537  0.9491
    7ASP     CG   69   3.760   2.940   3.267  0.7030  0.1292 -0.0687
    7ASP    OD1   70   3.801   2.929   3.385 -0.8498 -0.0556 -0.2699
    7ASP    OD2   71   3.685   3.036   3.238  0.1288 -0.4239 -0.3239
    7ASP      C   72   3.908   2.691   3.009  1.2025 -0.3536 -0.0181
    7ASP      O   73   3.847   2.728   2.905  0.0902  0.4020  0.2970
    8PRO      N   74   3.951   2.561   3.021  0.0868 -0.2020  0.1688
    8PRO     CD   75   4.017   2.511   3.136  0.6368 -0.2039 -1.0253
    8PRO    HD1   76   3.954   2.524   3.227  0.5571 -2.9042 -0.6283
    8PRO    HD2   77   4.107   2.577   3.141  0.0130  0.6332 -0.5492
    8PRO     CA   78   3.959   2.467   2.911 -0.3416  0.4385  0.4513
    8PRO     HA   79   3.982   2.517   2.818 -1.0282  0.7858  0.4547
    8PRO     CB   80   4.076   2.369   2.948 -0.6971 -0.2737  0.4054
    8PRO    HB1   81   4.177   2.410   2.924 -0.9703  0.1015 -0.1302
    8PRO    HB2   82   4.070   2.275   2.889 -3.9031 -2.2540  3.4585
    8PRO     CG   83   4.067   2.369   3.101  0.2130  0.0344  0.5848
    8PRO    HG1   84   3.980   2.305   3.128  0.1834 -1.1432 -1.9301
    8PRO    HG2   85   4.157   2.343   3.160 -0.3173 -0.3239  1.2539
    8PRO      C   86   3.828   2.386   2.878  0.3920  0.2417  0.2550
    8PRO      O   87   3.830   2.262   2.893 -0.1610 -0.5318 -0.0715
    9GLY      N   88   3.709   2.446   2.839  0.1947 -0.4337  0.7971
    9GLY     HN   89   3.697   2.545   2.827  1.2491 -0.3159  0.5853
    9GLY     CA   90   3.590   2.377   2.798  0.1601 -0.3591  0.0583
    9GLY    HA1   91   3.510   2.450   2.797  1.7067  1.3950  0.0674
    9GLY    HA2   92   3.576   2.300   2.873 -0.2669  1.0855  1.5439
    9GLY      C   93   3.592   2.313   2.660 -0.0815  0.4315  0.1329
    9GLY      O   94   3.693   2.299   2.591  0.6146 -0.1780  0.4152
   10ASP      N   95   3.472   2.273   2.627  0.1676 -1.3362  0.5980
   10ASP     HN   96   3.408   2.265   2.703  1.0090  0.0872  1.4898
   10ASP     CA   97   3.420   2.220   2.504  0.1674  0.3661 -0.6614
   10ASP     HA   98   3.453   2.119   2.521 -0.4382  0.2825  0.0735
   10ASP     CB   99   3.262   2.216   2.496 -0.3407 -0.5405 -0.0166
   10ASP    HB1  100   3.244   2.181   2.392 -0.2534  0.3770 -0.3536
   10ASP    HB2  101   3.217   2.316   2.514  1.1373  0.2568 -0.6456
   10ASP     CG  102   3.205   2.112   2.588  0.0096  0.0776 -0.3712
   10ASP    OD1  103   3.278   2.056   2.680  0.2129  0.0358  0.2056
   10ASP    OD2  104   3.076   2.094   2.581 -0.0190  0.0759 -0.0404
   10ASP      C  105   3.481   2.268   2.377 -0.3372 -0.3942 -0.0414
   10ASP      O  106   3.508   2.388   2.351 -0.2419  0.3278  0.4828
   11GLY      N  107   3.521   2.167   2.294 -0.0104  0.2294 -0.0853
   11GLY     HN  108   3.509   2.072   2.322  2.3668 -0.3683 -0.8680
   11GLY     CA  109   3.577   2.185   2.162  0.3145 -0.6057 -1.1060
   11GLY    HA1  110   3.583   2.292   2.145  3.6190  0.0250  2.5341
   11GLY    HA2  111   3.517   2.115   2.106 -3.3080  0.3339  1.3146
   11GLY      C  112   3.718   2.139   2.170  0.5990 -0.1472 -0.4155
   11GLY    OT1  113   3.808   2.220   2.179  0.7217  0.0291 -0.8595
   11GLY    OT2  114   3.750   2.022   2.152 -0.3500  0.5141  0.2388
   12SOD    SOD  115   1.688   3.208   1.887 -0.5161 -0.4556  0.5158
   13SOD    SOD  116   6.997   2.134   1.926  0.2577 -0.4735  0.2130
   14SOD    SOD  117   3.743   1.841   0.206  0.0229  0.3854 -0.0750
   15SOD    SOD  118   6.281   0.899   5.272 -0.1492  0.1283  0.2574
   16SOD    SOD  119   4.040   3.022   2.584  0.1418 -0.1987 -0.6075
   17SOD    SOD  120   0.423   3.796   3.273 -0.5216 -0.1029 -0.0649
   18SOD    SOD  121   5.922   0.440   2.690 -0.0328  0.0459  0.4553
   19SOD    SOD  122   0.587   1.703   0.156  0.2612  0.0294  0.0293
   20SOD    SOD  123   2.006   0.622   3.298 -0.4795  0.3669 -0.3123
   21SOD    SOD  124   5.352   0.551   1.107 -0.6050 -0.2020 -0.3433
   22SOD    SOD  125   1.743   1.895   5.633 -0.3207  0.3443 -0.1629
   23SOD    SOD  126   3.805   3.490   3.987  0.1121 -0.4422 -0.0408
   24SOD    SOD  127   4.362   4.300   2.747  0.2293 -0.1552 -0.1540
   25SOD    SOD  128   2.454   5.811   1.144  0.2730  0.3842 -0.4201
   26SOD    SOD  129   3.242   4.126   2.828 -0.1508  0.1355 -0.4306
   27SOD    SOD  130   2.012   4.200   1.362  0.6347 -0.4398  0.1330
   28SOD    SOD  131   5.471   1.318   3.471 -0.1786  0.5819 -0.0886
   29SOD    SOD  132   1.921   4.329   2.980  0.1095  0.2646 -0.2739
   30SOD    SOD  133   3.063   5.496   3.571 -0.3739 -0.0268 -0.0688
   31SOD    SOD  134   0.555   4.682   0.035  0.4373  0.2274 -0.2336
   32SOD    SOD  135   0.312   5.172   0.030  0.3052  0.1159  0.1721
   33SOD    SOD  136   2.854   2.591   2.072  0.1016  0.4248 -0.0395
   34SOD    SOD  137   1.048   3.285   2.867 -0.2631  0.7888 -0.2958
   35SOD    SOD  138   2.681   0.097   0.404  0.2886  0.2512 -0.1869
   36SOD    SOD  139   5.192   1.657   0.243  0.1039  0.2572 -0.5151
   37SOD    SOD  140   3.875   2.138   1.729  0.1579  0.4502 -0.3054
   38SOD    SOD  141   6.543   2.279   4.361 -0.1132 -0.2260 -0.6314
   39SOD    SOD  142   1.533   1.172   0.770  0.5551 -0.0332  0.5426
   40SOD    SOD  143   5.100   2.750   4.419 -0.3044 -0.1922  0.1557
   41SOD    SOD  144   6.648   6.015   0.863 -0.6046  0.2807  0.0429
   42SOD    SOD  145   2.498   4.408   3.954 -0.1921 -0.0530 -0.0741
   43CLA    CLA  146   4.142   2.531   1.705  0.1617  0.1958 -0.4136
   44CLA    CLA  147   3.275   5.055   4.714  0.2327  0.3887 -0.2932
   45CLA    CLA  148   2.620   0.717   1.149  0.0213  0.0231 -0.0880
   46CLA    CLA  149   4.582   5.372   1.802 -0.1284  0.1089 -0.2902
   47CLA    CLA  150   6.544   4.009   2.845 -0.0804 -0.0159 -0.0669
   48CLA    CLA  151   0.598   4.181   4.921 -0.1691 -0.2781  0.4051
   49CLA    CLA  152   3.511   4.619   3.694 -0.1403 -0.0841  0.3470
   50CLA    CLA  153   7.108   1.004   2.676  0.0779 -0.1227  0.3732
   51CLA    CLA  154   5.192   2.283   4.638  0.1664 -0.0209 -0.0935
   52CLA    CLA  155   1.910   5.703   2.285 -0.1249 -0.1361  0.0731
   53CLA    CLA  156   3.266   3.298   3.363 -0.4631 -0.0323  0.0287
   54CLA    CLA  157   4.606   1.772   0.628 -0.4546  0.0249 -0.4331
   55CLA    CLA  158   2.663   0.528   2.531  0.1587  0.2123  0.0041
   56CLA    CLA  159   2.828   2.872   3.425 -0.1140  0.1918  0.0061
   57CLA    CLA  160   2.221   3.654   5.719 -0.2953  0.4474 -0.0511
   58CLA    CLA  161   6.773   1.436   0.252  0.1341 -0.3672  0.0246
   59CLA    CLA  162   4.094   4.465   0.544  0.1318  0.1291 -0.0877
   60CLA    CLA  163   1.403   3.792   0.433 -0.5297 -0.2971 -0.4735
   61CLA    CLA  164   5.557   6.043   0.966 -0.0121  0.3887 -0.2659
   62CLA    CLA  165   1.197   5.197   0.969 -0.2614  0.5233  0.3059
   63CLA    CLA  166   5.188   5.833   4.094 -0.1431 -0.3139 -0.2722
   64CLA    CLA  167   0.496   0.183   0.711  0.4055 -0.0733 -0.4885
   65CLA    CLA  168   0.465   4.325   1.523 -0.0776  0.0602  0.3252
   66CLA    CLA  169   5.606   1.139   3.907  0.2678  0.2674 -0.0903
   67CLA    CLA  170   0.801   5.917   0.856  0.2858  0.1023  0.0620
   68CLA    CLA  171   4.864   6.047   2.813 -0.4032 -0.2484 -0.2334
   69CLA    CLA  172   2.317   2.820   2.416 -0.0886 -0.1287 -0.2477
   70TIP3   OH2  173   0.086   3.117   1.815 -0.2853  0.6065 -0.2652
   70TIP3    H1  174   0.160   3.174   1.835  0.1190  0.5461 -1.4983
   70TIP3    H2  175   0.031   3.168   1.756 -2.3566  1.4441  2.2304
   71TIP3   OH2  176   3.737   4.289   1.795 -0.1307 -0.1219 -0.1189
   71TIP3    H1  177   3.648   4.303   1.827 -0.2379 -1.3864  0.1961
   71TIP3    H2  178   3.740   4.334   1.711 -1.6952 -1.6880 -1.0753
   72TIP3   OH2  179   3.807   2.024   1.542  0.2449 -0.3694  0.0607
   72TIP3    H1  180   3.852   2.072   1.472 -1.2114  1.6128  0.3981
   72TIP3    H2  181   3.755   1.958   1.497  0.1578  0.1779 -0.6454
   73TIP3   OH2  182   2.381   0.300   4.785 -0.0571 -0.8611 -0.6574
   73TIP3    H1  183   2.347   0.241   4.853 -2.5537  0.7553 -0.3692
   73TIP3    H2  184   2.386   0.246   4.706 -2.1978 -1.5374 -0.3935
   74TIP3   OH2  185   3.908   3.578   3.074 -0.3254 -0.8738 -0.2416
   74TIP3    H1  186   3.904   3.612   3.164 -2.5528  1.9523 -1.2750
   74TIP3    H2  187   3.987   3.618   3.037 -0.9772  0.3484 -0.3598
   75TIP3   OH2  188   3.739   1.653   0.061 -1.0098  0.4246  0.0589
   75TIP3    H1  189   3.816   1.657   0.005 -0.1949  1.0998  1.1769
   75TIP3    H2  190   3.691   1.575   0.032 -0.6537  0.7799 -1.5811
   76TIP3   OH2  191   6.154   4.497   4.582  0.0991  0.1736 -0.0375
   76TIP3    H1  192   6.247   4.485   4.563  0.3943  2.0690  0.0237
   76TIP3    H2  193   6.139   4.590   4.568 -1.7856 -0.0915  0.0488
   77TIP3   OH2  194   4.763   2.979   0.683 -0.2694 -0.3459  0.3095
   77TIP3    H1  195   4.771   3.075   0.681  2.0242 -0.4547  1.0216
   77TIP3    H2  196   4.671   2.963   0.701 -0.3774  1.7763  2.1046
   78TIP3   OH2  197   5.212   3.080   2.181  0.6599 -0.1351 -0.3532
   78TIP3    H1  198   5.237   2.999   2.136 -1.2467 -1.4245  0.7272
   78TIP3    H2  199   5.120   3.092   2.159  0.8809  1.7188 -0.3851
   79TIP3   OH2  200   4.690   2.283   0.772  0.1173 -0.8669 -0.3225
   79TIP3    H1  201   4.648   2.369   0.779 -0.2534 -1.1838  1.9412
   79TIP3    H2  202   4.784   2.302   0.772  0.0600 -0.3895 -1.8055
   80TIP3   OH2  203   1.687   4.280   2.351  0.1711  0.3973 -0.1604
   80TIP3    H1  204   1.693   4.375   2.362  1.8423  0.4370 -1.0218
   80TIP3    H2  205   1.771   4.256   2.311 -0.6054 -1.3180 -0.8414
   81TIP3   OH2  206   4.488   2.699   4.177 -0.2318 -0.2065  0.5141
   81TIP3    H1  207   4.461   2.790   4.160  1.7462  0.7679  2.1178
   81TIP3    H2  208   4.420   2.646   4.135 -2.0884  1.9993  0.4846
   82TIP3   OH2  209   5.384   6.061   3.281 -0.1987  0.6990  0.1124
   82TIP3    H1  210   5.334   6.069   3.200  0.0363  1.4473  0.0350
   82TIP3    H2  211   5.333   6.109   3.346 -0.3404  0.1784  0.3985
   83TIP3   OH2  212   3.005   5.480   1.866  0.1221 -0.1945 -0.0038
   83TIP3    H1  213   3.047   5.497   1.950  0.0943 -0.6693  0.1084
   83TIP3    H2  214   2.941   5.412   1.884  0.5448 -0.7456 -0.5323
   84TIP3   OH2  215   2.667   2.445   1.205  0.2016 -0.3356 -0.1336
   84TIP3    H1  216   2.735   2.471   1.142  2.6857  0.6072  2.6858
   84TIP3    H2  217   2.621   2.526   1.226  1.1042 -0.1136  1.0860
   85TIP3   OH2  218   2.043   5.450   4.033 -0.3804  0.0961  0.7420
   85TIP3    H1  219   1.964   5.475   3.986  0.1832  1.7382  0.6030
   85TIP3    H2  220   2.013   5.429   4.121 -1.1539 -0.8693  0.2720
   86TIP3   OH2  221   0.710   4.103   5.742  0.1769 -0.0551 -0.2484
   86TIP3    H1  222   0.680   4.165   5.675  0.3263 -1.4007 -1.6050
   86TIP3    H2  223   0.724   4.021   5.695  1.9138 -0.6182  1.1277
   87TIP3   OH2  224   1.177   3.798   3.919 -0.0900 -0.4554 -0.1312
   87TIP3    H1  225   1.162   3.754   4.004  1.9982 -0.5344  0.2495
   87TIP3    H2  226   1.135   3.740   3.855  0.7000 -1.8889  0.5914
   88TIP3   OH2  227   1.882   1.347   4.278 -0.0012 -0.1060  0.6127
   88TIP3    H1  228   1.917   1.359   4.189 -0.4334 -2.4827  0.0692
   88TIP3    H2  229   1.788   1.360   4.268 -0.1400 -1.0847  0.5477
   89TIP3   OH2  230   0.902   5.157   2.527 -0.1218 -0.7009 -0.2257
   89TIP3    H1  231   0.861   5.188   2.609 -0.5968 -0.0303 -0.7056
   89TIP3    H2  232   0.995   5.152   2.547  0.3026  2.9861 -0.6453
   90TIP3   OH2  233   4.820   3.344   2.694 -0.6009  0.1999 -0.4540
   90TIP3    H1  234   4.786   3.398   2.765  0.0031  1.4900 -1.1037
   90TIP3    H2  235   4.911   3.325   2.719 -0.0951  1.4076 -1.2386
   91TIP3   OH2  236   3.659   0.336   3.187  0.3407 -0.2600  0.0984
   91TIP3    H1  237   3.615   0.312   3.269 -0.7871  2.0011  0.2492
   91TIP3    H2  238   3.713   0.412   3.211  0.1831  0.2779 -1.1864
   92TIP3   OH2  239   5.095   5.066   3.808 -0.3130  0.5965 -0.3432
   92TIP3    H1  240   5.178   5.071   3.761 -0.4574  0.0834 -0.6519
   92TIP3    H2  241   5.035   5.120   3.756 -0.1749  0.9818 -0.1105
   93TIP3   OH2  242   3.229   6.092   1.033  0.2756  0.0415  0.3973
   93TIP3    H1  243   3.135   6.092   1.048  0.3927  0.9043  1.2035
   93TIP3    H2  244   3.239   6.131   0.946 -0.2032 -1.9015 -0.5967
   94TIP3   OH2  245   1.698   4.585   1.143 -0.4757 -0.0085 -0.0227
   94TIP3    H1  246   1.728   4.669   1.178 -0.7407 -0.3304  1.0320
   94TIP3    H2  247   1.647   4.608   1.066  0.4766  0.7064 -0.4543
   95TIP3   OH2  248   7.055   6.760   5.876  0.5768  0.3700 -0.7928
   95TIP3    H1  249   7.085   6.736   5.789 -0.5110  0.7371 -1.2879
   95TIP3    H2  250   7.021   6.849   5.865  1.8368  1.0373  0.3517
   96TIP3   OH2  251   1.106   1.463   3.716 -0.3856  0.0522  0.0840
   96TIP3    H1  252   1.089   1.379   3.758 -0.0934  0.4174  0.9489
   96TIP3    H2  253   1.160   1.511   3.778 -1.2981  1.2347  0.0053
   97TIP3   OH2  254   6.354   1.715   3.584  0.3860 -0.0038 -0.1087
   97TIP3    H1  255   6.404   1.779   3.635  0.7034 -0.6888  0.4566
   97TIP3    H2  256   6.408   1.636   3.585 -0.4493 -0.5899  0.0471
   98TIP3   OH2  257   5.471   5.597   2.565  0.0594  0.2811  0.0958
   98TIP3    H1  258   5.471   5.533   2.494  0.3923 -0.8563  1.0932
   98TIP3    H2  259   5.491   5.546   2.644 -0.4049  1.4964  1.0300
   99TIP3   OH2  260   2.464   6.406   0.298 -1.0360 -0.0372  1.0083
   99TIP3    H1  261   2.435   6.362   0.377 -1.5000  1.1346  1.5158
   99TIP3    H2  262   2.466   6.499   0.321 -0.2041  0.2387 -0.0523
  100TIP3   OH2  263   6.540   6.308   2.449  0.2107  0.4340  0.0649
  100TIP3    H1  264   6.540   6.404   2.448 -1.4022  0.5321  1.9761
  100TIP3    H2  265   6.632   6.284   2.459  0.8622  1.6638 -2.3267
  101TIP3   OH2  266   3.719   5.615   5.436  0.0431  0.2561  0.4200
  101TIP3    H1  267   3.812   5.607   5.417  0.1017 -0.6961  1.0272
  101TIP3    H2  268   3.715   5.667   5.516  0.0246  0.6554  0.1623
  102TIP3   OH2  269   6.657   4.359   3.119 -0.1897  0.1039  0.1791
  102TIP3    H1  270   6.574   4.311   3.128  0.4021 -1.1540 -0.6551
  102TIP3    H2  271   6.685   4.341   3.029  1.2215  0.0947  0.5928
  103TIP3   OH2  272   6.195   5.477   4.262  0.1866  0.4829 -0.6207
  103TIP3    H1  273   6.204   5.479   4.357  1.8796 -0.9417 -0.6952
  103TIP3    H2  274   6.271   5.524   4.229  1.3870 -1.7243 -1.2392
  104TIP3   OH2  275   4.385   0.756   4.295 -0.4213  0.3782 -0.2616
  104TIP3    H1  276   4.430   0.839   4.279  0.0494  0.3812  0.9818
  104TIP3    H2  277   4.344   0.767   4.381  3.1036 -2.0392  2.0330
  105TIP3   OH2  278   1.069   0.672   5.242 -0.0523  0.2049 -0.0031
  105TIP3    H1  279   1.056   0.632   5.327 -0.9793  1.1337  0.3140
  105TIP3    H2  280   1.149   0.724   5.251 -0.8322  1.3182  0.7126
  106TIP3   OH2  281   2.680   5.420   0.104  0.6233 -0.3038 -0.7679
  106TIP3    H1  282   2.754   5.359   0.110 -0.0304 -0.9850  1.8309
  106TIP3    H2  283   2.606   5.366   0.080  0.7066  0.1537 -2.1016
  107TIP3   OH2  284   4.517   4.550   4.408 -0.0806 -0.5414 -0.6116
  107TIP3    H1  285   4.548   4.525   4.321 -3.3670  0.4183 -2.1995
  107TIP3    H2  286   4.423   4.536   4.405 -0.5782  1.4394  2.1246
  108TIP3   OH2  287   1.782   5.372   4.175 -0.4127 -0.6802  0.0502
  108TIP3    H1  288   1.790   5.277   4.186 -2.2592 -0.8034  0.7460
  108TIP3    H2  289   1.834   5.409   4.247  0.2773 -1.1545 -0.1941
  109TIP3   OH2  290   6.284   6.500   4.274  0.1615 -0.0837  0.1836
  109TIP3    H1  291   6.236   6.489   4.192  1.0411 -3.3451 -0.0199
  109TIP3    H2  292   6.341   6.576   4.258 -0.8000  0.3198 -1.6218
  110TIP3   OH2  293   1.008   4.450   1.741  0.1960 -0.1415 -0.9994
  110TIP3    H1  294   1.043   4.379   1.687  0.0808 -1.5050  0.6268
  110TIP3    H2  295   0.918   4.424   1.758 -0.0084  0.6763 -0.8139
  111TIP3   OH2  296   6.958   1.536   2.143  0.0011 -0.3057 -0.6096
  111TIP3    H1  297   6.914   1.498   2.067  2.1432  2.5210 -3.5227
  111TIP3    H2  298   6.904   1.611   2.167  1.1785  0.9923 -1.8337
  112TIP3   OH2  299   4.389   2.381   1.566  0.4720 -0.0790  0.0408
  112TIP3    H1  300   4.318   2.434   1.601  1.4797  0.5226  1.2851
  112TIP3    H2  301   4.346   2.316   1.510 -0.8785  1.3219 -0.6017
  113TIP3   OH2  302   2.862   0.353   2.801  0.5593  0.6236  0.1952
  113TIP3    H1  303   2.916   0.415   2.753 -1.0024 -0.1262 -2.7933
  113TIP3    H2  304   2.908   0.269   2.791  0.7961  0.6428  1.0478
  114TIP3   OH2  305   1.207   1.087   2.471  0.1922  0.4542 -0.3252
  114TIP3    H1  306   1.205   1.166   2.525  1.3791 -0.3155  0.9038
  114TIP3    H2  307   1.116   1.074   2.444 -0.5050  0.7101  1.7355
  115TIP3   OH2  308   5.555   6.728   1.501 -0.2618  0.3781  0.2136
  115TIP3    H1  309   5.622   6.770   1.556 -1.5272  1.3233  1.1069
  115TIP3    H2  310   5.590   6.733   1.412  1.6181 -0.7367  0.8500
  116TIP3   OH2  311   0.436   5.144   5.898 -0.0119 -1.1385  0.3544
  116TIP3    H1  312   0.391   5.124   5.817  0.1732 -1.7550  0.3961
  116TIP3    H2  313   0.493   5.219   5.877 -1.7841  0.3365  0.5746
  117TIP3   OH2  314   6.175   5.000   5.436  0.2761 -0.1225  0.1801
  117TIP3    H1  315   6.232   4.945   5.490  1.1225  0.8851  0.3321
  117TIP3    H2  316   6.198   5.089   5.459  0.9933  0.3738 -2.1367
  118TIP3   OH2  317   1.557   5.401   3.815  0.0678  0.1765  0.2059
  118TIP3    H1  318   1.557   5.489   3.777  0.4234 -1.1405 -3.1815
  118TIP3    H2  319   1.471   5.366   3.793  0.7301 -1.0614 -0.5257
  119TIP3   OH2  320   5.102   3.092   4.099  0.1642 -0.1475  0.7746
  119TIP3    H1  321   5.106   3.013   4.045  1.4447  0.2101  0.3079
  119TIP3    H2  322   5.011   3.097   4.127 -0.6671 -0.1370 -1.6761
  120TIP3   OH2  323   6.757   0.364   2.368  0.2935  0.0340 -0.2516
  120TIP3    H1  324   6.755   0.293   2.432  0.4898  0.4640  0.2296
  120TIP3    H2  325   6.837   0.348   2.317 -0.2487 -0.7444 -0.9032
  121TIP3   OH2  326   7.011   0.823   2.442  0.1079 -0.0676 -0.5457
  121TIP3    H1  327   6.973   0.764   2.507 -0.5377 -0.3547 -1.1713
  121TIP3    H2  328   7.058   0.888   2.493  2.1744 -1.9787  0.1798
  122TIP3   OH2  329   0.412   5.721   4.511  0.1205  0.1735  0.0132
  122TIP3    H1  330   0.496   5.730   4.466 -0.7177 -0.4512 -1.7797
  122TIP3    H2  331   0.400   5.626   4.521 -0.6158  0.2295 -0.2612
  123TIP3   OH2  332   5.258   4.413   1.921 -0.2142 -0.6632 -0.5547
  123TIP3    H1  333   5.324   4.467   1.964 -1.2595 -0.5151  0.9515
  123TIP3    H2  334   5.308   4.348   1.872  1.0502 -0.2717  0.1637
  124TIP3   OH2  335   5.128   2.162   5.717 -0.1473  0.0419  0.2756
  124TIP3    H1  336   5.079   2.159   5.635  0.3047 -0.0330  0.0074
  124TIP3    H2  337   5.101   2.244   5.759  1.5007  1.3415 -1.1131
  125TIP3   OH2  338   3.360   4.347   2.318  0.0573 -0.0959 -0.3884
  125TIP3    H1  339   3.391   4.315   2.234  0.5351 -2.4510  0.6016
  125TIP3    H2  340   3.266   4.355   2.308  0.2554  1.0984 -1.5605
  126TIP3   OH2  341   4.963   5.640   4.955  0.3481  0.0452 -0.6013
  126TIP3    H1  342   4.976   5.553   4.993  0.5612 -0.8133 -2.5267
  126TIP3    H2  343   5.031   5.647   4.888 -0.3949  1.2229 -1.2593
  127TIP3   OH2  344   2.918   4.565   5.301 -0.0602 -0.0016  0.2711
  127TIP3    H1  345   2.982   4.570   5.230  0.8413 -0.9521  0.9732
  127TIP3    H2  346   2.963   4.606   5.375 -0.2838 -0.6208  0.7557
  128TIP3   OH2  347   1.035   4.321   3.865 -0.1723 -0.1389 -0.8950
  128TIP3    H1  348   1.011   4.251   3.925 -1.1586  1.1236  0.2518
  128TIP3    H2  349   1.076   4.276   3.791 -1.0507 -1.9266 -0.3544
  129TIP3   OH2  350   0.609   3.493   1.237  0.9132 -0.0785  0.2687
  129TIP3    H1  351   0.562   3.490   1.320  0.5007 -1.8008  0.0116
  129TIP3    H2  352   0.583   3.576   1.197 -0.0540  0.0690  1.1754
  130TIP3   OH2  353   4.776   0.154   1.947 -0.1165 -0.0447 -0.6601
  130TIP3    H1  354   4.693   0.127   1.908  0.4823 -0.5523 -1.6169
  130TIP3    H2  355   4.810   0.074   1.988 -0.3707  0.3001  0.2368
  131TIP3   OH2  356   3.350   2.635   3.366 -0.2125  0.5004 -0.1940
  131TIP3    H1  357   3.260   2.658   3.342 -0.3981 -1.8531 -2.2174
  131TIP3    H2  358   3.404   2.685   3.306 -0.1779  1.5125  0.6659
  132TIP3   OH2  359   5.109   1.652   0.446  0.3892  0.2546  0.2006
  132TIP3    H1  360   5.163   1.658   0.525 -0.6145  0.6430  0.8808
  132TIP3    H2  361   5.022   1.680   0.475 -0.5087 -1.5792 -0.5387
  133TIP3   OH2  362   4.949   3.995   3.676 -0.1320 -0.6686  0.2256
  133TIP3    H1  363   5.025   4.052   3.668  0.9975 -2.1429  0.0514
  133TIP3    H2  364   4.919   3.984   3.585  1.0014 -2.0813 -0.0047
  134TIP3   OH2  365   0.748   5.278   5.455 -0.0049  0.1008  0.4092
  134TIP3    H1  366   0.786   5.191   5.460 -0.0993  0.0953  1.2359
  134TIP3    H2  367   0.812   5.335   5.498  0.4724  0.5973 -0.9149
  135TIP3   OH2  368   2.392   2.292  -0.009  0.3223 -0.8220  0.2817
  135TIP3    H1  369   2.366   2.201   0.008 -1.2090 -0.1502  1.8624
  135TIP3    H2  370   2.386   2.335   0.076 -0.5365  1.1249 -0.7047
  136TIP3   OH2  371   6.999   1.055   3.932 -0.2947  0.1087  0.7565
  136TIP3    H1  372   6.996   1.062   3.837  0.0410 -1.5827  0.5884
  136TIP3    H2  373   6.908   1.067   3.960 -0.2876  1.3575  0.3136
  137TIP3   OH2  374   1.088   6.755   3.478 -0.2030  0.1766  0.5429
  137TIP3    H1  375   1.037   6.685   3.520 -0.6690  0.3962  0.3567
  137TIP3    H2  376   1.027   6.794   3.415  0.6390 -0.5181 -0.7557
  138TIP3   OH2  377   0.577   5.614   4.263 -0.0329 -0.2580  0.3285
  138TIP3    H1  378   0.502   5.558   4.283 -0.2936 -0.0207  0.0253
  138TIP3    H2  379   0.635   5.559   4.210 -0.1878 -0.3112  0.2129
  139TIP3   OH2  380   2.946   6.231   5.640 -0.5748  0.0905  0.9471
  139TIP3    H1  381   2.863   6.194   5.671 -1.1942 -1.0691 -1.7943
  139TIP3    H2  382   2.921   6.314   5.602 -0.5767 -0.4349 -0.2276
  140TIP3   OH2  383   5.416   2.529   1.567 -0.1548 -0.0670 -0.5439
  140TIP3    H1  384   5.401   2.506   1.476 -2.0079  0.1613 -0.3388
  140TIP3    H2  385   5.329   2.554   1.600  0.7204  1.2243  0.8989
  141TIP3   OH2  386   5.494   4.876   4.612  0.3264 -0.1829 -0.1740
  141TIP3    H1  387   5.407   4.848   4.642 -0.1141  0.3640 -0.8990
  141TIP3    H2  388   5.555   4.819   4.658 -0.5217 -2.2677 -1.5100
  142TIP3   OH2  389   0.722   3.052   3.021 -0.5518  0.2651  0.2231
  142TIP3    H1  390   0.807   3.061   2.978  0.2406 -3.1534  0.7791
  142TIP3    H2  391   0.659   3.043   2.950 -0.0550  0.0718 -0.1961
  143TIP3   OH2  392   2.355   6.129   3.802  0.7601 -0.0662  0.5861
  143TIP3    H1  393   2.436   6.178   3.818  0.1492  1.6587 -1.2324
  143TIP3    H2  394   2.346   6.073   3.879  1.5463  2.6132  2.7869
  144TIP3   OH2  395   3.368   5.261   0.210  0.1885  0.5590 -0.2738
  144TIP3    H1  396   3.360   5.343   0.259  2.3845 -0.6449  2.3537
  144TIP3    H2  397   3.448   5.221   0.244  1.2561 -1.0057 -4.1091
  145TIP3   OH2  398   3.062   3.682   3.799 -0.0588  0.2797  0.2935
  145TIP3    H1  399   3.144   3.719   3.831  0.9190  0.6108 -2.2994
  145TIP3    H2  400   2.997   3.750   3.813 -0.7454 -0.9813  5.0199
  146TIP3   OH2  401   4.655   0.786   4.492  0.0606  0.1841 -0.4248
  146TIP3    H1  402   4.750   0.789   4.501 -0.0110 -0.6486  0.8134
  146TIP3    H2  403   4.639   0.711   4.435  0.1643  0.9875 -1.5642
  147TIP3   OH2  404   3.394   4.992   4.367 -0.2194  0.0187  0.6370
  147TIP3    H1  405   3.459   5.061   4.377  0.5154 -0.7665  1.4211
  147TIP3    H2  406   3.321   5.020   4.423  0.0781  0.1594  0.9561
  148TIP3   OH2  407   6.968   5.454   3.990  0.2722 -0.4490  0.3967
  148TIP3    H1  408   7.054   5.449   3.948 -0.0869  0.4172 -0.4738
  148TIP3    H2  409   6.968   5.382   4.054  2.1243  0.3702  1.3692
  149TIP3   OH2  410   2.670   5.542   1.476  0.3099  0.3346 -0.8399
  149TIP3    H1  411   2.650   5.460   1.521 -0.1903  0.4315 -0.8740
  149TIP3    H2  412   2.744   5.521   1.419  0.2762 -0.0549 -0.7450
  150TIP3   OH2  413   1.470   2.594   0.199 -0.5668  0.5574  0.0285
  150TIP3    H1  414   1.492   2.504   0.221  2.1165  1.4261  1.3926
  150TIP3    H2  415   1.490   2.602   0.106  0.2854 -0.0137  0.1496
  151TIP3   OH2  416   4.308   3.478   1.427 -0.3084  0.1263  0.3789
  151TIP3    H1  417   4.402   3.476   1.442  0.1791  2.7204 -1.6568
  151TIP3    H2  418   4.280   3.565   1.456 -2.3871 -1.0573  2.2301
  152TIP3   OH2  419   4.174   3.301   0.928  0.6435  0.1155  0.3545
  152TIP3    H1  420   4.201   3.349   1.006  1.1482 -1.1750  1.0041
  152TIP3    H2  421   4.185   3.209   0.951  0.6006 -0.3039 -1.1740
  153TIP3   OH2  422   4.517   4.182   0.566 -0.0525 -0.0404 -0.6456
  153TIP3    H1  423   4.603   4.217   0.540 -0.3832  0.1873 -1.4400
  153TIP3    H2  424   4.533   4.142   0.652  0.2372  2.5316  0.6051
  154TIP3   OH2  425   6.309   6.596   4.591 -0.0506 -0.6044 -0.2712
  154TIP3    H1  426   6.306   6.542   4.513  0.4801 -1.3084  0.1806
  154TIP3    H2  427   6.252   6.670   4.572  0.5801 -0.4355 -1.5674
  155TIP3   OH2  428   6.317   5.662   4.063 -0.1080 -0.1180 -0.3070
  155TIP3    H1  429   6.395   5.648   4.116  0.7066 -0.4844 -1.5490
  155TIP3    H2  430   6.341   5.734   4.004 -0.8005 -0.0571 -0.5182
  156TIP3   OH2  431   4.378   0.797   5.838  0.6700 -0.2981 -0.1779
  156TIP3    H1  432   4.467   0.766   5.850  0.3634 -0.5839  1.7073
  156TIP3    H2  433   4.388   0.889   5.813  1.5093  0.1552  1.6436
  157TIP3   OH2  434   4.409   1.098   4.994 -0.2641 -0.1580 -0.6292
  157TIP3    H1  435   4.465   1.164   4.953 -0.8145  0.0658 -1.0314
  157TIP3    H2  436   4.345   1.075   4.926 -1.5380  0.6236  0.2611
  158TIP3   OH2  437   5.157   5.039   3.005  0.0431  0.2857 -0.7012
  158TIP3    H1  438   5.231   5.048   3.065 -0.5826  1.2594 -0.0416
  158TIP3    H2  439   5.184   5.086   2.926  0.5634 -0.3191 -0.8816
  159TIP3   OH2  440   4.183   5.441   2.950 -0.0208 -0.4167  0.0453
  159TIP3    H1  441   4.273   5.410   2.961  0.3423  0.8681  1.0015
  159TIP3    H2  442   4.137   5.411   3.029 -0.2798 -0.5438 -0.1516
  160TIP3   OH2  443   0.258   0.800   0.074 -0.0098 -0.3311  0.4631
  160TIP3    H1  444   0.255   0.706   0.094 -0.3137 -0.4974 -0.3338
  160TIP3    H2  445   0.344   0.813   0.034  1.0173  0.1880  2.6821
  161TIP3   OH2  446   6.154   0.575   2.357 -0.1225 -0.2083  0.0981
  161TIP3    H1  447   6.090   0.644   2.340 -0.8601 -1.1056 -0.8676
  161TIP3    H2  448   6.197   0.603   2.438 -0.0676  1.6083 -0.5122
  162TIP3   OH2  449   2.195   1.393   0.958  0.1401  0.5775 -0.3851
  162TIP3    H1  450   2.210   1.337   1.034  2.6580 -1.0259 -1.9134
  162TIP3    H2  451   2.261   1.462   0.965  0.9499 -0.0578 -1.4972
  163TIP3   OH2  452   6.855   4.798   2.417 -0.0417  0.1155 -0.4804
  163TIP3    H1  453   6.760   4.793   2.419 -0.1387  1.5406 -0.5648
  163TIP3    H2  454   6.880   4.749   2.338 -0.5629 -1.5538  0.3418
  164TIP3   OH2  455   4.795   6.820   5.759 -0.0428  0.4608 -0.5926
  164TIP3    H1  456   4.874   6.768   5.769  1.8547  2.6643 -2.9838
  164TIP3    H2  457   4.738   6.768   5.702 -0.1510 -0.8558  0.6435
  165TIP3   OH2  458   4.516   5.271   0.079  0.3249  1.3819  0.1922
  165TIP3    H1  459   4.545   5.328   0.151  1.6564  0.7682  0.1656
  165TIP3    H2  460   4.584   5.204   0.072 -1.2613 -0.3181  0.3099
  166TIP3   OH2  461   6.540   1.968   1.983  0.1599  0.0266 -0.5169
  166TIP3    H1  462   6.496   2.045   1.948  0.4951 -0.6191 -2.4860
  166TIP3    H2  463   6.623   1.964   1.935  1.3173 -0.1534  1.3677
  167TIP3   OH2  464   1.758   3.913   2.238 -0.0616  0.0089 -0.1044
  167TIP3    H1  465   1.837   3.967   2.237 -1.1031  1.6155 -0.0788
  167TIP3    H2  466   1.755   3.872   2.152  0.2577  0.8010 -0.5056
  168TIP3   OH2  467   4.689   4.845   3.324 -0.4822  0.6435  0.7393
  168TIP3    H1  468   4.780   4.815   3.327 -0.7081 -0.0303  1.1875
  168TIP3    H2  469   4.638   4.765   3.334 -1.1337  0.9431 -0.0825
  169TIP3   OH2  470   6.695   0.330   1.250  0.1124  0.1283  0.2045
  169TIP3    H1  471   6.617   0.321   1.196  0.0316 -1.1171  0.4961
  169TIP3    H2  472   6.765   0.290   1.198  1.1066  3.1839 -1.0425
  170TIP3   OH2  473   6.074   5.043   2.829  0.4212  0.2853  0.1220
  170TIP3    H1  474   6.092   5.078   2.917 -0.4425 -0.1478  0.4861
  170TIP3    H2  475   6.020   4.965   2.845 -0.0246  0.3895 -0.8138
  171TIP3   OH2  476   5.914   4.987   5.608 -0.1499 -0.0389 -0.7515
  171TIP3    H1  477   5.848   4.982   5.539 -2.0538 -0.3395  0.9837
  171TIP3    H2  478   5.959   4.903   5.604 -1.5765 -0.8552 -0.4049
  172TIP3   OH2  479   4.230   3.225   1.521  0.2895  0.0816  0.0110
  172TIP3    H1  480   4.280   3.188   1.448 -0.8850 -0.8305 -0.3515
  172TIP3    H2  481   4.248   3.319   1.516  0.9404 -0.0736 -0.8947
  173TIP3   OH2  482   2.051   6.127   0.392  0.2780 -0.0318  0.0104
  173TIP3    H1  483   2.006   6.133   0.477  1.1738  0.7593  0.4530
  173TIP3    H2  484   2.043   6.215   0.355  1.3811  0.1012  0.0677
  174TIP3   OH2  485   1.101   6.416   0.599  0.1696  0.3054 -0.1637
  174TIP3    H1  486   1.127   6.468   0.674  1.6346 -0.3902 -0.1398
  174TIP3    H2  487   1.038   6.353   0.633  1.1325 -0.2748  0.5939
  175TIP3   OH2  488   1.012   0.312   2.938  0.0191 -0.1628 -0.3326
  175TIP3    H1  489   0.972   0.311   3.025 -1.2951  1.8725 -0.8315
  175TIP3    H2  490   1.038   0.403   2.925 -0.2393 -0.3202 -2.2407
  176TIP3   OH2  491   6.450   3.486   2.591 -0.9622  0.0485  0.1005
  176TIP3    H1  492   6.444   3.528   2.676  0.7221 -0.5816  0.5879
  176TIP3    H2  493   6.395   3.538   2.533  0.2984  2.3722  0.8826
  177TIP3   OH2  494   3.717   0.458   2.641  0.4287  0.6317  0.0865
  177TIP3    H1  495   3.708   0.366   2.668 -0.0311  0.7587  0.3734
  177TIP3    H2  496   3.736   0.504   2.723 -1.6158  1.1195  0.3439
  178TIP3   OH2  497   4.015   1.731   2.044 -0.6202  0.1194  0.4915
  178TIP3    H1  498   3.994   1.802   2.104 -1.0122  1.2533 -0.9428
  178TIP3    H2  499   3.941   1.726   1.984  0.0987 -0.4503 -0.3899
  179TIP3   OH2  500   3.262   5.239   5.389 -0.5038 -0.3925  0.5226
  179TIP3    H1  501   3.326   5.187   5.339 -0.1057  0.0475  0.5699
  179TIP3    H2  502   3.281   5.329   5.366 -1.3203 -0.2772  0.3050
  180TIP3   OH2  503   5.736   2.065   1.812 -0.1396  0.7470 -0.1119
  180TIP3    H1  504   5.820   2.020   1.827  0.4737  1.2027 -1.9152
  180TIP3    H2  505   5.727   2.125   1.886  0.3044 -0.4635  0.9655
  181TIP3   OH2  506   4.227   3.292   0.156  0.0017  0.0904 -0.3331
  181TIP3    H1  507   4.285   3.249   0.093  1.6517  1.0439  0.4410
  181TIP3    H2  508   4.285   3.315   0.229 -1.4787  0.6425  0.7158
  182TIP3   OH2  509   0.029   3.443   2.045  0.6345  0.5833  0.4310
  182TIP3    H1  510   0.037   3.408   1.956  0.5793  0.2304  0.5639
  182TIP3    H2  511   0.088   3.389   2.097  1.8105  1.7160  0.3549
  183TIP3   OH2  512   4.763   4.780   1.254  0.4452  0.1549 -0.8944
  183TIP3    H1  513   4.727   4.717   1.192  1.1971 -0.3226 -0.8495
  183TIP3    H2  514   4.743   4.743   1.340 -0.8577  0.9606 -0.8286
  184TIP3   OH2  515   0.062   3.870   2.086  0.1758 -0.2871  0.0918
  184TIP3    H1  516   0.088   3.826   2.166  1.0099 -0.0919 -0.0685
  184TIP3    H2  517   0.088   3.961   2.099 -0.9209  0.0341  0.1457
  185TIP3   OH2  518   2.724   4.618   1.465 -0.1576  0.1933  0.0768
  185TIP3    H1  519   2.797   4.648   1.519  0.7099 -1.9660  0.2171
  185TIP3    H2  520   2.647   4.634   1.518  0.6623 -1.7552  2.0085
  186TIP3   OH2  521   2.636   2.207   2.603  0.2928  0.0381  0.1812
  186TIP3    H1  522   2.725   2.177   2.581  0.6883  2.3603 -1.8490
  186TIP3    H2  523   2.582   2.128   2.599  1.9083 -1.0826 -0.6667
  187TIP3   OH2  524   3.190   4.825   4.476  0.0204 -0.1036  0.4332
  187TIP3    H1  525   3.258   4.831   4.410 -0.2659 -0.3532  0.1129
  187TIP3    H2  526   3.233   4.851   4.557  0.2819  0.5554  0.0880
  188TIP3   OH2  527   1.265   4.805   0.016  0.7463 -0.1163  0.2988
  188TIP3    H1  528   1.301   4.761   0.093 -0.7943 -0.2823  0.9560
  188TIP3    H2  529   1.300   4.756  -0.058  1.1052 -0.8484  0.9341
  189TIP3   OH2  530   3.835   2.455   0.787  0.1984 -0.4742  0.0749
  189TIP3    H1  531   3.818   2.511   0.712 -0.3697 -1.1031 -0.2815
  189TIP3    H2  532   3.929   2.437   0.783  0.4685  0.7422  0.4228
  190TIP3   OH2  533   1.650   6.166   1.885 -0.1371  0.0226 -0.1902
  190TIP3    H1  534   1.694   6.247   1.910  1.6890 -1.5396  2.0503
  190TIP3    H2  535   1.567   6.194   1.847  0.7928  2.9391 -0.2632
  191TIP3   OH2  536   7.036   4.244   2.044 -0.1113 -0.3783  0.1576
  191TIP3    H1  537   7.073   4.265   1.959  2.8929 -1.6327  1.0168
  191TIP3    H2  538   6.981   4.168   2.028 -2.6224  1.5569 -1.1699
  192TIP3   OH2  539   4.988   4.384   1.179 -0.1109 -0.0941  0.2491
  192TIP3    H1  540   5.036   4.410   1.101 -2.5483 -0.8130 -1.5923
  192TIP3    H2  541   4.995   4.460   1.238  1.9722  0.3606 -0.4924
  193TIP3   OH2  542   5.217   0.521   0.643  0.0785 -0.2366  0.4800
  193TIP3    H1  543   5.179   0.569   0.717 -1.9170  0.3031 -0.7981
  193TIP3    H2  544   5.209   0.581   0.569  1.4832 -0.9828 -0.3267
  194TIP3   OH2  545   4.804   2.066   4.381 -0.6743  0.4666  0.0136
  194TIP3    H1  546   4.771   1.977   4.392 -1.8249  0.4662 -2.7450
  194TIP3    H2  547   4.895   2.055   4.356  0.5756  0.3434  3.8947
  195TIP3   OH2  548   4.198   0.957   0.317 -0.0258 -0.2200 -0.4929
  195TIP3    H1  549   4.115   0.961   0.364 -0.7534  1.3725 -1.8045
  195TIP3    H2  550   4.243   0.880   0.353 -1.2431 -0.0306  1.5525
  196TIP3   OH2  551   1.970   5.253   3.306  0.7615  0.3454  0.1106
  196TIP3    H1  552   1.975   5.298   3.391 -0.8886  1.5865 -0.3794
  196TIP3    H2  553   1.938   5.321   3.246 -0.4107 -1.1247 -0.9883
  197TIP3   OH2  554   6.306   4.744   4.351  0.0742  0.1646  0.4091
  197TIP3    H1  555   6.299   4.649   4.346 -1.4027  0.1918  1.4203
  197TIP3    H2  556   6.400   4.762   4.346  0.4677 -1.4256  1.5548
  198TIP3   OH2  557   1.543   2.182   1.067  0.4335  0.5818 -0.2986
  198TIP3    H1  558   1.546   2.113   1.000  1.8495  1.6560 -1.4088
  198TIP3    H2  559   1.634   2.208   1.078  0.4113 -0.3466  2.9599
  199TIP3   OH2  560   2.106   2.665   0.408  0.6001  0.2281  0.3462
  199TIP3    H1  561   2.020   2.636   0.378 -0.1491  0.5192  2.0902
  199TIP3    H2  562   2.100   2.761   0.408  2.2524  0.4731 -3.1012
  200TIP3   OH2  563   1.790   3.413   0.914 -0.0960  1.2693 -0.2812
  200TIP3    H1  564   1.873   3.444   0.951  1.1667 -0.2241 -1.7167
  200TIP3    H2  565   1.748   3.492   0.881  0.8669  2.0356  0.2621
  201TIP3   OH2  566   0.458   0.945   5.256 -0.4380  1.2542 -0.1994
  201TIP3    H1  567   0.489   0.917   5.342  1.5434  2.1593 -0.5730
  201TIP3    H2  568   0.532   0.929   5.197 -2.3972 -1.3093 -2.2267
  202TIP3   OH2  569   4.759   0.420   5.631 -0.6159  0.4064 -0.0145
  202TIP3    H1  570   4.686   0.388   5.684  0.2305 -0.6705  0.5701
  202TIP3    H2  571   4.792   0.496   5.678  0.3443 -0.7415  1.2714
  203TIP3   OH2  572   3.621   5.158   5.453 -0.5886  0.0881 -0.3351
  203TIP3    H1  573   3.533   5.152   5.415 -0.8383 -0.0120  0.2393
  203TIP3    H2  574   3.661   5.073   5.435 -1.5027 -0.7874  1.5066
  204TIP3   OH2  575   5.344   5.411   5.624 -0.3383  0.5683 -0.5619
  204TIP3    H1  576   5.418   5.463   5.593  0.6197  0.7858  1.9061
  204TIP3    H2  577   5.375   5.320   5.617 -0.3396  0.5797 -0.7293
  205TIP3   OH2  578   6.795   3.762   1.048  0.4043 -0.4067 -0.1967
  205TIP3    H1  579   6.719   3.711   1.077  0.3917 -0.0035  0.5169
  205TIP3    H2  580   6.871   3.711   1.076  0.3908 -0.1572  0.3116
  206TIP3   OH2  581   0.874   6.625   1.210  0.2471 -0.6334 -0.5354
  206TIP3    H1  582   0.844   6.594   1.125 -0.8837  1.9117 -1.1547
  206TIP3    H2  583   0.794   6.651   1.256  1.0231  0.6526  0.1670
  207TIP3   OH2  584   3.014   1.595   1.756 -0.0926 -0.3007  0.3745
  207TIP3    H1  585   2.958   1.671   1.738  1.5972  0.5553 -1.7491
  207TIP3    H2  586   3.011   1.544   1.675  1.4073 -0.7300  0.5564
  208TIP3   OH2  587   2.892   3.121   1.021 -0.6664 -0.5057  0.3659
  208TIP3    H1  588   2.972   3.071   1.009 -1.0753 -1.5719  1.9031
  208TIP3    H2  589   2.902   3.165   1.105 -2.3799 -2.0701  1.4620
  209TIP3   OH2  590   1.223   1.095   2.960 -0.0667  0.0798  0.2064
  209TIP3    H1  591   1.146   1.071   2.907 -0.6400  2.0915  0.0363
  209TIP3    H2  592   1.292   1.037   2.928 -1.0575 -0.5560 -0.9101
  210TIP3   OH2  593   3.065   2.245   1.207  0.5523 -0.0471 -0.0567
  210TIP3    H1  594   2.991   2.201   1.166  0.0020  0.7339  0.0879
  210TIP3    H2  595   3.099   2.304   1.140  0.5661  0.1594  0.1292
  211TIP3   OH2  596   1.904   2.686   4.021  0.4335  0.1656 -0.0976
  211TIP3    H1  597   1.924   2.767   3.975  1.0381 -0.2339 -0.5488
  211TIP3    H2  598   1.809   2.678   4.013  0.4595  0.4105 -0.7683
  212TIP3   OH2  599   4.740   3.432   4.118 -0.0917 -0.8397  0.0291
  212TIP3    H1  600   4.693   3.461   4.197  2.9234 -0.4475  1.8146
  212TIP3    H2  601   4.783   3.351   4.144  1.3837 -0.4355 -1.0262
  213TIP3   OH2  602   5.176   4.791   1.958  0.3879  0.0878  0.2629
  213TIP3    H1  603   5.113   4.757   2.022 -0.6423 -2.2674 -1.8251
  213TIP3    H2  604   5.251   4.731   1.965 -1.0869 -2.3901 -2.8618
  214TIP3   OH2  605   2.172   2.129   2.513 -0.4378 -0.0504  0.6711
  214TIP3    H1  606   2.257   2.087   2.530 -0.7530  0.1042  3.0053
  214TIP3    H2  607   2.108   2.067   2.546 -1.5651 -1.3842 -3.4359
  215TIP3   OH2  608   4.807   3.151   1.426 -0.6907 -0.0815  0.0623
  215TIP3    H1  609   4.823   3.226   1.369 -0.4470  1.3445  1.9103
  215TIP3    H2  610   4.864   3.083   1.392  2.4331  1.9217  0.8508
  216TIP3   OH2  611   0.218   1.140   5.548 -0.2608  0.0651  0.1622
  216TIP3    H1  612   0.176   1.211   5.500 -1.3364 -0.3318  0.4795
  216TIP3    H2  613   0.211   1.065   5.489  1.7326  0.4051 -0.5837
  217TIP3   OH2  614   0.248   1.093   1.084 -0.1425  0.0998 -0.5111
  217TIP3    H1  615   0.314   1.028   1.110  0.2341  0.6373 -0.1150
  217TIP3    H2  616   0.290   1.143   1.014 -0.4139 -0.0453 -0.7797
  218TIP3   OH2  617   7.072   3.309   5.618  0.4936  0.4101  0.7639
  218TIP3    H1  618   6.994   3.333   5.668  0.4121 -1.2700  1.5397
  218TIP3    H2  619   7.046   3.232   5.568  1.0495  1.1275 -0.6809
  219TIP3   OH2  620   0.881   5.366   3.799 -0.1598 -0.7003  0.2104
  219TIP3    H1  621   0.932   5.299   3.846  0.2857 -1.1644 -0.8984
  219TIP3    H2  622   0.911   5.449   3.836 -0.1610 -1.0675  1.0666
  220TIP3   OH2  623   0.038   0.294   5.755 -0.7020 -0.4902 -0.3966
  220TIP3    H1  624   0.021   0.201   5.763  1.8694 -1.0190  0.0681
  220TIP3    H2  625   0.102   0.312   5.824 -0.5561  1.4463 -0.9767
  221TIP3   OH2  626   2.012   6.082   3.992  0.6928 -0.1727  0.4879
  221TIP3    H1  627   2.038   5.998   4.029  3.4504 -0.1462 -1.1049
  221TIP3    H2  628   2.034   6.146   4.060 -3.6247 -0.6869  2.7290
  222TIP3   OH2  629   3.098   1.675   4.715 -0.0925  0.1442  0.3555
  222TIP3    H1  630   3.114   1.583   4.738  2.5429 -0.3094 -2.5971
  222TIP3    H2  631   3.039   1.670   4.639  0.8428  0.7737 -0.4340
  223TIP3   OH2  632   4.611   3.470   5.693 -0.2372  0.4136  0.0152
  223TIP3    H1  633   4.620   3.562   5.718 -1.7168  0.7835 -0.6827
  223TIP3    H2  634   4.692   3.450   5.646 -0.0426  1.4695 -0.1264
  224TIP3   OH2  635   4.230   4.138   3.692  0.0768  0.3107  0.4327
  224TIP3    H1  636   4.172   4.101   3.758  0.5597  0.0325  0.7101
  224TIP3    H2  637   4.181   4.211   3.655  0.8309  2.3372  3.1034
  225TIP3   OH2  638   1.902   4.075   2.989 -0.1707  0.1870 -0.0380
  225TIP3    H1  639   1.927   4.033   3.071  0.5473 -1.1914 -0.9193
  225TIP3    H2  640   1.868   4.004   2.935  0.8212  0.7578 -1.4922
  226TIP3   OH2  641   0.816   0.116   2.573 -0.1319 -0.2947  0.0947
  226TIP3    H1  642   0.803   0.098   2.666 -0.9205  0.5594  0.1651
  226TIP3    H2  643   0.843   0.208   2.570  0.0076 -0.3513 -0.5204
  227TIP3   OH2  644   3.669   1.749   2.911 -0.8107  0.2050  0.1301
  227TIP3    H1  645   3.729   1.701   2.854 -2.1000 -0.4581 -0.7197
  227TIP3    H2  646   3.702   1.839   2.910 -1.3715  0.4585 -2.5748
  228TIP3   OH2  647   0.940   0.071   2.884 -0.1404  0.3575  0.2589
  228TIP3    H1  648   0.847   0.088   2.903 -0.6542  1.9510 -2.9718
  228TIP3    H2  649   0.981   0.158   2.888  0.1835  0.4452 -2.7248
  229TIP3   OH2  650   3.757   4.429   5.254 -0.0140  0.0265 -0.1335
  229TIP3    H1  651   3.740   4.335   5.244  2.4499 -0.4622 -0.4353
  229TIP3    H2  652   3.725   4.450   5.342  1.8978 -1.8009  1.1006
  230TIP3   OH2  653   1.051   6.050   4.450 -0.3334  0.5960  0.0460
  230TIP3    H1  654   1.093   6.038   4.365 -1.4090  1.0323 -0.5711
  230TIP3    H2  655   1.033   5.962   4.482  2.2711  0.3273  0.9934
  231TIP3   OH2  656   4.599   4.591   0.003 -0.2019 -0.0175  0.1792
  231TIP3    H1  657   4.683   4.564  -0.034 -0.1245 -0.3205  0.5582
  231TIP3    H2  658   4.589   4.534   0.080 -0.1455  0.8944  0.8715
  232TIP3   OH2  659   7.110   6.195   5.664  0.1506  0.3447  0.1396
  232TIP3    H1  660   7.043   6.192   5.732 -0.3841  0.3329 -0.3847
  232TIP3    H2  661   7.061   6.200   5.582  0.7968  1.0812 -0.2077
  233TIP3   OH2  662   7.136   2.898   4.070 -0.4972 -0.0139 -0.0530
  233TIP3    H1  663   7.083   2.824   4.040  0.2065  0.3696 -2.4449
  233TIP3    H2  664   7.221   2.886   4.028  0.6352  0.5820  1.9308
  234TIP3   OH2  665   1.547   2.543   0.585  0.1312 -0.1194 -0.4166
  234TIP3    H1  666   1.516   2.463   0.543 -0.2823 -0.6935  0.9223
  234TIP3    H2  667   1.478   2.607   0.568  0.4228 -0.0645 -1.4214
  235TIP3   OH2  668   2.691   4.119   4.456  0.1650  0.4937 -0.0676
  235TIP3    H1  669   2.702   4.043   4.513 -2.2011  0.4291  0.4462
  235TIP3    H2  670   2.720   4.193   4.509  1.3732  0.0966 -0.1432
  236TIP3   OH2  671   3.440   6.685   2.587 -0.6186  0.1035  0.2068
  236TIP3    H1  672   3.411   6.596   2.604 -1.0674  0.0725 -0.6689
  236TIP3    H2  673   3.481   6.681   2.500 -1.1780  0.8577 -0.1065
  237TIP3   OH2  674   3.142   5.796   5.881  0.3102  0.0341 -0.5521
  237TIP3    H1  675   3.199   5.862   5.842  0.0388  0.0370 -0.9454
  237TIP3    H2  676   3.099   5.754   5.807 -1.3141  1.0336 -0.2219
  238TIP3   OH2  677   5.943   2.448   3.688  0.3553  0.3231  0.1265
  238TIP3    H1  678   5.908   2.435   3.777  1.0605  0.8060  0.4798
  238TIP3    H2  679   5.975   2.538   3.688  1.1294  0.0551 -0.3535
  239TIP3   OH2  680   6.915   4.308   0.224  0.2686 -0.3321  0.2633
  239TIP3    H1  681   6.919   4.280   0.316  0.5370  1.3908  0.7995
  239TIP3    H2  682   6.864   4.389   0.226  0.6929 -0.0131 -1.0478
  240TIP3   OH2  683   4.508   4.479   2.137 -0.0553 -0.6043 -0.6664
  240TIP3    H1  684   4.444   4.408   2.127  1.0946 -1.6590 -0.7859
  240TIP3    H2  685   4.530   4.479   2.230 -0.5838  0.0976 -0.5312
  241TIP3   OH2  686   0.462   1.450   4.983  0.2514  0.0328 -0.0306
  241TIP3    H1  687   0.433   1.518   5.044  1.0329  0.1704  0.2005
  241TIP3    H2  688   0.427   1.369   5.018  0.1602  0.1919  0.2475
  242TIP3   OH2  689   6.367   6.308   4.437 -0.3637 -0.0701  0.0627
  242TIP3    H1  690   6.320   6.367   4.379 -0.0869 -1.7096 -1.9307
  242TIP3    H2  691   6.455   6.303   4.400 -0.6578 -2.4698 -0.4877
  243TIP3   OH2  692   2.366   3.027   5.231  0.5908 -0.2716 -0.1561
  243TIP3    H1  693   2.391   3.082   5.157 -1.2241 -0.6936 -1.1576
  243TIP3    H2  694   2.351   3.089   5.303 -1.3686  0.6270 -1.2470
  244TIP3   OH2  695   3.313   0.596   1.578  0.3654 -0.1164  0.7295
  244TIP3    H1  696   3.260   0.668   1.613  0.2161  1.2156 -1.9921
  244TIP3    H2  697   3.402   0.630   1.574  0.1442  0.3496 -1.4469
  245TIP3   OH2  698   3.050   3.353   5.275 -0.4701 -0.2650 -0.0697
  245TIP3    H1  699   3.005   3.286   5.224 -1.9063  1.3723 -1.0701
  245TIP3    H2  700   3.035   3.329   5.367  2.1354 -3.2522 -0.2664
  246TIP3   OH2  701   1.290   0.524   5.673 -0.4902 -0.0765  0.1358
  246TIP3    H1  702   1.376   0.493   5.700 -0.5824 -0.4530  0.0040
  246TIP3    H2  703   1.300   0.618   5.663 -0.1813 -0.0764  0.4500
  247TIP3   OH2  704   3.376   3.690   4.957  0.1942 -0.0788 -0.7015
  247TIP3    H1  705   3.310   3.621   4.952  0.2388 -0.3804  1.8468
  247TIP3    H2  706   3.457   3.648   4.929 -0.2534 -0.2971 -1.7320
  248TIP3   OH2  707   5.237   2.609   2.629  0.9648  0.2725  0.2746
  248TIP3    H1  708   5.159   2.587   2.578 -0.0829  2.0665  1.0171
  248TIP3    H2  709   5.271   2.524   2.658 -0.5753 -0.5664 -0.2697
  249TIP3   OH2  710   1.885   0.260   5.160  0.1307 -0.0858  0.0463
  249TIP3    H1  711   1.883   0.223   5.071 -1.5839  0.6672 -0.2781
  249TIP3    H2  712   1.914   0.350   5.147 -0.4273  0.1170  0.2100
  250TIP3   OH2  713   4.505   5.802   3.405 -0.2684 -0.3572  0.3238
  250TIP3    H1  714   4.555   5.731   3.445 -1.3457 -0.1687  2.0970
  250TIP3    H2  715   4.523   5.879   3.459 -2.1715 -0.2132  0.8131
  251TIP3   OH2  716   0.329   5.121   3.113 -0.3086  0.3973 -0.2508
  251TIP3    H1  717   0.360   5.034   3.137 -0.5743 -0.0681 -1.5652
  251TIP3    H2  718   0.378   5.144   3.034  0.3317  1.7858  0.4982
  252TIP3   OH2  719   1.488   1.150   2.397  0.1103 -0.2057 -0.6453
  252TIP3    H1  720   1.394   1.128   2.396 -0.4754  2.0667 -0.3791
  252TIP3    H2  721   1.531   1.067   2.376 -1.9326 -1.3840 -0.5408
  253TIP3   OH2  722   5.796   5.594   5.650 -0.3977 -0.0042  0.0626
  253TIP3    H1  723   5.705   5.597   5.620 -0.0926  1.0859 -0.8409
  253TIP3    H2  724   5.835   5.520   5.603 -0.1151  1.2413 -1.8051
  254TIP3   OH2  725   1.302   1.094   4.536  0.3479  1.2159  0.5895
  254TIP3    H1  726   1.290   1.025   4.602  0.2865 -0.0734 -0.7297
  254TIP3    H2  727   1.362   1.156   4.578  0.5451  0.2852  1.7563
  255TIP3   OH2  728   5.776   5.106   1.819 -0.3383  0.0162  0.8410
  255TIP3    H1  729   5.694   5.136   1.781  0.3078 -0.4213 -0.9830
  255TIP3    H2  730   5.767   5.010   1.823  0.3209 -0.0850  0.0231
  256TIP3   OH2  731   0.177   6.293   1.638 -0.2113  0.0706 -0.0148
  256TIP3    H1  732   0.269   6.273   1.621  0.0052  0.5819  0.5284
  256TIP3    H2  733   0.179   6.378   1.681 -0.9265 -0.0058  0.1721
  257TIP3   OH2  734   3.350   6.071   4.701  0.3106 -0.2774 -0.3554
  257TIP3    H1  735   3.397   6.146   4.738 -1.9527  1.4961 -0.8382
  257TIP3    H2  736   3.332   6.097   4.610 -1.0291 -1.1412 -0.3577
  258TIP3   OH2  737   2.825   2.015   2.533  0.4933  0.2818  0.0176
  258TIP3    H1  738   2.816   1.924   2.506 -0.8364  0.8265 -1.4820
  258TIP3    H2  739   2.916   2.021   2.563  1.2925 -1.0303 -1.8863
  259TIP3   OH2  740   2.780   6.409   4.261 -0.3780 -0.0086 -0.5119
  259TIP3    H1  741   2.768   6.347   4.332 -1.2634  1.3881  0.6194
  259TIP3    H2  742   2.754   6.494   4.298  1.9353  1.2736 -1.6037
  260TIP3   OH2  743   1.277   6.290   5.326  0.0919  0.5140  0.4582
  260TIP3    H1  744   1.201   6.309   5.271 -1.4721 -0.2524  2.2396
  260TIP3    H2  745   1.309   6.377   5.352 -0.3046  0.8506 -0.1345
  261TIP3   OH2  746   2.502   4.697   0.308 -0.5713 -0.4051 -0.1936
  261TIP3    H1  747   2.534   4.607   0.320  0.0373  0.0412  2.2119
  261TIP3    H2  748   2.520   4.739   0.392  1.1443  2.6075 -1.8990
  262TIP3   OH2  749   0.673   1.254   5.665 -0.1651  0.5928  0.3899
  262TIP3    H1  750   0.740   1.292   5.723 -1.2198  0.3485  1.8085
  262TIP3    H2  751   0.678   1.160   5.682  0.8364  0.2776 -1.3923
  263TIP3   OH2  752   2.003   3.069   3.025 -0.6666 -0.3714  0.1009
  263TIP3    H1  753   2.098   3.059   3.035 -0.9222 -1.9586  1.3216
  263TIP3    H2  754   1.993   3.113   2.941  1.1534  0.1831  0.1131
  264TIP3   OH2  755   1.277   4.234   2.389  0.3053  0.3247 -0.3964
  264TIP3    H1  756   1.283   4.329   2.395  1.5524  0.2332 -0.0029
  264TIP3    H2  757   1.329   4.211   2.311  1.2916 -0.1338  0.3670
  265TIP3   OH2  758   1.415   2.168   5.823 -0.0913  0.2347 -0.4828
  265TIP3    H1  759   1.382   2.099   5.880  1.0083 -0.1468 -0.2942
  265TIP3    H2  760   1.486   2.127   5.774 -0.4611  0.7923 -1.5286
  266TIP3   OH2  761   5.335   1.434   4.280 -0.6638  0.3800 -0.7773
  266TIP3    H1  762   5.379   1.367   4.228 -1.7238 -1.4433  0.5320
  266TIP3    H2  763   5.261   1.461   4.226 -0.5352  0.1016 -1.1003
  267TIP3   OH2  764   5.864   4.445   2.674 -0.2296  0.3687  0.0934
  267TIP3    H1  765   5.882   4.465   2.766 -2.0801  1.3846  0.2760
  267TIP3    H2  766   5.835   4.529   2.637 -1.4853 -0.4704 -0.8965
  268TIP3   OH2  767   0.404   0.886   0.385 -0.2014 -0.0351 -0.6239
  268TIP3    H1  768   0.407   0.937   0.467  2.9371  1.5204 -1.5570
  268TIP3    H2  769   0.350   0.939   0.326 -1.5684 -0.6253  0.0519
  269TIP3   OH2  770   6.736   5.944   3.445 -0.3726  0.0341  0.5201
  269TIP3    H1  771   6.829   5.920   3.442 -0.4370 -0.1580  0.0862
  269TIP3    H2  772   6.697   5.900   3.369 -0.1315  2.9988 -1.4857
  270TIP3   OH2  773   7.013   6.380   3.115  0.5675  0.2399 -0.3601
  270TIP3    H1  774   6.984   6.471   3.123 -0.6346  0.1883 -2.9439
  270TIP3    H2  775   7.084   6.383   3.051 -0.2341 -0.7112 -1.3500
  271TIP3   OH2  776   4.083   6.719   1.987 -0.1973 -0.2240 -0.3495
  271TIP3    H1  777   4.032   6.648   1.949 -1.3316  0.6367 -0.4802
  271TIP3    H2  778   4.170   6.681   2.000 -0.7612 -1.6151 -0.4492
  272TIP3   OH2  779   6.087   2.930   1.322  0.4463  0.1479 -0.3971
  272TIP3    H1  780   6.009   2.926   1.266 -0.5550 -1.2757  0.9912
  272TIP3    H2  781   6.052   2.930   1.411  1.9958 -2.9413  0.3442
  273TIP3   OH2  782   6.276   6.366   4.807 -0.1108 -0.4114  0.7175
  273TIP3    H1  783   6.203   6.411   4.764 -0.0098  1.2470  2.1884
  273TIP3    H2  784   6.235   6.290   4.848 -0.6693 -0.5134  0.0035
  274TIP3   OH2  785   2.528   3.882   3.077 -0.1691 -0.2732 -1.1770
  274TIP3    H1  786   2.549   3.867   2.985 -2.2200 -2.1636 -1.4283
  274TIP3    H2  787   2.596   3.835   3.125 -0.3255 -1.1755 -1.8119
  275TIP3   OH2  788   2.136   1.024   1.146  0.1960  0.5344  0.1405
  275TIP3    H1  789   2.173   1.095   1.198 -1.2124 -0.4479  2.6606
  275TIP3    H2  790   2.203   0.956   1.147  0.2113  0.5527  0.6228
  276TIP3   OH2  791   0.603   6.644   5.359 -0.4955 -0.1590  0.0933
  276TIP3    H1  792   0.548   6.622   5.434  1.6476  1.1056  2.1959
  276TIP3    H2  793   0.666   6.572   5.353 -1.0271 -0.5544 -0.9104
  277TIP3   OH2  794   3.350   0.824   4.276 -0.2377  0.4675  0.3509
  277TIP3    H1  795   3.393   0.899   4.318 -0.9734 -0.4396  2.9700
  277TIP3    H2  796   3.417   0.756   4.273  1.2126  1.7681 -4.3073
  278TIP3   OH2  797   1.935   6.467   0.594 -0.0837  0.1680 -0.1531
  278TIP3    H1  798   1.961   6.559   0.605  1.5020 -0.3045  0.3345
  278TIP3    H2  799   1.926   6.456   0.499 -0.3090  0.8327 -0.2135
  279TIP3   OH2  800   1.558   2.821   4.990  0.2147 -0.2657 -0.0468
  279TIP3    H1  801   1.513   2.739   5.012 -1.0393  0.2215 -0.6674
  279TIP3    H2  802   1.553   2.826   4.894  0.8345  0.2312 -0.0583
  280TIP3   OH2  803   6.799   0.003   0.618 -0.5754 -0.2230 -0.3846
  280TIP3    H1  804   6.708   0.025   0.638 -0.4536 -0.0221 -0.0402
  280TIP3    H2  805   6.850   0.072   0.661 -0.2181 -0.8676  0.2494
  281TIP3   OH2  806   3.776   6.401   1.280 -0.8264  0.1499 -0.1674
  281TIP3    H1  807   3.758   6.363   1.366  0.2572  1.0568  0.4996
  281TIP3    H2  808   3.856   6.452   1.293 -0.7707  0.4944 -1.6663
  282TIP3   OH2  809   2.483   3.116   2.381 -0.0113 -0.2055  0.0017
  282TIP3    H1  810   2.419   3.047   2.399 -0.6801  0.0667 -1.2141
  282TIP3    H2  811   2.553   3.073   2.332 -1.3761  0.2695 -2.5736
  283TIP3   OH2  812   1.057   2.032   2.488 -0.1371 -0.3625 -0.4153
  283TIP3    H1  813   1.008   2.114   2.493  0.6331  0.0538  0.9530
  283TIP3    H2  814   0.993   1.963   2.505 -0.8102 -0.0738 -1.6737
  284TIP3   OH2  815   1.011   0.592   5.503  0.2755  0.0130  0.5861
  284TIP3    H1  816   1.076   0.547   5.556  0.1736  0.0762  0.7635
  284TIP3    H2  817   0.934   0.598   5.558 -0.8633 -2.5696 -0.5688
  285TIP3   OH2  818   7.039   2.416   1.414  0.1484  0.5646  0.2074
  285TIP3    H1  819   7.013   2.508   1.415  0.0098  0.5296  1.0975
  285TIP3    H2  820   7.004   2.381   1.332  0.5109  1.3881 -0.3086
  286TIP3   OH2  821   0.480   5.766   5.435  0.5292  0.3427  0.0898
  286TIP3    H1  822   0.525   5.707   5.375  2.0502 -0.1263  1.6261
  286TIP3    H2  823   0.389   5.734   5.436  0.1759  0.9748 -2.6494
  287TIP3   OH2  824   4.583   4.908   5.160  0.1095 -0.1352  0.8524
  287TIP3    H1  825   4.562   4.832   5.106  2.3953 -1.2479  1.4028
  287TIP3    H2  826   4.576   4.876   5.250  0.4881  0.4764  1.1061
  288TIP3   OH2  827   0.829   0.534   1.170 -0.3781  0.2837  0.1336
  288TIP3    H1  828   0.819   0.619   1.213 -0.4776  1.1617 -1.5253
  288TIP3    H2  829   0.900   0.491   1.218  1.7275  2.5227 -0.7500
  289TIP3   OH2  830   2.356   4.251   4.083  0.8864 -0.1201  0.6890
  289TIP3    H1  831   2.306   4.259   4.164  0.0192 -0.8090  0.2378
  289TIP3    H2  832   2.310   4.184   4.032 -0.5364  2.4641 -1.7714
  290TIP3   OH2  833   1.651   3.420   1.176  0.7339  0.1058  0.0058
  290TIP3    H1  834   1.685   3.348   1.125 -0.0733  1.2946 -2.3714
  290TIP3    H2  835   1.577   3.454   1.124  0.0657  1.6213  1.8019
  291TIP3   OH2  836   2.778   0.480   4.965 -0.3758  0.1358 -0.3284
  291TIP3    H1  837   2.870   0.455   4.976 -0.5153 -0.0515  0.5055
  291TIP3    H2  838   2.779   0.576   4.972 -0.3630  0.0703  0.7263
  292TIP3   OH2  839   6.752   4.162   1.598 -0.0678  0.5522 -0.3438
  292TIP3    H1  840   6.751   4.067   1.611 -2.2034  0.5151 -0.5002
  292TIP3    H2  841   6.708   4.176   1.514 -1.9538  1.7955  0.7923
  293TIP3   OH2  842   2.042   6.233   4.667 -0.8111 -0.3145 -0.5698
  293TIP3    H1  843   1.999   6.185   4.596 -3.0914  0.9895 -0.1588
  293TIP3    H2  844   1.977   6.296   4.697  1.0758  1.1089  0.8169
  294TIP3   OH2  845   6.104   3.060   3.016 -0.4696 -0.5503  0.6323
  294TIP3    H1  846   6.171   3.116   2.977 -0.4022 -1.2957 -0.3346
  294TIP3    H2  847   6.124   3.061   3.110 -0.3282  0.8506  0.6093
  295TIP3   OH2  848   6.348   4.584   1.861 -0.5379  0.0400  0.3414
  295TIP3    H1  849   6.356   4.499   1.904 -0.3769  0.2915  0.8157
  295TIP3    H2  850   6.350   4.564   1.767  1.5257 -0.3106  0.4075
  296TIP3   OH2  851   3.112   0.694   5.634 -0.1338 -0.0478 -0.2635
  296TIP3    H1  852   3.039   0.735   5.588  1.2180  1.5704 -1.0353
  296TIP3    H2  853   3.073   0.616   5.674 -2.2947  0.7955 -0.5729
  297TIP3   OH2  854   6.881   4.177   0.460  0.1536  0.1707 -0.0743
  297TIP3    H1  855   6.898   4.218   0.544 -0.2805  0.1928  0.0059
  297TIP3    H2  856   6.786   4.182   0.449  0.0350 -1.1716  0.1288
  298TIP3   OH2  857   0.467   0.494   0.611 -0.3711 -0.0848 -0.0799
  298TIP3    H1  858   0.500   0.545   0.685  2.2790 -1.6802 -0.0438
  298TIP3    H2  859   0.470   0.403   0.642  3.7479 -1.1996 -2.8733
  299TIP3   OH2  860   3.887   4.221   0.148  0.5909 -0.5821  0.0143
  299TIP3    H1  861   3.823   4.257   0.209  0.0393 -0.1702 -0.7842
  299TIP3    H2  862   3.910   4.294   0.091  1.1289 -0.9443 -0.2462
  300TIP3   OH2  863   3.914   2.051   3.338  0.6156 -0.2568 -0.1764
  300TIP3    H1  864   3.891   1.960   3.321 -0.4783 -0.0912  0.2888
  300TIP3    H2  865   3.860   2.101   3.277 -0.9145  0.1802  1.4175
  301TIP3   OH2  866   6.480   2.713   0.732  0.1145 -0.4680  0.7791
  301TIP3    H1  867   6.418   2.759   0.788  3.4533  2.5332  2.3648
  301TIP3    H2  868   6.487   2.626   0.770 -1.4114 -0.1316  1.9047
  302TIP3   OH2  869   2.528   3.971   1.419  0.3953  0.2901 -0.5361
  302TIP3    H1  870   2.574   3.963   1.503 -0.3711 -1.5365 -0.2462
  302TIP3    H2  871   2.594   3.951   1.353  0.7006  0.4836 -0.2904
  303TIP3   OH2  872   1.548   0.825   4.767 -0.4511 -0.2765 -0.2169
  303TIP3    H1  873   1.628   0.857   4.725  0.3099 -1.0003  0.6231
  303TIP3    H2  874   1.544   0.732   4.742  0.0826 -0.7514  1.3507
  304TIP3   OH2  875   3.154   0.127   0.411 -0.0703 -0.2809 -0.4779
  304TIP3    H1  876   3.155   0.203   0.354 -3.4597 -0.0214 -0.3697
  304TIP3    H2  877   3.151   0.052   0.351 -0.8421 -0.1246 -0.6441
  305TIP3   OH2  878   7.085   5.597   3.691  0.1541 -0.3097 -0.1446
  305TIP3    H1  879   7.016   5.546   3.649 -0.7885 -0.0556  1.0380
  305TIP3    H2  880   7.134   5.533   3.743 -1.0666 -0.0629  1.3887
  306TIP3   OH2  881   3.669   5.915   3.036 -0.0964  0.4969  0.1364
  306TIP3    H1  882   3.636   5.840   2.987  0.3709 -0.4128  1.1629
  306TIP3    H2  883   3.592   5.969   3.053 -0.4856  0.1009 -0.3669
  307TIP3   OH2  884   6.692   1.676   1.863 -0.0914  0.6321 -0.0188
  307TIP3    H1  885   6.681   1.757   1.813 -1.5487 -0.0270 -0.8558
  307TIP3    H2  886   6.608   1.664   1.908 -0.7695 -1.4526 -1.6207
  308TIP3   OH2  887   4.966   2.720   1.854  0.6909 -0.0778 -0.5560
  308TIP3    H1  888   5.010   2.798   1.819 -0.1971 -0.1170 -1.8161
  308TIP3    H2  889   4.873   2.738   1.843  0.4376 -0.8228  0.2559
  309TIP3   OH2  890   4.176   4.285   0.165 -0.2888 -0.6038 -0.1182
  309TIP3    H1  891   4.178   4.222   0.237 -0.3904 -1.2609 -0.6860
  309TIP3    H2  892   4.207   4.367   0.205 -0.0061 -1.0406  0.5898
  310TIP3   OH2  893   0.534   6.233   0.827 -0.0557 -0.6034  0.9892
  310TIP3    H1  894   0.512   6.158   0.882  1.0950 -1.3207  0.4873
  310TIP3    H2  895   0.619   6.212   0.789  0.7014  1.3285  1.4976
  311TIP3   OH2  896   4.987   2.612   2.525 -0.1283  0.9287 -0.1822
  311TIP3    H1  897   4.964   2.542   2.463  0.8922 -0.8087  1.2955
  311TIP3    H2  898   4.916   2.611   2.589 -1.5371  3.1825 -1.5717
  312TIP3   OH2  899   3.640   2.642   3.981  0.1609  0.6531  0.0908
  312TIP3    H1  900   3.723   2.604   4.010 -0.1244  0.1754  0.2940
  312TIP3    H2  901   3.628   2.610   3.891  0.1579  0.6551  0.0905
  313TIP3   OH2  902   4.421   1.118   0.199 -0.4446  0.3702 -0.4386
  313TIP3    H1  903   4.405   1.207   0.231  0.7806  0.3993  0.1404
  313TIP3    H2  904   4.365   1.063   0.254 -0.0427  0.6358  0.2397
  314TIP3   OH2  905   5.165   4.463   5.580 -0.4494  0.3352 -0.7637
  314TIP3    H1  906   5.153   4.470   5.485  0.0233  0.7879 -0.7919
  314TIP3    H2  907   5.217   4.383   5.591  0.9604  1.1707 -1.0253
  315TIP3   OH2  908   4.753   4.857   1.815  0.1025  0.2135  0.3175
  315TIP3    H1  909   4.683   4.806   1.856  0.4055 -1.2881 -0.9285
  315TIP3    H2  910   4.787   4.913   1.885 -1.3729 -0.0600  1.3034
  316TIP3   OH2  911   2.614   3.732   1.900  0.6865 -0.1634 -0.0371
  316TIP3    H1  912   2.537   3.787   1.890  0.2214 -0.6720  0.5933
  316TIP3    H2  913   2.615   3.676   1.822  0.1938 -0.4151  0.1338
  317TIP3   OH2  914   1.236   4.056   4.158  0.2947 -0.2358 -0.9897
  317TIP3    H1  915   1.249   3.988   4.091  0.1444  0.6278 -1.9268
  317TIP3    H2  916   1.250   4.011   4.241  2.5927 -0.8951 -1.6494
  318TIP3   OH2  917   7.172   6.036   3.069  0.2197  0.3935  0.2387
  318TIP3    H1  918   7.167   6.003   3.159 -1.7702  1.1172  0.4414
  318TIP3    H2  919   7.262   6.067   3.060 -0.0965  2.3552  2.7465
  319TIP3   OH2  920   6.063   4.554   3.365 -0.0766 -0.3192  0.3426
  319TIP3    H1  921   6.110   4.535   3.446  0.6655 -0.8164 -0.1954
  319TIP3    H2  922   6.116   4.513   3.296  0.3198  1.6834 -0.6063
  320TIP3   OH2  923   2.663   5.826   0.645  0.0939  0.1182  0.0626
  320TIP3    H1  924   2.686   5.862   0.560 -1.8963 -1.2014 -1.1404
  320TIP3    H2  925   2.629   5.900   0.695  1.9394  1.0411  0.0310
  321TIP3   OH2  926   5.180   0.701   1.124  0.2887 -0.8669  0.1321
  321TIP3    H1  927   5.109   0.638   1.121 -0.3610 -0.0971 -1.4659
  321TIP3    H2  928   5.147   0.772   1.180  0.2199 -0.9866  0.2428
  322TIP3   OH2  929   4.393   0.235   0.742  0.5158 -0.3322  0.1646
  322TIP3    H1  930   4.476   0.224   0.695  1.0718 -0.3569  1.1238
  322TIP3    H2  931   4.392   0.326   0.769 -0.3887  0.0069 -0.9472
  323TIP3   OH2  932   5.392   2.034   0.198 -0.0750  0.0139  0.1496
  323TIP3    H1  933   5.301   2.060   0.193  0.0185  0.0711 -1.9817
  323TIP3    H2  934   5.390   1.949   0.242 -1.3466 -0.7741 -1.3510
  324TIP3   OH2  935   2.605   3.561   1.678 -0.5741  0.0918 -0.0714
  324TIP3    H1  936   2.555   3.580   1.599  0.9091 -0.5434 -1.1934
  324TIP3    H2  937   2.655   3.482   1.658  0.2568  0.2310  1.2940
  325TIP3   OH2  938   4.656   3.511   1.804 -0.3263 -0.4398 -0.0598
  325TIP3    H1  939   4.602   3.582   1.840 -2.3827 -1.1436 -1.5655
  325TIP3    H2  940   4.597   3.435   1.802  1.5570 -1.9954  0.6861
  326TIP3   OH2  941   4.646   4.494   4.173 -0.9322  0.3886  0.3609
  326TIP3    H1  942   4.613   4.466   4.088 -1.3678 -0.4068  0.7766
  326TIP3    H2  943   4.701   4.570   4.154  0.3909 -0.8080 -0.8380
  327TIP3   OH2  944   2.045   6.426   3.253  0.4822 -0.1639 -0.0688
  327TIP3    H1  945   2.062   6.411   3.160  0.4679 -0.3434 -0.0426
  327TIP3    H2  946   2.078   6.348   3.297 -2.7857 -1.8463 -0.2445
  328TIP3   OH2  947   6.060   1.233   2.565 -0.2193  0.0706  0.0186
  328TIP3    H1  948   6.025   1.219   2.654 -2.2068  3.3545 -0.0572
  328TIP3    H2  949   6.132   1.295   2.577 -1.4612  1.7411 -0.6604
  329TIP3   OH2  950   5.107   2.517   4.479 -0.3647  0.0627  0.0315
  329TIP3    H1  951   5.111   2.492   4.387 -1.3519  0.2265 -0.0641
  329TIP3    H2  952   5.133   2.439   4.527 -0.9518 -0.3718 -0.3513
  330TIP3   OH2  953   4.180   3.895   5.295  0.3255 -0.4081 -0.2530
  330TIP3    H1  954   4.267   3.932   5.311 -0.4064  1.2609  0.0707
  330TIP3    H2  955   4.160   3.919   5.205  0.2888 -1.0043 -0.4085
  331TIP3   OH2  956   3.401   6.698   2.276 -0.4068  0.2164 -0.4233
  331TIP3    H1  957   3.478   6.677   2.223 -1.8846  0.0437 -2.6426
  331TIP3    H2  958   3.361   6.614   2.295 -0.2869  0.3327  0.4111
  332TIP3   OH2  959   3.772   5.293   5.164 -0.0655  0.3613  0.0909
  332TIP3    H1  960   3.769   5.320   5.073  1.6538 -0.4274 -0.2581
  332TIP3    H2  961   3.682   5.270   5.186 -0.5135  0.6181 -1.3857
  333TIP3   OH2  962   4.626   0.033   0.138 -0.0316 -0.4304 -0.4520
  333TIP3    H1  963   4.703  -0.020   0.119  0.3164 -0.9258  1.9862
  333TIP3    H2  964   4.662   0.115   0.174 -0.5555 -1.0906  1.7465
  334TIP3   OH2  965   4.401   5.266   2.600  0.5938 -0.4148 -0.6696
  334TIP3    H1  966   4.479   5.296   2.554  1.5237 -1.3796  0.2333
  334TIP3    H2  967   4.416   5.172   2.614 -0.3373 -0.4427  0.2729
  335TIP3   OH2  968   3.073   5.327   0.343  0.1255 -0.1998  0.8214
  335TIP3    H1  969   3.001   5.388   0.362 -0.7605 -1.0892  0.4164
  335TIP3    H2  970   3.135   5.341   0.415  0.1384  1.4426  0.5333
  336TIP3   OH2  971   5.695   3.064   1.603  0.1949 -0.0499 -0.4373
  336TIP3    H1  972   5.688   3.031   1.513  2.8523  1.0092 -1.1076
  336TIP3    H2  973   5.711   3.158   1.593  1.3703 -0.0504  1.0901
  337TIP3   OH2  974   3.361   4.907   2.546 -0.5268 -0.5313 -0.4148
  337TIP3    H1  975   3.344   4.988   2.498  1.0967 -1.7511 -3.4099
  337TIP3    H2  976   3.436   4.928   2.602 -0.2143  0.1200 -1.0489
  338TIP3   OH2  977   5.469   3.989   4.718 -0.5529  0.9117  0.2688
  338TIP3    H1  978   5.463   3.893   4.715 -1.4159  0.9669  0.0432
  338TIP3    H2  979   5.560   4.008   4.695  0.3720  0.0374  2.8635
  339TIP3   OH2  980   1.135   3.631   1.798  0.4090  0.5733 -0.8598
  339TIP3    H1  981   1.046   3.599   1.783 -0.3690  2.6205 -0.9613
  339TIP3    H2  982   1.153   3.609   1.889 -0.7587  1.2999 -0.4211
  340TIP3   OH2  983   5.055   1.046   3.953  0.2017  0.1663 -0.0339
  340TIP3    H1  984   5.066   1.073   3.862 -0.4094  0.2354 -0.0935
  340TIP3    H2  985   5.038   0.952   3.948  0.0723  0.1880  0.0013
  341TIP3   OH2  986   3.494   3.077   4.646  0.2090 -0.2921 -0.3213
  341TIP3    H1  987   3.458   2.989   4.660  1.9456 -1.0957 -0.6518
  341TIP3    H2  988   3.575   3.062   4.597  0.8807  1.4455  0.2009
  342TIP3   OH2  989   4.447   3.042   5.664 -0.2175 -0.1249 -0.3794
  342TIP3    H1  990   4.525   2.999   5.698  0.6843  0.7422 -1.2701
  342TIP3    H2  991   4.377   3.017   5.724  0.8119 -0.6239  0.6408
  343TIP3   OH2  992   6.476   5.443   4.296  0.4410  0.2275 -0.0499
  343TIP3    H1  993   6.447   5.370   4.351  0.3298  0.0034 -0.4037
  343TIP3    H2  994   6.561   5.468   4.333 -1.1351  2.3583  2.4238
  344TIP3   OH2  995   0.256   2.521   4.659 -0.0644 -0.6583  0.7701
  344TIP3    H1  996   0.163   2.522   4.682 -0.5712 -2.3144 -0.9053
  344TIP3    H2  997   0.302   2.537   4.742 -1.8178 -0.4966  1.7578
  345TIP3   OH2  998   6.576   6.284   3.611  0.0950  0.1705  0.3045
  345TIP3    H1  999   6.507   6.348   3.629 -0.1114 -0.4734  1.9768
  345TIP3    H2 1000   6.530   6.209   3.573  0.0825  0.3355 -0.0021
  346TIP3   OH2 1001   5.301   1.042   3.129 -0.4351 -0.2713  0.1218
  346TIP3    H1 1002   5.306   1.088   3.045 -1.4904 -0.8434 -0.2730
  346TIP3    H2 1003   5.376   1.075   3.179 -0.3088  0.7483 -0.7043
  347TIP3   OH2 1004   5.336   2.780   3.464 -0.2236 -0.0265 -0.0556
  347TIP3    H1 1005   5.349   2.803   3.372  1.0219  1.0362  0.3466
  347TIP3    H2 1006   5.308   2.862   3.505 -1.2514 -0.6103  0.4327
  348TIP3   OH2 1007   3.074   4.844   4.852 -0.1227 -0.2472 -0.3913
  348TIP3    H1 1008   3.160   4.809   4.876 -0.8360 -1.3149  0.7808
  348TIP3    H2 1009   3.088   4.938   4.844  0.9348 -0.2480  0.9205
  349TIP3   OH2 1010   7.052   6.198   2.767 -0.7633  0.2560  0.9359
  349TIP3    H1 1011   7.065   6.248   2.687 -3.7184 -0.3880 -0.0880
  349TIP3    H2 1012   7.079   6.257   2.837  0.0355  1.5767 -0.4155
  350TIP3   OH2 1013   0.383   6.787   4.359 -0.0373 -1.0577 -0.2084
  350TIP3    H1 1014   0.365   6.702   4.320 -0.0307 -1.2413  0.1804
  350TIP3    H2 1015   0.448   6.827   4.301 -1.4043 -0.5287 -1.4364
  351TIP3   OH2 1016   3.909   3.926   4.884  0.0006 -0.2080 -0.0480
  351TIP3    H1 1017   3.924   4.014   4.849  0.1127  0.1005  0.7553
  351TIP3    H2 1018   3.828   3.897   4.842 -1.2215  1.1394  1.2342
  352TIP3   OH2 1019   3.077   2.506   3.450  0.0363 -0.5735 -0.1584
  352TIP3    H1 1020   3.076   2.601   3.439  1.2128 -0.2144  2.1373
  352TIP3    H2 1021   3.084   2.471   3.361 -1.3626  1.4308 -1.1179
  353TIP3   OH2 1022   0.456   0.430   3.581 -0.1055 -0.4403  0.0931
  353TIP3    H1 1023   0.415   0.385   3.655  1.5293  0.3831  1.5808
  353TIP3    H2 1024   0.390   0.491   3.549 -1.1135 -1.3820  0.3295
  354TIP3   OH2 1025  -0.014   1.416   0.485  0.2469  0.0171 -0.0849
  354TIP3    H1 1026   0.074   1.396   0.518  0.2391 -0.6788 -0.4679
  354TIP3    H2 1027  -0.023   1.362   0.407 -0.2937  0.5504 -0.3994
  355TIP3   OH2 1028   6.393   1.562   1.708 -0.3665 -0.2942  0.3311
  355TIP3    H1 1029   6.315   1.559   1.653 -0.6020  0.2399  0.6246
  355TIP3    H2 1030   6.447   1.489   1.678  0.8218  1.6046 -2.5520
  356TIP3   OH2 1031   2.873   4.296   2.549  0.0738  0.4687 -0.5865
  356TIP3    H1 1032   2.819   4.342   2.485  1.1987  2.0776 -0.4553
  356TIP3    H2 1033   2.928   4.365   2.587  0.3592 -0.6724  1.1541
  357TIP3   OH2 1034   5.924   0.314   1.407 -0.6722 -0.7117 -0.1018
  357TIP3    H1 1035   5.972   0.370   1.346  0.1216  0.2528  1.3282
  357TIP3    H2 1036   5.853   0.369   1.439  0.0009 -0.5433  1.1746
  358TIP3   OH2 1037   6.366   6.008   5.657  0.4905 -0.1619  0.5820
  358TIP3    H1 1038   6.460   6.014   5.640 -0.0415 -0.3204 -3.0663
  358TIP3    H2 1039   6.334   6.098   5.647 -0.0472 -0.4676 -0.5942
  359TIP3   OH2 1040   4.573   6.297   0.699 -0.5102 -0.2746 -0.0017
  359TIP3    H1 1041   4.651   6.326   0.651  0.3568 -0.1278  1.4347
  359TIP3    H2 1042   4.523   6.376   0.715 -1.1691 -0.4165 -1.2464
  360TIP3   OH2 1043   6.675   5.320   0.687  0.3259 -0.4828  0.4295
  360TIP3    H1 1044   6.701   5.373   0.612  0.7636 -0.3596  0.6621
  360TIP3    H2 1045   6.597   5.273   0.658 -1.1020  1.5413  0.7350
  361TIP3   OH2 1046   6.778   0.042   1.590  0.0237 -0.0423  0.5420
  361TIP3    H1 1047   6.790   0.126   1.545  2.3248 -1.5188 -1.8632
  361TIP3    H2 1048   6.847   0.040   1.655 -0.9425  0.4688  1.6274
  362TIP3   OH2 1049   4.653   1.381   0.185 -0.3751  0.3250  0.4852
  362TIP3    H1 1050   4.608   1.438   0.246 -0.4710  2.0075 -1.0722
  362TIP3    H2 1051   4.629   1.414   0.098  1.2118 -0.8062 -0.4489
  363TIP3   OH2 1052   5.389   6.054   3.998 -0.2916 -0.3621  0.0321
  363TIP3    H1 1053   5.310   6.001   4.012 -1.2919  1.3938  1.4012
  363TIP3    H2 1054   5.451   6.021   4.063  0.2270 -1.8708 -1.1681
  364TIP3   OH2 1055   3.055   6.383   1.343  0.4131  0.3854 -0.4714
  364TIP3    H1 1056   3.067   6.293   1.375 -3.1600  0.3482  1.2196
  364TIP3    H2 1057   2.978   6.379   1.288  0.0835  2.4468 -0.2345
  365TIP3   OH2 1058   3.130   6.422   0.883 -0.0504  0.4394 -1.1244
  365TIP3    H1 1059   3.155   6.466   0.964 -2.3594 -1.0884  0.5490
  365TIP3    H2 1060   3.192   6.349   0.876 -1.2943 -0.8878  0.7055
  366TIP3   OH2 1061   5.916   1.998   3.414  0.4424 -0.9516 -0.2191
  366TIP3    H1 1062   5.950   1.974   3.501  1.0701  1.8884  0.4118
  366TIP3    H2 1063   5.840   1.941   3.402 -1.4103  0.3722  3.4848
  367TIP3   OH2 1064   1.377   6.412   2.445 -0.5127 -0.0104  0.0688
  367TIP3    H1 1065   1.312   6.477   2.420 -1.1806  0.2438  2.2409
  367TIP3    H2 1066   1.326   6.339   2.479  0.2865 -1.0423 -0.8630
  368TIP3   OH2 1067   4.597   5.443   5.849  0.8907  0.2994 -0.3504
  368TIP3    H1 1068   4.526   5.479   5.902 -0.6424 -2.1751 -0.5603
  368TIP3    H2 1069   4.582   5.477   5.761 -0.3750 -0.5484 -0.4927
  369TIP3   OH2 1070   5.655   5.573   3.584 -0.5518  0.3607  0.0830
  369TIP3    H1 1071   5.637   5.499   3.642 -0.0657 -0.4735 -0.7853
  369TIP3    H2 1072   5.632   5.540   3.497 -0.5389  1.3174 -0.2878
  370TIP3   OH2 1073   6.201   0.204   3.376  0.0165 -0.0935 -0.1397
  370TIP3    H1 1074   6.263   0.151   3.325 -1.1041  0.9886 -2.8546
  370TIP3    H2 1075   6.172   0.146   3.447 -0.0523 -2.6282 -2.0812
  371TIP3   OH2 1076   3.105   6.717   5.615 -0.2819  0.4255 -0.0183
  371TIP3    H1 1077   3.090   6.784   5.681 -0.6253 -1.0048  1.4466
  371TIP3    H2 1078   3.034   6.727   5.553 -0.2276  1.5103  0.0780
  372TIP3   OH2 1079   7.021   3.960   0.351  0.1678  0.6189 -0.0487
  372TIP3    H1 1080   7.096   3.975   0.409  0.5130  1.2248 -0.6422
  372TIP3    H2 1081   6.953   4.019   0.384  0.0936  0.3821  0.2256
  373TIP3   OH2 1082   4.283   4.709   5.293  0.4882  0.4062 -0.3220
  373TIP3    H1 1083   4.193   4.739   5.280  0.4583  0.8543  0.8270
  373TIP3    H2 1084   4.274   4.618   5.322  0.5872 -0.9604 -4.0285
  374TIP3   OH2 1085   3.326   2.948   1.603  0.0819  0.3505  0.3452
  374TIP3    H1 1086   3.307   2.958   1.509 -0.0869 -1.9148  0.0942
  374TIP3    H2 1087   3.420   2.930   1.606  0.5122  2.4413  0.8297
  375TIP3   OH2 1088   1.820   4.581   2.107 -0.2167 -0.1114 -0.4635
  375TIP3    H1 1089   1.814   4.545   2.195 -0.3457  1.7310  0.3451
  375TIP3    H2 1090   1.740   4.633   2.097  0.4752  0.8800 -1.0698
  376TIP3   OH2 1091   7.046   3.120   1.947 -0.2721 -0.2413 -0.2766
  376TIP3    H1 1092   7.002   3.106   1.863  0.6314 -1.2351 -0.5995
  376TIP3    H2 1093   7.138   3.128   1.925 -0.2125  1.3112  0.4562
  377TIP3   OH2 1094   5.907   1.147   4.129 -0.3573 -0.5145  0.0525
  377TIP3    H1 1095   5.839   1.203   4.167  1.3215  0.7333  1.3615
  377TIP3    H2 1096   5.882   1.138   4.037 -1.1159  1.7670 -0.0240
  378TIP3   OH2 1097   6.907   2.696   1.734 -0.3982  0.1815 -0.7179
  378TIP3    H1 1098   6.829   2.752   1.728 -0.6287 -0.1435 -0.7672
  378TIP3    H2 1099   6.876   2.609   1.708 -0.4613 -0.3621  1.0467
  379TIP3   OH2 1100   3.175   3.713   2.022  0.1279 -0.3263  0.2879
  379TIP3    H1 1101   3.220   3.628   2.014  0.2864 -0.1582 -0.7019
  379TIP3    H2 1102   3.134   3.726   1.937  0.9225  1.0474  0.0812
  380TIP3   OH2 1103   5.969   2.913   2.492  0.4242 -0.4031 -0.1430
  380TIP3    H1 1104   5.959   2.928   2.586  3.8166 -0.2274  0.3237
  380TIP3    H2 1105   5.939   2.823   2.479 -1.3375 -0.0081  0.7882
  381TIP3   OH2 1106   5.896   5.662   4.999  0.3529  0.0211 -0.0924
  381TIP3    H1 1107   5.954   5.683   4.925  1.3552  0.1309  0.7010
  381TIP3    H2 1108   5.889   5.745   5.047 -0.2754 -0.0577 -0.0397
  382TIP3   OH2 1109   7.132   6.694   5.609 -0.0142 -0.3718  0.8235
  382TIP3    H1 1110   7.150   6.614   5.560 -1.2792 -0.8385  1.0824
  382TIP3    H2 1111   7.188   6.760   5.569  0.3636 -1.1786 -0.0071
  383TIP3   OH2 1112   4.762   5.262   1.327  0.3722 -0.2051  0.3053
  383TIP3    H1 1113   4.812   5.343   1.342  1.0248 -0.5897  0.2728
  383TIP3    H2 1114   4.697   5.261   1.397 -1.2164  1.5212 -1.0500
  384TIP3   OH2 1115   1.354   1.780   0.321 -0.0888  0.0631  0.1739
  384TIP3    H1 1116   1.274   1.832   0.308 -0.5676 -0.8982 -0.9378
  384TIP3    H2 1117   1.374   1.745   0.234  0.4357 -1.2866  0.8106
  385TIP3   OH2 1118   6.289   3.059   5.236 -0.2299 -0.4211  0.0010
  385TIP3    H1 1119   6.273   3.153   5.230  0.4731 -0.2036  1.2102
  385TIP3    H2 1120   6.212   3.024   5.281 -0.4681 -0.4332 -0.4056
  386TIP3   OH2 1121   7.137   5.003   1.700  1.1165  0.0624 -0.1507
  386TIP3    H1 1122   7.067   5.037   1.756  0.8915 -0.8626  0.1352
  386TIP3    H2 1123   7.217   5.034   1.742  0.9621 -0.7915  0.8306
  387TIP3   OH2 1124   5.932   5.893   1.840 -0.3734 -0.0142  0.5157
  387TIP3    H1 1125   5.867   5.870   1.775  0.2427 -1.3678  0.3273
  387TIP3    H2 1126   5.905   5.846   1.919 -0.7971  1.1492  1.0819
  388TIP3   OH2 1127   1.362   6.502   1.886  0.3943  0.3951 -0.1289
  388TIP3    H1 1128   1.284   6.501   1.940  1.0560  0.6579  0.8595
  388TIP3    H2 1129   1.330   6.491   1.796 -0.5828 -1.8224  0.4381
  389TIP3   OH2 1130   0.319   6.032   2.372  0.3948  0.2995  0.4828
  389TIP3    H1 1131   0.321   6.091   2.297  0.5663 -0.4674 -0.1300
  389TIP3    H2 1132   0.343   5.946   2.336  1.1428  0.0469  1.5277
  390TIP3   OH2 1133   3.440   3.033   3.397  0.0726  0.5265 -0.2988
  390TIP3    H1 1134   3.505   3.033   3.328  0.2363 -1.3969 -0.2042
  390TIP3    H2 1135   3.412   3.124   3.405  1.5589  1.1077 -1.4459
  391TIP3   OH2 1136   0.334   2.694   4.430  0.0446  0.6663  0.3137
  391TIP3    H1 1137   0.255   2.675   4.481 -0.4390  1.2003 -0.2278
  391TIP3    H2 1138   0.357   2.609   4.390 -0.2896  0.5211  0.4237
  392TIP3   OH2 1139   0.523   6.453   1.896  0.5646  0.2962 -0.4438
  392TIP3    H1 1140   0.512   6.485   1.985 -1.3624  1.2261 -0.9586
  392TIP3    H2 1141   0.490   6.363   1.900 -0.4566  0.6558 -0.3934
  393TIP3   OH2 1142   6.206   3.177   0.660  0.1217  0.3035  0.3610
  393TIP3    H1 1143   6.300   3.161   0.668  0.2609  0.7049 -0.3869
  393TIP3    H2 1144   6.178   3.200   0.749  0.2352 -2.2376  1.1268
  394TIP3   OH2 1145   1.300   1.224   1.813  0.3959  0.1173 -0.1796
  394TIP3    H1 1146   1.342   1.304   1.845 -2.6265  2.1505 -0.8614
  394TIP3    H2 1147   1.339   1.210   1.726  0.7319  1.0315 -0.1908
  395TIP3   OH2 1148   1.564   6.213   1.144  0.5418 -0.4808  0.1746
  395TIP3    H1 1149   1.630   6.230   1.076  1.3228  3.1985  1.6198
  395TIP3    H2 1150   1.611   6.166   1.213  1.0286  0.0621  0.2126
  396TIP3   OH2 1151   0.090   5.041   0.340  0.0251 -0.5400 -0.7710
  396TIP3    H1 1152   0.159   5.061   0.277  0.1329 -1.2573 -0.8904
  396TIP3    H2 1153   0.022   5.105   0.323  0.6674  0.1937 -0.6390
  397TIP3   OH2 1154   1.717   3.601   1.354 -0.3275 -0.4238 -0.0413
  397TIP3    H1 1155   1.703   3.545   1.278 -0.1377 -0.3528 -0.1290
  397TIP3    H2 1156   1.714   3.690   1.320 -3.2863 -0.2300  0.5046
  398TIP3   OH2 1157   4.752   3.277   2.428 -0.1556 -0.4110 -0.5976
  398TIP3    H1 1158   4.727   3.228   2.506  1.2433  0.2723  0.3212
  398TIP3    H2 1159   4.702   3.359   2.435 -1.0446 -0.8872 -1.1443
  399TIP3   OH2 1160   0.183   5.723   5.392  0.1585  0.9796  0.1103
  399TIP3    H1 1161   0.147   5.811   5.404 -1.2852  0.6615 -1.5033
  399TIP3    H2 1162   0.138   5.689   5.315  0.7265 -1.1753  0.6647
  400TIP3   OH2 1163   4.532   1.564   0.403  0.5708 -0.2717  0.2587
  400TIP3    H1 1164   4.518   1.643   0.351 -1.9035 -0.2284  0.8702
  400TIP3    H2 1165   4.549   1.596   0.492  0.3121 -0.4143  0.3600
  401TIP3   OH2 1166   5.985   0.043   4.439  0.8765  0.6977 -0.4008
  401TIP3    H1 1167   5.973   0.132   4.471 -1.5612  0.9200 -1.6662
  401TIP3    H2 1168   5.917  -0.008   4.483  3.2349 -1.0082  1.5618
  402TIP3   OH2 1169   4.168   3.699   4.398  0.3505 -0.6181  0.1940
  402TIP3    H1 1170   4.208   3.643   4.331  2.5755 -1.6155  2.2017
  402TIP3    H2 1171   4.226   3.775   4.405 -0.1061 -0.3033  0.6601
  403TIP3   OH2 1172   1.349   0.529   4.153 -0.3892 -0.1057 -0.4677
  403TIP3    H1 1173   1.385   0.456   4.102 -2.7566 -1.0243 -0.9227
  403TIP3    H2 1174   1.307   0.586   4.088 -0.1625  0.7151  0.0839
  404TIP3   OH2 1175   5.773   4.173   1.779  0.0462  0.3054  0.3907
  404TIP3    H1 1176   5.738   4.129   1.701 -1.6062  3.4222 -0.8068
  404TIP3    H2 1177   5.773   4.105   1.847 -0.4444 -2.0010 -1.7424
  405TIP3   OH2 1178   4.056   0.738   0.079 -0.1172  0.4053 -0.0860
  405TIP3    H1 1179   4.136   0.695   0.107 -0.1252  0.0824 -0.5444
  405TIP3    H2 1180   3.987   0.673   0.091 -0.3508  0.7540  0.5114
  406TIP3   OH2 1181   3.542   5.671   2.987  0.1583 -0.2579 -0.4562
  406TIP3    H1 1182   3.592   5.619   2.923 -0.2018 -0.9093 -0.2220
  406TIP3    H2 1183   3.559   5.628   3.071  0.3957  0.4169 -0.1522
  407TIP3   OH2 1184   6.135   5.815   1.402 -0.5573 -0.4950  0.0641
  407TIP3    H1 1185   6.121   5.775   1.488  0.4828 -0.2747  0.3465
  407TIP3    H2 1186   6.099   5.904   1.411  0.5031 -0.1024  0.6275
  408TIP3   OH2 1187   1.107   6.187   3.997 -0.5001 -0.4992 -0.2987
  408TIP3    H1 1188   1.082   6.238   3.921  0.0974 -0.0223 -0.1849
  408TIP3    H2 1189   1.173   6.240   4.041  1.0291 -1.8638 -0.8228
  409TIP3   OH2 1190   0.744   1.384   1.892  0.3512 -0.0683  0.4201
  409TIP3    H1 1191   0.838   1.397   1.905  0.0246  0.9203  2.0846
  409TIP3    H2 1192   0.728   1.413   1.802  1.6541 -0.4377  0.0512
  410TIP3   OH2 1193   3.521   2.181   3.962  0.3775  0.5586 -0.6346
  410TIP3    H1 1194   3.445   2.130   3.934  0.0124 -0.5444  2.0953
  410TIP3    H2 1195   3.509   2.267   3.920  0.1951 -0.9891 -4.0861
  411TIP3   OH2 1196   1.967   1.385   3.117 -0.6162  0.3807 -0.2797
  411TIP3    H1 1197   2.023   1.422   3.185 -0.4651  0.5343 -0.4834
  411TIP3    H2 1198   1.887   1.436   3.121 -2.2884 -2.1681  2.4825
  412TIP3   OH2 1199   4.948   3.753   3.230 -0.2602  0.2850 -0.6171
  412TIP3    H1 1200   4.989   3.834   3.200 -1.1422  1.1490  0.4523
  412TIP3    H2 1201   4.859   3.757   3.194  0.5166 -1.6506 -3.0621
  413TIP3   OH2 1202   4.982   1.414   1.972 -0.1410  0.2597 -0.0902
  413TIP3    H1 1203   5.066   1.436   2.013 -0.3864  0.8926  0.0802
  413TIP3    H2 1204   4.981   1.463   1.890 -0.2978  0.1631 -0.1468
  414TIP3   OH2 1205   3.874   2.477   3.994  0.0949 -0.4524  0.3888
  414TIP3    H1 1206   3.920   2.486   3.911  2.7789 -0.4641  1.7630
  414TIP3    H2 1207   3.863   2.383   4.006  0.1661 -0.4729  0.2903
  415TIP3   OH2 1208   4.965   2.353   0.763  0.1354 -0.2793  0.0602
  415TIP3    H1 1209   4.914   2.421   0.718 -1.6108 -0.6928  1.3096
  415TIP3    H2 1210   5.040   2.400   0.800 -0.1988  0.6660 -0.4292
  416TIP3   OH2 1211   4.728   6.155   0.238  0.1008 -0.0271 -0.3728
  416TIP3    H1 1212   4.669   6.190   0.172  0.9484 -0.1592 -1.2145
  416TIP3    H2 1213   4.809   6.204   0.226  0.6489 -0.8797 -0.2310
  417TIP3   OH2 1214   5.344   4.687   0.110  0.1486  0.0827 -0.0197
  417TIP3    H1 1215   5.420   4.631   0.096 -0.0709 -0.4560  0.8649
  417TIP3    H2 1216   5.346   4.706   0.204 -0.1228  1.0694 -0.2072
  418TIP3   OH2 1217   1.522   5.715   1.585  0.2950  0.2095  0.4927
  418TIP3    H1 1218   1.578   5.789   1.560  1.0868 -0.7392 -0.6626
  418TIP3    H2 1219   1.491   5.737   1.673  2.2370  0.9272  1.0667
  419TIP3   OH2 1220   3.103   1.308   3.925 -0.1955  0.8685  0.2773
  419TIP3    H1 1221   3.057   1.278   3.846  1.1013 -2.9279  0.7223
  419TIP3    H2 1222   3.176   1.360   3.892 -1.1136  1.5002 -0.8214
  420TIP3   OH2 1223   4.796   5.578   1.334 -0.2024 -0.3117 -0.1703
  420TIP3    H1 1224   4.879   5.613   1.368 -0.3391  0.6849 -0.8153
  420TIP3    H2 1225   4.729   5.632   1.375 -0.4747 -0.3835 -0.5172
  421TIP3   OH2 1226   4.614   1.571   1.868  0.2164  0.0775  0.0480
  421TIP3    H1 1227   4.582   1.635   1.931  0.4224  0.5403 -0.3062
  421TIP3    H2 1228   4.651   1.500   1.922  0.8465  0.6968  0.4519
  422TIP3   OH2 1229   0.131   1.358   1.044 -0.4704 -0.4314  0.2333
  422TIP3    H1 1230   0.111   1.318   0.959 -0.8500 -0.8909  0.5335
  422TIP3    H2 1231   0.174   1.288   1.093 -0.1360 -0.1250  0.3745
  423TIP3   OH2 1232   6.177   2.773   5.392  0.4588  0.6651 -0.0492
  423TIP3    H1 1233   6.238   2.754   5.321  0.4010  2.9743 -0.7887
  423TIP3    H2 1234   6.139   2.858   5.370 -2.3458 -0.2180  0.8747
  424TIP3   OH2 1235   2.428   5.477   3.021 -1.0287  0.2821  0.2011
  424TIP3    H1 1236   2.490   5.424   2.972 -0.8671  0.4663  0.2083
  424TIP3    H2 1237   2.478   5.509   3.096 -0.9653  0.9256 -0.1137
  425TIP3   OH2 1238   2.377   2.423   0.239 -0.3095  0.2161 -0.2615
  425TIP3    H1 1239   2.397   2.515   0.256 -1.8015  0.5901 -0.3726
  425TIP3    H2 1240   2.449   2.375   0.281  1.4625  1.4532 -1.7353
  426TIP3   OH2 1241   4.921   2.096   1.505  0.1964  0.3846  0.1261
  426TIP3    H1 1242   4.887   2.032   1.444  1.7734 -1.1404  0.7719
  426TIP3    H2 1243   4.866   2.174   1.492 -1.5597 -0.9679 -0.8912
  427TIP3   OH2 1244   3.061   5.809   1.240  0.0360  0.1898  0.0083
  427TIP3    H1 1245   2.988   5.868   1.224 -0.8186 -1.0246 -0.7895
  427TIP3    H2 1246   3.138   5.866   1.244 -0.7894  1.3760 -0.3834
  428TIP3   OH2 1247   5.389   3.357   1.965  0.2935  0.1264 -0.3079
  428TIP3    H1 1248   5.317   3.298   1.940 -0.3370  0.8835 -0.3426
  428TIP3    H2 1249   5.349   3.417   2.027  0.9296  0.5027 -0.2627
  429TIP3   OH2 1250   2.849   1.318   4.080 -0.0718  0.4795  0.5242
  429TIP3    H1 1251   2.932   1.339   4.036 -0.3886  1.5453  0.4203
  429TIP3    H2 1252   2.784   1.315   4.009  0.1276 -2.1177  0.3382
  430TIP3   OH2 1253   6.452   0.290   1.093  0.6814 -0.0301 -0.3955
  430TIP3    H1 1254   6.358   0.308   1.094  0.4627 -1.0685  0.5460
  430TIP3    H2 1255   6.473   0.276   1.001 -0.0183  0.5493 -0.6495
  431TIP3   OH2 1256   3.457   1.784   2.158  0.1956  0.9613 -0.2619
  431TIP3    H1 1257   3.408   1.710   2.191  0.5601 -0.0180 -1.8052
  431TIP3    H2 1258   3.543   1.778   2.200  0.2005  0.5340 -0.3291
  432TIP3   OH2 1259   0.519   4.254   2.317  0.0015 -0.5352 -0.9546
  432TIP3    H1 1260   0.515   4.342   2.278  1.8315 -0.4770 -1.0903
  432TIP3    H2 1261   0.456   4.257   2.389  0.7893  1.2687 -0.2684
  433TIP3   OH2 1262   5.732   2.301   5.872  0.0348  0.3988 -0.6390
  433TIP3    H1 1263   5.690   2.330   5.953  1.0190 -2.2554  0.9319
  433TIP3    H2 1264   5.714   2.372   5.810 -1.0774  2.3772  1.7470
  434TIP3   OH2 1265   0.371   5.514   1.715 -0.5117 -0.4165  0.5792
  434TIP3    H1 1266   0.349   5.455   1.787 -0.3659 -1.2164 -0.0160
  434TIP3    H2 1267   0.357   5.461   1.636 -0.1422  0.2715  0.0441
  435TIP3   OH2 1268   4.674   4.991   4.323 -0.2316 -0.0052  0.0219
  435TIP3    H1 1269   4.733   4.918   4.341 -0.5734  0.0021  1.2854
  435TIP3    H2 1270   4.679   5.045   4.402 -0.2881  1.1257 -0.7446
  436TIP3   OH2 1271   1.799   5.191   0.827 -0.3574  0.1687  0.8809
  436TIP3    H1 1272   1.803   5.102   0.861  1.6410 -0.6982 -1.3484
  436TIP3    H2 1273   1.760   5.181   0.740 -0.4305  1.5480  0.7395
  437TIP3   OH2 1274   5.314   6.393   4.434  0.0910  0.0200 -0.7906
  437TIP3    H1 1275   5.311   6.488   4.437  0.4319  0.0682 -1.6965
  437TIP3    H2 1276   5.372   6.373   4.360 -1.2611 -0.8876 -1.6483
  438TIP3   OH2 1277   2.115   3.242   1.871 -0.1953 -0.3712 -0.0829
  438TIP3    H1 1278   2.144   3.302   1.802 -1.3453 -0.5317 -0.7361
  438TIP3    H2 1279   2.192   3.188   1.889  0.5715  0.6678 -0.1548
  439TIP3   OH2 1280   5.401   1.344   4.759  0.4482  0.5988  0.1479
  439TIP3    H1 1281   5.309   1.358   4.736  0.4345 -0.5903 -0.6307
  439TIP3    H2 1282   5.450   1.388   4.689  0.4095 -1.9604 -1.6298
  440TIP3   OH2 1283   1.710   4.485   4.151  0.4260  0.3302  0.5714
  440TIP3    H1 1284   1.692   4.465   4.059 -0.1717 -0.3002  0.8204
  440TIP3    H2 1285   1.664   4.567   4.167 -0.5911 -0.2499  0.6637
  441TIP3   OH2 1286   1.729   1.579   2.827  0.2776 -0.3071 -0.2106
  441TIP3    H1 1287   1.805   1.572   2.885  0.0471 -0.4050  0.0819
  441TIP3    H2 1288   1.723   1.673   2.808  1.4597 -0.4741 -1.5757
  442TIP3   OH2 1289   4.170   6.222   0.532 -0.0220  0.0755  0.5738
  442TIP3    H1 1290   4.158   6.135   0.568 -0.2112 -0.2407 -0.2402
  442TIP3    H2 1291   4.225   6.267   0.596  0.6927 -0.8698  0.6508
  443TIP3   OH2 1292   7.043   5.099   0.150 -0.0127  0.2447 -0.5447
  443TIP3    H1 1293   7.015   5.191   0.142  1.0119  0.7080  0.8346
  443TIP3    H2 1294   6.984   5.061   0.215  0.3100  0.2540 -0.2446
  444TIP3   OH2 1295   4.992   6.419   4.040 -0.3231  0.5411  0.1076
  444TIP3    H1 1296   5.052   6.469   4.095 -2.3448  0.0889  3.0164
  444TIP3    H2 1297   5.013   6.327   4.057 -1.3986  0.3855  0.7481
  445TIP3   OH2 1298   6.833   6.229   1.241 -0.0179  0.4136  0.7015
  445TIP3    H1 1299   6.847   6.201   1.331 -2.2945 -2.3424  0.3444
  445TIP3    H2 1300   6.744   6.262   1.239 -0.0962  0.1970 -0.5621
  446TIP3   OH2 1301   6.133   2.430   3.481 -0.3089  0.2261 -0.3303
  446TIP3    H1 1302   6.166   2.340   3.488 -1.6238 -0.1946  0.9578
  446TIP3    H2 1303   6.071   2.439   3.553 -1.2401  1.7425 -1.2512
  447TIP3   OH2 1304   0.312   0.906   2.055  0.0179  0.3227  0.4239
  447TIP3    H1 1305   0.401   0.928   2.084  0.1318  1.0245 -0.4094
  447TIP3    H2 1306   0.296   0.819   2.092  2.3918 -1.4134 -2.1938
  448TIP3   OH2 1307   1.984   6.012   3.530  0.1298  0.6217  0.4880
  448TIP3    H1 1308   2.009   6.104   3.536 -0.8667  1.1759 -2.2714
  448TIP3    H2 1309   1.959   5.989   3.620  1.8357  2.5506  1.5603
  449TIP3   OH2 1310   0.188   3.614   4.627  0.3732  0.0098 -0.5148
  449TIP3    H1 1311   0.270   3.637   4.671  0.5057  0.4790 -0.9972
  449TIP3    H2 1312   0.145   3.698   4.612  0.6149 -0.0843 -1.8174
  450TIP3   OH2 1313   6.189   0.091   3.682  0.0294 -0.1855 -0.5663
  450TIP3    H1 1314   6.196  -0.003   3.662  0.0230 -0.4907  0.7744
  450TIP3    H2 1315   6.265   0.110   3.736  0.2783  0.7027 -1.2185
  451TIP3   OH2 1316   0.492   3.041   5.130 -0.4118  0.3701  0.2400
  451TIP3    H1 1317   0.472   3.111   5.069 -2.4481  0.7372  1.2566
  451TIP3    H2 1318   0.572   3.001   5.095  1.0457  3.3764 -0.1811
  452TIP3   OH2 1319   6.858   2.773   4.385  0.8470  0.1508 -0.4074
  452TIP3    H1 1320   6.804   2.739   4.456  1.6278  1.6345  0.9681
  452TIP3    H2 1321   6.945   2.782   4.423  1.7501 -0.7821 -2.1358
  453TIP3   OH2 1322   3.771   1.643   0.614 -0.4317  0.0816  0.0285
  453TIP3    H1 1323   3.864   1.641   0.638 -0.7758 -0.7568  1.4860
  453TIP3    H2 1324   3.740   1.729   0.642 -0.2596  0.0526  0.3128
  454TIP3   OH2 1325   6.305   6.382   3.319 -0.2970 -0.3299  0.5822
  454TIP3    H1 1326   6.238   6.328   3.277  0.8152 -0.3105 -1.3279
  454TIP3    H2 1327   6.388   6.340   3.296  0.5133  1.3948  0.1981
  455TIP3   OH2 1328   5.389   4.504   4.816 -0.2097 -0.3522 -0.2121
  455TIP3    H1 1329   5.307   4.456   4.818 -0.6720  0.4294  1.6643
  455TIP3    H2 1330   5.457   4.437   4.812 -0.9122 -1.0091 -1.6157
  456TIP3   OH2 1331   3.585   5.120   2.627 -0.1103  0.3910  0.7423
  456TIP3    H1 1332   3.577   5.199   2.680 -1.3537  0.4801  0.4519
  456TIP3    H2 1333   3.617   5.053   2.688  1.6623  1.2494  0.8344
  457TIP3   OH2 1334   1.315   0.981   0.018  0.3163  0.1006 -0.4119
  457TIP3    H1 1335   1.273   1.062   0.048  0.5399 -0.6945  2.3582
  457TIP3    H2 1336   1.397   1.010  -0.022  0.3650  1.2880  0.4773
  458TIP3   OH2 1337   6.970   2.601   4.872 -0.2245 -0.8992 -0.0757
  458TIP3    H1 1338   6.937   2.576   4.958  0.5397 -0.9565  0.2100
  458TIP3    H2 1339   7.016   2.684   4.888 -1.0393 -0.3289 -0.6395
  459TIP3   OH2 1340   2.197   3.209   4.750 -0.3580 -0.6160  0.1168
  459TIP3    H1 1341   2.159   3.273   4.689  0.1743 -1.5748 -1.2741
  459TIP3    H2 1342   2.287   3.199   4.721  0.8743  1.1163  2.9610
  460TIP3   OH2 1343   6.610   5.999   4.157 -0.2477 -0.0155  0.1375
  460TIP3    H1 1344   6.524   5.993   4.199  0.6760 -0.5590  2.0690
  460TIP3    H2 1345   6.597   6.061   4.085 -1.9849  0.8090  1.0951
  461TIP3   OH2 1346   3.895   2.747   1.682  0.0767  0.0830  0.0196
  461TIP3    H1 1347   3.962   2.681   1.668  0.1093  0.1365 -0.0745
  461TIP3    H2 1348   3.885   2.790   1.597  0.1570  0.2938  0.1166
  462TIP3   OH2 1349   6.475   6.576   3.629  0.8448  0.1203 -0.2681
  462TIP3    H1 1350   6.566   6.548   3.613  1.1403  1.9949 -2.2481
  462TIP3    H2 1351   6.474   6.669   3.605 -0.7640  1.1918  3.2517
  463TIP3   OH2 1352   6.660   4.562   4.044  0.6167  0.0544  0.0332
  463TIP3    H1 1353   6.594   4.508   4.086  1.0703  0.6938  1.6305
  463TIP3    H2 1354   6.620   4.649   4.038  0.5297 -0.0379 -0.9705
  464TIP3   OH2 1355   5.879   5.558   2.402  0.0706  0.0111 -0.0692
  464TIP3    H1 1356   5.950   5.494   2.410  1.1085  0.9280 -1.5002
  464TIP3    H2 1357   5.900   5.607   2.323  0.0958  3.0913  1.7038
  465TIP3   OH2 1358   2.837   1.882   5.890  0.1652 -0.5367  0.1630
  465TIP3    H1 1359   2.875   1.917   5.809 -0.4534 -0.2817 -0.0240
  465TIP3    H2 1360   2.817   1.790   5.870  3.5031 -1.6351  1.2308
  466TIP3   OH2 1361   5.286   5.738   1.978 -0.1153 -0.0970  0.9362
  466TIP3    H1 1362   5.237   5.702   1.904 -1.2240  0.6813  1.2748
  466TIP3    H2 1363   5.337   5.810   1.940 -0.8188  0.4167  0.9464
  467TIP3   OH2 1364   4.804   5.858   0.306 -0.7529 -0.7765 -0.2349
  467TIP3    H1 1365   4.889   5.863   0.349 -1.0840  0.4359  0.3505
  467TIP3    H2 1366   4.767   5.946   0.317 -2.3015 -1.4204 -0.0074
  468TIP3   OH2 1367   4.800   4.486   1.872 -0.2046 -0.1881  0.3390
  468TIP3    H1 1368   4.798   4.578   1.898  1.0562  0.4114 -1.4746
  468TIP3    H2 1369   4.882   4.477   1.824 -1.6402 -1.5303 -2.0399
  469TIP3   OH2 1370   3.549   6.528   5.397 -0.0859 -0.0135 -0.2486
  469TIP3    H1 1371   3.489   6.568   5.460 -0.4882 -0.9277 -0.0410
  469TIP3    H2 1372   3.500   6.455   5.360 -0.1871  0.9795 -2.2591
  470TIP3   OH2 1373   5.141   4.044   1.346 -0.0280  0.3798 -0.0660
  470TIP3    H1 1374   5.098   3.982   1.287 -0.1935 -0.4836  0.9295
  470TIP3    H2 1375   5.156   3.995   1.426 -0.1375  1.6205  0.7558
  471TIP3   OH2 1376   1.374   5.409   0.147  0.0688  0.1204  0.0399
  471TIP3    H1 1377   1.445   5.351   0.174  0.3157  0.1828 -0.4706
  471TIP3    H2 1378   1.295   5.366   0.179  0.4345  0.9687  2.2596
  472TIP3   OH2 1379   1.395   0.355   3.619 -0.2750 -0.1568  0.1276
  472TIP3    H1 1380   1.444   0.436   3.601 -1.4587  0.4056 -0.6886
  472TIP3    H2 1381   1.330   0.381   3.684 -1.2047 -0.2337 -0.7574
  473TIP3   OH2 1382   3.580   3.159   5.445 -0.3657 -0.0850  0.1458
  473TIP3    H1 1383   3.630   3.191   5.521 -1.9260  1.3808  0.6251
  473TIP3    H2 1384   3.613   3.212   5.372 -0.1110 -0.2419  0.1449
  474TIP3   OH2 1385   5.537   0.593   0.589 -0.1745  0.1028  0.1292
  474TIP3    H1 1386   5.532   0.522   0.653 -0.0532  0.0111  0.0398
  474TIP3    H2 1387   5.490   0.559   0.513  1.1512 -0.4932 -0.4665
  475TIP3   OH2 1388   5.480   2.534   0.512 -0.1068 -0.1391 -0.0904
  475TIP3    H1 1389   5.396   2.531   0.559 -1.1869 -1.7161 -1.9781
  475TIP3    H2 1390   5.473   2.613   0.457 -0.3152 -0.2084 -0.1652
  476TIP3   OH2 1391   5.526   6.774   4.508  0.4302 -0.1750 -0.8623
  476TIP3    H1 1392   5.609   6.728   4.499  1.8311  2.2355 -1.0331
  476TIP3    H2 1393   5.530   6.816   4.594 -0.4605  0.2568 -1.0166
  477TIP3   OH2 1394   2.719   0.568   5.810 -0.4212  0.1490  0.0051
  477TIP3    H1 1395   2.759   0.628   5.872  1.9423 -0.2818 -0.9889
  477TIP3    H2 1396   2.672   0.624   5.748 -1.0531  0.6995  0.9592
  478TIP3   OH2 1397   6.716   2.692   3.032 -0.4661  0.0257 -0.9290
  478TIP3    H1 1398   6.653   2.734   3.091  0.2460 -0.2753  0.0527
  478TIP3    H2 1399   6.666   2.680   2.951 -1.1152  1.4854 -0.7953
  479TIP3   OH2 1400   5.223   2.117   2.468 -0.0464  0.5466  0.0065
  479TIP3    H1 1401   5.281   2.075   2.532 -0.8881 -1.0029 -0.1979
  479TIP3    H2 1402   5.223   2.209   2.493  0.8519  0.2264  1.3040
  480TIP3   OH2 1403   0.220   6.705   1.096  0.0429  0.3831 -0.6022
  480TIP3    H1 1404   0.279   6.740   1.163 -0.8953  0.3085  0.2876
  480TIP3    H2 1405   0.157   6.775   1.081  0.2431  0.3964 -1.4157
  481TIP3   OH2 1406   4.117   2.446   0.709  0.5151  0.3030  0.5580
  481TIP3    H1 1407   4.211   2.438   0.723  0.2382 -0.7687  1.9234
  481TIP3    H2 1408   4.099   2.540   0.720  0.8117  0.0293  4.7738
  482TIP3   OH2 1409   3.756   0.142   3.845 -0.4800 -0.0765  0.2924
  482TIP3    H1 1410   3.830   0.109   3.795 -1.1435 -0.5578 -0.4004
  482TIP3    H2 1411   3.695   0.068   3.851 -0.9744  0.3489  0.7174
  483TIP3   OH2 1412   5.016   0.726   4.037 -0.0502  0.5215  0.1365
  483TIP3    H1 1413   5.079   0.724   4.109  1.0388 -0.7159 -0.7954
  483TIP3    H2 1414   5.063   0.687   3.963 -0.6645  2.9605 -1.6553
  484TIP3   OH2 1415   4.991   3.686   1.879 -0.3965  0.3454  0.0660
  484TIP3    H1 1416   4.992   3.595   1.908  0.1923  0.8138  1.6331
  484TIP3    H2 1417   5.046   3.687   1.801  1.0578 -0.3753  1.0306
  485TIP3   OH2 1418   5.400   4.589   0.933 -0.2100 -0.2518 -0.0753
  485TIP3    H1 1419   5.350   4.640   0.996  0.4122 -0.4749  0.6154
  485TIP3    H2 1420   5.415   4.505   0.976  0.6133 -0.2508 -0.3311
  486TIP3   OH2 1421   5.261   2.180   2.999 -0.1272  0.0509  0.6360
  486TIP3    H1 1422   5.338   2.236   2.989 -0.0541 -0.2958 -0.8676
  486TIP3    H2 1423   5.190   2.241   3.021  0.4627  0.4164  1.6224
  487TIP3   OH2 1424   7.087   4.013   4.953 -0.0442 -0.4496 -0.4993
  487TIP3    H1 1425   7.028   3.990   5.024  0.2251  1.6157  0.4570
  487TIP3    H2 1426   7.162   3.954   4.963 -0.2113 -0.4720  0.6627
  488TIP3   OH2 1427   1.256   4.298   1.904  1.0207  0.4710  0.1110
  488TIP3    H1 1428   1.216   4.269   1.986  1.3021 -1.4077 -0.3579
  488TIP3    H2 1429   1.185   4.340   1.856  1.0869  2.5526  1.6809
  489TIP3   OH2 1430   1.794   0.129   1.521 -0.6310  0.2050  0.4397
  489TIP3    H1 1431   1.768   0.165   1.436 -1.7633 -2.2001 -0.3063
  489TIP3    H2 1432   1.714   0.128   1.573 -0.4340 -0.4039  0.7424
  490TIP3   OH2 1433   3.282   1.581   1.315  0.2265  0.2200 -0.3097
  490TIP3    H1 1434   3.325   1.512   1.366 -1.5842 -2.0270 -1.6637
  490TIP3    H2 1435   3.248   1.642   1.382 -0.6306 -1.7433  1.1497
  491TIP3   OH2 1436   2.756   6.107   5.833 -0.4327  0.4730  0.2483
  491TIP3    H1 1437   2.779   6.019   5.804 -1.2235  0.9795 -2.1486
  491TIP3    H2 1438   2.794   6.114   5.921  1.1796 -1.6120 -0.2050
  492TIP3   OH2 1439   3.460   5.931   0.983  0.3116 -0.4537 -0.3401
  492TIP3    H1 1440   3.468   5.891   1.070  0.0690  0.7906  0.2774
  492TIP3    H2 1441   3.377   5.979   0.987  1.3209  1.3866 -0.4942
  493TIP3   OH2 1442   0.379   0.882   4.690  0.7444  0.0464 -0.1737
  493TIP3    H1 1443   0.415   0.968   4.711  0.1258  0.5691 -1.1704
  493TIP3    H2 1444   0.296   0.878   4.738  0.8993 -0.1175  0.0871
  494TIP3   OH2 1445   5.994   1.452   0.656 -0.4186  0.3246  0.3348
  494TIP3    H1 1446   6.050   1.410   0.590 -0.0422  1.9456 -0.4299
  494TIP3    H2 1447   5.995   1.392   0.730 -0.1566 -1.1499 -0.8110
  495TIP3   OH2 1448   2.355   0.374   4.463 -0.5938 -0.0436  0.3205
  495TIP3    H1 1449   2.439   0.332   4.446 -0.6125 -0.5462  1.4063
  495TIP3    H2 1450   2.289   0.310   4.436 -0.6469  0.4507 -0.7758
  496TIP3   OH2 1451   6.343   3.470   4.681 -0.3519 -0.3526  0.3316
  496TIP3    H1 1452   6.273   3.430   4.733  0.3164 -2.4126 -0.2750
  496TIP3    H2 1453   6.423   3.453   4.731 -0.1157  0.8418  0.3832
  497TIP3   OH2 1454   0.991   3.856   4.971 -0.3285 -0.3429 -0.8212
  497TIP3    H1 1455   0.975   3.774   5.016 -0.4328  0.4924  0.7255
  497TIP3    H2 1456   1.080   3.847   4.936  1.8086  0.6069  3.5793
  498TIP3   OH2 1457   1.054   5.023   5.029 -0.2858  0.3081 -0.1011
  498TIP3    H1 1458   1.103   5.084   4.974 -0.1409  0.2833  0.0000
  498TIP3    H2 1459   1.005   5.079   5.089  0.6213  0.3062  0.6580
  499TIP3   OH2 1460   4.029   0.132   2.821 -0.0223 -0.2077 -0.1368
  499TIP3    H1 1461   3.938   0.121   2.791  0.0973  1.8548 -1.4543
  499TIP3    H2 1462   4.021   0.163   2.911 -0.6074 -0.5130 -0.0750
  500TIP3   OH2 1463   1.715   3.145   1.152  0.4032  0.0730  0.0391
  500TIP3    H1 1464   1.684   3.091   1.225  0.0840  2.1084  1.4826
  500TIP3    H2 1465   1.648   3.135   1.085  0.1032 -0.8956  0.4573
  501TIP3   OH2 1466   4.524   2.613   5.723  0.5579 -0.1506  0.2938
  501TIP3    H1 1467   4.583   2.610   5.798  1.1015  0.0377 -0.1156
  501TIP3    H2 1468   4.575   2.576   5.651  0.2291  0.1406 -0.0960
  502TIP3   OH2 1469   2.677   2.975   1.787 -0.0150  0.2900 -1.0150
  502TIP3    H1 1470   2.757   2.947   1.743 -0.0052 -0.4271 -0.5516
  502TIP3    H2 1471   2.612   2.979   1.717 -0.0492 -1.0342 -1.0946
  503TIP3   OH2 1472   3.830   3.204   2.253 -0.0086 -0.6630 -0.3331
  503TIP3    H1 1473   3.899   3.162   2.304 -2.1079 -1.2523  2.2553
  503TIP3    H2 1474   3.764   3.136   2.242 -0.5862  0.1228 -1.9806
  504TIP3   OH2 1475   6.728   0.810   3.499 -0.0545  0.2988  0.1113
  504TIP3    H1 1476   6.715   0.858   3.581  3.5860  1.0508  0.3992
  504TIP3    H2 1477   6.821   0.789   3.498  0.3144  1.1962 -4.2704
  505TIP3   OH2 1478   6.736   1.063   4.825 -0.0394  0.0876 -0.4245
  505TIP3    H1 1479   6.799   1.111   4.771 -0.7806 -1.2079 -2.5551
  505TIP3    H2 1480   6.713   1.124   4.895  2.7777  0.9554 -0.1619
  506TIP3   OH2 1481   5.376   2.855   1.604  0.1748 -0.2601 -0.2110
  506TIP3    H1 1482   5.437   2.795   1.561  1.6419 -0.2119  1.6544
  506TIP3    H2 1483   5.420   2.880   1.685 -2.2765 -0.0766  1.1662
  507TIP3   OH2 1484   2.035   2.160   4.969  0.2831  0.3762  0.0465
  507TIP3    H1 1485   1.983   2.168   4.889  0.8711  0.5537 -0.3240
  507TIP3    H2 1486   2.124   2.146   4.938  0.2485 -1.4485  0.6703
  508TIP3   OH2 1487   6.265   6.289   1.817 -0.3321  0.5941  0.2337
  508TIP3    H1 1488   6.222   6.219   1.867 -0.0963  0.8670  0.8190
  508TIP3    H2 1489   6.357   6.283   1.841  0.2272 -0.7408 -1.8942
  509TIP3   OH2 1490   3.759   3.415   2.704  0.0586 -0.1145  0.0236
  509TIP3    H1 1491   3.690   3.401   2.640 -0.8578  1.6389  0.5592
  509TIP3    H2 1492   3.824   3.467   2.658  0.7022 -1.1453 -0.2603
  510TIP3   OH2 1493   3.382   4.065   1.789  0.7603  0.9517  0.6442
  510TIP3    H1 1494   3.441   4.071   1.864  0.6891  0.8322  0.7087
  510TIP3    H2 1495   3.399   3.979   1.751 -0.2578  0.3968  1.3987
  511TIP3   OH2 1496   4.866   0.137   3.916  0.0706 -0.6440  0.1877
  511TIP3    H1 1497   4.795   0.118   3.854  1.4623  0.0073 -1.7248
  511TIP3    H2 1498   4.852   0.229   3.941  1.4488  0.2881 -2.0709
  512TIP3   OH2 1499   4.503   3.913   3.479 -0.0505  0.0786  0.1190
  512TIP3    H1 1500   4.577   3.861   3.508  0.4508  1.2027  0.9527
  512TIP3    H2 1501   4.439   3.850   3.447  1.7014 -0.8608 -1.6982
  513TIP3   OH2 1502   4.721   2.633   1.139  0.2416  0.0303  0.0167
  513TIP3    H1 1503   4.723   2.591   1.225 -0.5581  1.7445  0.9268
  513TIP3    H2 1504   4.804   2.681   1.134 -1.1304  2.7362  1.3903
  514TIP3   OH2 1505   4.102   5.986   2.798  0.5687 -0.0354  0.1634
  514TIP3    H1 1506   4.150   5.944   2.870  0.1153 -0.7738  0.0381
  514TIP3    H2 1507   4.047   6.051   2.842 -0.4012 -1.1201  0.5937
  515TIP3   OH2 1508   3.442   4.362   4.798  0.2659  0.5780 -0.1431
  515TIP3    H1 1509   3.485   4.333   4.718  0.9586  0.0097  0.4220
  515TIP3    H2 1510   3.505   4.422   4.838  1.0536 -1.0658  1.2252
  516TIP3   OH2 1511   0.053   6.414   3.799 -0.0440 -0.2483 -0.1537
  516TIP3    H1 1512   0.055   6.427   3.893  0.3293  0.1665 -0.2177
  516TIP3    H2 1513   0.129   6.357   3.781 -0.8101 -1.3319 -0.0586
  517TIP3   OH2 1514   4.172   6.524   0.658 -0.0969  0.0460 -0.1900
  517TIP3    H1 1515   4.158   6.492   0.747 -0.3190 -1.0016 -0.5879
  517TIP3    H2 1516   4.086   6.558   0.631  0.8441  4.2246  1.4209
  518TIP3   OH2 1517   5.364   0.718   4.016 -0.0005  0.1244  0.2448
  518TIP3    H1 1518   5.440   0.660   4.007 -0.4007 -0.7089  1.9164
  518TIP3    H2 1519   5.363   0.767   3.934  2.9920  0.9692  0.5775
  519TIP3   OH2 1520   1.959   6.275   1.880 -0.1966 -0.2750  0.6537
  519TIP3    H1 1521   1.917   6.204   1.928 -0.4691 -0.0300  0.7800
  519TIP3    H2 1522   1.903   6.290   1.804  0.7029 -1.2694 -0.2527
  520TIP3   OH2 1523   7.073   0.328   3.220 -0.1414  0.2366 -0.4636
  520TIP3    H1 1524   7.073   0.312   3.126  1.3789  0.1958 -0.4738
  520TIP3    H2 1525   7.035   0.249   3.258  0.3713 -0.2578 -0.9741
  521TIP3   OH2 1526   4.237   5.860   0.710 -0.2974 -0.3161  0.1330
  521TIP3    H1 1527   4.181   5.909   0.651  0.2111 -0.0062 -0.1033
  521TIP3    H2 1528   4.324   5.899   0.699  0.1489 -1.3598 -0.1656
  522TIP3   OH2 1529   4.989   1.836   4.121  0.2392  0.7806 -0.4053
  522TIP3    H1 1530   4.963   1.927   4.137 -1.3385  0.0467  1.6485
  522TIP3    H2 1531   4.907   1.788   4.116  1.0518 -0.7945  0.4605
  523TIP3   OH2 1532   5.480   1.692   2.424 -0.2031  0.0351 -0.3533
  523TIP3    H1 1533   5.470   1.678   2.518  0.3907  0.6888 -0.1824
  523TIP3    H2 1534   5.398   1.732   2.396  0.0555  0.9136  0.1139
  524TIP3   OH2 1535   3.156   2.860   4.283  0.0218  0.4729 -0.3593
  524TIP3    H1 1536   3.189   2.919   4.351 -1.3823  1.3814 -0.4355
  524TIP3    H2 1537   3.146   2.776   4.328 -0.1709  0.8723  0.3602
  525TIP3   OH2 1538   0.190   5.958   0.141 -0.0921  0.1033 -0.0747
  525TIP3    H1 1539   0.284   5.969   0.129  0.0674 -0.9750  0.1040
  525TIP3    H2 1540   0.178   5.953   0.236 -0.1961 -0.7721 -0.1262
  526TIP3   OH2 1541   3.817   0.852   4.661  0.0870  0.5619 -0.3542
  526TIP3    H1 1542   3.834   0.916   4.592  0.1122 -0.5595 -1.4271
  526TIP3    H2 1543   3.899   0.846   4.710  0.6983  0.0019 -1.4076
  527TIP3   OH2 1544   2.590   5.195   2.292 -0.2916  0.5604 -0.2015
  527TIP3    H1 1545   2.557   5.122   2.344 -1.6223  0.8028 -0.6841
  527TIP3    H2 1546   2.541   5.192   2.210  0.1009  1.6012 -0.5005
  528TIP3   OH2 1547   3.994   2.282   1.585 -0.2448 -0.1054 -0.3655
  528TIP3    H1 1548   3.997   2.284   1.490 -0.4261  0.9500 -0.3617
  528TIP3    H2 1549   4.015   2.372   1.612 -3.8923  0.6592  0.4583
  529TIP3   OH2 1550   5.204   2.320   1.297  0.0245  0.4036  0.5261
  529TIP3    H1 1551   5.154   2.247   1.258  2.0190 -1.0289  0.5020
  529TIP3    H2 1552   5.140   2.391   1.305 -2.0819 -1.4050  0.7586
  530TIP3   OH2 1553   5.716   4.081   3.984  0.2201 -0.2772 -0.5514
  530TIP3    H1 1554   5.707   4.158   3.929  1.3342 -0.3474 -0.8522
  530TIP3    H2 1555   5.675   4.010   3.934 -1.2270  0.1792 -0.0703
  531TIP3   OH2 1556   1.881   6.075   2.066  0.2571  0.2198 -0.5035
  531TIP3    H1 1557   1.953   6.017   2.090 -0.2145  0.0333  0.5127
  531TIP3    H2 1558   1.802   6.027   2.090 -0.1633  0.9600 -0.3600
  532TIP3   OH2 1559   0.622   2.093   3.423  0.3247 -0.5726  0.1623
  532TIP3    H1 1560   0.631   2.188   3.429  1.0198 -0.6303  0.0965
  532TIP3    H2 1561   0.683   2.068   3.354  0.7319 -1.1552  0.7263
  533TIP3   OH2 1562   4.774   4.326   1.410 -0.8180  0.3523  0.0151
  533TIP3    H1 1563   4.806   4.314   1.320 -0.6269 -1.0708  0.2404
  533TIP3    H2 1564   4.812   4.252   1.458 -1.1743  0.9233  1.1997
  534TIP3   OH2 1565   0.495   0.031   1.419 -0.2787 -0.4025 -0.4911
  534TIP3    H1 1566   0.442   0.025   1.498 -0.9383  1.6336 -0.7301
  534TIP3    H2 1567   0.571  -0.025   1.437 -2.2903 -3.2226 -0.0665
  535TIP3   OH2 1568   0.486   2.006   3.113  0.0304 -0.0151  0.4399
  535TIP3    H1 1569   0.404   1.957   3.106  0.3909 -0.6625  0.6377
  535TIP3    H2 1570   0.554   1.938   3.112  0.5721  0.5229  0.1107
  536TIP3   OH2 1571   6.774   1.244   4.408  0.0212 -0.0764 -0.2406
  536TIP3    H1 1572   6.865   1.220   4.394 -0.1922 -0.8136 -0.3784
  536TIP3    H2 1573   6.729   1.216   4.328 -0.8672 -2.5411  1.0390
  537TIP3   OH2 1574   0.558   0.279   1.497  0.1463 -0.0355  0.0923
  537TIP3    H1 1575   0.559   0.185   1.480  0.6570 -0.0391  0.1283
  537TIP3    H2 1576   0.579   0.319   1.413 -0.3551  0.0552  0.0123
  538TIP3   OH2 1577   4.956   4.787   0.946  0.2279  0.2249  0.3409
  538TIP3    H1 1578   4.873   4.818   0.910  0.7901  0.5211 -0.7418
  538TIP3    H2 1579   4.998   4.865   0.982  0.0622  0.0813  0.8605
  539TIP3   OH2 1580   2.606   4.738   5.662 -0.4493 -0.1944  0.1058
  539TIP3    H1 1581   2.633   4.734   5.570 -1.1000  1.7681 -0.2149
  539TIP3    H2 1582   2.594   4.646   5.687  2.1360 -0.9239 -1.0003
  540TIP3   OH2 1583   2.161   1.693   4.995 -0.2225 -0.3170  0.2973
  540TIP3    H1 1584   2.200   1.655   5.074  1.9140  0.5819 -0.2674
  540TIP3    H2 1585   2.219   1.667   4.924 -1.7590 -0.5633 -0.9195
  541TIP3   OH2 1586   6.299   5.492   5.000 -0.6529  0.2525  0.7975
  541TIP3    H1 1587   6.365   5.562   4.993 -0.5512  0.3436  2.2248
  541TIP3    H2 1588   6.341   5.425   5.054 -0.7921 -0.8947 -0.4628
  542TIP3   OH2 1589   5.790   6.284   3.285 -0.4517 -0.4540  0.0821
  542TIP3    H1 1590   5.766   6.281   3.378  0.7201  0.1128  0.4192
  542TIP3    H2 1591   5.736   6.215   3.245 -2.8444  0.9326  0.7074
  543TIP3   OH2 1592   7.147   3.195   4.642  0.3465  0.2846  0.3550
  543TIP3    H1 1593   7.203   3.268   4.667 -1.8481  3.2317 -2.6224
  543TIP3    H2 1594   7.157   3.187   4.548 -1.9627 -1.0586  0.1379
  544TIP3   OH2 1595   4.537   1.104   3.927 -0.4391 -0.4077 -0.2753
  544TIP3    H1 1596   4.501   1.180   3.881  0.2943  0.2336  0.1862
  544TIP3    H2 1597   4.617   1.083   3.879 -0.6492 -0.9019 -0.4120
  545TIP3   OH2 1598   5.167   0.076   3.416  0.3598  0.5801  0.5725
  545TIP3    H1 1599   5.246   0.041   3.373 -0.7142 -1.9130  0.5013
  545TIP3    H2 1600   5.101   0.077   3.347 -0.5305 -0.4811  1.3753
  546TIP3   OH2 1601   2.582   6.011   0.299  0.4308 -0.0334  0.0326
  546TIP3    H1 1602   2.547   5.998   0.210 -0.1865  2.8927 -0.2552
  546TIP3    H2 1603   2.520   5.965   0.356 -0.0005 -0.7017 -0.9323
  547TIP3   OH2 1604   2.849   3.885   5.391  0.4417 -0.2490 -0.1383
  547TIP3    H1 1605   2.777   3.945   5.374  0.4769 -0.1208  0.1485
  547TIP3    H2 1606   2.875   3.903   5.481  1.5054  0.4313 -0.5573
  548TIP3   OH2 1607   4.802   2.302   4.214  0.2961 -0.2403  0.2355
  548TIP3    H1 1608   4.824   2.227   4.269 -0.4879 -1.9036 -1.6106
  548TIP3    H2 1609   4.707   2.297   4.204  0.3071  0.6548 -0.4090
  549TIP3   OH2 1610   1.875   0.891   4.270 -0.0810  0.1543 -0.0394
  549TIP3    H1 1611   1.965   0.859   4.266 -0.6771 -1.7528  0.4850
  549TIP3    H2 1612   1.861   0.936   4.187  1.1966  0.0380 -0.3321
  550TIP3   OH2 1613   3.225   4.716   3.730 -0.1188  0.2858 -0.4894
  550TIP3    H1 1614   3.305   4.683   3.690 -0.9867 -0.2394 -1.8615
  550TIP3    H2 1615   3.254   4.788   3.786  1.3065  0.0950 -0.9447
  551TIP3   OH2 1616   6.721   0.450   4.600  0.1259 -0.0864 -0.6106
  551TIP3    H1 1617   6.708   0.390   4.673 -0.7046  0.7279 -0.0582
  551TIP3    H2 1618   6.748   0.532   4.642  0.4996  0.1460 -1.2945
  552TIP3   OH2 1619   2.210   0.619   2.270 -0.1861  0.0922 -0.1030
  552TIP3    H1 1620   2.129   0.652   2.232 -0.5581  0.4619  0.9742
  552TIP3    H2 1621   2.253   0.696   2.306  0.2696 -0.2150  0.0263
  553TIP3   OH2 1622   2.863   0.888   1.100 -0.5289  0.5973 -0.3843
  553TIP3    H1 1623   2.793   0.842   1.146 -3.1191  1.8087 -2.7859
  553TIP3    H2 1624   2.906   0.940   1.168 -2.1969  0.0808  1.1561
  554TIP3   OH2 1625   6.475   1.628   1.348 -0.1406  0.1034 -0.7309
  554TIP3    H1 1626   6.399   1.632   1.406  2.1985  1.4966  2.5386
  554TIP3    H2 1627   6.488   1.535   1.330 -1.2358 -0.3274  0.6082
  555TIP3   OH2 1628   2.747   6.293   0.860 -0.2762 -0.1488  0.1602
  555TIP3    H1 1629   2.731   6.384   0.885  2.3751  0.5343 -0.3128
  555TIP3    H2 1630   2.719   6.242   0.936 -1.9921  1.0167  0.3563
  556TIP3   OH2 1631   3.858   5.050   0.096  0.1454 -0.2767 -0.0194
  556TIP3    H1 1632   3.771   5.079   0.068 -0.2795 -2.0909 -0.7030
  556TIP3    H2 1633   3.893   5.002   0.021  2.1395  1.1552 -0.0764
  557TIP3   OH2 1634   4.517   2.641   1.546  0.0761 -0.0496  0.0847
  557TIP3    H1 1635   4.453   2.694   1.594 -1.0618 -1.8856  0.7042
  557TIP3    H2 1636   4.518   2.557   1.592  2.1979 -0.4254 -0.5428
  558TIP3   OH2 1637   4.823   5.185   0.804  0.6586  0.3649  0.3329
  558TIP3    H1 1638   4.857   5.174   0.892  0.0992  1.1438  0.6516
  558TIP3    H2 1639   4.900   5.203   0.750  1.0663 -0.6373  0.5494
  559TIP3   OH2 1640   6.580   3.118   0.525  0.2737  0.4695  0.1471
  559TIP3    H1 1641   6.521   3.107   0.599  1.5189  1.8999  1.4367
  559TIP3    H2 1642   6.628   3.199   0.545  1.1545  0.5084 -1.8843
  560TIP3   OH2 1643   0.062   5.626   4.401  0.3304  0.8291 -0.3982
  560TIP3    H1 1644   0.089   5.602   4.313  2.1049  0.9367  0.0913
  560TIP3    H2 1645   0.049   5.721   4.398  2.2936  1.1484 -0.1132
  561TIP3   OH2 1646   2.492   4.724   4.343 -0.2010 -0.1620 -0.0187
  561TIP3    H1 1647   2.437   4.669   4.287 -1.2064  0.7225  0.0739
  561TIP3    H2 1648   2.542   4.777   4.281  1.6295 -1.9142 -0.1469
  562TIP3   OH2 1649   0.254   2.182   1.036 -0.4437  0.5549  0.2446
  562TIP3    H1 1650   0.253   2.142   1.124  0.7743  0.4426  0.2299
  562TIP3    H2 1651   0.346   2.208   1.023 -0.8355  1.5859 -0.5475
  563TIP3   OH2 1652   2.696   4.767   0.039  0.0705  0.3534  0.0155
  563TIP3    H1 1653   2.616   4.820   0.045 -0.4314  0.0811 -2.8194
  563TIP3    H2 1654   2.667   4.685  -0.002  1.6080 -0.2946  0.1475
  564TIP3   OH2 1655   2.401   3.443   5.843 -0.4548  0.4001  0.0457
  564TIP3    H1 1656   2.385   3.489   5.760  2.2985 -1.1156 -1.4693
  564TIP3    H2 1657   2.423   3.512   5.905 -1.3457  1.4800 -0.7852
  565TIP3   OH2 1658   6.358   2.815   2.316  0.3396 -0.3195  0.1020
  565TIP3    H1 1659   6.389   2.903   2.296  0.0894 -0.0963  0.6730
  565TIP3    H2 1660   6.352   2.813   2.412 -0.7175 -0.5955  0.0427
  566TIP3   OH2 1661   6.896   1.350   0.526  0.1063 -0.0999  0.0092
  566TIP3    H1 1662   6.879   1.390   0.440  1.2466 -2.3621 -1.3480
  566TIP3    H2 1663   6.990   1.331   0.525 -0.0298 -0.9524  1.4094
  567TIP3   OH2 1664   1.880   3.101   1.769 -0.0623 -0.3513  0.1397
  567TIP3    H1 1665   1.843   3.089   1.682  1.0105 -0.9451 -0.2579
  567TIP3    H2 1666   1.865   3.017   1.813  0.8164 -0.6190 -0.0455
  568TIP3   OH2 1667   2.521   1.875   3.986 -0.0264 -0.0093 -0.4037
  568TIP3    H1 1668   2.615   1.885   3.967 -0.0758 -1.5833 -1.7044
  568TIP3    H2 1669   2.480   1.948   3.940  0.3350 -0.9647 -2.3418
  569TIP3   OH2 1670   2.856   3.712   0.400  0.1956 -0.4756 -0.7083
  569TIP3    H1 1671   2.835   3.629   0.355  0.0241 -1.3419  0.8867
  569TIP3    H2 1672   2.909   3.760   0.337 -0.3821 -1.4474 -1.9996
  570TIP3   OH2 1673   5.085   0.469   1.986  0.0172 -0.7605  0.5330
  570TIP3    H1 1674   5.100   0.560   2.012 -1.5997 -0.1352 -0.5404
  570TIP3    H2 1675   5.011   0.441   2.040 -0.3328 -0.9887 -0.0604
  571TIP3   OH2 1676   3.222   1.263   1.761  0.0105 -0.1231  0.0835
  571TIP3    H1 1677   3.225   1.240   1.854 -1.8968  1.1349  0.5113
  571TIP3    H2 1678   3.233   1.358   1.759  2.3562 -0.3427 -1.2154
  572TIP3   OH2 1679   6.760   4.385   0.883  0.0713 -0.6897  0.2918
  572TIP3    H1 1680   6.781   4.330   0.808  0.2230  1.4454 -1.3553
  572TIP3    H2 1681   6.845   4.411   0.919  0.0522 -0.0522 -0.1127
  573TIP3   OH2 1682   2.926   2.804   0.630  0.6088 -0.7947  0.6492
  573TIP3    H1 1683   2.932   2.887   0.677  1.2483 -0.3452 -0.1830
  573TIP3    H2 1684   2.998   2.751   0.665  0.7707 -0.6495  0.5395
  574TIP3   OH2 1685   5.444   2.266   0.801 -0.2532 -0.5532  0.1580
  574TIP3    H1 1686   5.472   2.265   0.710  0.6898 -0.1393  0.4333
  574TIP3    H2 1687   5.420   2.175   0.820 -1.4095 -0.4668 -0.7722
  575TIP3   OH2 1688   4.021   2.984   0.304  0.3908 -0.1535  0.1982
  575TIP3    H1 1689   3.954   2.991   0.235  0.1706 -0.8476  0.3330
  575TIP3    H2 1690   4.006   3.061   0.359 -0.6010 -0.5276  0.4809
  576TIP3   OH2 1691   5.650   5.626   2.221  0.2963 -0.3866 -0.1754
  576TIP3    H1 1692   5.645   5.538   2.257  1.7427 -0.3300  0.1960
  576TIP3    H2 1693   5.673   5.682   2.295  1.3000  0.0212 -0.7811
  577TIP3   OH2 1694   4.566   4.943   1.589  0.6469  0.0498  0.3734
  577TIP3    H1 1695   4.624   4.895   1.648  2.2869 -1.7795 -2.4352
  577TIP3    H2 1696   4.509   4.875   1.552  0.2693  0.9296 -0.7280
  578TIP3   OH2 1697   2.458   6.033   5.307 -0.1509  0.2867 -0.1575
  578TIP3    H1 1698   2.538   6.083   5.291 -0.3604  1.1014  1.1557
  578TIP3    H2 1699   2.406   6.043   5.227  2.2478 -2.7662 -2.3255
  579TIP3   OH2 1700   0.743   2.461   2.887 -0.1347  0.3940 -0.1026
  579TIP3    H1 1701   0.825   2.483   2.842 -0.3829  0.8688 -0.3323
  579TIP3    H2 1702   0.677   2.462   2.817 -0.8276  2.7861  0.5053
  580TIP3   OH2 1703   4.390   5.215   4.561 -0.0829  0.6643  0.6963
  580TIP3    H1 1704   4.372   5.225   4.654 -0.1854 -1.0480  0.9073
  580TIP3    H2 1705   4.405   5.121   4.550  0.3306  0.8877 -0.9478
  581TIP3   OH2 1706   3.781   1.902   4.647 -0.1318  0.2078  0.1059
  581TIP3    H1 1707   3.780   1.990   4.684 -1.2920 -0.2053  1.1433
  581TIP3    H2 1708   3.689   1.876   4.645  0.0758 -0.4829 -1.4442
  582TIP3   OH2 1709   0.803   4.581   5.564 -0.0670 -0.1927  0.0548
  582TIP3    H1 1710   0.771   4.645   5.500 -1.9517 -0.3261  0.8081
  582TIP3    H2 1711   0.818   4.501   5.513  0.8972  0.4167 -0.6358
  583TIP3   OH2 1712   6.553   1.105   1.680 -0.2060  0.1517 -0.4405
  583TIP3    H1 1713   6.596   1.025   1.708 -0.5657 -0.1824 -0.8351
  583TIP3    H2 1714   6.477   1.115   1.738 -0.5096 -0.1258 -0.7842
  584TIP3   OH2 1715   6.941   2.305   4.974 -0.1576  1.0207  0.2022
  584TIP3    H1 1716   6.853   2.280   5.000  0.0211  0.3801  0.2208
  584TIP3    H2 1717   6.967   2.372   5.038 -0.1736  0.3195  0.9657
  585TIP3   OH2 1718   0.958   5.726   1.805  0.0104  0.2151 -0.3659
  585TIP3    H1 1719   0.879   5.719   1.860  0.3441  0.2563  0.1264
  585TIP3    H2 1720   1.019   5.778   1.857  0.2565  0.4426 -0.8748
  586TIP3   OH2 1721   0.958   3.895   3.232 -0.2267  0.6809  0.1518
  586TIP3    H1 1722   0.926   3.813   3.195 -1.7116  0.4324  1.8239
  586TIP3    H2 1723   0.909   3.963   3.185  1.6395  0.7509 -1.8581
  587TIP3   OH2 1724   5.476   0.893   2.960 -0.2316  0.4943  0.2678
  587TIP3    H1 1725   5.432   0.862   2.881 -0.8234  1.8878  0.0215
  587TIP3    H2 1726   5.503   0.982   2.940  0.6259  0.4858  1.2528
  588TIP3   OH2 1727   1.461   5.079   0.723 -0.5720 -0.5203  0.1674
  588TIP3    H1 1728   1.463   5.153   0.783  1.8244  0.0511 -0.4995
  588TIP3    H2 1729   1.437   5.004   0.778 -0.2470  0.2827  1.4425
  589TIP3   OH2 1730   2.252   3.642   3.450  0.2507 -0.1090  0.0135
  589TIP3    H1 1731   2.292   3.697   3.384  0.8502  0.5444  0.9035
  589TIP3    H2 1732   2.264   3.553   3.417  1.4954  0.1365 -0.2573
  590TIP3   OH2 1733   0.221   2.097   4.823 -0.0306  0.1693 -0.3359
  590TIP3    H1 1734   0.151   2.160   4.834  0.2416  0.4980 -0.4651
  590TIP3    H2 1735   0.266   2.096   4.907  0.4737  0.7719 -0.5873
  591TIP3   OH2 1736   1.936   6.590   0.852 -0.4971  0.4221 -0.1992
  591TIP3    H1 1737   1.923   6.683   0.869 -0.1011  0.5973 -0.8185
  591TIP3    H2 1738   1.899   6.576   0.765 -0.1860  0.0888 -0.2842
  592TIP3   OH2 1739   6.375   5.238   0.960  0.2674  0.0484  0.4716
  592TIP3    H1 1740   6.287   5.264   0.988 -0.2754 -2.6577  1.5720
  592TIP3    H2 1741   6.361   5.186   0.881  0.4558 -2.9983  2.3106
  593TIP3   OH2 1742   0.494   1.694   0.839 -0.3648  0.2930  0.5537
  593TIP3    H1 1743   0.480   1.601   0.824 -1.4289  0.5920 -0.3766
  593TIP3    H2 1744   0.406   1.731   0.848  0.0280  1.2781  0.5063
  594TIP3   OH2 1745   6.724   4.319   5.598  0.1707  0.2795  0.0733
  594TIP3    H1 1746   6.736   4.381   5.670  2.4566 -2.1107  1.9499
  594TIP3    H2 1747   6.649   4.266   5.625  1.6193 -1.2466  1.3198
  595TIP3   OH2 1748   1.600   4.760   4.793  0.0218  0.2978 -0.2745
  595TIP3    H1 1749   1.684   4.771   4.748 -0.2524 -1.4459 -1.2821
  595TIP3    H2 1750   1.576   4.849   4.820  1.8400  0.9287 -0.5744
  596TIP3   OH2 1751   5.040   2.193   5.026 -0.2212  0.0238  0.3822
  596TIP3    H1 1752   5.033   2.165   4.934 -1.4057  0.8943  0.1865
  596TIP3    H2 1753   4.964   2.155   5.069 -0.7413  1.2096  0.5558
  597TIP3   OH2 1754   6.261   1.930   3.913 -0.4782  0.2405 -0.0090
  597TIP3    H1 1755   6.209   1.867   3.864 -1.1940  0.0455  0.9615
  597TIP3    H2 1756   6.200   1.967   3.977  0.9502 -1.3153  2.4129
  598TIP3   OH2 1757   1.157   0.721   1.532 -0.1517 -0.6258 -0.1096
  598TIP3    H1 1758   1.119   0.741   1.618 -0.2178  0.2323 -0.3339
  598TIP3    H2 1759   1.081   0.710   1.475 -0.0966  0.7314 -0.4776
  599TIP3   OH2 1760   3.414   4.050   2.679  0.2662 -0.3452  0.6174
  599TIP3    H1 1761   3.437   3.961   2.704  0.7119 -0.0481  1.2817
  599TIP3    H2 1762   3.464   4.067   2.600 -0.4912 -0.9858 -0.0191
  600TIP3   OH2 1763   2.188   3.978   1.991 -0.8416 -0.4865  0.4040
  600TIP3    H1 1764   2.239   3.946   1.917  1.5448  2.2772  0.6788
  600TIP3    H2 1765   2.245   3.966   2.067 -0.9944  1.5869  0.9151
  601TIP3   OH2 1766   0.971   5.473   4.506  0.4692 -0.2673 -0.8414
  601TIP3    H1 1767   1.019   5.407   4.557  1.7309  1.6562  0.6136
  601TIP3    H2 1768   0.901   5.502   4.564 -0.7840 -1.0769 -1.9077
  602TIP3   OH2 1769   1.263   0.788   3.066  0.1519  0.0077 -0.2320
  602TIP3    H1 1770   1.182   0.762   3.109 -0.1206  1.7392  0.3767
  602TIP3    H2 1771   1.265   0.737   2.986 -1.6143  0.0342 -0.3264
  603TIP3   OH2 1772   2.174   6.577   1.039 -0.3784 -1.1540  0.7580
  603TIP3    H1 1773   2.104   6.553   0.978 -1.7978  0.9459  1.4275
  603TIP3    H2 1774   2.135   6.645   1.094  1.7330 -1.0027  2.1943
  604TIP3   OH2 1775   2.242   4.743   3.771  0.0164  0.2262  0.2427
  604TIP3    H1 1776   2.196   4.808   3.718  0.1304 -0.6502 -0.9823
  604TIP3    H2 1777   2.317   4.790   3.807  1.1563  0.3777 -2.1272
  605TIP3   OH2 1778   6.558   3.648   1.104 -0.0331  0.2689 -0.0303
  605TIP3    H1 1779   6.533   3.668   1.194 -0.2734 -2.6272  0.6327
  605TIP3    H2 1780   6.483   3.601   1.068  2.0986 -3.9443  0.3136
  606TIP3   OH2 1781   2.958   0.957   2.864 -0.2974  0.7845  0.1561
  606TIP3    H1 1782   2.924   0.888   2.921  0.7727 -1.3040 -1.5856
  606TIP3    H2 1783   3.040   0.985   2.906  0.8953 -1.2868 -0.6316
  607TIP3   OH2 1784   3.444   2.944   2.610 -0.6841 -0.2912 -0.2356
  607TIP3    H1 1785   3.532   2.925   2.641 -0.9445 -1.6741 -0.2793
  607TIP3    H2 1786   3.425   3.032   2.642  1.0419  0.3903 -0.9902
  608TIP3   OH2 1787   0.063   2.144   0.843 -0.3396 -0.6375  0.8072
  608TIP3    H1 1788   0.102   2.118   0.759 -0.6735  1.4180 -0.0607
  608TIP3    H2 1789   0.136   2.144   0.904  0.0643 -1.4243  0.3501
  609TIP3   OH2 1790   6.712   2.895   2.656  0.0333 -0.3856 -0.1068
  609TIP3    H1 1791   6.699   2.800   2.657 -1.3241 -0.2267 -0.0832
  609TIP3    H2 1792   6.784   2.909   2.595  1.6717 -1.5557  1.4377
  610TIP3   OH2 1793   1.299   1.157   0.664 -0.2735 -0.0548  0.0841
  610TIP3    H1 1794   1.215   1.114   0.677 -1.2709  1.6749 -0.3125
  610TIP3    H2 1795   1.312   1.155   0.569 -0.1694  0.1935  0.0915
  611TIP3   OH2 1796   4.853   2.228   3.948 -0.1201  0.3793  0.2060
  611TIP3    H1 1797   4.845   2.233   4.043  2.4818  0.2373  0.5063
  611TIP3    H2 1798   4.938   2.267   3.929 -0.7244  0.7074 -2.1162
  612TIP3   OH2 1799   2.475   3.202   4.636  0.1998 -0.0999  0.0952
  612TIP3    H1 1800   2.528   3.124   4.651  0.1786  0.1217  1.4570
  612TIP3    H2 1801   2.424   3.181   4.558  1.8927 -0.5175 -0.9552
  613TIP3   OH2 1802   4.902   4.467   5.750 -0.7302 -0.5991 -0.2436
  613TIP3    H1 1803   4.867   4.378   5.740 -0.7687 -0.6535  0.3333
  613TIP3    H2 1804   4.978   4.469   5.693 -0.7597 -0.9888 -0.3022
  614TIP3   OH2 1805   6.472   1.932   3.741  0.0029  0.0751  0.2373
  614TIP3    H1 1806   6.513   2.018   3.738  0.6667 -0.2291  0.3886
  614TIP3    H2 1807   6.402   1.940   3.806 -0.8413  0.8764 -0.7464
  615TIP3   OH2 1808   4.358   0.472   2.980 -0.1982 -0.3529 -0.1603
  615TIP3    H1 1809   4.402   0.494   2.898 -1.2760 -1.7947 -1.1825
  615TIP3    H2 1810   4.350   0.377   2.979 -2.0674 -0.2541  0.6086
  616TIP3   OH2 1811   3.127   2.861   2.323  0.3224 -0.0439 -0.2061
  616TIP3    H1 1812   3.103   2.807   2.398 -0.9391 -1.2261 -1.3943
  616TIP3    H2 1813   3.091   2.948   2.343 -1.1663 -0.6864 -0.0129
  617TIP3   OH2 1814   3.304   1.150   4.063 -0.3243  0.5420  0.2783
  617TIP3    H1 1815   3.233   1.193   4.016  0.7939  1.9318 -0.2148
  617TIP3    H2 1816   3.359   1.113   3.993  0.4561  1.1599  0.5584
  618TIP3   OH2 1817   7.174   2.762   4.930 -0.3495 -0.2835 -0.4568
  618TIP3    H1 1818   7.225   2.740   5.008  0.8961  1.3963 -0.7491
  618TIP3    H2 1819   7.205   2.701   4.863  1.0855  0.4994 -0.5401
  619TIP3   OH2 1820   4.659   5.919   2.406 -0.8954  0.1060  0.0782
  619TIP3    H1 1821   4.596   5.854   2.374 -0.5841 -0.4406  0.5683
  619TIP3    H2 1822   4.624   5.946   2.491 -0.5231 -0.1312  0.3088
  620TIP3   OH2 1823   6.243   1.347   3.604 -0.1972 -0.8114  0.2584
  620TIP3    H1 1824   6.233   1.307   3.690  0.0432 -0.0428  0.6560
  620TIP3    H2 1825   6.337   1.362   3.594 -0.3699  0.6654  0.6117
  621TIP3   OH2 1826   0.029   5.371   3.072 -0.2661 -0.1155 -0.0351
  621TIP3    H1 1827  -0.059   5.407   3.058 -0.2186 -0.2010 -0.5984
  621TIP3    H2 1828   0.088   5.444   3.049 -0.1838 -0.1525  0.0568
  622TIP3   OH2 1829   1.386   3.059   4.965 -0.1136  0.1574  0.1126
  622TIP3    H1 1830   1.344   3.022   4.886  2.1257  0.2699 -1.1982
  622TIP3    H2 1831   1.419   2.982   5.012 -3.0339 -0.0957  2.0579
  623TIP3   OH2 1832   3.587   4.462   1.981  0.4384 -0.1388 -0.2639
  623TIP3    H1 1833   3.545   4.500   1.904  0.3901  0.8149  0.2183
  623TIP3    H2 1834   3.673   4.506   1.985  1.0453 -1.2626 -0.6149
  624TIP3   OH2 1835   5.848   0.093   1.551  0.6011 -0.2236  0.0241
  624TIP3    H1 1836   5.881   0.020   1.498 -0.6155 -0.6039 -0.2317
  624TIP3    H2 1837   5.849   0.168   1.492 -1.3175 -0.7703 -0.7807
  625TIP3   OH2 1838   4.752   4.307   4.401  0.2551  0.3200  0.6995
  625TIP3    H1 1839   4.689   4.346   4.461  0.2500 -1.9905  2.3298
  625TIP3    H2 1840   4.755   4.368   4.327 -1.2613  2.2529  2.1063
  626TIP3   OH2 1841   3.064   6.658   4.630  0.2734  0.2163 -0.5699
  626TIP3    H1 1842   3.082   6.564   4.629  0.5939  0.2007  1.8271
  626TIP3    H2 1843   3.058   6.682   4.538 -1.5201 -2.4729 -1.2634
  627TIP3   OH2 1844   2.285   3.800   2.902 -0.4011  0.1212 -0.0591
  627TIP3    H1 1845   2.241   3.748   2.835 -1.0160 -1.7769  1.6935
  627TIP3    H2 1846   2.365   3.751   2.921  0.0948  0.9832  0.1511
  628TIP3   OH2 1847   6.287   3.229   1.812 -0.0003  0.5242 -0.5038
  628TIP3    H1 1848   6.330   3.274   1.740 -0.3068  1.2744 -0.2215
  628TIP3    H2 1849   6.323   3.268   1.891  0.3505 -0.3109 -0.2386
  629TIP3   OH2 1850   0.026   6.159   0.749  0.6821  0.2996  0.7519
  629TIP3    H1 1851   0.102   6.189   0.698  0.7507  0.6873  1.0824
  629TIP3    H2 1852   0.058   6.155   0.839  0.8206 -1.2556  0.6568
  630TIP3   OH2 1853   2.940   4.410   3.128 -0.3461 -0.2844 -0.5529
  630TIP3    H1 1854   2.911   4.420   3.219 -1.0916 -0.6617 -0.7410
  630TIP3    H2 1855   2.974   4.496   3.104  2.3657 -0.8344  0.9189
  631TIP3   OH2 1856   1.132   5.242   3.438  0.4024 -0.2042 -0.9553
  631TIP3    H1 1857   1.113   5.333   3.460  0.3802 -0.5882  0.7811
  631TIP3    H2 1858   1.050   5.208   3.404 -0.6324 -0.4397  1.5735
  632TIP3   OH2 1859   3.035   6.264   4.241  0.2443  0.4240  0.4084
  632TIP3    H1 1860   2.983   6.189   4.271 -0.9618  1.0149 -0.1301
  632TIP3    H2 1861   2.980   6.340   4.260  0.2064  0.9555 -1.6199
  633TIP3   OH2 1862   2.746   4.221   0.175  0.6907 -0.6026 -0.3804
  633TIP3    H1 1863   2.658   4.194   0.151  0.0807  1.0345 -0.0765
  633TIP3    H2 1864   2.803   4.170   0.117 -0.4294 -1.6784 -0.5851
  634TIP3   OH2 1865   7.188   2.177   4.990  0.1248  0.3904 -0.5546
  634TIP3    H1 1866   7.250   2.153   5.059  0.9319  1.3956 -0.9038
  634TIP3    H2 1867   7.123   2.232   5.034  0.7710  1.2300 -0.6122
  635TIP3   OH2 1868   2.207   4.056   3.959 -0.3968 -0.4219 -0.0115
  635TIP3    H1 1869   2.233   4.011   3.879 -2.4174  0.5807 -1.3155
  635TIP3    H2 1870   2.121   4.093   3.939 -0.3637  1.0241  2.1637
  636TIP3   OH2 1871   3.813   5.341   0.978 -0.1805  0.7878  0.5028
  636TIP3    H1 1872   3.815   5.437   0.979 -0.3685  0.8263 -0.6447
  636TIP3    H2 1873   3.894   5.317   0.933 -1.0192  0.4963 -0.9058
  637TIP3   OH2 1874   6.081   3.115   4.218  0.0262  0.4540  0.2004
  637TIP3    H1 1875   6.123   3.149   4.297  1.1462 -1.4539  0.5002
  637TIP3    H2 1876   6.141   3.046   4.187 -1.9245 -1.0048 -0.5212
  638TIP3   OH2 1877   3.737   5.113   4.744 -0.1203 -0.2625 -0.6651
  638TIP3    H1 1878   3.830   5.091   4.743  0.0326  0.0781  1.4485
  638TIP3    H2 1879   3.732   5.189   4.802 -1.9320 -1.4986  0.9149
  639TIP3   OH2 1880   4.544   2.176   3.069  0.2743 -0.6295  0.3992
  639TIP3    H1 1881   4.579   2.221   2.992  0.5648 -0.7555  0.4565
  639TIP3    H2 1882   4.585   2.220   3.143  1.0489 -1.3907  0.4381
  640TIP3   OH2 1883   2.360   0.381   0.516  0.4030 -0.1286 -0.1984
  640TIP3    H1 1884   2.316   0.296   0.509 -1.0458  0.6248 -0.9260
  640TIP3    H2 1885   2.315   0.435   0.451  1.6970  1.0291 -0.1613
  641TIP3   OH2 1886   6.298   3.301   5.575 -0.5722 -0.4392 -0.1088
  641TIP3    H1 1887   6.370   3.238   5.578  1.0746  1.3729  1.0536
  641TIP3    H2 1888   6.308   3.344   5.490  0.6509  0.7730  0.6155
  642TIP3   OH2 1889   5.922   2.154   5.625 -0.2361  0.6975 -0.1338
  642TIP3    H1 1890   5.926   2.192   5.713 -0.8226  1.1596 -0.3010
  642TIP3    H2 1891   5.990   2.086   5.625 -0.4723  0.4554  0.7864
  643TIP3   OH2 1892   7.103   1.006   4.539  0.4410 -0.1767 -1.2349
  643TIP3    H1 1893   7.177   0.992   4.599 -0.1342 -1.8202 -0.8661
  643TIP3    H2 1894   7.119   0.947   4.466 -1.8494 -2.7091  0.1525
  644TIP3   OH2 1895   3.433   4.699   2.105  0.6705 -0.1839 -0.0660
  644TIP3    H1 1896   3.409   4.680   2.195 -2.1152 -0.0234 -0.7032
  644TIP3    H2 1897   3.506   4.639   2.086  1.0135 -0.5161  2.1159
  645TIP3   OH2 1898   0.264   6.774   3.551 -0.0958 -0.5857  0.5854
  645TIP3    H1 1899   0.226   6.686   3.545 -1.3013 -0.0691  0.4423
  645TIP3    H2 1900   0.239   6.816   3.468 -0.1807  0.1457  0.9761
  646TIP3   OH2 1901   6.218   4.598   5.759 -0.4638  0.2278  0.1972
  646TIP3    H1 1902   6.183   4.539   5.691 -3.5245  2.1568 -0.0699
  646TIP3    H2 1903   6.234   4.541   5.834  1.0815 -1.6313 -1.4283
  647TIP3   OH2 1904   3.537   2.762   5.796  0.0040 -0.0523 -0.2057
  647TIP3    H1 1905   3.602   2.713   5.846 -1.0041 -0.1188  1.0707
  647TIP3    H2 1906   3.465   2.700   5.783 -1.1821  0.9559  1.2219
  648TIP3   OH2 1907   0.103   2.308   1.305  0.1876 -0.4961  0.4123
  648TIP3    H1 1908   0.167   2.237   1.319 -0.5654 -1.1593  0.5636
  648TIP3    H2 1909   0.019   2.268   1.325 -0.3328  0.2310 -0.2821
  649TIP3   OH2 1910   6.453   2.104   2.792 -0.7319  0.0383 -0.0175
  649TIP3    H1 1911   6.396   2.029   2.810 -0.1430 -0.0107  1.9179
  649TIP3    H2 1912   6.528   2.066   2.747 -1.4320 -0.1529 -1.0679
  650TIP3   OH2 1913   2.321   2.608   4.658 -0.2959  0.0254 -0.5037
  650TIP3    H1 1914   2.330   2.635   4.567 -0.1427 -0.3063 -0.5902
  650TIP3    H2 1915   2.374   2.670   4.707 -0.2060  0.0758 -0.6631
  651TIP3   OH2 1916   1.101   4.929   0.392 -0.0517 -0.2063 -0.0188
  651TIP3    H1 1917   1.086   5.020   0.419 -0.2885  0.0742 -1.0375
  651TIP3    H2 1918   1.196   4.917   0.402 -0.0246  0.1341  0.1793
  652TIP3   OH2 1919   6.950   0.222   2.217  0.0985  0.7988 -0.3583
  652TIP3    H1 1920   6.940   0.139   2.170 -1.0744 -0.0717  1.3511
  652TIP3    H2 1921   7.039   0.219   2.252  0.3936  0.7100 -1.0817
  653TIP3   OH2 1922   6.433   1.158   2.828 -0.4156  0.0314  0.0602
  653TIP3    H1 1923   6.470   1.232   2.780  2.0779 -1.2471 -0.1132
  653TIP3    H2 1924   6.388   1.106   2.762 -0.6805  0.4797 -0.1174
  654TIP3   OH2 1925   6.649   3.897   4.268  0.0843 -0.1803  0.1108
  654TIP3    H1 1926   6.610   3.974   4.227  0.2074 -0.3597 -0.3458
  654TIP3    H2 1927   6.717   3.932   4.326 -0.4335  0.1034  0.5559
  655TIP3   OH2 1928   5.056   3.765   5.641 -0.0402 -0.2533 -0.2788
  655TIP3    H1 1929   5.096   3.721   5.716  0.0183  0.0677 -0.1242
  655TIP3    H2 1930   5.057   3.858   5.663  1.2643  0.0028 -1.2617
  656TIP3   OH2 1931   0.810   1.500   5.247  0.2038 -0.4852  0.3040
  656TIP3    H1 1932   0.828   1.437   5.317  0.8882 -0.9969 -0.3248
  656TIP3    H2 1933   0.864   1.471   5.174  1.5495  1.5953  0.4063
  657TIP3   OH2 1934   2.931   4.346   0.422 -1.6123 -0.2817 -0.4244
  657TIP3    H1 1935   2.944   4.253   0.404 -2.0261 -0.9212  2.1009
  657TIP3    H2 1936   2.917   4.386   0.336  2.4984 -1.8120 -2.0501
  658TIP3   OH2 1937   5.636   0.196   5.246  0.4265 -0.2017 -0.2771
  658TIP3    H1 1938   5.709   0.190   5.185  1.5714  2.2756  0.7212
  658TIP3    H2 1939   5.574   0.255   5.204  1.1379  1.3751  0.7963
  659TIP3   OH2 1940   3.782   1.410   1.725  0.0808 -0.5282 -0.2632
  659TIP3    H1 1941   3.860   1.377   1.769 -1.3643 -2.9304  0.7114
  659TIP3    H2 1942   3.784   1.368   1.639  1.8841  2.6452 -1.9661
  660TIP3   OH2 1943   2.971   3.554   3.532  0.2733 -0.0576 -0.5774
  660TIP3    H1 1944   3.004   3.642   3.515 -0.3399  0.3764  0.4428
  660TIP3    H2 1945   3.023   3.523   3.606 -1.1543  0.3906  0.6396
  661TIP3   OH2 1946   0.831   0.521   5.702  0.0944 -0.0071 -0.3749
  661TIP3    H1 1947   0.897   0.471   5.749  0.5978  0.3279 -0.7185
  661TIP3    H2 1948   0.750   0.472   5.715  0.4604 -0.5642 -0.1737
  662TIP3   OH2 1949   4.415   0.609   3.552  0.2078  0.6019  0.2540
  662TIP3    H1 1950   4.478   0.661   3.602  0.8491 -1.1294  1.3188
  662TIP3    H2 1951   4.439   0.623   3.460  2.3651 -0.2133  0.6395
  663TIP3   OH2 1952   6.681   2.081   0.752  0.2398  0.0238  0.1939
  663TIP3    H1 1953   6.623   2.020   0.798  0.6227  0.2072  0.9430
  663TIP3    H2 1954   6.668   2.164   0.798  0.2164  0.3484 -0.3964
  664TIP3   OH2 1955   1.951   1.448   2.692 -0.2572  0.3120  0.4240
  664TIP3    H1 1956   1.900   1.403   2.759  1.0134  0.4052  1.4881
  664TIP3    H2 1957   1.963   1.536   2.726 -0.3819  0.6480 -0.3705
  665TIP3   OH2 1958   3.244   5.375   3.483  0.4059 -0.2369  0.1189
  665TIP3    H1 1959   3.257   5.418   3.398  2.8389 -0.4902  0.2981
  665TIP3    H2 1960   3.268   5.284   3.467 -3.0050 -1.2750  0.1757
  666TIP3   OH2 1961   1.636   4.104   2.549 -0.3500 -0.1108  0.4338
  666TIP3    H1 1962   1.635   4.164   2.474  2.1970  1.0392  1.2055
  666TIP3    H2 1963   1.660   4.020   2.512  0.7201  0.4093 -0.1056
  667TIP3   OH2 1964   2.913   3.589   2.118 -0.3119  0.0034 -0.2148
  667TIP3    H1 1965   2.856   3.666   2.106 -0.0243  0.3979  0.7995
  667TIP3    H2 1966   3.002   3.624   2.114 -0.1773  0.0201  1.7484
  668TIP3   OH2 1967   3.688   1.195   1.531  0.2926  0.1224  0.7021
  668TIP3    H1 1968   3.649   1.198   1.444 -0.3246  2.5045  0.9950
  668TIP3    H2 1969   3.640   1.125   1.576  1.6847 -2.2244 -1.2619
  669TIP3   OH2 1970   2.386   1.797   2.165  0.4144  0.2730  0.1337
  669TIP3    H1 1971   2.314   1.739   2.193  1.4157 -1.5345 -0.8242
  669TIP3    H2 1972   2.368   1.814   2.072  2.2434 -1.9871 -0.7427
  670TIP3   OH2 1973   3.855   4.686   4.367  0.2757 -0.6619 -0.1565
  670TIP3    H1 1974   3.776   4.720   4.325 -0.1844 -1.3772  0.1084
  670TIP3    H2 1975   3.927   4.738   4.330 -0.3806  0.4763  0.1090
  671TIP3   OH2 1976   3.356   6.363   3.420  0.2070 -0.4707  0.2613
  671TIP3    H1 1977   3.314   6.420   3.484  1.0441  0.8505 -0.3252
  671TIP3    H2 1978   3.320   6.276   3.438 -0.8542  0.1726  1.3941
  672TIP3   OH2 1979   6.516   2.211   1.553 -0.4158 -0.5129  0.2937
  672TIP3    H1 1980   6.483   2.297   1.527  1.7741  0.4559  0.5125
  672TIP3    H2 1981   6.456   2.182   1.622  0.5322  2.2888  2.4725
  673TIP3   OH2 1982   6.072   6.525   1.916  0.9540  0.5273 -0.3737
  673TIP3    H1 1983   5.978   6.533   1.935  0.9676  0.0271 -0.0938
  673TIP3    H2 1984   6.076   6.469   1.839  0.9231  2.1832 -1.6368
  674TIP3   OH2 1985   1.507   1.382   2.246 -0.4128  0.1859  0.1206
  674TIP3    H1 1986   1.456   1.428   2.312 -0.5468  1.7035 -0.9824
  674TIP3    H2 1987   1.512   1.292   2.278 -0.2828  0.9033  2.2747
  675TIP3   OH2 1988   1.538   5.524   5.811 -0.5029  0.1316  0.4043
  675TIP3    H1 1989   1.472   5.528   5.880 -0.8225  0.3682  0.0837
  675TIP3    H2 1990   1.523   5.601   5.757 -1.2161 -0.8143 -0.8011
  676TIP3   OH2 1991   4.016   5.707   1.822 -0.1143 -0.0718  0.0356
  676TIP3    H1 1992   4.015   5.779   1.885  0.2760 -0.2304  0.2232
  676TIP3    H2 1993   4.105   5.704   1.789 -0.4037  0.2234 -0.7767
  677TIP3   OH2 1994   5.325   5.607   0.208 -0.2952 -0.2671 -0.7270
  677TIP3    H1 1995   5.264   5.604   0.134  0.4718 -0.7477 -1.3687
  677TIP3    H2 1996   5.298   5.682   0.259 -3.0797 -1.9301  0.4787
  678TIP3   OH2 1997   1.318   1.957   3.508  0.5602 -0.3870  0.3114
  678TIP3    H1 1998   1.369   2.037   3.524  0.9488 -0.8586  1.4824
  678TIP3    H2 1999   1.378   1.901   3.458 -0.0003  0.3421 -1.2658
  679TIP3   OH2 2000   1.077   2.105   4.353  0.1772 -0.5110  0.2339
  679TIP3    H1 2001   1.039   2.019   4.370 -0.4975 -0.1076  0.7979
  679TIP3    H2 2002   1.120   2.096   4.268 -0.8421 -1.0827 -0.2281
  680TIP3   OH2 2003   3.625   3.614   5.639 -0.1501  0.4922  0.6916
  680TIP3    H1 2004   3.630   3.703   5.603 -0.0207  1.0138  1.9538
  680TIP3    H2 2005   3.640   3.557   5.563  0.5940  1.5542  0.0009
  681TIP3   OH2 2006   1.741   3.320   1.474  0.3290  0.5572  0.0545
  681TIP3    H1 2007   1.671   3.262   1.446  1.2153 -2.2765  3.0998
  681TIP3    H2 2008   1.700   3.382   1.534  0.1480  0.0853  0.4128
  682TIP3   OH2 2009   6.756   2.808   5.430  0.1151  0.2206 -0.0777
  682TIP3    H1 2010   6.774   2.838   5.519 -1.2570  0.3115  0.1902
  682TIP3    H2 2011   6.682   2.861   5.402 -0.7093 -1.1299 -0.5543
  683TIP3   OH2 2012   1.046   0.353   4.114 -0.0480 -0.0451  0.1516
  683TIP3    H1 2013   1.137   0.330   4.098  0.0623 -0.0067  0.6943
  683TIP3    H2 2014   1.045   0.386   4.204 -0.1355  2.3628 -0.6633
  684TIP3   OH2 2015   5.555   1.295   1.089 -0.0401  0.4532  0.3719
  684TIP3    H1 2016   5.470   1.324   1.122  0.6119  0.7389  1.8672
  684TIP3    H2 2017   5.539   1.208   1.054 -1.2404  1.0694 -0.7367
  685TIP3   OH2 2018   5.922   0.615   3.939  0.2770  0.0809 -0.0201
  685TIP3    H1 2019   5.857   0.686   3.945 -0.7915 -0.8954  0.3943
  685TIP3    H2 2020   5.959   0.625   3.851 -0.7774  0.3972 -0.4508
  686TIP3   OH2 2021   4.468   1.058   5.705 -0.0195  0.5718 -0.3632
  686TIP3    H1 2022   4.553   1.082   5.668  1.0718 -1.7544  0.3823
  686TIP3    H2 2023   4.411   1.048   5.629  0.7237  0.9395 -0.9934
  687TIP3   OH2 2024   2.608   0.800   0.499 -0.4946  0.2972  0.1317
  687TIP3    H1 2025   2.632   0.727   0.556 -2.6691 -1.8243 -1.4562
  687TIP3    H2 2026   2.550   0.853   0.553 -1.0248 -0.6329  0.5139
  688TIP3   OH2 2027   3.468   3.874   5.775  0.7486  0.2285  0.5164
  688TIP3    H1 2028   3.472   3.802   5.837 -0.2164 -0.2287  0.0732
  688TIP3    H2 2029   3.443   3.950   5.827 -0.7935 -0.3016  0.5889
  689TIP3   OH2 2030   6.916   6.140   0.921 -0.1330 -0.8715  0.0409
  689TIP3    H1 2031   6.947   6.181   1.002 -2.7766 -1.2391  1.3496
  689TIP3    H2 2032   6.971   6.063   0.911  0.5715 -0.5426  1.2275
  690TIP3   OH2 2033   4.250   4.369   0.946  0.7641  0.1352 -0.6707
  690TIP3    H1 2034   4.275   4.292   0.997  1.5800  0.0088 -1.2347
  690TIP3    H2 2035   4.282   4.351   0.857 -0.2826  0.5172 -1.1424
  691TIP3   OH2 2036   6.999   2.328   1.157 -0.1256 -0.1424 -0.6697
  691TIP3    H1 2037   6.989   2.372   1.073 -0.3881 -2.3301 -1.8447
  691TIP3    H2 2038   7.023   2.238   1.135  1.8222 -0.2917  1.6494
  692TIP3   OH2 2039   4.996   3.020   0.423 -0.0887  0.2371 -0.3987
  692TIP3    H1 2040   4.979   2.986   0.510 -0.4511  0.0817 -0.5272
  692TIP3    H2 2041   4.986   3.115   0.432 -0.0209  0.2288 -0.2464
  693TIP3   OH2 2042   0.669   1.052   0.347  0.7518  0.4509 -0.4297
  693TIP3    H1 2043   0.727   0.989   0.305  1.5397  1.2605 -0.5958
  693TIP3    H2 2044   0.581   1.014   0.338  0.8870  0.5496 -2.7374
  694TIP3   OH2 2045   6.450   5.853   3.929 -0.1570  0.2082  0.3051
  694TIP3    H1 2046   6.513   5.795   3.886 -1.6972 -0.7846 -0.6845
  694TIP3    H2 2047   6.505   5.914   3.978  1.5782 -0.6784 -0.4207
  695TIP3   OH2 2048   4.125   0.969   2.571  0.1377  0.0657 -0.8537
  695TIP3    H1 2049   4.210   1.013   2.578  0.8149 -0.8594 -2.6068
  695TIP3    H2 2050   4.073   1.025   2.513 -0.4418  0.5717  0.1256
  696TIP3   OH2 2051   4.273   2.505   4.336 -0.6689  0.2333 -0.0411
  696TIP3    H1 2052   4.272   2.410   4.346 -1.7287 -0.0793 -2.4523
  696TIP3    H2 2053   4.181   2.531   4.344 -0.3304  1.1543  1.1070
  697TIP3   OH2 2054   4.805   0.503   4.569 -0.0871  0.0434 -0.1366
  697TIP3    H1 2055   4.750   0.489   4.646  1.1586  0.5960  0.8758
  697TIP3    H2 2056   4.776   0.436   4.507 -1.8615  0.2985  0.3773
  698TIP3   OH2 2057   2.074   0.950   4.711  0.0729  0.0910  0.5414
  698TIP3    H1 2058   2.144   0.890   4.735  1.4735  0.7382 -1.6654
  698TIP3    H2 2059   2.105   1.036   4.740  1.3959  0.7479 -2.4569
  699TIP3   OH2 2060   2.850   1.409   1.306  0.5746 -0.1760  0.2247
  699TIP3    H1 2061   2.772   1.429   1.254  1.2486 -0.9461 -1.1425
  699TIP3    H2 2062   2.817   1.355   1.378 -0.3689  0.7932  0.5414
  700TIP3   OH2 2063   4.103   4.201   4.475 -0.3829  0.2817  0.0761
  700TIP3    H1 2064   4.038   4.132   4.486  0.3871 -0.6979 -1.1850
  700TIP3    H2 2065   4.183   4.165   4.513  0.1778  0.2036 -1.1187
  701TIP3   OH2 2066   3.723   2.128   4.821 -0.3564  0.0277  0.7459
  701TIP3    H1 2067   3.783   2.189   4.863 -1.1395  1.7548 -0.5621
  701TIP3    H2 2068   3.636   2.163   4.839 -0.7449  0.7776 -2.0930
  702TIP3   OH2 2069   6.381   1.366   0.123 -0.4111  0.0318 -0.1269
  702TIP3    H1 2070   6.424   1.435   0.173 -0.7579  0.5198 -0.4851
  702TIP3    H2 2071   6.299   1.406   0.094 -0.7639 -0.6425 -0.0660
  703TIP3   OH2 2072   0.208   1.037   0.568  0.6366  0.1583 -0.0913
  703TIP3    H1 2073   0.138   0.999   0.513 -0.0768 -0.8449  1.4471
  703TIP3    H2 2074   0.206   0.985   0.648  0.3996  2.7437  1.6875
  704TIP3   OH2 2075   0.827   5.041   0.785 -0.2836 -0.3533 -0.0043
  704TIP3    H1 2076   0.855   4.960   0.826 -1.3323  0.4704  2.5028
  704TIP3    H2 2077   0.796   5.014   0.698  1.4247 -2.2594 -0.0933
  705TIP3   OH2 2078   0.658   1.720   5.133 -0.0251 -0.0439  0.2632
  705TIP3    H1 2079   0.702   1.642   5.166 -0.5830 -0.4740  0.0160
  705TIP3    H2 2080   0.565   1.707   5.155  0.1359  1.6089  2.2759
  706TIP3   OH2 2081   2.220   3.732   1.830 -0.6271  0.4835 -0.1077
  706TIP3    H1 2082   2.290   3.797   1.821  0.9725 -0.6710  2.6364
  706TIP3    H2 2083   2.238   3.667   1.762  0.3265  0.7547 -0.1276
  707TIP3   OH2 2084   5.563   0.158   1.367 -0.5615  0.1634 -0.1287
  707TIP3    H1 2085   5.588   0.187   1.455 -0.2656  1.3197 -0.5742
  707TIP3    H2 2086   5.647   0.138   1.325 -0.5454  1.2857 -0.6881
  708TIP3   OH2 2087   1.350   1.870   0.691  0.1595  0.4744 -0.4156
  708TIP3    H1 2088   1.380   1.808   0.625  0.4727  0.9969 -0.7713
  708TIP3    H2 2089   1.274   1.828   0.731  1.6595 -1.1380  0.8871
  709TIP3   OH2 2090   5.899   5.913   5.220  0.0608 -0.6400  0.3434
  709TIP3    H1 2091   5.881   5.873   5.305  0.5193 -1.0582  0.2509
  709TIP3    H2 2092   5.812   5.927   5.180 -0.2458  0.8764  1.4543
  710TIP3   OH2 2093   2.756   4.446   2.350  0.6949 -0.0224 -0.1184
  710TIP3    H1 2094   2.679   4.453   2.293  0.6730 -0.5875 -0.1609
  710TIP3    H2 2095   2.820   4.505   2.311  1.6064 -2.2513 -2.2323
  711TIP3   OH2 2096   3.223   5.374   1.490 -0.6636  0.1500 -0.0728
  711TIP3    H1 2097   3.258   5.320   1.561 -1.7638  0.4745  0.7482
  711TIP3    H2 2098   3.295   5.432   1.466  0.4916 -1.5191 -0.8486
  712TIP3   OH2 2099   2.616   5.124   4.319  0.2149 -0.4777  0.2293
  712TIP3    H1 2100   2.551   5.083   4.377  0.7165 -0.0994  1.0756
  712TIP3    H2 2101   2.700   5.087   4.348  0.4865 -0.1521 -0.1435
  713TIP3   OH2 2102   3.548   0.551   0.633  0.4661 -0.1011  0.6176
  713TIP3    H1 2103   3.632   0.524   0.669  1.1151 -0.8155 -1.2881
  713TIP3    H2 2104   3.494   0.472   0.636 -0.0754  0.2923  1.6101
  714TIP3   OH2 2105   5.417   4.376   4.183  0.3164  0.6342  0.5278
  714TIP3    H1 2106   5.374   4.446   4.133  0.0032  0.5996  0.7423
  714TIP3    H2 2107   5.474   4.422   4.244  0.4647  0.6864  0.3521
  715TIP3   OH2 2108   1.856   2.475   5.086 -0.3062 -0.2959  0.6056
  715TIP3    H1 2109   1.803   2.547   5.121 -1.2641 -0.5421 -0.2858
  715TIP3    H2 2110   1.874   2.500   4.996  3.7575  1.2492  1.6224
  716TIP3   OH2 2111   1.790   2.605   0.713  0.1568 -0.1269 -0.3450
  716TIP3    H1 2112   1.697   2.607   0.694  0.1700 -0.4275 -0.4508
  716TIP3    H2 2113   1.795   2.600   0.809  0.0622 -0.2214 -0.3445
  717TIP3   OH2 2114   1.933   6.163   0.032 -0.0560  0.5410 -0.5850
  717TIP3    H1 2115   1.971   6.076   0.046  0.3305  0.2748 -2.9998
  717TIP3    H2 2116   1.989   6.221   0.083 -0.6178 -0.6162  1.4950
  718TIP3   OH2 2117   5.384   4.081   5.393 -0.7741 -0.1899 -0.4434
  718TIP3    H1 2118   5.291   4.067   5.376 -1.0485  1.3824 -0.3956
  718TIP3    H2 2119   5.386   4.153   5.457  0.4912  0.6366 -1.3666
  719TIP3   OH2 2120   0.603   0.383   2.160 -0.4467 -0.2812  0.5067
  719TIP3    H1 2121   0.521   0.354   2.119 -1.2090  1.4740  0.7124
  719TIP3    H2 2122   0.594   0.478   2.169  0.2823 -0.3803  3.4111
  720TIP3   OH2 2123   1.561   4.426   1.319 -0.2944 -0.1601 -0.3028
  720TIP3    H1 2124   1.604   4.490   1.262 -1.7785  1.6198  0.4367
  720TIP3    H2 2125   1.602   4.343   1.298  0.9986  0.8603 -2.0928
  721TIP3   OH2 2126   3.995   3.736   1.713  0.1125  0.0337 -0.4521
  721TIP3    H1 2127   4.084   3.719   1.743 -0.0224 -0.6407 -0.4060
  721TIP3    H2 2128   3.995   3.828   1.686  0.9635 -0.0958 -0.9322
  722TIP3   OH2 2129   6.019   5.485   2.126  0.3670 -0.3811 -0.1762
  722TIP3    H1 2130   5.982   5.482   2.037 -0.1349 -2.3457  0.0501
  722TIP3    H2 2131   6.095   5.427   2.122  0.5185 -0.2482  0.6259
  723TIP3   OH2 2132   2.440   5.804   3.051 -0.1445 -0.2205  0.8913
  723TIP3    H1 2133   2.444   5.859   3.130 -2.8525  1.5186 -0.0257
  723TIP3    H2 2134   2.372   5.740   3.070 -0.2621 -0.2819  0.2724
  724TIP3   OH2 2135   0.499   4.066   2.903  0.4173 -0.1340  0.1779
  724TIP3    H1 2136   0.567   4.089   2.966  2.2456  0.6061 -1.9286
  724TIP3    H2 2137   0.539   4.083   2.818 -2.2079 -0.3437 -1.1860
  725TIP3   OH2 2138   6.396   3.962   0.091 -0.3779 -0.4730 -0.7485
  725TIP3    H1 2139   6.361   3.981   0.178  1.3859 -0.6805  0.0540
  725TIP3    H2 2140   6.437   4.044   0.063  1.7797 -1.2202  0.0148
  726TIP3   OH2 2141   5.271   2.647   4.283 -0.0434  0.4650 -0.3432
  726TIP3    H1 2142   5.341   2.701   4.245  0.3287 -1.4387 -2.5360
  726TIP3    H2 2143   5.286   2.559   4.249 -3.4725 -0.0716 -0.8348
  727TIP3   OH2 2144   5.552   3.620   2.017  0.2821 -0.1284  0.5330
  727TIP3    H1 2145   5.496   3.659   2.084  1.0483 -0.4848  1.4012
  727TIP3    H2 2146   5.535   3.526   2.024 -0.0353 -0.1222 -0.1438
  728TIP3   OH2 2147   0.429   6.401   2.619 -0.8001  0.0913 -0.0817
  728TIP3    H1 2148   0.447   6.308   2.605  0.5971  0.1906  0.8506
  728TIP3    H2 2149   0.435   6.440   2.531 -1.1637 -0.6514 -0.4451
  729TIP3   OH2 2150   3.381   3.500   4.344  0.1323  0.0235  0.5067
  729TIP3    H1 2151   3.388   3.596   4.350 -1.7012  0.1636  0.9092
  729TIP3    H2 2152   3.343   3.484   4.258 -0.8609 -0.2517  0.9893
  730TIP3   OH2 2153   3.466   5.490   1.350  0.3936  0.3186 -0.6274
  730TIP3    H1 2154   3.478   5.494   1.255  1.6112  0.6241 -0.4745
  730TIP3    H2 2155   3.428   5.575   1.372  1.4481  0.8181 -0.6778
  731TIP3   OH2 2156   3.849   0.021   4.411  0.2363 -0.4999 -0.4558
  731TIP3    H1 2157   3.825   0.106   4.374 -1.1406 -0.1638  1.0428
  731TIP3    H2 2158   3.859   0.039   4.505  2.2230 -1.5614 -0.4196
  732TIP3   OH2 2159   0.100   0.865   4.781  0.0650 -0.0009  0.5901
  732TIP3    H1 2160   0.089   0.959   4.795 -0.2755 -0.2268  1.9448
  732TIP3    H2 2161   0.100   0.827   4.869  0.3086 -1.2603  0.0677
  733TIP3   OH2 2162   6.945   3.562   1.896  0.0010 -0.4670  0.0478
  733TIP3    H1 2163   6.995   3.643   1.886  0.1227 -0.7251 -1.8862
  733TIP3    H2 2164   6.909   3.566   1.985  0.9408  1.1571  0.3881
  734TIP3   OH2 2165   5.640   5.770   3.959 -0.2686  0.1542 -0.0997
  734TIP3    H1 2166   5.570   5.769   3.892 -2.5079 -1.7123  2.0634
  734TIP3    H2 2167   5.602   5.819   4.032  2.1229  2.1473 -0.0762
  735TIP3   OH2 2168   1.634   2.966   1.344 -0.1370 -0.6780  0.2972
  735TIP3    H1 2169   1.631   2.905   1.270  0.6306  0.2314 -0.4970
  735TIP3    H2 2170   1.656   2.911   1.419 -1.7527 -1.7525  0.0327
  736TIP3   OH2 2171   5.233   2.856   1.206  0.1138  0.5061 -0.5014
  736TIP3    H1 2172   5.206   2.929   1.261 -1.9986 -1.1406  0.8098
  736TIP3    H2 2173   5.306   2.815   1.254  2.2254  2.3972 -1.8906
  737TIP3   OH2 2174   1.140   1.514   5.442 -0.6665  0.4274 -0.5690
  737TIP3    H1 2175   1.123   1.451   5.372 -0.6896 -1.2462  0.8630
  737TIP3    H2 2176   1.217   1.562   5.413  0.9073 -1.9560 -0.6873
  738TIP3   OH2 2177   4.624   0.607   0.104 -0.3426  0.7939 -0.1329
  738TIP3    H1 2178   4.636   0.700   0.084  0.3900  0.8266  0.4298
  738TIP3    H2 2179   4.711   0.576   0.130 -1.3703  1.1162  4.5774
  739TIP3   OH2 2180   5.579   0.546   1.904  0.6724  0.2948  0.3375
  739TIP3    H1 2181   5.561   0.638   1.886  1.8827  0.8909  1.9099
  739TIP3    H2 2182   5.512   0.519   1.967  0.3519  0.1138 -0.0797
  740TIP3   OH2 2183   3.979   1.849   3.713  0.4883 -0.1690  0.0666
  740TIP3    H1 2184   3.904   1.898   3.680  0.8449  0.6097  0.3929
  740TIP3    H2 2185   4.026   1.821   3.635  1.4532  1.8550 -0.1374
  741TIP3   OH2 2186   4.983   4.561   0.162  0.4315 -0.3360 -0.0405
  741TIP3    H1 2187   5.031   4.563   0.244 -1.5490 -0.4803  1.1879
  741TIP3    H2 2188   4.895   4.593   0.185  0.0298  0.3019 -2.2390
  742TIP3   OH2 2189   5.512   5.793   4.415  0.0192  0.7591 -0.1413
  742TIP3    H1 2190   5.421   5.791   4.385 -0.2693 -2.0469  0.6370
  742TIP3    H2 2191   5.509   5.843   4.496 -0.9080  0.4563  0.0249
  743TIP3   OH2 2192   4.296   3.858   4.863  1.0090  0.5360  0.0454
  743TIP3    H1 2193   4.373   3.910   4.838  0.7454 -0.0383 -2.1719
  743TIP3    H2 2194   4.246   3.850   4.782 -0.0060 -1.4355  0.8122
  744TIP3   OH2 2195   4.430   0.777   2.766  0.7458 -0.2921  0.3976
  744TIP3    H1 2196   4.397   0.736   2.686  0.8951  0.8087 -0.2422
  744TIP3    H2 2197   4.354   0.778   2.825  0.7217 -1.4094  0.4184
  745TIP3   OH2 2198   6.230   1.847   4.328 -0.1037 -0.2823 -0.5234
  745TIP3    H1 2199   6.235   1.858   4.423 -1.4769  1.3810 -0.5858
  745TIP3    H2 2200   6.292   1.911   4.293 -0.9128  0.4143 -0.7395
  746TIP3   OH2 2201   4.389   2.789   4.455  0.9324  0.3480 -0.7081
  746TIP3    H1 2202   4.413   2.842   4.378  1.4470  0.1957 -0.6569
  746TIP3    H2 2203   4.345   2.713   4.418 -2.6121  2.1797 -0.6626
  747TIP3   OH2 2204   7.099   2.682   0.875 -0.3143 -0.2021  0.2543
  747TIP3    H1 2205   7.151   2.602   0.883  3.5952  1.5533 -3.5948
  747TIP3    H2 2206   7.136   2.741   0.940  0.3698  0.0222 -0.3241
  748TIP3   OH2 2207   3.701   3.182   5.696  0.7516  0.1478 -0.2430
  748TIP3    H1 2208   3.708   3.158   5.788 -0.4458  0.3669 -0.0807
  748TIP3    H2 2209   3.633   3.250   5.693 -1.2678 -1.8036 -1.6110
  749TIP3   OH2 2210   1.243   1.641   3.915 -0.0034 -0.2024  0.1979
  749TIP3    H1 2211   1.236   1.586   3.993 -3.2295  1.3982  1.2221
  749TIP3    H2 2212   1.176   1.709   3.927  0.7497  1.3339 -3.0386
  750TIP3   OH2 2213   2.676   1.504   5.577 -0.4125 -0.3272 -0.1478
  750TIP3    H1 2214   2.700   1.571   5.642  1.3063 -1.0554  0.0277
  750TIP3    H2 2215   2.744   1.437   5.586 -1.3848 -1.4958 -1.2000
  751TIP3   OH2 2216   0.578   4.691   1.132  0.2215 -0.2128  0.0316
  751TIP3    H1 2217   0.557   4.624   1.068  0.6928  1.4811 -2.0053
  751TIP3    H2 2218   0.673   4.705   1.122  0.3242  0.0175  1.1705
  752TIP3   OH2 2219   4.712   1.970   4.969  0.2431 -0.5027 -0.0814
  752TIP3    H1 2220   4.738   2.037   5.033 -0.5224 -1.1279  0.9248
  752TIP3    H2 2221   4.696   2.018   4.889  0.4020  0.4268  0.4297
  753TIP3   OH2 2222   5.966   4.408   3.078  0.0059 -0.1783 -0.2258
  753TIP3    H1 2223   5.974   4.365   3.163 -1.1801 -1.3263 -0.6587
  753TIP3    H2 2224   5.962   4.336   3.015  1.9597  0.6519 -1.4036
  754TIP3   OH2 2225   1.192   2.936   4.733  0.2006 -0.2693  0.5384
  754TIP3    H1 2226   1.170   2.931   4.640  1.7874 -0.5313  0.1373
  754TIP3    H2 2227   1.230   2.850   4.752  0.6572  0.0713  1.2035
  755TIP3   OH2 2228   6.511   0.552   2.009  0.2546 -0.7587  0.3425
  755TIP3    H1 2229   6.546   0.571   2.096 -0.6188 -0.5053  0.6461
  755TIP3    H2 2230   6.444   0.484   2.024 -0.6028 -0.0057  0.0085
  756TIP3   OH2 2231   1.739   5.049   0.291  0.1491  0.2467 -0.0802
  756TIP3    H1 2232   1.736   4.959   0.259  0.0309  0.0464  0.4647
  756TIP3    H2 2233   1.832   5.072   0.290 -0.0198  1.0657 -2.7063
  757TIP3   OH2 2234   1.370   4.309   1.517 -0.5547  0.1911 -0.1793
  757TIP3    H1 2235   1.416   4.393   1.519 -1.0270  0.4560 -0.3230
  757TIP3    H2 2236   1.402   4.266   1.439 -0.8206  0.5334 -0.4814
  758TIP3   OH2 2237   2.078   2.599   1.241 -0.3523  0.4762 -0.1455
  758TIP3    H1 2238   2.096   2.685   1.279 -2.0320  0.9793 -0.3969
  758TIP3    H2 2239   2.100   2.538   1.311 -2.3536  1.3333  1.3337
  759TIP3   OH2 2240   3.324   2.248   0.475 -0.2072 -0.5479 -0.2228
  759TIP3    H1 2241   3.418   2.247   0.456 -0.0618 -0.1014  0.4079
  759TIP3    H2 2242   3.283   2.209   0.398  0.5030 -0.8454 -0.4603
  760TIP3   OH2 2243   7.189   1.781   1.452 -0.1818 -0.3361 -0.5369
  760TIP3    H1 2244   7.116   1.748   1.505  0.0836  0.8847  0.6390
  760TIP3    H2 2245   7.149   1.809   1.370 -1.4981  2.5196  0.9512
  761TIP3   OH2 2246   2.669   4.797   4.143  0.2096  0.2869  0.7243
  761TIP3    H1 2247   2.725   4.871   4.166  1.0319  0.3327 -1.1929
  761TIP3    H2 2248   2.662   4.801   4.048 -0.2770 -1.7047  0.6257
  762TIP3   OH2 2249   4.432   4.663   5.016  0.4703 -0.3379  0.2350
  762TIP3    H1 2250   4.391   4.629   4.937  1.9040 -0.0945 -0.6436
  762TIP3    H2 2251   4.403   4.604   5.086  0.3234 -1.3980 -0.7004
  763TIP3   OH2 2252   3.268   4.477   1.338  0.0077 -0.3538  0.1440
  763TIP3    H1 2253   3.314   4.531   1.273  1.8326  0.1148  1.7250
  763TIP3    H2 2254   3.242   4.398   1.290 -0.7126  0.9389 -1.6695
  764TIP3   OH2 2255   7.100   5.458   1.206 -0.4981 -0.6588 -0.4502
  764TIP3    H1 2256   7.093   5.492   1.117  0.5039  0.3393 -0.1698
  764TIP3    H2 2257   7.060   5.371   1.202 -0.5772 -0.5791 -1.8339
  765TIP3   OH2 2258   2.577   5.869   5.059 -0.9599 -0.1766  0.5231
  765TIP3    H1 2259   2.654   5.863   5.115 -1.5065 -1.0862  1.2123
  765TIP3    H2 2260   2.579   5.789   5.006 -0.7836  0.3789 -0.3324
  766TIP3   OH2 2261   5.204   4.043   2.531 -0.3518  0.1977  0.4456
  766TIP3    H1 2262   5.257   4.038   2.610  0.4753 -1.5318 -0.1687
  766TIP3    H2 2263   5.143   3.970   2.539  1.7827 -2.0372 -1.8476
  767TIP3   OH2 2264   4.335   2.672   0.711  0.5638  0.3140  0.4340
  767TIP3    H1 2265   4.247   2.707   0.728  0.5709  1.0741 -0.9554
  767TIP3    H2 2266   4.357   2.624   0.791 -1.9417 -1.6461  0.0946
  768TIP3   OH2 2267   5.202   5.375   3.724  0.4885  0.0303 -0.1062
  768TIP3    H1 2268   5.178   5.395   3.814  1.4644  2.1971 -0.2380
  768TIP3    H2 2269   5.119   5.364   3.678 -0.0331 -3.3267  1.3962
  769TIP3   OH2 2270   6.298   3.663   5.564 -0.4736  0.2436 -0.1734
  769TIP3    H1 2271   6.379   3.612   5.573 -0.0693  0.8461 -0.3866
  769TIP3    H2 2272   6.228   3.600   5.584  0.0819 -0.0698  0.8768
  770TIP3   OH2 2273   5.269   2.601   3.637 -0.4793  0.1272  0.0069
  770TIP3    H1 2274   5.228   2.651   3.708 -1.2166  0.3347 -0.5460
  770TIP3    H2 2275   5.276   2.664   3.565 -0.1936 -0.2161 -0.2699
  771TIP3   OH2 2276   6.729   5.615   4.417 -0.0068 -0.1495 -0.0796
  771TIP3    H1 2277   6.781   5.546   4.457 -0.1372 -0.3951 -0.3319
  771TIP3    H2 2278   6.792   5.682   4.392  0.1736 -0.3880 -0.2676
  772TIP3   OH2 2279   5.195   3.912   1.594 -0.5807 -0.0921 -0.3260
  772TIP3    H1 2280   5.281   3.869   1.599  0.1228  1.4010  2.7891
  772TIP3    H2 2281   5.134   3.846   1.627 -0.1455 -0.1516  0.3929
  773TIP3   OH2 2282   3.269   5.698   4.191 -0.4439 -0.9547  0.5002
  773TIP3    H1 2283   3.326   5.636   4.146  0.4981  1.4626 -1.8866
  773TIP3    H2 2284   3.184   5.689   4.147 -0.0368  0.0627 -0.5510
  774TIP3   OH2 2285   0.758   6.270   1.343 -0.3960 -0.4132  0.1195
  774TIP3    H1 2286   0.675   6.308   1.315 -0.7143 -1.7279 -0.7957
  774TIP3    H2 2287   0.804   6.250   1.262  0.7081  0.0146  0.6126
  775TIP3   OH2 2288   1.503   1.293   4.710  0.2616 -0.4169  1.1981
  775TIP3    H1 2289   1.489   1.250   4.795 -0.6427 -1.0715  0.7373
  775TIP3    H2 2290   1.568   1.238   4.666 -0.6695 -1.1728  0.7306
  776TIP3   OH2 2291   6.656   2.291   1.248 -0.0180 -0.0108 -0.0257
  776TIP3    H1 2292   6.572   2.335   1.263  0.2328  1.6114 -2.7281
  776TIP3    H2 2293   6.720   2.351   1.285  0.0522 -0.3588  0.4114
  777TIP3   OH2 2294   5.514   5.505   4.386 -0.0301  0.1058  0.2064
  777TIP3    H1 2295   5.539   5.587   4.429 -2.6473  0.1868  1.7557
  777TIP3    H2 2296   5.446   5.531   4.323  1.8128 -0.4275 -2.1930
  778TIP3   OH2 2297   2.536   1.512   3.340  0.8436 -0.2142 -0.0813
  778TIP3    H1 2298   2.507   1.421   3.339  0.9931 -0.3341  2.0000
  778TIP3    H2 2299   2.630   1.507   3.356  0.8869  0.3116 -0.1459
  779TIP3   OH2 2300   4.794   5.186   5.002 -0.5772 -0.1445 -0.3103
  779TIP3    H1 2301   4.849   5.137   5.063 -0.9163 -2.6173 -1.8379
  779TIP3    H2 2302   4.709   5.193   5.046 -0.6604 -1.4132 -0.2341
  780TIP3   OH2 2303   5.830   2.060   4.562 -0.1832  0.2668 -0.1323
  780TIP3    H1 2304   5.926   2.067   4.560 -0.2587  1.4799 -0.5150
  780TIP3    H2 2305   5.804   2.067   4.470 -0.4069 -5.3953 -0.8617
  781TIP3   OH2 2306   5.164   3.203   0.902 -0.2641 -0.3975  0.9929
  781TIP3    H1 2307   5.181   3.190   0.995  0.1189 -0.6945  0.8827
  781TIP3    H2 2308   5.228   3.148   0.857 -0.4128 -0.2195  0.5508
  782TIP3   OH2 2309   5.989   5.250   1.686 -0.2595  0.7808 -0.2450
  782TIP3    H1 2310   5.916   5.196   1.717 -0.2422  1.2479  0.6333
  782TIP3    H2 2311   5.970   5.338   1.719  0.3979  1.0386 -0.5242
  783TIP3   OH2 2312   2.261   0.179   0.164 -0.5542 -0.2666 -0.3355
  783TIP3    H1 2313   2.272   0.239   0.090  2.1490  0.6610  0.6924
  783TIP3    H2 2314   2.207   0.226   0.227  1.9319  1.4589  0.6694
  784TIP3   OH2 2315   3.748   1.256   1.116 -0.3339  0.2531  0.3759
  784TIP3    H1 2316   3.801   1.232   1.040  0.1645  0.2593  0.7104
  784TIP3    H2 2317   3.659   1.267   1.082  0.1986  2.0963 -0.5686
  785TIP3   OH2 2318   2.796   4.005   5.639 -0.2890 -0.8468  0.0737
  785TIP3    H1 2319   2.838   3.954   5.708  0.3252  2.3974  2.3112
  785TIP3    H2 2320   2.705   3.975   5.639 -0.2884 -1.0392  2.2677
  786TIP3   OH2 2321   0.259   5.588   5.620 -0.3907 -0.3630 -0.3695
  786TIP3    H1 2322   0.207   5.613   5.543 -0.3319 -0.1719 -0.3488
  786TIP3    H2 2323   0.255   5.493   5.622  0.2683 -0.4160 -1.0779
  787TIP3   OH2 2324   2.200   5.127   1.834 -1.0097  0.3370  0.0054
  787TIP3    H1 2325   2.167   5.212   1.864 -2.3444 -0.2002  0.1297
  787TIP3    H2 2326   2.156   5.063   1.890  2.1119 -0.3793  1.9139
  788TIP3   OH2 2327   1.414   3.247   2.703  0.1859  0.0663 -0.0103
  788TIP3    H1 2328   1.492   3.233   2.757  1.1684 -0.0701 -1.4238
  788TIP3    H2 2329   1.402   3.164   2.656  0.1310  0.6156 -0.9887
  789TIP3   OH2 2330   5.696   2.988   0.975 -0.1265  0.1781 -0.2722
  789TIP3    H1 2331   5.620   2.936   0.949  0.8301 -2.5182  1.8407
  789TIP3    H2 2332   5.735   3.017   0.893 -2.8385  0.8195 -1.4302
  790TIP3   OH2 2333   4.312   2.081   4.619  0.2372 -0.0850  0.2141
  790TIP3    H1 2334   4.306   2.014   4.551 -1.2079  0.2426 -0.0221
  790TIP3    H2 2335   4.226   2.079   4.661  0.2349  1.4775  0.3326
  791TIP3   OH2 2336   3.629   1.552   1.441 -0.7901  0.4264 -0.0236
  791TIP3    H1 2337   3.543   1.516   1.464  0.3873 -1.7526  1.3395
  791TIP3    H2 2338   3.679   1.476   1.410  1.5745  0.9941  2.1200
  792TIP3   OH2 2339   0.279   0.996   3.530  0.1269  0.2817 -0.5095
  792TIP3    H1 2340   0.211   1.049   3.571  0.3822  1.5640 -1.6780
  792TIP3    H2 2341   0.232   0.936   3.473 -0.0843  0.2801 -0.3340
  793TIP3   OH2 2342   4.514   5.387   4.360 -0.0098  0.2168  0.5300
  793TIP3    H1 2343   4.495   5.294   4.357 -0.0445  0.2537 -1.6461
  793TIP3    H2 2344   4.555   5.400   4.446  0.9959 -1.9873  0.4580
  794TIP3   OH2 2345   2.544   0.061   5.516  0.6476  0.2463 -0.8438
  794TIP3    H1 2346   2.533   0.142   5.466  1.3986  0.9260  0.0636
  794TIP3    H2 2347   2.576  -0.003   5.452  2.0878  1.2310 -1.1554
  795TIP3   OH2 2348   4.515   1.588   1.622  0.3204  0.2549 -0.2532
  795TIP3    H1 2349   4.452   1.517   1.621 -0.6662  1.1062 -0.7619
  795TIP3    H2 2350   4.565   1.576   1.703 -1.1384  0.0978  0.6529
  796TIP3   OH2 2351   6.122   2.255   4.844  0.5372  0.2465  0.6696
  796TIP3    H1 2352   6.163   2.185   4.894  1.9371  0.0209 -0.7316
  796TIP3    H2 2353   6.195   2.310   4.815  0.1037 -0.7655 -2.8188
  797TIP3   OH2 2354   2.351   4.669   3.216 -0.0831  0.1294 -0.1235
  797TIP3    H1 2355   2.383   4.583   3.243  0.8144  0.3298 -0.5353
  797TIP3    H2 2356   2.274   4.684   3.271 -0.0371 -0.7768  0.2023
  798TIP3   OH2 2357   1.844   2.295   0.265  0.1752 -0.1075  0.1187
  798TIP3    H1 2358   1.824   2.336   0.349  2.4409 -0.8655  1.1045
  798TIP3    H2 2359   1.852   2.202   0.286  1.9276 -0.1645 -0.6584
  799TIP3   OH2 2360   0.885   5.479   5.604  0.9280 -0.3848 -0.2750
  799TIP3    H1 2361   0.865   5.542   5.673 -0.0508  1.4751 -2.1395
  799TIP3    H2 2362   0.958   5.427   5.639 -0.4021 -0.4937  2.6633
  800TIP3   OH2 2363   5.014   1.580   5.286  0.3669 -0.0745 -0.0338
  800TIP3    H1 2364   4.971   1.495   5.297  1.2668 -0.3476  1.7158
  800TIP3    H2 2365   5.092   1.575   5.341  2.1076  0.8068 -2.2809
  801TIP3   OH2 2366   4.229   2.251   0.949 -0.5101  0.5826 -0.4318
  801TIP3    H1 2367   4.217   2.243   0.855 -1.4129 -0.3595 -0.2605
  801TIP3    H2 2368   4.280   2.174   0.974  0.4185  1.2361 -0.2417
  802TIP3   OH2 2369   2.397   6.269   0.511  0.1005 -0.5635  0.5968
  802TIP3    H1 2370   2.376   6.176   0.513 -0.1957 -0.5194 -0.0184
  802TIP3    H2 2371   2.366   6.303   0.594  1.4736 -1.2655  1.4359
  803TIP3   OH2 2372   2.623   0.879   3.106  0.0322  0.0556 -0.1332
  803TIP3    H1 2373   2.624   0.909   3.197  0.2730  0.5522 -0.2975
  803TIP3    H2 2374   2.708   0.837   3.093 -0.3119 -0.7299  0.1021
  804TIP3   OH2 2375   1.855   2.994   3.294  0.1320  0.1062  0.5696
  804TIP3    H1 2376   1.887   3.039   3.216 -0.1782  2.2404  1.5782
  804TIP3    H2 2377   1.865   2.901   3.275  2.2057  0.5974 -1.0957
  805TIP3   OH2 2378   5.074   2.407   4.205 -0.8176 -0.2717  0.2686
  805TIP3    H1 2379   5.095   2.401   4.112 -0.0540 -3.1109  0.5421
  805TIP3    H2 2380   4.998   2.351   4.216 -1.2597  0.4984  1.2836
  806TIP3   OH2 2381   2.159   1.474   2.095  0.5744  0.3998 -0.3223
  806TIP3    H1 2382   2.244   1.431   2.086 -1.3407 -3.3353 -2.8447
  806TIP3    H2 2383   2.104   1.410   2.140 -1.5966  1.5651 -1.1847
  807TIP3   OH2 2384   5.105   1.039   4.605 -0.2727 -0.0286 -0.0395
  807TIP3    H1 2385   5.022   1.038   4.652  0.1248  1.8400  0.8247
  807TIP3    H2 2386   5.082   1.064   4.516 -0.7321 -0.5588 -0.0754
  808TIP3   OH2 2387   2.184   1.979   5.700  0.0986  0.0311  0.1379
  808TIP3    H1 2388   2.185   1.971   5.795  1.1242  0.3559  0.1747
  808TIP3    H2 2389   2.136   2.060   5.682 -0.9041 -0.5125  0.3218
  809TIP3   OH2 2390   0.171   2.442   1.544 -0.6095  0.4935  0.1449
  809TIP3    H1 2391   0.198   2.527   1.509 -0.2806  0.0815 -0.6180
  809TIP3    H2 2392   0.144   2.391   1.467  1.5764 -0.9589  0.2465
  810TIP3   OH2 2393   7.141   6.719   0.069 -0.3656 -0.0880 -0.1819
  810TIP3    H1 2394   7.067   6.660   0.081 -0.0571 -0.4435 -0.0118
  810TIP3    H2 2395   7.102   6.807   0.066 -0.7131 -0.2040  0.7183
  811TIP3   OH2 2396   1.259   5.796   1.342 -0.3821 -0.3119  0.0021
  811TIP3    H1 2397   1.194   5.775   1.410  0.9627 -1.0727  1.1047
  811TIP3    H2 2398   1.330   5.838   1.390  0.5229 -0.7070 -0.9738
  812TIP3   OH2 2399   0.316   4.505   1.308  0.1319  0.0305 -0.2049
  812TIP3    H1 2400   0.376   4.579   1.305  0.5853 -0.3187  0.2594
  812TIP3    H2 2401   0.349   4.449   1.377  2.2617 -2.6841 -3.1208
  813TIP3   OH2 2402   4.317   6.335   4.119 -0.2326 -0.2763  0.0175
  813TIP3    H1 2403   4.365   6.269   4.169  2.0490  0.5684 -0.9140
  813TIP3    H2 2404   4.308   6.409   4.178  0.2932 -0.1658 -0.0397
  814TIP3   OH2 2405   3.613   2.616   3.688 -0.1194  0.2304 -0.3803
  814TIP3    H1 2406   3.609   2.708   3.662 -0.5197  0.0809 -0.8544
  814TIP3    H2 2407   3.664   2.573   3.619  2.1249  0.4986  1.0242
  815TIP3   OH2 2408   5.387   0.397   5.142 -0.0831 -0.6481 -0.0521
  815TIP3    H1 2409   5.318   0.443   5.095  0.8403 -0.7343 -1.5742
  815TIP3    H2 2410   5.459   0.460   5.148  1.4650 -1.9640 -2.8000
  816TIP3   OH2 2411   5.455   5.524   1.238 -0.7986 -0.0233 -0.1756
  816TIP3    H1 2412   5.478   5.494   1.150  1.3377  0.6077  0.1298
  816TIP3    H2 2413   5.496   5.461   1.297 -0.5787  0.6304  0.3859
  817TIP3   OH2 2414   1.250   2.608   4.010 -0.0901  0.3405 -0.2930
  817TIP3    H1 2415   1.288   2.672   4.070  0.5423  0.0080 -0.3338
  817TIP3    H2 2416   1.167   2.648   3.982 -0.9486  0.0385  1.6259
  818TIP3   OH2 2417   0.571   4.859   5.771 -0.1959 -0.2166  0.1279
  818TIP3    H1 2418   0.568   4.931   5.708 -4.0576  0.6282  0.9925
  818TIP3    H2 2419   0.567   4.901   5.857  2.0803 -1.4229  0.8979
  819TIP3   OH2 2420   3.181   5.365   4.404  0.2623 -0.1106 -0.3430
  819TIP3    H1 2421   3.101   5.392   4.449  1.2491  0.1654  1.3438
  819TIP3    H2 2422   3.245   5.356   4.474  1.0226 -3.0725 -1.2720
  820TIP3   OH2 2423   3.451   4.555   2.845 -0.0142 -0.0968  0.6125
  820TIP3    H1 2424   3.464   4.648   2.862 -1.8944  0.1231  1.1264
  820TIP3    H2 2425   3.464   4.545   2.751  1.6171  0.3854  0.7525
  821TIP3   OH2 2426   1.286   4.714   3.403  0.4874  0.7128 -0.0731
  821TIP3    H1 2427   1.259   4.789   3.457  0.3826  0.7599 -0.1898
  821TIP3    H2 2428   1.231   4.721   3.324  0.1916  0.2797  0.0944
  822TIP3   OH2 2429   2.954   3.222   5.783  0.0287  0.1430  0.1974
  822TIP3    H1 2430   2.972   3.288   5.716  1.9421 -0.7608 -0.2289
  822TIP3    H2 2431   3.037   3.176   5.796 -0.6481 -0.6597  2.1751
  823TIP3   OH2 2432   5.257   0.225   0.262 -0.2820  0.8760  0.8838
  823TIP3    H1 2433   5.166   0.255   0.255 -0.4053  0.2654 -0.6128
  823TIP3    H2 2434   5.288   0.223   0.171  0.7292 -0.4496  1.2323
  824TIP3   OH2 2435   2.087   1.708   2.229  0.0404  0.0666  0.3176
  824TIP3    H1 2436   2.112   1.630   2.180 -1.3058  0.1914 -0.6223
  824TIP3    H2 2437   2.001   1.687   2.266 -0.8720  1.4569 -0.8786
  825TIP3   OH2 2438   3.596   0.016   5.232 -0.2402 -0.4093 -0.7125
  825TIP3    H1 2439   3.568   0.021   5.323 -0.7701 -0.7765 -0.8554
  825TIP3    H2 2440   3.550   0.088   5.188  1.4165  0.9442 -0.3385
  826TIP3   OH2 2441   3.755   3.519   4.625  0.2167  0.3285 -0.3068
  826TIP3    H1 2442   3.822   3.535   4.558  1.7548 -1.8171  0.5994
  826TIP3    H2 2443   3.783   3.438   4.668 -2.9743 -0.6778  0.1502
  827TIP3   OH2 2444   6.964   2.378   4.551  0.7766  0.2510  0.4360
  827TIP3    H1 2445   6.949   2.303   4.494  0.9975 -0.2067  0.9811
  827TIP3    H2 2446   7.002   2.444   4.493  3.0304 -0.9503  0.4422
  828TIP3   OH2 2447   3.541   4.886   4.768  0.8757  0.4172 -0.3591
  828TIP3    H1 2448   3.474   4.955   4.768 -0.1767 -0.5676  0.2787
  828TIP3    H2 2449   3.615   4.925   4.816  0.0537  0.8999  0.5677
  829TIP3   OH2 2450   3.285   2.744   1.114  0.4935  0.1257  0.0083
  829TIP3    H1 2451   3.336   2.717   1.038 -0.4190 -0.7287 -0.3158
  829TIP3    H2 2452   3.285   2.840   1.110  0.2953  0.0848 -1.1811
  830TIP3   OH2 2453   0.599   2.408   2.460  0.1121  0.2689 -0.3707
  830TIP3    H1 2454   0.561   2.320   2.461 -1.2853  0.8354  0.2414
  830TIP3    H2 2455   0.615   2.426   2.368 -0.7950 -0.1568 -0.6263
  831TIP3   OH2 2456   0.047   1.605   2.582 -0.3873  0.1885  0.0079
  831TIP3    H1 2457   0.045   1.572   2.492  0.3157  3.1761 -1.2382
  831TIP3    H2 2458   0.136   1.585   2.612 -1.2845 -2.8454  1.0128
  832TIP3   OH2 2459   2.243   0.944   1.661 -0.3303  0.0992 -0.2356
  832TIP3    H1 2460   2.312   0.947   1.595  0.1508 -0.4285  0.2267
  832TIP3    H2 2461   2.243   0.852   1.690 -0.9795  0.1800  0.0291
  833TIP3   OH2 2462   4.174   5.425   5.664  0.2900  0.3134  0.2444
  833TIP3    H1 2463   4.197   5.476   5.586  0.9307  0.3759  0.4656
  833TIP3    H2 2464   4.234   5.456   5.732 -0.4118  0.4109  0.8254
  834TIP3   OH2 2465   5.838   4.475   5.141 -0.7240  0.3746  0.3801
  834TIP3    H1 2466   5.923   4.507   5.113 -0.2358  0.4384  1.8705
  834TIP3    H2 2467   5.833   4.386   5.104 -0.4364  0.7177 -0.5086
  835TIP3   OH2 2468   2.086   5.908   2.139 -0.7011  0.2635  0.0924
  835TIP3    H1 2469   2.016   5.863   2.186  0.5097  0.2851  2.0012
  835TIP3    H2 2470   2.161   5.849   2.144 -0.7584 -0.2345 -2.8181
  836TIP3   OH2 2471   2.583   6.725   2.421  0.4637 -1.1190  0.0421
  836TIP3    H1 2472   2.660   6.716   2.477 -0.5819 -0.5838  1.6117
  836TIP3    H2 2473   2.547   6.637   2.415  0.7034 -1.2161 -0.0001
  837TIP3   OH2 2474   2.380   4.939   4.085 -0.1910  0.1275 -0.1631
  837TIP3    H1 2475   2.473   4.932   4.064  0.0524  1.0848  0.5312
  837TIP3    H2 2476   2.356   4.854   4.121  0.4590 -0.0558 -0.1617
  838TIP3   OH2 2477   0.474   5.108   2.259 -0.2267  0.3559 -0.8903
  838TIP3    H1 2478   0.461   5.201   2.278 -0.3694  0.0781  0.4753
  838TIP3    H2 2479   0.569   5.095   2.265 -0.0411  0.7089 -2.6358
  839TIP3   OH2 2480   7.083   1.707   5.655  0.3774 -0.6258 -0.0242
  839TIP3    H1 2481   7.011   1.768   5.644  0.6570 -0.0669  1.1236
  839TIP3    H2 2482   7.111   1.686   5.566 -0.9476 -0.5698 -0.4760
  840TIP3   OH2 2483   2.601   5.182   1.180  0.5713  0.2556  0.0425
  840TIP3    H1 2484   2.694   5.181   1.206  0.3546 -1.7904  0.9469
  840TIP3    H2 2485   2.554   5.173   1.263 -0.4218  0.3985 -0.4996
  841TIP3   OH2 2486   0.713   1.854   0.881  0.1468 -0.0044  0.0711
  841TIP3    H1 2487   0.683   1.942   0.903  0.4040  0.1983 -0.3785
  841TIP3    H2 2488   0.633   1.806   0.861  0.1610  1.0274 -2.9458
  842TIP3   OH2 2489   0.479   6.251   0.482 -0.2344 -0.0080  0.5530
  842TIP3    H1 2490   0.422   6.180   0.454 -0.9491  1.0455 -0.7201
  842TIP3    H2 2491   0.473   6.317   0.413 -0.4142  1.7802  2.1675
  843TIP3   OH2 2492   4.827   3.770   2.279 -0.5947 -0.2259 -0.2202
  843TIP3    H1 2493   4.760   3.732   2.223 -0.9542  1.1965 -0.7874
  843TIP3    H2 2494   4.883   3.820   2.220 -0.6176  0.7951  0.5991
  844TIP3   OH2 2495   0.436   2.634   1.433 -1.1516 -0.0533  0.1092
  844TIP3    H1 2496   0.512   2.629   1.375 -0.9542  1.0437  0.2433
  844TIP3    H2 2497   0.362   2.652   1.375 -1.0499  0.4374  0.1240
  845TIP3   OH2 2498   1.155   2.571   1.894  0.1639  0.3259 -0.0164
  845TIP3    H1 2499   1.160   2.558   1.988  0.1528 -1.1941 -0.1917
  845TIP3    H2 2500   1.181   2.486   1.857 -0.3930  0.7125 -1.3652
  846TIP3   OH2 2501   4.809   2.716   0.217  0.3785 -0.3961 -0.4939
  846TIP3    H1 2502   4.745   2.648   0.194  0.8480 -1.4280  1.0607
  846TIP3    H2 2503   4.769   2.761   0.292  1.4078 -0.9815  0.4236
  847TIP3   OH2 2504   6.205   0.926   1.605 -0.2957 -0.4186 -0.0731
  847TIP3    H1 2505   6.172   0.947   1.693  0.5579  1.4915 -0.1666
  847TIP3    H2 2506   6.266   0.853   1.619 -0.0600 -0.0413  0.9439
  848TIP3   OH2 2507   0.230   4.029   3.737  0.2989 -0.6329 -0.4323
  848TIP3    H1 2508   0.164   4.067   3.795  1.5152  0.0248  0.5898
  848TIP3    H2 2509   0.190   3.949   3.703 -1.6381  0.5816 -1.1707
  849TIP3   OH2 2510   1.917   3.816   5.860 -0.5107  0.4718  0.2396
  849TIP3    H1 2511   1.844   3.780   5.909 -1.7948 -1.4361 -2.7850
  849TIP3    H2 2512   1.988   3.753   5.873 -0.1236  1.1171  1.3356
  850TIP3   OH2 2513   1.760   0.637   1.481 -0.5305  0.0831 -0.2924
  850TIP3    H1 2514   1.765   0.542   1.469  0.1544 -0.0166  0.7201
  850TIP3    H2 2515   1.775   0.650   1.574 -2.4432  1.0663 -0.0716
  851TIP3   OH2 2516   3.907   5.284   1.723 -0.2944 -0.4173  0.1207
  851TIP3    H1 2517   3.903   5.324   1.810 -0.5811 -0.0587 -0.0520
  851TIP3    H2 2518   3.990   5.312   1.687 -1.3419  1.7342 -0.7904
  852TIP3   OH2 2519   5.041   2.951   0.696 -0.2249  0.1161 -0.1585
  852TIP3    H1 2520   5.071   2.900   0.771  0.8635 -1.2767 -1.4857
  852TIP3    H2 2521   4.947   2.962   0.711 -0.0203 -0.0575  1.4270
  853TIP3   OH2 2522   0.617   0.387   1.239  0.1264  0.4329 -0.2238
  853TIP3    H1 2523   0.690   0.433   1.197 -0.5918  0.6697 -1.2496
  853TIP3    H2 2524   0.603   0.310   1.184 -0.1276  0.1685  0.2096
  854TIP3   OH2 2525   2.832   3.659   0.709  0.1897  0.2248  0.1850
  854TIP3    H1 2526   2.747   3.677   0.749  0.1864  0.9230 -0.1215
  854TIP3    H2 2527   2.828   3.703   0.624 -0.1449 -1.9789 -1.0107
  855TIP3   OH2 2528   4.093   1.641   1.150 -0.1912  0.0331  0.1067
  855TIP3    H1 2529   4.039   1.661   1.074  2.0648 -0.1004 -1.6524
  855TIP3    H2 2530   4.134   1.725   1.172 -1.7658  0.3529  2.0369
  856TIP3   OH2 2531   3.262   1.016   1.186  0.0409  0.4041  0.0862
  856TIP3    H1 2532   3.321   0.955   1.142 -0.6251  1.5348 -2.5754
  856TIP3    H2 2533   3.320   1.069   1.241  0.9883 -0.8273  0.3218
  857TIP3   OH2 2534   3.600   6.479   2.373  0.1523 -0.0346 -0.4829
  857TIP3    H1 2535   3.626   6.483   2.281 -1.0723  0.4398 -0.8340
  857TIP3    H2 2536   3.664   6.534   2.418 -1.1316  2.5326 -1.5673
  858TIP3   OH2 2537   1.429   3.656   1.929 -0.2871  0.2755  0.2481
  858TIP3    H1 2538   1.401   3.702   1.850  0.0659  0.2023  0.0801
  858TIP3    H2 2539   1.523   3.673   1.936  0.1699 -1.5907 -0.6356
  859TIP3   OH2 2540   6.079   1.395   1.530  0.2494 -0.1175  0.3418
  859TIP3    H1 2541   6.002   1.362   1.485 -0.5361  2.0801 -0.0755
  859TIP3    H2 2542   6.137   1.319   1.540  0.6301 -0.7812 -4.6526
  860TIP3   OH2 2543   2.032   1.118   3.104  0.3228 -0.3569  0.3991
  860TIP3    H1 2544   2.025   1.211   3.124 -0.5734 -0.2195 -0.4917
  860TIP3    H2 2545   2.044   1.114   3.009  0.6826 -1.1461  0.4623
  861TIP3   OH2 2546   1.992   2.962   0.156  0.7288 -0.4607  0.7479
  861TIP3    H1 2547   2.018   3.055   0.153  0.0339 -0.2856 -0.6498
  861TIP3    H2 2548   2.063   2.919   0.204 -0.6648  1.3068  4.8047
  862TIP3   OH2 2549   3.483   0.872   1.119 -0.0276 -0.3103  0.2593
  862TIP3    H1 2550   3.562   0.848   1.169 -0.3115 -0.6413  0.5540
  862TIP3    H2 2551   3.455   0.790   1.079 -0.4905 -0.2908  0.5406
  863TIP3   OH2 2552   3.176   2.572   4.317 -0.2255  0.0242 -0.0483
  863TIP3    H1 2553   3.141   2.536   4.399 -1.0497  0.6055 -0.1299
  863TIP3    H2 2554   3.151   2.507   4.251 -0.3857  0.0127  0.0222
  864TIP3   OH2 2555   5.396   0.050   2.248 -0.3237  0.1997  0.6049
  864TIP3    H1 2556   5.417   0.136   2.286  0.5361  0.2475  0.0522
  864TIP3    H2 2557   5.470   0.031   2.190 -0.7911 -0.6533  0.2746
  865TIP3   OH2 2558   4.646   5.452   0.244 -0.0220 -0.0074 -0.1427
  865TIP3    H1 2559   4.728   5.476   0.202  0.3114  0.6106  0.8176
  865TIP3    H2 2560   4.672   5.417   0.329 -0.8039  2.8946  1.4487
  866TIP3   OH2 2561   4.343   4.162   4.653  0.0142  0.7321  0.4888
  866TIP3    H1 2562   4.315   4.189   4.740 -1.0604  0.2519  0.3097
  866TIP3    H2 2563   4.389   4.079   4.666 -1.4232 -0.0956  0.4601
  867TIP3   OH2 2564   3.753   5.075   1.608 -0.1674  0.1606 -0.3653
  867TIP3    H1 2565   3.775   5.159   1.649 -1.3136  0.3753 -0.1560
  867TIP3    H2 2566   3.804   5.073   1.527  0.8190  0.4989  0.2420
  868TIP3   OH2 2567   1.350   1.023   5.805  0.3708  0.0121 -0.2700
  868TIP3    H1 2568   1.345   1.104   5.755 -1.6141  0.3218  0.3573
  868TIP3    H2 2569   1.368   1.050   5.895  0.9560 -0.3504 -0.2675
  869TIP3   OH2 2570   6.748   5.971   4.691 -0.1913 -0.3354 -0.2113
  869TIP3    H1 2571   6.705   5.961   4.606 -0.8834  0.2789  0.0644
  869TIP3    H2 2572   6.829   6.018   4.671 -0.6301  0.3179 -0.4517
  870TIP3   OH2 2573   0.126   5.456   4.626 -0.0654  0.0184  0.1822
  870TIP3    H1 2574   0.114   5.484   4.535  0.2731  1.0250  0.4289
  870TIP3    H2 2575   0.038   5.445   4.660 -0.1956 -0.7713 -0.3802
  871TIP3   OH2 2576   2.936   3.498   1.411  0.4755  0.5352 -0.1514
  871TIP3    H1 2577   2.903   3.447   1.485  0.9410  1.8221  0.9827
  871TIP3    H2 2578   2.858   3.519   1.360 -0.0521  0.7979  0.7392
  872TIP3   OH2 2579   5.491   6.623   1.021  0.4736  0.3371  0.3291
  872TIP3    H1 2580   5.500   6.580   1.106  1.6323 -1.3962 -0.6059
  872TIP3    H2 2581   5.422   6.688   1.034 -1.2671 -1.6883  1.8931
  873TIP3   OH2 2582   1.881   6.383   0.335 -0.4377 -0.0495 -0.2018
  873TIP3    H1 2583   1.792   6.415   0.318 -0.0377  0.5287 -1.2965
  873TIP3    H2 2584   1.922   6.380   0.248  1.5951  2.6063  0.5379
  874TIP3   OH2 2585   4.693   2.853   3.462  0.6633  0.3285 -0.1301
  874TIP3    H1 2586   4.776   2.859   3.510  0.7706 -0.1675 -0.2454
  874TIP3    H2 2587   4.638   2.920   3.501  0.5686 -0.4047  1.0590
  875TIP3   OH2 2588   2.375   3.908   2.239 -0.3811 -0.5419  0.0099
  875TIP3    H1 2589   2.465   3.938   2.229 -1.3861  2.9989  0.1099
  875TIP3    H2 2590   2.382   3.814   2.257  3.2822 -0.2424  0.8531
  876TIP3   OH2 2591   3.039   2.454   4.972  0.3712 -0.7031 -0.1374
  876TIP3    H1 2592   3.018   2.547   4.970 -1.1791 -0.9834  0.9884
  876TIP3    H2 2593   3.008   2.425   5.058  1.6229 -2.0821 -0.1202
  877TIP3   OH2 2594   1.795   6.336   1.665 -0.0022 -0.6018  0.3796
  877TIP3    H1 2595   1.798   6.341   1.570 -0.6034  0.3102  0.3974
  877TIP3    H2 2596   1.702   6.326   1.685 -0.3086  2.5116  0.9746
  878TIP3   OH2 2597   5.808   3.091   3.628  0.4161 -0.1050  0.3604
  878TIP3    H1 2598   5.866   3.092   3.552 -1.2368  0.2677 -0.9653
  878TIP3    H2 2599   5.770   3.179   3.631 -0.3002 -0.4175  0.9918
  879TIP3   OH2 2600   6.085   4.630   2.831  0.0850 -0.1788 -0.3849
  879TIP3    H1 2601   6.107   4.540   2.853  1.7735  0.0822 -0.8889
  879TIP3    H2 2602   6.042   4.664   2.910  1.6522 -0.6999  0.7535
  880TIP3   OH2 2603   0.165   5.303   0.791 -0.5355  0.4232  0.3167
  880TIP3    H1 2604   0.190   5.376   0.848  2.2694  0.7902 -1.2006
  880TIP3    H2 2605   0.233   5.238   0.805 -2.6404 -1.7535  1.1567
  881TIP3   OH2 2606   6.513   6.451   0.938  0.2535 -0.0497  0.2781
  881TIP3    H1 2607   6.596   6.476   0.977 -0.1423  0.6014  0.7271
  881TIP3    H2 2608   6.480   6.532   0.898  0.1696 -0.4651 -0.5285
  882TIP3   OH2 2609   4.822   5.978  -0.002  0.2126  0.5017  0.5286
  882TIP3    H1 2610   4.811   5.995   0.092  0.2994  1.9400  0.3022
  882TIP3    H2 2611   4.911   5.945  -0.010  0.3464  0.7610  0.9106
  883TIP3   OH2 2612   3.601   0.332   1.499 -0.1471  0.4483 -0.1084
  883TIP3    H1 2613   3.586   0.287   1.582  0.8441  0.6762  0.2083
  883TIP3    H2 2614   3.689   0.368   1.507  0.1453  0.0740 -1.4547
  884TIP3   OH2 2615   4.796   6.609   4.229  0.1427  0.4729  0.2271
  884TIP3    H1 2616   4.707   6.623   4.263 -0.4875 -0.8913 -0.7272
  884TIP3    H2 2617   4.782   6.556   4.151  1.9432 -1.9776  1.4325
  885TIP3   OH2 2618   3.234   2.569   2.376 -0.4817 -0.8171 -0.2246
  885TIP3    H1 2619   3.213   2.520   2.455  0.0686  1.0325  1.1246
  885TIP3    H2 2620   3.149   2.600   2.345 -0.7680 -2.0424 -0.7598
  886TIP3   OH2 2621   7.151   0.382   4.471 -0.0151  0.4377  0.0965
  886TIP3    H1 2622   7.161   0.471   4.435  2.9725  1.1058  2.2118
  886TIP3    H2 2623   7.233   0.338   4.448 -1.1166 -1.5710 -0.2196
  887TIP3   OH2 2624   6.233   2.294   1.338  0.2791  0.6576 -0.0655
  887TIP3    H1 2625   6.253   2.235   1.266 -0.4068 -0.0573  0.3171
  887TIP3    H2 2626   6.297   2.365   1.330  2.7295 -1.2986  0.8663
  888TIP3   OH2 2627   1.371   2.042   5.069 -0.0547  0.2260 -0.1578
  888TIP3    H1 2628   1.437   1.978   5.093  2.4007  2.1559 -1.2958
  888TIP3    H2 2629   1.359   2.096   5.147  0.1432  0.1870 -0.1001
  889TIP3   OH2 2630   1.492   6.232   4.244 -0.5351 -0.1264 -0.3979
  889TIP3    H1 2631   1.573   6.192   4.278 -1.1904 -0.6211  0.6379
  889TIP3    H2 2632   1.422   6.191   4.295 -1.4453  0.3324 -1.2473
  890TIP3   OH2 2633   7.094   5.281   4.987  0.4059  0.2820  0.0802
  890TIP3    H1 2634   7.027   5.233   4.939  1.3131  0.8276 -1.8508
  890TIP3    H2 2635   7.160   5.214   5.009 -0.8218 -0.3228  2.2852
  891TIP3   OH2 2636   0.137   0.336   2.838 -0.2906  0.1070  0.0374
  891TIP3    H1 2637   0.204   0.341   2.906  0.2553  1.6178 -0.5726
  891TIP3    H2 2638   0.129   0.242   2.819  0.8471 -0.1822  0.8990
  892TIP3   OH2 2639   5.238   5.418   0.764 -0.3036  0.0080  0.8261
  892TIP3    H1 2640   5.229   5.508   0.733  0.1817 -0.0830  0.4053
  892TIP3    H2 2641   5.236   5.425   0.860 -0.0998  0.4861  0.7972
  893TIP3   OH2 2642   3.395   3.670   3.782 -0.3165 -0.2433 -0.2332
  893TIP3    H1 2643   3.410   3.752   3.736  0.8691  0.0296  0.5980
  893TIP3    H2 2644   3.353   3.613   3.717 -2.7189  1.5115 -0.3578
  894TIP3   OH2 2645   6.567   4.794   3.759  0.1576  0.1110  0.8074
  894TIP3    H1 2646   6.587   4.806   3.852 -1.5661  2.4345  0.9838
  894TIP3    H2 2647   6.486   4.744   3.758  0.7723 -0.9067  0.4760
  895TIP3   OH2 2648   1.039   0.223   5.633  0.0838 -0.5790 -0.0868
  895TIP3    H1 2649   1.030   0.130   5.651 -2.1143 -0.5191 -0.6308
  895TIP3    H2 2650   1.040   0.229   5.538  2.0458 -0.1325 -0.0952
  896TIP3   OH2 2651   3.800   3.512   1.467 -0.5215  0.7330 -1.0015
  896TIP3    H1 2652   3.709   3.539   1.473 -0.7611 -0.2734  0.2632
  896TIP3    H2 2653   3.847   3.575   1.521 -0.6219  0.5992 -0.7570
  897TIP3   OH2 2654   0.371   3.600   0.605  0.3391  0.2204 -0.1331
  897TIP3    H1 2655   0.277   3.583   0.598  0.0955  0.8636  1.2685
  897TIP3    H2 2656   0.377   3.692   0.629  1.4266  0.7287 -2.1443
  898TIP3   OH2 2657   1.619   3.828   3.234 -0.5465  0.2132 -0.2397
  898TIP3    H1 2658   1.694   3.774   3.209  0.4556  0.3651  2.1077
  898TIP3    H2 2659   1.652   3.918   3.230  0.3279  0.1952  3.0754
  899TIP3   OH2 2660   5.022   1.140   4.353 -0.2589 -0.4339 -0.6839
  899TIP3    H1 2661   4.963   1.113   4.282 -1.1383 -0.5972  0.0848
  899TIP3    H2 2662   4.979   1.218   4.390  0.1708 -0.3707 -0.3149
  900TIP3   OH2 2663   4.056   1.522   4.203  0.3772 -0.1983 -0.1477
  900TIP3    H1 2664   3.972   1.555   4.171  0.7193  1.4228  0.5485
  900TIP3    H2 2665   4.043   1.428   4.211 -1.0396 -0.1064 -1.0394
  901TIP3   OH2 2666   7.088   5.430   0.736  0.2380 -0.2682 -0.5256
  901TIP3    H1 2667   7.136   5.465   0.661  0.9200  1.3926  0.6073
  901TIP3    H2 2668   7.156   5.413   0.801 -0.4065 -0.9597 -0.0226
  902TIP3   OH2 2669   0.634   5.016   1.009  0.0786  0.3297  0.0794
  902TIP3    H1 2670   0.729   5.027   1.001  0.1377 -0.6672 -0.7608
  902TIP3    H2 2671   0.617   5.020   1.103  0.7722  1.7826  0.1760
  903TIP3   OH2 2672   6.337   2.453   0.132  0.3314 -0.7613  0.1846
  903TIP3    H1 2673   6.328   2.463   0.037  2.0796 -0.9391 -0.0429
  903TIP3    H2 2674   6.306   2.365   0.150 -0.8768 -0.4009 -0.0742
  904TIP3   OH2 2675   1.750   6.228   5.458  0.3585 -0.1369 -0.8500
  904TIP3    H1 2676   1.758   6.303   5.517  0.1760 -0.9256  0.1959
  904TIP3    H2 2677   1.676   6.250   5.401 -0.0932  0.2053 -0.1453
  905TIP3   OH2 2678   5.761   0.951   3.658 -0.2646 -0.5337 -0.0040
  905TIP3    H1 2679   5.759   0.855   3.650  1.0444 -0.6057  0.2953
  905TIP3    H2 2680   5.703   0.970   3.730 -0.5916 -1.1012 -0.1061
  906TIP3   OH2 2681   4.264   1.647   2.656 -0.1897 -0.3935  0.2715
  906TIP3    H1 2682   4.219   1.710   2.712 -2.8086 -0.7873 -1.1993
  906TIP3    H2 2683   4.346   1.690   2.631 -0.0817  0.7549  2.4008
  907TIP3   OH2 2684   6.947   0.584   0.739 -0.0589 -0.6286 -0.3265
  907TIP3    H1 2685   6.872   0.644   0.748  1.8675  2.4392 -2.5780
  907TIP3    H2 2686   6.967   0.557   0.828 -1.7871  1.2013  0.7110
  908TIP3   OH2 2687   4.348   5.516   4.025 -0.6913 -0.0743 -0.3262
  908TIP3    H1 2688   4.267   5.530   4.074 -0.7856  0.3999 -0.6112
  908TIP3    H2 2689   4.337   5.429   3.987 -0.6664 -0.3927  0.3870
  909TIP3   OH2 2690   1.146   0.319   0.271  0.1173 -0.2690 -0.6276
  909TIP3    H1 2691   1.055   0.326   0.301  0.0975 -0.9360 -0.5134
  909TIP3    H2 2692   1.140   0.280   0.184  0.3249 -1.0777 -0.2941
  910TIP3   OH2 2693   2.647   2.123   4.299  0.0224  0.4282 -0.2695
  910TIP3    H1 2694   2.555   2.117   4.325 -0.2349  1.3778 -0.8877
  910TIP3    H2 2695   2.694   2.135   4.381 -0.3748 -0.2850  0.0745
  911TIP3   OH2 2696   4.773   6.434   3.493  0.0445 -0.4305  0.2087
  911TIP3    H1 2697   4.803   6.445   3.403  2.9333  0.0881  1.1359
  911TIP3    H2 2698   4.747   6.342   3.499 -0.0609 -0.5020 -1.0874
  912TIP3   OH2 2699   3.813   6.262   3.165 -0.2041  0.0211  1.0277
  912TIP3    H1 2700   3.741   6.218   3.120 -0.2925 -0.4858  1.6603
  912TIP3    H2 2701   3.772   6.309   3.237 -0.1441  1.3785  0.2095
  913TIP3   OH2 2702   1.740   3.034   2.061  0.2128  0.5781  0.3219
  913TIP3    H1 2703   1.729   2.955   2.113  1.2017 -0.8063 -1.4414
  913TIP3    H2 2704   1.828   3.064   2.080  0.0499  0.9260  0.5402
  914TIP3   OH2 2705   6.301   0.978   2.639 -0.4879  0.1265  0.3474
  914TIP3    H1 2706   6.215   0.973   2.682 -0.2795  0.0532  0.7593
  914TIP3    H2 2707   6.336   0.890   2.645 -0.2988  0.2025  0.3540
  915TIP3   OH2 2708   3.157   4.070   5.572  0.0205 -0.2463 -0.0229
  915TIP3    H1 2709   3.090   4.127   5.534 -0.0782 -0.6003 -0.3828
  915TIP3    H2 2710   3.158   4.094   5.665 -1.0671 -0.6940  0.1189
  916TIP3   OH2 2711   6.752   2.879   0.142  0.2164  0.1160  1.0402
  916TIP3    H1 2712   6.658   2.892   0.137  0.0866 -0.2605  2.2635
  916TIP3    H2 2713   6.777   2.912   0.228  1.1891  0.1290  0.7705
  917TIP3   OH2 2714   6.829   1.708   2.571  0.3350  0.5880 -0.3355
  917TIP3    H1 2715   6.771   1.751   2.508  0.6751  2.7344  0.7130
  917TIP3    H2 2716   6.784   1.719   2.655 -0.5531 -2.9851 -0.1876
  918TIP3   OH2 2717   3.488   1.115   2.233  0.3636 -0.5105 -0.2745
  918TIP3    H1 2718   3.403   1.072   2.231  0.4229 -0.6373 -0.0919
  918TIP3    H2 2719   3.541   1.065   2.170 -0.4645  1.2153 -2.4737
  919TIP3   OH2 2720   1.434   3.732   0.730 -0.0128 -0.1071 -0.4629
  919TIP3    H1 2721   1.357   3.775   0.767  2.7980  4.5714  0.9094
  919TIP3    H2 2722   1.432   3.754   0.637  0.7297  2.2175  0.0020
  920TIP3   OH2 2723   4.195   2.172   2.687 -0.2576 -0.4186 -0.5969
  920TIP3    H1 2724   4.116   2.131   2.653 -0.7953 -0.3290  0.4989
  920TIP3    H2 2725   4.218   2.121   2.764 -0.2315  0.5719  0.0750
  921TIP3   OH2 2726   0.758   4.464   4.829 -0.4841 -0.8654  0.0891
  921TIP3    H1 2727   0.733   4.378   4.864 -0.8174 -0.4044  1.0327
  921TIP3    H2 2728   0.676   4.503   4.801 -0.4256 -0.5761  0.3168
  922TIP3   OH2 2729   6.596   0.768   3.255 -0.3235 -0.3266 -0.6939
  922TIP3    H1 2730   6.656   0.788   3.327 -0.8935  2.9306 -0.9662
  922TIP3    H2 2731   6.595   0.673   3.250  2.2894 -0.5760  1.4205
  923TIP3   OH2 2732   1.087   4.131   5.713  0.6724 -0.1030  0.5656
  923TIP3    H1 2733   1.099   4.058   5.775  1.5711 -0.9686 -0.5739
  923TIP3    H2 2734   1.150   4.113   5.643 -0.0015  1.0957 -0.3794
  924TIP3   OH2 2735   3.533   4.169   1.532  0.4105 -0.2782 -0.2862
  924TIP3    H1 2736   3.523   4.141   1.441 -0.3692  1.9914 -0.9598
  924TIP3    H2 2737   3.580   4.096   1.575 -0.2623 -1.9070 -2.1827
  925TIP3   OH2 2738   1.574   1.129   3.681 -0.0515 -0.1251 -0.3131
  925TIP3    H1 2739   1.607   1.055   3.630 -0.3252 -0.1531 -0.4494
  925TIP3    H2 2740   1.505   1.092   3.736 -1.0936  0.2556 -1.3056
  926TIP3   OH2 2741   6.543   1.181   3.552  0.1717 -0.2006  0.2029
  926TIP3    H1 2742   6.477   1.127   3.508 -0.7740  1.7120 -0.8930
  926TIP3    H2 2743   6.609   1.197   3.484  0.1086  0.5018  0.2946
  927TIP3   OH2 2744   3.757   1.195   3.640 -0.2855  0.4162 -0.1069
  927TIP3    H1 2745   3.732   1.141   3.565 -0.2220 -0.3296  0.3985
  927TIP3    H2 2746   3.676   1.206   3.689 -0.6310  2.0555 -0.9767
  928TIP3   OH2 2747   3.209   1.176   2.019  0.1500  0.3084  0.6285
  928TIP3    H1 2748   3.244   1.209   2.102  2.4940 -2.2443  0.8324
  928TIP3    H2 2749   3.145   1.110   2.044 -1.4741  1.6856  0.2866
  929TIP3   OH2 2750   3.091   3.490   4.009  0.0455 -0.2777  0.0684
  929TIP3    H1 2751   3.075   3.396   4.019  2.5425 -0.7475  0.3613
  929TIP3    H2 2752   3.083   3.506   3.915 -0.4094 -0.7771  0.0166
  930TIP3   OH2 2753   0.181   5.371   2.222 -0.3736  0.6221 -0.0960
  930TIP3    H1 2754   0.240   5.391   2.295 -0.1859  1.5959 -0.5017
  930TIP3    H2 2755   0.145   5.285   2.243  2.0349 -0.5377 -0.3782
  931TIP3   OH2 2756   3.068   6.107   1.747 -0.0031  0.1195  0.6716
  931TIP3    H1 2757   3.072   6.013   1.767 -0.1258  0.2810  1.4779
  931TIP3    H2 2758   3.116   6.149   1.818  1.7389  0.5473 -0.7030
  932TIP3   OH2 2759   4.169   5.047   1.967 -0.2227  0.5228 -0.1773
  932TIP3    H1 2760   4.259   5.080   1.964  0.1873 -0.5652 -0.0837
  932TIP3    H2 2761   4.151   5.020   1.877 -0.6959  1.3263 -0.3363
  933TIP3   OH2 2762   3.537   6.525   4.345 -0.4988 -0.1402 -0.1510
  933TIP3    H1 2763   3.579   6.607   4.373 -1.2574 -0.5590  2.5208
  933TIP3    H2 2764   3.445   6.536   4.369 -0.8438 -1.3261 -0.8535
  934TIP3   OH2 2765   1.122   6.043   2.351 -0.2243 -0.2335 -0.5591
  934TIP3    H1 2766   1.114   5.952   2.324  1.6956 -0.4000 -0.7239
  934TIP3    H2 2767   1.215   6.054   2.372 -0.6088  1.4071  0.4992
  935TIP3   OH2 2768   4.860   0.428   4.280  0.6834 -0.0199 -0.1613
  935TIP3    H1 2769   4.819   0.514   4.290  0.0920  0.1281 -3.0758
  935TIP3    H2 2770   4.953   0.447   4.273  0.5886  0.3544 -0.4452
  936TIP3   OH2 2771   1.867   0.809   4.945 -0.7875 -0.2053  0.1638
  936TIP3    H1 2772   1.848   0.831   4.854  0.7396 -0.8460 -0.3389
  936TIP3    H2 2773   1.889   0.892   4.986 -1.1412  0.0377 -0.1304
  937TIP3   OH2 2774   6.221   0.961   4.544  0.2464 -0.0650 -0.3708
  937TIP3    H1 2775   6.174   0.893   4.592 -0.3704 -0.0671 -0.9661
  937TIP3    H2 2776   6.178   0.964   4.459  1.0544  0.2332 -0.7772
  938TIP3   OH2 2777   1.936   4.222   3.587  0.3519 -0.2778  0.0170
  938TIP3    H1 2778   2.019   4.215   3.540  0.0204 -1.4612 -0.4117
  938TIP3    H2 2779   1.887   4.143   3.564 -1.1139  0.6236 -0.1426
  939TIP3   OH2 2780   3.285   5.297   5.659  0.2955  0.3346  0.3581
  939TIP3    H1 2781   3.371   5.333   5.640  0.1234  1.0274  0.8646
  939TIP3    H2 2782   3.256   5.259   5.576  1.0656  0.1391  0.1772
  940TIP3   OH2 2783   5.816   0.056   4.123  0.4962 -0.5868 -0.2353
  940TIP3    H1 2784   5.901   0.053   4.167  1.0895  1.3765 -1.1307
  940TIP3    H2 2785   5.834   0.027   4.034 -0.2104 -2.1215  0.0889
  941TIP3   OH2 2786   6.936   1.584   2.946  0.3602  0.3468 -0.0702
  941TIP3    H1 2787   6.851   1.601   2.987 -0.3138  1.5919 -1.8531
  941TIP3    H2 2788   6.917   1.519   2.879  0.8690  0.4359 -0.3020
  942TIP3   OH2 2789   5.947   1.951   5.064 -0.2665 -0.1499  0.0316
  942TIP3    H1 2790   5.997   1.990   5.136 -2.1584  0.1927  1.2365
  942TIP3    H2 2791   5.903   2.026   5.023  2.0886 -0.0850 -2.6754
  943TIP3   OH2 2792   0.562   2.151   2.452 -0.0421  0.1026  0.6318
  943TIP3    H1 2793   0.621   2.103   2.510  0.5344 -0.4226 -0.3594
  943TIP3    H2 2794   0.587   2.123   2.364 -0.5894  1.2177  0.0990
  944TIP3   OH2 2795   2.962   5.811   3.782  0.4428  0.2381 -0.3438
  944TIP3    H1 2796   2.957   5.804   3.878  0.9404 -1.4678 -0.4175
  944TIP3    H2 2797   2.885   5.862   3.758  0.9401  1.7559  1.0483
  945TIP3   OH2 2798   4.506   3.333   0.245 -0.1436 -0.0202 -0.0560
  945TIP3    H1 2799   4.529   3.366   0.157  0.9705  0.4466  0.3927
  945TIP3    H2 2800   4.529   3.240   0.242  0.8948  0.2209  0.0610
  946TIP3   OH2 2801   4.801   2.136   5.156 -0.2552 -0.1370 -0.1184
  946TIP3    H1 2802   4.763   2.221   5.177 -3.3150 -0.9937 -1.5933
  946TIP3    H2 2803   4.779   2.081   5.231  0.0429 -0.0836  0.0071
  947TIP3   OH2 2804   4.119   3.238   4.125 -0.1098 -0.3460  0.5607
  947TIP3    H1 2805   4.106   3.234   4.219 -1.0659 -0.4928  0.4282
  947TIP3    H2 2806   4.031   3.235   4.088  0.3112 -1.6540 -0.3935
  948TIP3   OH2 2807   0.776   4.352   1.932 -0.2565 -0.7421 -0.1130
  948TIP3    H1 2808   0.686   4.342   1.903 -0.6472  0.8654  0.4657
  948TIP3    H2 2809   0.789   4.280   1.994 -0.5300 -2.0672 -1.5514
  949TIP3   OH2 2810   1.326   0.651   1.324 -0.4732 -0.2222 -0.1193
  949TIP3    H1 2811   1.283   0.636   1.239  1.1273  0.5141 -1.1072
  949TIP3    H2 2812   1.254   0.651   1.387 -1.6981 -0.9645 -1.4458
  950TIP3   OH2 2813   4.373   5.665   0.820  0.1209  0.1406 -0.6175
  950TIP3    H1 2814   4.335   5.733   0.764  0.4193  0.0128 -0.9802
  950TIP3    H2 2815   4.313   5.658   0.894  0.5937  1.5041 -0.0628
  951TIP3   OH2 2816   0.673   2.796   4.218 -0.2765 -0.4896 -0.6841
  951TIP3    H1 2817   0.599   2.740   4.195  0.0687 -0.4720 -1.8758
  951TIP3    H2 2818   0.696   2.770   4.307 -4.3291  2.2920  1.5350
  952TIP3   OH2 2819   5.932   3.469   0.255  0.2097 -0.3046 -0.0310
  952TIP3    H1 2820   5.942   3.534   0.186  0.4933 -0.8939 -0.5577
  952TIP3    H2 2821   5.896   3.392   0.210  0.5600 -0.7502  0.4359
  953TIP3   OH2 2822   5.154   5.308   2.372 -0.0801  0.0913 -0.3801
  953TIP3    H1 2823   5.200   5.360   2.306  0.2778 -0.5764 -0.6625
  953TIP3    H2 2824   5.174   5.351   2.455 -1.3708  1.5553 -0.7831
  954TIP3   OH2 2825   4.550   2.401   5.447  0.3968  0.3109  0.1648
  954TIP3    H1 2826   4.533   2.466   5.379  2.3863 -0.4232 -1.1224
  954TIP3    H2 2827   4.643   2.380   5.438  0.5485 -0.3905  2.6418
  955TIP3   OH2 2828   6.547   0.029   5.647 -0.0191  0.6429  0.6602
  955TIP3    H1 2829   6.569   0.012   5.739 -1.8268  1.0539  1.2016
  955TIP3    H2 2830   6.453   0.047   5.647 -0.1615  0.1736 -1.3479
  956TIP3   OH2 2831   4.246   5.189   0.602  0.0151 -0.5704  0.0643
  956TIP3    H1 2832   4.229   5.175   0.695 -0.8818 -1.2852 -0.1888
  956TIP3    H2 2833   4.212   5.277   0.584 -3.7209 -1.9243 -0.4206
  957TIP3   OH2 2834   5.190   3.663   0.098  0.2020 -0.2518 -0.2800
  957TIP3    H1 2835   5.253   3.735   0.105  0.1406 -0.1504 -0.7172
  957TIP3    H2 2836   5.227   3.593   0.151  0.5171 -0.0767 -0.2653
  958TIP3   OH2 2837   6.588   0.941   2.678 -0.5248  0.2113  0.2135
  958TIP3    H1 2838   6.635   1.012   2.722 -0.9154  0.2613  0.5442
  958TIP3    H2 2839   6.561   0.980   2.594 -0.3613  0.3162  0.2067
  959TIP3   OH2 2840   0.466   6.548   1.515 -0.1338  0.1765 -0.4698
  959TIP3    H1 2841   0.518   6.509   1.586 -2.7166  0.5184  1.7771
  959TIP3    H2 2842   0.423   6.474   1.473 -1.9637  0.1762  1.2439
  960TIP3   OH2 2843   5.666   2.158   4.764 -0.1776 -0.0052  0.4069
  960TIP3    H1 2844   5.724   2.148   4.840 -0.1058  1.9621  0.6629
  960TIP3    H2 2845   5.724   2.150   4.689 -0.3556 -2.6897  0.4651
  961TIP3   OH2 2846   4.738   1.351   1.703 -0.1221 -0.3128 -0.3065
  961TIP3    H1 2847   4.658   1.374   1.751  0.0183  0.6065 -0.5115
  961TIP3    H2 2848   4.786   1.433   1.694  2.5781 -1.3228  2.8594
  962TIP3   OH2 2849   3.731   0.772   3.575 -0.1784  0.3058 -0.3772
  962TIP3    H1 2850   3.770   0.687   3.596 -2.9445 -0.5464  2.0066
  962TIP3    H2 2851   3.664   0.752   3.510 -1.2719  0.4537  0.6521
  963TIP3   OH2 2852  -0.006   1.683   4.743 -0.0242 -0.3498 -0.6098
  963TIP3    H1 2853   0.058   1.650   4.679 -0.0086 -0.6202 -0.4573
  963TIP3    H2 2854  -0.012   1.776   4.725 -0.0578 -0.4313 -1.0453
  964TIP3   OH2 2855   0.208   2.424   0.558  0.6170 -0.1236 -0.2538
  964TIP3    H1 2856   0.269   2.355   0.586  0.2569 -0.1466  0.4989
  964TIP3    H2 2857   0.126   2.378   0.539  0.9092 -0.1350 -1.5787
  965TIP3   OH2 2858   0.517   1.769   3.375  0.3059 -0.7833  0.0827
  965TIP3    H1 2859   0.602   1.772   3.418  1.0160 -1.7684 -1.2025
  965TIP3    H2 2860   0.493   1.676   3.376 -0.4723 -0.5921 -0.1055
  966TIP3   OH2 2861   1.590   2.448   2.007  0.1028 -0.1832  0.5105
  966TIP3    H1 2862   1.569   2.358   1.982 -1.2199  0.2834 -0.1630
  966TIP3    H2 2863   1.683   2.445   2.030  0.7135 -1.2555 -1.7531
  967TIP3   OH2 2864   3.138   5.097   3.089 -0.2228 -0.1015  0.3279
  967TIP3    H1 2865   3.161   5.046   3.011  0.6911 -0.0699  0.5566
  967TIP3    H2 2866   3.172   5.184   3.071  0.4310 -0.2180  0.9528
  968TIP3   OH2 2867   1.898   4.135   3.977 -0.2107  0.7778 -0.3970
  968TIP3    H1 2868   1.855   4.055   3.948 -0.2661  1.6744 -3.1014
  968TIP3    H2 2869   1.826   4.198   3.986  0.0449  1.0418 -0.1866
  969TIP3   OH2 2870   5.564   6.236   2.808 -0.7675 -0.1865  1.0650
  969TIP3    H1 2871   5.552   6.276   2.722  0.2339 -1.9418  0.0551
  969TIP3    H2 2872   5.477   6.239   2.848 -1.7656 -1.2539 -0.8870
  970TIP3   OH2 2873   3.636   6.506   0.820  0.1669 -0.5828 -0.2763
  970TIP3    H1 2874   3.609   6.483   0.909 -0.1194  1.6675  0.2778
  970TIP3    H2 2875   3.727   6.478   0.814  0.6081  0.4496  1.2227
  971TIP3   OH2 2876   5.778   5.268   2.210 -0.1153 -0.1792  0.0302
  971TIP3    H1 2877   5.845   5.254   2.277  0.5250  2.7173  0.1087
  971TIP3    H2 2878   5.808   5.344   2.160 -2.5673  0.2726 -0.9306
  972TIP3   OH2 2879   5.473   3.862   2.891  0.7797 -0.2088  0.0604
  972TIP3    H1 2880   5.554   3.831   2.932  1.1481 -2.1015 -1.9292
  972TIP3    H2 2881   5.422   3.783   2.874 -0.4380  0.7249 -0.8243
  973TIP3   OH2 2882   6.758   0.840   4.422  0.1000  0.2629  0.1391
  973TIP3    H1 2883   6.716   0.898   4.486 -1.6089  0.7998 -1.3803
  973TIP3    H2 2884   6.771   0.895   4.345 -1.3724 -1.2406 -1.2751
  974TIP3   OH2 2885   1.103   0.589   4.293  0.4671  0.0271 -0.1444
  974TIP3    H1 2886   1.187   0.598   4.248 -0.5242  1.6129 -1.7842
  974TIP3    H2 2887   1.079   0.678   4.317 -0.5310 -0.4709  0.7817
  975TIP3   OH2 2888   1.579   0.290   3.155  0.2457  0.0122 -0.1293
  975TIP3    H1 2889   1.537   0.375   3.139 -2.2871 -0.7985  1.6272
  975TIP3    H2 2890   1.612   0.264   3.069 -0.7553  1.8165 -1.1386
  976TIP3   OH2 2891   4.112   6.013   2.509  0.2254  0.2433 -0.4919
  976TIP3    H1 2892   4.111   6.106   2.487  1.7027  0.1176 -1.2216
  976TIP3    H2 2893   4.109   6.012   2.605  1.3753  1.1075 -0.4168
  977TIP3   OH2 2894   6.088   4.722   5.422  0.4203 -0.8744 -0.1906
  977TIP3    H1 2895   6.080   4.817   5.430 -0.9510 -0.8948 -1.1269
  977TIP3    H2 2896   6.034   4.699   5.347  0.7547 -2.4037  0.0045
  978TIP3   OH2 2897   3.297   4.627   5.401 -0.2458  0.1137 -0.2358
  978TIP3    H1 2898   3.242   4.555   5.368  1.1202  0.5638 -4.0672
  978TIP3    H2 2899   3.371   4.584   5.441 -0.4854 -0.6057 -0.5474
  979TIP3   OH2 2900   1.314   2.693   2.866 -0.1106 -0.5488 -0.3362
  979TIP3    H1 2901   1.289   2.644   2.945  0.6280  0.9344  0.8578
  979TIP3    H2 2902   1.408   2.680   2.859  0.6567  2.9002  1.6769
  980TIP3   OH2 2903   0.632   5.351   4.831  0.4286  0.0480 -0.1110
  980TIP3    H1 2904   0.600   5.262   4.845 -1.3726  0.8432  1.1606
  980TIP3    H2 2905   0.645   5.357   4.736 -1.9564 -0.8002 -0.5602
  981TIP3   OH2 2906   3.520   1.740   5.823  0.1139  0.4734 -1.0566
  981TIP3    H1 2907   3.490   1.715   5.735 -0.5078  3.3860 -1.7774
  981TIP3    H2 2908   3.455   1.802   5.854  0.0706 -0.8475  1.7476
  982TIP3   OH2 2909   6.551   0.975   0.469 -0.0469 -0.2960 -0.1262
  982TIP3    H1 2910   6.645   0.983   0.454 -0.2737  1.5643 -0.8443
  982TIP3    H2 2911   6.518   0.924   0.395  0.3307 -0.5304 -0.1301
  983TIP3   OH2 2912   3.370   3.358   4.630 -0.5618  0.4876  1.2177
  983TIP3    H1 2913   3.368   3.402   4.545 -1.5472 -0.0974  0.9184
  983TIP3    H2 2914   3.401   3.270   4.611 -3.0468 -0.4285  1.0394
  984TIP3   OH2 2915   3.699   6.591   1.541 -0.9437 -0.1260  0.9924
  984TIP3    H1 2916   3.735   6.504   1.527 -1.5747 -0.1061 -1.0534
  984TIP3    H2 2917   3.631   6.578   1.607 -1.5137 -1.3407  0.2110
  985TIP3   OH2 2918   4.337   0.947   0.693  0.5477  0.7784  0.0891
  985TIP3    H1 2919   4.401   0.878   0.713 -1.3672 -1.3598 -0.6395
  985TIP3    H2 2920   4.376   0.997   0.623  1.3198 -0.6973 -0.5773
  986TIP3   OH2 2921   5.534   0.598   1.265 -0.3775  0.0605  0.3635
  986TIP3    H1 2922   5.626   0.574   1.271 -0.4386 -0.0129  1.2214
  986TIP3    H2 2923   5.508   0.617   1.356 -1.3321 -0.4085  0.2086
  987TIP3   OH2 2924   4.225   1.113   4.513  0.6792  0.5168  0.4357
  987TIP3    H1 2925   4.264   1.169   4.580 -1.9104  0.2327  2.3237
  987TIP3    H2 2926   4.193   1.037   4.561 -0.3304 -0.2125 -1.2887
  988TIP3   OH2 2927   0.795   6.323   0.260  0.2407 -0.4924 -0.1959
  988TIP3    H1 2928   0.790   6.248   0.319  0.0891 -0.2373  0.1128
  988TIP3    H2 2929   0.877   6.310   0.211  0.1839 -0.8887 -0.1866
  989TIP3   OH2 2930   6.646   1.744   5.414  0.8687 -0.0876  0.5454
  989TIP3    H1 2931   6.624   1.707   5.328 -0.4838  0.4211  0.6326
  989TIP3    H2 2932   6.650   1.669   5.473  0.8125 -0.3460  0.2219
  990TIP3   OH2 2933   5.433   0.438   0.313 -0.1436  0.1560  0.3955
  990TIP3    H1 2934   5.358   0.385   0.285  0.2252 -0.5044  0.6313
  990TIP3    H2 2935   5.449   0.497   0.239 -0.0991 -0.5681 -0.1908
  991TIP3   OH2 2936   5.008   5.218   3.585  0.1803  0.0481 -0.1090
  991TIP3    H1 2937   4.960   5.282   3.532 -0.7530 -1.4944 -1.2190
  991TIP3    H2 2938   5.068   5.176   3.523  0.5429 -0.3690  0.5165
  992TIP3   OH2 2939   1.933   4.748   3.657  0.5692  0.6182  0.2746
  992TIP3    H1 2940   1.968   4.660   3.643 -0.7332  0.1384 -0.1561
  992TIP3    H2 2941   1.936   4.761   3.752  0.5880  0.0151  0.3597
  993TIP3   OH2 2942   4.309   3.032   0.460  0.0879 -0.7988 -0.3467
  993TIP3    H1 2943   4.364   3.013   0.384 -0.8537  1.6738 -1.7684
  993TIP3    H2 2944   4.220   3.032   0.426 -0.4489 -0.6921  1.0026
  994TIP3   OH2 2945   0.583   0.956   3.154  0.3907  0.1840  0.0889
  994TIP3    H1 2946   0.585   1.051   3.163  0.3184  0.2073 -0.1455
  994TIP3    H2 2947   0.558   0.924   3.241 -3.0120  0.5103 -0.6343
  995TIP3   OH2 2948   1.069   6.327   2.940  0.4976  0.4773 -0.3463
  995TIP3    H1 2949   1.156   6.351   2.909  0.9681 -0.7833 -0.0691
  995TIP3    H2 2950   1.016   6.317   2.861  0.6493  1.0275 -0.5229
  996TIP3   OH2 2951   1.343   1.968   2.435 -0.4678  0.0696  0.0892
  996TIP3    H1 2952   1.384   1.891   2.474  0.9113 -0.6504 -2.5676
  996TIP3    H2 2953   1.257   1.973   2.476 -0.1490 -2.2167  1.1501
  997TIP3   OH2 2954   2.333   5.643   4.413 -0.7714  0.6771  0.0695
  997TIP3    H1 2955   2.287   5.649   4.329  0.5247  0.0740 -0.7081
  997TIP3    H2 2956   2.299   5.562   4.452  1.6020 -1.3820 -1.8053
  998TIP3   OH2 2957   5.576   2.860   2.989  0.4739  0.5962  0.1048
  998TIP3    H1 2958   5.603   2.948   2.964 -0.2498  0.9461  0.5342
  998TIP3    H2 2959   5.505   2.837   2.928  0.0940  0.6461  0.5231
  999TIP3   OH2 2960   3.436   5.917   1.254 -0.0861  0.1732 -0.2981
  999TIP3    H1 2961   3.378   5.988   1.284  1.2419  0.1057  2.8570
  999TIP3    H2 2962   3.406   5.841   1.304  0.2986 -0.8192 -1.5561
 1000TIP3   OH2 2963   4.517   1.545   0.827  0.2716  0.2108 -0.1063
 1000TIP3    H1 2964   4.552   1.614   0.771  1.3309 -0.0066  0.2493
 1000TIP3    H2 2965   4.522   1.582   0.915  1.5252 -0.5454  0.1717
 1001TIP3   OH2 2966   6.692   1.681   4.726 -0.3315  0.0847 -0.5926
 1001TIP3    H1 2967   6.743   1.627   4.665  0.8476  0.9794 -0.4169
 1001TIP3    H2 2968   6.605   1.640   4.726  0.6678 -2.1705 -0.0046
 1002TIP3   OH2 2969   1.646   0.026   1.963  0.3024 -0.5302  0.0160
 1002TIP3    H1 2970   1.651   0.031   2.059 -0.7910 -0.3435  0.0726
 1002TIP3    H2 2971   1.566   0.072   1.941  0.7333 -0.2674 -1.0287
 1003TIP3   OH2 2972   4.835   0.641   0.683 -0.5820  0.1471  0.1395
 1003TIP3    H1 2973   4.905   0.646   0.748  0.5394  1.4315 -1.1016
 1003TIP3    H2 2974   4.781   0.566   0.711  1.1165 -0.7112  1.2816
 1004TIP3   OH2 2975   7.141   1.652   3.790  0.5407  0.5023  0.3392
 1004TIP3    H1 2976   7.077   1.612   3.849 -1.1937 -0.0004 -1.7666
 1004TIP3    H2 2977   7.121   1.746   3.794 -0.9647  0.2701 -0.9418
 1005TIP3   OH2 2978   1.024   1.914   3.242  0.3238  0.5780  0.1573
 1005TIP3    H1 2979   1.040   1.864   3.323  2.0833 -0.2633 -0.6452
 1005TIP3    H2 2980   1.062   2.000   3.259  0.2072  0.5816  0.4051
 1006TIP3   OH2 2981   2.948   3.669   2.511  0.1372 -0.5162 -0.4884
 1006TIP3    H1 2982   3.019   3.724   2.546  1.4816 -1.9506 -0.8138
 1006TIP3    H2 2983   2.917   3.716   2.434  0.5135  0.2907 -0.1651
 1007TIP3   OH2 2984   5.029   4.181   2.743 -0.5582 -0.2622  0.0514
 1007TIP3    H1 2985   5.045   4.237   2.819 -0.4222 -0.3639  0.0989
 1007TIP3    H2 2986   5.117   4.159   2.711 -0.6203  0.1063 -0.3744
 1008TIP3   OH2 2987   1.265   6.502   3.239 -0.1477 -0.5445  0.2678
 1008TIP3    H1 2988   1.179   6.507   3.280  0.9274 -1.1537  2.8501
 1008TIP3    H2 2989   1.272   6.411   3.210 -0.9655 -0.0780 -1.5707
 1009TIP3   OH2 2990   5.268   3.127   1.843  0.0573 -0.2937 -0.2234
 1009TIP3    H1 2991   5.335   3.060   1.853  0.8687  0.7265  1.9811
 1009TIP3    H2 2992   5.198   3.100   1.903 -0.8799 -0.5985 -1.4244
 1010TIP3   OH2 2993   7.003   6.620   0.670 -0.4616  0.0325  1.0060
 1010TIP3    H1 2994   7.046   6.624   0.585  1.7265 -2.7446  1.8374
 1010TIP3    H2 2995   7.006   6.528   0.694  1.2295  0.9202  5.1181
 1011TIP3   OH2 2996   3.966   2.969   4.116 -0.2777 -0.1245  1.4600
 1011TIP3    H1 2997   4.006   2.966   4.202  0.2225  1.1353  1.3018
 1011TIP3    H2 2998   4.026   3.023   4.064 -0.0702 -1.6418  0.0533
 1012TIP3   OH2 2999   5.186   1.954   0.957  0.1283  0.2834  0.6130
 1012TIP3    H1 3000   5.142   2.031   0.993  0.9498  0.6456  0.8907
 1012TIP3    H2 3001   5.157   1.882   1.013 -0.7982  0.3528  0.2298
 1013TIP3   OH2 3002   3.434   0.626   4.506 -0.0595 -0.1587 -0.0931
 1013TIP3    H1 3003   3.462   0.612   4.597  0.9670  1.8859 -0.0388
 1013TIP3    H2 3004   3.460   0.717   4.487  0.0619 -0.6487 -2.5417
 1014TIP3   OH2 3005   5.885   3.224   1.150 -0.2202 -0.5319 -0.4633
 1014TIP3    H1 3006   5.956   3.179   1.103 -0.6427 -0.6399 -1.0146
 1014TIP3    H2 3007   5.832   3.263   1.081 -0.8555 -0.6875 -0.0729
 1015TIP3   OH2 3008   0.602   2.568   5.852 -0.1165  0.4666  0.1498
 1015TIP3    H1 3009   0.512   2.544   5.829 -0.0015 -0.2738  0.4273
 1015TIP3    H2 3010   0.595   2.655   5.891 -0.6998  0.4614  0.0637
 1016TIP3   OH2 3011   6.237   0.017   1.635 -0.0982  0.2938  0.0407
 1016TIP3    H1 3012   6.196   0.087   1.584 -0.1303  0.4460  0.2716
 1016TIP3    H2 3013   6.189  -0.062   1.612  1.5720 -0.1492 -2.2036
 1017TIP3   OH2 3014   4.089   6.467   5.602  0.1639  0.0534 -0.3661
 1017TIP3    H1 3015   4.088   6.383   5.556  2.2872  0.4160 -1.1720
 1017TIP3    H2 3016   3.998   6.498   5.596 -0.4734 -1.7696 -0.7939
 1018TIP3   OH2 3017   1.988   0.615   2.436  0.3332 -0.0530  0.3187
 1018TIP3    H1 3018   1.993   0.587   2.527 -0.7580 -2.1793 -0.2190
 1018TIP3    H2 3019   2.062   0.572   2.393 -0.0476 -0.3090 -0.0912
 1019TIP3   OH2 3020   1.805   1.494   1.857 -0.2287  0.3331 -0.1129
 1019TIP3    H1 3021   1.783   1.515   1.947  0.4750  0.7238 -0.0268
 1019TIP3    H2 3022   1.810   1.398   1.855 -3.4244  0.0717 -0.5015
 1020TIP3   OH2 3023   6.036   0.490   3.422 -0.0460 -0.0373 -0.2452
 1020TIP3    H1 3024   6.124   0.526   3.410 -0.2145  0.0192 -1.4267
 1020TIP3    H2 3025   6.047   0.423   3.489  1.5510 -2.2133 -2.5241
 1021TIP3   OH2 3026   1.399   0.105   4.319 -0.3140  0.0728  0.0137
 1021TIP3    H1 3027   1.329   0.170   4.322 -0.2249  0.2021 -0.6758
 1021TIP3    H2 3028   1.373   0.043   4.251 -1.2659 -1.6402  1.8181
 1022TIP3   OH2 3029   3.719   1.593   4.874 -0.0581  0.9340  0.2217
 1022TIP3    H1 3030   3.701   1.560   4.961 -1.6828  1.3794  0.0768
 1022TIP3    H2 3031   3.742   1.685   4.887  0.0812  0.9017  0.2093
 1023TIP3   OH2 3032   5.457   5.117   3.278 -0.3907 -0.2857  0.4306
 1023TIP3    H1 3033   5.468   5.063   3.356 -1.5996  2.9071  3.0440
 1023TIP3    H2 3034   5.527   5.181   3.283 -0.2794 -0.2064 -1.3773
 1024TIP3   OH2 3035   3.668   2.424   1.247 -0.2946 -0.2573  0.1655
 1024TIP3    H1 3036   3.721   2.487   1.295  1.9518 -1.6223 -0.3646
 1024TIP3    H2 3037   3.652   2.354   1.310 -0.0141 -0.6165 -0.1549
 1025TIP3   OH2 3038   4.159   1.333   2.070  0.5513  0.2658  0.5276
 1025TIP3    H1 3039   4.187   1.359   2.158  2.0893  1.3984 -0.2665
 1025TIP3    H2 3040   4.233   1.283   2.035  0.2989  0.5705 -0.4525
 1026TIP3   OH2 3041   7.159   3.590   1.625  0.3744 -0.1018 -0.4222
 1026TIP3    H1 3042   7.168   3.501   1.659  2.0906 -0.1933 -0.9907
 1026TIP3    H2 3043   7.143   3.644   1.703  1.6881 -0.6234  0.2394
 1027TIP3   OH2 3044   7.144   1.158   2.163  0.1267 -0.2115 -0.2036
 1027TIP3    H1 3045   7.163   1.065   2.148  2.9311  0.1720  0.2863
 1027TIP3    H2 3046   7.127   1.165   2.257 -1.2217 -0.3716 -0.4284
 1028TIP3   OH2 3047   3.440   4.512   0.496 -0.3367  0.4298  0.3942
 1028TIP3    H1 3048   3.372   4.470   0.548 -2.4813  0.4079 -2.2163
 1028TIP3    H2 3049   3.412   4.603   0.488  1.3358  1.0676  1.3834
 1029TIP3   OH2 3050   5.211   6.479   2.414  0.2692  0.1042  0.4523
 1029TIP3    H1 3051   5.306   6.484   2.402  0.4770 -0.4566  1.7075
 1029TIP3    H2 3052   5.196   6.393   2.454 -0.8596 -0.1385 -0.4457
 1030TIP3   OH2 3053   3.524   2.356   0.754 -0.2245 -0.1188  0.4327
 1030TIP3    H1 3054   3.581   2.359   0.831 -0.3144 -0.9304  0.5420
 1030TIP3    H2 3055   3.583   2.367   0.679 -0.0447 -0.0185  0.5882
 1031TIP3   OH2 3056   2.365   0.888   1.351 -0.1739 -0.1893  0.4556
 1031TIP3    H1 3057   2.295   0.859   1.292 -1.7466  2.8340  0.6549
 1031TIP3    H2 3058   2.442   0.838   1.323 -1.4883 -0.8531 -2.3550
 1032TIP3   OH2 3059   1.399   3.456   0.605 -0.2601  0.3145 -0.1559
 1032TIP3    H1 3060   1.422   3.546   0.582 -3.4788  1.2063 -0.3327
 1032TIP3    H2 3061   1.335   3.430   0.538 -0.3359 -1.6385  0.6260
 1033TIP3   OH2 3062   3.667   1.843   2.315 -0.1454 -0.2072 -0.8754
 1033TIP3    H1 3063   3.659   1.884   2.401 -0.9372 -0.0222 -1.0317
 1033TIP3    H2 3064   3.701   1.912   2.258 -0.3673 -0.1017 -0.8814
 1034TIP3   OH2 3065   5.101   5.374   4.788 -0.4481 -0.1490 -0.6464
 1034TIP3    H1 3066   5.042   5.429   4.737 -0.5192 -0.6014 -1.0617
 1034TIP3    H2 3067   5.178   5.429   4.805 -1.3318  0.7371  0.6329
 1035TIP3   OH2 3068   1.936   3.410   3.936  0.4823 -0.1439  0.0714
 1035TIP3    H1 3069   1.857   3.398   3.989  0.5775  0.4493  0.3553
 1035TIP3    H2 3070   1.905   3.403   3.845  0.3363 -1.2604  0.1929
 1036TIP3   OH2 3071   4.656   4.767   2.949 -0.1826  0.1965 -0.0392
 1036TIP3    H1 3072   4.645   4.827   3.023  1.9298  0.8004 -0.1583
 1036TIP3    H2 3073   4.666   4.824   2.873  1.7338 -0.2410 -0.1740
 1037TIP3   OH2 3074   6.746   6.528   5.793  0.3460  0.6011  0.5858
 1037TIP3    H1 3075   6.704   6.450   5.830  0.4684  0.4861  0.4857
 1037TIP3    H2 3076   6.791   6.495   5.715  3.4172  0.0739  2.4309
 1038TIP3   OH2 3077   6.447   4.553   1.161  0.1940  0.0424 -0.0931
 1038TIP3    H1 3078   6.530   4.508   1.151  0.1904 -0.0247  0.1569
 1038TIP3    H2 3079   6.396   4.529   1.084  0.2843 -0.1824 -0.0826
 1039TIP3   OH2 3080   3.854   4.157   3.643  0.2003 -0.2160 -0.4898
 1039TIP3    H1 3081   3.793   4.176   3.713  1.8426  2.5845  0.3153
 1039TIP3    H2 3082   3.872   4.241   3.602  0.1519 -1.5859 -3.6311
 1040TIP3   OH2 3083   4.926   1.848   5.299  0.3137 -0.4533  0.0686
 1040TIP3    H1 3084   4.868   1.852   5.376 -1.7383 -1.6065 -1.3091
 1040TIP3    H2 3085   4.953   1.756   5.295 -0.3175 -0.6055 -1.0473
 1041TIP3   OH2 3086   5.461   2.397   4.555 -0.8664 -0.2376 -0.1113
 1041TIP3    H1 3087   5.370   2.371   4.570 -0.7752 -1.0220 -0.8617
 1041TIP3    H2 3088   5.465   2.413   4.461 -0.8056  2.0978  0.2304
 1042TIP3   OH2 3089   5.854   4.718   3.426 -0.5101  0.5776 -0.1338
 1042TIP3    H1 3090   5.884   4.721   3.517 -0.7445 -0.0380 -0.0337
 1042TIP3    H2 3091   5.917   4.660   3.382 -0.9075  0.1666 -0.1664
 1043TIP3   OH2 3092   6.179   2.775   3.219  0.0820 -0.8867  0.0939
 1043TIP3    H1 3093   6.120   2.830   3.271 -0.2790 -2.1871  1.1484
 1043TIP3    H2 3094   6.235   2.836   3.173 -1.2373  0.3779  0.0894
 1044TIP3   OH2 3095   6.466   5.593   2.106 -0.3892 -0.7036 -0.6696
 1044TIP3    H1 3096   6.406   5.565   2.174  0.0962 -0.6519 -0.2185
 1044TIP3    H2 3097   6.409   5.620   2.033 -0.9324 -0.0270 -0.0088
 1045TIP3   OH2 3098   5.602   5.388   2.391 -0.1975  0.2352 -0.8482
 1045TIP3    H1 3099   5.626   5.330   2.318  0.7181 -0.4035 -0.0531
 1045TIP3    H2 3100   5.663   5.366   2.461 -2.1970 -0.4398  0.7806
 1046TIP3   OH2 3101   2.897   5.286   3.088 -0.8283 -0.0621 -0.6846
 1046TIP3    H1 3102   2.807   5.280   3.120 -1.5953  0.1627 -2.6424
 1046TIP3    H2 3103   2.949   5.241   3.155 -2.0017  2.0270  1.8073
 1047TIP3   OH2 3104   3.021   2.346   5.234 -0.4102 -0.6205 -0.2135
 1047TIP3    H1 3105   2.985   2.365   5.321 -0.4707  1.1087 -0.5766
 1047TIP3    H2 3106   3.034   2.252   5.234 -1.8265 -0.8632  1.1293
 1048TIP3   OH2 3107   5.298   3.053   1.409  0.0340  0.0113 -0.0982
 1048TIP3    H1 3108   5.349   2.982   1.450 -0.0845  0.5872  1.0966
 1048TIP3    H2 3109   5.250   3.093   1.482  1.2598  2.3124 -0.4572
 1049TIP3   OH2 3110   2.628   6.715   5.897 -0.4413  0.0800  0.0134
 1049TIP3    H1 3111   2.621   6.700   5.802 -1.5530 -0.8997  0.2341
 1049TIP3    H2 3112   2.541   6.697   5.931  0.2268 -0.7480  1.3771
 1050TIP3   OH2 3113   6.629   5.967   5.544 -0.1283  0.0572  0.3939
 1050TIP3    H1 3114   6.586   5.975   5.459 -0.3989  2.1846  0.6814
 1050TIP3    H2 3115   6.720   5.946   5.523 -0.3709 -0.2753 -0.3748
 1051TIP3   OH2 3116   4.666   1.700   5.407 -0.5002 -0.5473  0.1063
 1051TIP3    H1 3117   4.581   1.727   5.373  0.7146  1.1913 -1.7600
 1051TIP3    H2 3118   4.693   1.772   5.463  0.5947 -0.1112 -0.9411
 1052TIP3   OH2 3119   0.492   1.872   0.279  0.3929 -0.6339 -0.0878
 1052TIP3    H1 3120   0.491   1.868   0.375  0.1736 -0.0736 -0.0645
 1052TIP3    H2 3121   0.400   1.873   0.254  0.4506 -0.5791 -0.2980
 1053TIP3   OH2 3122   3.161   5.256   1.252 -0.2334 -0.2149 -0.3095
 1053TIP3    H1 3123   3.184   5.306   1.330 -0.0765 -0.4427 -0.2093
 1053TIP3    H2 3124   3.165   5.320   1.181  1.7478 -0.4403 -0.4667
 1054TIP3   OH2 3125   5.986   3.531   5.343 -0.1021  0.2632 -0.5098
 1054TIP3    H1 3126   6.033   3.501   5.421 -1.5493 -0.8211 -0.0106
 1054TIP3    H2 3127   6.017   3.621   5.329  2.4437 -0.5509 -0.5180
 1055TIP3   OH2 3128   5.273   4.219   0.398 -0.4266 -0.3908 -0.1474
 1055TIP3    H1 3129   5.338   4.165   0.442  0.7267 -0.0981 -1.4274
 1055TIP3    H2 3130   5.209   4.157   0.364  0.8346 -1.0064 -1.5303
 1056TIP3   OH2 3131   3.872   3.304   1.827  0.1554 -0.1976 -0.1911
 1056TIP3    H1 3132   3.923   3.377   1.793 -1.0560  0.5329 -0.4937
 1056TIP3    H2 3133   3.856   3.328   1.919  0.4704 -0.5007 -0.0539
 1057TIP3   OH2 3134   2.014   5.610   0.140 -0.7973 -0.7875  0.2720
 1057TIP3    H1 3135   2.106   5.621   0.163 -0.7551 -0.7847  0.0973
 1057TIP3    H2 3136   2.013   5.542   0.073 -0.6021  1.4240 -2.1052
 1058TIP3   OH2 3137   0.613   1.613   2.616 -0.3023 -0.4738 -0.0705
 1058TIP3    H1 3138   0.602   1.529   2.661  0.1341 -0.0905  0.7663
 1058TIP3    H2 3139   0.639   1.674   2.684  1.2410 -0.0573 -0.9772
 1059TIP3   OH2 3140   5.069   4.439   3.231 -0.0395 -0.2959  0.2826
 1059TIP3    H1 3141   5.009   4.511   3.248  1.7589  1.1599  0.8762
 1059TIP3    H2 3142   5.060   4.382   3.307  0.5760  0.8651  1.2759
 1060TIP3   OH2 3143   0.340   5.482   3.168  0.4403  0.2847  0.0307
 1060TIP3    H1 3144   0.337   5.408   3.229 -1.9814  0.5076  0.2861
 1060TIP3    H2 3145   0.369   5.556   3.222 -0.4496  0.2146  0.6186
 1061TIP3   OH2 3146   6.388   6.098   0.227 -0.5953 -0.2720 -0.5712
 1061TIP3    H1 3147   6.341   6.015   0.222  0.5488 -0.9462 -0.5577
 1061TIP3    H2 3148   6.330   6.156   0.277 -1.6294 -0.8964 -1.0210
 1062TIP3   OH2 3149   1.206   2.297   5.125 -0.0656 -0.0417  0.2707
 1062TIP3    H1 3150   1.112   2.280   5.125 -0.3260  1.0040  2.6867
 1062TIP3    H2 3151   1.237   2.267   5.210  1.6166  0.5808 -0.0641
 1063TIP3   OH2 3152   3.266   5.507   3.248 -0.1966 -0.2634  0.0118
 1063TIP3    H1 3153   3.346   5.549   3.216  1.2572 -1.0381  2.3778
 1063TIP3    H2 3154   3.211   5.579   3.277 -0.5064  0.2952 -1.8448
 1064TIP3   OH2 3155   4.909   2.360   1.708 -0.3569 -0.3231 -0.1396
 1064TIP3    H1 3156   4.987   2.314   1.740  1.0623  1.1777 -1.2816
 1064TIP3    H2 3157   4.884   2.312   1.629  0.4730  0.1750 -0.7248
 1065TIP3   OH2 3158   7.149   4.801   0.997  0.6216 -0.2306 -0.4103
 1065TIP3    H1 3159   7.189   4.883   1.026 -0.3713  0.6551 -1.4460
 1065TIP3    H2 3160   7.130   4.754   1.079  2.0461  0.1346  0.1625
 1066TIP3   OH2 3161   4.699   5.142   2.536 -0.5851 -0.2664 -0.4887
 1066TIP3    H1 3162   4.684   5.233   2.562  0.0753 -0.2399 -0.1689
 1066TIP3    H2 3163   4.628   5.122   2.475 -1.4275  0.0905  0.3411
 1067TIP3   OH2 3164   1.378   5.850   0.190  0.1977  0.6171  0.2748
 1067TIP3    H1 3165   1.337   5.780   0.241 -1.2513  1.0616 -0.2075
 1067TIP3    H2 3166   1.395   5.919   0.253 -2.0615  1.3692  0.1449
 1068TIP3   OH2 3167   5.601   1.780   2.824 -0.2921 -0.6123  0.1562
 1068TIP3    H1 3168   5.691   1.787   2.856 -0.4662 -2.3163  1.1737
 1068TIP3    H2 3169   5.604   1.810   2.733  1.0170  0.6295  0.5816
 1069TIP3   OH2 3170   7.033   3.978   0.069  0.1540 -0.1565 -0.2345
 1069TIP3    H1 3171   7.002   3.985   0.159 -1.1707  0.1350 -0.6853
 1069TIP3    H2 3172   6.959   3.941   0.022  0.9293 -0.5626 -1.1578
 1070TIP3   OH2 3173   0.056   6.325   2.267  0.3130 -0.2744 -0.2369
 1070TIP3    H1 3174   0.009   6.322   2.183 -1.0923 -0.1197  0.5158
 1070TIP3    H2 3175   0.110   6.245   2.267  1.8797  0.7026 -2.1114
 1071TIP3   OH2 3176   4.322   2.192   0.697  1.1152 -0.5045  0.4695
 1071TIP3    H1 3177   4.366   2.232   0.622 -1.1364 -0.4282 -0.9311
 1071TIP3    H2 3178   4.314   2.100   0.673 -1.5664 -0.1026 -0.5169
 1072TIP3   OH2 3179   2.689   2.008   3.674  0.2465  0.3715 -0.0917
 1072TIP3    H1 3180   2.732   1.952   3.739  0.3299  2.6953  2.0253
 1072TIP3    H2 3181   2.760   2.061   3.637 -0.1190  0.6902 -0.3447
 1073TIP3   OH2 3182   3.673   0.091   1.361 -0.4959 -0.3975 -0.0301
 1073TIP3    H1 3183   3.604   0.025   1.370 -2.2567  1.2354 -1.0769
 1073TIP3    H2 3184   3.634   0.172   1.395  0.9288  0.5579 -0.5877
 1074TIP3   OH2 3185   6.270   4.333   0.080 -0.0638  0.2475  0.0150
 1074TIP3    H1 3186   6.337   4.326   0.012  0.6123  0.9889  0.5743
 1074TIP3    H2 3187   6.189   4.353   0.033  0.7416  2.7183 -0.4933
 1075TIP3   OH2 3188   0.408   6.386   4.516 -0.7782 -0.0541  0.0091
 1075TIP3    H1 3189   0.474   6.455   4.527 -2.1858  1.3582 -0.0040
 1075TIP3    H2 3190   0.455   6.315   4.472  0.9753  0.4807  0.8993
 1076TIP3   OH2 3191   6.182   3.290   2.791  0.1766 -0.1946  0.1015
 1076TIP3    H1 3192   6.184   3.371   2.842  1.2158 -0.0387 -0.1574
 1076TIP3    H2 3193   6.211   3.316   2.704 -3.8786  0.0206 -1.3738
 1077TIP3   OH2 3194   3.784   0.699   3.949 -0.0103 -0.5064  0.1516
 1077TIP3    H1 3195   3.835   0.698   3.868 -2.2588 -0.3502 -1.3327
 1077TIP3    H2 3196   3.715   0.634   3.935 -1.2200  0.4641  1.4258
 1078TIP3   OH2 3197   1.559   3.522   0.031  0.1305 -0.0540  0.0247
 1078TIP3    H1 3198   1.486   3.574   0.065 -0.7472 -1.0476 -0.2973
 1078TIP3    H2 3199   1.530   3.491  -0.054  0.2056 -1.8932  0.6188
 1079TIP3   OH2 3200   6.851   3.425   5.817 -0.3624  0.1943 -0.0051
 1079TIP3    H1 3201   6.898   3.434   5.900  1.0117 -0.1066 -0.7224
 1079TIP3    H2 3202   6.817   3.513   5.799  1.2585  0.8057 -0.2184
 1080TIP3   OH2 3203   2.513   4.596   3.592 -0.2438  0.3028  0.2542
 1080TIP3    H1 3204   2.553   4.522   3.546 -1.9539  0.5870 -1.8118
 1080TIP3    H2 3205   2.549   4.590   3.681  1.2449 -1.7698 -0.3929
 1081TIP3   OH2 3206   3.707   6.748   0.652  0.0717  0.0178 -0.1270
 1081TIP3    H1 3207   3.749   6.675   0.606 -1.2733 -1.1614  0.4359
 1081TIP3    H2 3208   3.647   6.706   0.713 -0.3740  1.6103  0.5711
 1082TIP3   OH2 3209   5.812   6.648   4.482  0.0141 -0.3024  0.7422
 1082TIP3    H1 3210   5.876   6.611   4.421 -1.1565  0.8738 -1.3158
 1082TIP3    H2 3211   5.813   6.742   4.463 -1.9589 -0.2011  0.9594
 1083TIP3   OH2 3212   2.891   1.641   4.524 -0.2267 -0.7748  0.2374
 1083TIP3    H1 3213   2.924   1.567   4.472  1.9871 -0.1217  0.6408
 1083TIP3    H2 3214   2.836   1.690   4.462  0.0050 -1.5892 -0.6429
 1084TIP3   OH2 3215   2.003   5.905   4.779  1.0195 -0.1679  0.0357
 1084TIP3    H1 3216   2.038   5.847   4.847 -0.3185  0.8821  1.7277
 1084TIP3    H2 3217   2.052   5.986   4.788  1.0665 -0.1305 -0.5105
 1085TIP3   OH2 3218   0.817   1.819   1.137 -0.1179  0.0613 -0.7559
 1085TIP3    H1 3219   0.784   1.854   1.054  0.1713  0.3034 -0.7730
 1085TIP3    H2 3220   0.901   1.779   1.114  0.1484  0.4707 -0.5164
 1086TIP3   OH2 3221   0.207   3.641   1.234 -0.0988 -0.0233 -0.2488
 1086TIP3    H1 3222   0.249   3.592   1.164 -0.6982 -2.1865  0.8092
 1086TIP3    H2 3223   0.230   3.732   1.217  1.1363 -0.6511 -2.2848
 1087TIP3   OH2 3224   4.907   0.941   1.352  0.1622  0.0823 -0.6520
 1087TIP3    H1 3225   4.830   0.919   1.405  1.2887 -0.0636  0.9925
 1087TIP3    H2 3226   4.885   0.910   1.264 -2.5086  1.9291 -0.7769
 1088TIP3   OH2 3227   5.094   4.898   2.625 -0.2849  0.4483  0.5718
 1088TIP3    H1 3228   5.133   4.979   2.658  0.9674 -0.4209  1.3135
 1088TIP3    H2 3229   5.095   4.908   2.530  1.8387  0.4769  0.5420
 1089TIP3   OH2 3230   2.360   5.221   4.094  0.2186  0.0063 -0.3918
 1089TIP3    H1 3231   2.371   5.126   4.093  0.1535 -0.0054 -1.5697
 1089TIP3    H2 3232   2.293   5.239   4.028  0.6006  0.9087 -0.5611
 1090TIP3   OH2 3233   6.558   5.115   2.613 -0.1483  0.5150 -0.1427
 1090TIP3    H1 3234   6.645   5.113   2.654 -0.7857 -1.3257  1.2892
 1090TIP3    H2 3235   6.576   5.129   2.520  1.8100 -0.9119 -0.0607
 1091TIP3   OH2 3236   2.808   6.396   1.213 -0.5404 -0.4506  0.2425
 1091TIP3    H1 3237   2.778   6.477   1.254 -0.8899 -0.5145  0.1183
 1091TIP3    H2 3238   2.728   6.346   1.197 -0.6629  0.4721 -2.4726
 1092TIP3   OH2 3239   1.748   0.908   5.783 -0.2998  0.3741  0.0956
 1092TIP3    H1 3240   1.830   0.955   5.767  0.2913  0.2115  2.3279
 1092TIP3    H2 3241   1.741   0.903   5.879 -2.3881 -0.5593 -0.0414
 1093TIP3   OH2 3242   6.065   5.085   3.713 -0.3452 -0.5362 -0.3270
 1093TIP3    H1 3243   6.116   5.104   3.634  1.9159 -0.7419  0.9819
 1093TIP3    H2 3244   6.067   5.167   3.762 -1.4588 -0.5017 -0.3284
 1094TIP3   OH2 3245   5.224   2.074   4.003 -0.2883 -0.4130  0.5057
 1094TIP3    H1 3246   5.312   2.040   4.022 -0.5749 -1.7895 -0.4298
 1094TIP3    H2 3247   5.177   1.998   3.968 -2.3373 -0.0943  2.4135
 1095TIP3   OH2 3248   2.176   5.252   2.229  0.4624  0.1186 -0.1964
 1095TIP3    H1 3249   2.167   5.169   2.278 -0.6428 -0.0452 -0.6531
 1095TIP3    H2 3250   2.087   5.283   2.218  0.9135  2.1187  1.1820
 1096TIP3   OH2 3251   2.611   0.254   3.502  0.2353 -0.3587 -0.3438
 1096TIP3    H1 3252   2.651   0.192   3.563  0.3089 -0.3252 -0.3574
 1096TIP3    H2 3253   2.525   0.273   3.539 -0.0922 -1.0488 -0.7333
 1097TIP3   OH2 3254   4.264   5.108   2.338 -0.5347 -0.7062  0.5760
 1097TIP3    H1 3255   4.225   5.190   2.307  0.2130  0.3119  2.1457
 1097TIP3    H2 3256   4.358   5.120   2.325 -0.4520 -1.5435  0.3446
 1098TIP3   OH2 3257   1.897   2.387   3.093 -0.0244  0.0192 -0.3223
 1098TIP3    H1 3258   1.944   2.391   3.010  1.7211 -1.3263  0.5210
 1098TIP3    H2 3259   1.948   2.324   3.145 -2.1934 -0.6869  1.0472
 1099TIP3   OH2 3260   0.485   6.107   4.042 -0.4669  0.1934 -0.3647
 1099TIP3    H1 3261   0.413   6.102   3.979 -0.8559 -1.0983  0.1774
 1099TIP3    H2 3262   0.517   6.017   4.050  1.2860  0.7409 -0.6641
 1100TIP3   OH2 3263   2.403   5.154   2.091 -0.0706 -0.6052  0.8187
 1100TIP3    H1 3264   2.334   5.192   2.145 -1.9450 -0.9646 -1.1713
 1100TIP3    H2 3265   2.374   5.064   2.074  1.0722 -0.8860  0.2283
 1101TIP3   OH2 3266   2.395   4.129   0.996 -0.3450 -0.0370 -0.7729
 1101TIP3    H1 3267   2.350   4.120   0.912 -0.3487 -0.7998 -0.6960
 1101TIP3    H2 3268   2.472   4.072   0.989  1.1219  1.9142 -1.2290
 1102TIP3   OH2 3269   6.964   5.233   4.152 -0.3082 -0.0492  0.4190
 1102TIP3    H1 3270   7.044   5.236   4.204  0.0027  0.4413 -0.0708
 1102TIP3    H2 3271   6.953   5.141   4.129 -0.4128 -0.2606  1.2838
 1103TIP3   OH2 3272   2.927   5.404   4.232  0.3185 -0.6550  0.0881
 1103TIP3    H1 3273   2.905   5.377   4.322  1.4274 -0.7421  0.3425
 1103TIP3    H2 3274   3.017   5.374   4.219  0.7762  0.8695 -0.4367
 1104TIP3   OH2 3275   0.490   6.591   2.404 -0.6531 -0.7698 -0.8086
 1104TIP3    H1 3276   0.476   6.685   2.391 -0.1511 -0.6377 -0.4527
 1104TIP3    H2 3277   0.567   6.587   2.461 -1.7416 -1.3505  0.6933
 1105TIP3   OH2 3278   6.986   1.263   4.919 -0.5388 -0.0730 -0.0735
 1105TIP3    H1 3279   7.060   1.240   4.975  1.1469  0.4166 -1.9570
 1105TIP3    H2 3280   6.992   1.202   4.845 -0.5222  1.4852 -1.4268
 1106TIP3   OH2 3281   5.140   2.742   3.877  0.1706 -0.1759  0.6527
 1106TIP3    H1 3282   5.080   2.667   3.876  0.6318 -0.5398  0.5076
 1106TIP3    H2 3283   5.100   2.802   3.940 -1.7527  0.7423 -1.2961
 1107TIP3   OH2 3284   5.075   3.402   3.400 -0.2967  0.1677  0.0892
 1107TIP3    H1 3285   5.150   3.357   3.437  0.3071  1.5084  0.5336
 1107TIP3    H2 3286   5.068   3.484   3.449 -1.0787  0.7944 -1.0048
 1108TIP3   OH2 3287   6.450   4.028   1.423  0.1873 -0.2788  0.4261
 1108TIP3    H1 3288   6.464   3.942   1.463 -2.1743 -1.5851 -1.2842
 1108TIP3    H2 3289   6.533   4.049   1.381  1.0397 -1.3598  1.5265
 1109TIP3   OH2 3290   2.141   1.635   1.868  0.2921 -0.1548 -0.1840
 1109TIP3    H1 3291   2.228   1.673   1.884 -0.7074  1.8101  0.9394
 1109TIP3    H2 3292   2.117   1.595   1.952 -1.6099  3.1009  0.9784
 1110TIP3   OH2 3293   4.447   5.162   5.718 -0.8014 -0.4264 -0.1185
 1110TIP3    H1 3294   4.387   5.197   5.785 -0.7496 -0.0520 -0.2622
 1110TIP3    H2 3295   4.416   5.073   5.702  0.4681 -1.3184  1.9516
 1111TIP3   OH2 3296   1.373   1.135   4.138  0.3271  0.1455  0.0605
 1111TIP3    H1 3297   1.336   1.048   4.127 -2.2151  1.2525 -1.0184
 1111TIP3    H2 3298   1.333   1.168   4.219  0.6651  0.6034  0.0455
 1112TIP3   OH2 3299   1.332   3.685   0.073 -0.0526 -0.4687 -0.0725
 1112TIP3    H1 3300   1.318   3.736   0.153 -1.6176 -0.2526 -0.4515
 1112TIP3    H2 3301   1.378   3.745   0.014  0.2881 -0.3217  0.3377
 1113TIP3   OH2 3302   4.558   3.541   4.294 -0.4855  0.1665 -0.0115
 1113TIP3    H1 3303   4.473   3.502   4.276 -0.2852  0.3445 -1.4925
 1113TIP3    H2 3304   4.549   3.581   4.380 -1.2091 -1.6993  0.8325
 1114TIP3   OH2 3305   6.136   4.930   3.208  0.0650 -0.0010 -0.4149
 1114TIP3    H1 3306   6.132   4.853   3.152 -0.3002 -1.1185  1.0790
 1114TIP3    H2 3307   6.204   4.984   3.169 -0.5481 -0.4514 -2.2366
 1115TIP3   OH2 3308   4.064   0.980   1.478  0.1370  0.5062  0.1786
 1115TIP3    H1 3309   4.027   1.066   1.501  1.2086  1.4035 -1.2402
 1115TIP3    H2 3310   4.070   0.982   1.382 -0.7968 -1.5998  0.0207
 1116TIP3   OH2 3311   3.075   1.055   5.116 -0.0585 -0.3133  0.1772
 1116TIP3    H1 3312   2.986   1.046   5.151 -0.3097 -0.6862 -0.5232
 1116TIP3    H2 3313   3.123   0.981   5.153 -0.1729 -0.3971  0.1578
 1117TIP3   OH2 3314   0.832   0.219   1.484  0.0570 -0.2675  0.4628
 1117TIP3    H1 3315   0.885   0.286   1.440  0.3288 -0.7136  0.1127
 1117TIP3    H2 3316   0.786   0.268   1.553  1.9105 -0.0883  1.6504
 1118TIP3   OH2 3317   6.652   5.382   2.106  0.0728 -0.0835  0.1243
 1118TIP3    H1 3318   6.606   5.465   2.113  0.1647 -0.0070 -0.1909
 1118TIP3    H2 3319   6.587   5.316   2.134 -1.3686 -0.3438 -3.3683
 1119TIP3   OH2 3320   3.560   1.855   5.087 -0.0158  0.1923 -0.1736
 1119TIP3    H1 3321   3.579   1.888   5.175  0.3659 -0.5288  0.0161
 1119TIP3    H2 3322   3.645   1.855   5.043 -0.3493  1.4735 -0.8735
 1120TIP3   OH2 3323   2.085   3.013   4.910 -0.0853  0.2333 -0.0555
 1120TIP3    H1 3324   2.121   3.100   4.894 -1.0275  0.3060 -2.0759
 1120TIP3    H2 3325   2.052   3.017   5.000  0.6634  1.6736  0.1867
 1121TIP3   OH2 3326   5.324   0.102   3.799  0.0386 -0.1189  0.0609
 1121TIP3    H1 3327   5.366   0.122   3.715  0.3824 -0.9068  0.0453
 1121TIP3    H2 3328   5.249   0.162   3.802 -1.3649 -1.6242 -1.8929
 1122TIP3   OH2 3329   7.002   1.885   1.180 -0.2366 -0.1803 -0.2838
 1122TIP3    H1 3330   7.005   1.958   1.118  1.3827 -0.0123 -0.0660
 1122TIP3    H2 3331   7.002   1.807   1.125 -0.3476 -0.0207 -0.5108
 1123TIP3   OH2 3332   4.199   4.786   4.010 -0.3549 -0.9104  0.5387
 1123TIP3    H1 3333   4.214   4.873   3.973  0.9204 -2.2221 -2.3317
 1123TIP3    H2 3334   4.276   4.770   4.064  0.4899 -1.0947 -0.6997
 1124TIP3   OH2 3335   6.489   2.731   3.467 -0.2055 -0.1078 -0.1890
 1124TIP3    H1 3336   6.513   2.814   3.425 -2.1622 -0.1975 -1.6437
 1124TIP3    H2 3337   6.430   2.689   3.404 -1.3743 -1.3977  1.6725
 1125TIP3   OH2 3338   6.871   0.720   4.688 -0.3090 -0.5054  0.7007
 1125TIP3    H1 3339   6.831   0.739   4.603 -0.2636  1.2737  1.0449
 1125TIP3    H2 3340   6.965   0.718   4.671 -0.3222 -0.5847  0.6359
 1126TIP3   OH2 3341   3.497   3.355   0.340  0.4077  0.0914  0.5872
 1126TIP3    H1 3342   3.484   3.450   0.345 -1.1731 -0.0377 -0.5706
 1126TIP3    H2 3343   3.428   3.324   0.282 -0.5681 -2.0930  2.7821
 1127TIP3   OH2 3344   4.127   2.217   0.346 -0.1861 -0.4944 -0.2861
 1127TIP3    H1 3345   4.061   2.218   0.277 -1.3013  0.4672  0.7602
 1127TIP3    H2 3346   4.078   2.208   0.427  0.9799  0.0106  0.5033
 1128TIP3   OH2 3347   2.204   6.405   5.397  0.7797 -0.2604 -0.1375
 1128TIP3    H1 3348   2.276   6.432   5.454  0.2916 -0.1492  0.4411
 1128TIP3    H2 3349   2.137   6.372   5.457 -0.2666  1.0467 -0.5399
 1129TIP3   OH2 3350   0.712   3.406   2.153 -0.5866  0.3376  0.8005
 1129TIP3    H1 3351   0.805   3.395   2.133 -1.0394  1.0080 -2.1667
 1129TIP3    H2 3352   0.700   3.501   2.163 -1.0107  0.3072  0.6330
 1130TIP3   OH2 3353   4.891   4.280   0.746  0.6985  0.1848  0.0559
 1130TIP3    H1 3354   4.975   4.238   0.766  0.6518 -1.6487 -3.0060
 1130TIP3    H2 3355   4.838   4.263   0.824  2.2909 -1.1096  0.9370
 1131TIP3   OH2 3356   4.733   0.682   1.010 -0.4368  0.8283  0.1128
 1131TIP3    H1 3357   4.656   0.730   0.980 -0.5582  0.6107  0.0733
 1131TIP3    H2 3358   4.704   0.638   1.090 -0.2821  0.9420  0.2320
 1132TIP3   OH2 3359   5.585   2.214   3.404 -0.0848 -0.1609  0.6744
 1132TIP3    H1 3360   5.650   2.176   3.464  1.5198 -0.5724 -1.2098
 1132TIP3    H2 3361   5.594   2.308   3.417  1.3481 -0.1813  0.0558
 1133TIP3   OH2 3362   1.167   4.180   3.694  0.0462  0.1187  0.5660
 1133TIP3    H1 3363   1.192   4.088   3.700 -1.7684 -0.4385  0.3219
 1133TIP3    H2 3364   1.245   4.224   3.661  1.2400 -1.1799  1.5555
 1134TIP3   OH2 3365   0.305   3.960   5.242  0.0596  0.5889  0.6630
 1134TIP3    H1 3366   0.229   3.976   5.298  0.2874 -0.6648  1.3746
 1134TIP3    H2 3367   0.380   3.970   5.301  0.4231  1.3661  0.0736
 1135TIP3   OH2 3368   7.232   5.808   0.846 -0.1414 -0.0681  0.3891
 1135TIP3    H1 3369   7.174   5.836   0.776 -1.0725  0.8737  1.4920
 1135TIP3    H2 3370   7.188   5.836   0.927  2.1677  1.3481  1.2579
 1136TIP3   OH2 3371   1.356   3.179   5.851 -0.1255  0.4740 -0.3334
 1136TIP3    H1 3372   1.441   3.143   5.825 -0.0924  1.1490 -1.1770
 1136TIP3    H2 3373   1.302   3.102   5.866  1.0883 -0.0428  1.8852
 1137TIP3   OH2 3374   7.178   1.332   2.697  0.2292  0.2048  0.0082
 1137TIP3    H1 3375   7.184   1.242   2.665  0.2796  0.6538 -1.3182
 1137TIP3    H2 3376   7.197   1.386   2.620 -2.0539  1.4042  0.1863
 1138TIP3   OH2 3377   2.742   4.339   5.178  0.1225 -0.1145  0.0704
 1138TIP3    H1 3378   2.787   4.418   5.206 -0.8814  0.8616 -0.9496
 1138TIP3    H2 3379   2.682   4.319   5.250 -0.2831  0.6148 -0.0501
 1139TIP3   OH2 3380   3.460   0.967   1.451  0.1050  0.0292 -0.2164
 1139TIP3    H1 3381   3.422   0.986   1.537 -1.3324 -0.0303 -0.8067
 1139TIP3    H2 3382   3.451   0.872   1.441  1.1057 -0.0877 -0.0626
 1140TIP3   OH2 3383   2.336   3.160   0.732  0.2178 -0.2332 -0.0160
 1140TIP3    H1 3384   2.388   3.109   0.670  0.2971  0.7554 -0.7868
 1140TIP3    H2 3385   2.295   3.229   0.679 -1.7074 -0.8305  0.6019
 1141TIP3   OH2 3386   0.954   3.841   2.758 -0.4121 -0.1854  0.3152
 1141TIP3    H1 3387   0.981   3.842   2.667  2.0458  2.2776  0.9550
 1141TIP3    H2 3388   1.027   3.880   2.806 -1.8849 -0.7513  3.2718
 1142TIP3   OH2 3389   0.005   5.564   0.128 -0.3529 -0.6280  0.2779
 1142TIP3    H1 3390  -0.042   5.646   0.144 -1.0202 -1.1142  0.9027
 1142TIP3    H2 3391   0.095   5.581   0.154 -0.4890 -0.0876  0.3948
 1143TIP3   OH2 3392   3.328   0.377   5.831  0.0167  0.2285 -0.4454
 1143TIP3    H1 3393   3.246   0.329   5.831 -0.1365  0.4883 -0.1131
 1143TIP3    H2 3394   3.310   0.456   5.882  0.6588 -0.0465  0.2263
 1144TIP3   OH2 3395   5.784   6.086   2.860 -0.2598 -0.8349 -0.0253
 1144TIP3    H1 3396   5.713   6.145   2.836 -0.4113 -0.6535  0.8501
 1144TIP3    H2 3397   5.860   6.119   2.812  0.0650  1.0954  1.6919
 1145TIP3   OH2 3398   0.230   5.180   2.587  0.5943  0.1190  0.4705
 1145TIP3    H1 3399   0.218   5.145   2.675 -0.0726 -1.8246 -0.3477
 1145TIP3    H2 3400   0.224   5.275   2.599 -2.1437 -0.1411  2.1934
 1146TIP3   OH2 3401   5.744   0.459   2.843 -0.1696  0.0289 -0.2681
 1146TIP3    H1 3402   5.703   0.392   2.897  0.5063 -0.0229  0.1995
 1146TIP3    H2 3403   5.762   0.531   2.904  0.2927  0.1073 -0.4920
 1147TIP3   OH2 3404   2.071   2.815   5.337  0.4804  0.2189  0.4920
 1147TIP3    H1 3405   2.106   2.903   5.324 -0.3524  0.7381  1.5929
 1147TIP3    H2 3406   2.107   2.764   5.265  1.9319  1.1736  0.5032
 1148TIP3   OH2 3407   1.305   4.155   3.060 -0.4201  0.6802 -0.0243
 1148TIP3    H1 3408   1.242   4.213   3.103  2.0326  3.2434  0.4115
 1148TIP3    H2 3409   1.302   4.181   2.968  0.3872  1.2486  0.1014
 1149TIP3   OH2 3410   5.928   4.881   4.788 -0.2504 -0.2046 -0.1553
 1149TIP3    H1 3411   5.919   4.826   4.866 -0.7208  1.2738  0.8708
 1149TIP3    H2 3412   5.858   4.946   4.796 -0.6794 -0.3675 -2.1257
 1150TIP3   OH2 3413   2.192   2.531   1.924  0.1042  0.0643  0.1250
 1150TIP3    H1 3414   2.115   2.478   1.904  0.5241 -0.5913  0.2021
 1150TIP3    H2 3415   2.188   2.544   2.019  0.4982 -0.6284  0.2399
 1151TIP3   OH2 3416   0.600   4.881   0.157  0.2844 -0.5993  0.1692
 1151TIP3    H1 3417   0.652   4.916   0.229 -0.8272 -1.0169  1.2198
 1151TIP3    H2 3418   0.545   4.955   0.129 -0.0197 -0.7142  0.4557
 1152TIP3   OH2 3419   4.740   4.950   2.736  0.5178  0.7612  0.1220
 1152TIP3    H1 3420   4.835   4.951   2.745  0.8671 -0.0488 -2.6880
 1152TIP3    H2 3421   4.721   5.012   2.666 -0.8350 -0.2991 -0.5104
 1153TIP3   OH2 3422   3.243   6.200   0.782 -0.5485 -0.4764 -0.2232
 1153TIP3    H1 3423   3.338   6.207   0.785 -0.6070 -0.0287  1.0940
 1153TIP3    H2 3424   3.219   6.239   0.698  0.4175 -0.5955 -0.5722
 1154TIP3   OH2 3425   2.011   1.659   2.900 -0.3669  0.5881  0.1793
 1154TIP3    H1 3426   1.968   1.744   2.896  0.7885  1.1259 -1.2331
 1154TIP3    H2 3427   2.070   1.665   2.975 -1.2831  0.5148  0.9343
 1155TIP3   OH2 3428   1.391   6.786   4.703  0.2999  0.4969 -0.1768
 1155TIP3    H1 3429   1.296   6.799   4.694  0.0703 -0.6745  0.3730
 1155TIP3    H2 3430   1.403   6.768   4.796  1.2629  2.0337  0.0320
 1156TIP3   OH2 3431   2.867   4.487   3.382  0.0206 -0.4421 -0.3319
 1156TIP3    H1 3432   2.831   4.572   3.356 -0.9803  0.2716  2.9084
 1156TIP3    H2 3433   2.885   4.497   3.476  2.8173 -2.8526 -0.4673
 1157TIP3   OH2 3434   3.839   6.251   2.240  0.0493  0.0363  0.4464
 1157TIP3    H1 3435   3.747   6.234   2.220  0.0228 -1.0947  1.4098
 1157TIP3    H2 3436   3.857   6.197   2.317  1.1641  1.2701  1.0880
 1158TIP3   OH2 3437   1.499   4.536   3.158  0.1778  0.2592  0.8429
 1158TIP3    H1 3438   1.446   4.558   3.081 -0.7318 -1.6465  0.8619
 1158TIP3    H2 3439   1.579   4.587   3.148 -0.0940  0.3630 -1.1708
 1159TIP3   OH2 3440   6.789   0.349   3.875  0.2858  0.1994  0.5129
 1159TIP3    H1 3441   6.717   0.347   3.938 -0.6294 -0.0463 -0.5114
 1159TIP3    H2 3442   6.868   0.353   3.929 -0.4812  0.3170  1.6631
 1160TIP3   OH2 3443   3.716   2.930   1.938  0.3043 -0.3501 -0.3108
 1160TIP3    H1 3444   3.707   2.859   1.874 -1.7504 -0.5254  0.0934
 1160TIP3    H2 3445   3.802   2.968   1.920  1.1828 -2.4845 -0.9980
 1161TIP3   OH2 3446   4.251   5.061   4.116  0.2150  0.0110 -0.0349
 1161TIP3    H1 3447   4.222   5.126   4.180 -1.0566  0.1630 -0.7343
 1161TIP3    H2 3448   4.183   5.062   4.048 -0.5258 -2.9213  0.5125
 1162TIP3   OH2 3449   5.159   1.542   2.470  0.4018  0.4985  0.2017
 1162TIP3    H1 3450   5.110   1.624   2.463  1.6580  1.4928  2.2028
 1162TIP3    H2 3451   5.189   1.539   2.561  2.1078 -1.1707 -0.3440
 1163TIP3   OH2 3452   1.639   1.580   4.643  0.1626  0.7024 -0.0090
 1163TIP3    H1 3453   1.703   1.618   4.582 -1.0810  1.7958 -0.6915
 1163TIP3    H2 3454   1.624   1.650   4.707 -0.2340  0.4018  0.2267
 1164TIP3   OH2 3455   0.001   1.829   3.519 -0.2161 -0.0917  0.2587
 1164TIP3    H1 3456  -0.019   1.766   3.588  1.7647 -1.4320 -0.3100
 1164TIP3    H2 3457   0.032   1.907   3.565 -1.5900  0.1030  0.9242
 1165TIP3   OH2 3458   0.582   3.055   0.691  0.4033 -0.5187 -0.0332
 1165TIP3    H1 3459   0.508   3.001   0.662  1.0922 -2.4116  1.4976
 1165TIP3    H2 3460   0.549   3.102   0.768 -0.2723  1.5519 -1.5083
 1166TIP3   OH2 3461   3.851   2.944   2.459  0.3806 -0.5236  0.1819
 1166TIP3    H1 3462   3.785   2.953   2.390  0.6476 -2.2327 -0.3516
 1166TIP3    H2 3463   3.840   2.854   2.491  1.6414 -0.4352  0.9360
 1167TIP3   OH2 3464   5.328   2.746   0.121 -0.1156 -0.1872  0.0258
 1167TIP3    H1 3465   5.294   2.730   0.033 -0.8607 -1.1856  0.4795
 1167TIP3    H2 3466   5.258   2.719   0.179  0.5547  0.0027  0.9461
 1168TIP3   OH2 3467   3.895   5.241   2.848  0.3195 -0.1453  0.0793
 1168TIP3    H1 3468   3.905   5.238   2.943 -0.9830  1.8515  0.3390
 1168TIP3    H2 3469   3.801   5.255   2.834  0.5642  0.1052 -1.4826
 1169TIP3   OH2 3470   3.221   6.510   4.439 -0.4343  0.2193  0.3383
 1169TIP3    H1 3471   3.210   6.506   4.344  1.6183  1.5859 -0.0228
 1169TIP3    H2 3472   3.187   6.426   4.471 -1.3876 -0.1680 -1.5450
 1170TIP3   OH2 3473   3.025   5.089   0.069  0.0830 -0.0547  0.5894
 1170TIP3    H1 3474   3.111   5.071   0.108  0.9173  2.6579  0.2396
 1170TIP3    H2 3475   3.028   5.047  -0.017  0.0663 -2.0446  1.5153
 1171TIP3   OH2 3476   0.834   6.037   3.377 -0.3658  0.0329 -0.1292
 1171TIP3    H1 3477   0.799   5.948   3.381  1.4667 -0.7081  0.5357
 1171TIP3    H2 3478   0.883   6.039   3.295  0.9627 -0.1307  0.6426
 1172TIP3   OH2 3479   3.480   6.759   1.964 -0.5530  0.4852  0.5345
 1172TIP3    H1 3480   3.461   6.819   1.893  2.1859  0.5784 -0.2472
 1172TIP3    H2 3481   3.562   6.717   1.938  0.8105  0.8380  3.7902
 1173TIP3   OH2 3482   5.821   0.485   2.308  0.0768  0.5627 -0.5201
 1173TIP3    H1 3483   5.856   0.479   2.397  0.9744  0.2638 -0.8883
 1173TIP3    H2 3484   5.752   0.551   2.314  1.0761  1.5852  0.1030
 1174TIP3   OH2 3485   0.792   0.550   4.473 -0.1705 -0.1660 -0.1049
 1174TIP3    H1 3486   0.717   0.573   4.528 -1.2398  0.2469 -1.6730
 1174TIP3    H2 3487   0.868   0.578   4.523 -0.9713 -1.3133  1.8879
 1175TIP3   OH2 3488   3.578   4.436   5.026 -0.3903  0.0403  0.2327
 1175TIP3    H1 3489   3.628   4.422   5.107 -1.1427 -0.7161  0.5846
 1175TIP3    H2 3490   3.616   4.514   4.987  0.2980  0.1405  1.0816
 1176TIP3   OH2 3491   0.313   2.163   4.576  0.3964  0.1818 -0.1677
 1176TIP3    H1 3492   0.267   2.119   4.648  0.2047  0.3477 -0.1894
 1176TIP3    H2 3493   0.398   2.187   4.614  0.5152 -0.2324 -0.1637
 1177TIP3   OH2 3494   6.329   2.698   5.173  0.3699 -0.5878  0.2033
 1177TIP3    H1 3495   6.324   2.602   5.176  1.0306 -0.7328 -1.9891
 1177TIP3    H2 3496   6.246   2.726   5.136  0.0069 -0.2464  1.2275
 1178TIP3   OH2 3497   1.868   4.295   4.824 -0.1033 -0.3049 -0.2970
 1178TIP3    H1 3498   1.841   4.357   4.891 -0.1197 -1.6045  0.9530
 1178TIP3    H2 3499   1.804   4.307   4.754 -0.5685  0.5401  0.2463
 1179TIP3   OH2 3500   4.959   4.231   5.201  0.2620 -0.2008  0.4554
 1179TIP3    H1 3501   4.971   4.267   5.114  1.6940  0.2565  0.8231
 1179TIP3    H2 3502   4.864   4.222   5.210  0.0960 -0.3100 -1.1562
 1180TIP3   OH2 3503   1.461   0.969   3.084  0.0066 -0.1522 -0.0208
 1180TIP3    H1 3504   1.424   1.000   3.166  1.1048 -2.0690  1.2921
 1180TIP3    H2 3505   1.411   0.890   3.063  0.0009  0.0974 -0.9747
 1181TIP3   OH2 3506   6.591   4.811   2.453 -0.0652  0.5000  0.0868
 1181TIP3    H1 3507   6.575   4.856   2.536 -2.1439 -0.1184  0.0814
 1181TIP3    H2 3508   6.610   4.721   2.479  2.9357  0.9821  0.0255
 1182TIP3   OH2 3509   3.225   0.365   4.062  0.0615  0.3504 -0.3933
 1182TIP3    H1 3510   3.243   0.400   4.149  1.2056 -1.5392  0.1872
 1182TIP3    H2 3511   3.265   0.428   4.002  0.5754  0.9115  0.5062
 1183TIP3   OH2 3512   3.470   4.413   4.084 -0.0138  0.3650 -0.5655
 1183TIP3    H1 3513   3.556   4.418   4.043 -1.3837 -0.8225 -3.9308
 1183TIP3    H2 3514   3.441   4.323   4.069 -2.1712  0.9559 -0.2731
 1184TIP3   OH2 3515   6.960   6.161   1.959  0.0206  0.0694 -0.3330
 1184TIP3    H1 3516   6.922   6.149   2.046  0.2893  0.4739 -0.1553
 1184TIP3    H2 3517   6.964   6.073   1.921 -0.8740 -0.0090 -0.2636
 1185TIP3   OH2 3518   4.871   4.587   2.941 -1.0212 -0.1563 -0.4444
 1185TIP3    H1 3519   4.806   4.652   2.967 -0.4219  0.4843 -0.5032
 1185TIP3    H2 3520   4.939   4.638   2.896 -0.0343 -0.6558  0.4169
 1186TIP3   OH2 3521   7.088   1.914   2.926 -0.8804  0.5188 -0.0353
 1186TIP3    H1 3522   7.057   1.855   2.858 -0.4754  0.4456 -0.1595
 1186TIP3    H2 3523   7.123   1.990   2.879 -0.1204  0.2361  0.0663
 1187TIP3   OH2 3524   5.116   2.883   1.665  0.1147 -0.4703 -0.1629
 1187TIP3    H1 3525   5.209   2.865   1.677  0.3463  1.1544  0.8497
 1187TIP3    H2 3526   5.113   2.953   1.600 -0.6040 -2.3559 -2.2622
 1188TIP3   OH2 3527   5.280   3.050   0.244  0.0340 -0.7228  0.8131
 1188TIP3    H1 3528   5.306   3.129   0.292  0.0186 -1.4076  1.9733
 1188TIP3    H2 3529   5.187   3.040   0.264 -0.7086  0.5003 -1.5901
 1189TIP3   OH2 3530   5.639   2.971   1.374  0.6227  0.0139  0.1436
 1189TIP3    H1 3531   5.715   2.924   1.338 -1.1783 -1.8190 -1.4809
 1189TIP3    H2 3532   5.608   3.025   1.302  0.5749  1.0419  0.9177
 1190TIP3   OH2 3533   2.501   2.535   1.751  0.1783  0.0918  0.8906
 1190TIP3    H1 3534   2.585   2.563   1.717 -0.1049 -0.0462  0.0519
 1190TIP3    H2 3535   2.438   2.595   1.712 -0.1875 -0.2490  0.9476
 1191TIP3   OH2 3536   4.265   5.874   3.288 -0.1975 -0.5789  0.5223
 1191TIP3    H1 3537   4.351   5.864   3.328  0.2325 -0.7303 -0.4057
 1191TIP3    H2 3538   4.265   5.811   3.215 -0.3483  0.7636 -0.6851
 1192TIP3   OH2 3539   6.462   6.501   0.104  0.5306 -0.1211  0.3146
 1192TIP3    H1 3540   6.523   6.547   0.161 -0.3869 -0.1873  1.3971
 1192TIP3    H2 3541   6.380   6.551   0.111 -0.8299 -2.3726  2.3853
 1193TIP3   OH2 3542   2.958   4.913   1.469  0.3770  0.1949 -0.3272
 1193TIP3    H1 3543   3.050   4.934   1.454  0.9184 -1.5907  0.2823
 1193TIP3    H2 3544   2.957   4.820   1.490 -1.4924  0.3304  0.4150
 1194TIP3   OH2 3545   4.170   4.913   2.485 -0.4582  0.2867 -0.3121
 1194TIP3    H1 3546   4.193   4.990   2.434 -0.3471  0.0632 -0.6032
 1194TIP3    H2 3547   4.074   4.913   2.489 -0.4397  1.3413  1.0872
 1195TIP3   OH2 3548   5.666   2.539   1.757 -0.1262 -0.1487  0.0587
 1195TIP3    H1 3549   5.612   2.557   1.833  1.0261  1.7542  0.4876
 1195TIP3    H2 3550   5.604   2.512   1.689 -1.7412  2.4991  0.3622
 1196TIP3   OH2 3551   0.525   0.646   4.548  0.1555 -0.0827 -0.0010
 1196TIP3    H1 3552   0.517   0.651   4.453  0.0589 -1.1165 -0.0614
 1196TIP3    H2 3553   0.503   0.734   4.579  1.0541  0.5139 -0.9861
 1197TIP3   OH2 3554   2.604   5.059   5.291  0.5050  0.0935 -0.0845
 1197TIP3    H1 3555   2.570   5.033   5.377 -1.8970  2.2908 -0.2666
 1197TIP3    H2 3556   2.699   5.042   5.297 -0.0648 -3.4815  1.5300
 1198TIP3   OH2 3557   4.461   2.575   5.257 -0.4169 -0.5426 -0.8711
 1198TIP3    H1 3558   4.467   2.657   5.307 -0.0422  0.0367 -1.8403
 1198TIP3    H2 3559   4.369   2.569   5.232 -0.1545  0.4720 -2.2095
 1199TIP3   OH2 3560   4.055   1.220   4.765  0.9728  0.1682  0.4583
 1199TIP3    H1 3561   4.003   1.269   4.829  0.0788 -1.2497  0.8522
 1199TIP3    H2 3562   4.066   1.281   4.692  1.3196  1.5360  1.5922
 1200TIP3   OH2 3563   6.281   1.546   3.186 -0.7226  0.1578 -0.1488
 1200TIP3    H1 3564   6.334   1.523   3.262 -0.9427 -0.3744 -0.1528
 1200TIP3    H2 3565   6.202   1.585   3.224 -1.3509 -1.1761 -0.0520
 1201TIP3   OH2 3566   4.305   2.490   5.525  0.8612  0.0111 -0.4428
 1201TIP3    H1 3567   4.384   2.440   5.506 -0.2453 -2.2817  0.6381
 1201TIP3    H2 3568   4.276   2.459   5.611 -1.0391  1.0151 -0.6514
 1202TIP3   OH2 3569   2.086   3.102   5.767  0.1610 -0.1372 -0.5027
 1202TIP3    H1 3570   2.072   3.164   5.697  0.1279  1.2007  0.6438
 1202TIP3    H2 3571   2.147   3.146   5.827 -1.2467 -0.4415  1.2479
 1203TIP3   OH2 3572   5.971   1.114   0.326 -0.0948 -0.1968 -0.4019
 1203TIP3    H1 3573   6.004   1.096   0.414  0.1828  1.2595 -0.1778
 1203TIP3    H2 3574   6.038   1.077   0.268  0.2270 -0.2846  0.0162
 1204TIP3   OH2 3575   2.486   1.143   0.405  0.8457  0.5241 -0.1867
 1204TIP3    H1 3576   2.447   1.173   0.487 -0.1766  1.7935 -1.0981
 1204TIP3    H2 3577   2.439   1.063   0.384 -0.7144  1.5559 -0.8097
 1205TIP3   OH2 3578   1.290   4.082   5.079 -0.2365 -0.4428 -0.0858
 1205TIP3    H1 3579   1.334   4.059   5.161 -0.3159  0.5234  0.2414
 1205TIP3    H2 3580   1.197   4.081   5.100 -0.1822  2.5410  0.6285
 1206TIP3   OH2 3581   1.202   2.107   3.823  0.3060  0.3596 -0.2571
 1206TIP3    H1 3582   1.287   2.096   3.780  1.1355  0.3782  1.2793
 1206TIP3    H2 3583   1.202   2.198   3.853 -0.3712  0.4269 -0.4506
 1207TIP3   OH2 3584   2.547   1.370   4.406 -0.2002  0.1635  0.1491
 1207TIP3    H1 3585   2.632   1.407   4.382  0.1782 -0.4517  0.5409
 1207TIP3    H2 3586   2.492   1.387   4.329  0.8784 -1.3791 -1.0376
 1208TIP3   OH2 3587   0.845   4.613   0.475 -0.1807  0.0302  0.4739
 1208TIP3    H1 3588   0.886   4.639   0.392  0.3151 -1.7627  0.0970
 1208TIP3    H2 3589   0.775   4.676   0.488 -0.1626  0.4671 -1.2303
 1209TIP3   OH2 3590   1.252   0.051   3.542 -0.4184  0.2872 -0.1053
 1209TIP3    H1 3591   1.248  -0.008   3.466 -1.3824 -0.1160  0.2512
 1209TIP3    H2 3592   1.303   0.126   3.511  0.3075 -0.4475 -0.7538
 1210TIP3   OH2 3593   1.971   5.194   4.885  0.0035  0.2052 -0.2251
 1210TIP3    H1 3594   2.041   5.213   4.822 -0.3761  0.0929 -0.6896
 1210TIP3    H2 3595   1.990   5.106   4.917 -0.4194 -0.1917 -1.0305
 1211TIP3   OH2 3596   4.053   6.304   5.845  0.1495 -0.9116  0.0283
 1211TIP3    H1 3597   4.042   6.272   5.935  0.7804  1.0308  0.8590
 1211TIP3    H2 3598   3.971   6.351   5.827  1.1440  1.3071  0.8166
 1212TIP3   OH2 3599   2.429   4.979   1.692  0.0218  0.6788 -0.4151
 1212TIP3    H1 3600   2.380   5.042   1.745 -1.4825 -1.3136  0.7125
 1212TIP3    H2 3601   2.511   4.966   1.741 -1.0498 -0.6116  1.1218
 1213TIP3   OH2 3602   2.760   4.159   3.653  0.1998  0.1409  0.3503
 1213TIP3    H1 3603   2.726   4.224   3.714 -0.5740  0.1692 -0.0932
 1213TIP3    H2 3604   2.784   4.085   3.708  0.0450  0.3837  0.7493
 1214TIP3   OH2 3605   0.131   4.392   3.573  0.0978 -0.2792 -0.4738
 1214TIP3    H1 3606   0.190   4.388   3.497  1.0734  3.9569 -0.2342
 1214TIP3    H2 3607   0.045   4.371   3.538  0.6522  0.7699 -2.6667
 1215TIP3   OH2 3608   3.766   2.384   4.327 -0.4236 -0.8444  0.0757
 1215TIP3    H1 3609   3.721   2.442   4.266  1.0887 -1.9970 -2.2965
 1215TIP3    H2 3610   3.728   2.297   4.309  0.9490 -1.4098 -0.1983
 1216TIP3   OH2 3611   4.196   4.391   4.199 -0.1773  0.2607 -0.1260
 1216TIP3    H1 3612   4.184   4.322   4.265  0.9543 -0.5842 -0.7580
 1216TIP3    H2 3613   4.271   4.361   4.148 -0.7635  1.1153 -1.5306
 1217TIP3   OH2 3614   1.463   3.995   5.290  0.1850 -0.1498 -0.1172
 1217TIP3    H1 3615   1.513   4.034   5.361 -1.2150  0.9011  0.3302
 1217TIP3    H2 3616   1.404   3.933   5.334 -1.3517  1.1909 -0.2140
 1218TIP3   OH2 3617   3.060   0.659   1.919  0.0554 -0.3540 -0.0512
 1218TIP3    H1 3618   3.129   0.684   1.980 -0.5692  0.4208  0.3472
 1218TIP3    H2 3619   3.058   0.563   1.923  0.7499 -0.3573  0.3172
 1219TIP3   OH2 3620   5.010   1.427   5.605  0.0216 -0.4571 -0.5417
 1219TIP3    H1 3621   5.052   1.505   5.570 -0.2962  0.1916  0.4686
 1219TIP3    H2 3622   4.917   1.441   5.588 -0.1155 -0.2292  0.3337
 1220TIP3   OH2 3623   2.612   4.471   4.158  0.4124 -0.0116 -0.6633
 1220TIP3    H1 3624   2.555   4.448   4.231 -0.5013 -1.8307 -1.8841
 1220TIP3    H2 3625   2.700   4.456   4.191  0.2726  2.4758  1.1278
 1221TIP3   OH2 3626   6.438   6.019   2.765 -0.1280  0.2663  0.4700
 1221TIP3    H1 3627   6.347   6.047   2.778 -0.0477  1.1427 -0.7034
 1221TIP3    H2 3628   6.448   6.014   2.670  0.6045 -1.3847  0.5976
 1222TIP3   OH2 3629   1.314   2.292   4.723 -0.2820 -0.2814 -0.0126
 1222TIP3    H1 3630   1.299   2.200   4.742  1.6698 -0.8646 -1.0268
 1222TIP3    H2 3631   1.376   2.321   4.790 -1.6163  0.5994  0.8909
 1223TIP3   OH2 3632   2.760   2.010   4.059 -0.4847  0.2252 -0.4095
 1223TIP3    H1 3633   2.730   2.055   4.138  1.1510  1.7899 -0.6019
 1223TIP3    H2 3634   2.772   2.080   3.994  1.1584 -0.6081 -1.0630
 1224TIP3   OH2 3635   1.356   2.344   2.462 -0.3652  0.3375  0.5156
 1224TIP3    H1 3636   1.268   2.328   2.497 -0.5178  0.0858  0.0373
 1224TIP3    H2 3637   1.341   2.394   2.382 -0.1519 -0.6359 -0.1446
 1225TIP3   OH2 3638   1.538   5.395   4.876 -0.0424 -0.0645  0.1382
 1225TIP3    H1 3639   1.468   5.369   4.936  0.6005  0.4855  1.1640
 1225TIP3    H2 3640   1.586   5.463   4.923  0.8943 -0.0941 -0.7309
 1226TIP3   OH2 3641   2.488   4.950   1.035  0.3659  0.0357  0.2160
 1226TIP3    H1 3642   2.558   4.910   0.984  1.3216 -2.2431  3.0715
 1226TIP3    H2 3643   2.533   5.010   1.095 -0.4845  0.8861  0.0335
 1227TIP3   OH2 3644   0.964   5.773   2.643  0.3775 -0.1505  0.0854
 1227TIP3    H1 3645   0.926   5.732   2.565 -0.2284  0.2958  0.1443
 1227TIP3    H2 3646   0.891   5.786   2.703  1.0779 -1.9620  1.4184
 1228TIP3   OH2 3647   0.504   4.717   4.127  0.0048 -0.4283 -0.2577
 1228TIP3    H1 3648   0.456   4.734   4.046  0.2862  1.0164 -0.1645
 1228TIP3    H2 3649   0.580   4.666   4.100 -0.7317 -1.3499 -0.6419
 1229TIP3   OH2 3650   5.180   1.602   5.511 -0.5830 -0.3367  0.1641
 1229TIP3    H1 3651   5.225   1.685   5.526 -2.2297  0.5843  0.1782
 1229TIP3    H2 3652   5.248   1.545   5.475  0.5018  1.1132 -0.1871
 1230TIP3   OH2 3653   6.047   3.651   2.110  0.1498 -0.4619  0.5267
 1230TIP3    H1 3654   5.991   3.576   2.129 -1.7143  0.7683  0.0861
 1230TIP3    H2 3655   5.995   3.727   2.134 -0.1481  0.9607 -3.8407
 1231TIP3   OH2 3656   0.662   3.484   5.000  0.0618  0.0347  0.5089
 1231TIP3    H1 3657   0.747   3.440   5.006  2.0652  3.3873 -0.3456
 1231TIP3    H2 3658   0.615   3.436   4.932  1.8939 -1.0409 -0.0726
 1232TIP3   OH2 3659   1.837   4.817   3.412  0.0201 -0.1015  0.1278
 1232TIP3    H1 3660   1.850   4.792   3.503  0.1855  0.4753  0.2713
 1232TIP3    H2 3661   1.770   4.758   3.379  1.7547 -2.0338 -0.1208
 1233TIP3   OH2 3662   2.427   6.746   3.646 -0.5763  0.1414  0.3728
 1233TIP3    H1 3663   2.523   6.749   3.646 -0.5964  0.7503  0.7137
 1233TIP3    H2 3664   2.405   6.685   3.716 -0.4248 -0.5604 -0.1778
 1234TIP3   OH2 3665   5.344   3.066   5.319  0.1112  0.3858  0.1688
 1234TIP3    H1 3666   5.392   2.984   5.307 -1.0777 -0.8277  2.8196
 1234TIP3    H2 3667   5.264   3.054   5.269  0.6236  0.6092 -0.7241
 1235TIP3   OH2 3668   6.960   5.270   4.506  0.5910  0.1511  0.2877
 1235TIP3    H1 3669   7.033   5.229   4.460  0.1650  1.0070 -1.1994
 1235TIP3    H2 3670   6.989   5.359   4.524  0.4894  0.0316  1.1250
 1236TIP3   OH2 3671   5.827   2.850   5.613 -0.1265 -0.1458  0.7290
 1236TIP3    H1 3672   5.833   2.783   5.546 -0.0337 -0.5925  1.1784
 1236TIP3    H2 3673   5.754   2.906   5.585 -0.2912 -0.5114  0.4247
 1237TIP3   OH2 3674   1.971   6.153   4.426  0.1374  0.8060  0.1952
 1237TIP3    H1 3675   2.015   6.074   4.456  0.8298  1.0942 -0.0464
 1237TIP3    H2 3676   1.884   6.123   4.400  0.2822  0.1815  0.4032
 1238TIP3   OH2 3677   7.034   5.921   5.668  0.1783 -0.2306  0.2893
 1238TIP3    H1 3678   7.126   5.894   5.660  0.1037 -1.5049  2.8239
 1238TIP3    H2 3679   7.037   6.003   5.718 -0.0597 -0.4412  0.6561
 1239TIP3   OH2 3680   6.294   3.820   5.339  0.0684 -0.0350  0.5971
 1239TIP3    H1 3681   6.338   3.761   5.399  0.3920  0.4070  0.7951
 1239TIP3    H2 3682   6.329   3.906   5.359 -1.3711  0.4406  1.2227
 1240TIP3   OH2 3683   6.614   1.932   1.005 -0.0404 -0.4065 -0.0007
 1240TIP3    H1 3684   6.656   1.967   1.083 -0.9509  0.9272 -0.0691
 1240TIP3    H2 3685   6.620   1.837   1.015  0.4560 -0.2574  1.3492
 1241TIP3   OH2 3686   6.654   0.207   1.925  0.2833 -0.2651  0.3271
 1241TIP3    H1 3687   6.612   0.166   2.000 -0.7855  0.4686  0.1546
 1241TIP3    H2 3688   6.680   0.294   1.956  0.4117 -0.1954  0.0278
 1242TIP3   OH2 3689   0.522   3.856   1.429 -0.0079 -0.3539  0.1918
 1242TIP3    H1 3690   0.570   3.934   1.458 -2.2382  0.8397  0.8359
 1242TIP3    H2 3691   0.433   3.870   1.459 -0.9408 -2.2029 -1.5133
 1243TIP3   OH2 3692   3.076   4.527   5.798  0.1368 -0.8652  0.3335
 1243TIP3    H1 3693   3.169   4.506   5.796 -0.0661 -1.8146  0.4512
 1243TIP3    H2 3694   3.052   4.544   5.707  1.1448  2.8578  0.5898
 1244TIP3   OH2 3695   4.147   2.616   2.265  0.3775  0.0597  0.0566
 1244TIP3    H1 3696   4.060   2.586   2.292  0.2680  0.1891 -0.1481
 1244TIP3    H2 3697   4.183   2.543   2.215  0.4502 -0.0561  0.2796
 1245TIP3   OH2 3698   1.910   3.144   4.450  0.6668 -0.3115  0.3209
 1245TIP3    H1 3699   1.924   3.087   4.525  0.0337  1.2830  1.6956
 1245TIP3    H2 3700   1.885   3.229   4.487 -1.4893  0.0602 -1.7104
 1246TIP3   OH2 3701   3.240   5.599   0.624  0.4194 -0.0900  0.4374
 1246TIP3    H1 3702   3.194   5.620   0.706  1.3237 -0.9328  1.1851
 1246TIP3    H2 3703   3.197   5.654   0.558  0.4474  1.5178  1.6881
 1247TIP3   OH2 3704   5.149   6.697   5.510  1.2402 -0.3611  0.0284
 1247TIP3    H1 3705   5.219   6.646   5.469  1.8364 -0.4379  1.1047
 1247TIP3    H2 3706   5.107   6.635   5.570  1.1106  0.0489  0.3655
 1248TIP3   OH2 3707   2.238   0.136   3.860 -0.1396  0.4395 -0.0824
 1248TIP3    H1 3708   2.169   0.081   3.824 -0.5467  2.2587 -2.3083
 1248TIP3    H2 3709   2.307   0.075   3.884 -2.1398 -1.3735  1.5085
 1249TIP3   OH2 3710   6.408   0.276   1.458 -0.7653 -0.4740 -0.4866
 1249TIP3    H1 3711   6.419   0.190   1.498  0.8972 -0.6850 -1.3230
 1249TIP3    H2 3712   6.395   0.336   1.532 -1.4062 -1.3522  0.1275
 1250TIP3   OH2 3713   5.977   4.121   5.840 -0.3857 -0.1013 -0.0287
 1250TIP3    H1 3714   5.946   4.040   5.880  1.5562 -0.9883 -0.1734
 1250TIP3    H2 3715   5.937   4.121   5.753 -0.3638 -0.9521 -0.0528
 1251TIP3   OH2 3716   2.088   1.140   0.663  0.6766  0.0117 -0.5441
 1251TIP3    H1 3717   2.090   1.046   0.643  1.2841  0.2135 -1.4852
 1251TIP3    H2 3718   2.047   1.145   0.749 -0.0637 -1.0646 -0.8056
 1252TIP3   OH2 3719   2.516   2.968   3.770  0.1156  0.2076  0.9750
 1252TIP3    H1 3720   2.581   3.011   3.715 -0.3898  0.1287  0.3048
 1252TIP3    H2 3721   2.432   2.986   3.727 -0.4813  1.5093  2.5843
 1253TIP3   OH2 3722   5.683   3.328   3.663  0.1469 -0.9615  0.0652
 1253TIP3    H1 3723   5.719   3.417   3.666 -0.4035 -0.6600 -1.4100
 1253TIP3    H2 3724   5.602   3.334   3.714  0.1010 -0.6222 -0.0461
 1254TIP3   OH2 3725   2.187   4.273   0.172  0.4460 -0.0820  0.0011
 1254TIP3    H1 3726   2.102   4.283   0.214  1.1717 -0.3731  1.5920
 1254TIP3    H2 3727   2.205   4.179   0.175  1.3751  0.0964  0.8695
 1255TIP3   OH2 3728   4.333   1.741   4.778  0.1027 -0.2973 -0.4926
 1255TIP3    H1 3729   4.244   1.719   4.806 -0.4674  1.6817 -0.5230
 1255TIP3    H2 3730   4.357   1.816   4.833  0.9925  0.4008 -1.7803
 1256TIP3   OH2 3731   4.033   0.332   2.646  0.4346 -0.6949 -0.1191
 1256TIP3    H1 3732   3.938   0.335   2.662  0.6753 -1.4178  1.8031
 1256TIP3    H2 3733   4.064   0.262   2.704  2.4557  1.1269  1.1579
 1257TIP3   OH2 3734   2.409   6.393   1.297 -0.5541  0.2115 -0.2744
 1257TIP3    H1 3735   2.321   6.386   1.334 -1.3343 -2.0756 -2.2606
 1257TIP3    H2 3736   2.430   6.486   1.299 -2.2273  0.6101  1.9230
 1258TIP3   OH2 3737   1.791   6.368   1.400  0.9196 -0.4148  0.6168
 1258TIP3    H1 3738   1.811   6.354   1.307 -1.5255  0.6382 -0.1511
 1258TIP3    H2 3739   1.834   6.450   1.421  2.1142 -1.0278  0.6720
 1259TIP3   OH2 3740   5.576   4.005   3.501 -1.2161  0.0021 -1.0746
 1259TIP3    H1 3741   5.574   4.100   3.513  0.0048 -0.0676 -0.1483
 1259TIP3    H2 3742   5.487   3.983   3.473 -1.9419  1.2538  0.0976
 1260TIP3   OH2 3743   6.381   0.208   4.706  0.1889  0.2821 -0.1424
 1260TIP3    H1 3744   6.396   0.127   4.755  1.0265  0.0753 -0.7260
 1260TIP3    H2 3745   6.378   0.180   4.614  0.0933  0.8676 -0.3215
 1261TIP3   OH2 3746   3.969   5.659   4.550 -0.0586  0.7682  0.5124
 1261TIP3    H1 3747   3.885   5.616   4.534  0.9492 -0.5936 -1.6496
 1261TIP3    H2 3748   4.012   5.604   4.615 -0.5391  1.0919  1.1198
 1262TIP3   OH2 3749   2.309   6.181   0.922  0.1237  0.6932 -0.5784
 1262TIP3    H1 3750   2.240   6.211   0.863 -0.4912 -0.8255 -0.6636
 1262TIP3    H2 3751   2.338   6.260   0.968 -2.4725  1.2103  0.3156
 1263TIP3   OH2 3752   4.045   0.501   2.290  0.0191  0.4151 -0.3509
 1263TIP3    H1 3753   4.107   0.431   2.269 -0.4368 -0.0243 -0.2485
 1263TIP3    H2 3754   4.076   0.536   2.374  0.3540  0.4599 -0.4918
 1264TIP3   OH2 3755   4.199   2.232   1.904  0.5081 -0.3456  0.6675
 1264TIP3    H1 3756   4.257   2.183   1.846  1.0206 -2.7494  3.0291
 1264TIP3    H2 3757   4.136   2.274   1.844  2.8599 -0.0164 -1.7695
 1265TIP3   OH2 3758   2.972   2.718   0.019  0.4182  0.5507  0.6679
 1265TIP3    H1 3759   3.048   2.752   0.066  1.4087 -1.1034  0.3758
 1265TIP3    H2 3760   2.956   2.632   0.060  0.2038 -0.1484 -0.8325
 1266TIP3   OH2 3761   4.540   3.236   5.525  0.6000  0.3761 -0.5006
 1266TIP3    H1 3762   4.508   3.172   5.588 -2.0798  0.5784 -1.5000
 1266TIP3    H2 3763   4.561   3.313   5.578 -3.1774  1.1422  0.2080
 1267TIP3   OH2 3764   2.049   4.752   2.156 -0.3950  0.2599  0.4322
 1267TIP3    H1 3765   1.999   4.673   2.134 -4.3782  2.6813 -0.4048
 1267TIP3    H2 3766   2.046   4.805   2.075  1.8558  1.4388  1.0353
 1268TIP3   OH2 3767   4.461   4.921   4.551 -0.2036  0.6913 -0.2397
 1268TIP3    H1 3768   4.378   4.894   4.592  0.6680 -0.4124  0.8621
 1268TIP3    H2 3769   4.442   4.921   4.457 -2.1110  2.7882  0.0404
 1269TIP3   OH2 3770   3.387   5.429   4.856  0.0974  0.3443 -0.2136
 1269TIP3    H1 3771   3.333   5.485   4.910 -1.1563 -1.1641  0.1546
 1269TIP3    H2 3772   3.328   5.396   4.788  0.8896 -0.2270 -0.6453
 1270TIP3   OH2 3773   3.969   3.622   5.169 -0.3655  0.1606 -0.9151
 1270TIP3    H1 3774   4.005   3.647   5.254 -1.5284 -2.0897  0.3225
 1270TIP3    H2 3775   4.042   3.584   5.121 -0.2453 -0.9701  0.1318
 1271TIP3   OH2 3776   1.699   2.048   3.930  0.0472 -0.7805 -0.0947
 1271TIP3    H1 3777   1.721   1.996   4.007 -1.1867  0.3554  1.0654
 1271TIP3    H2 3778   1.783   2.063   3.886  0.8878 -0.7688  1.4715
 1272TIP3   OH2 3779   3.562   6.204   4.803 -0.3984 -0.1206  0.1948
 1272TIP3    H1 3780   3.612   6.144   4.858 -0.5928  0.7434  1.3372
 1272TIP3    H2 3781   3.589   6.291   4.832 -1.0982  0.3568 -0.5424
 1273TIP3   OH2 3782   2.099   1.838   0.250  0.0663 -0.6546 -0.1534
 1273TIP3    H1 3783   2.180   1.802   0.216 -0.2064 -0.6119 -0.8687
 1273TIP3    H2 3784   2.077   1.782   0.325  0.0458 -1.5103 -0.7827
 1274TIP3   OH2 3785   2.756   5.212   5.595 -0.4916  1.0572 -0.8595
 1274TIP3    H1 3786   2.678   5.169   5.559  0.1420 -0.5908 -0.3645
 1274TIP3    H2 3787   2.786   5.270   5.525 -1.4164  0.7377 -1.5414
 1275TIP3   OH2 3788   6.803   2.116   2.470 -0.7278  0.5630 -0.7743
 1275TIP3    H1 3789   6.781   2.152   2.384  0.4169  2.0356 -0.5063
 1275TIP3    H2 3790   6.886   2.070   2.457 -0.5678  0.7608 -0.4806
 1276TIP3   OH2 3791   1.616   1.169   4.994 -0.6037  0.1202  0.2832
 1276TIP3    H1 3792   1.651   1.259   4.991 -2.0518  0.6910 -0.8573
 1276TIP3    H2 3793   1.680   1.120   5.045  1.3680  1.2950 -0.9598
 1277TIP3   OH2 3794   5.348   5.196   5.288  0.4498 -0.0844  0.0558
 1277TIP3    H1 3795   5.279   5.211   5.352  1.1299 -0.2589  0.8528
 1277TIP3    H2 3796   5.305   5.205   5.203 -0.2184  1.3323  0.5246
 1278TIP3   OH2 3797   6.613   0.465   0.856  0.3787  0.0440  0.0977
 1278TIP3    H1 3798   6.621   0.369   0.859  1.1353  0.0973 -0.0909
 1278TIP3    H2 3799   6.520   0.481   0.871  0.0001 -0.7825 -1.1774
 1279TIP3   OH2 3800   6.467   0.620   3.906 -0.4993 -1.2262 -0.0500
 1279TIP3    H1 3801   6.516   0.667   3.974 -1.3747 -0.3538  0.0096
 1279TIP3    H2 3802   6.422   0.550   3.953  0.7987 -2.1501 -0.1334
 1280TIP3   OH2 3803   6.178   5.082   2.566 -0.1710 -0.0477  0.0225
 1280TIP3    H1 3804   6.135   5.055   2.648 -1.1052  2.1405  0.3203
 1280TIP3    H2 3805   6.271   5.076   2.585 -0.3756  0.2441  1.1979
 1281TIP3   OH2 3806   5.139   4.177   3.391 -0.0246  0.2820  0.3943
 1281TIP3    H1 3807   5.157   4.089   3.424 -0.4107  0.3756  0.8716
 1281TIP3    H2 3808   5.051   4.171   3.354  1.5421 -0.6992 -3.7649
 1282TIP3   OH2 3809   2.235   3.257   3.646 -0.0818  0.2898  0.6769
 1282TIP3    H1 3810   2.277   3.298   3.722 -0.0912  0.1889  0.7373
 1282TIP3    H2 3811   2.308   3.223   3.594 -0.0432  0.8422  0.3585
 1283TIP3   OH2 3812   6.660   3.914   2.023  0.1397 -0.0107  0.8681
 1283TIP3    H1 3813   6.669   3.889   2.115  0.6995 -0.5147  0.6830
 1283TIP3    H2 3814   6.582   3.868   1.993 -1.8953  2.5418  1.8705
 1284TIP3   OH2 3815   2.865   4.143   3.298  0.0109  0.0764 -0.0165
 1284TIP3    H1 3816   2.941   4.153   3.355  0.5230  0.0081 -0.6736
 1284TIP3    H2 3817   2.856   4.228   3.254  0.7808 -0.4543 -1.2365
 1285TIP3   OH2 3818   5.703   5.128   3.871 -0.6032  0.0303 -0.1827
 1285TIP3    H1 3819   5.660   5.207   3.837  1.0411 -0.0177 -2.5916
 1285TIP3    H2 3820   5.748   5.091   3.796  0.3820 -2.0960  1.3660
 1286TIP3   OH2 3821   6.431   2.070   2.265 -0.1557 -0.3718 -0.0131
 1286TIP3    H1 3822   6.365   2.134   2.238 -0.4167 -0.9603 -0.8095
 1286TIP3    H2 3823   6.492   2.066   2.192 -0.3281 -1.2676 -0.1165
 1287TIP3   OH2 3824   6.739   1.069   2.003  0.4811 -0.5423  0.3381
 1287TIP3    H1 3825   6.799   1.019   2.058 -0.5263 -0.6206  1.3951
 1287TIP3    H2 3826   6.665   1.011   1.988  0.3116 -0.1737 -0.3274
 1288TIP3   OH2 3827   1.145   4.534   5.510 -0.1392 -0.0576 -0.3213
 1288TIP3    H1 3828   1.130   4.612   5.456 -2.2025 -0.4496 -0.3936
 1288TIP3    H2 3829   1.109   4.557   5.595 -0.1062 -0.6817 -0.1340
 1289TIP3   OH2 3830   0.629   6.084   4.955  0.2797 -0.1265  0.6991
 1289TIP3    H1 3831   0.564   6.014   4.957 -0.3239  0.3110 -1.0340
 1289TIP3    H2 3832   0.598   6.148   5.019 -0.5972 -0.2865  0.4503
 1290TIP3   OH2 3833   1.624   5.333   1.196 -0.4029  0.6987  0.0870
 1290TIP3    H1 3834   1.536   5.339   1.235 -0.1483 -1.5627  1.1860
 1290TIP3    H2 3835   1.608   5.322   1.102 -1.2206  1.8334  0.0768
 1291TIP3   OH2 3836   6.212   3.627   3.996  0.1242 -0.3655  0.3662
 1291TIP3    H1 3837   6.181   3.538   3.977  2.6630 -1.3883  0.6974
 1291TIP3    H2 3838   6.168   3.650   4.078  0.5459 -1.9418  1.0684
 1292TIP3   OH2 3839   5.531   3.804   0.397  0.3907  0.0711 -0.4123
 1292TIP3    H1 3840   5.468   3.846   0.456 -0.5568 -0.5001 -0.9899
 1292TIP3    H2 3841   5.587   3.752   0.455 -1.3588 -1.5504 -0.0601
 1293TIP3   OH2 3842   5.131   6.106   4.783  0.0264 -0.4995 -0.1066
 1293TIP3    H1 3843   5.161   6.050   4.854  0.0949  0.0413  0.2955
 1293TIP3    H2 3844   5.055   6.152   4.818  0.2093 -0.0465 -0.2961
 1294TIP3   OH2 3845   4.482   1.918   5.181 -0.0850 -0.1417 -0.2343
 1294TIP3    H1 3846   4.567   1.879   5.162  0.9410  1.4629  0.8495
 1294TIP3    H2 3847   4.457   1.960   5.098 -0.8379 -2.2719 -1.1739
 1295TIP3   OH2 3848   2.926   3.899   2.814 -0.1089  0.0449  0.2356
 1295TIP3    H1 3849   2.877   3.952   2.877  0.6163 -0.5034  1.2985
 1295TIP3    H2 3850   2.902   3.935   2.729 -0.3180  1.5001  0.8676
 1296TIP3   OH2 3851   4.376   0.144   1.822 -0.1941  0.3254 -0.4384
 1296TIP3    H1 3852   4.320   0.165   1.897 -0.1658 -0.5135 -0.1678
 1296TIP3    H2 3853   4.450   0.204   1.830 -1.5785  2.2844 -1.4626
 1297TIP3   OH2 3854   5.741   4.723   1.058 -0.3678  0.1024 -0.0870
 1297TIP3    H1 3855   5.775   4.708   1.146 -2.2013 -0.5295  0.5786
 1297TIP3    H2 3856   5.777   4.652   1.005 -1.0819 -0.9256  0.7400
 1298TIP3   OH2 3857   4.042   5.902   4.081  0.0201 -0.4268 -0.3803
 1298TIP3    H1 3858   4.042   5.993   4.112 -0.1410 -0.6461  0.2827
 1298TIP3    H2 3859   4.060   5.850   4.159  0.9965 -0.9235 -0.9201
 1299TIP3   OH2 3860   4.892   5.967   2.146  0.0992  0.1871  0.2079
 1299TIP3    H1 3861   4.922   5.987   2.235  0.4404  0.6776 -0.0115
 1299TIP3    H2 3862   4.968   5.986   2.090 -0.4774  1.0276 -0.3122
 1300TIP3   OH2 3863   5.835   1.596   4.315 -0.2612  0.1923  0.1692
 1300TIP3    H1 3864   5.741   1.578   4.307 -0.3717  0.7647  0.1531
 1300TIP3    H2 3865   5.848   1.614   4.408  0.4725 -3.3670  0.9300
 1301TIP3   OH2 3866   5.744   4.972   3.339  0.1639 -0.4654  0.4631
 1301TIP3    H1 3867   5.793   5.005   3.264 -2.2176 -0.1634 -1.0601
 1301TIP3    H2 3868   5.786   4.888   3.360  2.9350  0.9442  1.0033
 1302TIP3   OH2 3869   0.265   1.523   5.544 -0.4189  0.1824 -0.4946
 1302TIP3    H1 3870   0.213   1.518   5.624  0.1624 -3.3682 -0.1788
 1302TIP3    H2 3871   0.356   1.520   5.574 -0.1548  0.3476 -1.2453
 1303TIP3   OH2 3872   7.168   3.651   1.352 -0.3530  0.3389  0.2819
 1303TIP3    H1 3873   7.251   3.626   1.311 -0.4959  0.8230 -0.3260
 1303TIP3    H2 3874   7.160   3.594   1.428  0.6340  0.4351  0.4603
 1304TIP3   OH2 3875   2.296   5.571   2.790 -0.2278  0.1247  0.4150
 1304TIP3    H1 3876   2.255   5.513   2.726  0.3581  1.7322 -1.4996
 1304TIP3    H2 3877   2.350   5.512   2.843 -0.0713 -1.1780 -1.1064
 1305TIP3   OH2 3878   2.318   2.929   2.929  0.1635 -0.3864  0.3496
 1305TIP3    H1 3879   2.361   2.959   2.849  0.5261 -1.6099  0.0633
 1305TIP3    H2 3880   2.338   2.996   2.994  0.9697 -0.0302 -0.2533
 1306TIP3   OH2 3881   5.450   4.893   0.358  0.6857 -0.8262  0.0763
 1306TIP3    H1 3882   5.497   4.967   0.320 -0.5650 -0.3532 -0.6363
 1306TIP3    H2 3883   5.502   4.867   0.433  2.7709 -1.2042 -1.4232
 1307TIP3   OH2 3884   6.952   4.364   0.655 -0.4288 -0.1029 -0.0871
 1307TIP3    H1 3885   7.017   4.358   0.586 -2.2409  0.6370 -1.9691
 1307TIP3    H2 3886   6.960   4.454   0.688 -0.6704  0.0806 -0.5192
 1308TIP3   OH2 3887   4.086   1.093   3.765 -0.0234  0.1013  0.0244
 1308TIP3    H1 3888   4.007   1.123   3.809 -1.3408  0.2752 -2.2826
 1308TIP3    H2 3889   4.070   1.000   3.749  0.9491 -0.2351  0.8795
 1309TIP3   OH2 3890   0.347   3.995   5.544 -0.3663 -0.2779  0.1699
 1309TIP3    H1 3891   0.264   4.007   5.498 -1.3793  1.3026  2.2511
 1309TIP3    H2 3892   0.405   4.060   5.505 -0.1718 -1.1111 -1.0101
 1310TIP3   OH2 3893   3.196   6.433   3.743  0.3205 -0.2233 -0.2792
 1310TIP3    H1 3894   3.156   6.486   3.813  1.8962  0.6024  0.0543
 1310TIP3    H2 3895   3.148   6.457   3.664 -0.6324 -0.1920  0.2894
 1311TIP3   OH2 3896   1.270   4.614   4.973  0.1761 -0.1565 -0.0801
 1311TIP3    H1 3897   1.249   4.534   5.022  0.9815 -1.1791 -1.3480
 1311TIP3    H2 3898   1.195   4.672   4.989 -0.3532 -1.0958  0.9885
 1312TIP3   OH2 3899   5.746   5.777   1.665 -0.4408  0.1697  0.3955
 1312TIP3    H1 3900   5.723   5.685   1.664  1.3569 -0.3203  0.4605
 1312TIP3    H2 3901   5.718   5.810   1.580 -2.1022 -0.1348  0.7895
 1313TIP3   OH2 3902   5.942   3.984   4.636 -0.2679 -0.0128  0.1608
 1313TIP3    H1 3903   5.974   3.910   4.584 -3.0854 -0.7301 -0.7077
 1313TIP3    H2 3904   5.961   3.960   4.727  0.6198 -0.8621 -0.2285
 1314TIP3   OH2 3905   3.008   5.630   1.415 -0.2834 -0.0459 -0.1359
 1314TIP3    H1 3906   3.048   5.698   1.362  0.5053  0.0039  0.4990
 1314TIP3    H2 3907   2.972   5.567   1.352 -0.7931  0.8148 -0.7197
 1315TIP3   OH2 3908   6.801   4.534   0.365 -0.1037 -0.0869 -0.0623
 1315TIP3    H1 3909   6.720   4.561   0.321 -0.4352  1.0770  1.1865
 1315TIP3    H2 3910   6.836   4.614   0.403  0.6452 -0.8826  1.0122
 1316TIP3   OH2 3911   5.111   3.151   3.199 -0.2274 -0.7579 -0.0204
 1316TIP3    H1 3912   5.102   3.078   3.262  1.5905 -0.6202  0.4573
 1316TIP3    H2 3913   5.098   3.229   3.252 -1.1216 -0.6790 -0.3309
 1317TIP3   OH2 3914   5.840   2.666   2.402  0.3116  0.8499  0.6195
 1317TIP3    H1 3915   5.805   2.581   2.430 -0.6936  0.2061 -2.2592
 1317TIP3    H2 3916   5.821   2.670   2.309  2.8625  3.0509  0.0743
 1318TIP3   OH2 3917   1.865   4.515   4.994 -0.7517  0.0299 -0.0371
 1318TIP3    H1 3918   1.773   4.539   5.009 -1.3364 -0.7137 -2.1843
 1318TIP3    H2 3919   1.900   4.587   4.942  0.0326  0.4790  1.0598
 1319TIP3   OH2 3920   7.122   0.440   0.913  0.3265  0.2012  0.2100
 1319TIP3    H1 3921   7.198   0.486   0.877  1.0194 -0.9156  0.1977
 1319TIP3    H2 3922   7.111   0.364   0.856  0.4040 -0.6911  1.3673
 1320TIP3   OH2 3923   0.608   2.600   3.133 -0.0107 -0.3747 -0.4307
 1320TIP3    H1 3924   0.621   2.506   3.118 -1.9250 -0.8517  0.6149
 1320TIP3    H2 3925   0.546   2.605   3.205  0.2547  1.7192 -0.2805
 1321TIP3   OH2 3926   0.805   2.070   1.006 -0.0655 -0.5550 -0.4650
 1321TIP3    H1 3927   0.788   2.132   0.935  1.7757 -1.0237 -1.3594
 1321TIP3    H2 3928   0.899   2.075   1.021  0.0248 -2.5524 -0.0284
 1322TIP3   OH2 3929   0.180   1.350   3.953  0.2746  0.1235 -0.6962
 1322TIP3    H1 3930   0.156   1.438   3.982 -0.2424 -0.4545  0.7541
 1322TIP3    H2 3931   0.275   1.346   3.965  0.3924  0.6864 -1.3879
 1323TIP3   OH2 3932   3.567   3.833   2.983  0.0542 -0.1855 -0.0283
 1323TIP3    H1 3933   3.559   3.923   3.015  1.7934  0.0899 -0.2618
 1323TIP3    H2 3934   3.477   3.802   2.977 -0.5445  1.2657  0.8218
 1324TIP3   OH2 3935   0.760   6.443   4.804  0.0172  0.0033 -0.1071
 1324TIP3    H1 3936   0.758   6.354   4.770 -0.2514 -0.0817  0.1201
 1324TIP3    H2 3937   0.788   6.433   4.895 -1.4618 -0.0157  0.3793
 1325TIP3   OH2 3938   5.652   3.461   2.958 -0.7790  0.2324 -0.5266
 1325TIP3    H1 3939   5.599   3.502   3.026 -0.0438  1.3022 -0.5760
 1325TIP3    H2 3940   5.718   3.410   3.007 -1.2635 -0.3348 -0.4589
 1326TIP3   OH2 3941   2.392   6.020   2.854 -0.3924 -0.4538 -0.1431
 1326TIP3    H1 3942   2.313   5.986   2.812  1.3525 -0.7206 -3.6211
 1326TIP3    H2 3943   2.415   5.953   2.918 -1.6754 -1.5804 -0.7878
 1327TIP3   OH2 3944   6.207   0.813   3.386 -0.1565  0.5874 -0.8137
 1327TIP3    H1 3945   6.124   0.841   3.348 -1.2836  0.6208  1.5367
 1327TIP3    H2 3946   6.223   0.726   3.349 -2.3884 -0.3804  0.3121
 1328TIP3   OH2 3947   1.435   6.449   0.908 -0.9368  1.0369  0.6954
 1328TIP3    H1 3948   1.507   6.500   0.944 -1.1060  0.1539  2.3666
 1328TIP3    H2 3949   1.439   6.465   0.813  1.4647  0.9596  0.7383
 1329TIP3   OH2 3950   6.902   1.701   0.326  0.3411 -0.4448  0.4158
 1329TIP3    H1 3951   6.843   1.776   0.336  1.2324  0.1632  1.3118
 1329TIP3    H2 3952   6.845   1.629   0.298 -0.3173  0.9136 -2.0089
 1330TIP3   OH2 3953   3.052   4.785   0.456  0.1206 -0.1837  0.2796
 1330TIP3    H1 3954   3.075   4.878   0.445 -1.8637  0.5985  2.0222
 1330TIP3    H2 3955   2.990   4.767   0.385 -2.5056  1.0473  2.0966
 1331TIP3   OH2 3956   2.575   4.391   3.051 -0.1576 -0.5985  0.0264
 1331TIP3    H1 3957   2.522   4.370   2.974  0.7171  2.6368 -1.6379
 1331TIP3    H2 3958   2.665   4.374   3.022  0.3485  2.4460 -0.4922
 1332TIP3   OH2 3959   4.823   1.811   5.600 -0.0332 -0.3696 -0.2225
 1332TIP3    H1 3960   4.797   1.890   5.647 -0.2268 -0.3947 -0.2881
 1332TIP3    H2 3961   4.919   1.815   5.598 -0.0784  0.8557 -1.8948
 1333TIP3   OH2 3962   1.373   2.437   1.642 -0.0146 -0.1239 -0.3048
 1333TIP3    H1 3963   1.334   2.380   1.709  0.2772  0.7272  0.6148
 1333TIP3    H2 3964   1.305   2.502   1.624 -0.2112 -0.5318 -1.0846
 1334TIP3   OH2 3965   5.325   5.628   4.589 -0.2770 -0.0199 -0.2724
 1334TIP3    H1 3966   5.296   5.677   4.512 -1.0762 -2.4889 -1.6510
 1334TIP3    H2 3967   5.401   5.578   4.558  0.0962 -0.1756  0.8705
 1335TIP3   OH2 3968   0.973   3.352   5.404 -0.4481 -0.2928 -0.4986
 1335TIP3    H1 3969   1.030   3.361   5.327 -0.3839 -0.2581 -0.4472
 1335TIP3    H2 3970   0.926   3.435   5.409  1.8101  1.0074  1.3206
 1336TIP3   OH2 3971   4.268   1.619   5.649 -0.1298 -0.1080 -0.4034
 1336TIP3    H1 3972   4.224   1.703   5.661  0.4270  0.1733 -0.2912
 1336TIP3    H2 3973   4.301   1.597   5.736  2.7082  1.2557 -1.0317
 1337TIP3   OH2 3974   4.569   0.050   4.128  0.7818 -0.6318 -0.5102
 1337TIP3    H1 3975   4.632  -0.021   4.115  0.0118 -1.4425  0.1087
 1337TIP3    H2 3976   4.503   0.014   4.187  0.7635  0.8356  0.4185
 1338TIP3   OH2 3977   2.324   1.486   4.578  0.2172 -0.4768  0.1075
 1338TIP3    H1 3978   2.278   1.407   4.546 -2.3401  0.5861  0.8579
 1338TIP3    H2 3979   2.395   1.499   4.515 -1.1022 -1.6983 -1.7818
 1339TIP3   OH2 3980   0.698   1.263   1.024  0.3571  0.1920 -0.1663
 1339TIP3    H1 3981   0.764   1.306   0.969  1.2504 -1.9230 -0.8285
 1339TIP3    H2 3982   0.669   1.332   1.083  0.7846  2.0467 -1.9960
 1340TIP3   OH2 3983   5.773   5.296   5.501  0.5211  0.4735  0.0119
 1340TIP3    H1 3984   5.860   5.306   5.462  0.8776  0.3288  0.7592
 1340TIP3    H2 3985   5.713   5.301   5.426  1.1549  0.7498 -0.4912
 1341TIP3   OH2 3986   7.067   5.917   4.404  0.0601 -0.3737 -0.0858
 1341TIP3    H1 3987   6.990   5.878   4.363  0.0968  1.3845 -1.9388
 1341TIP3    H2 3988   7.034   5.993   4.452  0.7174  1.2304 -2.0479
 1342TIP3   OH2 3989   3.676   2.338   0.972 -0.3367 -0.6457 -0.5322
 1342TIP3    H1 3990   3.656   2.360   1.063 -2.2574 -0.7463 -0.8996
 1342TIP3    H2 3991   3.723   2.415   0.938 -2.2096  0.6623 -0.2728
 1343TIP3   OH2 3992   6.455   6.014   5.314 -0.2868  0.2264 -0.1086
 1343TIP3    H1 3993   6.446   5.943   5.250 -2.3394  1.4084 -1.2544
 1343TIP3    H2 3994   6.366   6.030   5.345  0.3307  1.3477  1.2050
 1344TIP3   OH2 3995   1.133   0.469   2.457 -0.1711  0.3143 -0.1979
 1344TIP3    H1 3996   1.043   0.470   2.489  0.8568  1.5981  3.0954
 1344TIP3    H2 3997   1.173   0.394   2.501  1.0194  1.3807  0.5812
 1345TIP3   OH2 3998   3.517   3.836   5.528 -0.0400 -0.5554  0.3416
 1345TIP3    H1 3999   3.436   3.827   5.478 -0.1119 -2.1303  0.6979
 1345TIP3    H2 4000   3.489   3.864   5.615 -0.1125 -0.1022  0.1729
 1346TIP3   OH2 4001   0.804   1.918   5.633  0.2742 -0.3094 -0.0392
 1346TIP3    H1 4002   0.794   1.823   5.638 -0.2473 -0.2714 -0.2633
 1346TIP3    H2 4003   0.885   1.937   5.681  0.6927 -0.9201 -0.4951
 1347TIP3   OH2 4004   6.489   4.778   0.908  0.1032 -0.1475  0.1237
 1347TIP3    H1 4005   6.569   4.815   0.944  0.0208  0.5541 -0.4061
 1347TIP3    H2 4006   6.519   4.704   0.854  0.2912 -0.6463  0.9009
 1348TIP3   OH2 4007   6.249   2.983   1.550  0.0283  0.3215  0.7536
 1348TIP3    H1 4008   6.217   2.954   1.464 -1.8632 -0.8840  1.8009
 1348TIP3    H2 4009   6.181   3.042   1.583 -0.6061 -1.2720  2.4883
 1349TIP3   OH2 4010   3.818   6.068   5.809  0.0441  0.3740 -0.4135
 1349TIP3    H1 4011   3.759   5.993   5.816  0.3535 -0.1356 -2.7379
 1349TIP3    H2 4012   3.759   6.144   5.811 -0.3785  0.0363  0.6212
 1350TIP3   OH2 4013   0.995   2.657   2.748 -0.1095  0.0103 -0.2754
 1350TIP3    H1 4014   0.928   2.647   2.680 -0.5666 -1.2637  0.3193
 1350TIP3    H2 4015   1.050   2.729   2.718  1.0577 -1.9183 -3.1099
 1351TIP3   OH2 4016   2.646   1.899   1.245  0.1206  0.5717  0.3287
 1351TIP3    H1 4017   2.610   1.986   1.230 -1.0695 -0.1887 -1.4875
 1351TIP3    H2 4018   2.601   1.842   1.183  1.8484 -1.1213  0.5085
 1352TIP3   OH2 4019   3.092   3.350   3.753 -0.2850  0.0934 -0.4788
 1352TIP3    H1 4020   3.088   3.279   3.688  0.8500 -1.7982  1.3747
 1352TIP3    H2 4021   3.066   3.308   3.835 -1.8717  2.4488  0.3167
 1353TIP3   OH2 4022   4.279   3.989   3.063  0.4858  0.6152 -0.0097
 1353TIP3    H1 4023   4.299   4.061   3.004  1.3659  0.2407 -0.1763
 1353TIP3    H2 4024   4.214   4.025   3.123  0.4326  1.3470 -0.4901
 1354TIP3   OH2 4025   1.709   3.518   3.258 -0.4212  0.0578  0.3600
 1354TIP3    H1 4026   1.705   3.482   3.347  1.9182 -0.6173  0.2568
 1354TIP3    H2 4027   1.727   3.442   3.202 -0.2325  0.6949 -0.4669
 1355TIP3   OH2 4028   1.190   1.020   3.689  0.0402  0.1934 -0.2204
 1355TIP3    H1 4029   1.252   0.988   3.755 -0.5246 -1.9615 -0.6651
 1355TIP3    H2 4030   1.236   1.094   3.647  2.2572 -1.2050 -0.4090
 1356TIP3   OH2 4031   2.146   6.360   2.980 -0.7786  0.0494 -0.3080
 1356TIP3    H1 4032   2.055   6.343   2.957 -0.8191  0.0350 -0.1366
 1356TIP3    H2 4033   2.180   6.412   2.907 -1.1330  0.6963 -0.0219
 1357TIP3   OH2 4034   3.797   1.247   4.181  0.2892 -0.3320 -0.1765
 1357TIP3    H1 4035   3.844   1.275   4.102 -0.3745 -0.1406 -0.5110
 1357TIP3    H2 4036   3.866   1.233   4.246  0.6534  2.9711  0.3241
 1358TIP3   OH2 4037   2.951   0.257   0.677 -0.7579  0.4879  0.6441
 1358TIP3    H1 4038   2.922   0.340   0.640  2.9339  0.6620 -2.4156
 1358TIP3    H2 4039   2.902   0.191   0.628 -1.1611  0.7889  0.6292
 1359TIP3   OH2 4040   3.941   4.952   0.487 -0.1299  0.8978  0.2661
 1359TIP3    H1 4041   3.923   4.885   0.553 -0.7051  1.0002  0.2149
 1359TIP3    H2 4042   4.022   4.922   0.445  0.0693  0.6693  0.8033
 1360TIP3   OH2 4043   4.562   4.339   5.220  0.0741 -0.3209 -0.2962
 1360TIP3    H1 4044   4.585   4.275   5.288  1.1170  0.5182  0.1788
 1360TIP3    H2 4045   4.469   4.355   5.232 -0.3211 -2.1198 -0.7634
 1361TIP3   OH2 4046   5.458   1.604   1.297  0.1466  0.2378  0.2571
 1361TIP3    H1 4047   5.380   1.607   1.352 -1.0446  0.9196 -1.3690
 1361TIP3    H2 4048   5.490   1.694   1.295  1.1585 -0.0835  1.1259
 1362TIP3   OH2 4049   0.461   4.945   0.720 -0.7284  0.2354  0.4396
 1362TIP3    H1 4050   0.494   4.997   0.794 -0.2787 -0.6342  0.8621
 1362TIP3    H2 4051   0.391   4.999   0.683  0.0895  1.3940  0.5144
 1363TIP3   OH2 4052   5.485   3.682   3.947 -0.9629 -0.2163 -0.2991
 1363TIP3    H1 4053   5.389   3.688   3.952 -0.9793 -0.9647  0.8577
 1363TIP3    H2 4054   5.507   3.613   4.010  0.2042 -1.4336 -1.9707
 1364TIP3   OH2 4055   0.308   4.764   5.733 -0.2621  0.3914  0.4782
 1364TIP3    H1 4056   0.402   4.777   5.739 -0.2579 -0.2332  2.5453
 1364TIP3    H2 4057   0.285   4.792   5.644  2.0600 -0.8328 -0.5873
 1365TIP3   OH2 4058   0.279   1.432   2.052  0.0530 -0.0158  0.5358
 1365TIP3    H1 4059   0.298   1.341   2.073  2.0996  0.3612  0.5576
 1365TIP3    H2 4060   0.186   1.434   2.032 -0.3067 -1.8445  1.8465
 1366TIP3   OH2 4061   1.135   3.613   4.760  0.4410 -0.3556  0.2500
 1366TIP3    H1 4062   1.070   3.659   4.707 -0.5684  0.2920  1.9591
 1366TIP3    H2 4063   1.084   3.570   4.829  1.7099 -1.0008  0.8263
 1367TIP3   OH2 4064   4.594   3.943   2.396  0.6830 -0.1963 -0.2020
 1367TIP3    H1 4065   4.586   3.881   2.469 -0.3760 -1.2695 -1.1944
 1367TIP3    H2 4066   4.683   3.931   2.364  0.7270 -0.6536  0.0881
 1368TIP3   OH2 4067   1.197   4.368   5.066 -0.4405  0.1290 -0.6121
 1368TIP3    H1 4068   1.175   4.351   5.158  0.0895  0.0625 -0.4926
 1368TIP3    H2 4069   1.161   4.293   5.019 -0.3310 -0.0600 -0.3999
 1369TIP3   OH2 4070   5.230   2.033   1.658 -0.6432 -0.3633  0.5701
 1369TIP3    H1 4071   5.285   2.096   1.612 -1.3925 -0.3660 -0.3536
 1369TIP3    H2 4072   5.178   2.086   1.719 -0.8447 -0.1594  0.2201
 1370TIP3   OH2 4073   3.705   2.780   5.368 -0.5001  0.1355 -0.2885
 1370TIP3    H1 4074   3.632   2.841   5.355 -1.9727 -1.1320  1.4955
 1370TIP3    H2 4075   3.665   2.702   5.407  1.7408 -0.8143  0.2777
 1371TIP3   OH2 4076   6.610   5.987   0.631 -0.2587 -0.7290  0.3899
 1371TIP3    H1 4077   6.542   5.953   0.573  1.6626 -1.4596 -1.5298
 1371TIP3    H2 4078   6.595   6.082   0.631 -1.2742 -0.8711  0.0255
 1372TIP3   OH2 4079   3.000   3.116   5.098  0.1357 -0.0267  0.1114
 1372TIP3    H1 4080   2.912   3.081   5.089  0.4116 -1.2529  1.7016
 1372TIP3    H2 4081   3.009   3.179   5.026 -2.1128  0.3413  0.0971
 1373TIP3   OH2 4082   3.377   1.754   4.901  0.4251  0.2664 -0.4609
 1373TIP3    H1 4083   3.448   1.779   4.961  1.8203 -2.6466 -0.6842
 1373TIP3    H2 4084   3.421   1.737   4.818 -0.6653 -0.6562 -0.8738
 1374TIP3   OH2 4085   0.164   5.628   1.568  0.5556 -0.0675 -0.3042
 1374TIP3    H1 4086   0.118   5.544   1.571  2.4976 -1.2230 -1.1329
 1374TIP3    H2 4087   0.218   5.629   1.647 -0.9788  1.4026  0.8065
 1375TIP3   OH2 4088   5.409   4.636   1.984 -0.5883 -0.2847  0.2999
 1375TIP3    H1 4089   5.461   4.672   2.056  2.1194 -1.7385 -0.8019
 1375TIP3    H2 4090   5.467   4.640   1.908 -2.0533 -2.0939 -1.0050
 1376TIP3   OH2 4091   3.172   1.126   0.935  0.7671 -0.4956  0.3280
 1376TIP3    H1 4092   3.118   1.047   0.933 -0.6828  0.4325  0.9901
 1376TIP3    H2 4093   3.210   1.126   1.023 -0.1094  0.0809  0.7200
 1377TIP3   OH2 4094   2.836   5.461   1.257 -0.2220 -0.2667 -0.3448
 1377TIP3    H1 4095   2.871   5.371   1.258  2.0218  0.4728 -2.3523
 1377TIP3    H2 4096   2.842   5.487   1.165 -2.7241  1.2909 -0.1283
 1378TIP3   OH2 4097   6.426   3.934   0.835 -0.4891  0.0726  0.2283
 1378TIP3    H1 4098   6.478   3.934   0.915 -1.1200 -1.2157  0.6646
 1378TIP3    H2 4099   6.490   3.947   0.765  0.2443 -0.1381  0.8462
 1379TIP3   OH2 4100   6.738   6.571   1.076  0.1672 -0.0811  0.0354
 1379TIP3    H1 4101   6.693   6.629   1.138 -1.2643 -0.0597 -0.9750
 1379TIP3    H2 4102   6.831   6.580   1.098 -0.2145  0.6899  1.5061
 1380TIP3   OH2 4103   3.454   5.109   0.610  0.2560 -0.3320  0.0257
 1380TIP3    H1 4104   3.442   5.108   0.704 -0.0102 -1.4524 -0.0061
 1380TIP3    H2 4105   3.385   5.168   0.577 -0.1550 -0.5605  0.4696
 1381TIP3   OH2 4106   5.086   2.788   2.344  0.1505 -0.0829 -0.1456
 1381TIP3    H1 4107   5.011   2.794   2.285  0.3684 -0.9928 -0.5373
 1381TIP3    H2 4108   5.055   2.733   2.417  0.2760 -0.0338 -0.0544
 1382TIP3   OH2 4109   4.350   5.342   3.565 -0.2739 -0.5255  0.4452
 1382TIP3    H1 4110   4.419   5.360   3.502  0.0015 -1.2473  0.5265
 1382TIP3    H2 4111   4.374   5.392   3.643  0.5239 -1.2877  0.7029
 1383TIP3   OH2 4112   3.148   1.983   3.602  0.2324 -0.5070  0.1712
 1383TIP3    H1 4113   3.214   2.001   3.669  0.4808  1.8160 -0.6336
 1383TIP3    H2 4114   3.191   1.923   3.542  0.2770 -2.0020  1.6098
 1384TIP3   OH2 4115   2.145   6.248   5.138 -0.1267 -0.0081 -0.2296
 1384TIP3    H1 4116   2.084   6.322   5.135  1.2606  1.2156  0.2709
 1384TIP3    H2 4117   2.133   6.210   5.224  0.3115  0.6933  0.1524
 1385TIP3   OH2 4118   5.553   5.336   1.395  0.2076 -0.4390  0.1692
 1385TIP3    H1 4119   5.493   5.321   1.468  0.4381 -0.5969  0.3274
 1385TIP3    H2 4120   5.565   5.250   1.356 -0.6255 -0.2047 -0.6137
 1386TIP3   OH2 4121   3.794   4.372   0.983  0.1631 -0.0757 -0.1057
 1386TIP3    H1 4122   3.787   4.283   0.949  1.4582 -0.1672 -0.2010
 1386TIP3    H2 4123   3.872   4.407   0.941  1.0331  0.2793  1.7003
 1387TIP3   OH2 4124   5.718   0.645   3.070 -0.0645  0.1951  0.7050
 1387TIP3    H1 4125   5.748   0.582   3.135  0.4077  0.2637  0.5582
 1387TIP3    H2 4126   5.665   0.708   3.119 -0.1289 -0.0370  0.9335
 1388TIP3   OH2 4127   2.588   2.380   4.831 -0.6187 -0.0097 -0.0325
 1388TIP3    H1 4128   2.638   2.424   4.763 -0.8900 -0.8182 -0.7744
 1388TIP3    H2 4129   2.641   2.304   4.855 -0.7176  0.0460  0.3627
 1389TIP3   OH2 4130   1.997   4.836   3.049 -0.2556  0.1218 -0.0641
 1389TIP3    H1 4131   1.981   4.915   3.102  1.1504  0.7020 -0.4700
 1389TIP3    H2 4132   2.087   4.812   3.068 -1.2715 -2.7652  1.7656
 1390TIP3   OH2 4133   5.680   4.022   4.554  0.2964 -0.0323  0.0985
 1390TIP3    H1 4134   5.685   4.064   4.468 -0.2177 -0.0914  0.0364
 1390TIP3    H2 4135   5.770   4.024   4.587  0.0019  3.3611  1.1584
 1391TIP3   OH2 4136   0.496   1.637   4.410  0.3357 -0.5515 -0.1714
 1391TIP3    H1 4137   0.447   1.649   4.491 -0.4036  2.2106 -0.9079
 1391TIP3    H2 4138   0.587   1.634   4.437  0.0198 -1.4337  0.8698
 1392TIP3   OH2 4139   1.596   6.497   5.555  0.2618  0.0951  0.4868
 1392TIP3    H1 4140   1.629   6.586   5.541  0.7564 -0.1328  0.1898
 1392TIP3    H2 4141   1.531   6.506   5.624  0.8935  0.5617  1.0250
 1393TIP3   OH2 4142   3.592   0.557   1.011 -0.7303  0.7276  0.4213
 1393TIP3    H1 4143   3.509   0.529   1.049 -0.0449 -1.2474  0.5522
 1393TIP3    H2 4144   3.616   0.488   0.950  0.8126  1.2716  0.3694
 1394TIP3   OH2 4145   3.284   3.722   5.414 -0.2424  0.4437  0.0436
 1394TIP3    H1 4146   3.332   3.667   5.353 -0.6862 -0.6823  0.6846
 1394TIP3    H2 4147   3.200   3.737   5.371  0.0031  0.9068 -0.2791
 1395TIP3   OH2 4148   2.264   5.476   3.559 -0.2546 -0.4386  0.8736
 1395TIP3    H1 4149   2.257   5.569   3.582  0.2216 -0.4582  1.1159
 1395TIP3    H2 4150   2.209   5.466   3.481 -1.1611 -0.1750  1.4591
 1396TIP3   OH2 4151   7.194   6.033   3.579 -0.0079 -0.4335  0.0234
 1396TIP3    H1 4152   7.179   5.943   3.552  0.9374 -0.7464  0.4803
 1396TIP3    H2 4153   7.158   6.087   3.508  1.0301 -1.2004 -1.1255
 1397TIP3   OH2 4154   4.635   5.256   3.608  0.1196 -0.0218  0.1027
 1397TIP3    H1 4155   4.644   5.329   3.548 -0.6763  0.2988  0.3598
 1397TIP3    H2 4156   4.607   5.182   3.553 -1.1208  0.4001  0.1337
 1398TIP3   OH2 4157   2.493   1.299   2.671 -0.0096  0.0427 -0.1067
 1398TIP3    H1 4158   2.459   1.364   2.732 -2.0241 -0.2901 -0.8150
 1398TIP3    H2 4159   2.459   1.325   2.586  0.0589 -1.3090 -0.5738
 1399TIP3   OH2 4160   0.052   5.183   1.410 -0.1248  0.4172 -0.6753
 1399TIP3    H1 4161   0.052   5.246   1.482  1.4482 -1.6072  1.2087
 1399TIP3    H2 4162  -0.040   5.177   1.384 -0.8480  0.7540  1.5984
 1400TIP3   OH2 4163   2.633   5.365   2.902 -0.0888  0.5388 -0.0492
 1400TIP3    H1 4164   2.718   5.322   2.907  1.0493  2.6877  0.0702
 1400TIP3    H2 4165   2.646   5.439   2.842 -0.9808  2.7431  2.2965
 1401TIP3   OH2 4166   3.598   5.033   4.058  0.4375  0.0909 -0.0145
 1401TIP3    H1 4167   3.582   4.967   3.990 -1.4597  0.2370  0.2383
 1401TIP3    H2 4168   3.614   5.114   4.010  2.8727 -0.5091 -0.3329
 1402TIP3   OH2 4169   1.816   6.358   4.791 -0.1515 -0.0388 -0.2551
 1402TIP3    H1 4170   1.731   6.382   4.828  0.1512 -1.2277  1.3056
 1402TIP3    H2 4171   1.807   6.265   4.769  0.8862 -0.3170  0.4088
 1403TIP3   OH2 4172   6.824   3.985   3.381 -0.3493  0.4994  0.1009
 1403TIP3    H1 4173   6.772   3.994   3.301 -1.4608 -1.4258  0.5386
 1403TIP3    H2 4174   6.848   3.893   3.383  1.4608  0.9516  0.9478
 1404TIP3   OH2 4175   3.938   6.296   0.416  0.0926  0.0629  0.6137
 1404TIP3    H1 4176   3.936   6.266   0.325 -0.5067  0.8364  0.3598
 1404TIP3    H2 4177   4.025   6.271   0.447  0.2403 -0.3706 -0.1176
 1405TIP3   OH2 4178   6.980   3.793   2.231  0.0266  0.3303  0.1070
 1405TIP3    H1 4179   7.020   3.708   2.216  0.2762  0.6683 -1.3462
 1405TIP3    H2 4180   6.901   3.775   2.281 -1.8634 -1.2458 -3.1362
 1406TIP3   OH2 4181   3.650   0.887   5.504 -0.0821  0.4200 -0.1335
 1406TIP3    H1 4182   3.640   0.887   5.599  2.6498  0.7714  0.2583
 1406TIP3    H2 4183   3.665   0.795   5.481  2.8133  0.6636  0.3777
 1407TIP3   OH2 4184   1.374   1.749   3.698  0.1123  0.5887 -0.5981
 1407TIP3    H1 4185   1.322   1.729   3.776 -1.7555 -0.4919 -2.0340
 1407TIP3    H2 4186   1.352   1.840   3.678  0.2006  0.7073 -0.1759
 1408TIP3   OH2 4187   0.716   3.671   2.216  0.2376 -0.0611  0.4056
 1408TIP3    H1 4188   0.723   3.735   2.144 -4.2024 -0.5634 -0.7532
 1408TIP3    H2 4189   0.652   3.710   2.275  0.6071 -1.6299  1.8904
 1409TIP3   OH2 4190   4.886   0.325   2.140 -0.2945  0.2135 -0.0434
 1409TIP3    H1 4191   4.808   0.380   2.153  1.2553  3.1790 -2.1575
 1409TIP3    H2 4192   4.856   0.257   2.080 -1.5533  0.5217  0.1873
 1410TIP3   OH2 4193   7.150   2.352   3.350 -0.3305 -0.0294  0.0542
 1410TIP3    H1 4194   7.126   2.271   3.307  0.0200 -0.5408  0.8019
 1410TIP3    H2 4195   7.219   2.390   3.295  0.5169 -0.9588  0.4492
 1411TIP3   OH2 4196   0.942   6.111   2.123 -0.4100 -0.5697 -0.4758
 1411TIP3    H1 4197   0.879   6.183   2.120  0.6485  0.4018 -0.0397
 1411TIP3    H2 4198   1.001   6.134   2.195  1.8385 -0.2211 -2.3218
 1412TIP3   OH2 4199   1.070   1.014   1.366 -0.6021 -0.7381  0.2165
 1412TIP3    H1 4200   1.054   1.108   1.354 -0.0008 -0.6692 -0.0863
 1412TIP3    H2 4201   1.165   1.007   1.372 -0.5249 -1.5015 -1.4238
 1413TIP3   OH2 4202   0.865   4.975   3.543  0.3519  0.4617 -0.1469
 1413TIP3    H1 4203   0.775   4.959   3.569  0.9557 -0.1861  1.6894
 1413TIP3    H2 4204   0.906   4.888   3.544  1.2344  0.8626  0.0195
 1414TIP3   OH2 4205   5.178   5.565   3.111 -0.2800 -0.1125 -0.0237
 1414TIP3    H1 4206   5.200   5.471   3.109  1.9162  0.2838  1.5452
 1414TIP3    H2 4207   5.176   5.586   3.204 -0.5064  1.4781 -0.3724
 1415TIP3   OH2 4208   4.089   6.472   4.912  0.7673  0.2676 -0.0808
 1415TIP3    H1 4209   4.053   6.546   4.961  0.2600  1.5425 -2.2569
 1415TIP3    H2 4210   4.165   6.444   4.963  0.6961  2.0003  1.0463
 1416TIP3   OH2 4211   1.489   3.710   5.233 -0.1569  0.2726 -0.2057
 1416TIP3    H1 4212   1.556   3.758   5.184 -0.1727 -0.4973 -1.0070
 1416TIP3    H2 4213   1.406   3.736   5.193 -0.5172  2.3555  1.7343
 1417TIP3   OH2 4214   3.962   6.328   3.428 -0.1424 -0.8358  0.5145
 1417TIP3    H1 4215   4.044   6.305   3.383  0.4894  0.5865  0.8918
 1417TIP3    H2 4216   3.910   6.247   3.425  0.2529 -1.0604 -1.8888
 1418TIP3   OH2 4217   3.860   0.413   1.885  0.5011 -0.2824  0.0222
 1418TIP3    H1 4218   3.847   0.324   1.917 -0.7818 -0.4744 -0.9125
 1418TIP3    H2 4219   3.800   0.466   1.938  0.1760 -0.2170 -0.4073
 1419TIP3   OH2 4220   2.670   4.895   3.507 -0.3866  0.2058  0.1137
 1419TIP3    H1 4221   2.576   4.885   3.519 -0.1390 -1.8328  0.7752
 1419TIP3    H2 4222   2.689   4.845   3.428  0.2291  0.0903  0.3296
 1420TIP3   OH2 4223   6.373   5.392   2.848 -0.3097  0.0308 -0.0725
 1420TIP3    H1 4224   6.427   5.455   2.895 -0.4094  1.6141 -1.9466
 1420TIP3    H2 4225   6.299   5.443   2.815 -1.3083 -1.4425 -0.2203
 1421TIP3   OH2 4226   4.035   1.814   4.671  0.5929  0.3042  0.0032
 1421TIP3    H1 4227   4.074   1.881   4.614  1.0487  0.8400  0.9202
 1421TIP3    H2 4228   3.941   1.824   4.660  0.6676  0.8173 -0.1924
 1422TIP3   OH2 4229   1.424   2.639   1.857 -0.5404 -0.0052 -0.4596
 1422TIP3    H1 4230   1.346   2.631   1.912 -1.0455 -1.3023 -1.3119
 1422TIP3    H2 4231   1.490   2.587   1.902 -0.6383 -0.1790 -0.5119
 1423TIP3   OH2 4232   3.188   4.048   2.346  0.5753  0.4034  0.1103
 1423TIP3    H1 4233   3.155   4.131   2.380 -0.1730 -0.1234  0.7163
 1423TIP3    H2 4234   3.157   4.045   2.255  0.7758  0.8766  0.0279
 1424TIP3   OH2 4235   2.429   6.659   4.299 -0.3000 -0.1397  0.0591
 1424TIP3    H1 4236   2.521   6.669   4.323 -0.3507  0.5579 -0.0195
 1424TIP3    H2 4237   2.428   6.667   4.204 -0.2855 -1.4569 -0.0806
 1425TIP3   OH2 4238   1.286   2.065   0.513 -0.9530  0.0795 -0.4854
 1425TIP3    H1 4239   1.206   2.040   0.560  0.3282  0.2066  1.9396
 1425TIP3    H2 4240   1.356   2.018   0.560  0.7129  2.3241 -0.5785
 1426TIP3   OH2 4241   4.816   0.944   2.481  0.1894 -0.3181 -0.0200
 1426TIP3    H1 4242   4.794   0.867   2.533  2.9846 -1.5576 -0.4709
 1426TIP3    H2 4243   4.845   1.009   2.545  1.1957 -0.9410  0.1838
 1427TIP3   OH2 4244   1.194   4.668   2.836  0.0609 -0.1557 -0.1580
 1427TIP3    H1 4245   1.142   4.622   2.902 -0.1339 -2.5774 -1.8327
 1427TIP3    H2 4246   1.285   4.652   2.862  0.0222  1.2136  0.9342
 1428TIP3   OH2 4247   0.040   5.502   0.508  0.1826 -0.6640 -0.4500
 1428TIP3    H1 4248   0.016   5.443   0.436  0.4158 -0.4358 -0.7172
 1428TIP3    H2 4249   0.020   5.590   0.475  0.8874 -0.5085 -0.4818
 1429TIP3   OH2 4250   3.163   1.281   2.548 -0.3020 -0.3673  0.3063
 1429TIP3    H1 4251   3.254   1.255   2.562  0.3700  1.9995  0.8862
 1429TIP3    H2 4252   3.112   1.221   2.603  0.8317 -1.9989 -0.3562
 1430TIP3   OH2 4253   2.113   6.013   5.668 -0.3983  0.2381  0.2269
 1430TIP3    H1 4254   2.104   6.087   5.729 -3.3019  0.0947  0.1147
 1430TIP3    H2 4255   2.079   6.047   5.585  1.3416 -0.2788 -0.7315
 1431TIP3   OH2 4256   1.772   0.000   2.372 -0.2516 -0.0857 -0.2979
 1431TIP3    H1 4257   1.694  -0.021   2.321 -0.3633  1.3700 -0.7648
 1431TIP3    H2 4258   1.738   0.041   2.452  0.0167 -0.0085 -0.2220
 1432TIP3   OH2 4259   2.251   2.726   3.846  0.7038 -0.2667 -0.3548
 1432TIP3    H1 4260   2.198   2.667   3.899 -1.6095  2.1392  0.2530
 1432TIP3    H2 4261   2.286   2.671   3.776 -0.1666 -2.5799  0.9384
 1433TIP3   OH2 4262   6.472   0.336   1.758 -0.2209 -0.0327  0.1091
 1433TIP3    H1 4263   6.526   0.267   1.797  1.1968  0.7178 -0.4550
 1433TIP3    H2 4264   6.382   0.305   1.769  0.2671 -1.0320  1.6440
 1434TIP3   OH2 4265   6.585   2.043   0.111  0.0632  0.7720  0.3413
 1434TIP3    H1 4266   6.511   2.023   0.054  0.4646 -1.3569  0.5026
 1434TIP3    H2 4267   6.646   2.092   0.055 -0.8922  1.4234 -0.1448
 1435TIP3   OH2 4268   5.900   3.329   4.998 -0.4422 -0.5568 -0.3851
 1435TIP3    H1 4269   5.843   3.400   5.026  1.6309  0.6867  0.9908
 1435TIP3    H2 4270   5.842   3.265   4.957 -2.3999  1.9361 -1.7513
 1436TIP3   OH2 4271   5.700   4.217   2.715  0.2355  0.3663  0.0292
 1436TIP3    H1 4272   5.772   4.271   2.683  0.8061 -0.5921 -0.3158
 1436TIP3    H2 4273   5.625   4.241   2.661  0.1916  1.6108  0.6089
 1437TIP3   OH2 4274   6.449   1.656   0.903  0.0622 -0.3112 -0.2373
 1437TIP3    H1 4275   6.502   1.576   0.914  1.5604  0.7220  0.3288
 1437TIP3    H2 4276   6.454   1.699   0.988 -0.5110  0.5323 -0.6269
 1438TIP3   OH2 4277   3.236   2.189   0.210  0.3374  0.1176 -0.0605
 1438TIP3    H1 4278   3.303   2.126   0.183  0.5874  0.4500 -0.2160
 1438TIP3    H2 4279   3.155   2.138   0.213  0.5080 -0.1742 -0.3554
 1439TIP3   OH2 4280   4.878   1.566   4.614 -0.5096 -0.2726 -0.5889
 1439TIP3    H1 4281   4.823   1.613   4.677 -1.6825  0.5939 -2.1951
 1439TIP3    H2 4282   4.963   1.610   4.619 -0.8904  0.4489 -0.3294
 1440TIP3   OH2 4283   6.929   0.594   2.299  0.3832  0.1411  0.2715
 1440TIP3    H1 4284   6.868   0.555   2.361  0.8961  0.7867  1.2064
 1440TIP3    H2 4285   6.908   0.687   2.299  0.9700  0.2800  0.1453
 1441TIP3   OH2 4286   0.418   1.426   3.013  0.3270  0.0856 -0.2460
 1441TIP3    H1 4287   0.355   1.493   3.040  0.5897  0.4267 -0.4775
 1441TIP3    H2 4288   0.496   1.443   3.066 -0.1088 -0.9782  0.8109
 1442TIP3   OH2 4289   5.690   6.757   3.642 -0.3448 -0.0394  0.2517
 1442TIP3    H1 4290   5.673   6.712   3.725  0.6865  0.7332  0.9142
 1442TIP3    H2 4291   5.743   6.694   3.592 -0.9756 -0.5103  0.1585
 1443TIP3   OH2 4292   5.576   2.196   0.081  0.2845  0.5341  0.6028
 1443TIP3    H1 4293   5.551   2.153   0.163 -1.0503 -1.3556 -0.7122
 1443TIP3    H2 4294   5.658   2.154   0.056  0.0662  0.2430  0.3716
 1444TIP3   OH2 4295   4.397   5.587   1.272 -0.0449 -0.4303 -0.0486
 1444TIP3    H1 4296   4.407   5.527   1.346 -1.8595 -0.2205  0.4321
 1444TIP3    H2 4297   4.486   5.602   1.240  0.9030  0.1019  2.5782
 1445TIP3   OH2 4298   6.319   1.873   2.835  0.3251  0.5632 -0.0570
 1445TIP3    H1 4299   6.337   1.779   2.840  0.7298  0.4444 -2.5100
 1445TIP3    H2 4300   6.235   1.880   2.790  1.3880  1.3472 -2.0703
 1446TIP3   OH2 4301   4.711   1.318   0.474  0.4340  0.0790  0.0434
 1446TIP3    H1 4302   4.669   1.402   0.455 -1.0303 -0.6070  0.0933
 1446TIP3    H2 4303   4.773   1.306   0.403  0.8664  1.3260  0.1841
 1447TIP3   OH2 4304   3.297   3.469   2.012  0.2661 -0.3276 -0.9807
 1447TIP3    H1 4305   3.275   3.405   2.080 -0.3038  0.6572 -0.1997
 1447TIP3    H2 4306   3.391   3.485   2.023  0.2080 -0.2906 -0.5106
 1448TIP3   OH2 4307   2.930   1.712   0.300  0.8708  0.1241 -0.8223
 1448TIP3    H1 4308   2.852   1.686   0.350 -1.8168  3.1406 -2.9638
 1448TIP3    H2 4309   2.971   1.630   0.274 -2.9462 -1.8187 -1.4519
 1449TIP3   OH2 4310   1.540   5.834   5.680 -0.0924  0.2238 -0.9820
 1449TIP3    H1 4311   1.523   5.889   5.603  0.7376  0.8694 -0.7205
 1449TIP3    H2 4312   1.635   5.822   5.680 -0.1413 -0.1861 -0.3361
 1450TIP3   OH2 4313   4.195   3.316   3.525 -0.2250 -0.3635  0.2593
 1450TIP3    H1 4314   4.218   3.389   3.467 -2.2026 -1.2922 -1.8380
 1450TIP3    H2 4315   4.181   3.242   3.466  0.5937 -2.1860  2.2379
 1451TIP3   OH2 4316   1.437   5.714   2.051  0.7669  0.0721 -0.3439
 1451TIP3    H1 4317   1.488   5.668   1.984 -0.4633 -0.0095 -1.2551
 1451TIP3    H2 4318   1.346   5.699   2.026  0.2922  0.5352  1.0338
 1452TIP3   OH2 4319   2.796   3.495   4.078  0.7659 -0.1304  0.9627
 1452TIP3    H1 4320   2.888   3.496   4.053  0.7431  1.7199  0.8270
 1452TIP3    H2 4321   2.793   3.546   4.159 -0.1147 -0.2501  1.0134
 1453TIP3   OH2 4322   6.602   2.343   2.896  0.6933  0.2890  0.3751
 1453TIP3    H1 4323   6.569   2.256   2.872  1.7250  0.2148 -0.9326
 1453TIP3    H2 4324   6.531   2.383   2.946 -0.5266 -0.6343 -0.5400
 1454TIP3   OH2 4325   4.192   4.390   3.868 -0.1205  0.7356  0.6094
 1454TIP3    H1 4326   4.159   4.372   3.781  0.3201 -1.1101  0.7794
 1454TIP3    H2 4327   4.143   4.332   3.925 -0.2699  1.7772  1.5912
 1455TIP3   OH2 4328   2.440   5.873   1.711  0.0314 -0.0265  0.5928
 1455TIP3    H1 4329   2.510   5.814   1.682 -0.1591 -0.0565  0.1910
 1455TIP3    H2 4330   2.376   5.816   1.753  0.6326  0.0998  1.7047
 1456TIP3   OH2 4331   6.066   1.757   5.710 -0.1901 -0.6805 -0.3601
 1456TIP3    H1 4332   6.082   1.718   5.796 -2.5264  0.3979  0.6456
 1456TIP3    H2 4333   6.015   1.691   5.663 -1.2285 -0.2391  0.1084
 1457TIP3   OH2 4334   6.001   0.831   2.312  0.4368 -0.2754 -0.2822
 1457TIP3    H1 4335   5.956   0.879   2.382  0.9369 -0.8379  0.4325
 1457TIP3    H2 4336   6.058   0.896   2.270  0.1493  0.0556 -0.1609
 1458TIP3   OH2 4337   3.399   0.460   4.762 -1.0295  0.5404  0.0407
 1458TIP3    H1 4338   3.308   0.443   4.736 -1.2826  0.3127  1.0212
 1458TIP3    H2 4339   3.441   0.374   4.761 -1.2706  0.3934  1.1799
 1459TIP3   OH2 4340   3.382   3.759   4.344 -0.4169 -0.1226  0.0731
 1459TIP3    H1 4341   3.315   3.762   4.276 -2.3984  3.2525  1.9485
 1459TIP3    H2 4342   3.381   3.845   4.384  5.1756  0.2234  0.3091
 1460TIP3   OH2 4343   6.693   5.410   3.875  0.0703  0.4848 -0.1780
 1460TIP3    H1 4344   6.623   5.361   3.918  0.6003  0.6548  0.8975
 1460TIP3    H2 4345   6.767   5.406   3.936 -0.6735  4.8884  1.3396
 1461TIP3   OH2 4346   3.557   3.532   1.779  0.6614 -0.4448 -0.4516
 1461TIP3    H1 4347   3.525   3.545   1.868 -1.4096  2.0370 -1.3997
 1461TIP3    H2 4348   3.499   3.466   1.742  0.0621  0.1173 -0.5515
 1462TIP3   OH2 4349   0.511   3.851   2.627 -0.3198  0.0466  0.5548
 1462TIP3    H1 4350   0.495   3.911   2.554 -1.0265  0.2188  0.8391
 1462TIP3    H2 4351   0.423   3.832   2.662 -0.0610 -0.7692  0.7728
 1463TIP3   OH2 4352   2.785   1.570   0.691  0.6523 -0.2935  0.1485
 1463TIP3    H1 4353   2.707   1.536   0.734  0.2711  1.0252  0.5538
 1463TIP3    H2 4354   2.853   1.506   0.710 -0.1046 -0.9850  0.5930
 1464TIP3   OH2 4355   5.373   1.921   1.299 -0.3183 -0.4278  0.1434
 1464TIP3    H1 4356   5.446   1.898   1.241 -0.8293  0.4228 -0.8664
 1464TIP3    H2 4357   5.401   1.891   1.385  0.6402 -1.3611 -0.4628
 1465TIP3   OH2 4358   4.887   1.031   4.757 -0.3277  0.6053  0.6154
 1465TIP3    H1 4359   4.872   1.123   4.734 -0.6127  0.5850  0.7091
 1465TIP3    H2 4360   4.809   1.006   4.807 -0.4056  0.2154  0.3066
 1466TIP3   OH2 4361   2.506   2.379   1.451 -0.2652 -0.3162 -0.2156
 1466TIP3    H1 4362   2.515   2.306   1.513 -0.2971 -2.0685 -2.1619
 1466TIP3    H2 4363   2.552   2.452   1.494  1.5283 -2.0153  0.9730
 1467TIP3   OH2 4364   4.221   1.470   3.555  0.3063  0.0081  0.3411
 1467TIP3    H1 4365   4.185   1.453   3.642 -1.2608 -0.6987 -0.4053
 1467TIP3    H2 4366   4.240   1.384   3.519 -1.3845  0.1273 -0.9289
 1468TIP3   OH2 4367   5.121   0.231   2.664 -0.1078  0.6056  0.0402
 1468TIP3    H1 4368   5.165   0.228   2.579 -0.3056 -2.0069 -0.0552
 1468TIP3    H2 4369   5.050   0.294   2.651  0.9133  1.5840 -1.1473
 1469TIP3   OH2 4370   3.953   5.098   5.281 -0.0845 -0.8948  0.2066
 1469TIP3    H1 4371   3.891   5.139   5.221  1.3999 -0.6086 -1.2011
 1469TIP3    H2 4372   3.899   5.042   5.337 -1.9682  1.6568  1.1051
 1470TIP3   OH2 4373   4.426   6.545   0.716  0.1636  0.2706  0.3883
 1470TIP3    H1 4374   4.459   6.629   0.683 -0.1354 -0.4496 -1.9572
 1470TIP3    H2 4375   4.335   6.542   0.686  0.4068 -1.2233 -0.2961
 1471TIP3   OH2 4376   0.327   3.441   5.667 -0.0852  0.3574 -0.0352
 1471TIP3    H1 4377   0.369   3.367   5.624 -0.6530  0.0567 -0.0856
 1471TIP3    H2 4378   0.327   3.510   5.602 -1.3749 -0.2470 -0.7061
 1472TIP3   OH2 4379   3.337   4.666   4.935  0.5551 -0.4320  0.0256
 1472TIP3    H1 4380   3.388   4.702   5.008  0.6773 -0.5841  0.0174
 1472TIP3    H2 4381   3.392   4.679   4.858  1.1245 -1.6748  0.1868
 1473TIP3   OH2 4382   0.557   3.304   0.156  0.1055  0.3353  0.6595
 1473TIP3    H1 4383   0.527   3.358   0.083 -1.1973 -1.1835  0.0002
 1473TIP3    H2 4384   0.571   3.365   0.228 -1.0644  1.5649 -0.1214
 1474TIP3   OH2 4385   0.965   5.155   1.913  0.5675 -0.0308  0.1232
 1474TIP3    H1 4386   0.941   5.079   1.965  0.4957  0.5677  0.9732
 1474TIP3    H2 4387   0.883   5.202   1.898  0.8046  0.5931  0.7512
 1475TIP3   OH2 4388   0.871   1.104   5.221 -0.8424 -0.1799  0.2605
 1475TIP3    H1 4389   0.895   1.030   5.277 -0.5571  0.2937  0.7713
 1475TIP3    H2 4390   0.870   1.179   5.280 -1.5112  0.1647 -0.1818
 1476TIP3   OH2 4391   1.565   5.783   4.898  0.0385  0.1525 -0.5094
 1476TIP3    H1 4392   1.575   5.827   4.983  0.4025 -2.6751  1.0590
 1476TIP3    H2 4393   1.530   5.850   4.840 -1.6588  1.8824  2.2536
 1477TIP3   OH2 4394   2.075   4.401   1.004 -0.1891  0.1505 -0.4410
 1477TIP3    H1 4395   2.149   4.411   0.943  0.9542 -0.7895  0.7460
 1477TIP3    H2 4396   1.997   4.418   0.950  0.7367 -1.2299 -2.3156
 1478TIP3   OH2 4397   1.536   2.124   4.251  0.2990 -0.0724  0.0244
 1478TIP3    H1 4398   1.614   2.179   4.238  0.5583 -0.7674 -1.5886
 1478TIP3    H2 4399   1.536   2.065   4.176 -1.7164 -0.1846  0.0702
 1479TIP3   OH2 4400   6.463   5.490   0.092  0.6185  0.0687 -0.2985
 1479TIP3    H1 4401   6.387   5.460   0.042  0.9752 -0.8202 -0.3297
 1479TIP3    H2 4402   6.450   5.453   0.179  0.1982  1.2896  0.1784
 1480TIP3   OH2 4403   2.635   3.075   1.233  0.1446  0.2111  0.3748
 1480TIP3    H1 4404   2.597   2.997   1.194  2.1018 -1.0849  0.8958
 1480TIP3    H2 4405   2.639   3.138   1.162  0.8078 -1.0405 -0.7434
 1481TIP3   OH2 4406   2.867   4.721   0.274  0.7154 -0.3798 -0.2887
 1481TIP3    H1 4407   2.851   4.630   0.249  1.6629 -0.2835 -1.2976
 1481TIP3    H2 4408   2.828   4.773   0.204 -0.4029  0.0305  0.6061
 1482TIP3   OH2 4409   1.044   4.127   4.936 -0.9912 -0.3411 -0.6190
 1482TIP3    H1 4410   1.035   4.039   4.973 -0.2413 -0.1116  0.1488
 1482TIP3    H2 4411   0.957   4.166   4.946 -0.8673 -0.3535  0.8018
 1483TIP3   OH2 4412   3.016   5.660   4.078  0.3381 -0.9374  0.2378
 1483TIP3    H1 4413   2.968   5.738   4.048  2.8992  1.2421  1.4332
 1483TIP3    H2 4414   2.958   5.619   4.142 -1.8098 -1.1154 -1.6943
 1484TIP3   OH2 4415   0.585   5.182   0.241  0.4680  0.3635 -0.2054
 1484TIP3    H1 4416   0.680   5.188   0.229  1.2640 -0.5821  4.1541
 1484TIP3    H2 4417   0.559   5.272   0.263  1.3209 -0.0776  3.1362
 1485TIP3   OH2 4418   6.104   6.769   4.558  0.1089 -0.2191 -0.3013
 1485TIP3    H1 4419   6.009   6.753   4.559 -0.3368  1.9319  1.8300
 1485TIP3    H2 4420   6.116   6.834   4.488 -0.2508  0.5752  0.3528
 1486TIP3   OH2 4421   1.781   1.686   0.854  0.6062 -0.3725  0.3485
 1486TIP3    H1 4422   1.717   1.707   0.785 -0.7572 -0.8834  1.4070
 1486TIP3    H2 4423   1.802   1.594   0.840  2.2714  0.1517 -0.8761
 1487TIP3   OH2 4424   1.216   3.009   0.238 -0.0691  0.0646 -0.0747
 1487TIP3    H1 4425   1.132   3.041   0.204 -0.9296 -0.0290  1.8109
 1487TIP3    H2 4426   1.192   2.946   0.306  1.5664 -1.1814 -0.5861
 1488TIP3   OH2 4427   0.255   2.557   2.152 -0.9645  0.1725  0.8009
 1488TIP3    H1 4428   0.274   2.468   2.120 -3.5108 -0.1976  0.1162
 1488TIP3    H2 4429   0.339   2.603   2.146  0.0008 -1.6327 -0.6396
 1489TIP3   OH2 4430   0.182   2.256   5.823 -0.2467 -0.5929 -0.4891
 1489TIP3    H1 4431   0.197   2.196   5.896 -3.1200 -0.4527  0.3328
 1489TIP3    H2 4432   0.236   2.221   5.752  1.7720 -1.3795  1.3056
 1490TIP3   OH2 4433   6.936   5.442   3.117  0.6843  0.7853  0.3809
 1490TIP3    H1 4434   6.969   5.464   3.204  0.6188  0.6669  0.4373
 1490TIP3    H2 4435   6.905   5.525   3.081 -0.4894  0.6298  0.9933
 1491TIP3   OH2 4436   2.078   0.545   0.618 -0.3483 -0.1513  0.3744
 1491TIP3    H1 4437   2.165   0.580   0.597  0.3515 -0.7492  2.0644
 1491TIP3    H2 4438   2.061   0.575   0.707 -2.7112  1.4339 -0.5398
 1492TIP3   OH2 4439   6.335   1.639   5.803  0.2324  0.2223  0.6169
 1492TIP3    H1 4440   6.418   1.687   5.795 -0.6680  2.0281  1.3744
 1492TIP3    H2 4441   6.287   1.662   5.723 -0.6524  1.5806  1.4949
 1493TIP3   OH2 4442   1.187   3.922   4.436  0.4414 -0.0404 -0.4225
 1493TIP3    H1 4443   1.171   3.833   4.467  1.2703 -0.2182 -0.4878
 1493TIP3    H2 4444   1.253   3.912   4.368 -0.3637  0.4971 -1.3136
 1494TIP3   OH2 4445   0.481   5.993   4.634  0.4162  0.0577  0.6118
 1494TIP3    H1 4446   0.443   6.015   4.720  0.4517  1.1910  0.3494
 1494TIP3    H2 4447   0.409   5.949   4.588 -0.8137  2.5684 -0.0395
 1495TIP3   OH2 4448   3.896   5.072   2.002 -0.0196  0.1906 -0.7132
 1495TIP3    H1 4449   3.986   5.039   2.005 -0.2545 -0.5341 -1.1299
 1495TIP3    H2 4450   3.856   5.021   1.931 -1.6320 -1.7548  1.4633
 1496TIP3   OH2 4451   0.703   1.566   0.310  0.1016 -0.4481 -0.6073
 1496TIP3    H1 4452   0.707   1.473   0.286  0.0738 -0.3055 -1.1930
 1496TIP3    H2 4453   0.791   1.599   0.296 -0.4067  0.1628 -2.8092
 1497TIP3   OH2 4454   5.672   3.328   5.570 -0.1697  0.0656  0.2923
 1497TIP3    H1 4455   5.600   3.369   5.618  0.6994  2.6861 -0.4739
 1497TIP3    H2 4456   5.748   3.339   5.627 -0.2697 -2.6185  1.0666
 1498TIP3   OH2 4457   5.125   1.112   1.898  0.4551  0.2584  0.0420
 1498TIP3    H1 4458   5.158   1.201   1.883  1.7271  0.0855  1.5023
 1498TIP3    H2 4459   5.141   1.067   1.816  1.8388  0.8156 -0.0294
 1499TIP3   OH2 4460   3.987   0.970   0.477 -0.3986  0.0347 -0.3291
 1499TIP3    H1 4461   3.924   0.976   0.406 -0.4554 -0.2251 -0.3018
 1499TIP3    H2 4462   3.938   0.995   0.555 -1.4044 -3.2295  0.2378
 1500TIP3   OH2 4463   4.183   5.580   5.432  0.0541  0.1295  0.6078
 1500TIP3    H1 4464   4.248   5.549   5.368  1.1127  1.3538  1.0530
 1500TIP3    H2 4465   4.103   5.533   5.409  1.0826 -1.4303  0.0372
 1501TIP3   OH2 4466   4.366   0.620   2.489 -0.3175  0.4129 -0.4333
 1501TIP3    H1 4467   4.283   0.647   2.450  0.0857  1.1300 -0.8258
 1501TIP3    H2 4468   4.427   0.617   2.416  0.3148  1.1997  0.0449
 1502TIP3   OH2 4469   6.579   2.282   2.573  0.2383  0.0159  0.2191
 1502TIP3    H1 4470   6.657   2.246   2.532 -0.0341 -0.9372  0.5115
 1502TIP3    H2 4471   6.595   2.275   2.667  0.4603  1.3067  0.2948
 1503TIP3   OH2 4472   4.472   4.198   3.851 -0.5240  0.2662 -0.0029
 1503TIP3    H1 4473   4.386   4.195   3.808 -0.7527 -2.8268  0.4158
 1503TIP3    H2 4474   4.530   4.153   3.790  0.9309  2.4988 -0.3637
 1504TIP3   OH2 4475   6.362   2.813   4.813  0.5132  0.2085 -0.4404
 1504TIP3    H1 4476   6.422   2.788   4.883  0.6593 -1.3592 -1.0747
 1504TIP3    H2 4477   6.290   2.858   4.857  1.1228  0.2001  0.5775
 1505TIP3   OH2 4478   3.733   2.678   4.939  0.2123  0.1235 -0.1406
 1505TIP3    H1 4479   3.812   2.730   4.930  0.2296 -0.2057 -2.3531
 1505TIP3    H2 4480   3.663   2.742   4.952  0.5970  0.5110  0.0449
 1506TIP3   OH2 4481   3.986   6.768   4.818  0.2043  0.3734 -0.0982
 1506TIP3    H1 4482   3.985   6.794   4.911 -0.2751 -1.9522  0.6243
 1506TIP3    H2 4483   3.907   6.715   4.808  0.2964  0.5401 -1.8503
 1507TIP3   OH2 4484   4.225   3.158   1.980 -0.2364  0.9508 -0.0839
 1507TIP3    H1 4485   4.199   3.087   2.038 -1.7432 -0.9321 -2.8371
 1507TIP3    H2 4486   4.200   3.238   2.028 -0.0912 -0.3669  2.3682
 1508TIP3   OH2 4487   4.612   5.428   2.553 -0.5656 -0.0060 -0.1930
 1508TIP3    H1 4488   4.672   5.447   2.481 -0.2223  0.4230  0.1909
 1508TIP3    H2 4489   4.663   5.449   2.632 -0.9994 -0.2753  0.1624
 1509TIP3   OH2 4490   3.718   5.102   0.654 -0.4015  0.5373  0.2827
 1509TIP3    H1 4491   3.766   5.033   0.608 -0.5101 -0.0279  0.9950
 1509TIP3    H2 4492   3.628   5.093   0.623 -0.5133  0.0304  0.7484
 1510TIP3   OH2 4493   2.424   5.952   3.996  0.1814 -0.0796  0.1398
 1510TIP3    H1 4494   2.490   5.934   4.063  0.6668 -0.0338 -0.3167
 1510TIP3    H2 4495   2.442   5.889   3.926 -0.6357 -0.4561  0.2654
 1511TIP3   OH2 4496   4.215   4.874   2.193 -0.0968 -0.0835  0.1539
 1511TIP3    H1 4497   4.180   4.948   2.144 -0.9913  0.2591  1.2456
 1511TIP3    H2 4498   4.269   4.914   2.261  1.8977 -0.5870 -1.0595
 1512TIP3   OH2 4499   3.331   1.298   3.541 -0.6426 -0.4172  0.6200
 1512TIP3    H1 4500   3.252   1.340   3.506  0.4656  1.0031 -0.2863
 1512TIP3    H2 4501   3.362   1.244   3.469  0.4032  0.7611  0.1483
 1513TIP3   OH2 4502   5.323   1.078   5.328 -0.4385 -0.5067 -0.3302
 1513TIP3    H1 4503   5.330   0.984   5.347 -1.4395 -0.6768 -0.7629
 1513TIP3    H2 4504   5.311   1.083   5.233  3.6336  0.3000 -0.9843
 1514TIP3   OH2 4505   0.756   3.177   1.652 -0.5638 -0.3015  0.0584
 1514TIP3    H1 4506   0.730   3.239   1.720  2.0733  2.8182 -1.4568
 1514TIP3    H2 4507   0.777   3.097   1.698 -1.8621  0.6619  2.4870
 1515TIP3   OH2 4508   3.288   5.150   2.428 -0.5641  0.6376 -0.0055
 1515TIP3    H1 4509   3.324   5.238   2.437 -1.3464  1.0686 -0.9327
 1515TIP3    H2 4510   3.306   5.126   2.337 -1.1038  0.1697  0.0053
 1516TIP3   OH2 4511   2.916   3.852   2.330  0.2311  0.3213  0.0704
 1516TIP3    H1 4512   2.931   3.939   2.366 -1.8783  1.5919 -1.8504
 1516TIP3    H2 4513   2.856   3.866   2.257  1.6754 -2.4635 -1.8586
 1517TIP3   OH2 4514   6.123   4.616   1.527  0.2710  0.6279  0.0122
 1517TIP3    H1 4515   6.098   4.699   1.568  0.3400  0.3798  0.5566
 1517TIP3    H2 4516   6.040   4.581   1.492  0.2433  0.9252 -0.2229
 1518TIP3   OH2 4517   7.160   0.127   1.759  0.0792  0.2799  0.0013
 1518TIP3    H1 4518   7.067   0.129   1.782  0.1870  0.9152  0.4184
 1518TIP3    H2 4519   7.170   0.050   1.702 -1.2499  1.7863 -2.4318
 1519TIP3   OH2 4520   1.049   4.780   4.963 -0.5907 -0.4049  0.2984
 1519TIP3    H1 4521   1.049   4.874   4.981  1.2269 -0.3710  0.2468
 1519TIP3    H2 4522   1.020   4.773   4.872  0.8964  0.2571 -0.2546
 1520TIP3   OH2 4523   0.762   5.112   4.649  0.1745 -0.0084  0.0809
 1520TIP3    H1 4524   0.728   5.106   4.738  2.7026  0.9762  1.2077
 1520TIP3    H2 4525   0.759   5.023   4.616 -1.0520 -0.3443  1.0407
 1521TIP3   OH2 4526   3.056   6.057   0.521  0.4319 -0.4027 -0.0128
 1521TIP3    H1 4527   3.042   6.119   0.449 -0.0205 -1.3417 -0.7620
 1521TIP3    H2 4528   3.151   6.055   0.532  0.4261  0.8374  0.4140
 1522TIP3   OH2 4529   2.551   0.532   0.660 -0.0294  0.5011  0.0393
 1522TIP3    H1 4530   2.514   0.538   0.748  0.3871 -0.5297  0.2950
 1522TIP3    H2 4531   2.494   0.470   0.614  1.9993 -2.0991  0.8115
 1523TIP3   OH2 4532   5.205   1.315   1.599 -0.1014 -0.2105 -0.1309
 1523TIP3    H1 4533   5.279   1.284   1.651 -0.2717 -0.9915 -0.3272
 1523TIP3    H2 4534   5.173   1.236   1.554 -2.4453 -0.3979  1.6514
 1524TIP3   OH2 4535   6.712   0.808   2.359  0.4795 -0.2005 -0.4643
 1524TIP3    H1 4536   6.758   0.780   2.438  1.7210  0.2727 -1.0021
 1524TIP3    H2 4537   6.670   0.891   2.383  0.3179 -0.3806 -0.1199
 1525TIP3   OH2 4538   3.361   4.343   3.736  0.0899 -0.0621  0.1105
 1525TIP3    H1 4539   3.284   4.349   3.680 -0.0951  1.0945  0.4704
 1525TIP3    H2 4540   3.395   4.432   3.740 -0.7739  0.2285  3.0539
 1526TIP3   OH2 4541   0.645   5.784   3.302 -0.4915  0.5028  0.1146
 1526TIP3    H1 4542   0.598   5.785   3.219  0.6296  1.3306 -0.5515
 1526TIP3    H2 4543   0.712   5.717   3.290 -1.9390 -1.2367  1.3450
 1527TIP3   OH2 4544   5.396   4.309   2.833 -0.1541 -0.2591 -0.4130
 1527TIP3    H1 4545   5.406   4.329   2.927  0.4431  0.1425 -0.5543
 1527TIP3    H2 4546   5.470   4.353   2.792 -1.1327  0.6779 -1.2394
 1528TIP3   OH2 4547   0.084   6.013   0.430 -0.3513  0.0671 -0.1552
 1528TIP3    H1 4548   0.147   6.008   0.502 -1.4071 -2.7148  0.7032
 1528TIP3    H2 4549   0.033   6.092   0.449 -0.2728 -0.3117  1.9325
 1529TIP3   OH2 4550   6.690   5.832   0.226 -0.7801 -0.1559  0.3763
 1529TIP3    H1 4551   6.595   5.841   0.228 -0.9777 -1.7081  2.6009
 1529TIP3    H2 4552   6.723   5.917   0.254 -1.5640  0.1818  0.3015
 1530TIP3   OH2 4553   5.061   0.566   2.511  0.4770  0.4374  0.2780
 1530TIP3    H1 4554   5.120   0.547   2.438 -1.7148  0.6461 -1.6633
 1530TIP3    H2 4555   5.013   0.485   2.524  0.4401  0.5873  1.0961
 1531TIP3   OH2 4556   1.334   3.124   3.647 -0.3029  0.4563 -0.3936
 1531TIP3    H1 4557   1.324   3.055   3.711 -0.4568  0.3674 -0.5130
 1531TIP3    H2 4558   1.309   3.204   3.694  1.7654  0.7281  0.3446
 1532TIP3   OH2 4559   4.528   3.443   2.088 -0.1959 -0.4190 -0.3594
 1532TIP3    H1 4560   4.458   3.449   2.153  0.1046  0.6447 -0.1186
 1532TIP3    H2 4561   4.486   3.402   2.012 -0.4704 -1.9541  0.5780
 1533TIP3   OH2 4562   2.751   1.177   4.286 -0.5778 -0.0560  0.9077
 1533TIP3    H1 4563   2.779   1.232   4.213 -2.1708  1.4048  1.3136
 1533TIP3    H2 4564   2.702   1.106   4.245 -1.1415  0.5469  0.5146
 1534TIP3   OH2 4565   4.278   3.664   2.543  0.1059 -0.4723  0.0778
 1534TIP3    H1 4566   4.356   3.687   2.594 -0.7543  0.7450  0.9120
 1534TIP3    H2 4567   4.243   3.587   2.588 -0.4028  0.3317  1.1059
 1535TIP3   OH2 4568   0.778   6.388   5.285 -0.3987  0.2543 -0.0232
 1535TIP3    H1 4569   0.831   6.464   5.263  0.7583 -0.7611 -0.8378
 1535TIP3    H2 4570   0.825   6.314   5.248 -1.6700 -0.8370  0.4616
 1536TIP3   OH2 4571   0.646   6.752   4.576  0.4026 -0.3526  0.4176
 1536TIP3    H1 4572   0.561   6.796   4.580  0.2084 -0.5639 -0.9258
 1536TIP3    H2 4573   0.630   6.673   4.525  1.1876 -0.9270  1.0492
 1537TIP3   OH2 4574   4.178   3.408   5.575 -0.0673 -1.0669  0.1929
 1537TIP3    H1 4575   4.141   3.485   5.618 -0.4599 -1.2825  0.2502
 1537TIP3    H2 4576   4.142   3.334   5.624  0.5066 -1.2828  0.3015
 1538TIP3   OH2 4577   2.158   4.469   2.385 -0.1852  0.0179 -0.2220
 1538TIP3    H1 4578   2.099   4.526   2.434 -1.3870 -0.2153 -1.3471
 1538TIP3    H2 4579   2.121   4.381   2.396 -0.0088 -0.1442 -0.8757
 1539TIP3   OH2 4580   0.937   1.678   0.217  0.0779 -0.9927  0.2976
 1539TIP3    H1 4581   1.013   1.687   0.275 -0.0686  0.6799  0.2570
 1539TIP3    H2 4582   0.973   1.641   0.137  0.5177 -2.0079  0.9372
 1540TIP3   OH2 4583   0.555   5.490   2.102 -0.3027 -0.0367  0.1195
 1540TIP3    H1 4584   0.507   5.561   2.060 -0.6214  0.1405  0.7668
 1540TIP3    H2 4585   0.497   5.460   2.171 -0.6326 -1.6717 -0.8348
 1541TIP3   OH2 4586   4.103   5.251   2.561  0.0069  0.0987  0.1859
 1541TIP3    H1 4587   4.113   5.193   2.636  0.0682  0.7473  0.6946
 1541TIP3    H2 4588   4.191   5.255   2.522 -0.1688 -0.7623 -0.3339
 1542TIP3   OH2 4589   0.055   5.064   4.911  0.2891  0.4784 -0.0890
 1542TIP3    H1 4590   0.024   5.034   4.826 -0.2090 -0.1767  0.3213
 1542TIP3    H2 4591   0.150   5.052   4.908  0.0558 -1.8565  0.3232
 1543TIP3   OH2 4592   6.335   6.295   5.630 -0.2758  0.5795 -0.5826
 1543TIP3    H1 4593   6.309   6.351   5.557  0.7237 -0.1757 -1.5556
 1543TIP3    H2 4594   6.398   6.348   5.680  0.0205  0.6446 -1.0172
 1544TIP3   OH2 4595   5.760   5.404   0.502  0.0220 -0.0636  0.2208
 1544TIP3    H1 4596   5.825   5.409   0.571  0.5782 -0.1017 -0.2970
 1544TIP3    H2 4597   5.802   5.443   0.426 -0.7912  0.5112  0.0477
 1545TIP3   OH2 4598   4.196   6.102   4.979  0.6702 -0.3444  0.1904
 1545TIP3    H1 4599   4.261   6.173   4.974  0.0232  0.2221 -0.3435
 1545TIP3    H2 4600   4.166   6.090   4.889  2.1078 -2.6131 -0.0788
 1546TIP3   OH2 4601   2.645   5.550   0.362  0.0649 -0.1230  0.2979
 1546TIP3    H1 4602   2.690   5.509   0.287 -0.6288  2.0717 -1.4484
 1546TIP3    H2 4603   2.555   5.520   0.355 -0.5629  1.8784 -1.2842
 1547TIP3   OH2 4604   1.778   0.172   2.962  0.1333  0.0916  0.0063
 1547TIP3    H1 4605   1.747   0.156   2.873  0.9709 -0.0845 -0.2636
 1547TIP3    H2 4606   1.820   0.257   2.959 -0.7362  0.5530  0.4888
 1548TIP3   OH2 4607   5.467   2.859   5.174 -0.1768  0.3613 -0.0551
 1548TIP3    H1 4608   5.453   2.769   5.203 -0.5116  0.7319  0.9874
 1548TIP3    H2 4609   5.549   2.856   5.125  0.3582 -0.3260  0.8560
 1549TIP3   OH2 4610   0.356   3.681   5.527  0.5689  0.1230  0.1451
 1549TIP3    H1 4611   0.321   3.761   5.565 -1.7502 -0.9335  0.3879
 1549TIP3    H2 4612   0.308   3.670   5.445  0.5533 -1.2218  0.3144
 1550TIP3   OH2 4613   1.738   1.190   4.551 -0.7378  0.2561 -0.8118
 1550TIP3    H1 4614   1.804   1.194   4.482 -0.3403 -2.4538 -0.6838
 1550TIP3    H2 4615   1.766   1.255   4.615 -0.4496  1.9763 -2.5822
 1551TIP3   OH2 4616   7.115   1.459   5.442  0.4106 -0.1994 -0.0403
 1551TIP3    H1 4617   7.125   1.402   5.518 -2.2652 -0.9825 -0.1699
 1551TIP3    H2 4618   7.158   1.412   5.371  1.5759 -0.1888  0.6331
 1552TIP3   OH2 4619   2.761   3.863   3.239 -0.2499 -0.2430 -0.3340
 1552TIP3    H1 4620   2.780   3.955   3.259  0.1089 -0.6544  1.3789
 1552TIP3    H2 4621   2.842   3.817   3.261 -0.5805 -1.0296 -0.7383
 1553TIP3   OH2 4622   0.483   1.159   4.223  0.2224  0.3271  0.0888
 1553TIP3    H1 4623   0.485   1.216   4.300  0.1610  1.2263 -0.5591
 1553TIP3    H2 4624   0.455   1.216   4.151 -0.7001 -0.7223 -0.4183
 1554TIP3   OH2 4625   5.216   0.055   1.473  0.3482  0.0831  0.5550
 1554TIP3    H1 4626   5.223   0.134   1.527 -0.7262 -0.4017  1.4507
 1554TIP3    H2 4627   5.152   0.078   1.405  1.8092  0.7425 -0.6640
 1555TIP3   OH2 4628   2.453   2.677   0.297  0.4829 -0.0325 -0.7534
 1555TIP3    H1 4629   2.504   2.696   0.218  0.6554 -1.2191 -0.9478
 1555TIP3    H2 4630   2.518   2.654   0.363  0.2892  0.0837 -0.5210
 1556TIP3   OH2 4631   3.942   3.087   5.432  0.4082 -0.2030  0.2469
 1556TIP3    H1 4632   3.921   3.117   5.520 -0.8396 -0.1490 -0.0590
 1556TIP3    H2 4633   3.985   3.002   5.444  0.3926 -0.1196  0.9014
 1557TIP3   OH2 4634   3.284   6.100   1.387  0.4677  0.4021 -0.0324
 1557TIP3    H1 4635   3.200   6.096   1.433 -0.1362 -1.8969 -1.1543
 1557TIP3    H2 4636   3.350   6.103   1.456 -0.4064 -2.5470  1.0792
 1558TIP3   OH2 4637   1.729   1.863   4.125 -0.2260 -0.1467 -0.0019
 1558TIP3    H1 4638   1.690   1.844   4.210 -0.2967  1.5264  0.3633
 1558TIP3    H2 4639   1.823   1.869   4.142 -0.2924  0.7696  0.0882
 1559TIP3   OH2 4640   3.402   1.929   4.332 -0.1979 -0.0326  0.6148
 1559TIP3    H1 4641   3.404   2.004   4.392 -2.3004  1.8088 -1.4065
 1559TIP3    H2 4642   3.489   1.927   4.293  0.5724 -0.0308  2.2357
 1560TIP3   OH2 4643   2.086   6.230   4.203 -0.0013  0.0210  0.4657
 1560TIP3    H1 4644   2.040   6.202   4.282  0.5661 -0.5988  0.5914
 1560TIP3    H2 4645   2.094   6.325   4.211 -1.5824  0.1861  0.2531
 1561TIP3   OH2 4646   6.942   0.827   0.606 -0.3206 -0.5012 -0.4416
 1561TIP3    H1 4647   6.849   0.845   0.621 -0.2514 -0.7948  0.4248
 1561TIP3    H2 4648   6.975   0.800   0.692  0.1240 -2.3410 -1.1488
 1562TIP3   OH2 4649   7.211   5.399   5.879  0.7088  0.4428  0.6327
 1562TIP3    H1 4650   7.163   5.334   5.930  0.9235 -0.6143 -0.4584
 1562TIP3    H2 4651   7.154   5.418   5.804  1.4707  0.0597 -0.0619
 1563TIP3   OH2 4652   6.541   2.679   4.987 -0.2526  0.1413 -0.7468
 1563TIP3    H1 4653   6.466   2.657   5.042  0.9130  0.7627  1.1971
 1563TIP3    H2 4654   6.588   2.596   4.976  0.4863  0.3186  0.8118
 1564TIP3   OH2 4655   3.006   3.823   5.827  0.5063  0.7284 -1.0794
 1564TIP3    H1 4656   2.959   3.757   5.777  3.2829 -0.3945 -2.4149
 1564TIP3    H2 4657   2.993   3.798   5.919 -1.1423  0.2907 -1.3995
 1565TIP3   OH2 4658   0.478   1.805   0.542 -0.4282 -0.5687  0.0274
 1565TIP3    H1 4659   0.427   1.728   0.516 -0.0025 -0.4993 -1.0680
 1565TIP3    H2 4660   0.473   1.806   0.638 -2.4476 -0.5936 -0.0191
 1566TIP3   OH2 4661   3.769   0.882   1.289 -0.2158  0.0412 -0.5334
 1566TIP3    H1 4662   3.722   0.893   1.371 -0.9807  1.3001 -1.1167
 1566TIP3    H2 4663   3.822   0.961   1.280 -0.5002  0.1401 -1.4719
 1567TIP3   OH2 4664   2.034   6.728   2.863 -0.6472 -0.4526 -0.1849
 1567TIP3    H1 4665   1.990   6.689   2.787 -1.1768 -0.4999  0.1360
 1567TIP3    H2 4666   2.126   6.707   2.851 -0.8335 -1.1822 -0.3908
 1568TIP3   OH2 4667   4.676   2.996   5.858 -0.3301  0.2864  0.4098
 1568TIP3    H1 4668   4.684   2.933   5.787 -1.3272  0.3939  0.1887
 1568TIP3    H2 4669   4.766   3.017   5.882  0.0496  0.9146 -1.4151
 1569TIP3   OH2 4670   0.845   5.957   1.730  0.0489  0.3611 -0.6626
 1569TIP3    H1 4671   0.765   5.937   1.778  0.4641  1.1977  0.4053
 1569TIP3    H2 4672   0.910   5.896   1.766  0.8962  2.3481  1.4186
 1570TIP3   OH2 4673   2.056   6.301   0.807 -0.1549 -0.3736  0.2029
 1570TIP3    H1 4674   1.975   6.320   0.854 -0.4240  0.6022 -0.6098
 1570TIP3    H2 4675   2.042   6.338   0.720  1.1382 -0.2384  0.0346
 1571TIP3   OH2 4676   1.466   3.818   4.540 -0.1715  0.0487  0.2904
 1571TIP3    H1 4677   1.540   3.876   4.527  0.9302 -1.2316  0.6543
 1571TIP3    H2 4678   1.493   3.759   4.610 -2.1321  0.5058  1.5235
 1572TIP3   OH2 4679   5.839   2.721   4.483  0.1649 -0.2815 -0.1688
 1572TIP3    H1 4680   5.845   2.786   4.413  0.3141 -0.7005 -0.5495
 1572TIP3    H2 4681   5.923   2.676   4.481  0.7600  0.6741  1.2587
 1573TIP3   OH2 4682   1.187   0.098   2.206 -0.1405 -0.0224 -0.1602
 1573TIP3    H1 4683   1.156   0.151   2.133  0.3523  1.0292  0.3697
 1573TIP3    H2 4684   1.226   0.161   2.267  3.3216 -1.2138 -0.9143
 1574TIP3   OH2 4685   1.612   0.505   0.847  0.1548 -0.3198  0.0455
 1574TIP3    H1 4686   1.608   0.600   0.832 -1.1391  0.4763  3.9807
 1574TIP3    H2 4687   1.523   0.475   0.832  0.6996 -1.1129 -1.8092
 1575TIP3   OH2 4688   0.415   0.138   5.608 -0.1528 -0.1909  0.1757
 1575TIP3    H1 4689   0.365   0.063   5.576  0.0534 -0.2102 -0.1026
 1575TIP3    H2 4690   0.504   0.124   5.576  0.0557 -0.2043  0.7537
 1576TIP3   OH2 4691   2.271   1.677   0.143  0.0551  0.3437  0.0492
 1576TIP3    H1 4692   2.198   1.619   0.123  1.1569 -1.5443  1.2869
 1576TIP3    H2 4693   2.333   1.664   0.071  0.0610  0.4185  0.0399
 1577TIP3   OH2 4694   2.233   0.150   2.677  0.0586  0.6562 -0.2466
 1577TIP3    H1 4695   2.224   0.126   2.584 -1.0230  2.4928 -0.6614
 1577TIP3    H2 4696   2.324   0.178   2.686  0.1455  0.5507 -0.7646
 1578TIP3   OH2 4697   1.969   6.284   3.567  0.5208  0.4742 -0.5600
 1578TIP3    H1 4698   1.941   6.329   3.646  0.0308 -1.8444  0.6662
 1578TIP3    H2 4699   2.047   6.332   3.538  0.5610  1.5263  1.1608
 1579TIP3   OH2 4700   1.386   5.395   0.586 -0.0415  0.4534  0.4342
 1579TIP3    H1 4701   1.468   5.420   0.543 -0.3233 -0.1908 -0.5121
 1579TIP3    H2 4702   1.386   5.300   0.584 -1.8768  0.4227 -1.7274
 1580TIP3   OH2 4703   3.122   0.367   2.496  0.9837 -0.0524  0.1822
 1580TIP3    H1 4704   3.163   0.325   2.421 -0.4998  2.8856 -2.4607
 1580TIP3    H2 4705   3.194   0.400   2.549  2.0278 -1.0495 -0.5873
 1581TIP3   OH2 4706   5.962   2.482   2.030 -0.5887  0.2892  0.2168
 1581TIP3    H1 4707   6.048   2.499   2.067 -0.2891  0.3625 -0.5050
 1581TIP3    H2 4708   5.904   2.545   2.074 -0.6608 -0.9846  2.0816
 1582TIP3   OH2 4709   3.136   5.557   2.831 -0.3519  0.2631 -0.0240
 1582TIP3    H1 4710   3.175   5.635   2.871  0.3213  0.0637 -0.2871
 1582TIP3    H2 4711   3.140   5.573   2.737 -1.4204  0.4833 -0.0483
 1583TIP3   OH2 4712   6.711   3.864   1.610 -0.1868  0.6324 -0.4670
 1583TIP3    H1 4713   6.736   3.773   1.593 -1.3766  0.4078 -1.1000
 1583TIP3    H2 4714   6.617   3.860   1.628 -0.1002  1.6467  0.2864
 1584TIP3   OH2 4715   1.081   5.049   3.120  0.0181 -0.7487 -0.3874
 1584TIP3    H1 4716   1.119   5.102   3.049 -0.5527 -0.4337 -0.4698
 1584TIP3    H2 4717   1.148   4.985   3.141 -0.1209 -1.4057 -1.8116
 1585TIP3   OH2 4718   6.447   0.800   5.396  0.6633 -0.4659 -0.2196
 1585TIP3    H1 4719   6.509   0.741   5.353  1.2827 -0.1870  0.2724
 1585TIP3    H2 4720   6.491   0.827   5.476  0.3379  0.5746 -0.3784
 1586TIP3   OH2 4721   0.732   0.864   0.834  0.6965  0.1111 -0.2148
 1586TIP3    H1 4722   0.769   0.783   0.800  1.7763  0.5572 -0.1590
 1586TIP3    H2 4723   0.758   0.931   0.770 -0.9301  0.2996 -0.7292
 1587TIP3   OH2 4724   2.570   0.291   5.376 -0.0389 -0.3429 -0.0844
 1587TIP3    H1 4725   2.496   0.312   5.319  0.1434  0.3890 -0.0668
 1587TIP3    H2 4726   2.624   0.231   5.325 -0.1655 -0.1331 -0.4691
 1588TIP3   OH2 4727   2.689   4.236   3.941  0.1835  0.6348 -0.0968
 1588TIP3    H1 4728   2.764   4.278   3.898  0.4635  1.4073  1.0951
 1588TIP3    H2 4729   2.718   4.222   4.031 -0.1410 -1.5878 -0.2877
 1589TIP3   OH2 4730   7.172   3.510   5.179 -0.1343  0.2533  0.6134
 1589TIP3    H1 4731   7.088   3.555   5.193  0.0108  0.6377  0.2839
 1589TIP3    H2 4732   7.238   3.576   5.199  0.0934 -0.0943  1.0124
 1590TIP3   OH2 4733   7.077   3.017   2.764 -0.2438 -0.1330 -0.0264
 1590TIP3    H1 4734   7.089   2.959   2.689 -3.0155 -0.6129 -0.2163
 1590TIP3    H2 4735   7.016   2.970   2.821  1.3667  0.4719  2.2971
 1591TIP3   OH2 4736   5.182   1.432   1.008 -0.1543  0.2897 -0.2471
 1591TIP3    H1 4737   5.233   1.493   0.953 -0.6391 -0.6982 -1.8450
 1591TIP3    H2 4738   5.241   1.412   1.081  1.6518 -0.4685 -1.7990
 1592TIP3   OH2 4739   5.475   2.502   0.973  0.1028 -0.2349  0.0303
 1592TIP3    H1 4740   5.463   2.420   0.926  1.5039  0.3307 -1.3865
 1592TIP3    H2 4741   5.555   2.488   1.024  0.9303  0.5620 -1.0070
 1593TIP3   OH2 4742   2.537   5.358   4.469  0.4430  0.2530 -0.3060
 1593TIP3    H1 4743   2.443   5.352   4.451  0.5594 -0.8024 -0.6609
 1593TIP3    H2 4744   2.576   5.289   4.415  1.0896 -1.3699  2.0752
 1594TIP3   OH2 4745   5.260   0.881   3.635 -0.0568  0.4861 -0.2194
 1594TIP3    H1 4746   5.340   0.845   3.597 -0.3805  1.5071 -1.9591
 1594TIP3    H2 4747   5.290   0.943   3.701  0.5122 -2.1257  2.1510
 1595TIP3   OH2 4748   0.591   2.114   4.672  0.5431 -0.3849 -0.2474
 1595TIP3    H1 4749   0.655   2.140   4.738 -0.9902  1.5801  0.5613
 1595TIP3    H2 4750   0.640   2.116   4.590  1.9658 -0.8457  0.5440
 1596TIP3   OH2 4751   0.872   2.616   5.407 -0.6573 -0.0575  0.1239
 1596TIP3    H1 4752   0.927   2.687   5.440 -1.4160  0.4130  0.4036
 1596TIP3    H2 4753   0.909   2.537   5.446 -0.2357  0.2572  0.3778
 1597TIP3   OH2 4754   3.383   0.429   1.091  0.0611 -0.5869 -0.1500
 1597TIP3    H1 4755   3.355   0.433   1.183 -0.6076 -0.8086 -0.3340
 1597TIP3    H2 4756   3.392   0.336   1.072  2.5651 -0.5194  0.3541
 1598TIP3   OH2 4757   2.844   2.868   1.311 -0.1666 -0.6989 -0.3971
 1598TIP3    H1 4758   2.775   2.929   1.284  0.8930  0.5652 -0.3095
 1598TIP3    H2 4759   2.894   2.851   1.232  0.2595 -0.4986 -0.1771
 1599TIP3   OH2 4760   0.466   5.528   1.074 -0.3116  0.1458  0.2072
 1599TIP3    H1 4761   0.383   5.493   1.106 -1.1215  1.9159  0.2008
 1599TIP3    H2 4762   0.493   5.590   1.142  0.6451  0.1032 -0.1236
 1600TIP3   OH2 4763   5.797   6.267   4.514 -0.3884 -0.1841  0.0649
 1600TIP3    H1 4764   5.758   6.332   4.572 -0.3593 -0.9109  0.9267
 1600TIP3    H2 4765   5.887   6.257   4.546 -0.7500 -1.5235  0.7429
 1601TIP3   OH2 4766   6.228   0.286   1.849 -0.3229  0.2449 -0.2567
 1601TIP3    H1 4767   6.182   0.202   1.845  1.7560 -0.9298 -0.3240
 1601TIP3    H2 4768   6.157   0.351   1.847 -1.9261 -1.4343 -1.4275
 1602TIP3   OH2 4769   3.656   1.844   3.414  0.0703  0.4752  0.2321
 1602TIP3    H1 4770   3.672   1.752   3.394 -0.5979 -0.0635  1.9601
 1602TIP3    H2 4771   3.587   1.870   3.353 -0.4408 -0.4712  0.3874
 1603TIP3   OH2 4772   7.100   3.071   5.815 -0.1012 -0.0786 -0.3424
 1603TIP3    H1 4773   7.119   3.063   5.722 -0.4501  1.1227 -0.5350
 1603TIP3    H2 4774   7.005   3.066   5.820 -0.0623 -0.5258 -0.0011
 1604TIP3   OH2 4775   1.163   2.461   1.229  0.7467  0.4043 -0.1979
 1604TIP3    H1 4776   1.105   2.401   1.183  1.3659  0.5270 -1.1741
 1604TIP3    H2 4777   1.131   2.462   1.319  0.7917 -1.5035 -0.1184
 1605TIP3   OH2 4778   3.397   0.725   1.919  0.4510 -0.3854 -0.4038
 1605TIP3    H1 4779   3.422   0.783   1.847  1.8602 -0.0364  0.3337
 1605TIP3    H2 4780   3.367   0.784   1.988  1.7429 -0.5055  0.2925
 1606TIP3   OH2 4781   0.343   0.266   0.367 -0.6510  0.1730 -0.6075
 1606TIP3    H1 4782   0.349   0.194   0.430 -0.4155  0.4310 -0.3327
 1606TIP3    H2 4783   0.267   0.317   0.396 -0.6597  0.1836 -0.6487
 1607TIP3   OH2 4784   5.300   1.031   0.118  0.1979 -0.3346 -0.0605
 1607TIP3    H1 4785   5.341   1.084   0.048  0.2531 -0.9933 -0.5363
 1607TIP3    H2 4786   5.373   1.004   0.173  0.0372  1.1463  0.9491
 1608TIP3   OH2 4787   3.402   4.688   4.636  0.2091 -0.3240  0.0212
 1608TIP3    H1 4788   3.448   4.759   4.680  1.1360 -1.1892  0.4917
 1608TIP3    H2 4789   3.471   4.637   4.594  0.2244 -3.5689  3.4481
 1609TIP3   OH2 4790   2.481   1.713   1.687  0.5035  0.4632  0.2077
 1609TIP3    H1 4791   2.524   1.640   1.732  0.0554  0.1365  0.1074
 1609TIP3    H2 4792   2.552   1.758   1.641  0.7980  0.1577  0.3600
 1610TIP3   OH2 4793   0.086   6.315   0.510  0.5884  0.0591  0.2509
 1610TIP3    H1 4794   0.154   6.334   0.575  0.0259  0.5678  0.7042
 1610TIP3    H2 4795   0.134   6.288   0.432  1.3986  2.0226  0.0121
 1611TIP3   OH2 4796   0.732   4.809   4.886 -0.0474  0.3876 -0.1798
 1611TIP3    H1 4797   0.730   4.755   4.965 -1.2621 -1.8117 -1.5859
 1611TIP3    H2 4798   0.800   4.769   4.831 -0.3343  0.8536 -0.8855
 1612TIP3   OH2 4799   6.942   4.587   2.637 -0.4111  0.0868 -0.3171
 1612TIP3    H1 4800   6.871   4.627   2.688  0.8309  0.9073  0.8153
 1612TIP3    H2 4801   6.965   4.654   2.572  1.1029  0.9817  1.0488
 1613TIP3   OH2 4802   2.978   5.488   5.544 -0.5781 -0.2095 -0.3114
 1613TIP3    H1 4803   3.069   5.461   5.536 -0.4628  0.6694 -2.5406
 1613TIP3    H2 4804   2.930   5.430   5.485 -1.2399  0.2830 -0.2723
 1614TIP3   OH2 4805   1.172   3.277   1.015  0.5587 -0.1131  0.3602
 1614TIP3    H1 4806   1.172   3.310   0.925 -0.2060 -1.0491 -0.0014
 1614TIP3    H2 4807   1.157   3.354   1.069  1.7011  0.5679 -0.2571
 1615TIP3   OH2 4808   7.094   0.111   5.249  0.7319 -0.5130  0.3409
 1615TIP3    H1 4809   7.123   0.020   5.264  2.2325  0.1028  1.3957
 1615TIP3    H2 4810   7.119   0.157   5.328 -1.6033  0.5041  0.5476
 1616TIP3   OH2 4811   2.848   5.874   4.628  0.0068 -0.0898  0.0507
 1616TIP3    H1 4812   2.938   5.842   4.628 -0.0237 -0.2013 -0.5255
 1616TIP3    H2 4813   2.856   5.966   4.603 -0.1617 -0.5880 -2.0820
 1617TIP3   OH2 4814   2.872   0.529   4.306 -0.0816  0.2845 -0.2897
 1617TIP3    H1 4815   2.967   0.522   4.311 -0.1265 -0.6590 -0.5415
 1617TIP3    H2 4816   2.846   0.562   4.392  0.4876  0.7707 -0.3013
 1618TIP3   OH2 4817   3.937   5.410   0.711  0.4440 -0.0267 -0.1159
 1618TIP3    H1 4818   3.968   5.500   0.722 -1.2943  0.8067 -1.4310
 1618TIP3    H2 4819   4.000   5.357   0.758  0.8010  1.9905  1.8422
 1619TIP3   OH2 4820   7.109   4.097   1.159  0.0783  0.0814  0.2942
 1619TIP3    H1 4821   7.190   4.148   1.160  1.0050 -1.2974 -0.4542
 1619TIP3    H2 4822   7.115   4.045   1.078 -1.1779 -0.6217  0.6321
 1620TIP3   OH2 4823   5.452   4.759   2.988 -0.2693 -0.0831  0.0978
 1620TIP3    H1 4824   5.411   4.772   3.074  0.9188  0.6916  0.5776
 1620TIP3    H2 4825   5.472   4.847   2.957  1.8784 -0.4267  0.3433
 1621TIP3   OH2 4826   1.565   1.524   0.287  0.0592  0.3749 -0.6614
 1621TIP3    H1 4827   1.585   1.436   0.316 -1.6278  0.2587  0.2363
 1621TIP3    H2 4828   1.638   1.577   0.319 -0.2401 -0.2588  1.1741
 1622TIP3   OH2 4829   2.793   3.470   0.268 -0.4200 -0.6874  0.3027
 1622TIP3    H1 4830   2.811   3.498   0.178 -0.1140 -0.9647  0.2745
 1622TIP3    H2 4831   2.801   3.375   0.265  0.2980 -0.6497  0.7706
 1623TIP3   OH2 4832   4.368   2.612   3.009 -0.0521 -0.2626 -0.3556
 1623TIP3    H1 4833   4.323   2.693   3.036 -0.6069 -0.7640  0.2602
 1623TIP3    H2 4834   4.357   2.553   3.084 -0.3021 -1.1653 -1.0956
 1624TIP3   OH2 4835   0.296   3.986   1.550  0.1417 -0.3427  0.3021
 1624TIP3    H1 4836   0.235   3.921   1.517 -1.1300  1.4982 -1.1635
 1624TIP3    H2 4837   0.242   4.062   1.569  1.9352  1.3819 -1.0899
 1625TIP3   OH2 4838   6.928   6.498   2.640 -0.3775  0.1074 -0.3301
 1625TIP3    H1 4839   6.998   6.436   2.623  0.1460  0.9655 -1.4411
 1625TIP3    H2 4840   6.970   6.568   2.692 -0.4404  0.5234 -0.8282
 1626TIP3   OH2 4841   2.947   2.312   2.390 -0.1241 -0.2417 -0.1816
 1626TIP3    H1 4842   2.969   2.391   2.441 -0.2280  0.5869 -1.3760
 1626TIP3    H2 4843   2.980   2.239   2.443  1.6413  0.6990  0.1072
 1627TIP3   OH2 4844   2.099   0.627   0.944  0.7774  0.7092 -0.4454
 1627TIP3    H1 4845   2.028   0.563   0.944  1.6117 -0.2536 -1.0057
 1627TIP3    H2 4846   2.061   0.705   0.984 -0.5278  0.1574 -0.5538
 1628TIP3   OH2 4847   1.435   3.972   2.055 -0.0644 -0.6426  0.3077
 1628TIP3    H1 4848   1.444   4.067   2.060 -0.9005 -0.5370 -0.0555
 1628TIP3    H2 4849   1.482   3.948   1.975 -0.6656 -0.4180 -0.1184
 1629TIP3   OH2 4850   3.016   6.746   1.227 -0.0084 -0.1540 -0.7177
 1629TIP3    H1 4851   2.923   6.760   1.208 -0.4978 -1.6373  0.4259
 1629TIP3    H2 4852   3.047   6.831   1.260 -1.3571 -0.0497  0.3626
 1630TIP3   OH2 4853   1.486   4.641   2.875 -0.4615 -0.0407 -0.4001
 1630TIP3    H1 4854   1.515   4.731   2.892  0.1589 -0.1705 -0.7294
 1630TIP3    H2 4855   1.473   4.638   2.780  1.1479 -0.7448 -0.6385
 1631TIP3   OH2 4856   1.849   3.287   3.172  0.5695  0.1518 -0.1064
 1631TIP3    H1 4857   1.893   3.248   3.097  1.2152  0.7242 -0.0400
 1631TIP3    H2 4858   1.919   3.336   3.218  0.7329 -1.9433  2.0887
 1632TIP3   OH2 4859   4.658   0.527   5.399 -0.1803 -0.6619  0.3160
 1632TIP3    H1 4860   4.582   0.571   5.437 -0.2042  1.9983 -2.4258
 1632TIP3    H2 4861   4.698   0.480   5.472 -2.4989  0.6609  2.5913
 1633TIP3   OH2 4862   0.353   5.297   3.440 -0.4222  0.0320  0.5973
 1633TIP3    H1 4863   0.399   5.215   3.425 -0.9605 -0.2007  0.2009
 1633TIP3    H2 4864   0.263   5.280   3.413 -0.9143  0.2727  2.0033
 1634TIP3   OH2 4865   1.501   4.896   1.979  0.2200  0.1189  0.0759
 1634TIP3    H1 4866   1.436   4.958   1.946 -1.1728 -1.2462  0.1392
 1634TIP3    H2 4867   1.550   4.869   1.902  0.4397  0.8179 -0.0405
 1635TIP3   OH2 4868   3.544   0.613   3.238 -0.1742  0.3653 -0.0394
 1635TIP3    H1 4869   3.523   0.611   3.332  0.0432  1.9662  0.0678
 1635TIP3    H2 4870   3.636   0.587   3.233 -0.5072 -0.9177  0.0484
 1636TIP3   OH2 4871   5.101   0.962   1.024 -0.1731 -0.2429  0.8578
 1636TIP3    H1 4872   5.090   1.017   0.946  0.4062 -1.9746 -0.4982
 1636TIP3    H2 4873   5.013   0.933   1.045 -0.0406 -2.5691 -1.3380
 1637TIP3   OH2 4874   1.970   4.518   3.537 -0.4293  0.4591 -0.6020
 1637TIP3    H1 4875   1.967   4.437   3.589 -0.5831  2.0641  2.1048
 1637TIP3    H2 4876   1.881   4.528   3.504 -0.0834 -1.1212 -2.1629
 1638TIP3   OH2 4877   6.198   3.227   0.938 -0.4667  0.3330  0.3177
 1638TIP3    H1 4878   6.200   3.134   0.961  0.2739  0.4303  0.6699
 1638TIP3    H2 4879   6.277   3.263   0.978  0.0727  0.8121 -1.1167
 1639TIP3   OH2 4880   2.637   6.190   5.567  0.2387  0.6510 -0.0083
 1639TIP3    H1 4881   2.612   6.145   5.649 -0.1762  0.5858 -0.1688
 1639TIP3    H2 4882   2.636   6.121   5.501 -0.1150  0.8381 -0.2009
 1640TIP3   OH2 4883   4.282   1.655   4.367 -0.2711  0.4502 -0.5212
 1640TIP3    H1 4884   4.294   1.614   4.453  1.1665  1.6097 -0.1166
 1640TIP3    H2 4885   4.253   1.584   4.311  1.0364 -0.9002  0.4089
 1641TIP3   OH2 4886   6.516   0.146   2.154  0.1449  0.4693  0.4870
 1641TIP3    H1 4887   6.475   0.073   2.108 -1.1364  0.9490  0.8311
 1641TIP3    H2 4888   6.462   0.222   2.132  1.8359  1.4677 -0.3874
 1642TIP3   OH2 4889   1.504   0.836   2.457 -0.2185 -0.0520 -0.4762
 1642TIP3    H1 4890   1.571   0.811   2.521 -0.6978  0.5879  0.2852
 1642TIP3    H2 4891   1.522   0.780   2.381  0.6747 -0.4583  0.0186
 1643TIP3   OH2 4892   0.475   5.973   3.473 -0.1034 -0.2743  0.7589
 1643TIP3    H1 4893   0.463   6.057   3.431 -0.8575 -0.3941  0.7328
 1643TIP3    H2 4894   0.541   5.928   3.419  3.4674  1.8038  2.9684
 1644TIP3   OH2 4895   6.710   0.647   1.173  0.1394 -0.1261 -0.2103
 1644TIP3    H1 4896   6.756   0.615   1.095  1.3685  1.0132  0.0062
 1644TIP3    H2 4897   6.682   0.567   1.219  0.5690 -0.8287 -1.1447
 1645TIP3   OH2 4898   3.519   2.635   5.530 -0.4677  0.5820  0.4420
 1645TIP3    H1 4899   3.438   2.586   5.517 -0.6838  0.5120  1.8752
 1645TIP3    H2 4900   3.508   2.677   5.616  0.4303  1.7253  0.0287
 1646TIP3   OH2 4901   5.523   2.966   1.817 -0.0141 -0.7873 -0.0880
 1646TIP3    H1 4902   5.587   2.954   1.887  0.2133  1.7200  0.2484
 1646TIP3    H2 4903   5.573   3.007   1.746 -1.3041  2.2522  0.5772
 1647TIP3   OH2 4904   2.320   5.988   5.067  0.2985  0.7205 -0.4321
 1647TIP3    H1 4905   2.281   6.019   4.985 -1.0628 -0.4622 -0.2750
 1647TIP3    H2 4906   2.396   5.937   5.040 -0.0268  0.5045 -0.9514
 1648TIP3   OH2 4907   6.706   0.849   5.770 -0.4662 -0.0481 -0.3608
 1648TIP3    H1 4908   6.627   0.800   5.749 -1.6792  0.7884  1.9242
 1648TIP3    H2 4909   6.766   0.783   5.805 -1.2013 -0.2877  0.4838
 1649TIP3   OH2 4910   5.554   4.449   1.493 -0.3093 -0.2194 -0.3778
 1649TIP3    H1 4911   5.509   4.534   1.496  0.7390  0.3255  0.2197
 1649TIP3    H2 4912   5.554   4.426   1.400  0.0739  0.8151 -0.6482
 1650TIP3   OH2 4913   0.301   1.227   1.525 -0.1615 -0.5161 -0.5655
 1650TIP3    H1 4914   0.214   1.222   1.486 -0.3642  0.9898 -0.3537
 1650TIP3    H2 4915   0.293   1.180   1.608 -0.4333 -1.4001 -1.0669
 1651TIP3   OH2 4916   2.619   0.314   4.442  0.2620 -0.9285  0.0190
 1651TIP3    H1 4917   2.672   0.376   4.392 -1.2255 -0.4952 -1.1127
 1651TIP3    H2 4918   2.656   0.315   4.530  1.4593  0.1114 -0.4694
 1652TIP3   OH2 4919   4.925   4.159   3.049  0.0790  0.2980 -0.1508
 1652TIP3    H1 4920   4.932   4.164   3.145 -0.8743  1.2615 -0.1068
 1652TIP3    H2 4921   4.990   4.222   3.018  0.1485  0.2368 -0.1300
 1653TIP3   OH2 4922   3.651   2.958   2.239  0.5971  0.3710 -0.1650
 1653TIP3    H1 4923   3.675   2.904   2.164 -0.8008  0.2509 -0.5583
 1653TIP3    H2 4924   3.584   2.906   2.285  1.4544  0.4137  1.2126
 1654TIP3   OH2 4925   2.010   4.012   0.994 -0.2129  0.3198  0.0790
 1654TIP3    H1 4926   2.080   3.976   1.048  1.5100  0.1238 -2.1213
 1654TIP3    H2 4927   1.982   3.938   0.939 -0.2798  1.0381 -0.8832
 1655TIP3   OH2 4928   2.405   3.498   5.032  0.5508  0.7280  1.0711
 1655TIP3    H1 4929   2.473   3.509   5.099  2.7694  1.8645 -1.2082
 1655TIP3    H2 4930   2.437   3.428   4.976 -0.5837  0.7041  0.4254
 1656TIP3   OH2 4931   3.854   3.822   5.891  0.3379 -0.0298  0.4763
 1656TIP3    H1 4932   3.891   3.908   5.912 -1.0218  0.9961 -1.1313
 1656TIP3    H2 4933   3.894   3.798   5.807  0.1791 -0.6603  0.5740
 1657TIP3   OH2 4934   5.495   6.470   3.509  0.0323  0.1421  0.3205
 1657TIP3    H1 4935   5.451   6.403   3.560  0.3357  0.0016  0.4024
 1657TIP3    H2 4936   5.586   6.467   3.539  0.7526 -1.4422 -1.7115
 1658TIP3   OH2 4937   6.822   2.534   2.378 -0.1222 -0.0884  0.1034
 1658TIP3    H1 4938   6.854   2.500   2.462 -0.6297 -0.2522  0.2406
 1658TIP3    H2 4939   6.731   2.558   2.396 -0.3528 -0.4764 -0.4912
 1659TIP3   OH2 4940   0.455   5.577   4.872 -0.4734  0.3610  0.4137
 1659TIP3    H1 4941   0.507   5.498   4.889  0.0867  0.8452  0.9915
 1659TIP3    H2 4942   0.473   5.598   4.781 -1.0425 -0.4802  0.0996
 1660TIP3   OH2 4943   1.435   4.623   5.798  0.8276 -0.1806 -0.7459
 1660TIP3    H1 4944   1.520   4.665   5.812  1.1964  0.1347 -3.3602
 1660TIP3    H2 4945   1.375   4.696   5.782  0.1768 -0.4325  0.4425
 1661TIP3   OH2 4946   4.594   2.311   3.898 -0.5170 -0.0443  0.0841
 1661TIP3    H1 4947   4.686   2.288   3.915 -0.0513  1.4831 -0.2785
 1661TIP3    H2 4948   4.547   2.277   3.974  0.1775 -1.7511 -0.1996
 1662TIP3   OH2 4949   5.880   1.260   1.410 -0.0470  0.1486 -0.4366
 1662TIP3    H1 4950   5.855   1.350   1.392 -0.6572 -0.2815 -1.8295
 1662TIP3    H2 4951   5.803   1.208   1.387  1.1918 -0.9704 -2.2915
 1663TIP3   OH2 4952   4.508   1.209   5.245  0.0480  0.2233  0.0719
 1663TIP3    H1 4953   4.525   1.120   5.277  0.7238 -0.6132 -2.4309
 1663TIP3    H2 4954   4.456   1.197   5.166 -1.5650  2.2051  0.7272
 1664TIP3   OH2 4955   5.871   5.208   4.487  0.5744 -0.2221  0.1584
 1664TIP3    H1 4956   5.869   5.269   4.561 -0.6800  1.2791 -1.0359
 1664TIP3    H2 4957   5.857   5.264   4.410 -0.3678 -1.9930 -1.0076
 1665TIP3   OH2 4958   4.312   1.390   1.664  0.2682 -0.4745 -0.5521
 1665TIP3    H1 4959   4.316   1.368   1.571  0.5144 -2.3840 -0.1309
 1665TIP3    H2 4960   4.336   1.309   1.709  3.9135  1.3487  1.1574
 1666TIP3   OH2 4961   5.144   4.445   5.287  0.0748  0.3410  1.0907
 1666TIP3    H1 4962   5.083   4.520   5.288  1.0235  1.3666 -2.5606
 1666TIP3    H2 4963   5.089   4.370   5.265 -0.1858  0.9947 -0.6695
 1667TIP3   OH2 4964   1.963   1.221   2.463  0.5381 -0.7300  0.2829
 1667TIP3    H1 4965   2.049   1.246   2.498  0.6430 -0.4948 -0.1222
 1667TIP3    H2 4966   1.901   1.278   2.509  0.7101 -0.1783 -0.1587
 1668TIP3   OH2 4967   0.764   2.805   3.651  0.0809 -0.1859  0.1627
 1668TIP3    H1 4968   0.792   2.823   3.741  0.1563 -1.6566  0.4591
 1668TIP3    H2 4969   0.672   2.828   3.649  0.3493  0.9179  0.3015
 1669TIP3   OH2 4970   4.270   5.084   3.609  0.1418 -0.0788 -0.1165
 1669TIP3    H1 4971   4.274   5.179   3.598 -2.5227  0.1010 -0.1908
 1669TIP3    H2 4972   4.340   5.064   3.671  0.1481  2.0722  0.6599
 1670TIP3   OH2 4973   1.976   1.906   4.243  0.4322  0.3940  0.0926
 1670TIP3    H1 4974   2.029   1.890   4.321  0.9634  1.3489 -0.0628
 1670TIP3    H2 4975   1.999   1.995   4.216  0.3145  0.0511 -1.1931
 1671TIP3   OH2 4976   3.449   3.574   1.132 -0.7364 -0.1677  0.1189
 1671TIP3    H1 4977   3.449   3.519   1.053 -0.8504 -0.5920  0.4067
 1671TIP3    H2 4978   3.437   3.663   1.100 -1.5738 -0.4176 -0.2915
 1672TIP3   OH2 4979   5.831   3.794   2.223 -0.2806  0.8441 -0.5793
 1672TIP3    H1 4980   5.776   3.746   2.285  0.6657  0.4407 -0.0356
 1672TIP3    H2 4981   5.769   3.846   2.172 -1.1876  0.2294 -0.1372
 1673TIP3   OH2 4982   3.891   6.545   0.529 -0.2930 -0.1022  0.6032
 1673TIP3    H1 4983   3.913   6.457   0.497  0.7122  0.0164  0.9236
 1673TIP3    H2 4984   3.912   6.603   0.457 -1.0907 -0.1272  0.3411
 1674TIP3   OH2 4985   4.724   3.833   1.586 -0.4695 -0.1738  0.0763
 1674TIP3    H1 4986   4.641   3.812   1.543 -0.6502  0.3574  0.1572
 1674TIP3    H2 4987   4.699   3.885   1.662 -0.1397 -0.9926  0.7508
 1675TIP3   OH2 4988   0.222   2.496   1.119  0.2352 -0.1653 -0.2555
 1675TIP3    H1 4989   0.295   2.439   1.099  0.5567 -0.8810  2.5136
 1675TIP3    H2 4990   0.165   2.444   1.176 -2.1974  0.5498 -1.8361
 1676TIP3   OH2 4991   0.253   6.769   1.837  0.4285 -0.0261  0.0297
 1676TIP3    H1 4992   0.316   6.767   1.766 -1.5109 -0.1923 -1.7854
 1676TIP3    H2 4993   0.180   6.821   1.804 -1.5862 -2.0677  0.9129
 1677TIP3   OH2 4994   3.071   5.782   0.477 -0.5395 -0.0358 -0.3455
 1677TIP3    H1 4995   3.047   5.875   0.474 -2.3710 -0.4794 -0.9029
 1677TIP3    H2 4996   2.997   5.739   0.521  1.0938 -1.0351  1.5932
 1678TIP3   OH2 4997   1.559   0.140   1.654 -0.3028  0.0037 -0.6850
 1678TIP3    H1 4998   1.522   0.150   1.742  1.8029  0.2199  0.2138
 1678TIP3    H2 4999   1.488   0.170   1.596 -1.9985 -0.7930  0.8513
 1679TIP3   OH2 5000   5.365   0.624   4.625  0.0174  0.5691 -0.0850
 1679TIP3    H1 5001   5.372   0.719   4.629  0.5124  0.4897  2.1864
 1679TIP3    H2 5002   5.274   0.606   4.646  0.8112  0.4827  4.0416
 1680TIP3   OH2 5003   3.179   3.477   2.554 -0.0625  0.0511  0.1362
 1680TIP3    H1 5004   3.194   3.524   2.636  0.2908 -0.1721  0.1998
 1680TIP3    H2 5005   3.084   3.476   2.545 -0.0685  1.2701 -0.1502
 1681TIP3   OH2 5006   0.449   1.173   0.951 -0.1677  0.6461 -0.1444
 1681TIP3    H1 5007   0.532   1.211   0.981 -0.2467 -0.7610  2.1179
 1681TIP3    H2 5008   0.473   1.122   0.873  1.2687 -0.2089  0.7984
 1682TIP3   OH2 5009   2.867   6.035   1.249 -0.1675  0.7257 -1.7659
 1682TIP3    H1 5010   2.870   6.044   1.345 -1.7411  0.9960 -1.7160
 1682TIP3    H2 5011   2.927   6.101   1.217  2.1625 -0.8695 -0.9328
 1683TIP3   OH2 5012   6.056   1.040   5.824 -0.1301  0.4614 -0.4377
 1683TIP3    H1 5013   5.980   1.029   5.768 -0.0207 -1.4036 -0.2877
 1683TIP3    H2 5014   6.031   0.997   5.906  0.4399  1.3935  0.2419
 1684TIP3   OH2 5015   6.440   5.591   1.695  0.0411  0.2017 -0.4038
 1684TIP3    H1 5016   6.506   5.553   1.753  1.0873  0.4193 -1.4121
 1684TIP3    H2 5017   6.368   5.616   1.753  0.5421 -0.6942  0.6316
 1685TIP3   OH2 5018   7.027   3.821   0.702  0.2887  0.2873  0.2421
 1685TIP3    H1 5019   7.059   3.830   0.791  1.7707  0.9812 -0.3328
 1685TIP3    H2 5020   6.952   3.881   0.697  0.5631  0.6837  0.8440
 1686TIP3   OH2 5021   0.188   1.341   3.313 -0.1532  0.2812 -0.5393
 1686TIP3    H1 5022   0.153   1.427   3.292  1.1652  0.6453 -1.3508
 1686TIP3    H2 5023   0.111   1.284   3.314 -1.1623  1.5794  0.8208
 1687TIP3   OH2 5024   4.891   3.025   1.827 -0.1086  0.4821  0.2031
 1687TIP3    H1 5025   4.886   3.119   1.844 -0.7868  0.2663  1.2747
 1687TIP3    H2 5026   4.950   3.018   1.752 -0.0092  1.7545  0.1343
 1688TIP3   OH2 5027   4.076   4.586   0.261  0.5076  0.2080  0.1278
 1688TIP3    H1 5028   4.056   4.556   0.350  0.5110  0.5740  0.2497
 1688TIP3    H2 5029   4.158   4.542   0.239  0.8722  0.6651  0.5676
 1689TIP3   OH2 5030   4.535   1.838   0.346 -0.4796 -0.1257  0.3034
 1689TIP3    H1 5031   4.535   1.801   0.435 -1.6188 -0.3295  0.2274
 1689TIP3    H2 5032   4.628   1.852   0.327 -0.1468 -1.0535  1.1213
 1690TIP3   OH2 5033   1.522   0.707   2.191  0.0305  0.9216 -0.2769
 1690TIP3    H1 5034   1.491   0.662   2.113 -0.4193 -1.7625  1.2892
 1690TIP3    H2 5035   1.533   0.798   2.165 -1.1166  0.3336 -3.1321
 1691TIP3   OH2 5036   1.887   1.022   3.390 -0.8409  0.1765  0.0497
 1691TIP3    H1 5037   1.963   1.078   3.376 -1.3079  0.9095  0.3756
 1691TIP3    H2 5038   1.885   0.965   3.314  1.3235 -1.4007  1.0864
 1692TIP3   OH2 5039   2.456   5.304   2.634  0.0453  1.1119  0.5544
 1692TIP3    H1 5040   2.451   5.380   2.576  2.0243  1.5979  0.9578
 1692TIP3    H2 5041   2.545   5.272   2.624 -0.8158 -1.3767  0.1783
 1693TIP3   OH2 5042   3.465   2.914   4.202  0.4830 -0.4915  0.2139
 1693TIP3    H1 5043   3.476   2.953   4.116  1.6582 -1.9484 -0.3412
 1693TIP3    H2 5044   3.388   2.857   4.193  1.6180 -1.9819 -0.4288
 1694TIP3   OH2 5045   5.094   0.833   3.332 -1.0230 -0.2098 -0.3010
 1694TIP3    H1 5046   5.166   0.802   3.277 -1.3908 -0.5066 -0.6219
 1694TIP3    H2 5047   5.117   0.803   3.420  1.0037  2.6728  0.2843
 1695TIP3   OH2 5048   6.139   5.091   1.149 -0.5521 -0.2667  0.0610
 1695TIP3    H1 5049   6.101   5.157   1.090  1.3038  1.9598  1.2021
 1695TIP3    H2 5050   6.185   5.031   1.091 -1.1545  0.2052 -0.9369
 1696TIP3   OH2 5051   2.797   0.931   0.347  0.1809  0.1238  0.1240
 1696TIP3    H1 5052   2.780   0.975   0.263 -0.4853 -0.3176  0.0194
 1696TIP3    H2 5053   2.710   0.911   0.381  0.4585 -0.0423  0.7473
 1697TIP3   OH2 5054   3.674   6.755   1.027 -0.1658  0.2508 -0.2664
 1697TIP3    H1 5055   3.657   6.665   0.999 -2.2903  0.2373  0.8850
 1697TIP3    H2 5056   3.751   6.749   1.084 -0.7034 -0.9500  0.3464
 1698TIP3   OH2 5057   5.720   0.162   5.521 -0.5213  0.0755  0.2155
 1698TIP3    H1 5058   5.694   0.165   5.429  0.6039 -0.2723 -0.1278
 1698TIP3    H2 5059   5.656   0.217   5.566 -1.0152  0.3417 -0.7891
 1699TIP3   OH2 5060   5.884   5.004   5.119  0.0995 -0.1620  0.1347
 1699TIP3    H1 5061   5.848   5.086   5.083  0.2723 -0.4843 -0.8011
 1699TIP3    H2 5062   5.963   4.989   5.068  0.6304 -0.3739  1.0172
 1700TIP3   OH2 5063   1.275   5.737   1.057 -0.8178 -0.3983 -0.1787
 1700TIP3    H1 5064   1.370   5.727   1.063 -0.6047  1.7227  1.3414
 1700TIP3    H2 5065   1.250   5.779   1.140 -2.9053  0.2430 -1.0558
 1701TIP3   OH2 5066   1.121   4.826   4.262 -0.1138 -0.4454 -0.0556
 1701TIP3    H1 5067   1.136   4.751   4.204 -1.0870 -0.2713 -0.5423
 1701TIP3    H2 5068   1.136   4.791   4.350  2.4652 -0.4495 -0.4019
 1702TIP3   OH2 5069   5.809   4.193   5.055  0.0785  0.2000  0.2256
 1702TIP3    H1 5070   5.799   4.130   4.984 -0.5286  0.4324  0.1010
 1702TIP3    H2 5071   5.727   4.189   5.103 -0.2986  1.4778 -0.2653
 1703TIP3   OH2 5072   2.665   3.719   3.683  0.6591  0.0052 -0.0600
 1703TIP3    H1 5073   2.654   3.731   3.589  1.3923  0.8140 -0.0533
 1703TIP3    H2 5074   2.580   3.688   3.714 -0.2174  1.7127 -0.6779
 1704TIP3   OH2 5075   0.828   3.628   3.590  0.6928 -0.1511 -0.0098
 1704TIP3    H1 5076   0.756   3.572   3.621 -0.1258  0.8710  0.0106
 1704TIP3    H2 5077   0.836   3.607   3.497 -1.1231  1.2333 -0.5394
 1705TIP3   OH2 5078   6.917   2.869   2.938  0.2480 -0.0077  0.5163
 1705TIP3    H1 5079   6.880   2.787   2.906 -1.1351  1.2926 -1.4026
 1705TIP3    H2 5080   6.861   2.893   3.012 -0.7335  0.2764 -0.2950
 1706TIP3   OH2 5081   1.064   5.652   0.913  0.4662  0.0032 -0.3444
 1706TIP3    H1 5082   1.106   5.582   0.863  1.1987  0.4281 -0.3212
 1706TIP3    H2 5083   1.130   5.681   0.975 -0.5340 -0.7546  1.1378
 1707TIP3   OH2 5084   5.077   2.074   3.373 -0.7328  0.3796  0.1274
 1707TIP3    H1 5085   5.165   2.051   3.343 -0.9105  2.5261 -2.3958
 1707TIP3    H2 5086   5.027   1.993   3.364  0.7631 -0.7047  0.9577
 1708TIP3   OH2 5087   4.184   6.152   3.286 -0.0507  0.2989  0.2216
 1708TIP3    H1 5088   4.196   6.057   3.277 -2.9597 -0.1246 -0.2191
 1708TIP3    H2 5089   4.256   6.190   3.236  0.2838 -1.7048 -0.9398
 1709TIP3   OH2 5090   2.213   4.897   1.529  0.2798 -0.3996 -0.4950
 1709TIP3    H1 5091   2.146   4.952   1.570  0.5125 -0.9890  0.7127
 1709TIP3    H2 5092   2.293   4.915   1.578  0.4136 -1.6280 -0.2359
 1710TIP3   OH2 5093   3.161   5.887   3.611  0.0604  0.2645 -0.0473
 1710TIP3    H1 5094   3.096   5.857   3.675  1.1953 -2.0040  0.1674
 1710TIP3    H2 5095   3.223   5.939   3.662  0.3271 -0.5643  0.5041
 1711TIP3   OH2 5096   2.701   6.535   2.592 -0.1716  0.6912  0.7063
 1711TIP3    H1 5097   2.623   6.481   2.583 -0.4141  0.9144  1.4054
 1711TIP3    H2 5098   2.738   6.510   2.677 -1.1105  2.6378  1.7602
 1712TIP3   OH2 5099   5.480   1.123   3.328 -0.4795  0.0875  0.8826
 1712TIP3    H1 5100   5.453   1.039   3.366 -0.3096 -1.0772 -1.4112
 1712TIP3    H2 5101   5.573   1.112   3.310 -0.3642  0.9343  0.9353
 1713TIP3   OH2 5102   2.593   1.769   4.450  0.2399 -0.0716  0.0301
 1713TIP3    H1 5103   2.537   1.838   4.414 -2.0271 -1.0885  1.4363
 1713TIP3    H2 5104   2.606   1.708   4.377 -0.3565  0.2506 -0.3509
 1714TIP3   OH2 5105   2.308   1.089   3.205 -0.3376 -0.0259  0.3546
 1714TIP3    H1 5106   2.319   1.002   3.167  0.7596  0.2183  0.0834
 1714TIP3    H2 5107   2.229   1.124   3.164 -0.6963 -0.8284  0.3481
 1715TIP3   OH2 5108   4.837   4.057   1.484 -0.0691 -0.0100 -0.2057
 1715TIP3    H1 5109   4.900   4.070   1.555  0.6824 -2.1584 -0.3976
 1715TIP3    H2 5110   4.802   3.969   1.499  0.0704 -0.5118 -2.4282
 1716TIP3   OH2 5111   3.828   0.657   1.117 -0.0244  0.5702  0.0275
 1716TIP3    H1 5112   3.741   0.642   1.081 -0.4757  1.6290  0.6233
 1716TIP3    H2 5113   3.819   0.737   1.169  1.7303  1.7466 -1.3567
 1717TIP3   OH2 5114   2.415   1.857   4.246 -0.5357 -0.6022  0.4830
 1717TIP3    H1 5115   2.437   1.909   4.169  2.0835 -0.3007  1.3287
 1717TIP3    H2 5116   2.382   1.774   4.211  0.2788 -0.3512 -0.9759
 1718TIP3   OH2 5117   5.356   5.132   3.699 -0.1919  0.1087  0.5257
 1718TIP3    H1 5118   5.338   5.225   3.706  1.2944  0.3744  1.3361
 1718TIP3    H2 5119   5.438   5.127   3.650  0.0187 -0.7243  0.9347
 1719TIP3   OH2 5120   5.075   3.775   0.894  0.9676 -1.0048  0.2110
 1719TIP3    H1 5121   5.012   3.847   0.895  0.2631 -1.5171 -1.8928
 1719TIP3    H2 5122   5.023   3.697   0.911  1.2141 -1.3037 -0.3542
 1720TIP3   OH2 5123   6.609   3.077   1.183 -0.2391  0.2770  0.2488
 1720TIP3    H1 5124   6.525   3.122   1.184  0.2926  1.2873  0.5106
 1720TIP3    H2 5125   6.629   3.065   1.090 -0.4095  0.5294  0.1802
 1721TIP3   OH2 5126   3.488   0.176   1.129 -0.4494 -0.3637  0.1167
 1721TIP3    H1 5127   3.518   0.086   1.133 -1.5116 -0.7993 -1.0716
 1721TIP3    H2 5128   3.567   0.229   1.141  0.3335 -1.4488 -0.1675
 1722TIP3   OH2 5129   0.126   0.537   5.345 -0.4853  0.5926  0.2403
 1722TIP3    H1 5130   0.190   0.550   5.275 -1.0660  1.9036 -0.0696
 1722TIP3    H2 5131   0.119   0.622   5.387 -2.1832  0.5412  0.1253
 1723TIP3   OH2 5132   0.051   1.835   0.565 -0.3486 -0.3142  0.3471
 1723TIP3    H1 5133  -0.002   1.914   0.576  1.1153  0.6475  0.7959
 1723TIP3    H2 5134  -0.013   1.765   0.551 -1.6604  1.2471 -2.2598
 1724TIP3   OH2 5135   0.738   6.071   3.012 -0.1376 -0.0045  0.0447
 1724TIP3    H1 5136   0.704   6.160   3.023  0.2193  0.2206 -0.5830
 1724TIP3    H2 5137   0.822   6.071   3.057 -0.6595 -0.3748  1.0489
 1725TIP3   OH2 5138   1.154   0.601   2.217  0.1617 -0.3147 -0.5117
 1725TIP3    H1 5139   1.185   0.686   2.251  1.8969 -0.4673 -1.5670
 1725TIP3    H2 5140   1.150   0.545   2.294  1.5500  0.0413 -0.1385
 1726TIP3   OH2 5141   0.617   3.888   3.790  0.2178 -0.5141  0.3882
 1726TIP3    H1 5142   0.604   3.800   3.755 -0.2804 -0.3678  0.2028
 1726TIP3    H2 5143   0.528   3.921   3.807  0.3652  0.2651 -0.3044
 1727TIP3   OH2 5144   0.535   5.469   0.361  0.8324 -0.7986 -0.0613
 1727TIP3    H1 5145   0.551   5.525   0.285 -1.6252  0.0776 -0.0224
 1727TIP3    H2 5146   0.571   5.519   0.435 -0.7399  0.5154 -0.1152
 1728TIP3   OH2 5147   2.509   0.129   2.413  0.4402  0.1047 -0.2126
 1728TIP3    H1 5148   2.415   0.116   2.409  0.3708  0.5573 -0.1375
 1728TIP3    H2 5149   2.537   0.134   2.321  0.2468  0.9369 -0.2331
 1729TIP3   OH2 5150   1.933   5.215   5.391  0.0498  0.1521 -0.3793
 1729TIP3    H1 5151   1.903   5.176   5.473  2.6383  0.1019  0.6456
 1729TIP3    H2 5152   1.958   5.305   5.415  0.9260  0.1025 -1.0660
 1730TIP3   OH2 5153   4.162   3.656   1.053  0.3516 -0.6824 -0.2476
 1730TIP3    H1 5154   4.108   3.580   1.076  0.4756 -0.4385  0.9057
 1730TIP3    H2 5155   4.112   3.732   1.082  0.0559 -0.2828 -1.7514
 1731TIP3   OH2 5156   6.932   3.584   4.144 -0.1261  0.0829 -0.1493
 1731TIP3    H1 5157   6.855   3.640   4.137 -0.3734 -0.2642 -0.2841
 1731TIP3    H2 5158   7.002   3.641   4.175 -0.6677  0.2079  0.8749
 1732TIP3   OH2 5159   2.678   2.071   1.709  1.1233 -0.2336 -0.1207
 1732TIP3    H1 5160   2.600   2.089   1.656  1.7541 -0.2025 -1.0718
 1732TIP3    H2 5161   2.646   2.064   1.799 -0.0320 -0.5957 -0.5451
 1733TIP3   OH2 5162   1.130   1.572  -0.010  0.0818 -0.1221  0.4591
 1733TIP3    H1 5163   1.059   1.509  -0.019  0.6083 -0.9464  1.7742
 1733TIP3    H2 5164   1.199   1.524   0.036  0.9733  1.0613  0.4035
 1734TIP3   OH2 5165   0.168   3.875   4.307 -0.1014  0.0742 -0.0516
 1734TIP3    H1 5166   0.256   3.885   4.269  0.0147  2.3340  0.6891
 1734TIP3    H2 5167   0.169   3.929   4.385 -1.9616 -0.4380  0.3745
 1735TIP3   OH2 5168   1.938   6.607   2.129 -0.5292  0.4302  0.4719
 1735TIP3    H1 5169   1.867   6.613   2.194 -1.4495 -1.2912 -0.3024
 1735TIP3    H2 5170   1.903   6.550   2.060  1.3113  0.2116 -0.3504
 1736TIP3   OH2 5171   4.641   5.863   3.002  0.3975  0.0808  0.5586
 1736TIP3    H1 5172   4.672   5.939   2.954  0.0800 -0.6695 -0.8853
 1736TIP3    H2 5173   4.563   5.834   2.954  0.1867 -0.8158  1.4090
 1737TIP3   OH2 5174   3.865   4.617   2.472 -0.0928  0.0708 -0.3410
 1737TIP3    H1 5175   3.781   4.654   2.443  1.0500  2.6527 -0.5817
 1737TIP3    H2 5176   3.903   4.581   2.392  0.2932  1.5872 -0.8806
 1738TIP3   OH2 5177   2.368   2.864   1.288 -0.8233  0.5184 -0.1385
 1738TIP3    H1 5178   2.297   2.871   1.352 -1.1845  0.4683 -0.5264
 1738TIP3    H2 5179   2.325   2.876   1.204 -0.3475  0.6085 -0.3702
 1739TIP3   OH2 5180   0.910   3.728   0.771  0.5986  0.7810 -0.6818
 1739TIP3    H1 5181   0.913   3.732   0.676 -2.2048  1.5037 -0.8248
 1739TIP3    H2 5182   0.957   3.806   0.800 -0.1359  1.5721 -1.5644
 1740TIP3   OH2 5183   0.961   4.346   0.003 -0.0729 -0.7282 -0.0407
 1740TIP3    H1 5184   1.012   4.376   0.078 -0.2765 -1.7780  0.5469
 1740TIP3    H2 5185   0.900   4.281   0.040 -1.2790 -0.0959 -0.8501
 1741TIP3   OH2 5186   0.967   6.538   3.740  0.5670  0.0091 -0.8090
 1741TIP3    H1 5187   1.007   6.565   3.823 -0.7040  0.4393 -0.3073
 1741TIP3    H2 5188   0.904   6.607   3.720 -1.6900 -1.7653 -0.2735
 1742TIP3   OH2 5189   3.466   0.675   3.488 -0.5466  0.2491 -0.3350
 1742TIP3    H1 5190   3.427   0.604   3.538 -2.5679 -0.6474 -2.9420
 1742TIP3    H2 5191   3.415   0.752   3.512 -1.8519 -0.2760 -1.2736
 1743TIP3   OH2 5192   1.155   6.357   3.620  0.6662  0.4383 -0.3863
 1743TIP3    H1 5193   1.228   6.419   3.627  0.5845  0.4304  0.5605
 1743TIP3    H2 5194   1.082   6.401   3.663  0.2622  0.1970 -0.8099
 1744TIP3   OH2 5195   6.033   3.419   4.346  0.3659 -0.3721  0.3585
 1744TIP3    H1 5196   6.016   3.449   4.257  0.4580  0.8581  0.7360
 1744TIP3    H2 5197   6.072   3.495   4.390  0.3841 -0.9776  1.4284
 1745TIP3   OH2 5198   1.031   0.508   0.909  0.5030 -0.8048 -0.2238
 1745TIP3    H1 5199   1.047   0.422   0.869 -0.1630 -1.7154  1.3802
 1745TIP3    H2 5200   0.937   0.522   0.899  0.9696  1.2211 -3.2033
 1746TIP3   OH2 5201   4.102   5.443   3.219  0.2949  0.1237  0.2328
 1746TIP3    H1 5202   4.073   5.435   3.310  0.3035 -0.7177  0.1734
 1746TIP3    H2 5203   4.193   5.470   3.224  0.2130  0.3574  0.4665
 1747TIP3   OH2 5204   3.041   3.545   1.066 -0.4960 -0.0399 -0.1214
 1747TIP3    H1 5205   3.079   3.592   0.992 -3.9374  1.3366 -1.2459
 1747TIP3    H2 5206   2.985   3.479   1.025 -1.1494 -0.4031  1.3047
 1748TIP3   OH2 5207   5.993   4.284   0.384 -0.7862  0.5262 -0.3830
 1748TIP3    H1 5208   6.059   4.232   0.431 -0.6255  0.7726 -0.3339
 1748TIP3    H2 5209   6.042   4.360   0.353 -1.1974  1.0495  0.2334
 1749TIP3   OH2 5210   5.267   1.235   2.631  0.1633  0.0822  0.6717
 1749TIP3    H1 5211   5.296   1.326   2.619  0.9843 -0.3477 -0.9261
 1749TIP3    H2 5212   5.227   1.212   2.548  1.0536 -1.3894  0.6167
 1750TIP3   OH2 5213   5.307   5.550   0.495  0.5258 -0.2359 -0.2068
 1750TIP3    H1 5214   5.215   5.547   0.524  0.8474 -0.5110  0.8275
 1750TIP3    H2 5215   5.302   5.542   0.400 -0.5960  0.9978 -0.2852
 1751TIP3   OH2 5216   4.756   4.321   0.503 -0.1898 -0.3411  0.1094
 1751TIP3    H1 5217   4.792   4.346   0.588  0.0549 -1.2763  0.2901
 1751TIP3    H2 5218   4.743   4.404   0.457 -1.5551  0.2722  1.5357
 1752TIP3   OH2 5219   3.754   6.081   2.799  0.2688 -0.2645  0.2238
 1752TIP3    H1 5220   3.666   6.116   2.782  0.8881  0.9160 -0.6269
 1752TIP3    H2 5221   3.756   6.068   2.894 -0.4274  0.8277  0.4056
 1753TIP3   OH2 5222   4.596   4.143   5.390 -0.3313 -0.0081 -0.2818
 1753TIP3    H1 5223   4.554   4.064   5.357 -1.4244 -0.0262  1.0711
 1753TIP3    H2 5224   4.685   4.115   5.413 -0.3513 -0.5666 -0.8485
 1754TIP3   OH2 5225   5.810   3.239   2.494  0.5828 -0.7859 -0.3808
 1754TIP3    H1 5226   5.858   3.204   2.569  0.5637 -0.4572 -0.2164
 1754TIP3    H2 5227   5.875   3.291   2.446 -0.2895  2.2298  1.4833
 1755TIP3   OH2 5228   2.355   1.220   0.630 -0.3480 -0.2660 -0.1851
 1755TIP3    H1 5229   2.263   1.200   0.612 -0.2040 -1.3662  0.1965
 1755TIP3    H2 5230   2.372   1.177   0.714 -0.2328  2.3202  1.1960
 1756TIP3   OH2 5231   6.473   2.958   3.295 -0.2725  0.1594  0.1034
 1756TIP3    H1 5232   6.452   2.928   3.206  1.5557 -0.4323 -0.1740
 1756TIP3    H2 5233   6.500   3.049   3.285  0.9986 -0.2277 -0.1424
 1757TIP3   OH2 5234   4.529   2.521   4.644 -0.3484 -0.0218  0.1271
 1757TIP3    H1 5235   4.445   2.479   4.664 -0.1550 -0.7993 -0.6252
 1757TIP3    H2 5236   4.588   2.448   4.627  0.8162  0.4597  1.8138
 1758TIP3   OH2 5237   6.181   1.212   3.838  0.6948  0.2029 -0.1681
 1758TIP3    H1 5238   6.213   1.124   3.818  0.2384  0.0896 -0.4201
 1758TIP3    H2 5239   6.087   1.201   3.850  0.8886  0.3336  1.7501
 1759TIP3   OH2 5240   0.955   3.141   5.171  0.1002 -0.0991 -0.5136
 1759TIP3    H1 5241   0.976   3.091   5.250 -3.1483  0.7678  1.0837
 1759TIP3    H2 5242   1.005   3.222   5.180  0.0533 -0.1656  0.4861
 1760TIP3   OH2 5243   1.784   3.765   2.008 -0.2553  0.0434 -0.7455
 1760TIP3    H1 5244   1.876   3.754   2.034 -0.9063  0.2585  1.9653
 1760TIP3    H2 5245   1.770   3.699   1.940  1.8779  0.0113 -1.2386
 1761TIP3   OH2 5246   5.595   4.653   1.741  0.6885 -0.3946  0.6691
 1761TIP3    H1 5247   5.690   4.657   1.733  0.6156 -0.9582 -0.8188
 1761TIP3    H2 5248   5.565   4.742   1.723  1.0152  0.3017  3.2351
 1762TIP3   OH2 5249   7.081   3.504   0.884  0.1842 -0.0043 -0.3476
 1762TIP3    H1 5250   7.034   3.546   0.957  0.9331 -0.7243  0.5724
 1762TIP3    H2 5251   7.159   3.558   0.871  0.9221 -0.8266  0.5422
 1763TIP3   OH2 5252   5.021   0.796   2.377 -0.4677 -0.0847  0.2846
 1763TIP3    H1 5253   5.014   0.714   2.426  2.0841 -0.2548  0.5130
 1763TIP3    H2 5254   4.942   0.845   2.400 -1.3684 -1.9110  1.2274
 1764TIP3   OH2 5255   1.880   4.097   1.211 -0.7710  0.2867  0.3119
 1764TIP3    H1 5256   1.940   4.078   1.138  1.1559  0.3404  1.7894
 1764TIP3    H2 5257   1.818   4.161   1.175  2.0563  2.8285 -0.5016
 1765TIP3   OH2 5258   2.241   0.118   1.517  0.0116 -0.2468 -0.2303
 1765TIP3    H1 5259   2.257   0.051   1.451 -0.4362  0.1652 -0.7681
 1765TIP3    H2 5260   2.167   0.085   1.568  0.9540 -1.0065  0.6875
 1766TIP3   OH2 5261   4.969   5.391   0.058 -0.0346  0.0071  0.0043
 1766TIP3    H1 5262   5.064   5.401   0.070  0.0111  2.1315 -1.5983
 1766TIP3    H2 5263   4.932   5.470   0.097 -0.9268  0.3474 -1.4533
 1767TIP3   OH2 5264   0.312   1.841   2.782  0.1323 -0.1686  0.3520
 1767TIP3    H1 5265   0.403   1.820   2.804  0.8387 -0.3650 -2.3717
 1767TIP3    H2 5266   0.291   1.782   2.709 -0.6897  2.7391 -1.9205
 1768TIP3   OH2 5267   5.291   6.259   2.680 -0.0426  0.4525 -0.0513
 1768TIP3    H1 5268   5.297   6.248   2.775 -0.4690 -1.8256 -0.2427
 1768TIP3    H2 5269   5.200   6.288   2.666 -0.9590 -2.0984  0.0872
 1769TIP3   OH2 5270   5.214   6.469   0.864 -0.8074  0.2825  0.2126
 1769TIP3    H1 5271   5.302   6.443   0.891 -1.0578  0.0586  0.8340
 1769TIP3    H2 5272   5.228   6.540   0.801 -0.2133  1.3092  1.4593
 1770TIP3   OH2 5273   0.262   5.034   3.884 -0.5931 -0.6370 -0.4632
 1770TIP3    H1 5274   0.351   5.040   3.851 -0.9828  0.2201 -1.4267
 1770TIP3    H2 5275   0.252   5.111   3.941 -1.0064 -0.1718 -1.1416
 1771TIP3   OH2 5276   5.934   0.008   3.863 -0.2535 -0.1852 -0.3712
 1771TIP3    H1 5277   6.014   0.060   3.861 -1.2735  1.5001 -2.4661
 1771TIP3    H2 5278   5.932  -0.036   3.778 -0.2334 -2.4538  0.7334
 1772TIP3   OH2 5279   2.520   5.905   5.791 -0.0279 -0.0362  0.0142
 1772TIP3    H1 5280   2.470   5.934   5.715  0.8261 -0.5104 -0.7576
 1772TIP3    H2 5281   2.598   5.865   5.754  1.8173  2.2008  1.1708
 1773TIP3   OH2 5282   0.636   2.012   0.528 -0.0888 -0.1874  0.4734
 1773TIP3    H1 5283   0.683   1.974   0.453  0.0255  2.6656 -1.0297
 1773TIP3    H2 5284   0.576   1.942   0.556  2.2491 -2.5674 -0.0207
 1774TIP3   OH2 5285   5.527   5.406   0.997 -0.0125  0.8018  0.0533
 1774TIP3    H1 5286   5.578   5.477   0.959  0.6366  0.2663 -0.1049
 1774TIP3    H2 5287   5.516   5.343   0.925 -0.1947  0.5420  0.3038
 1775TIP3   OH2 5288   5.518   5.917   0.681 -0.2241  0.1762  0.6589
 1775TIP3    H1 5289   5.441   5.959   0.642 -0.0812  1.1902  1.4221
 1775TIP3    H2 5290   5.525   5.957   0.768 -1.2621 -2.8858  2.3106
 1776TIP3   OH2 5291   4.375   0.739   4.591  0.1873  0.4729 -0.2109
 1776TIP3    H1 5292   4.463   0.761   4.563  0.8600 -1.3394  0.3711
 1776TIP3    H2 5293   4.387   0.691   4.673 -1.3841  0.8135  0.2515
 1777TIP3   OH2 5294   6.499   0.294   0.075 -0.0462 -0.2794 -0.0031
 1777TIP3    H1 5295   6.437   0.230   0.042 -0.4029 -0.3222  0.7306
 1777TIP3    H2 5296   6.458   0.330   0.154  1.4565 -1.3395  1.3330
 1778TIP3   OH2 5297   0.147   5.068   1.892  0.2618 -0.0006  0.3726
 1778TIP3    H1 5298   0.111   5.115   1.967  0.4427  0.9977 -0.1458
 1778TIP3    H2 5299   0.226   5.026   1.926  0.2615  0.3193  0.7789
 1779TIP3   OH2 5300   4.521   0.853   1.025  0.1508  0.5207  0.3980
 1779TIP3    H1 5301   4.440   0.830   1.071 -0.5174  0.5029 -0.7543
 1779TIP3    H2 5302   4.565   0.914   1.084 -1.2928  1.4843  0.5329
 1780TIP3   OH2 5303   1.379   2.090   0.102  0.0153  0.6611 -0.5921
 1780TIP3    H1 5304   1.418   2.142   0.031 -2.7561  1.5605 -1.5850
 1780TIP3    H2 5305   1.446   2.025   0.123  2.1591  2.3092 -1.8763
 1781TIP3   OH2 5306   6.422   3.782   2.686  0.3411  0.1892  0.0429
 1781TIP3    H1 5307   6.398   3.721   2.756  0.4534 -1.1390 -1.0390
 1781TIP3    H2 5308   6.471   3.852   2.731  0.7184 -0.8089  1.2328
 1782TIP3   OH2 5309   0.373   3.781   4.765 -0.4082 -0.0025 -0.0437
 1782TIP3    H1 5310   0.381   3.849   4.832  0.5191  0.0164 -0.1575
 1782TIP3    H2 5311   0.443   3.801   4.702 -0.5595 -0.6652 -0.4373
 1783TIP3   OH2 5312   3.228   1.716   5.584  0.4442 -0.2055  0.5442
 1783TIP3    H1 5313   3.240   1.641   5.525  1.7863 -0.7602  1.4618
 1783TIP3    H2 5314   3.167   1.684   5.650 -1.0122  0.3966 -0.4464
 1784TIP3   OH2 5315   1.833   0.054   0.768  0.0004  0.2179  0.4642
 1784TIP3    H1 5316   1.788   0.028   0.848  1.1657 -1.2550  0.6927
 1784TIP3    H2 5317   1.831  -0.024   0.713 -0.8498  1.2340 -0.9982
 1785TIP3   OH2 5318   7.201   3.697   0.522  0.1578 -0.0361  0.0896
 1785TIP3    H1 5319   7.179   3.638   0.450  0.2284  1.1291 -0.9181
 1785TIP3    H2 5320   7.120   3.747   0.537 -0.2390 -1.0973  1.6611
 1786TIP3   OH2 5321   6.445   0.787   0.288 -0.3693  0.0881  0.0306
 1786TIP3    H1 5322   6.363   0.751   0.255 -1.5061  1.9902  0.6157
 1786TIP3    H2 5323   6.494   0.811   0.209 -0.9101  0.0473 -0.3256
 1787TIP3   OH2 5324   5.060   3.995   0.413  0.0194  0.1544 -0.0967
 1787TIP3    H1 5325   5.001   4.042   0.355 -2.5993 -0.6996  1.6726
 1787TIP3    H2 5326   5.034   3.903   0.404  2.7980 -0.6497 -1.0381
 1788TIP3   OH2 5327   6.429   5.858   0.456  0.1215  0.5811 -0.3433
 1788TIP3    H1 5328   6.485   5.781   0.450  0.5622  0.8813 -0.1589
 1788TIP3    H2 5329   6.351   5.835   0.406 -0.1394 -0.3146  0.4263
 1789TIP3   OH2 5330   1.573   0.475   5.677 -0.0707  0.1868 -0.3374
 1789TIP3    H1 5331   1.642   0.411   5.692 -1.1131 -1.0321 -0.5576
 1789TIP3    H2 5332   1.617   0.547   5.631  1.0052 -0.6414 -0.6530
 1790TIP3   OH2 5333   3.767   3.018   5.185  0.0463 -0.1171 -0.3330
 1790TIP3    H1 5334   3.823   2.980   5.253  0.8920  0.4717 -0.6862
 1790TIP3    H2 5335   3.718   2.944   5.149  0.7088 -0.6592 -0.1218
 1791TIP3   OH2 5336   6.210   3.876   0.697 -0.6248 -0.0775  0.1884
 1791TIP3    H1 5337   6.294   3.903   0.735 -1.5660  1.1817  1.4659
 1791TIP3    H2 5338   6.154   3.858   0.773 -1.9120  0.3974 -0.6243
 1792TIP3   OH2 5339   5.709   6.525   3.150 -0.0478 -0.4098 -0.2393
 1792TIP3    H1 5340   5.736   6.444   3.193  0.9054  0.1264  0.1960
 1792TIP3    H2 5341   5.734   6.514   3.058  1.8861  0.1349  0.1737
 1793TIP3   OH2 5342   4.385   0.849   3.811 -0.6710  0.4213  0.1328
 1793TIP3    H1 5343   4.424   0.935   3.828 -1.7536  0.7594  1.0345
 1793TIP3    H2 5344   4.459   0.790   3.800  0.0785  1.2982  0.4424
 1794TIP3   OH2 5345   5.930   1.113   5.295 -0.0092  0.1526 -0.1462
 1794TIP3    H1 5346   5.872   1.054   5.343  0.7753 -0.0991  0.5051
 1794TIP3    H2 5347   5.908   1.201   5.328 -0.3017  0.1023 -0.2029
 1795TIP3   OH2 5348   2.682   3.018   0.524 -0.1139 -0.4760  0.0011
 1795TIP3    H1 5349   2.705   3.033   0.616 -1.9485  1.0872  0.2821
 1795TIP3    H2 5350   2.700   2.925   0.509  1.9576 -0.3468  1.3884
 1796TIP3   OH2 5351   0.538   2.879   1.242 -0.8048 -0.1575  0.1026
 1796TIP3    H1 5352   0.606   2.838   1.296 -0.8947 -0.0787  0.2757
 1796TIP3    H2 5353   0.581   2.896   1.159 -0.1642  1.2621  0.7004
 1797TIP3   OH2 5354   5.999   1.284   3.521  0.1354 -0.2259  0.3735
 1797TIP3    H1 5355   6.000   1.192   3.495 -2.1510 -0.3341  0.4486
 1797TIP3    H2 5356   6.091   1.307   3.530  0.7883 -2.3310 -0.2309
 1798TIP3   OH2 5357   0.957   4.296   2.165 -0.0447  0.1980 -0.1726
 1798TIP3    H1 5358   0.970   4.231   2.096 -0.4802  0.0644 -0.1338
 1798TIP3    H2 5359   0.966   4.380   2.121  0.5622  0.1159 -0.2145
 1799TIP3   OH2 5360   5.049   0.106   1.872  0.1193  0.1959 -0.2155
 1799TIP3    H1 5361   5.060   0.039   1.940  0.6144 -2.6723 -2.9226
 1799TIP3    H2 5362   4.955   0.114   1.860  0.0233 -2.3026 -1.8110
 1800TIP3   OH2 5363   0.259   4.341   3.330  0.1053  0.0061  0.6972
 1800TIP3    H1 5364   0.283   4.422   3.286 -0.0866 -0.3429 -0.0711
 1800TIP3    H2 5365   0.211   4.291   3.264  0.5229 -0.8822  1.0469
 1801TIP3   OH2 5366   4.924   2.908   3.619 -0.3298  0.2246  0.5927
 1801TIP3    H1 5367   4.858   2.855   3.662  0.7786 -1.3526  0.4275
 1801TIP3    H2 5368   4.992   2.923   3.685 -0.1251  0.5218  0.3246
 1802TIP3   OH2 5369   0.319   1.910   0.962  0.1276  0.2300 -0.3736
 1802TIP3    H1 5370   0.305   2.004   0.953  2.9936  0.9207  1.1865
 1802TIP3    H2 5371   0.368   1.900   1.043 -0.4474 -2.6889 -0.2643
 1803TIP3   OH2 5372   5.765   1.245   4.483  0.0538  0.4224 -0.8055
 1803TIP3    H1 5373   5.819   1.169   4.507 -2.0243 -0.8619  0.0926
 1803TIP3    H2 5374   5.828   1.310   4.452  2.1271 -0.9092  0.3374
 1804TIP3   OH2 5375   0.961   2.833   2.975  0.0786  0.6842 -0.1384
 1804TIP3    H1 5376   1.028   2.801   3.036 -0.1187 -0.1644 -0.3515
 1804TIP3    H2 5377   0.970   2.777   2.899 -1.2240  0.2150  0.0332
 1805TIP3   OH2 5378   5.556   2.201   2.446  0.0980 -0.4658 -0.0024
 1805TIP3    H1 5379   5.525   2.183   2.358  1.0907  1.9169 -0.9110
 1805TIP3    H2 5380   5.492   2.262   2.482 -0.4988 -1.6873  1.1328
 1806TIP3   OH2 5381   0.847   4.412   2.577  0.1344 -0.4593 -0.3518
 1806TIP3    H1 5382   0.752   4.404   2.566  0.3159 -1.0823 -1.5823
 1806TIP3    H2 5383   0.884   4.340   2.526  1.3104  0.4302 -0.8010
 1807TIP3   OH2 5384   7.129   6.395   2.008  0.3392  0.3344  0.0115
 1807TIP3    H1 5385   7.085   6.313   1.987  1.8786 -0.7037  0.6175
 1807TIP3    H2 5386   7.177   6.417   1.928  0.9592 -0.0807  0.2578
 1808TIP3   OH2 5387   5.669   2.908   0.533  0.0855  0.4752 -0.0332
 1808TIP3    H1 5388   5.745   2.910   0.475  0.9248 -1.4404  0.9101
 1808TIP3    H2 5389   5.601   2.865   0.482  0.5616 -0.4494  0.0989
 1809TIP3   OH2 5390   5.592   0.169   0.862 -0.1365 -1.0183  0.3331
 1809TIP3    H1 5391   5.556   0.081   0.864  1.0498 -1.5728 -1.1069
 1809TIP3    H2 5392   5.674   0.161   0.813  0.3998  0.7380  0.8569
 1810TIP3   OH2 5393   1.987   5.823   4.050 -0.1502  0.7598  0.3728
 1810TIP3    H1 5394   1.892   5.819   4.038 -0.2283  0.9152  0.9157
 1810TIP3    H2 5395   2.001   5.795   4.140  0.4304 -0.4978 -0.0959
 1811TIP3   OH2 5396   4.641   4.811   5.673 -0.4554  0.2764 -0.7880
 1811TIP3    H1 5397   4.615   4.891   5.627  1.0670  1.3342  0.1000
 1811TIP3    H2 5398   4.732   4.827   5.698 -0.4368 -1.3428  0.2896
 1812TIP3   OH2 5399   2.646   2.727   3.678 -0.3227  0.3129 -0.5184
 1812TIP3    H1 5400   2.680   2.776   3.603 -1.2210  1.4721 -0.2060
 1812TIP3    H2 5401   2.608   2.794   3.735 -0.8072 -0.6710  0.3590
 1813TIP3   OH2 5402   6.190   2.772   5.839  0.0286  0.4906  0.2434
 1813TIP3    H1 5403   6.283   2.750   5.843  0.2700  1.3114 -0.4361
 1813TIP3    H2 5404   6.165   2.788   5.930  1.2600  2.9535  0.2320
 1814TIP3   OH2 5405   5.186   4.113   1.069  0.2888  0.0549  0.2324
 1814TIP3    H1 5406   5.206   4.201   1.102 -0.2357  0.3965 -0.3319
 1814TIP3    H2 5407   5.096   4.119   1.039  0.5489 -0.4168 -0.6758
 1815TIP3   OH2 5408   6.913   1.745   5.256 -0.1602  0.2790 -0.0091
 1815TIP3    H1 5409   6.888   1.836   5.270 -0.2161  0.0356  1.6414
 1815TIP3    H2 5410   6.858   1.715   5.184 -0.3292  1.4644 -0.3831
 1816TIP3   OH2 5411   3.942   1.045   4.500  0.4635 -0.3303 -0.1203
 1816TIP3    H1 5412   4.033   1.073   4.490  1.3156 -2.7114  0.3909
 1816TIP3    H2 5413   3.908   1.041   4.411  0.8558  0.4961 -0.3217
 1817TIP3   OH2 5414   7.019   5.539   4.487 -0.4518  0.2508 -0.4333
 1817TIP3    H1 5415   7.008   5.602   4.558 -1.8079 -0.2794 -0.1346
 1817TIP3    H2 5416   7.095   5.570   4.439  1.1136  0.1414  1.7782
 1818TIP3   OH2 5417   0.747   0.026   5.817 -0.7345 -0.1130  0.4582
 1818TIP3    H1 5418   0.762   0.079   5.738  1.4633 -1.0978  0.1508
 1818TIP3    H2 5419   0.716   0.089   5.882 -0.5353  1.1104 -0.5834
 1819TIP3   OH2 5420   1.341   5.391   1.165  0.2835  0.0418  0.2576
 1819TIP3    H1 5421   1.350   5.477   1.124  1.8253 -0.0786  0.2824
 1819TIP3    H2 5422   1.322   5.331   1.093 -0.3269  0.3285  0.1792
 1820TIP3   OH2 5423   7.031   5.938   1.314  0.2077 -0.0771  0.2030
 1820TIP3    H1 5424   7.061   5.982   1.394 -1.0319  0.2056  0.5300
 1820TIP3    H2 5425   7.069   5.850   1.319 -0.0984 -0.1627  1.2512
 1821TIP3   OH2 5426   0.050   0.321   1.423  0.7192  0.4916 -0.5318
 1821TIP3    H1 5427   0.122   0.372   1.459  0.0786  0.1187  1.3989
 1821TIP3    H2 5428  -0.022   0.384   1.414  0.8186  0.5424 -0.9949
 1822TIP3   OH2 5429   3.083   1.496   0.263 -0.2165 -0.0299  0.0651
 1822TIP3    H1 5430   3.153   1.496   0.328 -0.9133  1.1820  0.8436
 1822TIP3    H2 5431   3.129   1.492   0.179  0.7511 -0.1059  0.5837
 1823TIP3   OH2 5432   6.021   2.475   0.901 -0.3257 -0.5765  0.0058
 1823TIP3    H1 5433   6.097   2.419   0.893 -0.0204 -0.0617 -0.8472
 1823TIP3    H2 5434   5.963   2.448   0.829  1.4629  2.6204 -2.9390
 1824TIP3   OH2 5435   5.264   1.393   5.726  0.0733 -0.5341  0.2362
 1824TIP3    H1 5436   5.176   1.391   5.690  0.9011  0.6248 -2.0821
 1824TIP3    H2 5437   5.321   1.382   5.650  1.9574  0.8258  1.3601
 1825TIP3   OH2 5438   5.019   5.306   4.235  0.0454 -0.1335  0.0397
 1825TIP3    H1 5439   5.087   5.296   4.302 -0.2600 -0.9701  0.2364
 1825TIP3    H2 5440   4.971   5.223   4.236  0.0155 -0.1587 -1.1986
 1826TIP3   OH2 5441   4.854   3.911   3.439 -0.4416  0.4420 -0.0648
 1826TIP3    H1 5442   4.788   3.869   3.495  0.3415  0.5796  1.0040
 1826TIP3    H2 5443   4.893   3.839   3.389  0.3947 -0.0341  1.2240
 1827TIP3   OH2 5444   6.082   3.306   5.211  0.1626  0.3825 -0.1327
 1827TIP3    H1 5445   6.015   3.286   5.145  0.3825  0.9439 -0.5326
 1827TIP3    H2 5446   6.048   3.382   5.258  1.1338  1.5544 -1.2614
 1828TIP3   OH2 5447   3.472   3.120   4.959  0.0558  0.3446 -0.2635
 1828TIP3    H1 5448   3.405   3.164   5.012  0.2613 -0.6692  0.8633
 1828TIP3    H2 5449   3.468   3.164   4.874  0.6132  2.9252  0.9512
 1829TIP3   OH2 5450   4.426   5.012   0.060 -0.4448 -0.0802 -0.0597
 1829TIP3    H1 5451   4.428   5.105   0.084  0.4375 -0.2395  0.5457
 1829TIP3    H2 5452   4.511   4.996   0.020 -0.9272 -0.4356 -0.9642
 1830TIP3   OH2 5453   3.441   3.255   0.587 -0.1123  0.0301  0.2580
 1830TIP3    H1 5454   3.519   3.293   0.546  0.1119 -0.5020  0.1809
 1830TIP3    H2 5455   3.376   3.325   0.584 -0.2341 -0.0957 -1.3980
 1831TIP3   OH2 5456   2.713   1.569   0.073  0.1655 -0.0758  0.3553
 1831TIP3    H1 5457   2.701   1.506   0.144  0.5361  0.3981  0.8558
 1831TIP3    H2 5458   2.724   1.653   0.118  0.8529  0.1647 -0.2494
 1832TIP3   OH2 5459   4.316   3.967   0.694  0.0328 -0.5477  0.0197
 1832TIP3    H1 5460   4.337   3.991   0.604  0.7173  2.5427  0.8930
 1832TIP3    H2 5461   4.398   3.975   0.742 -0.1605 -2.8230  0.8763
 1833TIP3   OH2 5462   0.083   6.512   1.804  0.0544 -0.1684  0.1782
 1833TIP3    H1 5463   0.013   6.572   1.778  0.9898  0.5841 -0.7177
 1833TIP3    H2 5464   0.153   6.570   1.835  0.9661 -0.7916 -0.6731
 1834TIP3   OH2 5465   5.662   3.247   1.854 -0.1900  0.1781  0.2277
 1834TIP3    H1 5466   5.585   3.231   1.800 -0.6341 -0.3002  0.9753
 1834TIP3    H2 5467   5.678   3.164   1.898  0.5020  0.3956  0.3932
 1835TIP3   OH2 5468   2.612   1.474   1.767 -0.1899 -0.0869  0.0641
 1835TIP3    H1 5469   2.697   1.476   1.811  0.1323 -2.1135 -0.3697
 1835TIP3    H2 5470   2.557   1.420   1.825 -1.9473  2.9838  1.5016
 1836TIP3   OH2 5471   5.153   1.481   2.188 -0.8978  0.0057  0.1343
 1836TIP3    H1 5472   5.116   1.562   2.152  0.8295  1.5741  1.6746
 1836TIP3    H2 5473   5.147   1.491   2.283  1.9857 -0.2698  0.4566
 1837TIP3   OH2 5474   0.731   3.230   5.323 -0.3527 -0.6172  0.3905
 1837TIP3    H1 5475   0.748   3.188   5.238  0.3461  2.6137 -1.2008
 1837TIP3    H2 5476   0.816   3.262   5.352 -1.1978  2.2482  0.0001
 1838TIP3   OH2 5477   3.355   2.478   3.636 -0.3881 -0.0203  0.2385
 1838TIP3    H1 5478   3.317   2.510   3.555  0.0615  0.7074  0.3063
 1838TIP3    H2 5479   3.437   2.527   3.646 -1.0677  0.8779  1.8057
 1839TIP3   OH2 5480   5.126   0.459   4.301 -0.4692  0.1788 -0.0117
 1839TIP3    H1 5481   5.213   0.421   4.290 -0.7602 -0.2272 -0.9650
 1839TIP3    H2 5482   5.139   0.553   4.290 -0.1821  0.1015 -0.3583
 1840TIP3   OH2 5483   0.390   2.340   1.862  0.0477  0.0946 -0.2844
 1840TIP3    H1 5484   0.355   2.286   1.933 -0.7038 -1.3343 -1.6765
 1840TIP3    H2 5485   0.433   2.413   1.907 -2.9736  0.9156  1.6277
 1841TIP3   OH2 5486   5.629   4.412   4.396 -0.6814  0.2092  0.4835
 1841TIP3    H1 5487   5.585   4.474   4.455  0.8170 -1.2167  3.3271
 1841TIP3    H2 5488   5.722   4.431   4.407 -0.2208 -2.0651  0.9924
 1842TIP3   OH2 5489   3.313   3.829   1.063 -0.8551 -0.5679  0.4429
 1842TIP3    H1 5490   3.362   3.867   0.990 -0.6222 -1.0778  0.3299
 1842TIP3    H2 5491   3.225   3.866   1.055 -0.5027  0.3421  0.6350
 1843TIP3   OH2 5492   6.758   5.217   4.725  0.6205  0.2908  0.2877
 1843TIP3    H1 5493   6.690   5.176   4.671  0.3780 -0.2146  0.9694
 1843TIP3    H2 5494   6.832   5.228   4.665  0.9139 -1.7119  0.2204
 1844TIP3   OH2 5495   4.581   0.525   5.127 -0.6244  0.4447  0.1623
 1844TIP3    H1 5496   4.563   0.617   5.104  0.9981  1.0460  1.1684
 1844TIP3    H2 5497   4.596   0.526   5.222  0.6092 -0.6483  0.0086
 1845TIP3   OH2 5498   0.669   0.180   0.455 -0.3490  0.0374  0.1492
 1845TIP3    H1 5499   0.595   0.174   0.516 -1.0408 -2.1406 -0.8071
 1845TIP3    H2 5500   0.730   0.113   0.485  0.0694  0.0811 -0.5898
 1846TIP3   OH2 5501   2.937   5.784   1.638  0.2476  0.6263  0.1692
 1846TIP3    H1 5502   3.021   5.800   1.682  0.8179  1.6716 -1.2052
 1846TIP3    H2 5503   2.961   5.764   1.548 -0.9305 -0.6788  0.1198
 1847TIP3   OH2 5504   1.406   4.294   3.632  0.0707  0.9142 -0.3457
 1847TIP3    H1 5505   1.406   4.386   3.605 -1.2306  0.6011 -1.5608
 1847TIP3    H2 5506   1.427   4.246   3.552  0.1262  0.1130  0.1383
 1848TIP3   OH2 5507   4.961   2.555   3.871 -0.1510 -0.1835 -0.0831
 1848TIP3    H1 5508   4.920   2.493   3.931  1.5944  0.3408  1.7566
 1848TIP3    H2 5509   4.892   2.618   3.851 -0.6311 -0.0188  1.9068
 1849TIP3   OH2 5510   1.581   3.233   3.162  0.7216  0.2024 -0.4870
 1849TIP3    H1 5511   1.546   3.162   3.215 -1.0199  1.2379 -0.1775
 1849TIP3    H2 5512   1.674   3.236   3.184  0.1385  0.3621  2.2659
 1850TIP3   OH2 5513   2.135   0.620   3.055  0.1976  0.0410  0.3641
 1850TIP3    H1 5514   2.183   0.697   3.085 -0.3405  0.6016 -0.1830
 1850TIP3    H2 5515   2.071   0.654   2.991 -0.3107 -0.8018  0.4005
 1851TIP3   OH2 5516   6.651   4.471   4.638  0.3041 -0.5125  0.1851
 1851TIP3    H1 5517   6.677   4.523   4.562  2.6123  0.2325  1.3777
 1851TIP3    H2 5518   6.670   4.527   4.713  0.0403 -1.9770  1.3964
 1852TIP3   OH2 5519   0.933   3.879   1.398 -0.3306 -0.0138 -0.2135
 1852TIP3    H1 5520   0.899   3.800   1.440 -3.0204  0.5456 -1.1312
 1852TIP3    H2 5521   0.919   3.865   1.305 -1.3028  1.7040 -0.3665
 1853TIP3   OH2 5522   2.518   4.807   2.325 -0.3092  0.0299  0.0016
 1853TIP3    H1 5523   2.525   4.828   2.232 -2.0462 -2.1878 -0.7424
 1853TIP3    H2 5524   2.441   4.856   2.355 -0.5899 -0.3341 -0.1133
 1854TIP3   OH2 5525   5.955   0.942   4.344  0.2008  0.2110 -0.4890
 1854TIP3    H1 5526   5.949   0.998   4.266  1.3805 -0.9858 -1.4787
 1854TIP3    H2 5527   5.936   0.854   4.312  3.6049 -0.7972 -0.1126
 1855TIP3   OH2 5528   0.142   3.888   5.034 -0.0524 -0.3239  0.4452
 1855TIP3    H1 5529   0.212   3.904   5.098 -0.5233 -0.7410  1.0731
 1855TIP3    H2 5530   0.162   3.947   4.961  1.2967 -0.8554  0.3511
 1856TIP3   OH2 5531   6.056   2.854   2.100 -0.0532  0.1818  0.3666
 1856TIP3    H1 5532   6.076   2.923   2.037 -0.0472 -1.1550 -1.1692
 1856TIP3    H2 5533   6.124   2.862   2.167  1.7738 -0.1872 -1.3414
 1857TIP3   OH2 5534   3.621   2.632   1.677  0.0459  0.3424 -0.6671
 1857TIP3    H1 5535   3.636   2.727   1.670  0.2493  0.4363  0.7013
 1857TIP3    H2 5536   3.685   2.603   1.742 -1.7941 -0.2413  0.9666
 1858TIP3   OH2 5537   3.453   1.050   4.919  0.1966 -0.5307 -0.4360
 1858TIP3    H1 5538   3.443   1.105   4.842  1.2005 -0.6267 -0.6582
 1858TIP3    H2 5539   3.538   1.008   4.906 -0.6583 -2.3538 -0.4142
 1859TIP3   OH2 5540   5.638   2.254   4.334 -0.2627  0.2595 -0.8937
 1859TIP3    H1 5541   5.664   2.249   4.242 -0.7790  0.0421 -1.0308
 1859TIP3    H2 5542   5.545   2.277   4.332 -0.5356 -0.7215 -0.4571
 1860TIP3   OH2 5543   0.598   2.299   3.757  0.0099 -0.1593  0.3006
 1860TIP3    H1 5544   0.671   2.278   3.816  0.8742  0.7516 -0.4164
 1860TIP3    H2 5545   0.640   2.318   3.673 -1.2030 -1.6020 -0.6933
 1861TIP3   OH2 5546   3.654   0.873   0.631 -0.1241  0.0329  0.1290
 1861TIP3    H1 5547   3.700   0.951   0.662 -1.5657  0.6355  0.8712
 1861TIP3    H2 5548   3.695   0.800   0.679  0.5943  0.4414  0.1481
 1862TIP3   OH2 5549   2.145   3.733   0.176 -0.0225 -0.1300  0.5436
 1862TIP3    H1 5550   2.201   3.655   0.166 -0.7726 -0.6300  0.1630
 1862TIP3    H2 5551   2.083   3.708   0.245 -0.2444  0.1433  0.4421
 1863TIP3   OH2 5552   1.319   3.347   4.940  0.3051 -0.2475 -0.2098
 1863TIP3    H1 5553   1.324   3.270   4.997  1.2772 -0.5273 -0.6445
 1863TIP3    H2 5554   1.322   3.311   4.851 -2.2214  0.1109 -0.5010
 1864TIP3   OH2 5555   6.491   6.708   1.199 -0.3567  0.0661  0.0099
 1864TIP3    H1 5556   6.553   6.732   1.268 -0.0488  0.2744 -0.3378
 1864TIP3    H2 5557   6.435   6.642   1.239  0.5450 -0.6573  0.0914
 1865TIP3   OH2 5558   2.853   6.569   5.289  0.2062 -0.3692  0.1215
 1865TIP3    H1 5559   2.781   6.507   5.298  2.3658 -2.9852  0.4500
 1865TIP3    H2 5560   2.891   6.550   5.203  0.5934  0.9556 -0.0373
 1866TIP3   OH2 5561   6.444   2.944   2.693  0.0340  0.1689 -0.4968
 1866TIP3    H1 5562   6.539   2.940   2.682  0.1052  0.2092  0.0567
 1866TIP3    H2 5563   6.411   2.872   2.639  0.4102 -0.0793 -0.4051
 1867TIP3   OH2 5564   0.898   0.086   1.058 -0.0098  0.0579  0.0650
 1867TIP3    H1 5565   0.821   0.113   1.109  0.3846 -1.0198  1.2978
 1867TIP3    H2 5566   0.871   0.095   0.967 -1.6846 -0.4944  0.4661
 1868TIP3   OH2 5567   0.558   2.022   5.736  0.0494  0.2683 -0.1721
 1868TIP3    H1 5568   0.645   1.999   5.702 -0.2476 -0.0010 -0.7709
 1868TIP3    H2 5569   0.572   2.036   5.829  0.6741 -0.1253 -0.1968
 1869TIP3   OH2 5570   2.540   3.603   0.282  0.7498  0.1233  0.5343
 1869TIP3    H1 5571   2.466   3.558   0.242  0.2592  2.6742 -1.8033
 1869TIP3    H2 5572   2.616   3.548   0.263  0.3180  0.5051 -2.9627
 1870TIP3   OH2 5573   3.710   3.742   3.635  0.4735 -0.3908  0.7026
 1870TIP3    H1 5574   3.696   3.675   3.567  0.7809  0.6454 -0.4241
 1870TIP3    H2 5575   3.780   3.797   3.600  2.9126 -1.6312  3.2723
 1871TIP3   OH2 5576   5.175   1.809   0.722 -0.2230 -0.0815 -0.8913
 1871TIP3    H1 5577   5.159   1.863   0.799 -1.2256 -0.0455 -1.0999
 1871TIP3    H2 5578   5.088   1.799   0.682 -0.4413 -3.2580  0.0765
 1872TIP3   OH2 5579   3.833   5.510   3.112 -0.3550 -0.6278  1.0181
 1872TIP3    H1 5580   3.835   5.584   3.051 -1.5890 -2.1144 -0.9191
 1872TIP3    H2 5581   3.925   5.495   3.135  0.2795 -0.7280 -1.4023
 1873TIP3   OH2 5582   5.595   1.860   1.127 -0.4345 -0.1696  0.0272
 1873TIP3    H1 5583   5.665   1.795   1.122 -0.3752 -0.1475  0.5320
 1873TIP3    H2 5584   5.640   1.944   1.137 -0.4849  0.0637 -1.5187
 1874TIP3   OH2 5585   0.202   0.812   1.390  0.0900 -0.0397 -0.0562
 1874TIP3    H1 5586   0.193   0.836   1.482  2.0120 -1.0859  0.4712
 1874TIP3    H2 5587   0.289   0.845   1.366 -0.6557  0.8310 -1.7322
 1875TIP3   OH2 5588   7.049   3.494   2.260  0.2856 -0.0328 -0.2826
 1875TIP3    H1 5589   6.968   3.442   2.258  1.2006 -1.4971 -0.2330
 1875TIP3    H2 5590   7.092   3.475   2.177  0.6924  0.5754 -0.2156
 1876TIP3   OH2 5591   2.642   5.202   4.047  0.2504 -0.5804 -0.7090
 1876TIP3    H1 5592   2.657   5.194   4.142  2.7286 -1.0921 -1.0681
 1876TIP3    H2 5593   2.547   5.210   4.038  0.0406  0.7672  1.8951
 1877TIP3   OH2 5594   3.361   2.297   4.233 -0.1598 -0.2460  0.4432
 1877TIP3    H1 5595   3.443   2.253   4.214  0.3312  1.0823 -0.7131
 1877TIP3    H2 5596   3.369   2.382   4.190 -2.1491 -0.0920  0.2925
 1878TIP3   OH2 5597   2.929   4.280   5.872 -0.3844  0.0037 -0.1777
 1878TIP3    H1 5598   2.994   4.348   5.857  0.7087 -0.1971  2.9693
 1878TIP3    H2 5599   2.980   4.200   5.886 -1.2486 -0.2870  1.6820
 1879TIP3   OH2 5600   4.456   3.060   5.334 -0.0890  0.3621  0.4282
 1879TIP3    H1 5601   4.491   3.104   5.412  0.3316 -0.9936  1.0415
 1879TIP3    H2 5602   4.361   3.061   5.347 -0.0701  0.8352  0.5647
 1880TIP3   OH2 5603   1.972   2.462   1.004 -0.3570  0.5412 -0.8664
 1880TIP3    H1 5604   2.055   2.469   0.957 -0.0948 -1.3768 -0.7668
 1880TIP3    H2 5605   1.997   2.437   1.093 -0.9962  1.2895 -0.4584
 1881TIP3   OH2 5606   3.818   6.538   5.676 -0.6063 -0.3779  0.6694
 1881TIP3    H1 5607   3.775   6.576   5.600 -1.0130 -0.7166  0.7200
 1881TIP3    H2 5608   3.746   6.504   5.729 -0.3580  0.2194  1.4101
 1882TIP3   OH2 5609   4.059   3.476   0.757 -0.5178  0.3528 -0.0750
 1882TIP3    H1 5610   4.117   3.552   0.764 -1.8464  1.3484  0.6037
 1882TIP3    H2 5611   4.089   3.416   0.825 -1.4893  1.7438  1.6853
 1883TIP3   OH2 5612   5.016   1.297   2.805  0.1035 -0.0227 -0.1850
 1883TIP3    H1 5613   5.091   1.266   2.753  0.3311 -0.5795  0.4659
 1883TIP3    H2 5614   5.022   1.248   2.887 -0.4055  0.6640  0.2673
 1884TIP3   OH2 5615   6.392   0.961   0.889  0.1559  0.3406  0.4410
 1884TIP3    H1 5616   6.405   1.036   0.948  1.2099 -0.7625  1.6738
 1884TIP3    H2 5617   6.454   0.896   0.920 -0.4057 -0.8795 -0.9166
 1885TIP3   OH2 5618   1.766   6.428   4.375  0.0611  0.5962 -0.9075
 1885TIP3    H1 5619   1.816   6.353   4.407  1.4373  1.5206 -0.8042
 1885TIP3    H2 5620   1.778   6.427   4.280  0.9652  1.2716 -0.8112
 1886TIP3   OH2 5621   3.539   6.304   5.654 -0.2194  0.2310  0.5339
 1886TIP3    H1 5622   3.550   6.291   5.748  0.4749  0.6561  0.5168
 1886TIP3    H2 5623   3.536   6.399   5.643 -2.8807  0.2121  0.3979
 1887TIP3   OH2 5624   6.249   6.171   1.017 -0.0610 -0.2645  0.4301
 1887TIP3    H1 5625   6.267   6.236   1.085  0.1460  0.4056 -0.2510
 1887TIP3    H2 5626   6.311   6.192   0.947 -1.2401 -0.0328 -0.5729
 1888TIP3   OH2 5627   1.995   1.044   1.688 -0.1740  0.3502  0.0142
 1888TIP3    H1 5628   2.084   1.011   1.695 -0.4730 -0.8237 -1.1673
 1888TIP3    H2 5629   1.985   1.104   1.761  1.7777  0.9666 -0.1811
 1889TIP3   OH2 5630   7.173   2.445   1.730 -0.2165  0.1692  0.4059
 1889TIP3    H1 5631   7.254   2.420   1.685  0.1085 -0.3283  1.2364
 1889TIP3    H2 5632   7.103   2.423   1.668  0.2797  0.7697 -0.3956
 1890TIP3   OH2 5633   5.134   1.552   3.669  0.0157 -0.1265  0.1724
 1890TIP3    H1 5634   5.163   1.535   3.759 -0.5591 -2.0678  0.0466
 1890TIP3    H2 5635   5.050   1.505   3.662  1.2105 -2.1538 -2.0816
 1891TIP3   OH2 5636   1.807   3.361   0.503 -0.7017  0.6517  0.1217
 1891TIP3    H1 5637   1.757   3.327   0.577  0.6438 -1.8919 -0.0340
 1891TIP3    H2 5638   1.741   3.389   0.440 -1.9501 -1.5599  0.3590
 1892TIP3   OH2 5639   4.977   5.960   0.749  0.0443 -0.1932  1.0721
 1892TIP3    H1 5640   4.942   5.935   0.834  0.7788  0.2303  1.5106
 1892TIP3    H2 5641   5.058   6.008   0.769  0.3169 -0.2322  0.1330
 1893TIP3   OH2 5642   0.919   2.626   1.666 -0.3657  0.3842  0.3437
 1893TIP3    H1 5643   0.919   2.554   1.729  0.5065  1.0109  1.0767
 1893TIP3    H2 5644   0.832   2.621   1.625 -0.5639 -0.6673  0.8528
 1894TIP3   OH2 5645   1.323   6.591   4.299 -0.3589 -0.5908 -0.2612
 1894TIP3    H1 5646   1.371   6.589   4.216  1.8676  1.2405  0.8682
 1894TIP3    H2 5647   1.373   6.652   4.354 -1.4108 -2.1526  2.6377
 1895TIP3   OH2 5648   5.221   3.676   4.911 -0.2488  0.4592 -0.2436
 1895TIP3    H1 5649   5.272   3.648   4.835 -0.4342 -1.5421  0.3174
 1895TIP3    H2 5650   5.173   3.597   4.938 -0.9173  1.3767  1.3795
 1896TIP3   OH2 5651   6.206   2.317   3.028  0.5829 -0.1613 -0.3069
 1896TIP3    H1 5652   6.112   2.318   3.045  0.5771  1.5427 -0.3177
 1896TIP3    H2 5653   6.233   2.227   3.047 -1.0947 -0.7630 -0.6339
 1897TIP3   OH2 5654   3.506   3.223   2.276 -0.5274  0.3488 -0.0624
 1897TIP3    H1 5655   3.564   3.246   2.203 -0.1029  1.9156  0.7114
 1897TIP3    H2 5656   3.508   3.128   2.280  0.1131  0.2690 -1.5500
 1898TIP3   OH2 5657   6.825   4.933   2.959 -0.0318 -0.2710 -0.6716
 1898TIP3    H1 5658   6.734   4.929   2.932 -0.3844 -1.2454  0.5785
 1898TIP3    H2 5659   6.823   4.960   3.050  0.7421 -2.6460  0.1247
 1899TIP3   OH2 5660   5.368   4.002   2.303 -0.3244 -0.1869 -0.1624
 1899TIP3    H1 5661   5.325   4.020   2.387  2.1917  0.2175  1.1422
 1899TIP3    H2 5662   5.338   4.072   2.246  0.4698  1.6038  1.4736
 1900TIP3   OH2 5663   7.182   1.688   2.026  0.3293  0.4556  0.2922
 1900TIP3    H1 5664   7.187   1.657   1.935  1.6768 -0.2056  0.5689
 1900TIP3    H2 5665   7.112   1.636   2.065 -0.2308  0.7118 -0.3370
 1901TIP3   OH2 5666   4.015   3.765   0.494 -0.1563  0.3690  0.3154
 1901TIP3    H1 5667   4.074   3.715   0.551 -1.8263 -0.8583  1.0596
 1901TIP3    H2 5668   4.064   3.776   0.412  1.6053  0.6140  1.3496
 1902TIP3   OH2 5669   6.020   4.684   3.099  0.2434 -0.1663  0.1695
 1902TIP3    H1 5670   6.016   4.593   3.129 -0.2214 -0.2180 -0.0302
 1902TIP3    H2 5671   5.956   4.730   3.153  0.6034  0.0820  0.3911
 1903TIP3   OH2 5672   6.344   0.370   0.308  0.0865 -0.1749  0.0468
 1903TIP3    H1 5673   6.293   0.334   0.381 -0.7431  1.1836  0.1798
 1903TIP3    H2 5674   6.414   0.420   0.350 -1.1370  1.6927  0.0280
 1904TIP3   OH2 5675   5.504   3.654   4.943 -0.5104  0.1769 -0.4732
 1904TIP3    H1 5676   5.510   3.566   4.979  2.4126  0.2123 -0.6546
 1904TIP3    H2 5677   5.477   3.640   4.852  0.7080 -0.6431 -0.7380
 1905TIP3   OH2 5678   3.774   3.836   0.315  0.1754  0.2298 -0.4185
 1905TIP3    H1 5679   3.838   3.851   0.385 -0.2249 -0.1133  0.0377
 1905TIP3    H2 5680   3.820   3.857   0.234  1.7881 -2.5989 -0.3644
 1906TIP3   OH2 5681   0.907   6.495   2.682 -0.1730  0.2939 -0.0027
 1906TIP3    H1 5682   0.893   6.502   2.588  1.0721  2.4315 -0.1120
 1906TIP3    H2 5683   0.926   6.585   2.710  1.5782 -0.5716  1.9106
 1907TIP3   OH2 5684   6.057   1.127   3.220 -0.0451 -0.2281  0.2339
 1907TIP3    H1 5685   6.080   1.044   3.178 -1.6308  0.1415 -1.4703
 1907TIP3    H2 5686   6.016   1.101   3.303 -1.5010 -1.2427 -0.7480
 1908TIP3   OH2 5687   1.787   5.989   2.410  0.7455  0.5438 -0.6673
 1908TIP3    H1 5688   1.837   5.913   2.381 -0.9261 -0.5331 -0.8055
 1908TIP3    H2 5689   1.709   5.953   2.451  0.7172  2.1507  0.8341
 1909TIP3   OH2 5690   3.449   5.854   0.268 -0.3059 -0.6115  0.4940
 1909TIP3    H1 5691   3.379   5.898   0.219  0.1575 -1.0377 -0.5649
 1909TIP3    H2 5692   3.527   5.907   0.252 -0.2745 -0.3923  1.3108
 1910TIP3   OH2 5693   3.679   3.461   3.115 -0.3593 -0.2338  0.0299
 1910TIP3    H1 5694   3.767   3.482   3.085 -0.6451  2.6613  0.8843
 1910TIP3    H2 5695   3.690   3.381   3.166  1.7672 -0.0146  0.0280
 1911TIP3   OH2 5696   3.306   1.501   4.166 -0.3990 -0.3980 -0.2538
 1911TIP3    H1 5697   3.321   1.454   4.084 -1.4696 -0.7363 -0.2764
 1911TIP3    H2 5698   3.310   1.434   4.234  0.2502 -0.1549 -0.0438
 1912TIP3   OH2 5699   0.981   2.399   5.570 -0.8715  0.4833  0.7749
 1912TIP3    H1 5700   1.058   2.392   5.514 -0.3189 -0.7107  1.6468
 1912TIP3    H2 5701   1.014   2.436   5.652 -1.1043 -0.5374  1.3477
 1913TIP3   OH2 5702   2.882   0.747   4.973  0.1487  0.0144  0.4013
 1913TIP3    H1 5703   2.925   0.697   5.042  3.1298  1.4438 -0.2538
 1913TIP3    H2 5704   2.848   0.824   5.018  0.5187  0.0834  0.5727
 1914TIP3   OH2 5705   2.095   0.427   3.368  0.5885  0.0982 -0.5629
 1914TIP3    H1 5706   2.112   0.417   3.461  1.6076 -0.9242 -0.8314
 1914TIP3    H2 5707   2.167   0.380   3.325  0.5853  1.2109 -1.8752
 1915TIP3   OH2 5708   5.542   2.186   2.910 -0.0951 -0.5199 -0.4851
 1915TIP3    H1 5709   5.598   2.154   2.839  0.5626 -0.5884  0.0615
 1915TIP3    H2 5710   5.598   2.188   2.987 -0.9145 -0.8448  0.1428
 1916TIP3   OH2 5711   1.412   6.222   1.736 -0.1698  0.0930 -0.2137
 1916TIP3    H1 5712   1.339   6.184   1.687 -1.1166  2.1315 -0.4851
 1916TIP3    H2 5713   1.456   6.279   1.674  1.2442 -0.5464  0.1572
 1917TIP3   OH2 5714   0.935   5.021   1.114 -0.4804 -0.4922  0.4567
 1917TIP3    H1 5715   1.026   5.008   1.139  0.1146 -0.2948 -1.4635
 1917TIP3    H2 5716   0.933   5.109   1.076 -1.3017 -0.7914 -0.2102
 1918TIP3   OH2 5717   1.301   5.043   0.150  0.1324  0.5251  0.1241
 1918TIP3    H1 5718   1.277   4.961   0.106 -0.0161  0.8751 -0.4565
 1918TIP3    H2 5719   1.394   5.055   0.131 -0.2221  1.3437 -1.2206
 1919TIP3   OH2 5720   5.291   2.760   4.550 -0.2922 -0.1561  0.4684
 1919TIP3    H1 5721   5.265   2.718   4.632 -1.9947 -0.0888 -0.0133
 1919TIP3    H2 5722   5.386   2.749   4.547 -0.2645 -0.6531  2.1734
 1920TIP3   OH2 5723   1.611   5.307   2.039  0.4008 -0.2811 -0.5814
 1920TIP3    H1 5724   1.515   5.309   2.046  0.4148 -2.1672  0.9347
 1920TIP3    H2 5725   1.639   5.391   2.073 -0.6517 -0.7682  1.6461
 1921TIP3   OH2 5726   2.412   0.464   1.796  0.5428 -0.1621 -0.1231
 1921TIP3    H1 5727   2.402   0.454   1.701  0.4203 -0.3466 -0.0919
 1921TIP3    H2 5728   2.506   0.456   1.811  0.4325 -1.6477 -0.0684
 1922TIP3   OH2 5729   2.567   5.579   0.740  0.2526  0.3602  0.4469
 1922TIP3    H1 5730   2.498   5.545   0.683  1.3153 -0.1438 -0.5966
 1922TIP3    H2 5731   2.597   5.659   0.697  0.5237  0.4084  0.7190
 1923TIP3   OH2 5732   0.672   1.731   2.345 -0.4510  0.0106  0.1889
 1923TIP3    H1 5733   0.634   1.685   2.421 -1.4821 -1.4831 -1.1601
 1923TIP3    H2 5734   0.702   1.661   2.287 -0.4581  1.0914 -1.1732
 1924TIP3   OH2 5735   6.338   2.697   2.854  0.3401  0.5933 -0.4132
 1924TIP3    H1 5736   6.374   2.747   2.781 -0.2623  1.3422 -0.2088
 1924TIP3    H2 5737   6.245   2.689   2.835  0.8175 -3.2451 -2.0772
 1925TIP3   OH2 5738   6.879   2.957   4.777  0.0313 -0.3540  0.0299
 1925TIP3    H1 5739   6.793   2.953   4.819  1.2922 -1.2633  2.7365
 1925TIP3    H2 5740   6.928   3.022   4.828  1.0604 -0.0351 -1.3083
 1926TIP3   OH2 5741   4.902   6.317   1.538  0.1243  0.1330  0.1957
 1926TIP3    H1 5742   4.962   6.249   1.507  0.2526  0.1851  0.3323
 1926TIP3    H2 5743   4.928   6.396   1.491 -0.1069  0.0587 -0.0585
 1927TIP3   OH2 5744   3.640   4.111   0.365 -0.5062  0.4653  0.0699
 1927TIP3    H1 5745   3.709   4.163   0.406 -0.6007  0.2261  0.5428
 1927TIP3    H2 5746   3.672   4.021   0.371 -1.3044  0.2380  1.2203
 1928TIP3   OH2 5747   2.041   5.679   2.887 -0.1255  0.0625 -0.4740
 1928TIP3    H1 5748   1.978   5.661   2.817  0.0530  0.5222 -0.7548
 1928TIP3    H2 5749   2.123   5.640   2.857 -0.1688 -0.1708 -0.2952
 1929TIP3   OH2 5750   2.770   1.601   5.819  0.2406 -0.3715  0.1867
 1929TIP3    H1 5751   2.721   1.520   5.830  0.5327 -0.3472  2.0899
 1929TIP3    H2 5752   2.860   1.578   5.842  1.0894 -0.2867 -2.7221
 1930TIP3   OH2 5753   3.640   6.770   2.793  0.1928 -0.5468  0.0565
 1930TIP3    H1 5754   3.638   6.699   2.857 -0.7919 -0.0710  0.5825
 1930TIP3    H2 5755   3.569   6.750   2.732 -1.1486  0.7411  1.1017
 1931TIP3   OH2 5756   2.732   3.838   4.070 -0.0373 -0.7527 -0.7004
 1931TIP3    H1 5757   2.662   3.875   4.124  1.2943 -1.8630  1.9614
 1931TIP3    H2 5758   2.701   3.750   4.049  0.2515 -0.9998 -0.1046
 1932TIP3   OH2 5759   1.632   0.898   1.123  0.4542  0.6144  0.1674
 1932TIP3    H1 5760   1.628   0.850   1.206 -0.5477 -0.8519 -0.6778
 1932TIP3    H2 5761   1.707   0.957   1.133  0.8468 -0.1033  1.8019
 1933TIP3   OH2 5762   0.397   3.715   4.477  0.1201 -0.3762  0.3573
 1933TIP3    H1 5763   0.302   3.708   4.467  0.1206 -0.7434  0.5907
 1933TIP3    H2 5764   0.427   3.624   4.479  0.7240 -0.2979 -2.0152
 1934TIP3   OH2 5765   3.691   1.073   5.782 -0.2165 -0.1840 -0.3601
 1934TIP3    H1 5766   3.734   1.087   5.698 -0.8855 -0.3051 -0.7291
 1934TIP3    H2 5767   3.598   1.091   5.765 -0.2087  0.8876  0.6190
 1935TIP3   OH2 5768   4.408   4.472   5.532 -0.6431  0.3681  0.4532
 1935TIP3    H1 5769   4.441   4.433   5.451 -0.9312  3.7393 -1.4292
 1935TIP3    H2 5770   4.485   4.478   5.589  0.1573  0.4516 -0.6189
 1936TIP3   OH2 5771   5.097   3.223   5.188 -0.0428 -0.2571 -0.3968
 1936TIP3    H1 5772   5.038   3.186   5.254  1.3398  0.8972  1.5803
 1936TIP3    H2 5773   5.122   3.308   5.224  1.7169 -0.1121 -1.8536
 1937TIP3   OH2 5774   3.669   4.950   5.044 -0.4251 -0.0387  0.4927
 1937TIP3    H1 5775   3.677   4.878   5.107 -1.1553 -0.7685 -0.2405
 1937TIP3    H2 5776   3.591   4.998   5.073  0.0804  0.5056  1.0021
 1938TIP3   OH2 5777   5.518   0.508   4.820  0.0756  0.4314  0.2022
 1938TIP3    H1 5778   5.495   0.417   4.839  1.1894 -0.2928 -1.7295
 1938TIP3    H2 5779   5.440   0.544   4.777 -0.1409  0.2193  0.4138
 1939TIP3   OH2 5780   1.263   2.861   3.504  0.2256 -0.1632 -0.1031
 1939TIP3    H1 5781   1.305   2.775   3.506 -0.9909 -0.7777 -0.4826
 1939TIP3    H2 5782   1.175   2.846   3.538 -0.5324  0.6344 -1.6354
 1940TIP3   OH2 5783   6.702   3.254   1.581 -0.4782  0.4243  0.3620
 1940TIP3    H1 5784   6.751   3.183   1.540  0.6873  1.3257  0.1441
 1940TIP3    H2 5785   6.653   3.212   1.651  0.9495 -0.4669  0.8711
 1941TIP3   OH2 5786   1.686   6.026   0.518 -0.4531  0.1199  0.4377
 1941TIP3    H1 5787   1.672   6.065   0.431  0.5351  1.2081  0.7329
 1941TIP3    H2 5788   1.781   6.016   0.525 -0.6031 -1.1425  0.9142
 1942TIP3   OH2 5789   4.110   0.793   0.660  0.3573 -0.1515 -0.8258
 1942TIP3    H1 5790   4.181   0.855   0.677  0.0361  0.1769 -0.6601
 1942TIP3    H2 5791   4.055   0.837   0.595  1.2738 -1.1695 -2.3435
 1943TIP3   OH2 5792   5.424   0.886   0.488 -0.4860  0.1668  0.6885
 1943TIP3    H1 5793   5.405   0.979   0.470  0.6696  0.5508  1.3436
 1943TIP3    H2 5794   5.512   0.873   0.455  0.0076 -0.2448  2.0917
 1944TIP3   OH2 5795   5.780   6.625   2.002 -0.1130  0.0610  0.5054
 1944TIP3    H1 5796   5.758   6.536   1.975 -0.9042 -0.0452  1.4432
 1944TIP3    H2 5797   5.826   6.614   2.086 -0.1022  0.5298  0.5619
 1945TIP3   OH2 5798   4.378   0.354   4.496  0.2313 -1.5974 -0.2741
 1945TIP3    H1 5799   4.332   0.402   4.427 -0.5196 -2.2283 -0.2393
 1945TIP3    H2 5800   4.308   0.310   4.545  0.4619  0.9472  2.6081
 1946TIP3   OH2 5801   1.842   2.376   2.122  0.2950 -0.4350 -0.2148
 1946TIP3    H1 5802   1.848   2.378   2.217 -1.6720 -0.3715 -0.0673
 1946TIP3    H2 5803   1.822   2.284   2.101  0.3039 -0.3642 -0.5354
 1947TIP3   OH2 5804   3.605   6.383   2.739  0.4139  0.3221  0.1336
 1947TIP3    H1 5805   3.524   6.396   2.690  0.3289 -1.0503 -0.1287
 1947TIP3    H2 5806   3.674   6.416   2.681  0.2288 -0.4814 -0.5664
 1948TIP3   OH2 5807   2.563   3.488   2.724  0.4123  0.0242  0.2669
 1948TIP3    H1 5808   2.643   3.540   2.735 -0.1106  0.6206  1.5028
 1948TIP3    H2 5809   2.582   3.429   2.651  1.5592  0.9450 -0.2092
 1949TIP3   OH2 5810   2.252   1.981   3.489 -0.1841  0.4401  0.0198
 1949TIP3    H1 5811   2.289   2.043   3.426 -0.2824  0.9439  0.4562
 1949TIP3    H2 5812   2.327   1.945   3.535 -0.0562 -0.4386 -0.8411
 1950TIP3   OH2 5813   3.406   5.712   1.982 -0.2917  0.0413  0.9160
 1950TIP3    H1 5814   3.498   5.704   2.006  0.0225 -0.2418 -0.3350
 1950TIP3    H2 5815   3.369   5.626   2.000  0.2283 -0.5536 -0.7365
 1951TIP3   OH2 5816   4.282   5.870   5.403  0.1137 -0.5355  0.5988
 1951TIP3    H1 5817   4.360   5.829   5.365 -0.3292 -1.4715  0.6902
 1951TIP3    H2 5818   4.305   5.963   5.409  0.0001 -0.1750 -2.5310
 1952TIP3   OH2 5819   3.083   0.047   2.520 -0.2299  0.1547  0.2550
 1952TIP3    H1 5820   3.010   0.074   2.464  0.1859  0.4226 -0.1637
 1952TIP3    H2 5821   3.148   0.011   2.460  0.7134  1.5076  0.4058
 1953TIP3   OH2 5822   0.827   0.297   1.981  0.5596 -0.0377 -0.1889
 1953TIP3    H1 5823   0.763   0.300   2.053 -1.3286  0.1191 -1.7975
 1953TIP3    H2 5824   0.798   0.225   1.926  4.0429 -2.5501  0.9186
 1954TIP3   OH2 5825   1.369   0.966   2.719 -0.0203  0.1033  0.3855
 1954TIP3    H1 5826   1.343   0.875   2.706 -1.7953  0.4796  1.0517
 1954TIP3    H2 5827   1.331   1.013   2.645  1.4413  0.2486 -0.3159
 1955TIP3   OH2 5828   4.519   5.476   0.661  0.2387 -0.1491 -0.0842
 1955TIP3    H1 5829   4.481   5.539   0.724 -1.4333 -1.4531  0.2904
 1955TIP3    H2 5830   4.443   5.432   0.623  1.3388 -3.0273  0.8026
 1956TIP3   OH2 5831   0.888   1.995   4.979 -0.3175 -0.1178 -0.1780
 1956TIP3    H1 5832   0.937   2.045   5.044 -0.0609  0.7288 -1.0087
 1956TIP3    H2 5833   0.867   1.913   5.023  0.0294  0.3550  0.9029
 1957TIP3   OH2 5834   6.113   1.907   0.010 -0.0014  0.1418 -0.3631
 1957TIP3    H1 5835   6.187   1.848   0.017 -0.1355 -0.2584 -2.0332
 1957TIP3    H2 5836   6.037   1.854   0.036 -0.2843 -0.8445 -2.9419
 1958TIP3   OH2 5837   6.625   2.549   4.013  0.0769 -0.0843 -0.5677
 1958TIP3    H1 5838   6.533   2.571   3.997 -0.5367 -2.4981 -0.8154
 1958TIP3    H2 5839   6.656   2.616   4.073 -1.3398  1.7599 -1.7583
 1959TIP3   OH2 5840   0.625   5.224   0.693 -0.1493  0.3175 -0.6395
 1959TIP3    H1 5841   0.696   5.175   0.734 -1.2160 -0.9330 -0.2196
 1959TIP3    H2 5842   0.611   5.299   0.752 -0.6569 -0.6442  0.5031
 1960TIP3   OH2 5843   2.304   6.324   4.019 -0.1213 -0.7195 -0.2692
 1960TIP3    H1 5844   2.327   6.246   4.069 -1.7677 -1.8167 -1.1591
 1960TIP3    H2 5845   2.246   6.374   4.077  1.5326  0.3028  0.6030
 1961TIP3   OH2 5846   1.700   4.271   1.748 -0.1636 -0.0844  0.5733
 1961TIP3    H1 5847   1.608   4.247   1.751  0.1230 -1.1961  1.9001
 1961TIP3    H2 5848   1.705   4.353   1.797 -0.1336 -1.4241  2.9899
 1962TIP3   OH2 5849   7.147   3.882   3.376 -0.0912  0.1129 -0.3734
 1962TIP3    H1 5850   7.221   3.839   3.418 -0.4061 -0.7048 -0.6296
 1962TIP3    H2 5851   7.120   3.950   3.438 -0.1897 -0.6977  0.4805
 1963TIP3   OH2 5852   6.151   6.649   5.255  0.7626 -0.3322 -0.2283
 1963TIP3    H1 5853   6.119   6.733   5.223 -0.4021  0.1241  1.9623
 1963TIP3    H2 5854   6.197   6.610   5.180  1.6144  2.3680 -1.2099
 1964TIP3   OH2 5855   1.873   6.540   5.744  0.2342  0.5476  0.1841
 1964TIP3    H1 5856   1.828   6.473   5.796 -1.0449 -0.2789 -1.8867
 1964TIP3    H2 5857   1.821   6.620   5.758  1.5835  1.1363  2.4034
 1965TIP3   OH2 5858   0.256   2.032   3.698 -0.2094  0.1245 -0.0156
 1965TIP3    H1 5859   0.243   1.955   3.753 -0.7505  0.9801  1.0889
 1965TIP3    H2 5860   0.301   1.998   3.620 -0.1599 -1.2448  0.5761
 1966TIP3   OH2 5861   2.746   2.649   4.342 -0.2718  0.7914 -0.1622
 1966TIP3    H1 5862   2.814   2.641   4.275 -0.8725 -0.8787 -0.6371
 1966TIP3    H2 5863   2.677   2.589   4.313 -1.5213  1.6876  0.8256
 1967TIP3   OH2 5864   5.641   2.340   0.583 -0.1749  0.1330 -0.1612
 1967TIP3    H1 5865   5.570   2.404   0.579 -1.5700 -1.1716  1.8209
 1967TIP3    H2 5866   5.624   2.281   0.510 -0.9470  0.0284  0.0930
 1968TIP3   OH2 5867   1.801   5.086   4.161 -0.2577  0.0031 -0.0879
 1968TIP3    H1 5868   1.737   5.108   4.093 -0.0772  0.5430 -0.0893
 1968TIP3    H2 5869   1.790   4.992   4.175  1.0021 -0.5293 -2.2122
 1969TIP3   OH2 5870   5.991   1.943   3.082  0.0879 -0.6607 -0.4101
 1969TIP3    H1 5871   6.064   2.005   3.085  0.4328 -1.1066  1.0666
 1969TIP3    H2 5872   5.968   1.928   3.174  0.0008 -2.6933 -0.7108
 1970TIP3   OH2 5873   7.173   6.410   2.579  0.3316  0.4649 -0.1077
 1970TIP3    H1 5874   7.223   6.488   2.604 -0.6734  1.0165  0.2057
 1970TIP3    H2 5875   7.213   6.382   2.496  4.1304 -1.7325  2.1272
 1971TIP3   OH2 5876   2.589   6.244   3.363 -0.9021  0.5623 -0.3419
 1971TIP3    H1 5877   2.572   6.215   3.453  1.8521 -1.2161 -0.2614
 1971TIP3    H2 5878   2.620   6.334   3.372  1.1995 -0.2046  0.8103
 1972TIP3   OH2 5879   1.537   1.698   3.062  0.1086  0.1263 -0.0088
 1972TIP3    H1 5880   1.523   1.793   3.056 -0.2466  0.0472 -0.4424
 1972TIP3    H2 5881   1.469   1.669   3.122  0.3235  0.1672  0.2569
 1973TIP3   OH2 5882   2.339   2.031   3.151 -0.6024 -0.0241  0.1353
 1973TIP3    H1 5883   2.350   2.120   3.117  0.0430 -0.2082 -0.1535
 1973TIP3    H2 5884   2.420   1.986   3.128 -0.1853 -0.2058  1.7803
 1974TIP3   OH2 5885   2.380   0.106   3.053 -0.4660 -0.0619  0.3653
 1974TIP3    H1 5886   2.460   0.054   3.045 -0.9332 -0.6647 -0.6559
 1974TIP3    H2 5887   2.384   0.167   2.979  0.7508  2.3928  2.3106
 1975TIP3   OH2 5888   2.893   2.259   4.782 -0.4325  0.2122 -0.0439
 1975TIP3    H1 5889   2.931   2.342   4.809  1.7339 -0.7326  0.0292
 1975TIP3    H2 5890   2.930   2.242   4.695  1.1740 -1.7736  0.9310
 1976TIP3   OH2 5891   0.572   3.611   3.985 -0.3681  0.2998  0.1353
 1976TIP3    H1 5892   0.502   3.655   4.034 -2.3045 -0.6469 -1.6278
 1976TIP3    H2 5893   0.546   3.519   3.985 -0.8034  0.3278 -3.0967
 1977TIP3   OH2 5894   3.303   2.528   1.581 -0.2704  0.1445 -0.1279
 1977TIP3    H1 5895   3.238   2.469   1.618  0.7013 -1.2063 -0.5058
 1977TIP3    H2 5896   3.303   2.507   1.487  0.9920 -0.1929 -0.0708
 1978TIP3   OH2 5897   7.137   1.515   4.201 -0.0453 -0.3890  0.1135
 1978TIP3    H1 5898   7.208   1.548   4.146 -1.5106  0.0531 -1.6567
 1978TIP3    H2 5899   7.159   1.423   4.217  1.6598  0.1316  0.9436
 1979TIP3   OH2 5900   6.947   3.487   2.691  0.0735  0.3674  0.0701
 1979TIP3    H1 5901   6.893   3.524   2.622 -1.2019  0.7962  1.2529
 1979TIP3    H2 5902   6.982   3.406   2.653  0.0435  0.9836 -1.3265
 1980TIP3   OH2 5903   2.172   5.428   2.610 -0.2066  0.4241  0.3504
 1980TIP3    H1 5904   2.199   5.448   2.521  3.4662 -1.6399  0.8050
 1980TIP3    H2 5905   2.102   5.364   2.601 -0.8274  1.2649 -1.0029
 1981TIP3   OH2 5906   5.759   2.322   1.920  0.3069 -0.3276  0.0590
 1981TIP3    H1 5907   5.697   2.380   1.875 -1.7963 -2.5312 -0.1084
 1981TIP3    H2 5908   5.833   2.378   1.942 -1.4439  2.3267 -0.3422
 1982TIP3   OH2 5909   7.024   2.551   4.298 -0.2291  0.5723 -0.0161
 1982TIP3    H1 5910   6.959   2.616   4.326 -0.2679  0.1755  0.8282
 1982TIP3    H2 5911   6.986   2.512   4.219 -0.1511  1.6533 -0.6105
 1983TIP3   OH2 5912   5.787   1.145   0.114 -0.0571  0.9240  0.1579
 1983TIP3    H1 5913   5.835   1.088   0.053  0.9960  1.6003  0.3120
 1983TIP3    H2 5914   5.836   1.138   0.196 -0.9975  0.6420  0.7076
 1984TIP3   OH2 5915   6.824   0.606   5.827 -0.6911  0.1939 -0.4430
 1984TIP3    H1 5916   6.766   0.552   5.773 -0.3436 -0.0281 -0.5968
 1984TIP3    H2 5917   6.834   0.557   5.908  0.4116 -0.4571 -0.9575
 1985TIP3   OH2 5918   5.690   0.299   2.165  0.4051  0.0621  0.2147
 1985TIP3    H1 5919   5.741   0.369   2.207  0.0852  0.7401 -0.5140
 1985TIP3    H2 5920   5.667   0.240   2.237 -0.7920  1.6057  1.1699
 1986TIP3   OH2 5921   4.048   6.477   4.125  0.3924 -0.3064 -0.4991
 1986TIP3    H1 5922   4.133   6.434   4.127  0.0992 -0.8596  0.6563
 1986TIP3    H2 5923   3.986   6.410   4.153 -0.4087  0.1571 -1.1047
 1987TIP3   OH2 5924   5.775   3.271   0.075 -0.4110 -0.1833 -0.2538
 1987TIP3    H1 5925   5.805   3.187   0.040  1.2711 -0.7738  2.3520
 1987TIP3    H2 5926   5.731   3.248   0.157  1.8408  1.5149  1.5650
 1988TIP3   OH2 5927   5.993   0.675   0.345 -0.0937  0.0092 -0.2943
 1988TIP3    H1 5928   6.078   0.665   0.303  0.5364  2.4582  0.2291
 1988TIP3    H2 5929   6.013   0.717   0.429 -1.7285 -0.4883  0.3828
 1989TIP3   OH2 5930   6.954   4.680   2.179  0.5484 -0.0504 -0.7094
 1989TIP3    H1 5931   6.909   4.691   2.095 -1.3739  0.3642  0.3316
 1989TIP3    H2 5932   6.954   4.586   2.194 -0.5536 -0.0151 -0.4289
 1990TIP3   OH2 5933   2.373   2.105   4.659 -0.0471  0.5549 -0.3759
 1990TIP3    H1 5934   2.395   2.015   4.682  0.4811  0.4786 -1.1454
 1990TIP3    H2 5935   2.326   2.139   4.735 -1.6957 -0.8797 -0.6959
 1991TIP3   OH2 5936   4.612   4.566   3.225 -0.1036 -0.0113  0.5390
 1991TIP3    H1 5937   4.546   4.594   3.162 -0.9540  2.0719  2.2317
 1991TIP3    H2 5938   4.637   4.478   3.196  0.2603  1.1571 -3.1693
 1992TIP3   OH2 5939   6.388   0.487   5.145 -0.0856 -0.0423  0.3470
 1992TIP3    H1 5940   6.430   0.479   5.059  1.6986  0.3457  1.1388
 1992TIP3    H2 5941   6.456   0.464   5.207 -1.5995 -1.1421  1.6591
 1993TIP3   OH2 5942   0.600   4.961   4.291 -0.0053  0.5718 -0.1238
 1993TIP3    H1 5943   0.574   4.876   4.255  1.8996  0.5211 -1.5504
 1993TIP3    H2 5944   0.695   4.955   4.301 -0.0897  1.7208  2.0712
 1994TIP3   OH2 5945   1.516   2.499   3.351  0.3066  0.4419  0.1604
 1994TIP3    H1 5946   1.564   2.418   3.333 -0.7808 -0.1814 -0.0287
 1994TIP3    H2 5947   1.488   2.530   3.264 -1.1875 -0.2012  0.3850
 1995TIP3   OH2 5948   7.227   4.424   2.247  0.4107  0.5616  0.0609
 1995TIP3    H1 5949   7.133   4.408   2.255  0.1502  1.2554 -1.3204
 1995TIP3    H2 5950   7.249   4.478   2.324 -0.6186  1.6111 -0.3592
 1996TIP3   OH2 5951   3.896   4.927   3.673 -0.1558  0.7574  0.2658
 1996TIP3    H1 5952   3.819   4.979   3.650 -0.5230  0.5604  1.0272
 1996TIP3    H2 5953   3.860   4.843   3.702  0.3838  0.4251 -0.0175
 1997TIP3   OH2 5954   5.676   1.423   2.803 -0.0065 -0.0919  0.0484
 1997TIP3    H1 5955   5.673   1.517   2.822 -0.5976  0.1122 -0.9706
 1997TIP3    H2 5956   5.766   1.406   2.778  0.4245 -0.0733  1.5196
 1998TIP3   OH2 5957   3.656   0.878   3.270 -0.7897  0.3681 -0.0762
 1998TIP3    H1 5958   3.619   0.794   3.245 -0.3870  0.3429 -0.5951
 1998TIP3    H2 5959   3.749   0.870   3.250 -0.2478  0.0272  2.2021
 1999TIP3   OH2 5960   5.819   4.959   5.874  0.0998 -0.3970 -0.1487
 1999TIP3    H1 5961   5.875   4.934   5.800  1.0767 -0.4139  0.5634
 1999TIP3    H2 5962   5.864   4.922   5.950 -0.5275  0.1932  0.5160
 2000TIP3   OH2 5963   6.170   5.464   4.544 -0.2727 -0.0856 -0.4631
 2000TIP3    H1 5964   6.180   5.403   4.617  0.5017  0.9874  0.3509
 2000TIP3    H2 5965   6.202   5.547   4.577  1.1297  0.1931 -2.3523
 2001TIP3   OH2 5966   0.002   0.870   2.212  0.0634 -0.1145 -0.2389
 2001TIP3    H1 5967   0.077   0.855   2.269  0.0158 -0.9206 -0.3681
 2001TIP3    H2 5968  -0.074   0.847   2.266  0.0775 -2.1210 -0.9630
 2002TIP3   OH2 5969   6.767   0.074   2.806  0.4190  0.3975  0.6513
 2002TIP3    H1 5970   6.828   0.000   2.798  0.9274  0.8251  0.5206
 2002TIP3    H2 5971   6.689   0.036   2.846  0.8444 -0.1193  1.0038
 2003TIP3   OH2 5972   0.327   0.090   3.264 -0.4853 -0.4728  0.2716
 2003TIP3    H1 5973   0.295   0.073   3.175  2.0430 -0.6445 -0.6994
 2003TIP3    H2 5974   0.322   0.185   3.274 -1.4570 -0.5101  0.2551
 2004TIP3   OH2 5975   6.272   2.281   2.194  0.1399 -0.7699 -0.3338
 2004TIP3    H1 5976   6.278   2.370   2.159 -0.0469 -0.4292  0.4720
 2004TIP3    H2 5977   6.178   2.262   2.197  0.1710 -0.9292 -0.3394
 2005TIP3   OH2 5978   3.845  -0.034   3.436 -0.9343 -0.0430  0.1069
 2005TIP3    H1 5979   3.796   0.018   3.372 -0.7949 -0.6228 -0.4793
 2005TIP3    H2 5980   3.921   0.021   3.458 -1.6511  0.7111  0.7628
 2006TIP3   OH2 5981   4.622   5.052   4.767 -0.5605  0.0945 -0.3327
 2006TIP3    H1 5982   4.572   5.028   4.845 -0.7447  0.8596 -0.2108
 2006TIP3    H2 5983   4.571   5.019   4.694 -0.3698 -0.6602 -0.1370
 2007TIP3   OH2 5984   0.232   5.297   5.724  0.4061 -0.3641  0.2574
 2007TIP3    H1 5985   0.162   5.261   5.669 -0.4679  2.2619 -0.4998
 2007TIP3    H2 5986   0.187   5.328   5.802  1.4437 -2.7356  1.8927
 2008TIP3   OH2 5987   4.726   5.843   0.680  0.1245  0.1928 -0.1177
 2008TIP3    H1 5988   4.718   5.884   0.766 -2.1033  0.0058 -0.1736
 2008TIP3    H2 5989   4.755   5.913   0.622 -1.2831  1.1226  0.2490
 2009TIP3   OH2 5990   6.751   5.911   1.402 -0.8212  0.2704 -0.3175
 2009TIP3    H1 5991   6.705   5.861   1.334 -0.1557  1.5235 -1.7457
 2009TIP3    H2 5992   6.843   5.910   1.374 -0.1441 -0.9882  1.7292
 2010TIP3   OH2 5993   3.262   2.967   0.455  0.4071  0.2549  0.0107
 2010TIP3    H1 5994   3.185   2.915   0.431  0.8088 -0.1022 -0.5416
 2010TIP3    H2 5995   3.286   2.937   0.542  0.6596 -0.5283 -0.3200
 2011TIP3   OH2 5996   5.639   0.562   4.514 -0.3446  0.4241  0.8558
 2011TIP3    H1 5997   5.657   0.468   4.521 -2.1818 -0.0292  0.1027
 2011TIP3    H2 5998   5.552   0.573   4.552 -0.4029  1.7237  0.4073
 2012TIP3   OH2 5999   1.579   0.770   0.892 -0.5305  0.2271 -0.0691
 2012TIP3    H1 6000   1.603   0.793   0.982 -0.8206 -0.2095  0.1230
 2012TIP3    H2 6001   1.483   0.764   0.894 -0.4401 -1.6253  0.0481
 2013TIP3   OH2 6002   4.126   2.274   5.394 -0.0374  0.2704  0.2091
 2013TIP3    H1 6003   4.072   2.275   5.315 -0.4810  1.7395  0.5073
 2013TIP3    H2 6004   4.195   2.338   5.376 -1.0755  1.8467  1.6110
 2014TIP3   OH2 6005   5.655   5.935   0.423  0.0685 -0.3948  0.8493
 2014TIP3    H1 6006   5.624   5.910   0.510  1.1522 -1.4725  0.9605
 2014TIP3    H2 6007   5.615   5.872   0.364 -0.7820  0.4290  0.5442
 2015TIP3   OH2 6008   4.128   6.204   3.974 -0.0118 -0.5299  0.2087
 2015TIP3    H1 6009   4.186   6.243   4.040  0.2296  0.8390 -0.7455
 2015TIP3    H2 6010   4.187   6.175   3.905 -0.3028 -1.3967  0.3147
 2016TIP3   OH2 6011   5.506   3.224   0.886  0.5385  0.1610 -0.5362
 2016TIP3    H1 6012   5.492   3.147   0.831  0.0990  0.3461 -0.6876
 2016TIP3    H2 6013   5.538   3.291   0.826 -0.7259  0.6094 -0.7231
 2017TIP3   OH2 6014   0.526   2.388   5.398 -0.2856 -0.0903  0.5689
 2017TIP3    H1 6015   0.506   2.328   5.470 -0.0369 -1.0980 -0.1731
 2017TIP3    H2 6016   0.616   2.365   5.372 -0.3879  0.2170 -0.0960
 2018TIP3   OH2 6017   7.192   4.180   2.861  0.2412 -0.2637  0.0547
 2018TIP3    H1 6018   7.185   4.084   2.853 -0.1208 -0.2383  0.0324
 2018TIP3    H2 6019   7.103   4.208   2.880  0.4699  0.0081  0.7491
 2019TIP3   OH2 6020   6.338   6.411   5.358  1.0626  0.1632  0.2428
 2019TIP3    H1 6021   6.396   6.432   5.284  0.5710  0.9433  0.0592
 2019TIP3    H2 6022   6.287   6.491   5.371  0.9447 -0.0643  1.2524
 2020TIP3   OH2 6023   6.938   4.978   3.979 -0.2746  0.1329 -0.0613
 2020TIP3    H1 6024   7.031   4.954   3.986 -0.3264 -0.4131 -1.0681
 2020TIP3    H2 6025   6.912   4.947   3.892 -1.2054  0.9580 -0.0926
 2021TIP3   OH2 6026   2.917   6.707   0.739  0.1733 -0.0864  0.1696
 2021TIP3    H1 6027   2.989   6.762   0.708 -1.2000  1.4807 -0.4058
 2021TIP3    H2 6028   2.920   6.629   0.684  0.0149  1.0273 -1.4821
 2022TIP3   OH2 6029   6.688   5.890   3.720  0.3210  0.3270  0.2069
 2022TIP3    H1 6030   6.637   5.809   3.718  2.4940 -1.1878  0.9831
 2022TIP3    H2 6031   6.713   5.905   3.629 -1.8445  1.3833 -0.2567
 2023TIP3   OH2 6032   5.694   6.471   0.907  0.0589 -0.5281  0.0798
 2023TIP3    H1 6033   5.633   6.542   0.928  1.5021  0.9627 -0.4443
 2023TIP3    H2 6034   5.700   6.420   0.987  0.2449  0.9663  1.0678
 2024TIP3   OH2 6035   1.533   4.321   2.734  0.2887 -0.3376  0.3704
 2024TIP3    H1 6036   1.621   4.319   2.771  0.7975  0.2858 -0.7555
 2024TIP3    H2 6037   1.539   4.265   2.656 -0.1924  0.0215  0.0674
 2025TIP3   OH2 6038   6.536   2.524   2.192  0.8269 -0.5453 -0.0944
 2025TIP3    H1 6039   6.472   2.578   2.145  2.4004  1.2397 -0.3162
 2025TIP3    H2 6040   6.597   2.494   2.124  2.0174  0.4507  0.4839
 2026TIP3   OH2 6041   3.895   5.534   1.511 -0.5502 -0.1738 -0.0748
 2026TIP3    H1 6042   3.872   5.610   1.565 -1.4044 -0.2893 -0.2632
 2026TIP3    H2 6043   3.984   5.513   1.537 -0.6675  0.2585  0.7303
 2027TIP3   OH2 6044   2.848   3.930   3.793 -0.0998  0.0880  0.0685
 2027TIP3    H1 6045   2.826   3.923   3.886 -1.3394  0.1912 -0.1949
 2027TIP3    H2 6046   2.803   3.856   3.752 -2.5675  1.9936 -0.9186
 2028TIP3   OH2 6047   1.994   3.550   4.160 -0.1459 -0.4314  0.1713
 2028TIP3    H1 6048   1.948   3.634   4.155 -0.5953 -0.7390 -1.0701
 2028TIP3    H2 6049   1.967   3.503   4.081 -0.7626 -2.1886  1.3739
 2029TIP3   OH2 6050   3.152   4.606   2.040 -0.4029 -0.0364 -0.2586
 2029TIP3    H1 6051   3.116   4.568   1.961 -1.2637  0.6508 -0.2104
 2029TIP3    H2 6052   3.241   4.630   2.017 -0.5750 -0.0532 -0.9445
 2030TIP3   OH2 6053   3.433   5.955   5.521 -0.0424  0.0462 -0.1107
 2030TIP3    H1 6054   3.486   5.893   5.571  0.4970  1.1113  0.6651
 2030TIP3    H2 6055   3.492   6.027   5.501 -0.6992  0.3840 -0.8753
 2031TIP3   OH2 6056   1.111   6.338   2.183  0.5154  0.5983  0.1044
 2031TIP3    H1 6057   1.068   6.372   2.105  0.4422  1.4941  0.5233
 2031TIP3    H2 6058   1.192   6.299   2.151 -0.4989 -0.9759 -0.6784
 2032TIP3   OH2 6059   2.659   3.176   5.580  0.1781  0.3353  0.3057
 2032TIP3    H1 6060   2.688   3.111   5.516 -0.9013  0.8647 -0.7644
 2032TIP3    H2 6061   2.663   3.131   5.664  0.4736 -0.7703 -0.2835
 2033TIP3   OH2 6062   6.128   4.269   4.966 -0.2148 -0.5279 -0.2225
 2033TIP3    H1 6063   6.198   4.266   4.900  0.0687 -0.8725  0.0859
 2033TIP3    H2 6064   6.074   4.192   4.948  0.7592 -1.5253  0.8947
 2034TIP3   OH2 6065   1.135   3.941   0.442  0.1116  0.2931 -0.0329
 2034TIP3    H1 6066   1.132   3.905   0.353 -0.7097 -2.8924  1.1724
 2034TIP3    H2 6067   1.215   3.904   0.479 -0.5902 -0.0616  1.1698
 2035TIP3   OH2 6068   6.993   5.104   1.286  0.0785 -0.5768  0.1817
 2035TIP3    H1 6069   6.971   5.136   1.199  1.5761 -0.4553 -0.1773
 2035TIP3    H2 6070   7.023   5.014   1.272 -0.0878 -0.7026  0.6236
 2036TIP3   OH2 6071   2.923   6.278   5.238 -0.2650  0.0043  0.1648
 2036TIP3    H1 6072   2.938   6.306   5.148  0.2817 -1.4254 -0.2240
 2036TIP3    H2 6073   2.996   6.313   5.288 -0.6797  0.9779  0.1053
 2037TIP3   OH2 6074   4.566   1.795   5.726 -0.1355 -0.1078 -0.6120
 2037TIP3    H1 6075   4.596   1.851   5.799  1.4633 -0.7496 -0.7296
 2037TIP3    H2 6076   4.632   1.725   5.721  0.3344  0.4117 -3.2491
 2038TIP3   OH2 6077   0.071   4.302   4.722 -0.1405 -0.2454  0.1304
 2038TIP3    H1 6078   0.051   4.223   4.772 -1.9918 -0.1780 -0.4050
 2038TIP3    H2 6079  -0.013   4.326   4.682  0.0646  2.6336  1.1888
 2039TIP3   OH2 6080   2.331   4.107   1.655 -0.3731  0.0808  0.1813
 2039TIP3    H1 6081   2.378   4.135   1.576  0.4271  2.0392  1.2747
 2039TIP3    H2 6082   2.242   4.141   1.642 -0.7778 -1.2221 -0.6594
 2040TIP3   OH2 6083   6.521   5.604   0.418  0.5188  0.3445 -0.3028
 2040TIP3    H1 6084   6.607   5.576   0.450 -0.0671 -0.6831  0.4507
 2040TIP3    H2 6085   6.515   5.569   0.329  1.8318  2.5142 -1.3134
 2041TIP3   OH2 6086   4.576   0.971   5.392  0.3226  0.0235  0.1269
 2041TIP3    H1 6087   4.582   0.931   5.479  3.0959  0.2471  0.1192
 2041TIP3    H2 6088   4.542   0.901   5.336 -0.1912 -0.5566  1.1292
 2042TIP3   OH2 6089   1.027   5.525   4.813 -0.0270 -0.1240  0.0515
 2042TIP3    H1 6090   0.954   5.583   4.836  0.6184  1.5022 -1.7308
 2042TIP3    H2 6091   1.090   5.582   4.769  1.4868 -1.8613 -0.1470
 2043TIP3   OH2 6092   3.284   5.711   5.400  0.0884  0.2378  0.3582
 2043TIP3    H1 6093   3.320   5.714   5.311  1.3820 -2.1708  0.7357
 2043TIP3    H2 6094   3.335   5.776   5.448 -0.8239  1.7850 -0.6755
 2044TIP3   OH2 6095   3.618   0.840   0.362  0.0007 -0.1427 -0.1969
 2044TIP3    H1 6096   3.632   0.849   0.456  2.2696  1.0779 -0.6036
 2044TIP3    H2 6097   3.595   0.747   0.351  0.0589 -0.3989  1.5020
 2045TIP3   OH2 6098   4.772   2.038   5.752 -0.2711 -0.0353  0.2704
 2045TIP3    H1 6099   4.732   2.099   5.690 -0.9177 -0.5343  0.1856
 2045TIP3    H2 6100   4.755   2.075   5.838  1.5824  1.2426  0.1548
 2046TIP3   OH2 6101   0.105   5.234   3.298  0.0681 -0.0853  0.1350
 2046TIP3    H1 6102   0.140   5.161   3.246  2.6412 -0.0689  1.6421
 2046TIP3    H2 6103   0.070   5.295   3.233 -1.7992 -2.4059 -1.1945
 2047TIP3   OH2 6104   0.573   4.439   2.563  0.0279 -0.0763 -0.2987
 2047TIP3    H1 6105   0.494   4.466   2.514  0.2194  0.3887 -0.3587
 2047TIP3    H2 6106   0.556   4.348   2.587 -2.0879  0.9560  2.7405
 2048TIP3   OH2 6107   3.219   4.277   0.330  0.4841 -0.1403 -0.6137
 2048TIP3    H1 6108   3.277   4.281   0.406 -0.7410 -3.0466  0.6489
 2048TIP3    H2 6109   3.189   4.367   0.318 -0.0562  0.3414  3.0461
 2049TIP3   OH2 6110   4.751   4.432   2.618  0.2774 -0.2562 -0.6598
 2049TIP3    H1 6111   4.825   4.491   2.623 -0.4647  0.6342  0.5057
 2049TIP3    H2 6112   4.766   4.368   2.689 -0.3506  0.3073  0.0037
 2050TIP3   OH2 6113   4.062   3.944   1.396 -0.1911  0.3245 -0.2553
 2050TIP3    H1 6114   4.032   3.918   1.308 -1.8940  2.5964 -0.4560
 2050TIP3    H2 6115   4.039   4.037   1.402 -0.4220  0.1682  2.7248
 2051TIP3   OH2 6116   3.040   2.476   0.993 -0.2921 -0.4163 -0.5012
 2051TIP3    H1 6117   3.019   2.409   0.928  1.0268 -2.0377  0.6573
 2051TIP3    H2 6118   3.135   2.486   0.988 -0.1065 -0.8767  1.4114
 2052TIP3   OH2 6119   6.826   5.180   2.647  0.4513 -0.2137 -0.1439
 2052TIP3    H1 6120   6.912   5.190   2.688  0.8346  0.0586 -0.9968
 2052TIP3    H2 6121   6.829   5.236   2.570 -0.3101 -0.6112 -0.4784
 2053TIP3   OH2 6122   1.313   3.198   1.608 -0.7143  0.2019 -0.1993
 2053TIP3    H1 6123   1.309   3.103   1.597 -1.7860  0.1677  0.4122
 2053TIP3    H2 6124   1.331   3.231   1.520  1.4083 -0.6394 -0.1395
 2054TIP3   OH2 6125   2.562   4.247   1.427  0.3746 -0.1377  0.2047
 2054TIP3    H1 6126   2.501   4.316   1.402 -0.0714  0.1707  2.0055
 2054TIP3    H2 6127   2.544   4.175   1.366 -0.0004  0.8777 -0.9029
 2055TIP3   OH2 6128   6.086   3.160   0.126 -0.2460  0.7422  0.3935
 2055TIP3    H1 6129   6.007   3.107   0.119  2.0267 -2.9815  0.3819
 2055TIP3    H2 6130   6.108   3.159   0.220  0.4995  0.5583  0.2256
 2056TIP3   OH2 6131   1.145   6.696   1.068  0.0410  0.1589 -0.1628
 2056TIP3    H1 6132   1.067   6.672   1.118  0.9178 -0.3880  0.9822
 2056TIP3    H2 6133   1.196   6.616   1.063  1.1062  0.8000  0.1656
 2057TIP3   OH2 6134   0.389   0.505   4.087  0.0473 -0.0743 -0.6721
 2057TIP3    H1 6135   0.427   0.421   4.060  0.3077 -0.4003  0.6485
 2057TIP3    H2 6136   0.399   0.561   4.010  1.1640 -0.8287 -1.1150
 2058TIP3   OH2 6137   5.935   0.246   2.789 -0.2371 -0.5333  0.4454
 2058TIP3    H1 6138   5.852   0.202   2.805 -0.7353 -0.4128 -1.4961
 2058TIP3    H2 6139   6.002   0.182   2.815 -0.9339 -1.0501  0.9984
 2059TIP3   OH2 6140   5.413   4.361   3.762 -0.2805 -0.0164  0.4089
 2059TIP3    H1 6141   5.321   4.373   3.737 -0.6984 -0.0893  1.8150
 2059TIP3    H2 6142   5.462   4.413   3.698 -1.3588  0.6567  0.0957
 2060TIP3   OH2 6143   6.382   2.068   0.887 -0.4167  0.7158 -0.3075
 2060TIP3    H1 6144   6.376   1.990   0.832  0.3793  1.0375 -0.8715
 2060TIP3    H2 6145   6.469   2.063   0.927  0.6374  2.4136 -2.1288
 2061TIP3   OH2 6146   3.972   6.153   2.016  0.1579  0.3588 -0.2619
 2061TIP3    H1 6147   3.983   6.059   2.027 -0.9747  0.1837 -0.4683
 2061TIP3    H2 6148   3.957   6.186   2.104  1.9814  0.5716 -0.0058
 2062TIP3   OH2 6149   0.241   1.689   0.723  0.1189  0.3193  0.0160
 2062TIP3    H1 6150   0.185   1.741   0.665 -1.8972 -2.4438 -0.7244
 2062TIP3    H2 6151   0.182   1.622   0.758  2.5709 -1.5107  0.8575
 2063TIP3   OH2 6152   0.707   3.199   3.807  0.0378  0.0822 -0.3623
 2063TIP3    H1 6153   0.782   3.234   3.758  0.1363 -0.1228 -0.3619
 2063TIP3    H2 6154   0.746   3.152   3.881 -0.1827  2.9527  1.7241
 2064TIP3   OH2 6155   5.144   5.555   1.797 -0.3209  0.5983 -0.9185
 2064TIP3    H1 6156   5.139   5.487   1.730  3.2763 -0.2066 -0.5915
 2064TIP3    H2 6157   5.105   5.515   1.875  0.8016 -0.7467 -1.0168
 2065TIP3   OH2 6158   4.787   0.643   0.409  0.3463 -0.4044  0.0031
 2065TIP3    H1 6159   4.872   0.609   0.381  1.5284  1.9165  0.5053
 2065TIP3    H2 6160   4.800   0.666   0.501  0.6223  3.8907 -0.9317
 2066TIP3   OH2 6161   6.797   2.836   3.815 -0.2279 -0.2441 -0.2986
 2066TIP3    H1 6162   6.724   2.856   3.757  0.0401 -2.3257 -1.4669
 2066TIP3    H2 6163   6.845   2.767   3.770  1.6878  0.1027  1.0786
 2067TIP3   OH2 6164   0.489   4.724   5.303 -0.4057 -0.7146  0.3358
 2067TIP3    H1 6165   0.460   4.776   5.379  2.2295  0.9592  0.3343
 2067TIP3    H2 6166   0.424   4.743   5.236 -1.3245 -0.0604  1.3590
 2068TIP3   OH2 6167   5.708   1.894   3.581  0.7548 -0.1503  0.2879
 2068TIP3    H1 6168   5.744   1.878   3.668 -1.7314 -2.7046  0.9539
 2068TIP3    H2 6169   5.614   1.897   3.593  0.3208 -0.6553 -2.3342
 2069TIP3   OH2 6170   4.349   4.524   0.295 -0.4969  0.4745  0.6574
 2069TIP3    H1 6171   4.349   4.516   0.390  2.1384  0.5264  0.7274
 2069TIP3    H2 6172   4.369   4.617   0.279 -0.0485  0.2777  0.0591
 2070TIP3   OH2 6173   2.950   2.185   2.811  0.6244  0.2198  0.5502
 2070TIP3    H1 6174   2.990   2.150   2.731  0.7370 -0.7849  1.0342
 2070TIP3    H2 6175   2.913   2.269   2.784  0.7048 -0.0794 -0.5471
 2071TIP3   OH2 6176   1.894   5.790   5.139 -0.0848 -0.1953 -0.0520
 2071TIP3    H1 6177   1.929   5.868   5.181 -0.6068 -0.0312  0.0832
 2071TIP3    H2 6178   1.806   5.815   5.109 -0.2982 -0.7584  0.0856
 2072TIP3   OH2 6179   5.959   5.092   2.418  0.4133  0.0601 -0.0721
 2072TIP3    H1 6180   5.977   5.036   2.343 -1.9796 -2.2107  0.8837
 2072TIP3    H2 6181   6.041   5.093   2.468  1.2955 -0.3836 -1.4575
 2073TIP3   OH2 6182   2.608   2.420   3.214 -0.0855  0.1689  0.1127
 2073TIP3    H1 6183   2.622   2.514   3.225  1.4220 -0.2792  3.0383
 2073TIP3    H2 6184   2.691   2.388   3.179 -0.8930 -0.0234 -1.7206
 2074TIP3   OH2 6185   5.821   6.341   1.924 -0.7154  0.2211 -0.1217
 2074TIP3    H1 6186   5.853   6.372   1.840 -0.4530 -3.3498 -1.5138
 2074TIP3    H2 6187   5.736   6.301   1.904  0.6075 -3.2650  0.6031
 2075TIP3   OH2 6188   3.710   0.641   4.784  0.0913  0.1269  0.1840
 2075TIP3    H1 6189   3.622   0.672   4.807  0.0642  0.4313 -0.3200
 2075TIP3    H2 6190   3.747   0.711   4.731  0.5643 -0.0930  0.2229
 2076TIP3   OH2 6191   2.851   2.513   0.740 -0.4237  0.1020  0.7105
 2076TIP3    H1 6192   2.841   2.571   0.665  1.5370 -1.2343 -0.6793
 2076TIP3    H2 6193   2.768   2.467   0.746 -0.5844  0.1768 -0.6910
 2077TIP3   OH2 6194   6.431   2.426   3.099 -0.5370 -0.0226 -0.2005
 2077TIP3    H1 6195   6.347   2.401   3.063 -0.2304  0.9714 -1.6908
 2077TIP3    H2 6196   6.410   2.464   3.185 -1.4316 -1.0861  0.0720
 2078TIP3   OH2 6197   1.443   3.225   0.751  0.6029 -0.3116 -0.2730
 2078TIP3    H1 6198   1.362   3.179   0.729  0.5375 -0.7352  0.7902
 2078TIP3    H2 6199   1.422   3.317   0.737 -0.6352 -0.2545  1.5353
 2079TIP3   OH2 6200   1.715   0.815   3.082  0.4150  0.8760  0.1943
 2079TIP3    H1 6201   1.663   0.876   3.135  0.2936  0.3532  0.6896
 2079TIP3    H2 6202   1.657   0.790   3.010 -0.3722 -0.3703  1.2082
 2080TIP3   OH2 6203   3.469   2.936   5.332  0.1446  0.2014 -0.2673
 2080TIP3    H1 6204   3.504   3.007   5.386  2.3422  1.1883 -2.7981
 2080TIP3    H2 6205   3.374   2.948   5.336  0.1184  0.0833  3.3848
 2081TIP3   OH2 6206   6.341   4.625   3.770  0.3010  0.1047 -0.0709
 2081TIP3    H1 6207   6.304   4.638   3.857  0.7593 -1.1538  0.3302
 2081TIP3    H2 6208   6.371   4.535   3.770  0.5804  0.1814 -1.4424
 2082TIP3   OH2 6209   3.017   6.254   4.890  0.6590 -0.0005 -0.3900
 2082TIP3    H1 6210   2.970   6.175   4.916 -0.7185  0.9230  0.0315
 2082TIP3    H2 6211   3.097   6.253   4.943  0.9201 -1.3477 -0.7646
 2083TIP3   OH2 6212   3.832   3.419   0.474  0.1991 -0.0690  0.3062
 2083TIP3    H1 6213   3.778   3.453   0.402 -1.2017 -1.3788  0.6985
 2083TIP3    H2 6214   3.785   3.445   0.553  1.4393  0.8667  0.7606
 2084TIP3   OH2 6215   3.273   0.837   4.731  0.8165 -0.2293 -0.3407
 2084TIP3    H1 6216   3.353   0.815   4.780  0.6124 -0.5079 -0.1317
 2084TIP3    H2 6217   3.236   0.912   4.778  0.1693 -1.0205  0.4462
 2085TIP3   OH2 6218   0.241   1.847   5.205  0.1406  0.4218  0.9400
 2085TIP3    H1 6219   0.294   1.776   5.167  0.3315  1.1336 -0.1492
 2085TIP3    H2 6220   0.305   1.907   5.243  0.0733  0.7949  0.4744
 2086TIP3   OH2 6221   1.130   3.358   3.509  0.0253 -0.5026 -0.0294
 2086TIP3    H1 6222   1.223   3.339   3.511 -0.2661 -1.9851  1.0638
 2086TIP3    H2 6223   1.123   3.439   3.459  1.9714  0.1188  0.6202
 2087TIP3   OH2 6224   1.353   2.717   0.663 -0.0924 -0.1170  0.0422
 2087TIP3    H1 6225   1.400   2.667   0.730  1.8254 -0.7655 -1.6459
 2087TIP3    H2 6226   1.266   2.732   0.700  1.0399  0.0706  2.8714
 2088TIP3   OH2 6227   6.625   2.045   0.490 -0.3003 -0.4605  0.1714
 2088TIP3    H1 6228   6.690   1.989   0.449  1.6987  1.1370  0.9767
 2088TIP3    H2 6229   6.659   2.059   0.579 -2.8730 -1.2779  1.3878
 2089TIP3   OH2 6230   4.312   4.348   5.246  1.3285  0.2418 -0.3289
 2089TIP3    H1 6231   4.263   4.269   5.270  3.1273 -0.5587  0.9019
 2089TIP3    H2 6232   4.260   4.388   5.176 -0.5024 -1.1177  0.1871
 2090TIP3   OH2 6233   2.509   6.204   2.313 -0.6474 -0.1215 -0.1818
 2090TIP3    H1 6234   2.420   6.183   2.343 -0.2636 -2.4164 -0.4506
 2090TIP3    H2 6235   2.560   6.210   2.394 -0.9297  0.7497 -0.0531
 2091TIP3   OH2 6236   6.895   2.623   3.683 -0.0353 -0.3548  0.5822
 2091TIP3    H1 6237   6.906   2.675   3.604  0.5838 -0.6142  0.4957
 2091TIP3    H2 6238   6.978   2.576   3.694 -0.6141 -1.4101  0.5917
 2092TIP3   OH2 6239   3.172   2.970   5.281  0.2498 -0.1082  0.2461
 2092TIP3    H1 6240   3.078   2.980   5.267 -0.1236 -3.9433 -1.2819
 2092TIP3    H2 6241   3.208   2.955   5.194  1.8737 -1.0095  1.0246
 2093TIP3   OH2 6242   0.833   5.271   1.427  0.1965  0.0694 -0.5168
 2093TIP3    H1 6243   0.894   5.343   1.407  0.6307 -0.3733 -0.8023
 2093TIP3    H2 6244   0.802   5.242   1.341  0.5736 -0.5594 -0.4404
 2094TIP3   OH2 6245   3.030   6.209   0.037 -0.1993  0.1823  0.5599
 2094TIP3    H1 6246   2.980   6.276  -0.010 -0.5807  0.2192  1.0172
 2094TIP3    H2 6247   3.119   6.217   0.001 -0.3583  0.5904  0.2470
 2095TIP3   OH2 6248   6.332   3.824   3.822 -0.5114 -0.4493  0.1288
 2095TIP3    H1 6249   6.306   3.753   3.763 -1.7432 -0.5933  0.8114
 2095TIP3    H2 6250   6.319   3.787   3.910  1.5724 -0.3528  0.5325
 2096TIP3   OH2 6251   0.754   4.660   2.069  0.4882  0.1442 -0.8278
 2096TIP3    H1 6252   0.736   4.567   2.052 -0.6240  0.1464  0.2092
 2096TIP3    H2 6253   0.695   4.683   2.141  2.0765  1.1684  0.2092
 2097TIP3   OH2 6254   5.992   4.645   3.988 -0.2030  0.0133 -0.2033
 2097TIP3    H1 6255   5.936   4.693   4.049 -1.0968  0.1056 -1.0684
 2097TIP3    H2 6256   5.976   4.553   4.008 -1.2803  0.0134 -0.9339
 2098TIP3   OH2 6257   5.138   3.132   4.642 -0.2753 -0.1983  0.0560
 2098TIP3    H1 6258   5.143   3.074   4.718  0.3141  1.0031  0.9585
 2098TIP3    H2 6259   5.229   3.151   4.619 -0.4154  1.9235  1.0293
 2099TIP3   OH2 6260   2.919   6.215   2.064  0.1067 -0.4552 -0.0777
 2099TIP3    H1 6261   2.884   6.247   2.147 -0.5866 -1.3039 -0.0450
 2099TIP3    H2 6262   2.855   6.242   1.998  0.4492 -0.1556 -0.3011
 2100TIP3   OH2 6263   3.945   2.758   3.537  0.3374  0.3406  0.2468
 2100TIP3    H1 6264   4.002   2.714   3.474  0.6588  0.5252  0.4071
 2100TIP3    H2 6265   3.887   2.811   3.483  1.1294  1.1165  0.1270
 2101TIP3   OH2 6266   6.746   5.244   3.543  0.0098 -0.0714  0.2841
 2101TIP3    H1 6267   6.710   5.167   3.586 -0.3429  0.6208  1.2555
 2101TIP3    H2 6268   6.839   5.242   3.562  0.3744 -1.2994 -1.3563
 2102TIP3   OH2 6269   3.497   0.785   3.765  0.3485  0.2893  0.3583
 2102TIP3    H1 6270   3.578   0.788   3.716 -1.1002 -2.6111 -2.6156
 2102TIP3    H2 6271   3.514   0.723   3.836  0.9484  0.2778  0.2084
 2103TIP3   OH2 6272   5.388   1.317   5.468  0.2479 -0.1003 -0.3907
 2103TIP3    H1 6273   5.432   1.369   5.401  0.2970  1.7246  1.0099
 2103TIP3    H2 6274   5.350   1.244   5.419 -1.2638  2.0845 -2.7396
 2104TIP3   OH2 6275   2.982   3.340   4.936 -0.3015 -0.3394  0.2760
 2104TIP3    H1 6276   3.058   3.389   4.904 -0.0810 -0.2829  0.8900
 2104TIP3    H2 6277   2.915   3.407   4.949 -0.3861 -0.3597 -0.0308
 2105TIP3   OH2 6278   4.086   3.769   3.746 -0.0389 -1.0063  0.0931
 2105TIP3    H1 6279   4.139   3.838   3.788 -1.2378 -0.4029  0.6602
 2105TIP3    H2 6280   4.150   3.704   3.717  1.0001 -0.3819  0.9193
 2106TIP3   OH2 6281   0.371   2.779   3.904  0.1495 -0.3293  0.2533
 2106TIP3    H1 6282   0.283   2.766   3.939  0.3434 -2.1707  0.1625
 2106TIP3    H2 6283   0.429   2.757   3.976  0.5248 -1.4610 -0.3638
 2107TIP3   OH2 6284   2.784   4.256   1.611  0.1125 -0.2529 -0.3855
 2107TIP3    H1 6285   2.723   4.237   1.540 -0.7296 -0.5415  0.3857
 2107TIP3    H2 6286   2.871   4.250   1.572 -0.3396 -0.3637 -1.3853
 2108TIP3   OH2 6287   3.440   2.841   2.340  0.1871  0.0261 -0.0172
 2108TIP3    H1 6288   3.347   2.824   2.324  0.2579  0.3751 -0.8068
 2108TIP3    H2 6289   3.444   2.861   2.434 -1.2038  3.9845 -0.6205
 2109TIP3   OH2 6290   0.262   2.208   4.094  0.0964  0.8405 -0.4674
 2109TIP3    H1 6291   0.321   2.251   4.155 -0.8856  1.7447 -0.1364
 2109TIP3    H2 6292   0.316   2.187   4.018  1.0746  0.6939  0.2653
 2110TIP3   OH2 6293   0.723   4.897   2.486 -0.2988  0.2670 -0.1070
 2110TIP3    H1 6294   0.775   4.818   2.493  1.3136  1.1502 -1.3990
 2110TIP3    H2 6295   0.780   4.967   2.517 -0.7890  1.2258 -1.2729
 2111TIP3   OH2 6296   1.122   1.381   2.189  0.0321  0.3658  0.1385
 2111TIP3    H1 6297   1.049   1.341   2.237 -0.7433  1.1707 -0.3573
 2111TIP3    H2 6298   1.191   1.392   2.255  0.3285 -1.8472  0.2880
 2112TIP3   OH2 6299   5.365   5.198   1.505 -0.1264  0.2337  0.1208
 2112TIP3    H1 6300   5.275   5.168   1.507 -0.2527  0.4898 -1.1927
 2112TIP3    H2 6301   5.414   5.128   1.461  0.5442 -0.4188  1.8101
 2113TIP3   OH2 6302   6.515   1.421   3.277  0.2252 -0.0109  0.5031
 2113TIP3    H1 6303   6.481   1.338   3.245 -0.7360  0.6000 -0.1054
 2113TIP3    H2 6304   6.608   1.420   3.252  0.1036 -0.6789  0.0515
 2114TIP3   OH2 6305   1.277   3.622   4.450 -0.0616 -0.3918  0.2255
 2114TIP3    H1 6306   1.286   3.537   4.493  0.1309  0.3531  1.7056
 2114TIP3    H2 6307   1.339   3.679   4.496  0.5016  0.3333 -1.3624
 2115TIP3   OH2 6308   2.784   5.821   0.392  0.1390 -0.0803  0.2420
 2115TIP3    H1 6309   2.748   5.734   0.375 -0.9568  0.3052  0.4996
 2115TIP3    H2 6310   2.751   5.875   0.320  0.1061  0.3066  0.5419
 2116TIP3   OH2 6311   4.685   6.614   0.054 -0.2560  0.2061  0.3230
 2116TIP3    H1 6312   4.747   6.684   0.032  0.7894 -0.7832  0.0011
 2116TIP3    H2 6313   4.651   6.638   0.140 -0.7527  1.6580 -0.2445
 2117TIP3   OH2 6314   0.373   4.365   2.791 -0.0689  0.3716  0.3935
 2117TIP3    H1 6315   0.411   4.280   2.812 -1.2962  0.2995  2.6592
 2117TIP3    H2 6316   0.348   4.359   2.699  2.1918 -0.7610 -0.2012
 2118TIP3   OH2 6317   1.055   2.972   2.408  0.0022 -0.1946  0.6324
 2118TIP3    H1 6318   1.082   3.043   2.349 -0.8108 -1.3080 -1.1373
 2118TIP3    H2 6319   0.982   3.009   2.457  0.8490  0.8341  1.1607
 2119TIP3   OH2 6320   2.279   3.715   4.849  0.3922  0.0860  0.3465
 2119TIP3    H1 6321   2.349   3.781   4.849  0.1467  0.4296 -1.9305
 2119TIP3    H2 6322   2.320   3.637   4.886  1.5496  0.7065  0.4274
 2120TIP3   OH2 6323   0.302   0.743   1.021  0.0973 -0.2779  0.4402
 2120TIP3    H1 6324   0.320   0.821   1.074 -0.9575  0.9808 -0.9283
 2120TIP3    H2 6325   0.252   0.686   1.078 -0.6386  0.8392  0.9493
 2121TIP3   OH2 6326   2.445   2.005   2.575 -0.1629  0.3153 -0.5008
 2121TIP3    H1 6327   2.457   1.942   2.647  0.6674  0.1309 -0.7845
 2121TIP3    H2 6328   2.455   1.952   2.496 -2.7556  0.1728 -0.8275
 2122TIP3   OH2 6329   1.409   3.741   3.006 -0.0084  0.2116 -0.2632
 2122TIP3    H1 6330   1.484   3.787   3.045  0.0817  0.6137 -0.8776
 2122TIP3    H2 6331   1.334   3.769   3.057  0.2379 -0.0605  0.2527
 2123TIP3   OH2 6332   2.739   2.253   5.147 -0.0539 -0.3229  0.6647
 2123TIP3    H1 6333   2.828   2.239   5.178  0.6124  0.1435 -0.8975
 2123TIP3    H2 6334   2.726   2.185   5.080 -1.5634 -1.5433  2.1327
 2124TIP3   OH2 6335   3.635   5.416   4.284  0.1629 -0.2602  0.0518
 2124TIP3    H1 6336   3.557   5.432   4.230 -0.1744  1.7621  1.0296
 2124TIP3    H2 6337   3.706   5.459   4.236  0.1520  0.2042  0.4460
 2125TIP3   OH2 6338   3.860   6.141   1.172  0.1155 -0.1532 -0.1522
 2125TIP3    H1 6339   3.945   6.155   1.215  0.1185  0.1735 -0.2575
 2125TIP3    H2 6340   3.805   6.212   1.204 -0.9154 -1.7799  1.8722
 2126TIP3   OH2 6341   2.798   2.610   1.034  0.0698 -0.1282  0.5047
 2126TIP3    H1 6342   2.866   2.549   1.006 -0.6747 -0.1060 -1.4973
 2126TIP3    H2 6343   2.846   2.679   1.081  1.6069  0.4357 -1.7374
 2127TIP3   OH2 6344   1.812   1.598   1.354  0.5122 -0.4567 -0.0789
 2127TIP3    H1 6345   1.746   1.533   1.329  2.2127 -1.8165 -1.2420
 2127TIP3    H2 6346   1.818   1.656   1.279 -0.0972  0.3237  0.4581
 2128TIP3   OH2 6347   6.750   1.745   2.215 -0.7797  0.0060  0.0773
 2128TIP3    H1 6348   6.685   1.674   2.215 -2.1065  1.1172 -1.5042
 2128TIP3    H2 6349   6.719   1.806   2.281  0.1333 -0.6599  1.1477
 2129TIP3   OH2 6350   3.915   3.980   4.464 -0.1830  0.1376  0.0010
 2129TIP3    H1 6351   3.851   4.032   4.513 -0.5033 -1.0481  0.8982
 2129TIP3    H2 6352   3.892   3.889   4.484  0.7534 -0.3440 -1.0129
 2130TIP3   OH2 6353   6.744   4.066   0.212 -0.2403 -0.2607 -0.2918
 2130TIP3    H1 6354   6.795   4.116   0.276 -1.8638  0.2126  0.6971
 2130TIP3    H2 6355   6.708   4.132   0.153 -1.5682 -0.3251  0.4118
 2131TIP3   OH2 6356   6.763   6.222   3.423  0.2863 -0.1381  0.4592
 2131TIP3    H1 6357   6.707   6.247   3.497 -1.1616  0.5889 -0.8142
 2131TIP3    H2 6358   6.780   6.129   3.436 -0.3411 -0.1299  1.4538
 2132TIP3   OH2 6359   0.065   4.065   1.778  0.3828  0.1713  0.0352
 2132TIP3    H1 6360   0.142   4.021   1.815 -1.1469 -1.6980  1.2327
 2132TIP3    H2 6361   0.067   4.153   1.815  1.7160  0.0244  0.3694
 2133TIP3   OH2 6362   5.800   0.501   0.826  0.1591  0.2011 -0.1901
 2133TIP3    H1 6363   5.831   0.567   0.889  0.8186  1.2291 -1.5231
 2133TIP3    H2 6364   5.879   0.478   0.777 -0.1414 -1.3591  0.0253
 2134TIP3   OH2 6365   3.331   6.747   4.564  0.5303 -0.3435 -0.2403
 2134TIP3    H1 6366   3.302   6.687   4.495 -1.1910 -0.1159  0.2365
 2134TIP3    H2 6367   3.256   6.754   4.622  2.0180 -0.7316  1.8378
 2135TIP3   OH2 6368   0.871   5.413   1.689  0.2185 -0.0159  0.9093
 2135TIP3    H1 6369   0.801   5.477   1.699 -1.3273 -1.6132  0.8335
 2135TIP3    H2 6370   0.854   5.372   1.604  1.9343  0.3105  0.3658
 2136TIP3   OH2 6371   1.729   0.590   4.264 -0.3385  0.5689  0.4081
 2136TIP3    H1 6372   1.659   0.653   4.252 -0.2994  0.1341 -2.8564
 2136TIP3    H2 6373   1.684   0.509   4.290 -0.9261  0.6083 -0.4676
 2137TIP3   OH2 6374   6.018   6.134   2.666  0.5143 -0.2225  0.1316
 2137TIP3    H1 6375   6.084   6.173   2.609  0.6183 -0.3188  0.1831
 2137TIP3    H2 6376   6.069   6.090   2.735  0.4381 -1.2728 -0.4553
 2138TIP3   OH2 6377   6.600   4.802   1.221  0.3882 -0.6668 -0.2567
 2138TIP3    H1 6378   6.517   4.754   1.225  0.2348 -0.4081 -0.2526
 2138TIP3    H2 6379   6.648   4.762   1.148 -0.3986  0.1952 -1.2870
 2139TIP3   OH2 6380   3.983   3.348   1.356  0.4386  0.4564  0.6761
 2139TIP3    H1 6381   4.067   3.374   1.392 -0.1965  2.3010  0.9494
 2139TIP3    H2 6382   3.921   3.414   1.388 -0.5625  0.9564 -1.9568
 2140TIP3   OH2 6383   2.181   6.124   4.877 -0.7177  0.6280  0.0784
 2140TIP3    H1 6384   2.142   6.185   4.814 -0.6851  0.7428  0.1699
 2140TIP3    H2 6385   2.176   6.170   4.961 -2.6706 -0.3434  0.5478
 2141TIP3   OH2 6386   4.740   6.368   1.164  0.2430 -0.1228 -0.7935
 2141TIP3    H1 6387   4.742   6.440   1.227  1.2048 -0.7112 -0.1161
 2141TIP3    H2 6388   4.731   6.410   1.079 -1.4608  0.6732 -0.2513
 2142TIP3   OH2 6389   2.112   6.591   3.475  0.6186  0.2965  0.1597
 2142TIP3    H1 6390   2.198   6.554   3.497  0.0007 -0.6341  1.0897
 2142TIP3    H2 6391   2.080   6.535   3.404  0.1333 -0.3242  0.8559
 2143TIP3   OH2 6392   2.863   0.385   0.932 -0.3237 -0.3754 -0.3305
 2143TIP3    H1 6393   2.862   0.292   0.906  1.0416 -0.5539  0.1725
 2143TIP3    H2 6394   2.902   0.430   0.857 -0.0759 -0.3494 -0.1882
 2144TIP3   OH2 6395   2.474   3.701   5.555  0.3438  0.3253  0.5249
 2144TIP3    H1 6396   2.406   3.697   5.621  1.7690  1.3013  2.1384
 2144TIP3    H2 6397   2.542   3.642   5.586  0.8193  0.3839 -0.3567
 2145TIP3   OH2 6398   2.167   2.391   4.272 -0.3478  0.1186 -0.4115
 2145TIP3    H1 6399   2.096   2.453   4.256 -0.2566  0.1543 -0.6862
 2145TIP3    H2 6400   2.144   2.314   4.220 -0.1676  0.1456 -0.5324
 2146TIP3   OH2 6401   3.508   6.044   4.244  0.3660  0.5135 -0.6992
 2146TIP3    H1 6402   3.529   6.112   4.309  0.4051  0.6466 -0.8486
 2146TIP3    H2 6403   3.581   6.049   4.182  0.9757 -0.4504 -0.0898
 2147TIP3   OH2 6404   4.105   4.488   4.583  0.1007  0.6110 -0.1708
 2147TIP3    H1 6405   4.158   4.532   4.517 -0.0829  0.8037 -0.1920
 2147TIP3    H2 6406   4.114   4.395   4.562  1.9563  0.4841  0.9793
 2148TIP3   OH2 6407   6.284   1.767   5.240  0.1190 -0.0223  0.1545
 2148TIP3    H1 6408   6.366   1.718   5.235 -2.0879 -4.1930  1.2037
 2148TIP3    H2 6409   6.288   1.812   5.325  1.0459 -0.6405  0.4532
 2149TIP3   OH2 6410   3.612   6.806   3.183 -0.2978 -0.3705  0.1962
 2149TIP3    H1 6411   3.680   6.743   3.206 -0.5204 -0.5575  0.3561
 2149TIP3    H2 6412   3.547   6.755   3.134  0.2413  0.0561 -0.9998
 2150TIP3   OH2 6413   2.142   1.983   3.991  0.1671 -0.0862  0.1496
 2150TIP3    H1 6414   2.077   2.050   4.013  0.6167  0.4853 -0.2346
 2150TIP3    H2 6415   2.225   2.018   4.024 -0.0510 -1.9793  2.9995
 2151TIP3   OH2 6416   7.178   2.710   1.758 -0.2058  0.0386  0.0830
 2151TIP3    H1 6417   7.184   2.617   1.739 -2.3747 -0.1171 -0.0549
 2151TIP3    H2 6418   7.085   2.726   1.775  0.2354  2.0130  0.9873
 2152TIP3   OH2 6419   3.406   6.431   0.153 -0.5197 -0.1332  0.3309
 2152TIP3    H1 6420   3.385   6.480   0.074  1.9432 -0.4536 -0.6324
 2152TIP3    H2 6421   3.417   6.498   0.221 -1.7099  0.2182  0.1954
 2153TIP3   OH2 6422   1.431   3.607   5.737 -0.4148  0.3967 -0.7357
 2153TIP3    H1 6423   1.372   3.544   5.697 -0.5979  0.7036 -0.9470
 2153TIP3    H2 6424   1.462   3.661   5.664  2.1202 -1.3479 -1.0698
 2154TIP3   OH2 6425   6.155   1.511   2.504 -0.4621 -0.3602 -0.2846
 2154TIP3    H1 6426   6.126   1.577   2.441 -3.8936  0.5743  1.9799
 2154TIP3    H2 6427   6.233   1.548   2.545 -0.8713  1.1138 -0.8003
 2155TIP3   OH2 6428   4.908   5.035   1.234  0.0812  0.5737 -0.5378
 2155TIP3    H1 6429   4.846   5.098   1.268 -1.1193 -1.1271  0.5812
 2155TIP3    H2 6430   4.857   4.954   1.223  2.2225 -1.1551  1.2786
 2156TIP3   OH2 6431   2.979   5.518   3.782 -0.8035  0.1861  0.2088
 2156TIP3    H1 6432   2.959   5.478   3.867  1.7505  0.3222  0.9491
 2156TIP3    H2 6433   2.959   5.611   3.795 -1.8928 -0.0269  0.1350
 2157TIP3   OH2 6434   0.889   4.291   1.482 -0.2767 -0.1344  0.2995
 2157TIP3    H1 6435   0.815   4.237   1.509 -1.1424 -0.2420 -2.0458
 2157TIP3    H2 6436   0.965   4.248   1.521 -1.1218 -2.0140  0.0155
 2158TIP3   OH2 6437   5.106   0.608   3.053  0.3426 -0.2078  0.2088
 2158TIP3    H1 6438   5.182   0.656   3.086  1.1109 -0.8053 -0.6425
 2158TIP3    H2 6439   5.143   0.526   3.018 -0.2610  0.7161 -2.9033
 2159TIP3   OH2 6440   6.885   4.134   4.801  0.0196 -0.4129  0.0188
 2159TIP3    H1 6441   6.848   4.194   4.865 -1.6506 -2.6014  1.2106
 2159TIP3    H2 6442   6.928   4.066   4.853  1.1498 -0.7504 -1.2756
 2160TIP3   OH2 6443   1.622   4.004   0.104  0.6737  0.0256 -0.2992
 2160TIP3    H1 6444   1.692   3.947   0.136  0.0150 -0.3950  0.4540
 2160TIP3    H2 6445   1.571   3.948   0.044  0.1552 -0.1262  0.2695
 2161TIP3   OH2 6446   3.021   1.124   3.503  0.4212  0.5559 -1.0164
 2161TIP3    H1 6447   3.039   1.215   3.481 -1.8351  0.8636 -1.9216
 2161TIP3    H2 6448   2.992   1.127   3.594  0.8573  0.6694 -0.8816
 2162TIP3   OH2 6449   5.682   0.791   5.529  0.1761  0.1017 -0.3573
 2162TIP3    H1 6450   5.605   0.845   5.548 -0.8760 -1.2695 -0.5945
 2162TIP3    H2 6451   5.688   0.730   5.602  1.7290  0.8835  0.2273
 2163TIP3   OH2 6452   6.617   4.254   1.820  0.0753 -0.1939  0.2541
 2163TIP3    H1 6453   6.674   4.242   1.896  0.6855 -0.5741 -0.2462
 2163TIP3    H2 6454   6.673   4.230   1.745 -1.2467 -2.2757 -0.1478
 2164TIP3   OH2 6455   3.398   2.180   3.078  0.5722 -0.2603 -0.1514
 2164TIP3    H1 6456   3.314   2.151   3.044  1.0167 -2.4321  0.4179
 2164TIP3    H2 6457   3.378   2.255   3.133 -1.1560 -1.3916  0.8390
 2165TIP3   OH2 6458   4.280   5.235   1.411  0.4072 -0.3581 -0.4844
 2165TIP3    H1 6459   4.373   5.248   1.429  0.8871 -0.4077 -2.6894
 2165TIP3    H2 6460   4.276   5.152   1.364 -0.9902 -1.2417  1.0832
 2166TIP3   OH2 6461   5.641   0.988   4.458 -0.5303 -0.1687  0.2105
 2166TIP3    H1 6462   5.707   0.958   4.396 -0.6589  1.0496 -0.5497
 2166TIP3    H2 6463   5.659   1.082   4.469 -1.4054 -0.0704  0.8889
 2167TIP3   OH2 6464   2.234   3.002   3.917 -0.1136 -0.2402 -0.1075
 2167TIP3    H1 6465   2.243   2.907   3.911  0.7111 -0.3117  1.7067
 2167TIP3    H2 6466   2.310   3.031   3.967  0.0126  1.4725 -1.2132
 2168TIP3   OH2 6467   2.130   2.011   0.617 -0.2008 -0.0171  0.1548
 2168TIP3    H1 6468   2.178   2.040   0.695 -1.4879 -1.1225  1.4129
 2168TIP3    H2 6469   2.158   1.921   0.604 -2.0505 -0.7751  1.0746
 2169TIP3   OH2 6470   2.951   6.481   5.041 -0.8886 -0.8556 -0.2303
 2169TIP3    H1 6471   3.034   6.465   4.995 -0.4838 -0.6591  0.4197
 2169TIP3    H2 6472   2.884   6.458   4.977 -0.3636  0.6565 -1.3826
 2170TIP3   OH2 6473   3.382   2.671   1.788 -0.0218 -0.2249 -0.1391
 2170TIP3    H1 6474   3.331   2.633   1.716  0.7752 -0.2408 -0.7029
 2170TIP3    H2 6475   3.473   2.667   1.758  0.4250 -1.1236  1.2677
 2171TIP3   OH2 6476   4.624   0.885   4.768 -0.4964  0.5558  0.3363
 2171TIP3    H1 6477   4.680   0.840   4.830  0.9472  0.0982 -1.2163
 2171TIP3    H2 6478   4.662   0.865   4.682 -3.1268  0.1135 -0.8281
 2172TIP3   OH2 6479   5.540   3.899   5.057 -1.0665 -0.3296  0.9112
 2172TIP3    H1 6480   5.526   3.819   5.006 -0.9513 -0.3447  0.9039
 2172TIP3    H2 6481   5.455   3.915   5.099 -0.8294 -0.9691  1.6517
 2173TIP3   OH2 6482   3.000   4.049   4.344 -0.5296  0.1591  0.0890
 2173TIP3    H1 6483   3.094   4.066   4.339 -0.2680 -0.9628  0.9899
 2173TIP3    H2 6484   2.961   4.119   4.292  0.8631 -0.0387 -1.2872
 2174TIP3   OH2 6485   4.394   2.902   2.681  0.2249  0.0989 -0.1766
 2174TIP3    H1 6486   4.337   2.947   2.619  2.2402  2.6548 -0.3824
 2174TIP3    H2 6487   4.481   2.939   2.664  1.3526 -1.2025  2.2572
 2175TIP3   OH2 6488   6.644   2.763   4.199  0.5863 -0.2064  0.1909
 2175TIP3    H1 6489   6.582   2.836   4.199 -1.3010 -1.5952  3.2864
 2175TIP3    H2 6490   6.704   2.783   4.271  0.4961 -1.3390  0.6008
 2176TIP3   OH2 6491   1.296   3.497   2.248 -0.1097  0.1643  0.3857
 2176TIP3    H1 6492   1.283   3.502   2.153  0.5096  1.0420  0.3341
 2176TIP3    H2 6493   1.371   3.555   2.265 -0.5100  0.3893  1.4624
 2177TIP3   OH2 6494   6.756   5.260   2.886 -0.1425 -0.1368 -0.5797
 2177TIP3    H1 6495   6.788   5.228   2.802 -1.2502 -3.0680 -0.0171
 2177TIP3    H2 6496   6.816   5.223   2.951 -0.5099  0.3181  0.0302
 2178TIP3   OH2 6497   2.499   0.144   1.680  0.3353 -0.3595  0.2323
 2178TIP3    H1 6498   2.564   0.211   1.659  0.7218 -0.0048  2.4031
 2178TIP3    H2 6499   2.422   0.169   1.628  0.9806  0.8764 -0.1672
 2179TIP3   OH2 6500   2.522   4.071   0.104  0.5123 -0.3515 -0.1108
 2179TIP3    H1 6501   2.468   4.071   0.183 -0.0899  1.3569 -0.4682
 2179TIP3    H2 6502   2.460   4.078   0.032  1.1430  0.7668 -0.5801
 2180TIP3   OH2 6503   2.286   2.191   5.457 -0.1768 -0.4130 -0.1041
 2180TIP3    H1 6504   2.292   2.251   5.382 -0.6390 -1.3380 -0.9007
 2180TIP3    H2 6505   2.370   2.145   5.457  0.1221  0.1177  0.4211
 2181TIP3   OH2 6506   4.846   0.915   1.076 -0.1682 -0.2956 -0.1627
 2181TIP3    H1 6507   4.808   0.840   1.031  1.4010  0.0074 -2.1363
 2181TIP3    H2 6508   4.812   0.991   1.029 -0.9038  0.2404  1.1558
 2182TIP3   OH2 6509   6.359   4.041   5.144 -0.0978  0.0086 -0.2478
 2182TIP3    H1 6510   6.363   4.100   5.219 -3.0210  0.5074 -0.3739
 2182TIP3    H2 6511   6.266   4.017   5.137  0.6678 -3.1539 -1.3409
 2183TIP3   OH2 6512   4.987   1.631   1.298  0.2166 -0.4230  0.0397
 2183TIP3    H1 6513   5.055   1.566   1.317 -0.6017 -1.1126  0.6497
 2183TIP3    H2 6514   5.033   1.715   1.306  0.9778 -0.8705  0.5781
 2184TIP3   OH2 6515   1.794   6.322   5.178  0.2752 -0.4317  0.4356
 2184TIP3    H1 6516   1.824   6.345   5.267 -0.2434  0.0325  0.4976
 2184TIP3    H2 6517   1.828   6.392   5.123  0.1446 -0.4369  0.3492
 2185TIP3   OH2 6518   6.323   1.673   5.530  0.1011  0.0349 -0.2893
 2185TIP3    H1 6519   6.405   1.721   5.534 -0.5081  1.1572 -0.7530
 2185TIP3    H2 6520   6.348   1.584   5.506  1.2765  0.0249  0.8955
 2186TIP3   OH2 6521   6.416   6.225   2.947 -0.4504  0.3593  0.1065
 2186TIP3    H1 6522   6.378   6.169   3.014  2.0412 -1.8751 -0.2106
 2186TIP3    H2 6523   6.453   6.165   2.883  0.5968  2.4028 -1.3273
 2187TIP3   OH2 6524   1.197   5.650  -0.011  0.1633 -0.0440  0.0351
 2187TIP3    H1 6525   1.248   5.715   0.037  1.0260  1.3510 -2.5795
 2187TIP3    H2 6526   1.107   5.663   0.017  0.4688  1.6257  0.3102
 2188TIP3   OH2 6527   5.215   5.691   3.376 -0.1218  0.1765 -0.6064
 2188TIP3    H1 6528   5.195   5.774   3.332 -0.2049  1.1421  1.1531
 2188TIP3    H2 6529   5.187   5.705   3.466  1.4777 -1.1718  0.1457
 2189TIP3   OH2 6530   4.224   2.494   4.657 -0.6619  0.3561  0.1249
 2189TIP3    H1 6531   4.162   2.524   4.724 -0.5459  0.2218  0.2927
 2189TIP3    H2 6532   4.220   2.561   4.588 -1.1175  0.2650  0.0586
 2190TIP3   OH2 6533   0.890   5.844   1.308  0.2066  0.6029  0.0492
 2190TIP3    H1 6534   0.946   5.860   1.384  0.6447 -1.3316  0.1751
 2190TIP3    H2 6535   0.949   5.850   1.233  0.6105 -1.3409  0.1752
 2191TIP3   OH2 6536   2.914   4.442   0.975  0.3438 -0.1801  0.3968
 2191TIP3    H1 6537   2.856   4.517   0.985  2.0564  1.6668 -2.2576
 2191TIP3    H2 6538   2.929   4.435   0.881  3.2355 -1.4763  0.8449
 2192TIP3   OH2 6539   5.696   0.015   2.799  0.7407  0.4677 -0.2090
 2192TIP3    H1 6540   5.729  -0.058   2.747 -3.7599 -2.4791  0.5714
 2192TIP3    H2 6541   5.621   0.048   2.749 -1.7718 -0.3989  2.6969
 2193TIP3   OH2 6542   1.354   6.493   1.160 -0.0320 -0.0219  0.3291
 2193TIP3    H1 6543   1.411   6.567   1.178 -0.6747  0.4394  0.5206
 2193TIP3    H2 6544   1.398   6.445   1.090  1.3696 -0.5655  1.5218
 2194TIP3   OH2 6545   1.321   1.465   0.185  0.0989 -0.1588 -0.5001
 2194TIP3    H1 6546   1.279   1.506   0.261 -0.8836 -0.9604 -0.6017
 2194TIP3    H2 6547   1.414   1.466   0.207  0.1438  2.2203 -0.5501
 2195TIP3   OH2 6548   1.792   3.631   5.133 -0.5434  0.0766 -0.1171
 2195TIP3    H1 6549   1.738   3.708   5.151 -3.0060 -1.3225 -1.0649
 2195TIP3    H2 6550   1.881   3.658   5.156 -1.4766  2.8173  0.6153
 2196TIP3   OH2 6551   3.877   5.198   3.162  0.6353 -0.4959  0.1050
 2196TIP3    H1 6552   3.798   5.250   3.146  1.3235  0.1101 -1.5915
 2196TIP3    H2 6553   3.848   5.128   3.220 -1.0726 -0.1113 -0.2138
 2197TIP3   OH2 6554   0.451   6.659   4.027 -0.3417  0.1422 -0.4487
 2197TIP3    H1 6555   0.533   6.690   4.065 -0.3011  0.3417 -0.6966
 2197TIP3    H2 6556   0.442   6.569   4.060  1.0471 -0.6584 -2.0926
 2198TIP3   OH2 6557   5.656   6.450   4.048  0.1306  0.1699  0.2326
 2198TIP3    H1 6558   5.633   6.379   3.988  0.3528 -0.4924  0.9111
 2198TIP3    H2 6559   5.577   6.505   4.052  1.0091  1.9250 -2.9026
 2199TIP3   OH2 6560   2.040   4.268   2.555 -0.4348 -0.5984  0.1657
 2199TIP3    H1 6561   2.046   4.175   2.578 -1.6501 -0.7741 -0.1818
 2199TIP3    H2 6562   2.074   4.314   2.631  1.8093 -1.3565 -0.2922
 2200TIP3   OH2 6563   6.148   0.433   5.009 -0.0048 -0.5334  0.0684
 2200TIP3    H1 6564   6.081   0.492   5.042 -0.1232 -0.1102 -0.8978
 2200TIP3    H2 6565   6.227   0.457   5.059  0.7269  2.5039 -2.2563
 2201TIP3   OH2 6566   5.401   3.582   4.703  0.2556  0.6150  0.0986
 2201TIP3    H1 6567   5.383   3.488   4.700  0.4351  0.5744  0.3494
 2201TIP3    H2 6568   5.458   3.598   4.628 -1.5795  0.9071 -1.3263
 2202TIP3   OH2 6569   5.868   1.721   4.915 -0.1520  0.9268 -0.2242
 2202TIP3    H1 6570   5.800   1.687   4.974  0.3963  0.9282  0.4270
 2202TIP3    H2 6571   5.883   1.810   4.946  0.1893  0.9035 -0.3201
 2203TIP3   OH2 6572   6.399   3.036   0.341  0.0675  0.0106  0.2470
 2203TIP3    H1 6573   6.458   3.088   0.395 -0.1174  1.6874 -1.0949
 2203TIP3    H2 6574   6.311   3.066   0.366 -0.1222 -0.8207  0.6012
 2204TIP3   OH2 6575   0.712   1.021   1.527 -0.0226 -0.3023  0.1438
 2204TIP3    H1 6576   0.666   1.069   1.595 -0.8599 -1.0879  0.1459
 2204TIP3    H2 6577   0.669   1.045   1.446  0.3458 -0.1128  0.0028
 2205TIP3   OH2 6578   0.535   4.757   3.162 -0.5746  0.0090  0.3092
 2205TIP3    H1 6579   0.570   4.705   3.089 -0.1330 -0.9372  1.1840
 2205TIP3    H2 6580   0.485   4.695   3.214  1.9345 -0.1409  2.7106
 2206TIP3   OH2 6581   3.142   0.648   4.282 -0.0861 -0.0447 -0.1043
 2206TIP3    H1 6582   3.190   0.565   4.277  0.0639  0.1087 -1.8123
 2206TIP3    H2 6583   3.207   0.715   4.259 -0.4316  0.4665  0.3695
 2207TIP3   OH2 6584   1.217   5.804   2.711 -0.6102  0.4190 -0.4525
 2207TIP3    H1 6585   1.214   5.899   2.703 -0.4196  0.2822 -2.5696
 2207TIP3    H2 6586   1.136   5.774   2.670 -0.5543 -0.3530 -0.0182
 2208TIP3   OH2 6587   4.167   0.741   3.518  0.6451 -0.0362 -0.1369
 2208TIP3    H1 6588   4.243   0.689   3.546  0.3255 -0.1779  0.4994
 2208TIP3    H2 6589   4.202   0.802   3.453  1.1762 -0.5289 -0.3230
 2209TIP3   OH2 6590   3.066   6.646   3.889  0.2092 -0.8440 -0.3874
 2209TIP3    H1 6591   3.079   6.684   3.976 -1.1417  0.2908 -0.6284
 2209TIP3    H2 6592   3.021   6.715   3.840  2.3521 -0.8318 -2.5218
 2210TIP3   OH2 6593   6.068   6.428   0.058  0.2737 -0.1302 -0.0340
 2210TIP3    H1 6594   6.046   6.346   0.102 -1.8497  0.7021  0.5765
 2210TIP3    H2 6595   6.092   6.488   0.128  1.0065  0.0233 -0.4043
 2211TIP3   OH2 6596   5.154   3.534   2.649 -0.0876 -0.5376 -0.0491
 2211TIP3    H1 6597   5.082   3.556   2.590 -0.7427  0.7152  1.1471
 2211TIP3    H2 6598   5.127   3.453   2.691 -0.1465 -0.8105 -0.5987
 2212TIP3   OH2 6599   0.240   2.676   0.928  0.0643 -0.3072 -0.2201
 2212TIP3    H1 6600   0.211   2.755   0.974  0.4345  0.0012 -0.5088
 2212TIP3    H2 6601   0.244   2.609   0.996  0.2454  0.0525  0.1300
 2213TIP3   OH2 6602   4.623   3.532   0.821  0.0446 -0.4664 -0.4956
 2213TIP3    H1 6603   4.558   3.512   0.888  1.4330  0.6785  1.3191
 2213TIP3    H2 6604   4.639   3.626   0.831  1.1220 -0.5043 -1.6613
 2214TIP3   OH2 6605   0.292   5.951   4.387  0.1328  0.3221 -0.0670
 2214TIP3    H1 6606   0.240   5.926   4.311  1.5004 -1.6668 -0.4454
 2214TIP3    H2 6607   0.302   5.870   4.437  0.8292  1.1796  1.2585
 2215TIP3   OH2 6608   0.822   1.032   4.210 -0.4813  0.1809  0.6464
 2215TIP3    H1 6609   0.763   1.013   4.137 -0.9165  0.2038  0.9906
 2215TIP3    H2 6610   0.827   0.950   4.259  0.8738 -0.2418 -0.1433
 2216TIP3   OH2 6611   3.983   2.873   5.002  0.1197 -0.1135  0.2869
 2216TIP3    H1 6612   4.019   2.961   4.998  0.6779 -0.1792  2.5360
 2216TIP3    H2 6613   3.960   2.861   5.094  1.3929 -2.8226  0.3428
 2217TIP3   OH2 6614   3.769   2.499   1.880  0.8228  0.4886 -0.4849
 2217TIP3    H1 6615   3.820   2.572   1.915 -0.0939  1.8561 -1.8824
 2217TIP3    H2 6616   3.811   2.421   1.917  2.1645  1.6751  0.6304
 2218TIP3   OH2 6617   6.120   3.114   0.388  0.5951 -0.2177 -0.1283
 2218TIP3    H1 6618   6.068   3.035   0.400  0.9012 -0.3241  0.5390
 2218TIP3    H2 6619   6.122   3.155   0.474 -0.7389  1.2594 -0.7654
 2219TIP3   OH2 6620   3.692   1.314   4.626  0.1838 -0.1398 -0.3618
 2219TIP3    H1 6621   3.605   1.284   4.653 -0.0548  1.5727  1.0410
 2219TIP3    H2 6622   3.682   1.338   4.534 -0.3963 -1.3946 -0.6436
 2220TIP3   OH2 6623   4.036   4.807   5.144  0.1351 -0.8811 -0.0164
 2220TIP3    H1 6624   3.956   4.757   5.129 -1.0193  0.8077  0.2479
 2220TIP3    H2 6625   4.011   4.875   5.206  1.7276 -0.1840 -0.0900
 2221TIP3   OH2 6626   6.915   1.169   0.765 -0.0185 -0.3451  0.3116
 2221TIP3    H1 6627   6.999   1.145   0.725 -1.4152 -2.0931 -1.8436
 2221TIP3    H2 6628   6.866   1.210   0.694 -1.4970 -0.6539  1.1144
 2222TIP3   OH2 6629   3.235   5.689   5.085  0.6901 -0.4777 -0.0076
 2222TIP3    H1 6630   3.229   5.711   4.993  1.0735  0.2899  0.1421
 2222TIP3    H2 6631   3.228   5.773   5.131 -0.6986 -0.9662  0.7256
 2223TIP3   OH2 6632   3.334   0.891   0.698 -0.7162 -0.1961 -1.0351
 2223TIP3    H1 6633   3.243   0.912   0.676 -0.7549 -0.9503 -1.6786
 2223TIP3    H2 6634   3.329   0.806   0.740 -0.2892 -0.3613 -1.3108
 2224TIP3   OH2 6635   5.974   3.167   5.552  0.0823 -0.2127 -0.2661
 2224TIP3    H1 6636   5.940   3.235   5.611 -3.2377 -1.5670 -0.4351
 2224TIP3    H2 6637   5.995   3.094   5.610 -0.8677 -0.6731 -0.4779
 2225TIP3   OH2 6638   1.870   2.020   1.153  0.1370 -0.5938 -0.0332
 2225TIP3    H1 6639   1.900   2.037   1.243 -1.3548 -1.2712  0.6340
 2225TIP3    H2 6640   1.945   1.979   1.110  0.3902 -1.7108  1.3880
 2226TIP3   OH2 6641   4.879   0.370   2.619 -0.0736  0.5164  0.3441
 2226TIP3    H1 6642   4.827   0.403   2.693  0.0925 -0.2584  0.8222
 2226TIP3    H2 6643   4.823   0.305   2.576  0.5234 -0.4483  0.9632
 2227TIP3   OH2 6644   4.005   2.357   3.415  0.2252  0.3963 -0.4351
 2227TIP3    H1 6645   3.966   2.276   3.381  0.5865  0.3247 -0.6835
 2227TIP3    H2 6646   4.046   2.331   3.497 -0.8713  0.6222  0.1998
 2228TIP3   OH2 6647   3.088   5.330   4.793 -0.2178 -0.3326 -0.4778
 2228TIP3    H1 6648   3.085   5.324   4.889 -0.8954  0.1289 -0.4590
 2228TIP3    H2 6649   3.108   5.241   4.764 -0.9654 -0.6967  0.0700
 2229TIP3   OH2 6650   6.710   2.611   2.736  0.0239 -0.8655  0.4282
 2229TIP3    H1 6651   6.639   2.549   2.724 -1.8133  0.9542  1.3147
 2229TIP3    H2 6652   6.789   2.557   2.734 -1.2585 -2.8660 -1.4273
 2230TIP3   OH2 6653   0.122   3.283   2.710  0.1087 -0.0774 -0.0953
 2230TIP3    H1 6654   0.139   3.223   2.783 -0.5859  0.3775  0.4534
 2230TIP3    H2 6655   0.188   3.260   2.645  0.2278 -1.0378  0.3417
 2231TIP3   OH2 6656   4.255   0.690   4.918  0.0114  0.3909  0.1482
 2231TIP3    H1 6657   4.324   0.629   4.892 -0.5131  0.0772 -0.5433
 2231TIP3    H2 6658   4.209   0.647   4.990 -0.9263 -0.4518 -0.9298
 2232TIP3   OH2 6659   1.832   6.317   2.914 -0.0298 -0.2524  0.5255
 2232TIP3    H1 6660   1.813   6.263   2.837  0.2122  1.6720 -0.9634
 2232TIP3    H2 6661   1.780   6.397   2.902  0.9863  0.6409  1.7026
 2233TIP3   OH2 6662   2.136   2.891   0.814  0.0109 -0.0138  0.1911
 2233TIP3    H1 6663   2.138   2.812   0.761  0.8941 -1.1793  1.8837
 2233TIP3    H2 6664   2.065   2.943   0.775  1.6730  0.0234 -3.1581
 2234TIP3   OH2 6665   1.945   1.610   4.837 -0.3650  0.1634 -0.0704
 2234TIP3    H1 6666   2.038   1.609   4.857 -0.0296 -3.4031 -1.1478
 2234TIP3    H2 6667   1.940   1.644   4.748 -0.1443  0.6955  0.1190
 2235TIP3   OH2 6668   4.261   4.015   0.030 -0.7611 -0.0509  0.0606
 2235TIP3    H1 6669   4.303   4.100   0.016 -0.2647  0.4480  3.5459
 2235TIP3    H2 6670   4.167   4.035   0.030 -0.6255  0.8045  1.9992
 2236TIP3   OH2 6671   5.513   2.596   4.902 -0.0847  0.0171 -0.2472
 2236TIP3    H1 6672   5.498   2.532   4.972  0.9874 -0.5589 -0.5332
 2236TIP3    H2 6673   5.589   2.564   4.855  0.3666  1.4077 -0.5212
 2237TIP3   OH2 6674   4.778   5.524   0.584  0.9078  0.8631  0.4550
 2237TIP3    H1 6675   4.694   5.483   0.607  1.1311  0.8150  1.2067
 2237TIP3    H2 6676   4.756   5.616   0.570  0.5208  0.6279 -0.5778
 2238TIP3   OH2 6677   6.016   6.069   1.435  0.4411  0.6298 -0.5903
 2238TIP3    H1 6678   6.085   6.098   1.494  0.5255 -0.0100 -0.3742
 2238TIP3    H2 6679   5.953   6.141   1.436  1.0256  1.1518 -0.6770
 2239TIP3   OH2 6680   6.335   4.750   5.235  0.0867  0.5030  0.1876
 2239TIP3    H1 6681   6.254   4.731   5.280 -0.0968  1.4726  0.2807
 2239TIP3    H2 6682   6.382   4.810   5.292  0.7703  0.1519  0.0219
 2240TIP3   OH2 6683   6.558   1.675   0.585 -0.5652 -0.4679 -0.0665
 2240TIP3    H1 6684   6.587   1.587   0.607 -1.9084 -0.7241  0.8160
 2240TIP3    H2 6685   6.637   1.721   0.557 -0.1414 -2.5090 -2.5149
 2241TIP3   OH2 6686   6.003   5.258   5.315  0.4046 -0.2324 -0.6182
 2241TIP3    H1 6687   6.020   5.201   5.240  0.9900 -1.2622  0.2588
 2241TIP3    H2 6688   6.001   5.346   5.279  1.8103 -0.5995 -1.6862
 2242TIP3   OH2 6689   2.301   0.398   2.953 -0.3338 -0.5297  0.5958
 2242TIP3    H1 6690   2.271   0.423   2.865  0.0147 -0.2638  0.5488
 2242TIP3    H2 6691   2.254   0.458   3.012  1.8589  1.5699  0.3678
 2243TIP3   OH2 6692   6.400   5.625   3.065  0.3544 -0.3427 -0.6705
 2243TIP3    H1 6693   6.443   5.703   3.031 -0.4058  0.0936 -0.6553
 2243TIP3    H2 6694   6.468   5.557   3.063  0.6370 -0.0510 -1.9927
 2244TIP3   OH2 6695   4.223   2.081   2.111  0.3741  0.3322  0.5614
 2244TIP3    H1 6696   4.201   2.137   2.036 -0.1317 -2.5265 -1.6155
 2244TIP3    H2 6697   4.318   2.070   2.106  0.1601 -1.1718 -0.7473
 2245TIP3   OH2 6698   0.628   0.972   4.041  0.1545  0.6773 -0.2244
 2245TIP3    H1 6699   0.566   1.028   4.087 -0.8316  0.6819 -1.4908
 2245TIP3    H2 6700   0.574   0.900   4.007  1.0698 -0.0085 -0.2661
 2246TIP3   OH2 6701   1.436   0.412   1.221  0.0690  0.2860 -0.0702
 2246TIP3    H1 6702   1.356   0.359   1.220  1.3027 -1.6508 -0.0053
 2246TIP3    H2 6703   1.411   0.492   1.268 -1.7917 -0.2995  0.0100
 2247TIP3   OH2 6704   1.295   0.791   5.636 -0.5969  1.0844  0.0741
 2247TIP3    H1 6705   1.318   0.864   5.694 -0.9788  3.2239 -2.2595
 2247TIP3    H2 6706   1.200   0.782   5.646 -0.1520 -2.4189  3.7991
 2248TIP3   OH2 6707   1.032   6.364   3.363  0.6948  0.4134  0.2395
 2248TIP3    H1 6708   1.070   6.381   3.449 -0.9484 -1.2074  1.3530
 2248TIP3    H2 6709   1.072   6.281   3.335  2.4189  1.6965 -1.3575
 2249TIP3   OH2 6710   1.011   1.707   2.248 -0.2430 -0.3378 -0.0116
 2249TIP3    H1 6711   1.006   1.794   2.210  2.2135  0.4035  1.1301
 2249TIP3    H2 6712   1.084   1.665   2.202  0.7833 -0.5169  1.7061
 2250TIP3   OH2 6713   0.745   5.017   2.883  0.5290 -0.1027 -0.4368
 2250TIP3    H1 6714   0.692   4.969   2.818  1.1345 -0.7351 -0.4707
 2250TIP3    H2 6715   0.835   4.990   2.865  0.8864  1.0532 -0.4508
 2251TIP3   OH2 6716   3.110   1.493   5.788  0.3317 -0.3569 -0.8133
 2251TIP3    H1 6717   3.169   1.477   5.862 -1.3528 -0.4023  0.5759
 2251TIP3    H2 6718   3.060   1.413   5.779  0.2402 -0.2052 -1.7826
 2252TIP3   OH2 6719   2.057   1.086   0.304 -0.5074 -0.1466 -0.1292
 2252TIP3    H1 6720   2.132   1.031   0.329 -0.1711 -0.3773 -1.5469
 2252TIP3    H2 6721   2.093   1.148   0.241 -0.8379  1.8928  1.5634
 2253TIP3   OH2 6722   0.276   4.492   2.038  0.0565 -0.0285  0.1233
 2253TIP3    H1 6723   0.186   4.510   2.065  0.7157  1.2321  1.6542
 2253TIP3    H2 6724   0.300   4.567   1.984  0.3696 -0.0478  0.2318
 2254TIP3   OH2 6725   5.607   3.467   1.437  0.4148 -0.1532  0.3125
 2254TIP3    H1 6726   5.539   3.433   1.495 -0.3258  1.2650  0.3376
 2254TIP3    H2 6727   5.592   3.562   1.436  3.4640  0.4740  1.6880
 2255TIP3   OH2 6728   0.818   1.915   3.689  0.2247  0.5356 -0.3696
 2255TIP3    H1 6729   0.827   1.989   3.629  1.8054 -1.3548 -2.6422
 2255TIP3    H2 6730   0.732   1.878   3.667 -1.0141  2.1570  1.4543
 2256TIP3   OH2 6731   3.851   2.708   2.128 -0.2289 -0.0783  0.1538
 2256TIP3    H1 6732   3.930   2.688   2.078 -0.7106  0.2540 -0.7612
 2256TIP3    H2 6733   3.822   2.623   2.162  0.2587 -0.2672  0.1094
 2257TIP3   OH2 6734   7.147   0.915   5.829  0.7639  0.1134  0.2988
 2257TIP3    H1 6735   7.231   0.959   5.841  0.9652 -0.5632  1.5194
 2257TIP3    H2 6736   7.107   0.914   5.916  0.2307 -1.0094  0.0662
 2258TIP3   OH2 6737   4.814   1.110   3.312  0.3623  0.2398 -0.2468
 2258TIP3    H1 6738   4.908   1.123   3.319  0.6602 -2.0743  0.9959
 2258TIP3    H2 6739   4.775   1.188   3.350  1.8169  0.3239  1.1396
 2259TIP3   OH2 6740   2.001   4.936   5.006 -0.2997 -0.4463 -0.1919
 2259TIP3    H1 6741   1.922   4.938   5.061 -0.0689 -3.6790  0.4432
 2259TIP3    H2 6742   1.995   4.854   4.958  2.9307 -1.0938  0.2841
 2260TIP3   OH2 6743   2.106   2.940   1.660  0.9517  0.1357 -0.2082
 2260TIP3    H1 6744   2.054   3.000   1.713 -1.1400 -1.2407 -0.5865
 2260TIP3    H2 6745   2.136   2.992   1.586 -3.5828  0.1453 -2.3252
 2261TIP3   OH2 6746   4.314   6.164   5.850  0.0865 -0.6158  0.1937
 2261TIP3    H1 6747   4.227   6.194   5.825  0.3637 -0.6908 -0.8820
 2261TIP3    H2 6748   4.336   6.216   5.927 -0.5966 -0.0718  0.0265
 2262TIP3   OH2 6749   1.214   2.821   0.019  0.2300 -0.2116  0.4731
 2262TIP3    H1 6750   1.159   2.752   0.056 -1.0321  0.3404 -0.2992
 2262TIP3    H2 6751   1.231   2.880   0.093 -0.3086 -0.3390  0.7040
 2263TIP3   OH2 6752   1.519   3.041   5.252  0.1244 -0.7051  0.0906
 2263TIP3    H1 6753   1.594   2.986   5.275  1.4107  1.3145  0.9029
 2263TIP3    H2 6754   1.453   2.978   5.221  1.2024 -2.7825  1.7377
 2264TIP3   OH2 6755   6.699   0.475   3.210 -0.5211 -0.5500 -0.1639
 2264TIP3    H1 6756   6.751   0.398   3.188 -0.2029 -0.7915  1.2939
 2264TIP3    H2 6757   6.643   0.445   3.282 -1.4766  0.1785 -0.5794
 2265TIP3   OH2 6758   2.651   3.186   2.684  0.0467 -0.2063 -0.0657
 2265TIP3    H1 6759   2.579   3.122   2.680 -0.4548  0.3106  0.4582
 2265TIP3    H2 6760   2.725   3.136   2.718  0.3520 -1.0933 -1.9115
 2266TIP3   OH2 6761   1.558   0.973   2.148 -0.1855 -0.4306 -0.0443
 2266TIP3    H1 6762   1.635   1.000   2.198 -0.1062  1.0625 -0.9151
 2266TIP3    H2 6763   1.514   1.055   2.126 -0.7101 -1.1018 -1.6438
 2267TIP3   OH2 6764   6.421   5.109   2.832 -0.0644 -0.2015 -0.3175
 2267TIP3    H1 6765   6.399   5.198   2.861  0.3208 -0.6774  1.5639
 2267TIP3    H2 6766   6.484   5.122   2.761  0.1741  1.0399  0.0862
 2268TIP3   OH2 6767   6.109   5.792   2.109  0.4709  0.0108  0.2085
 2268TIP3    H1 6768   6.042   5.852   2.074  1.2297  0.8564  0.1879
 2268TIP3    H2 6769   6.061   5.711   2.125 -0.3311  0.2338 -0.8964
 2269TIP3   OH2 6770   6.413   5.771   5.174  0.3930  0.6717  0.0483
 2269TIP3    H1 6771   6.407   5.752   5.080  0.7522 -0.6022  0.2696
 2269TIP3    H2 6772   6.461   5.697   5.211 -0.5443  0.6775  1.3740
 2270TIP3   OH2 6773   6.145   4.502   0.278  0.4987 -0.1998 -0.2475
 2270TIP3    H1 6774   6.105   4.577   0.234  1.1202 -0.1474 -0.7309
 2270TIP3    H2 6775   6.204   4.464   0.213  1.6065  0.0123  0.5897
 2271TIP3   OH2 6776   1.284   1.823   4.190 -0.4697  0.1856 -0.1405
 2271TIP3    H1 6777   1.260   1.804   4.280 -2.3145 -0.8681 -0.7874
 2271TIP3    H2 6778   1.341   1.750   4.164  1.1283  1.1584  0.5197
 2272TIP3   OH2 6779   6.141   1.453   3.971  0.7396 -0.6988 -0.5358
 2272TIP3    H1 6780   6.194   1.383   3.932  2.1889  0.3748 -0.5614
 2272TIP3    H2 6781   6.201   1.497   4.031 -0.5329 -0.2824  0.4679
 2273TIP3   OH2 6782   5.494   5.022   3.010 -0.1799 -0.0102  0.2373
 2273TIP3    H1 6783   5.556   5.086   2.974 -1.5532  1.5773  0.5379
 2273TIP3    H2 6784   5.485   5.047   3.102 -1.2755 -0.1668  0.1884
 2274TIP3   OH2 6785   1.912   0.421   2.944  0.0394 -0.2758  0.0924
 2274TIP3    H1 6786   1.939   0.513   2.951  0.8337 -0.2872 -2.1212
 2274TIP3    H2 6787   1.994   0.372   2.955 -0.2929 -0.6935  0.7132
 2275TIP3   OH2 6788   2.636   0.890   5.010 -0.3246  0.1485  0.1965
 2275TIP3    H1 6789   2.642   0.904   4.916 -2.1477  2.1940  0.3047
 2275TIP3    H2 6790   2.553   0.845   5.023  0.0605 -0.4092  0.8176
 2276TIP3   OH2 6791   5.636   3.996   2.427 -0.1191  0.0284 -0.1234
 2276TIP3    H1 6792   5.663   4.088   2.426 -0.7514  0.2151 -0.0321
 2276TIP3    H2 6793   5.571   3.990   2.357 -1.5920  0.1183  1.1946
 2277TIP3   OH2 6794   0.208   6.518   0.842 -0.0260  0.2065  1.0878
 2277TIP3    H1 6795   0.151   6.595   0.842  1.6591  1.6087  3.4486
 2277TIP3    H2 6796   0.186   6.472   0.923 -0.3559 -1.3178  0.1670
 2278TIP3   OH2 6797   4.123   3.096   2.374 -0.0542 -0.1268 -0.1822
 2278TIP3    H1 6798   4.143   3.015   2.327  2.7952 -0.2846  1.0902
 2278TIP3    H2 6799   4.207   3.143   2.378 -1.1131  1.8112  1.1181
 2279TIP3   OH2 6800   3.420   1.238   4.698 -0.3204 -0.2927  0.5505
 2279TIP3    H1 6801   3.340   1.227   4.646 -0.1910  0.8768  0.0594
 2279TIP3    H2 6802   3.414   1.328   4.731  1.3231  0.2113 -0.4338
 2280TIP3   OH2 6803   2.826   0.649   5.235 -0.0292 -0.4785 -0.2819
 2280TIP3    H1 6804   2.738   0.670   5.265 -0.7677 -3.7841  0.3100
 2280TIP3    H2 6805   2.849   0.568   5.281  2.8211 -0.4316 -1.3757
 2281TIP3   OH2 6806   1.615   1.578   5.156  0.4812  0.6524 -0.0515
 2281TIP3    H1 6807   1.615   1.622   5.241  1.7676  1.0178 -0.2165
 2281TIP3    H2 6808   1.707   1.560   5.139  0.2057  0.2694 -1.2146
 2282TIP3   OH2 6809   5.094   5.762   3.632 -0.4329  0.1965  0.0916
 2282TIP3    H1 6810   5.087   5.856   3.647 -0.6603  0.2430 -0.2965
 2282TIP3    H2 6811   5.118   5.725   3.717 -1.2560  0.4986  0.4594
 2283TIP3   OH2 6812   0.449   4.185   4.654 -0.3094 -0.4975  0.2711
 2283TIP3    H1 6813   0.537   4.199   4.619 -0.7849 -0.5843 -1.0156
 2283TIP3    H2 6814   0.461   4.188   4.749  0.7375  1.6913  0.1428
 2284TIP3   OH2 6815   2.155   3.360   0.331 -0.1987  0.0775  0.3511
 2284TIP3    H1 6816   2.088   3.428   0.335  0.3118  0.6451 -0.5939
 2284TIP3    H2 6817   2.133   3.309   0.253  0.7185  0.5399 -0.2201
 2285TIP3   OH2 6818   3.210   5.318   4.135  0.4715  1.1925 -0.4717
 2285TIP3    H1 6819   3.264   5.351   4.207  1.3650 -2.2633  0.6254
 2285TIP3    H2 6820   3.263   5.333   4.057  0.7946  2.2804 -0.0733
 2286TIP3   OH2 6821   1.649   2.806   2.181 -0.3457 -0.1325 -0.1194
 2286TIP3    H1 6822   1.729   2.756   2.167 -0.7284 -0.8081  0.0598
 2286TIP3    H2 6823   1.581   2.757   2.136 -0.5141  0.9177 -1.0544
 2287TIP3   OH2 6824   7.113   0.834   0.839  0.7874 -0.0701  0.3986
 2287TIP3    H1 6825   7.165   0.755   0.819  1.0329  0.1845  0.0136
 2287TIP3    H2 6826   7.126   0.848   0.933  0.7190 -0.5050  0.4754
 2288TIP3   OH2 6827   4.556   2.591   3.881  0.0785 -0.3537  0.3243
 2288TIP3    H1 6828   4.463   2.614   3.889 -0.2834 -1.7454  0.3455
 2288TIP3    H2 6829   4.559   2.496   3.897  1.6859 -0.1051  1.8083
 2289TIP3   OH2 6830   1.952   3.772   0.873  0.4019 -0.3234  0.1160
 2289TIP3    H1 6831   2.016   3.766   0.803  0.6807  0.3084  0.3128
 2289TIP3    H2 6832   1.869   3.746   0.832  0.8535 -1.6423 -0.0150
 2290TIP3   OH2 6833   1.884   6.064   1.657  0.2269  0.0290 -0.2578
 2290TIP3    H1 6834   1.866   6.135   1.719  0.9350 -0.1907  0.2103
 2290TIP3    H2 6835   1.979   6.061   1.650  0.1545  0.3583 -1.7394
 2291TIP3   OH2 6836   3.325   1.960   3.951  0.0769 -0.1233 -0.4711
 2291TIP3    H1 6837   3.338   1.936   4.043  1.6531 -1.3568 -0.9761
 2291TIP3    H2 6838   3.230   1.974   3.943  0.0424  1.4190  1.6356
 2292TIP3   OH2 6839   3.030   3.187   2.953  0.1049  0.1225 -0.3077
 2292TIP3    H1 6840   2.962   3.131   2.990  0.1921  0.5725  0.5404
 2292TIP3    H2 6841   3.104   3.129   2.940  0.6972  0.3010  1.9465
 2293TIP3   OH2 6842   2.339   2.312   3.368 -0.4574  0.3678  0.1083
 2293TIP3    H1 6843   2.341   2.393   3.419 -1.0058 -0.1604  1.0020
 2293TIP3    H2 6844   2.424   2.272   3.383 -0.6607  0.1497  0.7529
 2294TIP3   OH2 6845   1.168   5.880   5.754  0.4039 -0.6165  0.0078
 2294TIP3    H1 6846   1.105   5.950   5.772  1.4143  0.8060 -1.7153
 2294TIP3    H2 6847   1.198   5.895   5.665  2.2557 -1.9893  0.3133
 2295TIP3   OH2 6848   4.932   4.603   5.294  0.1164  0.2385  0.5090
 2295TIP3    H1 6849   4.852   4.643   5.329 -0.7897  0.6565 -1.8040
 2295TIP3    H2 6850   4.943   4.644   5.208  1.3892 -1.6919 -0.3155
 2296TIP3   OH2 6851   7.002   6.331   0.705 -0.4732  0.0453 -0.6862
 2296TIP3    H1 6852   7.074   6.307   0.646 -1.1453 -0.8362 -1.1618
 2296TIP3    H2 6853   7.016   6.277   0.783 -0.6144 -0.1241 -0.7775
 2297TIP3   OH2 6854   0.105   3.489   5.842 -0.0159  0.1900  0.4664
 2297TIP3    H1 6855   0.175   3.511   5.781  0.4483  0.6068  1.1377
 2297TIP3    H2 6856   0.110   3.393   5.849 -0.1488  0.1281 -0.2325
 2298TIP3   OH2 6857   2.733   1.605   3.705  0.1307 -0.0796  0.1234
 2298TIP3    H1 6858   2.765   1.687   3.741 -1.0110 -0.3350  1.8306
 2298TIP3    H2 6859   2.638   1.609   3.717 -0.0689 -1.1099 -0.9376
 2299TIP3   OH2 6860   1.378   3.590   3.948 -0.0627 -0.3956  0.1419
 2299TIP3    H1 6861   1.344   3.679   3.950  3.4614  1.1449 -0.1634
 2299TIP3    H2 6862   1.426   3.581   4.030 -0.9803 -2.3786  0.5277
 2300TIP3   OH2 6863   6.222   6.461   2.698  0.0372  0.0407 -0.3455
 2300TIP3    H1 6864   6.228   6.431   2.789 -0.7135  0.3521 -0.1880
 2300TIP3    H2 6865   6.248   6.385   2.646 -0.9958 -0.6295  0.0857
 2301TIP3   OH2 6866   1.019   1.934   5.835  0.0285 -0.2242 -0.0648
 2301TIP3    H1 6867   1.057   2.021   5.831  0.0621 -0.1365  1.3626
 2301TIP3    H2 6868   0.985   1.927   5.925 -1.4339 -1.0731 -0.6440
 2302TIP3   OH2 6869   0.938   4.275   4.593 -0.2622  0.2808  0.5260
 2302TIP3    H1 6870   0.940   4.346   4.657 -0.0304  1.4123 -0.6967
 2302TIP3    H2 6871   1.007   4.215   4.622  0.0386  0.9234  1.1744
 2303TIP3   OH2 6872   4.492   6.437   2.292  0.9391  0.2305 -0.4700
 2303TIP3    H1 6873   4.540   6.468   2.369  1.0066 -0.8310 -0.0725
 2303TIP3    H2 6874   4.480   6.343   2.307  0.1942  0.1716 -1.3519
 2304TIP3   OH2 6875   6.970   6.190   1.531 -0.1468 -0.4290  0.5441
 2304TIP3    H1 6876   7.051   6.142   1.552 -0.2994 -0.6137  0.7111
 2304TIP3    H2 6877   6.962   6.256   1.599 -0.4839 -0.8364  0.9071
 2305TIP3   OH2 6878   6.084   6.331   4.530 -0.9132 -0.0263  0.4187
 2305TIP3    H1 6879   6.071   6.405   4.589 -0.5878  0.2426  0.1586
 2305TIP3    H2 6880   6.176   6.308   4.541 -0.7907  0.1829 -0.1672
 2306TIP3   OH2 6881   4.574   4.605   1.423 -0.4423 -0.4082  0.1500
 2306TIP3    H1 6882   4.658   4.624   1.466 -0.7007 -0.4003  0.6510
 2306TIP3    H2 6883   4.544   4.524   1.464 -1.0449 -0.0102  0.5126
 2307TIP3   OH2 6884   1.820   6.148   5.773 -0.2577 -0.1339 -0.0464
 2307TIP3    H1 6885   1.818   6.209   5.847  3.3883 -2.0170  1.8790
 2307TIP3    H2 6886   1.785   6.066   5.808  0.5489 -0.7717 -0.6632
 2308TIP3   OH2 6887   5.898   3.949   3.025  0.3774 -0.0075 -0.2257
 2308TIP3    H1 6888   5.983   3.906   3.026 -0.2673 -1.3380 -0.3395
 2308TIP3    H2 6889   5.840   3.890   3.073 -1.2583 -0.8113 -2.9476
 2309TIP3   OH2 6890   0.686   4.116   1.586  0.2621 -0.4626 -0.3181
 2309TIP3    H1 6891   0.626   4.175   1.539  1.5637  0.4096 -0.9317
 2309TIP3    H2 6892   0.642   4.100   1.670  0.5254  2.6831  0.5442
 2310TIP3   OH2 6893   0.785   5.843   2.262 -0.5960  0.0718  0.5159
 2310TIP3    H1 6894   0.870   5.876   2.234 -0.0607  0.6873  2.6803
 2310TIP3    H2 6895   0.768   5.769   2.203  1.2821  0.1185 -0.1636
 2311TIP3   OH2 6896   2.212   5.989   0.214 -0.0861  0.0842  0.3361
 2311TIP3    H1 6897   2.162   6.063   0.248 -2.6757 -1.3014 -0.1727
 2311TIP3    H2 6898   2.254   5.951   0.291 -1.2283  0.3251  1.1116
 2312TIP3   OH2 6899   6.237   6.667   0.071  0.3389  0.1411 -0.2439
 2312TIP3    H1 6900   6.198   6.739   0.022  0.2263 -0.2695 -0.7660
 2312TIP3    H2 6901   6.228   6.693   0.163 -1.6790 -0.1878 -0.2989
 2313TIP3   OH2 6902   1.311   0.294   4.973 -0.2793 -0.4808 -0.0814
 2313TIP3    H1 6903   1.384   0.351   4.950  0.4803 -0.8771  1.2841
 2313TIP3    H2 6904   1.236   0.353   4.977  0.6629  0.6513  2.2582
 2314TIP3   OH2 6905   4.139   2.180   3.570  0.1623  0.0247  0.0897
 2314TIP3    H1 6906   4.226   2.157   3.605  0.2511  1.3982  0.8379
 2314TIP3    H2 6907   4.132   2.129   3.489  2.2632  0.9088 -0.7272
 2315TIP3   OH2 6908   1.566   1.389   0.689  0.2144 -0.0175  0.0316
 2315TIP3    H1 6909   1.649   1.412   0.731  0.0535  0.2179  0.2273
 2315TIP3    H2 6910   1.585   1.390   0.595  0.1541  1.1862  0.0160
 2316TIP3   OH2 6911   4.122   0.217   1.134  0.1664 -0.4224 -0.3265
 2316TIP3    H1 6912   4.057   0.175   1.078  1.0776  0.6751 -2.2769
 2316TIP3    H2 6913   4.082   0.301   1.159 -0.1105 -0.7755  0.4745
 2317TIP3   OH2 6914   4.553   5.869   1.995  0.3959 -0.0610  0.6102
 2317TIP3    H1 6915   4.625   5.928   2.021  0.2968  0.9992 -1.3495
 2317TIP3    H2 6916   4.552   5.872   1.900 -2.0932 -0.2354  0.5506
 2318TIP3   OH2 6917   4.230   4.454   2.921  0.3692 -0.2590 -0.5838
 2318TIP3    H1 6918   4.170   4.526   2.936  0.6152 -0.1603 -0.0432
 2318TIP3    H2 6919   4.317   4.496   2.917  0.5092 -0.5193 -0.2937
 2319TIP3   OH2 6920   2.187   4.327   3.702  0.5102  0.2128 -0.1448
 2319TIP3    H1 6921   2.178   4.350   3.610  2.3940  2.0802  0.0574
 2319TIP3    H2 6922   2.201   4.232   3.702 -1.3572 -0.1207 -1.5764
 2320TIP3   OH2 6923   5.854   6.491   5.169  0.5057 -0.4595  0.3838
 2320TIP3    H1 6924   5.946   6.494   5.141  0.8116 -2.0765  1.1013
 2320TIP3    H2 6925   5.808   6.452   5.094  0.3306  0.6351 -0.0966
 2321TIP3   OH2 6926   0.979   2.476   4.728 -0.0403 -0.8042 -0.7725
 2321TIP3    H1 6927   0.950   2.521   4.807 -3.1005  1.2789 -2.8287
 2321TIP3    H2 6928   1.000   2.387   4.757  0.8814  0.3559  2.5953
 2322TIP3   OH2 6929   0.622   0.205   1.009 -0.1406  0.0871  0.5956
 2322TIP3    H1 6930   0.551   0.149   1.041 -1.2081  0.9705 -0.1963
 2322TIP3    H2 6931   0.588   0.247   0.931  0.9387  1.2080  0.6828
 2323TIP3   OH2 6932   4.127   4.748   5.630 -0.4094  0.5314 -0.2929
 2323TIP3    H1 6933   4.138   4.655   5.649  1.3122  0.7320 -0.1401
 2323TIP3    H2 6934   4.037   4.756   5.600 -0.4379 -1.2590 -0.7814
 2324TIP3   OH2 6935   5.280   1.508   3.250  0.0850 -0.1481  0.0722
 2324TIP3    H1 6936   5.374   1.493   3.255  0.4913  1.0148 -2.3250
 2324TIP3    H2 6937   5.261   1.572   3.318  0.9101 -0.8020  0.9363
 2325TIP3   OH2 6938   4.637   6.271   1.490 -0.3119  0.2023  0.1317
 2325TIP3    H1 6939   4.714   6.290   1.544 -1.4743  0.2025  1.8856
 2325TIP3    H2 6940   4.601   6.357   1.469  1.1533  0.3197 -2.3542
 2326TIP3   OH2 6941   6.790   1.976   0.280 -0.3584  0.4504 -0.3983
 2326TIP3    H1 6942   6.830   2.055   0.244  0.1327  0.7319  0.7324
 2326TIP3    H2 6943   6.702   1.974   0.242  0.1143  0.7611 -1.5467
 2327TIP3   OH2 6944   1.994   1.088   1.426  0.4962  0.3949 -0.7919
 2327TIP3    H1 6945   1.963   1.062   1.512 -1.0661 -1.5048 -1.8348
 2327TIP3    H2 6946   2.089   1.084   1.432  0.4258  0.6182  0.9098
 2328TIP3   OH2 6947   5.617   3.239   3.178 -0.0841  0.3445  0.0109
 2328TIP3    H1 6948   5.702   3.224   3.137  0.8808 -1.2380  2.3474
 2328TIP3    H2 6949   5.629   3.318   3.231  0.5585 -0.8175  1.6865
 2329TIP3   OH2 6950   6.477   4.241   0.853  0.2001 -0.1832 -0.0488
 2329TIP3    H1 6951   6.565   4.235   0.891 -0.4552 -0.4406  1.5254
 2329TIP3    H2 6952   6.456   4.151   0.829  0.6715  0.0017 -1.1907
 2330TIP3   OH2 6953   5.544   4.376   1.832 -0.0363 -0.6423  0.1569
 2330TIP3    H1 6954   5.589   4.444   1.783  0.4293 -0.9748  0.1139
 2330TIP3    H2 6955   5.594   4.296   1.815 -1.1072 -1.1934 -0.5437
 2331TIP3   OH2 6956   4.459   3.916   5.307 -0.1771  0.6845  0.2104
 2331TIP3    H1 6957   4.451   3.885   5.217  0.1704  1.5773 -0.1382
 2331TIP3    H2 6958   4.497   3.843   5.355 -2.1145 -0.5047  0.0478
 2332TIP3   OH2 6959   2.141   4.321   1.514 -0.4287  0.0897 -0.4455
 2332TIP3    H1 6960   2.225   4.363   1.498  1.2469 -1.8242  2.4146
 2332TIP3    H2 6961   2.103   4.370   1.587 -1.8565  0.8721 -1.6414
 2333TIP3   OH2 6962   0.621   3.936   0.001 -0.0447 -0.2482  0.2723
 2333TIP3    H1 6963   0.647   3.867   0.062 -1.2736 -2.1119 -1.1949
 2333TIP3    H2 6964   0.538   3.905  -0.036 -1.2561  2.5721  0.3405
 2334TIP3   OH2 6965   0.949   0.317   0.478  0.0292 -0.1686  0.7974
 2334TIP3    H1 6966   0.946   0.230   0.519 -0.9358  0.0604  1.2378
 2334TIP3    H2 6967   0.861   0.330   0.442  0.6718 -0.1004 -0.8485
 2335TIP3   OH2 6968   0.203   3.645   3.294 -0.3929 -0.0974 -0.5362
 2335TIP3    H1 6969   0.247   3.567   3.261 -0.5603 -1.1741  1.6117
 2335TIP3    H2 6970   0.110   3.628   3.281 -0.4041 -0.0291 -0.5488
 2336TIP3   OH2 6971   6.233   2.566   4.228 -0.3583  0.1548  0.3940
 2336TIP3    H1 6972   6.305   2.587   4.169  0.0556 -1.0536  0.4407
 2336TIP3    H2 6973   6.160   2.545   4.170 -1.7699  4.4311  0.2657
 2337TIP3   OH2 6974   0.931   6.286   1.106  0.0337 -0.2151  0.1086
 2337TIP3    H1 6975   0.902   6.288   1.014 -0.4263  0.5222  0.2597
 2337TIP3    H2 6976   0.903   6.371   1.141 -3.2146 -1.8383  1.9605
 2338TIP3   OH2 6977   3.112   3.448   1.791  0.1638  0.2276  0.4655
 2338TIP3    H1 6978   3.196   3.429   1.833  0.2088  0.9442  0.7060
 2338TIP3    H2 6979   3.136   3.489   1.708  0.0623  2.2274  1.3736
 2339TIP3   OH2 6980   4.588   5.306   5.199 -0.3111 -0.1452  0.5680
 2339TIP3    H1 6981   4.675   5.333   5.229 -1.1868  2.3911  1.1265
 2339TIP3    H2 6982   4.547   5.266   5.275  0.4057 -1.5402  0.2453
 2340TIP3   OH2 6983   2.462   3.776   1.167  0.1433 -0.5538  0.4472
 2340TIP3    H1 6984   2.369   3.799   1.161  0.4756  0.5551 -1.9985
 2340TIP3    H2 6985   2.507   3.860   1.170  1.0911 -1.0555  0.6417
 2341TIP3   OH2 6986   3.564   1.809   1.889 -0.1425 -0.8365 -0.5062
 2341TIP3    H1 6987   3.536   1.778   1.975 -0.2936  1.7061  0.4525
 2341TIP3    H2 6988   3.482   1.828   1.843 -0.1316  0.9903  0.1146
 2342TIP3   OH2 6989   2.822   5.794   5.177 -0.1839 -0.3751  0.3003
 2342TIP3    H1 6990   2.882   5.723   5.153  0.1660 -0.2136  0.6899
 2342TIP3    H2 6991   2.857   5.828   5.260 -1.0458 -0.5437  0.7397
 2343TIP3   OH2 6992   6.541   1.514   4.312 -0.1133 -0.1586  0.1206
 2343TIP3    H1 6993   6.458   1.508   4.359  0.4230  0.0358  1.1399
 2343TIP3    H2 6994   6.591   1.439   4.344 -0.4597 -1.2012 -1.6815
 2344TIP3   OH2 6995   1.423   2.351   1.248 -0.6293  0.4640  0.2133
 2344TIP3    H1 6996   1.343   2.387   1.210 -1.2029 -1.8267 -0.9256
 2344TIP3    H2 6997   1.449   2.282   1.187  0.3971 -1.0150  2.2421
 2345TIP3   OH2 6998   5.242   0.946   4.360 -0.0419 -0.3786 -0.0042
 2345TIP3    H1 6999   5.297   1.023   4.373  0.6057 -0.2965 -2.6956
 2345TIP3    H2 7000   5.156   0.972   4.394  0.8646  0.4437  1.7769
 2346TIP3   OH2 7001   2.143   0.830   4.236  0.0879  0.1640 -0.3723
 2346TIP3    H1 7002   2.190   0.879   4.168  1.5237 -0.5206  0.0905
 2346TIP3    H2 7003   2.207   0.819   4.306 -1.6236  1.7160  1.5793
 2347TIP3   OH2 7004   5.836   1.062   1.770  0.0444 -0.3218 -0.2817
 2347TIP3    H1 7005   5.842   1.032   1.861 -0.5579 -1.6493 -0.6530
 2347TIP3    H2 7006   5.897   1.136   1.765 -1.4660  1.1819  1.7169
 2348TIP3   OH2 7007   7.012   0.603   5.425  0.3365 -0.3147  0.3975
 2348TIP3    H1 7008   6.991   0.514   5.397  1.5089 -0.1515 -1.0763
 2348TIP3    H2 7009   7.070   0.591   5.500 -0.2741 -0.7588  0.8196
 2349TIP3   OH2 7010   0.856   1.610   3.199 -0.0826 -0.1465 -0.0314
 2349TIP3    H1 7011   0.916   1.639   3.131 -0.3294  1.5468  0.4308
 2349TIP3    H2 7012   0.907   1.615   3.280 -0.0035 -1.4630  0.0220
 2350TIP3   OH2 7013   3.318   0.472   3.569 -0.0016  0.3088  0.5949
 2350TIP3    H1 7014   3.255   0.473   3.641  0.0883  0.1452  0.6738
 2350TIP3    H2 7015   3.373   0.396   3.585  0.6522  0.8310  0.9033
 2351TIP3   OH2 7016   0.177   0.825   4.093  0.0927  0.1004 -0.4610
 2351TIP3    H1 7017   0.154   0.737   4.064  1.8714  0.0377 -1.8504
 2351TIP3    H2 7018   0.226   0.812   4.174 -0.9425 -0.0674  0.1436
 2352TIP3   OH2 7019   3.946   1.788   5.653 -0.2082 -0.1618 -0.2391
 2352TIP3    H1 7020   4.030   1.834   5.644 -0.1474 -0.0740  0.6767
 2352TIP3    H2 7021   3.881   1.855   5.631 -0.0777  0.0727  0.0735
 2353TIP3   OH2 7022   2.903   0.564   1.155 -0.0854  0.2360  0.6746
 2353TIP3    H1 7023   2.894   0.492   1.093  0.0193  0.7938 -0.0002
 2353TIP3    H2 7024   2.817   0.607   1.154  0.5842  1.6274 -0.8380
 2354TIP3   OH2 7025   4.709   3.613   0.351 -0.3948 -0.5327  0.0272
 2354TIP3    H1 7026   4.626   3.570   0.369 -1.1763  0.0543 -1.9247
 2354TIP3    H2 7027   4.740   3.574   0.270  1.2676 -0.7451  0.7143
 2355TIP3   OH2 7028   6.798   1.396   1.101 -0.3531 -0.4332  0.0389
 2355TIP3    H1 7029   6.832   1.320   1.148 -0.8397  0.9179  2.7732
 2355TIP3    H2 7030   6.841   1.471   1.142 -1.6821  0.9244 -0.9403
 2356TIP3   OH2 7031   3.216   4.370   5.323 -0.2613 -0.0968  1.3511
 2356TIP3    H1 7032   3.271   4.349   5.248 -0.3091 -0.8306  1.5172
 2356TIP3    H2 7033   3.131   4.329   5.304 -1.2388  2.1828  0.4464
 2357TIP3   OH2 7034   5.359   4.094   3.149 -0.4326  0.4083  0.2887
 2357TIP3    H1 7035   5.443   4.064   3.113 -0.8822  0.1002 -0.5188
 2357TIP3    H2 7036   5.354   4.186   3.123 -1.0363  0.0328 -1.0156
 2358TIP3   OH2 7037   4.954   0.556   1.173  0.8638 -0.0157  0.1202
 2358TIP3    H1 7038   4.953   0.467   1.140 -0.0254 -0.0296  0.1470
 2358TIP3    H2 7039   4.882   0.599   1.128  0.8146  0.4798  0.6538
 2359TIP3   OH2 7040   4.800   2.537   5.599  0.2217  0.4848 -0.3538
 2359TIP3    H1 7041   4.835   2.616   5.557  2.5547  0.3936  1.2466
 2359TIP3    H2 7042   4.834   2.465   5.545 -0.1142  0.4987 -0.5853
 2360TIP3   OH2 7043   3.134   2.424   3.874 -0.0383  0.1965 -0.1430
 2360TIP3    H1 7044   3.170   2.511   3.864 -0.9235  0.4060 -1.8481
 2360TIP3    H2 7045   3.070   2.416   3.803 -0.1944 -1.7231  0.1602
 2361TIP3   OH2 7046   6.152   1.337   3.036 -0.6395  0.3046  0.2264
 2361TIP3    H1 7047   6.215   1.402   3.070 -0.8373  0.8390 -0.4064
 2361TIP3    H2 7048   6.143   1.273   3.107 -1.1492  1.4593  1.2448
 2362TIP3   OH2 7049   5.531   1.979   3.783 -0.3892 -0.2649  0.3129
 2362TIP3    H1 7050   5.521   2.074   3.771  1.6608  0.0924  1.0989
 2362TIP3    H2 7051   5.556   1.968   3.874  2.7967 -1.1824 -0.5288
 2363TIP3   OH2 7052   6.379   4.600   3.448  0.2510 -0.5701 -0.1864
 2363TIP3    H1 7053   6.324   4.670   3.483  1.1026  0.8081 -1.4770
 2363TIP3    H2 7054   6.399   4.545   3.523 -1.4371 -0.1295  0.6411
 2364TIP3   OH2 7055   5.717   0.277   4.506 -0.1753 -0.2115  1.1374
 2364TIP3    H1 7056   5.756   0.290   4.419 -0.5754  0.5681  1.0653
 2364TIP3    H2 7057   5.633   0.234   4.488  1.0326 -2.7987  1.3595
 2365TIP3   OH2 7058   0.626   1.337   3.820 -0.1278 -0.3935  0.2837
 2365TIP3    H1 7059   0.590   1.408   3.766 -0.3022 -0.5336  0.2133
 2365TIP3    H2 7060   0.614   1.258   3.767  0.9390 -0.3492 -0.0392
 2366TIP3   OH2 7061   0.865   1.625   0.833 -0.1915  0.0715  0.4195
 2366TIP3    H1 7062   0.813   1.701   0.858 -1.1758 -0.6128  0.5211
 2366TIP3    H2 7063   0.805   1.570   0.782  0.7656 -0.2183 -0.4248
 2367TIP3   OH2 7064   2.748   1.336   3.040  0.0881  0.3051  0.3432
 2367TIP3    H1 7065   2.828   1.327   2.988  0.1386  0.5037  0.3852
 2367TIP3    H2 7066   2.686   1.277   2.997 -0.5279  2.0075 -1.2526
 2368TIP3   OH2 7067   4.269   1.914   2.373  0.7168  0.4360 -0.4399
 2368TIP3    H1 7068   4.253   1.975   2.301  2.0923  0.5487 -0.6796
 2368TIP3    H2 7069   4.182   1.891   2.405  0.1581  2.7383 -0.1700
 2369TIP3   OH2 7070   6.802   1.460   1.760 -0.6994 -0.2043  0.3764
 2369TIP3    H1 7071   6.820   1.398   1.830 -2.7202  0.2026  1.3353
 2369TIP3    H2 7072   6.774   1.540   1.806  0.9164  1.1249 -0.8441
 2370TIP3   OH2 7073   0.671   3.917   5.542 -0.0122  0.2074 -0.0210
 2370TIP3    H1 7074   0.649   3.824   5.548 -1.0754  0.5063  1.3348
 2370TIP3    H2 7075   0.613   3.951   5.473 -0.0972  0.0020 -0.0503
 2371TIP3   OH2 7076   6.264   0.967   3.675  0.0577 -0.0261 -0.1065
 2371TIP3    H1 7077   6.247   0.930   3.588  3.1000 -2.6109  0.2078
 2371TIP3    H2 7078   6.358   0.955   3.688 -0.3796 -0.5204  3.8662
 2372TIP3   OH2 7079   6.140   2.146   0.125  0.5223 -0.2620  0.7170
 2372TIP3    H1 7080   6.096   2.195   0.055  2.1634  0.9831  0.4889
 2372TIP3    H2 7081   6.117   2.055   0.108  0.3453  0.0703 -1.0685
 2373TIP3   OH2 7082   4.158   2.931   1.253 -0.1872  0.6094 -0.0775
 2373TIP3    H1 7083   4.100   2.900   1.323 -0.3023 -0.2574 -0.5368
 2373TIP3    H2 7084   4.245   2.933   1.293 -0.2231 -0.0498  0.0458
 2374TIP3   OH2 7085   1.092   1.214   1.633 -0.2162  0.2735  0.2238
 2374TIP3    H1 7086   1.168   1.212   1.575  0.9359 -1.9487  1.7167
 2374TIP3    H2 7087   1.128   1.229   1.720 -1.8083  2.1055  0.6499
 2375TIP3   OH2 7088   1.765   1.772   2.321  0.4131 -0.2287  0.5332
 2375TIP3    H1 7089   1.797   1.861   2.304  2.6519 -0.7894  1.3480
 2375TIP3    H2 7090   1.821   1.741   2.393 -0.3862 -2.2631  0.3282
 2376TIP3   OH2 7091   0.286   0.512   1.201  0.6683  0.4147 -0.0456
 2376TIP3    H1 7092   0.292   0.417   1.201  1.7495  0.4721 -0.4111
 2376TIP3    H2 7093   0.195   0.530   1.224  0.3766 -0.7044 -0.2600
 2377TIP3   OH2 7094   1.085   1.700   3.054  0.8364  0.6389 -0.0390
 2377TIP3    H1 7095   1.111   1.792   3.053  0.4961  0.7818  1.3354
 2377TIP3    H2 7096   1.152   1.657   3.107  0.1188  0.4164  0.7245
 2378TIP3   OH2 7097   7.053   0.310   4.722 -0.7588 -0.1752  0.1106
 2378TIP3    H1 7098   7.002   0.230   4.719 -4.6233  2.0146  1.0561
 2378TIP3    H2 7099   7.069   0.333   4.631 -0.7888 -1.2686 -0.1817
 2379TIP3   OH2 7100   6.679   4.612   3.498  0.0887  0.0974  0.3200
 2379TIP3    H1 7101   6.642   4.543   3.554 -1.0036 -0.2011 -0.7229
 2379TIP3    H2 7102   6.602   4.659   3.466  0.7630  0.9774 -0.0177
 2380TIP3   OH2 7103   6.520   3.501   5.512  0.5962  0.0535 -0.4617
 2380TIP3    H1 7104   6.533   3.444   5.587  1.0640  0.2342 -0.4047
 2380TIP3    H2 7105   6.516   3.441   5.437  2.4350  0.0120 -0.5687
 2381TIP3   OH2 7106   2.578   3.229   5.092 -0.4406 -0.4730  0.2666
 2381TIP3    H1 7107   2.612   3.302   5.144 -0.3820 -0.2624 -0.0660
 2381TIP3    H2 7108   2.572   3.263   5.003  0.9371 -1.2930 -0.1753
 2382TIP3   OH2 7109   1.299   2.599   5.012 -0.4341 -0.2225 -0.0250
 2382TIP3    H1 7110   1.221   2.603   5.068 -1.6043 -2.1173 -1.3648
 2382TIP3    H2 7111   1.331   2.509   5.023 -0.2586 -0.4088 -1.7450
 2383TIP3   OH2 7112   0.493   0.636   0.363 -0.4099  0.0968 -0.7032
 2383TIP3    H1 7113   0.459   0.726   0.358  0.3705  0.4440 -0.0495
 2383TIP3    H2 7114   0.458   0.602   0.445  1.2455  0.6703  0.2964
 2384TIP3   OH2 7115   6.380   4.930   2.269 -0.2373  0.4171  0.0862
 2384TIP3    H1 7116   6.405   4.910   2.179  1.2549  1.6603  0.1912
 2384TIP3    H2 7117   6.447   4.888   2.323 -0.7837  0.1858  0.5955
 2385TIP3   OH2 7118   4.476   5.847   4.599 -0.0813 -0.2822  0.1832
 2385TIP3    H1 7119   4.564   5.856   4.563 -0.2082 -2.2692 -0.7862
 2385TIP3    H2 7120   4.482   5.773   4.659 -0.7729  0.5591  1.3322
 2386TIP3   OH2 7121   7.054   5.778   0.120 -0.6333 -0.2550 -0.1624
 2386TIP3    H1 7122   7.097   5.845   0.067 -0.6359  0.0099  0.1675
 2386TIP3    H2 7123   6.977   5.753   0.069  1.8046 -3.5510 -2.7050
 2387TIP3   OH2 7124   2.205   1.314   1.216 -0.6712  0.0049 -0.7380
 2387TIP3    H1 7125   2.238   1.270   1.294  2.2238  0.0778 -1.8106
 2387TIP3    H2 7126   2.152   1.386   1.250 -0.2244 -0.4859  1.1367
 2388TIP3   OH2 7127   6.317   1.890   2.456 -0.1069  0.6973  0.5907
 2388TIP3    H1 7128   6.270   1.946   2.518  0.6874  2.0207  0.0377
 2388TIP3    H2 7129   6.357   1.951   2.394  1.3901 -0.4404  0.3804
 2389TIP3   OH2 7130   5.595   4.005   0.094 -0.1148 -0.2640 -0.0216
 2389TIP3    H1 7131   5.641   3.983   0.175 -1.5302  0.3257  0.9655
 2389TIP3    H2 7132   5.606   4.100   0.085  0.8037 -0.4413 -1.0310
 2390TIP3   OH2 7133   6.498   3.290   4.472  0.0219  0.4206 -0.6275
 2390TIP3    H1 7134   6.541   3.207   4.494 -1.8341 -0.7399 -1.0841
 2390TIP3    H2 7135   6.499   3.340   4.553  0.3061 -0.4796 -0.0630
 2391TIP3   OH2 7136   3.882   6.700   2.997 -0.1497 -0.4567 -0.3447
 2391TIP3    H1 7137   3.802   6.657   2.966 -0.0420 -0.1440 -1.0929
 2391TIP3    H2 7138   3.871   6.705   3.092 -0.0374 -2.3574 -0.1981
 2392TIP3   OH2 7139   0.519   3.585   1.516  0.2571  0.2163 -0.7537
 2392TIP3    H1 7140   0.436   3.544   1.490  0.1180  0.0613 -0.0963
 2392TIP3    H2 7141   0.508   3.677   1.493 -0.0336  0.1629 -0.8391
 2393TIP3   OH2 7142   5.045   2.647   5.278  0.1632  0.1026 -0.1590
 2393TIP3    H1 7143   4.980   2.589   5.240 -0.3699  1.5140 -1.4788
 2393TIP3    H2 7144   5.127   2.598   5.274 -0.5386 -1.1516  0.2494
 2394TIP3   OH2 7145   4.231   5.354   2.203 -0.1734  0.2658  0.4006
 2394TIP3    H1 7146   4.303   5.407   2.236  0.8899 -1.1077  0.4032
 2394TIP3    H2 7147   4.219   5.384   2.113  2.0055 -0.9845 -0.4007
 2395TIP3   OH2 7148   4.435   2.204   0.046  0.2469  0.1523 -0.0363
 2395TIP3    H1 7149   4.528   2.221   0.034  0.3930  0.8985  1.7735
 2395TIP3    H2 7150   4.411   2.257   0.123 -1.5753 -0.3158 -0.2420
 2396TIP3   OH2 7151   3.212   6.767   2.072 -0.9414  0.4832  0.4317
 2396TIP3    H1 7152   3.292   6.798   2.113 -0.6610  0.5826 -0.1745
 2396TIP3    H2 7153   3.228   6.775   1.978 -1.8803  1.0662  0.3066
 2397TIP3   OH2 7154   1.773   1.870   4.670  0.0248 -1.1420 -0.8040
 2397TIP3    H1 7155   1.811   1.813   4.602  0.4046 -1.5810 -0.2307
 2397TIP3    H2 7156   1.839   1.939   4.682  1.2331 -2.5014  0.9789
 2398TIP3   OH2 7157   3.101   1.663   3.859 -0.1542  0.4393 -0.5673
 2398TIP3    H1 7158   3.111   1.680   3.953 -0.1051 -2.0968 -0.0293
 2398TIP3    H2 7159   3.185   1.690   3.821 -0.0685  1.2342  0.1560
 2399TIP3   OH2 7160   1.660   1.345   1.365 -0.3357 -0.4978 -0.0421
 2399TIP3    H1 7161   1.573   1.369   1.333 -0.4726 -0.0945  0.6088
 2399TIP3    H2 7162   1.671   1.253   1.341 -1.0599 -0.6318  0.1268
 2400TIP3   OH2 7163   2.621   2.290   5.575 -0.2211 -0.2856 -0.3702
 2400TIP3    H1 7164   2.715   2.289   5.558  0.2390 -0.4708  1.8745
 2400TIP3    H2 7165   2.585   2.348   5.507  1.6090  0.4436 -0.7814
 2401TIP3   OH2 7166   4.655   4.533   5.662  0.2818 -0.4790 -0.5687
 2401TIP3    H1 7167   4.734   4.515   5.713 -1.5964 -0.8810  2.4691
 2401TIP3    H2 7168   4.646   4.629   5.664 -0.3791 -0.5378  1.0063
 2402TIP3   OH2 7169   3.870   5.886   4.370 -0.7246 -0.3817  0.0096
 2402TIP3    H1 7170   3.801   5.833   4.330 -1.0996  0.3140 -0.2656
 2402TIP3    H2 7171   3.913   5.825   4.431 -2.9747 -0.2816  1.8693
 2403TIP3   OH2 7172   2.055   3.551   1.010 -0.2892 -0.1940  0.4993
 2403TIP3    H1 7173   2.062   3.543   1.105 -1.8230 -0.7667  0.5849
 2403TIP3    H2 7174   2.000   3.628   0.996  1.2499  0.8599  0.0099
 2404TIP3   OH2 7175   2.684   1.275   0.262 -0.0669 -0.1499 -0.4432
 2404TIP3    H1 7176   2.775   1.247   0.273 -0.2241 -0.6485 -0.3697
 2404TIP3    H2 7177   2.633   1.209   0.309 -0.5555 -0.6204 -1.5984
 2405TIP3   OH2 7178   4.418  -0.011   1.187 -0.2437  0.6778  0.6128
 2405TIP3    H1 7179   4.371   0.020   1.264 -2.1100 -1.0401  0.2655
 2405TIP3    H2 7180   4.370   0.027   1.113 -0.0642  0.2357  0.2674
 2406TIP3   OH2 7181   4.146   5.369   3.813 -0.2703 -0.2270  0.4837
 2406TIP3    H1 7182   4.195   5.447   3.789  0.6637 -0.0236  2.7304
 2406TIP3    H2 7183   4.213   5.305   3.837 -1.0554 -1.2513  0.0481
 2407TIP3   OH2 7184   2.282   3.995   0.218  0.5384  0.2288 -0.3010
 2407TIP3    H1 7185   2.295   3.972   0.310 -0.0349  0.3007 -0.1971
 2407TIP3    H2 7186   2.249   3.915   0.178  1.0741  0.1093 -0.5143
 2408TIP3   OH2 7187   2.405   1.351   4.153  0.0176 -0.3549  0.7703
 2408TIP3    H1 7188   2.453   1.310   4.081 -1.1634  0.6337 -0.6394
 2408TIP3    H2 7189   2.322   1.304   4.157 -0.6715  0.7761  0.2422
 2409TIP3   OH2 7190   4.078   3.096   3.372  0.0352 -0.2336  0.0063
 2409TIP3    H1 7191   4.007   3.049   3.329  0.7068 -0.4792 -0.8640
 2409TIP3    H2 7192   4.153   3.037   3.366  0.6392  0.5358 -0.2159
 2410TIP3   OH2 7193   3.029   4.657   5.545 -0.5301 -0.4164  0.5005
 2410TIP3    H1 7194   3.112   4.699   5.522 -0.0777 -1.6293 -0.1249
 2410TIP3    H2 7195   2.987   4.720   5.604  0.0399  0.9968 -0.5438
 2411TIP3   OH2 7196   0.218   0.049   0.674  0.1761  0.0451 -0.1109
 2411TIP3    H1 7197   0.180   0.123   0.626 -0.6475  0.0829  0.5972
 2411TIP3    H2 7198   0.310   0.073   0.684 -0.0838  0.9909  0.1261
 2412TIP3   OH2 7199   5.126   4.401   0.949  0.1363  0.0518  0.1262
 2412TIP3    H1 7200   5.150   4.483   0.992  1.0405 -0.0767 -0.1146
 2412TIP3    H2 7201   5.188   4.392   0.877 -0.1383 -0.6979 -0.0292
 2413TIP3   OH2 7202   2.453   0.369   1.503  0.1398  0.1605 -0.0972
 2413TIP3    H1 7203   2.535   0.332   1.468  0.3988 -0.2316  0.8894
 2413TIP3    H2 7204   2.384   0.321   1.457  0.4758 -0.4474  0.0217
 2414TIP3   OH2 7205   4.605   2.549   0.902 -0.0182 -0.7964  0.0319
 2414TIP3    H1 7206   4.643   2.590   0.980  0.9437  0.7858 -1.2226
 2414TIP3    H2 7207   4.511   2.546   0.921  0.0959  0.3175  0.9305
 2415TIP3   OH2 7208   2.896   2.457   1.878  0.1322 -0.5982 -0.2454
 2415TIP3    H1 7209   2.884   2.399   1.803 -1.8882 -1.5077  0.7037
 2415TIP3    H2 7210   2.883   2.400   1.954  0.3284  0.6572  0.7511
 2416TIP3   OH2 7211   2.771   2.508   0.334  0.7514 -0.0091 -0.2811
 2416TIP3    H1 7212   2.715   2.561   0.391  1.6997  0.4139  0.2795
 2416TIP3    H2 7213   2.733   2.517   0.247 -2.2344 -2.6113  0.5352
 2417TIP3   OH2 7214   0.530   3.142   2.565 -0.1470 -0.0270 -0.4503
 2417TIP3    H1 7215   0.590   3.187   2.505 -1.7310  0.7489 -1.5209
 2417TIP3    H2 7216   0.469   3.210   2.593 -0.8305 -0.9009  0.2294
 2418TIP3   OH2 7217   5.038   3.845   2.466 -0.1956  0.1467  0.2500
 2418TIP3    H1 7218   5.093   3.781   2.420  1.1079  1.2246  0.2373
 2418TIP3    H2 7219   4.953   3.841   2.422  0.6551  0.2829 -1.4804
 2419TIP3   OH2 7220   3.564   0.190   4.762  0.5317  0.3776 -0.3499
 2419TIP3    H1 7221   3.618   0.242   4.822 -0.9976  0.7030  0.8116
 2419TIP3    H2 7222   3.530   0.119   4.817  2.9015 -2.2304 -1.9772
 2420TIP3   OH2 7223   0.656   0.099   3.877  0.1180  0.0585  0.1000
 2420TIP3    H1 7224   0.723   0.134   3.935  0.3913  0.2499 -0.3283
 2420TIP3    H2 7225   0.692   0.109   3.789 -0.7432  0.7677 -0.1862
 2421TIP3   OH2 7226   7.076   0.292   2.937  0.4201  0.0661  0.0095
 2421TIP3    H1 7227   7.039   0.241   2.865 -1.2549  2.2500 -0.7816
 2421TIP3    H2 7228   7.160   0.323   2.903 -0.2682  0.9222 -0.9679
 2422TIP3   OH2 7229   4.408   3.754   5.096 -0.0041  0.7703  0.2934
 2422TIP3    H1 7230   4.381   3.800   5.017  1.5402 -0.0909 -0.7996
 2422TIP3    H2 7231   4.414   3.662   5.069 -2.9730 -0.1751  2.3969
 2423TIP3   OH2 7232   0.663   0.421   4.260 -0.0918  0.0751 -0.3817
 2423TIP3    H1 7233   0.689   0.486   4.195  1.8762 -1.5380 -1.3254
 2423TIP3    H2 7234   0.716   0.441   4.337  1.1643 -0.8615 -0.9669
 2424TIP3   OH2 7235   4.404   2.237   3.690 -0.3995  0.3333  0.1293
 2424TIP3    H1 7236   4.499   2.226   3.688 -0.3264  0.3461  1.8227
 2424TIP3    H2 7237   4.384   2.249   3.783 -1.5680  4.6456 -0.4651
 2425TIP3   OH2 7238   0.943   2.308   5.137 -0.7744 -0.4779  0.6774
 2425TIP3    H1 7239   0.893   2.370   5.083  0.4954  1.6254  1.7893
 2425TIP3    H2 7240   0.900   2.310   5.222 -1.5406 -2.2477  0.3839
 2426TIP3   OH2 7241   0.310   4.836   3.584 -0.1213  0.0909 -0.0464
 2426TIP3    H1 7242   0.249   4.895   3.538 -0.4797  0.1583  0.5130
 2426TIP3    H2 7243   0.253   4.776   3.633  0.2223 -1.1848 -1.1572
 2427TIP3   OH2 7244   4.543   1.889   1.671 -0.3212  0.3341  0.4122
 2427TIP3    H1 7245   4.525   1.798   1.647 -2.1525  0.5358  0.8215
 2427TIP3    H2 7246   4.638   1.894   1.677 -0.1914 -1.7780  1.1668
 2428TIP3   OH2 7247   6.012   4.061   1.307 -0.0469  0.0847  0.5000
 2428TIP3    H1 7248   6.092   4.071   1.358 -0.3143  2.7571  0.5765
 2428TIP3    H2 7249   5.969   3.984   1.343  1.0339  0.3679  2.5421
 2429TIP3   OH2 7250   5.210   1.487   3.926  0.0062  0.3799  0.3345
 2429TIP3    H1 7251   5.237   1.400   3.898 -1.0258 -0.0910  0.7534
 2429TIP3    H2 7252   5.121   1.475   3.961  0.6028  1.2059  2.3216
 2430TIP3   OH2 7253   5.438   1.177   1.845  1.0816  0.4600 -0.3942
 2430TIP3    H1 7254   5.362   1.230   1.869  0.7921 -0.4109  0.6968
 2430TIP3    H2 7255   5.486   1.166   1.927  0.5267 -1.8955 -0.3104
 2431TIP3   OH2 7256   6.538   4.844   3.246  0.3033  0.0769  0.2043
 2431TIP3    H1 7257   6.513   4.867   3.335 -0.1517 -0.0791  0.1218
 2431TIP3    H2 7258   6.486   4.766   3.226  1.4616 -0.7524  0.3087
 2432TIP3   OH2 7259   4.273   2.005   2.894 -0.0467 -0.7067 -0.4160
 2432TIP3    H1 7260   4.234   1.922   2.867  0.2756 -1.2999  0.8769
 2432TIP3    H2 7261   4.241   2.019   2.983  1.7928 -0.6653  0.2847
 2433TIP3   OH2 7262   1.473   0.701   3.918  0.3583 -0.0024 -0.6740
 2433TIP3    H1 7263   1.489   0.618   3.963  0.2419  0.3692  0.0653
 2433TIP3    H2 7264   1.524   0.766   3.967 -0.2119  0.5025 -0.7341
 2434TIP3   OH2 7265   7.067   3.873   0.989  0.2962 -0.1784 -0.0698
 2434TIP3    H1 7266   7.008   3.824   1.046  0.5383 -3.2981 -2.1943
 2434TIP3    H2 7267   7.154   3.839   1.010  0.5214 -0.4426 -1.3256
 2435TIP3   OH2 7268   3.963   4.653   3.786  0.6295 -0.2375  0.0479
 2435TIP3    H1 7269   4.005   4.567   3.794 -1.5061 -1.2812  0.8338
 2435TIP3    H2 7270   3.909   4.646   3.708  0.5423  0.4651  0.0388
 2436TIP3   OH2 7271   0.399   6.080   5.790 -0.3891 -0.6792  0.4266
 2436TIP3    H1 7272   0.316   6.068   5.837 -0.9040  2.6653  0.6690
 2436TIP3    H2 7273   0.376   6.138   5.718  2.1500  3.5524  2.6252
 2437TIP3   OH2 7274   7.022   3.758   3.625  0.1460  0.3161  0.4676
 2437TIP3    H1 7275   7.004   3.722   3.711 -0.1100  2.5120  1.3961
 2437TIP3    H2 7276   6.959   3.829   3.615  1.9279  1.8607 -0.3630
 2438TIP3   OH2 7277   1.744   2.649   0.345  0.4897 -0.0273  0.0600
 2438TIP3    H1 7278   1.766   2.732   0.304 -1.4544  0.8580  0.6503
 2438TIP3    H2 7279   1.664   2.621   0.301  1.4692 -1.9772 -0.5972
 2439TIP3   OH2 7280   1.757   6.805   5.166 -0.6549 -0.4387  0.0107
 2439TIP3    H1 7281   1.811   6.777   5.092  1.1677  0.7973  0.8141
 2439TIP3    H2 7282   1.672   6.763   5.150  0.2281 -1.6900 -1.7915
 2440TIP3   OH2 7283   6.509   3.662   1.390 -1.0033 -0.4570 -0.3926
 2440TIP3    H1 7284   6.546   3.574   1.381  3.1492  0.9966  0.2106
 2440TIP3    H2 7285   6.494   3.672   1.484 -1.9023 -0.6172 -0.5079
 2441TIP3   OH2 7286   0.448   0.280   3.954 -0.0260 -0.2510  0.4899
 2441TIP3    H1 7287   0.513   0.225   3.911  1.0622 -0.4986  2.3228
 2441TIP3    H2 7288   0.374   0.282   3.894  1.3740 -0.5994 -1.3149
 2442TIP3   OH2 7289   6.889   1.909   0.814 -0.9815 -0.0247 -0.4133
 2442TIP3    H1 7290   6.852   1.831   0.775 -1.6081  0.9979 -1.9493
 2442TIP3    H2 7291   6.835   1.981   0.782  1.3495  1.3779 -1.5270
 2443TIP3   OH2 7292   5.660   2.813   2.566 -0.0775  0.3580  0.3006
 2443TIP3    H1 7293   5.582   2.777   2.523  0.0860  0.2633  0.0785
 2443TIP3    H2 7294   5.733   2.786   2.510  0.2375 -0.5640  1.1313
 2444TIP3   OH2 7295   5.635   0.678   2.341  1.3697  0.2236  0.3237
 2444TIP3    H1 7296   5.542   0.698   2.332  0.1509 -3.6822  2.0639
 2444TIP3    H2 7297   5.679   0.760   2.317 -2.4335  2.3198 -0.4379
 2445TIP3   OH2 7298   2.927   5.379   2.829 -0.4987  0.1990  0.1678
 2445TIP3    H1 7299   2.927   5.336   2.914 -1.4240  0.6237  0.4023
 2445TIP3    H2 7300   3.003   5.438   2.831  0.2081 -0.7019  0.2099
 2446TIP3   OH2 7301   5.849   6.372   0.356  0.1814  0.1612 -0.6357
 2446TIP3    H1 7302   5.777   6.314   0.333  0.0442  1.0350 -2.6292
 2446TIP3    H2 7303   5.895   6.327   0.426 -1.2137 -1.2847 -0.6018
 2447TIP3   OH2 7304   4.929   2.782   5.499  0.3386  0.0835  0.0936
 2447TIP3    H1 7305   4.964   2.751   5.416  1.4920  0.3802  0.4341
 2447TIP3    H2 7306   5.002   2.832   5.538 -0.6055  1.0479  0.6896
 2448TIP3   OH2 7307   6.455   2.461   1.319 -0.0586  0.3704  0.3377
 2448TIP3    H1 7308   6.457   2.497   1.407  0.0696  1.0486  0.0591
 2448TIP3    H2 7309   6.473   2.535   1.261  0.6097 -0.2037 -0.2173
 2449TIP3   OH2 7310   1.870   5.516   2.030  0.5074  0.0946  0.0269
 2449TIP3    H1 7311   1.789   5.561   2.006 -1.0908 -2.0596  1.0108
 2449TIP3    H2 7312   1.905   5.568   2.102  0.6072  1.6477 -1.1045
 2450TIP3   OH2 7313   1.266   1.989   2.005  0.1756  0.6117 -0.4079
 2450TIP3    H1 7314   1.280   1.928   1.933 -1.2308 -0.4411  0.1681
 2450TIP3    H2 7315   1.271   1.934   2.084 -0.6053  1.3167  0.1515
 2451TIP3   OH2 7316   6.990   1.130   1.575 -0.3879 -0.0946  0.2349
 2451TIP3    H1 7317   6.989   1.036   1.556  2.2412  0.0310 -1.0721
 2451TIP3    H2 7318   7.025   1.136   1.663  0.2442 -0.3395  0.0070
 2452TIP3   OH2 7319   3.219   0.196   1.899 -0.0311  0.2737 -0.5867
 2452TIP3    H1 7320   3.230   0.286   1.871 -2.0633  0.4132 -1.0246
 2452TIP3    H2 7321   3.125   0.179   1.894  0.1487 -1.4804  0.6884
 2453TIP3   OH2 7322   3.637   5.613   4.771  0.2211  0.4533  0.4870
 2453TIP3    H1 7323   3.646   5.629   4.865  1.2594  1.0265  0.3112
 2453TIP3    H2 7324   3.639   5.701   4.732  0.2052  0.1966 -0.0903
 2454TIP3   OH2 7325   5.064   0.003   2.812 -0.1606 -0.0551  0.6179
 2454TIP3    H1 7326   5.010  -0.052   2.755  0.3413 -0.6652  0.7219
 2454TIP3    H2 7327   5.094   0.074   2.755  0.2726 -0.6165  0.1384
 2455TIP3   OH2 7328   6.286   6.543   5.017  0.3521  0.0342 -0.0681
 2455TIP3    H1 7329   6.289   6.477   4.947  0.1697 -1.2094  1.0420
 2455TIP3    H2 7330   6.378   6.556   5.040  0.4327  0.6701 -0.7307
 2456TIP3   OH2 7331   4.776   2.596   0.640  0.4924 -0.1228  0.0827
 2456TIP3    H1 7332   4.690   2.589   0.600  1.0915 -0.6229 -1.1586
 2456TIP3    H2 7333   4.763   2.654   0.715 -0.8343  0.1252 -0.3225
 2457TIP3   OH2 7334   2.323   1.681   3.448 -0.3890  0.4146  0.2678
 2457TIP3    H1 7335   2.381   1.607   3.425 -0.5958  0.3665 -0.1042
 2457TIP3    H2 7336   2.383   1.754   3.464 -0.2839  1.2768 -3.2789
 2458TIP3   OH2 7337   2.732   6.353   0.391  0.4718  0.1625  0.1379
 2458TIP3    H1 7338   2.672   6.280   0.408  0.7988 -0.0489  0.3919
 2458TIP3    H2 7339   2.819   6.314   0.394  0.6268  0.4793 -0.1795
 2459TIP3   OH2 7340   0.329   1.301   2.776 -0.0195  0.0653 -0.1403
 2459TIP3    H1 7341   0.356   1.211   2.790  1.0502 -0.0473 -2.5037
 2459TIP3    H2 7342   0.364   1.348   2.852  2.4622 -0.9677 -0.5253
 2460TIP3   OH2 7343   1.099   1.243   3.870 -0.1734 -0.2964 -0.4985
 2460TIP3    H1 7344   1.011   1.208   3.883 -1.1851  0.5341 -4.1258
 2460TIP3    H2 7345   1.153   1.166   3.856 -0.5049 -0.7707  0.7516
 2461TIP3   OH2 7346   5.370   2.327   4.257  0.3840  0.0863  0.1348
 2461TIP3    H1 7347   5.409   2.302   4.173  1.2949 -2.3877  1.2067
 2461TIP3    H2 7348   5.277   2.303   4.248 -0.3326  2.9007 -1.2319
 2462TIP3   OH2 7349   6.996   4.954   3.687  0.0794  0.6249  0.0626
 2462TIP3    H1 7350   7.016   4.860   3.682  1.4294  0.8817  0.3379
 2462TIP3    H2 7351   6.912   4.963   3.642  0.9390 -0.4193 -1.8829
 2463TIP3   OH2 7352   0.332   3.965   5.829  0.0257 -0.0199  0.3227
 2463TIP3    H1 7353   0.336   3.969   5.734 -0.7515 -0.1880  0.2737
 2463TIP3    H2 7354   0.373   4.047   5.858  0.1356  0.0987 -0.1578
 2464TIP3   OH2 7355   1.333   1.636   4.617 -0.3194  0.1051  0.1109
 2464TIP3    H1 7356   1.389   1.710   4.640 -0.0542 -1.1537  4.3051
 2464TIP3    H2 7357   1.395   1.568   4.588 -0.2853  0.4983 -0.7780
 2465TIP3   OH2 7358   3.621   5.120   2.047 -0.0693  0.4104  0.4523
 2465TIP3    H1 7359   3.596   5.175   2.121 -1.2517  0.5131 -0.0048
 2465TIP3    H2 7360   3.717   5.120   2.048 -0.0629  1.8115  0.9367
 2466TIP3   OH2 7361   5.762   1.639   2.051  0.2063 -0.0781  0.2096
 2466TIP3    H1 7362   5.671   1.665   2.034  0.5169  0.8580 -0.1255
 2466TIP3    H2 7363   5.755   1.568   2.114 -0.6995  1.1567  1.5674
 2467TIP3   OH2 7364   0.615   5.505   3.841  0.7303  0.4228  0.2616
 2467TIP3    H1 7365   0.689   5.451   3.812  0.3344 -0.0404  0.0909
 2467TIP3    H2 7366   0.640   5.535   3.928  0.4918 -0.9598  0.8427
 2468TIP3   OH2 7367   5.049   1.942   2.932  0.6574  0.0312  0.1498
 2468TIP3    H1 7368   4.991   1.892   2.990  1.4652 -0.8570  0.2027
 2468TIP3    H2 7369   5.133   1.942   2.977  0.4194  2.4585  0.7355
 2469TIP3   OH2 7370   5.384   1.190   4.470 -0.0982 -0.0205 -0.1825
 2469TIP3    H1 7371   5.297   1.231   4.478 -0.8662 -1.2707 -1.5571
 2469TIP3    H2 7372   5.408   1.167   4.560 -0.4992  1.6971  0.3862
 2470TIP3   OH2 7373   4.842   3.685   5.507 -0.8649 -0.3326  0.5059
 2470TIP3    H1 7374   4.923   3.705   5.554 -0.7776 -0.0974  0.2550
 2470TIP3    H2 7375   4.847   3.591   5.490 -0.7415 -0.3571  0.6757
 2471TIP3   OH2 7376   6.762   5.892   4.952 -0.0531  0.3119 -0.3291
 2471TIP3    H1 7377   6.784   5.973   4.997 -0.9884  0.8903 -0.8750
 2471TIP3    H2 7378   6.776   5.911   4.860  0.2579 -0.3367 -0.4221
 2472TIP3   OH2 7379   6.816   0.164   2.554 -0.4640 -0.0444 -0.5444
 2472TIP3    H1 7380   6.729   0.137   2.522 -0.5419 -0.9121  0.3440
 2472TIP3    H2 7381   6.816   0.137   2.646 -0.3624  2.6243  0.3133
 2473TIP3   OH2 7382   1.528   4.017   1.136  0.3260 -0.3616  0.4034
 2473TIP3    H1 7383   1.486   3.935   1.161  0.9002 -0.9639 -0.5069
 2473TIP3    H2 7384   1.545   4.062   1.218 -0.4326 -0.9326  0.8874
 2474TIP3   OH2 7385   0.807   1.318   4.594  0.0172  0.0339 -0.1403
 2474TIP3    H1 7386   0.884   1.335   4.647  0.7280 -2.5471 -0.2397
 2474TIP3    H2 7387   0.780   1.404   4.562  3.0191  0.9937 -0.3481
 2475TIP3   OH2 7388   1.073   2.499   0.518  0.5887  0.2020 -0.3230
 2475TIP3    H1 7389   1.134   2.493   0.592  0.0966 -0.2389  0.0568
 2475TIP3    H2 7390   1.054   2.408   0.495 -1.9936  0.2017  1.3126
 2476TIP3   OH2 7391   7.030   0.867   1.503  0.2630  0.0753  0.0972
 2476TIP3    H1 7392   7.017   0.788   1.555  0.2830  0.5600  0.8591
 2476TIP3    H2 7393   6.964   0.861   1.434 -1.0012  0.2853  1.2425
 2477TIP3   OH2 7394   2.916   4.760   0.737  0.2519 -0.2162  0.5176
 2477TIP3    H1 7395   2.978   4.806   0.681  0.4740 -0.5585  0.4784
 2477TIP3    H2 7396   2.971   4.707   0.796  0.0006 -0.4665  0.5309
 2478TIP3   OH2 7397   1.316   1.111   0.377 -0.3213 -0.0872 -0.0469
 2478TIP3    H1 7398   1.321   1.016   0.380 -2.2296 -0.2036  0.1006
 2478TIP3    H2 7399   1.293   1.131   0.286  0.5639  0.2867 -0.2044
 2479TIP3   OH2 7400   6.169   1.262   4.181  0.0093 -0.4389  0.1084
 2479TIP3    H1 7401   6.081   1.250   4.145 -0.2057  0.0383  0.4602
 2479TIP3    H2 7402   6.216   1.312   4.115 -0.5127  0.8028  0.6561
 2480TIP3   OH2 7403   5.904   6.627   5.438  0.0214 -0.5389  0.6752
 2480TIP3    H1 7404   5.955   6.687   5.384  1.8454 -0.2245  2.5825
 2480TIP3    H2 7405   5.934   6.540   5.412  0.6576 -0.4037  0.9285
 2481TIP3   OH2 7406   2.987   1.323   0.551  0.2698  0.2325 -0.3058
 2481TIP3    H1 7407   3.068   1.358   0.514  0.8118  1.2067  1.6597
 2481TIP3    H2 7408   2.986   1.356   0.641 -0.7226 -2.3824  0.7326
 2482TIP3   OH2 7409   5.779   3.077   5.217  0.0483  0.1072 -0.0948
 2482TIP3    H1 7410   5.747   3.092   5.127  1.1374 -2.1358 -0.9356
 2482TIP3    H2 7411   5.795   3.165   5.251 -0.2049  1.0356 -2.1636
 2483TIP3   OH2 7412   3.503   2.410   0.213  0.2924  0.6967  0.5167
 2483TIP3    H1 7413   3.422   2.447   0.179 -0.9509 -1.8990  0.3897
 2483TIP3    H2 7414   3.511   2.325   0.169  1.4451 -0.4673  2.7631
 2484TIP3   OH2 7415   1.534   1.939   0.893 -0.0587  0.1008 -0.3125
 2484TIP3    H1 7416   1.458   1.937   0.836 -0.3226  0.6390  0.0145
 2484TIP3    H2 7417   1.607   1.912   0.837 -0.4504 -0.2065 -0.6793
 2485TIP3   OH2 7418   0.655   1.295   5.152  0.3390 -0.3945 -0.0957
 2485TIP3    H1 7419   0.716   1.222   5.165  0.9032 -0.1612 -1.2814
 2485TIP3    H2 7420   0.701   1.371   5.187 -0.1568 -0.5538  0.9338
 2486TIP3   OH2 7421   6.902   5.898   2.345 -0.2643  0.5873  0.8611
 2486TIP3    H1 7422   6.909   5.991   2.321  2.0371 -0.2587 -2.4952
 2486TIP3    H2 7423   6.833   5.864   2.288 -0.8118  0.1071  1.7887
 2487TIP3   OH2 7424   1.044   3.192   2.208  0.3915  0.3652 -0.1824
 2487TIP3    H1 7425   0.975   3.125   2.207  0.4878  0.2344 -2.4246
 2487TIP3    H2 7426   1.008   3.265   2.158  1.0021  1.2585  0.6498
 2488TIP3   OH2 7427   6.707   4.067   1.342 -0.2579 -0.4066 -0.1957
 2488TIP3    H1 7428   6.772   4.111   1.287  0.1209 -0.7251 -0.0066
 2488TIP3    H2 7429   6.747   3.983   1.366 -1.3576 -1.3126 -1.3672
 2489TIP3   OH2 7430   6.722   0.259   4.845  0.5148  0.0906  0.0983
 2489TIP3    H1 7431   6.754   0.192   4.784  0.3501  1.1293 -1.1837
 2489TIP3    H2 7432   6.776   0.248   4.923  0.6755 -1.3463 -0.1858
 2490TIP3   OH2 7433   5.539   6.326   1.870  0.1387  0.2472 -0.1381
 2490TIP3    H1 7434   5.485   6.255   1.833  0.5863  0.0766 -0.4777
 2490TIP3    H2 7435   5.556   6.383   1.796  0.7404  0.0975 -0.1155
 2491TIP3   OH2 7436   6.865   0.357   5.409 -0.0340  0.3225  0.5328
 2491TIP3    H1 7437   6.885   0.366   5.316  0.6142 -1.1188  0.5150
 2491TIP3    H2 7438   6.848   0.264   5.422 -1.9411  0.7626  1.5309
 2492TIP3   OH2 7439   4.537   4.370   1.232  0.1592  0.0113 -0.3155
 2492TIP3    H1 7440   4.617   4.348   1.279  0.1407  0.1474 -0.2178
 2492TIP3    H2 7441   4.527   4.464   1.245 -0.1812 -0.0583 -0.0671
 2493TIP3   OH2 7442   0.242   0.510   1.507 -0.0681 -0.5736  0.0558
 2493TIP3    H1 7443   0.333   0.527   1.482 -0.0491 -0.7034  0.0363
 2493TIP3    H2 7444   0.213   0.591   1.549 -0.0671 -0.3934 -0.2859
 2494TIP3   OH2 7445   1.420   1.057   4.858 -0.4346 -0.0708 -0.3047
 2494TIP3    H1 7446   1.455   0.973   4.828 -1.3065 -0.9305  0.9734
 2494TIP3    H2 7447   1.488   1.091   4.916 -0.3986 -0.2815 -0.2199
 2495TIP3   OH2 7448   6.728   5.752   1.899  0.3173  0.3524 -0.4619
 2495TIP3    H1 7449   6.649   5.805   1.888  0.9564  0.9025 -3.1971
 2495TIP3    H2 7450   6.701   5.663   1.874  0.1005  0.0879  0.6547
 2496TIP3   OH2 7451   5.568   5.038   3.563  0.0289 -0.2406  0.1967
 2496TIP3    H1 7452   5.635   5.024   3.496  0.4061 -0.3012  0.5874
 2496TIP3    H2 7453   5.585   4.971   3.629 -0.3701 -0.2094  0.3365
 2497TIP3   OH2 7454   2.380   1.245   5.334  0.1779 -0.5842 -0.5997
 2497TIP3    H1 7455   2.350   1.165   5.291  1.7362 -1.8098  0.5091
 2497TIP3    H2 7456   2.450   1.217   5.392  2.8242  1.9708 -2.2826
 2498TIP3   OH2 7457   2.506   4.238   5.373 -0.7759  0.2340  0.3476
 2498TIP3    H1 7458   2.480   4.249   5.464 -0.3759  0.2113  0.4692
 2498TIP3    H2 7459   2.429   4.201   5.329 -0.9321  0.1441  0.6993
 2499TIP3   OH2 7460   6.064   4.986   4.018  0.0200 -0.0084 -0.1913
 2499TIP3    H1 7461   6.023   5.030   3.943 -0.6773 -0.4294 -0.0659
 2499TIP3    H2 7462   6.026   5.029   4.095 -2.4279 -2.2495 -0.0031
 2500TIP3   OH2 7463   2.664   6.310   4.506  0.4652 -0.2871 -0.4204
 2500TIP3    H1 7464   2.592   6.252   4.482  1.2886 -0.6189 -2.3075
 2500TIP3    H2 7465   2.625   6.373   4.566 -1.3809 -0.5376 -1.2887
 2501TIP3   OH2 7466   3.859   4.395   2.693  0.1765  0.0404  0.2509
 2501TIP3    H1 7467   3.764   4.396   2.695  0.1293 -1.8778  0.9359
 2501TIP3    H2 7468   3.882   4.458   2.624 -1.5820  0.2398 -0.2049
 2502TIP3   OH2 7469   3.882   5.170   0.348  0.5414 -0.0634  0.2962
 2502TIP3    H1 7470   3.920   5.146   0.263  1.9237 -1.8356  1.3404
 2502TIP3    H2 7471   3.901   5.095   0.405 -1.9087  0.3070  1.7303
 2503TIP3   OH2 7472   6.945   1.520   1.297 -0.0441 -0.4176 -0.3756
 2503TIP3    H1 7473   6.953   1.467   1.376  1.4833  0.2313 -0.0674
 2503TIP3    H2 7474   7.033   1.521   1.259 -0.4573  0.3643 -1.3867
 2504TIP3   OH2 7475   1.716   5.852   1.840  0.4794  0.0396 -0.1751
 2504TIP3    H1 7476   1.687   5.941   1.857  0.0456 -0.2191  0.5077
 2504TIP3    H2 7477   1.741   5.852   1.748 -1.5906  0.3235 -0.8015
 2505TIP3   OH2 7478   1.259   4.504   2.408  0.0369  0.1463 -0.4277
 2505TIP3    H1 7479   1.178   4.550   2.388 -0.3594  1.4156  3.3261
 2505TIP3    H2 7480   1.328   4.566   2.384 -0.4198  1.7341  1.9862
 2506TIP3   OH2 7481   5.715   0.139   2.446  0.2003 -0.5156  0.0180
 2506TIP3    H1 7482   5.634   0.115   2.491  0.1337  0.5197  0.4673
 2506TIP3    H2 7483   5.750   0.055   2.414  0.4622 -1.3425  2.3349
 2507TIP3   OH2 7484   5.813   6.564   3.472  0.1243 -0.2887  0.0073
 2507TIP3    H1 7485   5.902   6.576   3.440 -0.2477 -1.2355 -1.5073
 2507TIP3    H2 7486   5.800   6.469   3.470 -0.7629 -0.1965  0.6809
 2508TIP3   OH2 7487   4.158   3.739   3.101 -0.4068  0.1309 -0.2375
 2508TIP3    H1 7488   4.151   3.833   3.116  1.9291  0.4185 -0.5673
 2508TIP3    H2 7489   4.220   3.731   3.028  0.2744 -1.6856  0.4892
 2509TIP3   OH2 7490   1.317   4.318   4.798 -0.1919 -0.6801  0.0621
 2509TIP3    H1 7491   1.297   4.320   4.892  0.8732  2.4581  0.3413
 2509TIP3    H2 7492   1.269   4.242   4.765 -1.7280 -1.0765  2.8778
 2510TIP3   OH2 7493   4.131   0.570   1.275  0.3588 -0.5965  0.1731
 2510TIP3    H1 7494   4.110   0.655   1.315  0.1298 -0.2272 -0.7082
 2510TIP3    H2 7495   4.189   0.528   1.339 -0.6189 -0.3602  1.2585
 2511TIP3   OH2 7496   3.994   2.526   3.719  0.3524 -0.0764  0.2820
 2511TIP3    H1 7497   4.085   2.524   3.691  0.5150 -0.9292  0.8344
 2511TIP3    H2 7498   3.958   2.605   3.679  0.9029 -0.5916 -1.2979
 2512TIP3   OH2 7499   4.804   3.487   0.593  0.7993  0.2687  0.4077
 2512TIP3    H1 7500   4.730   3.498   0.653 -0.8347 -0.8647 -1.2643
 2512TIP3    H2 7501   4.797   3.561   0.533  1.0305  0.1583  0.2465
 2513TIP3   OH2 7502   0.801   0.865   0.182  0.4500  0.4944 -0.0034
 2513TIP3    H1 7503   0.834   0.876   0.093  1.0197 -1.2494 -0.0478
 2513TIP3    H2 7504   0.785   0.771   0.191  0.6088  0.5892  1.7919
 2514TIP3   OH2 7505   1.634   2.911   2.431  0.3334  0.1201  0.0277
 2514TIP3    H1 7506   1.641   3.004   2.413 -1.9281  0.6036  1.2754
 2514TIP3    H2 7507   1.616   2.871   2.346 -0.3155  1.0341 -0.2777
 2515TIP3   OH2 7508   4.646   5.354   4.826  0.5739 -0.7008  0.6197
 2515TIP3    H1 7509   4.622   5.264   4.805  0.5577 -1.1158  2.2562
 2515TIP3    H2 7510   4.720   5.346   4.887  0.8146  0.3991  0.5032
 2516TIP3   OH2 7511   4.621   6.507   1.751 -0.2181  0.2843 -0.3218
 2516TIP3    H1 7512   4.581   6.563   1.818 -1.7331  0.3804 -1.2777
 2516TIP3    H2 7513   4.578   6.423   1.761  2.3650 -0.9687  1.4112
 2517TIP3   OH2 7514   3.915   1.390   3.563 -0.0163 -0.2764  0.2330
 2517TIP3    H1 7515   3.854   1.327   3.602  0.0027  0.3256  1.2598
 2517TIP3    H2 7516   3.935   1.451   3.634  1.7786 -0.4477 -0.0768
 2518TIP3   OH2 7517   2.646   6.070   0.765  0.9891  0.3813 -0.3568
 2518TIP3    H1 7518   2.701   6.022   0.828 -0.2139  1.9913  2.0517
 2518TIP3    H2 7519   2.676   6.161   0.772 -0.7007  0.9634 -0.3595
 2519TIP3   OH2 7520   5.252   3.279   0.454 -0.1367  0.0962  0.3978
 2519TIP3    H1 7521   5.267   3.218   0.526 -1.6739 -0.9234 -0.0884
 2519TIP3    H2 7522   5.157   3.293   0.454 -0.4518 -1.2766 -2.4276
 2520TIP3   OH2 7523   0.338   4.617   0.099 -0.1385 -0.1966 -0.3548
 2520TIP3    H1 7524   0.277   4.546   0.077 -1.2795  0.8571 -0.7390
 2520TIP3    H2 7525   0.288   4.673   0.159  0.4295  0.7276 -0.7247
 2521TIP3   OH2 7526   0.323   4.847   4.331  0.8494 -0.4244  0.4482
 2521TIP3    H1 7527   0.352   4.827   4.242  1.0922  1.9420 -0.0620
 2521TIP3    H2 7528   0.258   4.778   4.351 -0.7693  0.1276 -2.3580
 2522TIP3   OH2 7529   6.104   4.019   4.872 -0.1194 -0.2656 -0.4485
 2522TIP3    H1 7530   6.164   3.964   4.821  0.2122 -1.3291  1.0323
 2522TIP3    H2 7531   6.052   3.957   4.922 -1.2273  0.7203 -0.3478
 2523TIP3   OH2 7532   2.347   4.780   0.092  0.9052 -0.4524  0.4641
 2523TIP3    H1 7533   2.401   4.774   0.171 -1.7634  0.0443  2.4750
 2523TIP3    H2 7534   2.298   4.698   0.090  0.4681 -0.1848 -0.3060
 2524TIP3   OH2 7535   0.131   4.995   1.030 -0.2510 -0.2635  0.0927
 2524TIP3    H1 7536   0.165   4.979   1.118 -1.4781 -0.8951  0.4614
 2524TIP3    H2 7537   0.209   4.996   0.974  0.3772 -1.7764  0.9042
 2525TIP3   OH2 7538   4.784   6.600   2.188  0.4062  0.1924  0.3348
 2525TIP3    H1 7539   4.777   6.505   2.202  0.8986  0.2376  0.9201
 2525TIP3    H2 7540   4.877   6.615   2.171  0.1244  0.4011 -1.1846
 2526TIP3   OH2 7541   4.309   3.604   3.659 -0.0165 -0.0858  0.4203
 2526TIP3    H1 7542   4.302   3.512   3.683 -0.0393  0.0807  1.0569
 2526TIP3    H2 7543   4.393   3.633   3.693  0.0019  0.1253  0.2037
 2527TIP3   OH2 7544   4.868   6.778   0.392  0.3891 -0.8638 -0.0731
 2527TIP3    H1 7545   4.836   6.855   0.346  1.8821  0.9399  1.7420
 2527TIP3    H2 7546   4.789   6.736   0.427 -0.3259  1.6048  1.4858
 2528TIP3   OH2 7547   3.281   5.738   3.018 -0.3608 -0.7017  0.1549
 2528TIP3    H1 7548   3.367   5.700   2.998 -0.0186  0.1254  0.0072
 2528TIP3    H2 7549   3.299   5.801   3.087 -0.9813 -1.0602  0.6494
 2529TIP3   OH2 7550   5.730   3.706   5.203  0.1595 -0.5447  0.1897
 2529TIP3    H1 7551   5.656   3.762   5.179  0.7298 -0.2639 -0.9890
 2529TIP3    H2 7552   5.800   3.767   5.225  0.5707 -0.7893 -0.4161
 2530TIP3   OH2 7553   5.433   4.744   4.943  0.0959  0.0863 -0.1657
 2530TIP3    H1 7554   5.424   4.734   5.037  1.4319 -0.8904 -0.1064
 2530TIP3    H2 7555   5.399   4.662   4.907 -0.1566  0.3433 -0.5254
 2531TIP3   OH2 7556   3.458   4.473   2.542 -0.2826  0.5190 -0.2051
 2531TIP3    H1 7557   3.540   4.428   2.564  0.7191  2.0218 -0.6477
 2531TIP3    H2 7558   3.413   4.414   2.482  0.4464 -0.3658  0.0874
 2532TIP3   OH2 7559   6.310   2.160   1.722  0.2077 -0.0629 -0.0258
 2532TIP3    H1 7560   6.285   2.111   1.644 -0.1564 -0.8734  0.5881
 2532TIP3    H2 7561   6.229   2.169   1.772  0.0518  2.0150 -0.5620
 2533TIP3   OH2 7562   5.321   0.394   2.119  0.1004  0.6256  0.1097
 2533TIP3    H1 7563   5.236   0.430   2.094  1.8002  2.5649 -3.5379
 2533TIP3    H2 7564   5.345   0.336   2.047  1.5795 -0.5032  1.4281
 2534TIP3   OH2 7565   4.033   3.467   1.704  0.4446 -0.1990  0.4713
 2534TIP3    H1 7566   4.003   3.555   1.681 -2.6078 -1.0517  0.7371
 2534TIP3    H2 7567   4.112   3.481   1.757 -0.5107  2.4264  1.3615
 2535TIP3   OH2 7568   2.108   6.026   1.113 -0.0822  0.0828 -0.3863
 2535TIP3    H1 7569   2.099   6.038   1.019 -0.8201 -1.1896 -0.4967
 2535TIP3    H2 7570   2.113   5.931   1.125  3.9258  0.2289  0.5221
 2536TIP3   OH2 7571   3.729   4.392   1.509  0.5468  0.0304  0.0918
 2536TIP3    H1 7572   3.734   4.324   1.442  1.0688  0.4407 -0.2830
 2536TIP3    H2 7573   3.666   4.455   1.474  0.1924 -0.1706  0.3627
 2537TIP3   OH2 7574   0.442   6.184   4.328 -0.3725 -0.3802  0.0417
 2537TIP3    H1 7575   0.421   6.099   4.366 -0.1039 -1.1648 -1.5070
 2537TIP3    H2 7576   0.449   6.168   4.234  2.0891  0.8360 -0.0719
 2538TIP3   OH2 7577   3.075   4.185   3.010 -0.2717 -0.0484  0.1189
 2538TIP3    H1 7578   3.148   4.166   3.071  0.2904  0.4132 -0.3992
 2538TIP3    H2 7579   3.040   4.269   3.040  0.1849  0.3169 -0.3528
 2539TIP3   OH2 7580   2.015   2.826   5.707 -0.2050 -0.1245  0.4053
 2539TIP3    H1 7581   2.027   2.920   5.720 -1.6960  0.2754 -0.8761
 2539TIP3    H2 7582   1.959   2.819   5.630  0.3267 -2.0906  0.1434
 2540TIP3   OH2 7583   1.196   5.583   1.938 -0.3447 -0.7659 -0.0268
 2540TIP3    H1 7584   1.113   5.542   1.914  1.4116 -2.7551 -3.6352
 2540TIP3    H2 7585   1.239   5.519   1.995  0.1121 -1.4342 -1.0932
 2541TIP3   OH2 7586   4.663   6.115   1.275  0.2180 -0.0661 -0.0009
 2541TIP3    H1 7587   4.679   6.167   1.196  2.1000 -0.3846  0.1051
 2541TIP3    H2 7588   4.676   6.177   1.347 -0.9775  0.1029  0.0769
 2542TIP3   OH2 7589   1.328   3.834   5.515  0.2285  0.2154 -0.4123
 2542TIP3    H1 7590   1.420   3.806   5.518  0.3430  0.1813  4.4954
 2542TIP3    H2 7591   1.332   3.928   5.529 -0.4986  0.2716 -0.5647
 2543TIP3   OH2 7592   1.230   5.822   4.990 -0.1910 -0.2797 -0.1795
 2543TIP3    H1 7593   1.265   5.733   4.994 -1.8257 -0.9554 -0.0947
 2543TIP3    H2 7594   1.163   5.825   5.058 -0.9922  0.6280 -0.9649
 2544TIP3   OH2 7595   3.231   3.028   2.850  0.1209  0.1603  0.2611
 2544TIP3    H1 7596   3.199   3.043   2.761  0.8413 -0.0589 -0.0347
 2544TIP3    H2 7597   3.299   3.093   2.863  0.2245 -0.0028  0.5496
 2545TIP3   OH2 7598   6.099   6.184   5.765 -0.4877 -0.1143 -0.4996
 2545TIP3    H1 7599   6.192   6.190   5.782 -0.3325 -2.4512 -0.1335
 2545TIP3    H2 7600   6.057   6.196   5.850 -0.4136 -0.6329 -0.3882
 2546TIP3   OH2 7601   2.219   4.449   2.673 -0.6386  0.0423  0.4050
 2546TIP3    H1 7602   2.301   4.442   2.722 -0.4466 -0.1637  0.0584
 2546TIP3    H2 7603   2.246   4.464   2.583 -0.9959  1.4689  0.5177
 2547TIP3   OH2 7604   5.426   6.031   3.714  0.0695 -0.1166 -0.5184
 2547TIP3    H1 7605   5.455   5.941   3.706 -0.0803 -0.1106 -1.1963
 2547TIP3    H2 7606   5.395   6.039   3.804  1.6960 -0.2565  0.0886
 2548TIP3   OH2 7607   1.084   1.724   1.951 -0.1542  0.5247 -0.2647
 2548TIP3    H1 7608   1.174   1.692   1.950 -0.6596 -0.9996  0.2828
 2548TIP3    H2 7609   1.068   1.756   1.862  0.7845  0.4155 -0.4739
 2549TIP3   OH2 7610   4.830   1.403   3.625 -0.1276  0.0514 -0.1153
 2549TIP3    H1 7611   4.782   1.472   3.579 -0.5489  0.6220  1.1584
 2549TIP3    H2 7612   4.764   1.361   3.681  0.2816 -0.9259 -0.3474
 2550TIP3   OH2 7613   1.192   1.671   2.458  0.3951  0.5301 -0.0447
 2550TIP3    H1 7614   1.141   1.691   2.380 -0.7207 -1.8235 -0.0009
 2550TIP3    H2 7615   1.161   1.733   2.524  1.1417  2.3499 -1.3115
 2551TIP3   OH2 7616   6.544   1.274   2.064  0.8011  0.7748 -0.2617
 2551TIP3    H1 7617   6.465   1.229   2.035  0.7512 -0.3497  1.5295
 2551TIP3    H2 7618   6.616   1.217   2.036  0.8424  0.5269  0.3490
 2552TIP3   OH2 7619   2.465   4.332   1.907  0.0507  0.2606  0.0235
 2552TIP3    H1 7620   2.395   4.268   1.917  1.4723 -1.3889 -0.0392
 2552TIP3    H2 7621   2.466   4.352   1.813 -2.0037  2.3712  0.3649
 2553TIP3   OH2 7622   5.016   5.048   4.484 -0.1442 -0.4087  0.3644
 2553TIP3    H1 7623   4.971   5.091   4.557 -0.4656 -1.4087  0.7776
 2553TIP3    H2 7624   4.951   4.987   4.449  0.4929 -0.9952  0.1848
 2554TIP3   OH2 7625   0.492   6.096   1.825  0.0985  0.3874  0.0902
 2554TIP3    H1 7626   0.560   6.075   1.888  1.1879 -0.8170 -1.3917
 2554TIP3    H2 7627   0.419   6.037   1.847 -0.1892  1.1571  1.2256
 2555TIP3   OH2 7628   6.712   3.785   0.274 -0.1545  0.1045 -0.4234
 2555TIP3    H1 7629   6.726   3.879   0.269  0.1212  0.0998  0.1378
 2555TIP3    H2 7630   6.786   3.752   0.325 -0.3073 -0.3994 -0.5173
 2556TIP3   OH2 7631   2.646   1.285   4.684 -0.0576  0.2778  0.0431
 2556TIP3    H1 7632   2.565   1.247   4.717  0.8125 -0.4083  1.4904
 2556TIP3    H2 7633   2.639   1.278   4.589 -0.2422 -2.9521  0.2058
 2557TIP3   OH2 7634   2.450   3.000   4.261  0.0422 -0.2120 -0.1701
 2557TIP3    H1 7635   2.535   3.044   4.265 -0.8974  1.6866  0.1733
 2557TIP3    H2 7636   2.448   2.961   4.174  0.6622  1.0749 -0.7965
 2558TIP3   OH2 7637   4.991   4.807   4.152  0.6818  0.2329  0.4564
 2558TIP3    H1 7638   5.046   4.790   4.076  0.6962 -0.6539  0.6527
 2558TIP3    H2 7639   5.023   4.746   4.219 -2.1284 -2.2476 -0.2035
 2559TIP3   OH2 7640   4.658   1.481   1.061  0.1385 -0.1237  0.2581
 2559TIP3    H1 7641   4.689   1.455   0.975 -1.1653 -1.0188  0.0257
 2559TIP3    H2 7642   4.708   1.427   1.122  0.2474 -0.3238 -0.0056
 2560TIP3   OH2 7643   5.824   1.360   5.268 -0.0028  0.6419 -0.0845
 2560TIP3    H1 7644   5.834   1.301   5.193  0.1547  0.0130  0.4265
 2560TIP3    H2 7645   5.889   1.430   5.252  0.6764  0.0234 -0.0661
 2561TIP3   OH2 7646   1.149   0.769   0.610 -0.0558 -0.3016 -0.3418
 2561TIP3    H1 7647   1.118   0.713   0.539 -0.2853 -2.4857  1.3616
 2561TIP3    H2 7648   1.244   0.761   0.608  0.0911  1.3161 -1.6334
 2562TIP3   OH2 7649   2.338   5.118   4.694 -0.1583 -0.1669 -0.0203
 2562TIP3    H1 7650   2.245   5.131   4.678 -0.3752 -1.1640  0.3540
 2562TIP3    H2 7651   2.369   5.069   4.618  0.6001  2.2191 -1.3194
 2563TIP3   OH2 7652   5.663   1.967   2.241  0.4030 -0.2869 -0.0412
 2563TIP3    H1 7653   5.667   1.950   2.335 -1.4899  2.2469  0.6381
 2563TIP3    H2 7654   5.678   1.882   2.200 -0.7553 -1.8971  2.5995
 2564TIP3   OH2 7655   5.763   2.741   0.780 -0.2236  0.1920  0.1454
 2564TIP3    H1 7656   5.743   2.788   0.699 -0.3203  1.8625  1.0945
 2564TIP3    H2 7657   5.793   2.655   0.751 -1.3936  0.3311 -1.6042
 2565TIP3   OH2 7658   3.000   1.942   5.661 -0.2588 -0.3595 -0.2141
 2565TIP3    H1 7659   2.941   1.964   5.589 -0.0796 -0.5620 -0.4272
 2565TIP3    H2 7660   3.085   1.928   5.618  0.3510  1.6111  0.2697
 2566TIP3   OH2 7661   4.457   6.677   0.205  0.6340 -0.3434 -0.2284
 2566TIP3    H1 7662   4.434   6.769   0.220 -0.3908 -0.2862 -1.8056
 2566TIP3    H2 7663   4.409   6.628   0.272  2.2157  0.3150  1.4599
 2567TIP3   OH2 7664   1.344   5.381   2.121 -0.0184  0.2103  0.0680
 2567TIP3    H1 7665   1.293   5.302   2.137 -1.0328  0.7534 -0.4311
 2567TIP3    H2 7666   1.372   5.410   2.208  0.8536 -1.0022  0.2156
 2568TIP3   OH2 7667   5.468   1.192   0.512  1.1926  0.3246 -0.4330
 2568TIP3    H1 7668   5.529   1.175   0.583  0.7990  0.5677 -0.0266
 2568TIP3    H2 7669   5.395   1.237   0.554  0.5925 -0.2355 -0.8501
 2569TIP3   OH2 7670   3.380   6.288   1.175 -0.4003 -0.2927 -0.3976
 2569TIP3    H1 7671   3.390   6.205   1.130 -0.1496 -0.1713 -0.5722
 2569TIP3    H2 7672   3.308   6.275   1.236  1.2688 -1.4672  1.4436
 2570TIP3   OH2 7673   2.280   5.025   4.982  0.2447 -0.4135  0.6343
 2570TIP3    H1 7674   2.191   4.998   5.006 -0.0733  0.4651  0.4675
 2570TIP3    H2 7675   2.294   4.988   4.895  0.0294 -0.5348  0.6511
 2571TIP3   OH2 7676   1.808   6.417   4.108 -0.2526 -0.5338 -0.0702
 2571TIP3    H1 7677   1.894   6.456   4.097 -1.3087  2.3082  0.8319
 2571TIP3    H2 7678   1.808   6.342   4.049  3.0401 -1.0740  0.4351
 2572TIP3   OH2 7679   1.806   1.120   0.402 -0.9060  0.2436 -0.0524
 2572TIP3    H1 7680   1.764   1.052   0.349 -1.0084  1.7388 -1.9837
 2572TIP3    H2 7681   1.897   1.121   0.371 -0.5294  0.0102  1.0088
 2573TIP3   OH2 7682   0.396   0.240   2.051  0.0628 -0.3190  0.2486
 2573TIP3    H1 7683   0.350   0.198   1.978 -0.6014  1.0427 -0.1567
 2573TIP3    H2 7684   0.327   0.265   2.112  0.2031  1.6814 -0.3345
 2574TIP3   OH2 7685   3.590   3.675   3.990  0.2046 -0.2403 -0.1060
 2574TIP3    H1 7686   3.579   3.585   4.021 -1.2222 -0.1070 -0.1740
 2574TIP3    H2 7687   3.539   3.680   3.909 -1.2253  1.0655  0.8036
 2575TIP3   OH2 7688   5.034   6.586   1.458 -0.4102  0.1801  0.1227
 2575TIP3    H1 7689   5.115   6.549   1.424  0.0868  0.0228  1.4332
 2575TIP3    H2 7690   5.017   6.662   1.402  1.0247  0.6290  0.2407
 2576TIP3   OH2 7691   6.594   2.200   4.566 -0.1871  0.0573  0.5295
 2576TIP3    H1 7692   6.579   2.260   4.639  0.3896  1.6372 -0.5984
 2576TIP3    H2 7693   6.687   2.179   4.571 -0.3462 -0.6208  0.8012
 2577TIP3   OH2 7694   4.204   5.794   4.977  0.0124  0.4666 -0.2263
 2577TIP3    H1 7695   4.195   5.756   5.065 -0.5541  0.3560 -0.3277
 2577TIP3    H2 7696   4.214   5.888   4.992  0.8431  0.3522 -0.0017
 2578TIP3   OH2 7697   6.512   1.179   4.272 -0.4214  0.2437 -0.0096
 2578TIP3    H1 7698   6.501   1.086   4.252 -3.1034  0.5756 -0.4677
 2578TIP3    H2 7699   6.484   1.187   4.364 -1.0507  0.7147 -0.2373
 2579TIP3   OH2 7700   6.528   0.528   3.444  0.3920 -0.2034  0.3751
 2579TIP3    H1 7701   6.504   0.441   3.477  1.8602 -0.2880  1.3113
 2579TIP3    H2 7702   6.521   0.586   3.520 -0.7077  0.5500 -0.2740
 2580TIP3   OH2 7703   1.718   1.491   3.112 -0.1248  0.4159  0.3807
 2580TIP3    H1 7704   1.677   1.407   3.093 -0.6326  0.8262 -0.3613
 2580TIP3    H2 7705   1.662   1.556   3.070 -0.1361  1.1993  1.5481
 2581TIP3   OH2 7706   4.280   1.691   3.080 -0.1101 -0.7827  0.6449
 2581TIP3    H1 7707   4.194   1.691   3.037 -0.4300  1.9302  1.1095
 2581TIP3    H2 7708   4.319   1.607   3.054 -1.8207 -0.9634 -1.7469
 2582TIP3   OH2 7709   0.614   6.646   2.879 -0.0979  0.2241 -0.2448
 2582TIP3    H1 7710   0.556   6.580   2.918 -1.6482 -0.1277 -2.9440
 2582TIP3    H2 7711   0.700   6.628   2.919 -1.6567  0.6163  3.7096
 2583TIP3   OH2 7712   4.072   4.291   1.460  0.5838  0.3279  0.0744
 2583TIP3    H1 7713   4.112   4.378   1.455 -0.0513  0.5600 -1.6616
 2583TIP3    H2 7714   4.070   4.260   1.370  1.4780 -1.8350  0.7321
 2584TIP3   OH2 7715   2.722   4.631   1.012 -0.3883  0.0877 -0.1328
 2584TIP3    H1 7716   2.664   4.638   1.088 -0.1677 -1.1300  0.1679
 2584TIP3    H2 7717   2.760   4.719   1.002  0.8481 -0.1182  2.1809
 2585TIP3   OH2 7718   0.803   6.630   0.079  0.0699 -0.1277 -0.4358
 2585TIP3    H1 7719   0.770   6.717   0.060  1.2960  0.2789 -0.7989
 2585TIP3    H2 7720   0.891   6.644   0.114  0.2529 -1.2047 -0.4136
 2586TIP3   OH2 7721   0.069   4.963   3.473 -0.0972 -0.3434  0.0429
 2586TIP3    H1 7722  -0.020   4.963   3.509  0.0833  0.9564  0.5281
 2586TIP3    H2 7723   0.058   4.989   3.382 -0.1269  0.7336  0.3501
 2587TIP3   OH2 7724   3.609   0.068   0.281 -0.0600 -0.4821  0.2183
 2587TIP3    H1 7725   3.570   0.094   0.365 -2.3671 -1.4365 -0.4836
 2587TIP3    H2 7726   3.704   0.073   0.296 -0.4116  1.0063  2.3340
 2588TIP3   OH2 7727   3.718   3.156   0.402 -0.1854 -0.5862  0.1803
 2588TIP3    H1 7728   3.811   3.169   0.379  0.1613  1.9757  2.4919
 2588TIP3    H2 7729   3.675   3.237   0.373 -1.1008 -0.4737  1.7776
 2589TIP3   OH2 7730   3.351   1.075   3.342 -0.1773 -0.3584  0.4978
 2589TIP3    H1 7731   3.286   1.072   3.412 -1.2447  1.0986 -0.3688
 2589TIP3    H2 7732   3.301   1.056   3.262  0.7398 -0.5999 -0.0315
 2590TIP3   OH2 7733   3.363   0.336   0.238  0.1205  0.3508  0.0615
 2590TIP3    H1 7734   3.451   0.316   0.269  0.6273  0.3293 -1.3078
 2590TIP3    H2 7735   3.321   0.380   0.312  1.0859 -0.1514  0.9328
 2591TIP3   OH2 7736   4.139   1.166   1.213 -0.0551 -0.0619  0.3436
 2591TIP3    H1 7737   4.150   1.242   1.156 -1.6819 -0.9961 -1.3168
 2591TIP3    H2 7738   4.049   1.172   1.245  0.2788 -0.5067  1.4068
 2592TIP3   OH2 7739   4.783   0.015   5.017  0.3328 -0.0807  0.2092
 2592TIP3    H1 7740   4.873   0.046   5.023  0.5410 -0.7351  0.5525
 2592TIP3    H2 7741   4.734   0.074   5.074  0.6620 -0.1476  0.5668
 2593TIP3   OH2 7742   1.494   1.318   5.338 -0.0636  0.2845 -0.2665
 2593TIP3    H1 7743   1.452   1.371   5.405  0.7433 -1.5963  1.8636
 2593TIP3    H2 7744   1.427   1.254   5.313 -0.4103  1.0749 -1.3869
 2594TIP3   OH2 7745   3.805   0.556   3.258  0.5496 -0.0294  0.0103
 2594TIP3    H1 7746   3.822   0.530   3.349  2.9798 -1.1771 -0.6917
 2594TIP3    H2 7747   3.869   0.625   3.240  1.5828 -1.2880 -1.4117
 2595TIP3   OH2 7748   4.026   2.171   4.090 -0.3737  0.0589 -0.3267
 2595TIP3    H1 7749   3.945   2.179   4.040 -1.2308 -2.4017  0.5436
 2595TIP3    H2 7750   4.096   2.183   4.025 -1.3508  2.0345 -1.1231
 2596TIP3   OH2 7751   0.623   5.021   3.141  0.3451  0.4478  0.0501
 2596TIP3    H1 7752   0.651   5.040   3.052 -0.8895  1.0770 -0.2349
 2596TIP3    H2 7753   0.599   4.928   3.139  1.7886  0.0602  0.1507
 2597TIP3   OH2 7754   2.207   0.392   5.552 -0.3901  0.2848  0.1012
 2597TIP3    H1 7755   2.138   0.446   5.590  1.2070  2.8900 -0.4218
 2597TIP3    H2 7756   2.243   0.446   5.481  1.6731 -1.2806 -0.1430
 2598TIP3   OH2 7757   1.684   0.559   1.775 -0.3065 -0.1402  0.9323
 2598TIP3    H1 7758   1.592   0.552   1.749  0.4624 -1.6676 -1.7577
 2598TIP3    H2 7759   1.690   0.644   1.819 -2.6922  0.6648 -0.1277
 2599TIP3   OH2 7760   2.444   0.666   2.851  0.4958 -0.6933 -0.0053
 2599TIP3    H1 7761   2.422   0.676   2.758 -0.8150 -1.8107  0.1561
 2599TIP3    H2 7762   2.537   0.644   2.851  1.2176  1.9141 -0.8575
 2600TIP3   OH2 7763   6.239   3.248   4.430 -0.2232  0.0035  0.1864
 2600TIP3    H1 7764   6.321   3.281   4.467  0.5432  0.3484 -1.6765
 2600TIP3    H2 7765   6.182   3.325   4.423 -0.5655 -0.1587  1.0915
 2601TIP3   OH2 7766   3.957   3.751   5.661 -0.1769  0.0171 -0.1860
 2601TIP3    H1 7767   4.039   3.755   5.710  0.1928 -2.2106 -0.5066
 2601TIP3    H2 7768   3.983   3.723   5.574 -1.1695  0.6326 -0.6980
 2602TIP3   OH2 7769   2.306   0.746   5.299 -0.3169 -0.1462  0.0777
 2602TIP3    H1 7770   2.245   0.675   5.319  1.7994 -2.0530  0.2667
 2602TIP3    H2 7771   2.302   0.804   5.374 -0.8840 -0.9800  0.7093
 2603TIP3   OH2 7772   3.312   0.990   5.402  0.3445 -0.0910 -0.2637
 2603TIP3    H1 7773   3.367   0.973   5.326  2.0914  1.1042  0.6385
 2603TIP3    H2 7774   3.338   0.924   5.466  1.0014  0.6472  0.2644
 2604TIP3   OH2 7775   0.137   0.061   2.024  0.1351  0.1006 -0.1780
 2604TIP3    H1 7776   0.183  -0.018   1.996 -0.1805  0.1501 -0.8655
 2604TIP3    H2 7777   0.053   0.057   1.977  0.1600  0.8851 -0.2965
 2605TIP3   OH2 7778   3.333   2.863   4.646 -0.1490 -0.2205 -0.1807
 2605TIP3    H1 7779   3.383   2.785   4.671 -0.1868 -0.2777 -0.2859
 2605TIP3    H2 7780   3.242   2.841   4.666 -0.6588 -1.5004 -3.2995
 2606TIP3   OH2 7781   2.687   5.015   3.158  0.6610  0.7158 -0.0980
 2606TIP3    H1 7782   2.689   5.110   3.154 -0.9060  0.7882  0.2092
 2606TIP3    H2 7783   2.608   4.994   3.208  0.4442 -0.7599 -0.9779
 2607TIP3   OH2 7784   3.462   3.598   3.239 -0.0805 -0.2926  0.0686
 2607TIP3    H1 7785   3.549   3.571   3.210 -0.3329 -1.7177  0.5516
 2607TIP3    H2 7786   3.430   3.524   3.292 -2.3910 -0.6969 -1.7070
 2608TIP3   OH2 7787   5.401   2.827   3.846 -0.3450 -0.1496  0.1460
 2608TIP3    H1 7788   5.388   2.880   3.767  0.9449  0.5792  0.3897
 2608TIP3    H2 7789   5.314   2.796   3.870 -1.6049  3.8214  1.3698
 2609TIP3   OH2 7790   6.086   4.658   1.906 -0.2321 -0.1131 -0.1181
 2609TIP3    H1 7791   6.175   4.644   1.873  0.5726 -0.9314  2.2063
 2609TIP3    H2 7792   6.078   4.598   1.980 -1.7747  1.8342  1.3912
 2610TIP3   OH2 7793   5.971   5.546   3.224  0.1146 -0.3043 -0.2764
 2610TIP3    H1 7794   5.902   5.522   3.162  0.7798 -0.0262 -1.1591
 2610TIP3    H2 7795   5.931   5.536   3.310 -1.0468 -0.0486 -0.7638
 2611TIP3   OH2 7796   5.699   4.483   3.074  0.2505  0.3229  0.0727
 2611TIP3    H1 7797   5.690   4.450   3.163 -0.5190 -2.6666 -0.9949
 2611TIP3    H2 7798   5.790   4.463   3.051  0.2063  0.2952 -0.0783
 2612TIP3   OH2 7799   2.432   1.102   4.916 -0.2477 -0.4456 -0.5573
 2612TIP3    H1 7800   2.447   1.071   5.006  0.6899  1.5656  0.0388
 2612TIP3    H2 7801   2.394   1.189   4.927 -1.0563 -0.5562 -2.1502
 2613TIP3   OH2 7802   5.345   4.119   3.841 -0.2342  0.0859 -0.4281
 2613TIP3    H1 7803   5.256   4.148   3.819  0.2188  1.2712 -0.7868
 2613TIP3    H2 7804   5.398   4.198   3.833  0.8907 -0.6491 -0.3883
 2614TIP3   OH2 7805   1.465   6.025   1.450  0.1239  0.5371  0.1867
 2614TIP3    H1 7806   1.421   6.047   1.367  0.5308  1.0511  0.0980
 2614TIP3    H2 7807   1.402   6.048   1.517  0.6217  2.2643  0.1042
 2615TIP3   OH2 7808   1.712   5.193   0.574  0.2871  0.2496 -0.1521
 2615TIP3    H1 7809   1.668   5.114   0.543 -1.5287  1.7705 -1.7292
 2615TIP3    H2 7810   1.805   5.173   0.566 -0.1142 -1.6390 -0.7027
 2616TIP3   OH2 7811   3.286   1.912   2.337  0.0107  0.7437  0.0200
 2616TIP3    H1 7812   3.208   1.922   2.283 -0.2991 -0.2128  0.2709
 2616TIP3    H2 7813   3.350   1.868   2.280 -0.3121 -0.2552  0.4051
 2617TIP3   OH2 7814   1.086   3.929   0.161  0.2562  0.2161 -0.0235
 2617TIP3    H1 7815   1.156   3.994   0.149 -0.6009  1.1740  0.0818
 2617TIP3    H2 7816   1.077   3.888   0.075  0.0442  1.0209 -0.3952
 2618TIP3   OH2 7817   3.703   1.960   3.640  0.6821 -0.8364 -0.1993
 2618TIP3    H1 7818   3.687   1.912   3.559 -0.4748 -0.5879 -0.1241
 2618TIP3    H2 7819   3.740   2.044   3.611  1.3844 -1.2066 -0.3985
 2619TIP3   OH2 7820   1.286   2.214   1.472  0.2827  0.2512  0.0391
 2619TIP3    H1 7821   1.314   2.250   1.388 -0.5393  1.4191  0.2512
 2619TIP3    H2 7822   1.301   2.284   1.535  1.2692 -0.7467  0.9636
 2620TIP3   OH2 7823   1.900   5.797   4.308 -0.0549  0.2848 -0.0498
 2620TIP3    H1 7824   1.962   5.848   4.360 -1.0932 -0.2410  1.7795
 2620TIP3    H2 7825   1.902   5.710   4.346  1.3524 -1.0348 -2.8497
 2621TIP3   OH2 7826   6.936   2.076   3.087 -0.0245  0.1201 -0.2469
 2621TIP3    H1 7827   6.988   2.022   3.027  0.2904  0.3585 -0.1922
 2621TIP3    H2 7828   6.976   2.062   3.173 -1.2855 -1.2504  0.1540
 2622TIP3   OH2 7829   0.094   4.634   1.523 -0.0455 -0.3519 -0.1168
 2622TIP3    H1 7830   0.084   4.718   1.479 -1.4471  0.6846  2.0001
 2622TIP3    H2 7831   0.186   4.634   1.553 -0.3859  1.1268  1.0791
 2623TIP3   OH2 7832   6.005   3.521   2.545 -0.0656 -0.7651 -0.1347
 2623TIP3    H1 7833   6.000   3.531   2.640  1.9048 -0.3391 -0.0512
 2623TIP3    H2 7834   5.923   3.559   2.513  0.8253  2.5127  1.1408
 2624TIP3   OH2 7835   3.440   3.504   0.858 -0.3222 -0.3425  0.1695
 2624TIP3    H1 7836   3.499   3.436   0.891  0.9944  0.1505 -1.0568
 2624TIP3    H2 7837   3.390   3.460   0.790 -1.2994 -0.7157  1.0956
 2625TIP3   OH2 7838   6.797   6.728   4.867 -0.0600  0.1836  0.4411
 2625TIP3    H1 7839   6.722   6.669   4.851 -0.1048  0.1689  0.6999
 2625TIP3    H2 7840   6.757   6.814   4.879  0.0727  0.4567 -0.9113
 2626TIP3   OH2 7841   3.076   3.268   0.410  0.1431 -0.2093 -0.5990
 2626TIP3    H1 7842   3.012   3.210   0.369  1.1430 -1.1376 -0.9083
 2626TIP3    H2 7843   3.143   3.280   0.343  0.4861  0.4225 -0.1490
 2627TIP3   OH2 7844   4.669   2.870   1.426  0.2169  0.3637  0.2191
 2627TIP3    H1 7845   4.749   2.822   1.405  0.7377  0.9681  0.7853
 2627TIP3    H2 7846   4.692   2.924   1.502 -0.0111  2.3149 -1.0105
 2628TIP3   OH2 7847   0.967   2.035   2.216 -0.5153 -0.1824  0.2217
 2628TIP3    H1 7848   1.048   2.018   2.264  0.2446  1.3405 -0.4453
 2628TIP3    H2 7849   0.996   2.080   2.136 -1.9899  0.1062 -0.1805
 2629TIP3   OH2 7850   2.829   1.121   0.943 -0.1752  0.5119  0.1296
 2629TIP3    H1 7851   2.812   1.090   0.854 -0.2108  0.1312  0.2650
 2629TIP3    H2 7852   2.814   1.044   0.998 -4.2226  1.6460  0.9160
 2630TIP3   OH2 7853   2.858   2.775   1.660 -0.2508  0.5236  0.0596
 2630TIP3    H1 7854   2.919   2.728   1.717 -1.3964  0.4857  1.3019
 2630TIP3    H2 7855   2.909   2.849   1.626  0.8918 -0.3052 -0.0958
 2631TIP3   OH2 7856   4.600   0.693   2.959  0.1178  0.5554 -0.5677
 2631TIP3    H1 7857   4.544   0.706   2.883  1.3016  0.7265 -1.4375
 2631TIP3    H2 7858   4.659   0.768   2.959  0.8187  0.0216 -0.1037
 2632TIP3   OH2 7859   0.654   3.660   4.395 -0.4418 -0.4296 -0.6215
 2632TIP3    H1 7860   0.677   3.652   4.488 -0.1061  2.0702 -0.4087
 2632TIP3    H2 7861   0.595   3.735   4.392  2.0268  1.6281 -2.7304
 2633TIP3   OH2 7862   3.820   0.672   5.414  0.4979  0.2795  0.1159
 2633TIP3    H1 7863   3.861   0.737   5.358  2.0946 -0.2520  0.5911
 2633TIP3    H2 7864   3.888   0.651   5.479 -0.5333 -0.6876  0.9163
 2634TIP3   OH2 7865   6.530   0.860   3.727 -0.3104 -0.4469 -0.4018
 2634TIP3    H1 7866   6.598   0.870   3.793 -1.0799  0.0298  0.3507
 2634TIP3    H2 7867   6.474   0.790   3.761 -0.4051 -0.5762 -0.8202
 2635TIP3   OH2 7868   2.699   3.872   5.870 -0.3423 -0.2307  0.0758
 2635TIP3    H1 7869   2.656   3.887   5.955  0.1747  1.9011  0.0210
 2635TIP3    H2 7870   2.638   3.908   5.806 -0.9511 -2.2727 -0.5708
 2636TIP3   OH2 7871   2.666   5.634   3.823  0.2078 -0.0603 -0.6435
 2636TIP3    H1 7872   2.666   5.729   3.807  1.5414 -0.1321 -1.1867
 2636TIP3    H2 7873   2.689   5.626   3.916  1.7866  0.1267 -0.9921
 2637TIP3   OH2 7874   1.177   0.817   1.868  0.4663 -0.3524  0.3297
 2637TIP3    H1 7875   1.106   0.753   1.870  1.1878 -1.1531  0.8980
 2637TIP3    H2 7876   1.133   0.902   1.879 -0.4088 -0.8115  0.4873
 2638TIP3   OH2 7877   6.212   5.612   0.460 -0.0462  0.3112  0.3678
 2638TIP3    H1 7878   6.157   5.687   0.481 -0.1720  0.5131 -0.6374
 2638TIP3    H2 7879   6.255   5.589   0.542  0.2866  1.7180  0.5990
 2639TIP3   OH2 7880   1.312   2.334   0.202 -0.2000  0.0847  0.6923
 2639TIP3    H1 7881   1.329   2.241   0.188 -1.9888  0.0596 -2.1015
 2639TIP3    H2 7882   1.220   2.346   0.179  0.2800  2.7453 -0.2585
 2640TIP3   OH2 7883   3.539   6.572   5.713  0.0285 -0.2110  0.1466
 2640TIP3    H1 7884   3.518   6.573   5.806  0.4660  0.6523  0.2419
 2640TIP3    H2 7885   3.454   6.574   5.669 -0.1756 -0.4781  0.5269
 2641TIP3   OH2 7886   5.481   1.772   3.264  0.2058 -1.1639 -0.1914
 2641TIP3    H1 7887   5.449   1.826   3.336  1.0092  1.0971 -1.4541
 2641TIP3    H2 7888   5.536   1.706   3.307  0.6611  0.1155  1.2716
 2642TIP3   OH2 7889   1.568   2.308   3.918  0.0306 -0.2990  0.1938
 2642TIP3    H1 7890   1.530   2.361   3.847  0.8776  1.0760  0.7320
 2642TIP3    H2 7891   1.638   2.258   3.876 -0.9954 -1.3186 -0.3873
 2643TIP3   OH2 7892   2.250   1.335   2.820 -0.3448  0.3178 -0.0541
 2643TIP3    H1 7893   2.242   1.332   2.724 -0.0280  0.2456 -0.0772
 2643TIP3    H2 7894   2.291   1.420   2.838  2.0654 -0.7515 -0.1549
 2644TIP3   OH2 7895   5.069   3.826   2.760 -0.3644 -0.3139 -0.0868
 2644TIP3    H1 7896   5.070   3.818   2.665  1.7699 -0.8284 -0.0773
 2644TIP3    H2 7897   5.130   3.758   2.790  1.5318  1.8965  1.4146
 2645TIP3   OH2 7898   1.173   4.773   0.627 -0.0405  0.1597  0.3661
 2645TIP3    H1 7899   1.201   4.863   0.641 -0.4038  0.2020  0.8528
 2645TIP3    H2 7900   1.082   4.780   0.599  0.1845 -0.0162 -0.4423
 2646TIP3   OH2 7901   3.247   0.190   4.457  0.2229 -0.0977  0.1491
 2646TIP3    H1 7902   3.327   0.137   4.467  0.5617  0.4455  0.3672
 2646TIP3    H2 7903   3.199   0.176   4.538 -0.0477 -0.6643 -0.1087
 2647TIP3   OH2 7904   3.989   3.890   2.155 -0.5493 -0.5564 -0.1256
 2647TIP3    H1 7905   3.944   3.974   2.157  0.3181 -0.0846  0.1874
 2647TIP3    H2 7906   4.081   3.912   2.173 -0.4384 -1.6517  0.6872
 2648TIP3   OH2 7907   4.992   2.594   0.480  0.4105 -0.0861 -0.5079
 2648TIP3    H1 7908   4.917   2.598   0.539  1.3549  1.0999  0.6838
 2648TIP3    H2 7909   4.960   2.547   0.403 -1.3772 -0.0814  0.1900
 2649TIP3   OH2 7910   6.703   6.373   4.108 -0.1222  0.2624  0.3963
 2649TIP3    H1 7911   6.611   6.369   4.084 -0.5106 -1.3770  1.9659
 2649TIP3    H2 7912   6.749   6.390   4.026 -1.7481  0.2940 -0.5384
 2650TIP3   OH2 7913   6.230   0.178   2.904 -0.0409  0.0885 -0.1560
 2650TIP3    H1 7914   6.239   0.083   2.900 -0.2059  0.0616  0.1309
 2650TIP3    H2 7915   6.310   0.211   2.862 -0.6181 -0.1771 -1.5097
 2651TIP3   OH2 7916   5.077   3.894   4.833  0.3302  0.1174 -0.3969
 2651TIP3    H1 7917   5.127   3.955   4.779  0.3381  1.0023  0.5781
 2651TIP3    H2 7918   5.141   3.829   4.862  0.1220 -0.9900 -2.2790
 2652TIP3   OH2 7919   7.067   1.174   2.427 -0.5874 -0.2686  0.2337
 2652TIP3    H1 7920   7.061   1.125   2.509 -1.6144 -0.6263 -0.0395
 2652TIP3    H2 7921   6.996   1.140   2.373 -0.2022  0.2716 -0.6465
 2653TIP3   OH2 7922   3.294   3.479   0.614 -0.6170 -0.0667  0.0511
 2653TIP3    H1 7923   3.203   3.508   0.611 -0.5413  0.1818  0.1699
 2653TIP3    H2 7924   3.345   3.558   0.596 -0.3457  0.2818  2.1192
 2654TIP3   OH2 7925   2.721   4.498   5.854  0.0125 -0.2942 -0.5514
 2654TIP3    H1 7926   2.778   4.421   5.851  0.3647 -0.0725  0.3692
 2654TIP3    H2 7927   2.642   4.471   5.805  0.5181 -0.9083 -1.0474
 2655TIP3   OH2 7928   3.439   1.948   3.689  0.3771  0.5561  0.2817
 2655TIP3    H1 7929   3.414   2.018   3.749  0.1723  1.2779 -0.6129
 2655TIP3    H2 7930   3.535   1.943   3.696  0.6253  2.3232 -1.0901
 2656TIP3   OH2 7931   2.892   2.620   4.098 -0.0510  0.1069 -0.3049
 2656TIP3    H1 7932   2.881   2.659   4.012 -0.8837 -1.3676 -0.9025
 2656TIP3    H2 7933   2.984   2.638   4.121  0.0230  0.9933 -1.2307
 2657TIP3   OH2 7934   6.331   4.142   0.287 -0.4925 -0.2063  0.3740
 2657TIP3    H1 7935   6.301   4.180   0.370 -2.0736  1.0215 -0.7035
 2657TIP3    H2 7936   6.313   4.210   0.222  0.8725 -1.0793 -0.9709
 2658TIP3   OH2 7937   4.604   5.690   0.948  0.4269  0.2531  0.4455
 2658TIP3    H1 7938   4.518   5.701   0.908  0.8516  0.1008 -0.5340
 2658TIP3    H2 7939   4.592   5.623   1.014 -0.1533  0.0579  0.1404
 2659TIP3   OH2 7940   3.259   1.236   3.072  0.7488  0.5269 -0.7010
 2659TIP3    H1 7941   3.330   1.282   3.116  0.6203  0.5465 -0.5092
 2659TIP3    H2 7942   3.226   1.299   3.008  0.8422  0.5530 -0.7233
 2660TIP3   OH2 7943   6.151   6.223   5.234  0.4448  0.2741  0.0566
 2660TIP3    H1 7944   6.205   6.282   5.286 -0.4821  0.4830  0.8055
 2660TIP3    H2 7945   6.120   6.157   5.296  0.7687 -0.5282 -0.5985
 2661TIP3   OH2 7946   2.179   3.831   1.120  0.4188 -0.0780  0.0233
 2661TIP3    H1 7947   2.193   3.822   1.026 -0.6093  0.7573 -0.2307
 2661TIP3    H2 7948   2.162   3.742   1.151  0.2131 -0.2859 -0.6764
 2662TIP3   OH2 7949   6.105   3.877   0.206 -0.5546 -0.0790 -0.1424
 2662TIP3    H1 7950   6.053   3.809   0.162 -0.9506  0.6773 -0.8656
 2662TIP3    H2 7951   6.177   3.829   0.247  0.4521 -0.7471 -2.5050
 2663TIP3   OH2 7952   3.545   5.646   0.614 -0.0849 -0.0616  0.5907
 2663TIP3    H1 7953   3.600   5.715   0.576  0.6699 -1.3867 -0.8453
 2663TIP3    H2 7954   3.577   5.566   0.574 -2.2623 -1.0393  0.6815
 2664TIP3   OH2 7955   6.823   1.640   0.703  0.1099 -0.3143 -0.4219
 2664TIP3    H1 7956   6.905   1.645   0.653 -0.7211 -0.7837 -1.8884
 2664TIP3    H2 7957   6.799   1.548   0.700  0.5921 -0.5717  1.8493
 2665TIP3   OH2 7958   0.082   4.566   5.230  0.2219  0.0856  0.1858
 2665TIP3    H1 7959   0.065   4.600   5.142  0.4147  0.4432  0.2804
 2665TIP3    H2 7960   0.090   4.645   5.284  1.1419 -0.0978  0.3289
 2666TIP3   OH2 7961   4.405   5.687   0.099 -0.3659 -0.4193 -1.1008
 2666TIP3    H1 7962   4.483   5.633   0.108  0.8998  1.6291  1.6384
 2666TIP3    H2 7963   4.429   5.753   0.034 -0.1840 -0.4005 -1.0144
 2667TIP3   OH2 7964   2.019   4.560   3.067  0.7055  1.0162  0.2724
 2667TIP3    H1 7965   1.968   4.631   3.028  0.7374  0.0342 -1.6802
 2667TIP3    H2 7966   2.039   4.590   3.155  1.2507  3.7016 -0.6818
 2668TIP3   OH2 7967   5.891   1.542   4.024  0.5427  0.0667 -0.0816
 2668TIP3    H1 7968   5.976   1.498   4.020  1.1817  1.1629  0.7397
 2668TIP3    H2 7969   5.876   1.557   4.117 -0.4900  0.0439 -0.2279
 2669TIP3   OH2 7970   5.468   3.333   3.828 -0.2289  0.0417 -0.3386
 2669TIP3    H1 7971   5.458   3.243   3.858 -1.2578  0.1916 -0.1902
 2669TIP3    H2 7972   5.507   3.379   3.902  2.8591 -0.7833 -1.2910
 2670TIP3   OH2 7973   6.009   0.289   4.547  0.3488  0.4887  0.2726
 2670TIP3    H1 7974   5.933   0.282   4.605  0.5575 -0.4044  0.4544
 2670TIP3    H2 7975   6.081   0.317   4.604 -0.0064  2.1731 -0.0545
 2671TIP3   OH2 7976   3.091   2.830   4.026 -0.2269  0.0620  0.5585
 2671TIP3    H1 7977   2.996   2.824   4.017 -0.1972 -0.7584  0.6743
 2671TIP3    H2 7978   3.105   2.876   4.108 -0.5486 -1.0669  1.2743
 2672TIP3   OH2 7979   2.196   2.048   1.116 -0.2828  0.7613  0.0562
 2672TIP3    H1 7980   2.227   2.045   1.026 -1.7751  0.3436 -0.4881
 2672TIP3    H2 7981   2.138   1.972   1.123  0.0116  0.6401  1.4527
 2673TIP3   OH2 7982   5.827   4.737   4.991 -0.0017 -0.3499 -0.1394
 2673TIP3    H1 7983   5.841   4.811   5.050 -1.2577  0.5204 -0.8799
 2673TIP3    H2 7984   5.794   4.667   5.047 -0.0726  0.0821  0.3635
 2674TIP3   OH2 7985   6.907   4.777   5.815  0.0613  0.0896  0.2167
 2674TIP3    H1 7986   6.837   4.841   5.828  0.8620  0.9030  0.6908
 2674TIP3    H2 7987   6.862   4.698   5.787 -1.0764  0.4872  0.8395
 2675TIP3   OH2 7988   3.887   2.262   1.935  0.3772  0.6846  0.2762
 2675TIP3    H1 7989   3.980   2.263   1.956  0.4110 -0.9253  0.3216
 2675TIP3    H2 7990   3.843   2.251   2.019  0.1728  0.8854  0.1980
 2676TIP3   OH2 7991   0.843   4.857   1.767 -0.4984 -0.3075  0.2452
 2676TIP3    H1 7992   0.885   4.801   1.702 -1.0129 -0.5289  0.0938
 2676TIP3    H2 7993   0.815   4.934   1.718  0.0646  0.0167  0.4216
 2677TIP3   OH2 7994   1.409   1.538   2.855  0.0636 -0.6261  0.5134
 2677TIP3    H1 7995   1.500   1.552   2.831 -0.0865 -0.9911 -0.3273
 2677TIP3    H2 7996   1.403   1.565   2.946  1.3547 -2.0075  1.0491
 2678TIP3   OH2 7997   6.886   0.964   4.197  0.2777 -0.7629  0.6564
 2678TIP3    H1 7998   6.980   0.967   4.215  1.0196 -1.4380 -2.5857
 2678TIP3    H2 7999   6.864   1.053   4.170  1.0457 -1.4467 -2.6701
 2679TIP3   OH2 8000   5.535   4.284   0.166 -0.1230 -0.0439  0.9585
 2679TIP3    H1 8001   5.522   4.379   0.167  2.9787  0.6613 -2.6809
 2679TIP3    H2 8002   5.564   4.262   0.255 -1.7446  2.1728  2.1257
 2680TIP3   OH2 8003   2.895   5.474   3.398  0.1973  0.2742  0.0898
 2680TIP3    H1 8004   2.852   5.389   3.393 -0.3746  0.5549  0.1451
 2680TIP3    H2 8005   2.900   5.504   3.307 -2.5395  1.6061  0.2698
 2681TIP3   OH2 8006   3.222   3.915   5.036 -0.4069  0.0558 -0.1938
 2681TIP3    H1 8007   3.227   3.950   5.125  0.3486  1.2406 -0.6726
 2681TIP3    H2 8008   3.291   3.849   5.033 -1.5608 -1.2326  0.5895
 2682TIP3   OH2 8009   0.788   4.963   0.389 -0.3630  0.0734  0.1493
 2682TIP3    H1 8010   0.878   4.932   0.381 -0.2984  0.3008  0.0072
 2682TIP3    H2 8011   0.792   5.056   0.368 -0.5745  0.1603  0.4865
 2683TIP3   OH2 8012   5.921   3.580   3.608  0.0937  0.4905  0.1316
 2683TIP3    H1 8013   5.888   3.548   3.691 -0.4003  0.8277  0.0721
 2683TIP3    H2 8014   5.854   3.641   3.577  1.2286  1.9829  0.4873
 2684TIP3   OH2 8015   1.628   5.588   1.895 -0.1639 -0.4668 -0.2054
 2684TIP3    H1 8016   1.676   5.669   1.877 -0.4473 -0.2909 -0.1656
 2684TIP3    H2 8017   1.610   5.551   1.809  0.5586 -0.8373 -0.2079
 2685TIP3   OH2 8018   5.672   2.424   5.627  0.1882  0.3788 -0.2757
 2685TIP3    H1 8019   5.713   2.506   5.654 -0.1412  0.4244  0.1006
 2685TIP3    H2 8020   5.667   2.429   5.532 -1.1245  1.4329 -0.1932
 2686TIP3   OH2 8021   6.346   4.069   1.776 -0.1479 -0.2533  0.0710
 2686TIP3    H1 8022   6.302   4.037   1.855  1.5149 -1.4981  0.5635
 2686TIP3    H2 8023   6.368   4.160   1.796 -2.2005  0.3392 -0.1056
 2687TIP3   OH2 8024   2.460   5.730   5.300 -0.0434  0.3666 -0.2421
 2687TIP3    H1 8025   2.508   5.706   5.221  3.5471 -0.5919  2.0221
 2687TIP3    H2 8026   2.482   5.822   5.315  1.6229 -0.2038  1.0606
 2688TIP3   OH2 8027   2.210   3.589   3.947 -0.5152  0.2360 -0.3983
 2688TIP3    H1 8028   2.295   3.552   3.972 -0.5053 -0.1167 -0.9419
 2688TIP3    H2 8029   2.152   3.513   3.943 -0.7584  0.4231 -0.4396
 2689TIP3   OH2 8030   2.023   0.119   3.449  0.0741 -1.0007 -0.1760
 2689TIP3    H1 8031   1.965   0.194   3.445 -0.5641 -1.3193  1.9085
 2689TIP3    H2 8032   2.025   0.085   3.360  0.6652  1.6454 -1.2660
 2690TIP3   OH2 8033   4.795   3.289   1.149  0.2175 -0.4784  0.5769
 2690TIP3    H1 8034   4.802   3.372   1.102  1.1975  0.0656  1.6160
 2690TIP3    H2 8035   4.857   3.232   1.105  0.7348 -0.1421  0.8587
 2691TIP3   OH2 8036   6.547   4.939   1.662  0.1040  0.0788 -0.2719
 2691TIP3    H1 8037   6.589   4.930   1.748  1.4844 -1.6706 -1.0651
 2691TIP3    H2 8038   6.578   4.864   1.612 -0.3898  1.2347 -2.4420
 2692TIP3   OH2 8039   2.133   6.458   2.574 -0.6356 -0.2606 -0.0115
 2692TIP3    H1 8040   2.077   6.382   2.559 -0.2108 -0.4867 -0.4790
 2692TIP3    H2 8041   2.203   6.449   2.509  0.9156 -0.9071  1.6712
 2693TIP3   OH2 8042   1.852   6.470   3.798 -0.0682 -0.3360  0.2941
 2693TIP3    H1 8043   1.828   6.385   3.835  1.5970 -0.2401  1.7003
 2693TIP3    H2 8044   1.903   6.512   3.867 -1.4992  2.1611 -0.0478
 2694TIP3   OH2 8045   1.963   5.678   5.526  0.3755 -0.3752 -0.2378
 2694TIP3    H1 8046   1.955   5.634   5.442 -0.6413  2.1317 -1.5588
 2694TIP3    H2 8047   2.055   5.703   5.532  0.5049 -0.7961 -0.4687
 2695TIP3   OH2 8048   2.551   3.276   0.197  0.0477 -0.0811  0.8354
 2695TIP3    H1 8049   2.475   3.225   0.170 -0.0018  0.3417  0.1211
 2695TIP3    H2 8050   2.602   3.287   0.116  1.9502 -2.1021  1.6663
 2696TIP3   OH2 8051   3.876   2.915   0.612  0.3153  0.3574  0.6049
 2696TIP3    H1 8052   3.930   2.942   0.538 -0.9947 -1.2169 -1.0023
 2696TIP3    H2 8053   3.835   2.996   0.643  0.5439  0.9872 -0.6763
 2697TIP3   OH2 8054   4.039   1.677  -0.012  0.1425 -0.2970 -0.0829
 2697TIP3    H1 8055   4.041   1.609   0.055  1.2029 -0.1208  0.0851
 2697TIP3    H2 8056   4.130   1.705  -0.020 -0.5230  2.7331  1.5265
 2698TIP3   OH2 8057   6.754   6.575   5.116  0.2854 -0.4338  0.1047
 2698TIP3    H1 8058   6.766   6.659   5.072 -0.1500 -0.8817 -0.8861
 2698TIP3    H2 8059   6.841   6.537   5.120  0.3326 -0.3713 -0.3362
 2699TIP3   OH2 8060   2.090   3.404   5.268 -0.6891 -0.2333 -0.0184
 2699TIP3    H1 8061   2.021   3.426   5.331 -0.9194 -0.6790 -0.1136
 2699TIP3    H2 8062   2.168   3.449   5.301 -0.7918 -0.5245  0.6235
 2700TIP3   OH2 8063   0.308   5.592   3.972 -0.5827 -0.0172 -0.0846
 2700TIP3    H1 8064   0.234   5.610   3.914 -0.8306 -1.9030 -0.4394
 2700TIP3    H2 8065   0.385   5.602   3.916 -0.8626 -2.6899 -1.0868
 2701TIP3   OH2 8066   2.780   6.386   3.984  0.2367 -0.3329  0.7615
 2701TIP3    H1 8067   2.766   6.387   4.079  0.8346  0.6920  0.8564
 2701TIP3    H2 8068   2.795   6.478   3.962 -0.2743 -0.5134 -0.3923
 2702TIP3   OH2 8069   3.113   1.106   4.848 -0.5690  0.4498  0.0330
 2702TIP3    H1 8070   3.114   1.140   4.937 -0.6291  2.3743 -0.6522
 2702TIP3    H2 8071   3.020   1.096   4.826 -0.5637  0.3715  0.0450
 2703TIP3   OH2 8072   1.007   4.143   1.948 -0.0809  0.5270  0.3502
 2703TIP3    H1 8073   0.986   4.156   1.855 -0.3669 -0.3081  0.2853
 2703TIP3    H2 8074   1.061   4.063   1.949 -0.8510  0.0028  0.9842
 2704TIP3   OH2 8075   4.725   1.982   3.843 -0.7125  0.1172 -0.5035
 2704TIP3    H1 8076   4.671   1.973   3.922 -1.0575  0.6338 -0.6756
 2704TIP3    H2 8077   4.786   2.052   3.865  0.0472 -0.6103 -0.2296
 2705TIP3   OH2 8078   5.386   3.834   3.346 -0.2776  0.4059 -0.0157
 2705TIP3    H1 8079   5.386   3.740   3.326 -0.1471  0.5759 -0.8350
 2705TIP3    H2 8080   5.310   3.846   3.403 -0.4820 -0.1441 -0.1639
 2706TIP3   OH2 8081   2.415   0.754   5.044 -0.0730  0.2123 -0.1036
 2706TIP3    H1 8082   2.451   0.665   5.036  2.7266  1.2610 -0.5277
 2706TIP3    H2 8083   2.356   0.749   5.119  2.0425 -1.4825  1.6039
 2707TIP3   OH2 8084   2.499   2.518   4.326  0.5169  0.0424  0.3602
 2707TIP3    H1 8085   2.468   2.598   4.369  0.1048 -0.4313  0.9734
 2707TIP3    H2 8086   2.505   2.454   4.397  2.2592 -0.0818  0.1329
 2708TIP3   OH2 8087   0.561   0.419   5.714 -0.2232 -0.0680 -0.0050
 2708TIP3    H1 8088   0.518   0.434   5.798 -1.1088 -1.7006 -0.1394
 2708TIP3    H2 8089   0.497   0.446   5.649 -0.9482 -2.0600 -0.1935
 2709TIP3   OH2 8090   1.772   2.708   2.627 -0.1368 -0.3948  0.6897
 2709TIP3    H1 8091   1.866   2.716   2.613 -0.2302  0.4961  0.5182
 2709TIP3    H2 8092   1.733   2.779   2.577 -0.7799  0.2464  2.0227
 2710TIP3   OH2 8093   4.566   4.095   5.664  0.0704  0.2315 -0.5515
 2710TIP3    H1 8094   4.555   4.128   5.575 -1.9982  2.2438  0.3431
 2710TIP3    H2 8095   4.522   4.010   5.664  1.1784 -0.3723 -1.7035
 2711TIP3   OH2 8096   2.361   2.214   4.349  0.3575  0.3715 -0.7431
 2711TIP3    H1 8097   2.298   2.286   4.357 -0.1910 -0.1966  0.1896
 2711TIP3    H2 8098   2.413   2.219   4.429  0.3438 -0.2373 -0.6945
 2712TIP3   OH2 8099   7.108   4.973   5.128  0.0974 -0.6548 -0.1360
 2712TIP3    H1 8100   7.058   5.046   5.163  0.7579 -0.3294  0.1369
 2712TIP3    H2 8101   7.159   5.010   5.056  4.9388  0.6795  3.4561
 2713TIP3   OH2 8102   2.147   1.309   5.019 -0.2515 -0.2455 -0.1356
 2713TIP3    H1 8103   2.239   1.308   5.043 -0.3758  0.7044  0.4238
 2713TIP3    H2 8104   2.146   1.339   4.928 -0.1779  3.4614  0.9483
 2714TIP3   OH2 8105   3.120   0.753   2.546 -0.3697  0.1770 -0.1401
 2714TIP3    H1 8106   3.044   0.724   2.597 -0.6729  3.6955  1.7253
 2714TIP3    H2 8107   3.167   0.812   2.604  3.0500 -0.7022 -1.7754
 2715TIP3   OH2 8108   3.149   2.389   3.168  0.3877  0.0711 -0.4208
 2715TIP3    H1 8109   3.236   2.384   3.209  0.7744 -2.4721 -1.3432
 2715TIP3    H2 8110   3.155   2.463   3.108  0.5877  2.3840  2.2554
 2716TIP3   OH2 8111   0.577   5.878   5.677 -0.1408  0.1998  0.4494
 2716TIP3    H1 8112   0.526   5.931   5.738  1.1796  0.4176  1.4091
 2716TIP3    H2 8113   0.519   5.865   5.602 -1.7064  0.1765  1.6148
 2717TIP3   OH2 8114   0.609   0.945   2.143 -0.1039  0.4744 -0.5079
 2717TIP3    H1 8115   0.627   1.036   2.168 -2.2655  1.2933 -1.6168
 2717TIP3    H2 8116   0.682   0.920   2.087 -0.7699  2.5397 -2.4580
 2718TIP3   OH2 8117   5.595   0.244   2.997 -0.0931  0.4514  0.2928
 2718TIP3    H1 8118   5.641   0.163   3.020  0.7551  0.9718  0.4886
 2718TIP3    H2 8119   5.507   0.216   2.973  0.4373 -0.6271 -0.4850
 2719TIP3   OH2 8120   1.480   2.771   3.116  0.5827 -0.5206  0.1059
 2719TIP3    H1 8121   1.518   2.752   3.030 -0.9122 -0.8888 -0.5180
 2719TIP3    H2 8122   1.385   2.768   3.101  0.2592  1.6198  1.2795
 2720TIP3   OH2 8123   5.912   3.338   4.622 -0.5392  0.4622 -0.4871
 2720TIP3    H1 8124   5.958   3.413   4.583 -0.2732  0.7338  0.3159
 2720TIP3    H2 8125   5.832   3.330   4.570 -1.0444  1.9222 -0.0097
 2721TIP3   OH2 8126   5.287   5.643   5.371  0.0194  0.4113  0.2531
 2721TIP3    H1 8127   5.191   5.645   5.369  0.0317  1.5940  0.1669
 2721TIP3    H2 8128   5.311   5.573   5.311 -0.7923  0.1133  0.2665
 2722TIP3   OH2 8129   6.032   1.739   1.318  0.3283  0.0137 -0.2839
 2722TIP3    H1 8130   6.056   1.702   1.233 -1.8526 -0.5644 -0.6895
 2722TIP3    H2 8131   5.968   1.679   1.354  1.2912  0.1694  1.8858
 2723TIP3   OH2 8132   7.156   5.733   4.015 -0.4073 -0.0747  0.5412
 2723TIP3    H1 8133   7.208   5.731   3.935 -0.8158 -0.4242  0.2802
 2723TIP3    H2 8134   7.069   5.760   3.987 -0.4446  0.2191  0.9308
 2724TIP3   OH2 8135   1.233   2.076   4.125 -0.5251  0.1908  0.7630
 2724TIP3    H1 8136   1.256   1.985   4.145 -0.1498  0.3490  1.0642
 2724TIP3    H2 8137   1.235   2.080   4.029 -0.2340 -0.0412  0.7580
 2725TIP3   OH2 8138   4.861   5.948   5.745 -0.2826 -0.2516 -0.2212
 2725TIP3    H1 8139   4.856   5.871   5.802  0.9683 -0.5849 -0.5279
 2725TIP3    H2 8140   4.934   5.999   5.781 -0.5051  0.3251 -0.5793
 2726TIP3   OH2 8141   2.466   2.951   2.681  0.4968  0.6521 -0.3281
 2726TIP3    H1 8142   2.434   2.934   2.592 -0.1404 -0.0556  0.0310
 2726TIP3    H2 8143   2.540   2.891   2.692 -0.4376 -0.4240  0.1893
 2727TIP3   OH2 8144   7.185   2.406   5.676 -0.2435  0.0946  0.2370
 2727TIP3    H1 8145   7.142   2.459   5.744 -0.0002  0.3721  0.1798
 2727TIP3    H2 8146   7.247   2.352   5.725  0.3278  0.6905  0.1927
 2728TIP3   OH2 8147   3.410   1.684   2.828  0.3824  0.0009 -0.1557
 2728TIP3    H1 8148   3.503   1.707   2.831 -0.1324  2.3090 -0.6636
 2728TIP3    H2 8149   3.383   1.704   2.739 -1.1526  1.7739  0.6515
 2729TIP3   OH2 8150   0.541   5.634   5.824 -0.0072  0.4817  0.3779
 2729TIP3    H1 8151   0.619   5.605   5.871 -0.2377 -0.5033  0.1713
 2729TIP3    H2 8152   0.566   5.718   5.785  1.0408  0.0373  0.0622
 2730TIP3   OH2 8153   4.843   0.480   4.903 -0.2960  0.5616 -0.1741
 2730TIP3    H1 8154   4.773   0.452   4.844 -0.5638  2.7086 -0.9954
 2730TIP3    H2 8155   4.886   0.399   4.931 -3.3814 -0.8705  0.7541
 2731TIP3   OH2 8156   0.526   5.057   1.761 -0.2072  0.2551 -0.6409
 2731TIP3    H1 8157   0.478   5.009   1.828 -1.8023  0.8280 -1.3249
 2731TIP3    H2 8158   0.557   5.136   1.805 -1.3945  0.7136 -0.5888
 2732TIP3   OH2 8159   1.262   0.844   4.668 -0.0428  0.1280  0.5287
 2732TIP3    H1 8160   1.289   0.759   4.632 -2.2048 -0.7798  0.8544
 2732TIP3    H2 8161   1.262   0.831   4.762 -1.5344  0.0615  0.5458
 2733TIP3   OH2 8162   1.887   1.205   5.503  0.4312  0.1336  0.3733
 2733TIP3    H1 8163   1.950   1.180   5.436  1.0612  3.1829 -0.3305
 2733TIP3    H2 8164   1.940   1.237   5.576 -0.2655 -2.4748  2.1779
 2734TIP3   OH2 8165   5.102   6.518   2.740  0.3699  0.0340  0.6146
 2734TIP3    H1 8166   5.064   6.444   2.692 -0.3409 -0.5611  2.0407
 2734TIP3    H2 8167   5.027   6.571   2.766  0.8177  0.8365  0.3026
 2735TIP3   OH2 8168   1.915   0.252   3.709 -0.4406 -0.0892  0.4543
 2735TIP3    H1 8169   1.897   0.182   3.771  0.1615 -0.9129 -0.2730
 2735TIP3    H2 8170   1.836   0.257   3.655 -0.1814 -0.7690 -0.0007
 2736TIP3   OH2 8171   5.377   2.403   2.461  0.1172 -0.2430  0.0538
 2736TIP3    H1 8172   5.435   2.473   2.431 -0.2374 -0.4042 -1.0344
 2736TIP3    H2 8173   5.294   2.418   2.416 -0.3724 -0.6088  0.8154
 2737TIP3   OH2 8174   5.824   1.088   5.656  0.1377  0.1312  0.3757
 2737TIP3    H1 8175   5.793   1.041   5.733 -2.1718 -0.7010 -0.9263
 2737TIP3    H2 8176   5.747   1.091   5.598  1.9363  0.0336 -2.1960
 2738TIP3   OH2 8177   0.374   5.334   4.628 -0.2259 -0.0920  0.7387
 2738TIP3    H1 8178   0.292   5.380   4.613 -1.0348 -1.7000  0.0582
 2738TIP3    H2 8179   0.359   5.284   4.708 -1.5884 -3.8171 -1.6130
 2739TIP3   OH2 8180   1.117   1.827   5.583  0.1432  0.1113 -0.2420
 2739TIP3    H1 8181   1.053   1.847   5.651 -0.6403 -0.2187 -0.8638
 2739TIP3    H2 8182   1.065   1.794   5.510  1.0918 -0.9130 -0.4873
 2740TIP3   OH2 8183   3.105   0.137   5.381  0.1845  0.4155  0.7359
 2740TIP3    H1 8184   3.084   0.169   5.469 -0.1797  0.5094  0.6144
 2740TIP3    H2 8185   3.131   0.046   5.395 -1.4328 -0.0686  0.7544
 2741TIP3   OH2 8186   0.144   5.302   1.753  0.7423  0.4899 -0.2552
 2741TIP3    H1 8187   0.127   5.219   1.797  0.9627 -0.3886 -1.7713
 2741TIP3    H2 8188   0.204   5.348   1.812  3.0776 -1.7237 -0.7425
 2742TIP3   OH2 8189   6.769   6.246   3.009 -0.4169  0.2488 -0.0022
 2742TIP3    H1 8190   6.848   6.294   3.033 -0.3607  0.3856 -0.4367
 2742TIP3    H2 8191   6.738   6.290   2.929 -1.4667  0.8037  0.6864
 2743TIP3   OH2 8192   6.195   1.212   1.222 -0.0297 -0.0048  0.0748
 2743TIP3    H1 8193   6.207   1.181   1.312  0.5851 -0.5513 -0.1859
 2743TIP3    H2 8194   6.103   1.235   1.216 -0.3816 -1.2646  0.4453
 2744TIP3   OH2 8195   5.761   6.758   5.634 -0.0663 -0.3397  0.4793
 2744TIP3    H1 8196   5.796   6.701   5.566 -1.0006 -0.2592 -0.0873
 2744TIP3    H2 8197   5.778   6.711   5.715  2.8874  0.4537  0.4510
 2745TIP3   OH2 8198   4.075   0.711   1.520 -0.2963  0.1489  0.5860
 2745TIP3    H1 8199   4.112   0.703   1.608 -1.8517  0.3479  1.2913
 2745TIP3    H2 8200   4.071   0.805   1.504  0.7935  0.0942 -0.0724
 2746TIP3   OH2 8201   5.110   5.897   3.041 -0.3340  0.0833  0.2043
 2746TIP3    H1 8202   5.049   5.954   2.995 -1.4685 -2.2974 -1.4071
 2746TIP3    H2 8203   5.138   5.833   2.976  1.4056 -0.8372  1.7514
 2747TIP3   OH2 8204   2.119   4.552   0.572 -0.1738 -0.1213  0.0709
 2747TIP3    H1 8205   2.196   4.498   0.555 -1.3602 -1.6161 -0.7602
 2747TIP3    H2 8206   2.105   4.600   0.491 -0.8957 -0.8853 -0.2688
 2748TIP3   OH2 8207   4.347   3.399   5.375  0.0210 -0.1976  0.2502
 2748TIP3    H1 8208   4.294   3.411   5.454 -0.5442 -1.7355  0.1303
 2748TIP3    H2 8209   4.418   3.341   5.403  1.4614  1.5157  0.3102
 2749TIP3   OH2 8210   0.236   2.176   5.144  0.2283 -0.3542  0.3802
 2749TIP3    H1 8211   0.297   2.119   5.190 -1.1984 -0.3175  2.4464
 2749TIP3    H2 8212   0.265   2.265   5.165  0.7806 -0.3129 -0.5145
 2750TIP3   OH2 8213   2.131   6.324   0.164  0.3577 -0.0572 -0.3405
 2750TIP3    H1 8214   2.215   6.279   0.163  1.3193  1.6712  0.2777
 2750TIP3    H2 8215   2.152   6.416   0.178 -1.7378  0.1472  2.2367
 2751TIP3   OH2 8216   4.262   6.164   0.187  0.6034  0.1116  0.2692
 2751TIP3    H1 8217   4.328   6.097   0.204  1.1050  0.6211  0.3759
 2751TIP3    H2 8218   4.254   6.211   0.271  0.6688  0.5369  0.0406
 2752TIP3   OH2 8219   5.324   3.915   0.985 -0.4231  0.2449 -0.0232
 2752TIP3    H1 8220   5.246   3.869   0.955 -0.4776 -0.1344  0.6688
 2752TIP3    H2 8221   5.291   4.000   1.014 -0.1745  1.1712 -2.2758
 2753TIP3   OH2 8222   3.082   1.732   0.552  0.5230  0.3445  0.0274
 2753TIP3    H1 8223   3.128   1.654   0.519 -0.8030 -0.3030 -0.3486
 2753TIP3    H2 8224   3.031   1.763   0.478  0.8272  1.4276  0.2615
 2754TIP3   OH2 8225   0.584   4.316   5.195 -0.2042  0.4600 -0.4281
 2754TIP3    H1 8226   0.601   4.272   5.111 -1.2845  0.4090 -0.6350
 2754TIP3    H2 8227   0.489   4.317   5.202 -0.1192 -0.3334  1.2344
 2755TIP3   OH2 8228   2.697   5.726   2.984 -0.2576  0.0604 -0.0375
 2755TIP3    H1 8229   2.604   5.744   2.998 -1.0108 -2.3605 -1.3940
 2755TIP3    H2 8230   2.704   5.708   2.890  1.2806 -1.2918  0.2901
 2756TIP3   OH2 8231   2.869   0.642   0.823 -0.0599  0.6859 -0.5051
 2756TIP3    H1 8232   2.925   0.680   0.891  1.3312 -1.2946 -0.4547
 2756TIP3    H2 8233   2.787   0.691   0.830  1.6757  3.9518 -0.7896
 2757TIP3   OH2 8234   5.987   5.828   2.521  0.0256 -0.0126 -0.3715
 2757TIP3    H1 8235   5.934   5.874   2.585 -0.5213 -0.9439 -0.1318
 2757TIP3    H2 8236   5.950   5.853   2.436 -0.2308  0.0370 -0.2449
 2758TIP3   OH2 8237   5.755   5.102   2.927  0.1870  0.2341 -0.0156
 2758TIP3    H1 8238   5.817   5.106   3.000  1.0706  2.6618 -0.8240
 2758TIP3    H2 8239   5.800   5.050   2.860 -0.6402 -2.0347  1.0695
 2759TIP3   OH2 8240   5.374   1.192   2.900  1.0532 -0.0095 -0.6180
 2759TIP3    H1 8241   5.349   1.279   2.931  0.4126  0.2394 -1.7681
 2759TIP3    H2 8242   5.315   1.175   2.826  1.3320 -1.3189 -0.5694
 2760TIP3   OH2 8243   1.193   3.935   1.951 -0.0514  0.2991 -0.7413
 2760TIP3    H1 8244   1.262   3.948   2.016 -0.8879  0.1814  0.2007
 2760TIP3    H2 8245   1.239   3.925   1.868  1.2248 -1.7643  0.1226
 2761TIP3   OH2 8246   2.819   2.050   5.525 -0.1650 -0.1499 -0.2136
 2761TIP3    H1 8247   2.800   2.022   5.436  0.4459  0.7907 -0.6559
 2761TIP3    H2 8248   2.733   2.070   5.563 -0.2847  2.9516 -1.8047
 2762TIP3   OH2 8249   3.158   2.879   0.147 -0.3258  0.0224  0.0582
 2762TIP3    H1 8250   3.190   2.970   0.142 -0.2111 -0.0225 -0.0390
 2762TIP3    H2 8251   3.117   2.873   0.233 -0.5888  0.2507 -0.0491
 2763TIP3   OH2 8252   5.338   1.541   5.280  0.1352 -0.0974  0.7226
 2763TIP3    H1 8253   5.406   1.505   5.222  0.5440 -0.8232  1.6436
 2763TIP3    H2 8254   5.279   1.587   5.220  0.2555 -1.2743 -0.3447
 2764TIP3   OH2 8255   0.932   2.067   4.027 -0.0782 -0.1463  0.0192
 2764TIP3    H1 8256   1.021   2.077   4.061 -0.8789  1.4816  1.8227
 2764TIP3    H2 8257   0.884   2.026   4.098 -1.5524  2.2983  0.5333
 2765TIP3   OH2 8258   0.449   2.670   2.913  0.1425 -0.4777 -0.7140
 2765TIP3    H1 8259   0.478   2.657   3.003 -3.2455 -0.1194  0.5589
 2765TIP3    H2 8260   0.526   2.650   2.860  2.2771 -0.6375  2.2236
 2766TIP3   OH2 8261   4.143   0.257   0.629  0.4561  0.1412  0.2437
 2766TIP3    H1 8262   4.157   0.294   0.542  1.5452  0.0684  0.3706
 2766TIP3    H2 8263   4.231   0.242   0.663  0.0614 -1.6670  0.5867
 2767TIP3   OH2 8264   5.182   3.881   3.535 -0.3638  0.4755 -0.1479
 2767TIP3    H1 8265   5.133   3.800   3.520  0.8005 -0.1693 -0.6063
 2767TIP3    H2 8266   5.209   3.876   3.627 -2.2148  1.4598  0.5011
 2768TIP3   OH2 8267   6.577   3.555   5.154 -0.4468  0.1757  0.3264
 2768TIP3    H1 8268   6.632   3.620   5.110  0.3383 -1.7322 -1.7559
 2768TIP3    H2 8269   6.640   3.489   5.186 -1.3515 -1.8344 -1.7157
 2769TIP3   OH2 8270   3.586   3.942   3.816 -0.0152 -0.0821  0.4484
 2769TIP3    H1 8271   3.633   4.016   3.779 -0.4154  0.5787  1.2177
 2769TIP3    H2 8272   3.633   3.865   3.785  1.7370  0.5458  1.3815
 2770TIP3   OH2 8273   3.916   3.808   1.199 -0.0938  0.2113 -0.4618
 2770TIP3    H1 8274   3.831   3.849   1.216 -0.7425  0.1520 -3.0488
 2770TIP3    H2 8275   3.896   3.714   1.193  0.4790  0.0127  0.5058
 2771TIP3   OH2 8276   5.026   5.657   4.256  0.6082 -0.3467  0.1390
 2771TIP3    H1 8277   5.081   5.719   4.208  0.7525 -0.1455  0.5548
 2771TIP3    H2 8278   4.937   5.677   4.228  0.4730  1.1894  1.4871
 2772TIP3   OH2 8279   4.721   4.618   1.026 -0.3045 -0.3286 -0.3326
 2772TIP3    H1 8280   4.801   4.667   1.009 -0.2375  0.4705  1.9520
 2772TIP3    H2 8281   4.701   4.575   0.943  2.5273 -0.6417 -0.9362
 2773TIP3   OH2 8282   6.593   0.733   5.089  0.1349  0.4214  0.3431
 2773TIP3    H1 8283   6.648   0.763   5.016  0.2523 -0.6459 -0.0219
 2773TIP3    H2 8284   6.655   0.699   5.153 -0.0107  0.7480  0.6601
 2774TIP3   OH2 8285   0.750   0.355   3.084 -0.0681 -0.3921 -0.7156
 2774TIP3    H1 8286   0.765   0.303   3.163 -0.0339 -0.3899 -0.7204
 2774TIP3    H2 8287   0.676   0.412   3.106  0.8260  0.6097 -0.1815
 2775TIP3   OH2 8288   4.688   6.437   5.710  0.2722 -0.8220  0.1156
 2775TIP3    H1 8289   4.645   6.523   5.711  1.2950 -0.2928  2.0654
 2775TIP3    H2 8290   4.617   6.375   5.696 -0.8291  0.1811  1.0825
 2776TIP3   OH2 8291   3.841   6.680   5.443  0.0594 -0.4961  0.3189
 2776TIP3    H1 8292   3.773   6.712   5.383 -1.0475 -0.2938  1.6248
 2776TIP3    H2 8293   3.875   6.601   5.401  0.1179  0.2605 -1.1082
 2777TIP3   OH2 8294   5.593   6.387   0.052  0.5110 -0.0018 -0.1211
 2777TIP3    H1 8295   5.615   6.299   0.085  1.3248 -0.3362 -1.4597
 2777TIP3    H2 8296   5.675   6.420   0.016  0.7148  2.1409  2.0570
 2778TIP3   OH2 8297   0.081   5.632   2.977  0.3598 -0.2674 -0.8100
 2778TIP3    H1 8298   0.027   5.671   2.908  0.9286  2.2188  0.0679
 2778TIP3    H2 8299   0.069   5.689   3.053  0.1367 -2.6465  1.0675
 2779TIP3   OH2 8300   4.763   0.906   2.919 -0.0502  0.5014 -0.1637
 2779TIP3    H1 8301   4.856   0.889   2.904 -0.0974 -0.1203  0.2095
 2779TIP3    H2 8302   4.751   0.998   2.895  0.5022  0.3817 -0.9457
 2780TIP3   OH2 8303   4.643   2.661   4.395 -0.5507 -0.1380  0.0732
 2780TIP3    H1 8304   4.582   2.648   4.322 -1.3180  3.4319 -0.1094
 2780TIP3    H2 8305   4.587   2.657   4.473 -0.2186 -1.1111  0.2765
 2781TIP3   OH2 8306   5.244   0.489   1.362  0.1375  0.3568  0.3316
 2781TIP3    H1 8307   5.198   0.571   1.381  1.1876  0.8902  0.6550
 2781TIP3    H2 8308   5.311   0.483   1.430 -0.3611 -1.1301  0.7188
 2782TIP3   OH2 8309   4.403   0.479   0.011  0.0123 -0.2353 -0.2667
 2782TIP3    H1 8310   4.352   0.526   0.078  0.2539 -0.3742  0.0123
 2782TIP3    H2 8311   4.492   0.510   0.023  0.1357 -0.6059 -0.2236
 2783TIP3   OH2 8312   3.944   4.443   4.960 -0.3253  0.2346  0.2252
 2783TIP3    H1 8313   3.892   4.369   4.991 -0.3221  0.5751  1.0486
 2783TIP3    H2 8314   3.904   4.465   4.875 -0.0051 -1.0152 -0.2773
 2784TIP3   OH2 8315   4.241   1.825   1.838 -0.7035 -0.0861  0.1835
 2784TIP3    H1 8316   4.328   1.864   1.842 -1.3681  1.4258  3.2141
 2784TIP3    H2 8317   4.251   1.739   1.880 -0.5855 -0.0754  0.1774
 2785TIP3   OH2 8318   0.349   5.165   4.838 -0.1277  0.1142  0.0598
 2785TIP3    H1 8319   0.334   5.071   4.828  1.7675 -0.3311  1.0605
 2785TIP3    H2 8320   0.380   5.176   4.928 -2.0731  1.9702  0.6081
 2786TIP3   OH2 8321   4.472   2.761   1.097  0.1173  0.3439 -0.4681
 2786TIP3    H1 8322   4.451   2.847   1.060  0.4744  1.8473  2.5513
 2786TIP3    H2 8323   4.567   2.754   1.091  0.3158  1.1777  1.2014
 2787TIP3   OH2 8324   6.268   0.094   5.641  0.2271  0.2080  0.8764
 2787TIP3    H1 8325   6.257   0.001   5.625  0.3571  0.1490  1.1221
 2787TIP3    H2 8326   6.191   0.135   5.603  0.5291  0.0733  0.1000
 2788TIP3   OH2 8327   5.261   4.681   0.707 -0.6527 -0.6068  0.2919
 2788TIP3    H1 8328   5.170   4.658   0.730 -0.3530 -1.4239  0.6857
 2788TIP3    H2 8329   5.313   4.648   0.781 -0.0170 -0.2648  0.0009
 2789TIP3   OH2 8330   6.239   0.467   5.791 -0.2983  0.0884 -0.3236
 2789TIP3    H1 8331   6.248   0.462   5.696  1.9257  3.7356 -0.4859
 2789TIP3    H2 8332   6.197   0.552   5.807  0.3996  0.0842  1.9414
 2790TIP3   OH2 8333   5.820   4.859   2.348 -0.4731 -0.1833 -0.1189
 2790TIP3    H1 8334   5.782   4.888   2.266 -0.0225  0.8061  0.0077
 2790TIP3    H2 8335   5.914   4.850   2.329 -0.1443  1.3941  0.6245
 2791TIP3   OH2 8336   7.106   6.428   4.881 -0.2083 -0.0057  0.5275
 2791TIP3    H1 8337   7.050   6.483   4.826  0.7837  0.9082  0.3954
 2791TIP3    H2 8338   7.184   6.411   4.828 -1.0026 -2.6628  0.0543
 2792TIP3   OH2 8339   5.250   4.517   2.678  0.2563 -0.4970 -0.1933
 2792TIP3    H1 8340   5.268   4.434   2.722  0.6822  0.1841  0.9630
 2792TIP3    H2 8341   5.291   4.508   2.592  1.9405 -0.7926  0.6160
 2793TIP3   OH2 8342   4.285   3.593   4.747  0.5187  0.6878 -0.1226
 2793TIP3    H1 8343   4.224   3.663   4.727 -0.0158  0.8173  1.7489
 2793TIP3    H2 8344   4.250   3.516   4.702 -0.6631  0.9186  0.3753
 2794TIP3   OH2 8345   6.836   0.118   4.593  0.7032  0.0071  0.2058
 2794TIP3    H1 8346   6.793   0.043   4.635  0.5660  1.3779  2.6950
 2794TIP3    H2 8347   6.771   0.150   4.530 -0.7157  0.1677  1.6866
 2795TIP3   OH2 8348   4.688   2.359   3.286 -0.0312 -0.2750 -0.2751
 2795TIP3    H1 8349   4.665   2.451   3.271 -0.7806 -0.5798 -1.0454
 2795TIP3    H2 8350   4.637   2.334   3.362  0.4262  0.0283  0.1426
 2796TIP3   OH2 8351   5.808   3.286   1.411  0.5493  0.2892  0.1523
 2796TIP3    H1 8352   5.751   3.363   1.414  1.1421  0.8154 -1.2079
 2796TIP3    H2 8353   5.827   3.274   1.318  1.9260 -0.4232  0.5002
 2797TIP3   OH2 8354   2.300   0.361   2.418  0.1887 -0.1571 -0.1402
 2797TIP3    H1 8355   2.292   0.443   2.369  0.7772 -0.0414 -0.0609
 2797TIP3    H2 8356   2.377   0.319   2.380  2.0396  0.9677  2.0891
 2798TIP3   OH2 8357   2.042   1.943   4.583 -0.4950 -0.0158  0.2505
 2798TIP3    H1 8358   2.064   1.941   4.676 -0.2808  1.1551  0.2412
 2798TIP3    H2 8359   2.126   1.932   4.538 -0.5482 -0.2153  0.1997
 2799TIP3   OH2 8360   2.801   1.022   5.221  0.3393  0.3881 -0.9138
 2799TIP3    H1 8361   2.732   0.986   5.164  0.4623  1.7969 -1.9889
 2799TIP3    H2 8362   2.766   1.011   5.310 -0.2087 -1.1011 -1.2735
 2800TIP3   OH2 8363   0.037   0.044   1.084  0.1160 -0.1258 -0.0867
 2800TIP3    H1 8364   0.060   0.125   1.037  1.1498  0.1786  0.8958
 2800TIP3    H2 8365  -0.049   0.021   1.050  1.3557 -0.7196 -3.1908
 2801TIP3   OH2 8366   1.557   2.011   2.131  0.3010  0.2807 -0.1777
 2801TIP3    H1 8367   1.537   1.923   2.162 -2.3134  1.5368  2.0860
 2801TIP3    H2 8368   1.553   2.066   2.209  0.8689  2.5719 -1.6723
 2802TIP3   OH2 8369   5.828   2.225   5.244 -0.2388 -0.2200  0.7055
 2802TIP3    H1 8370   5.875   2.200   5.164 -0.8817  1.1900 -0.1632
 2802TIP3    H2 8371   5.892   2.216   5.314  1.0531  0.7047 -0.3123
 2803TIP3   OH2 8372   3.236   3.333   1.115  0.4939 -0.1373 -0.2803
 2803TIP3    H1 8373   3.259   3.310   1.025  1.8938  3.3071 -0.9634
 2803TIP3    H2 8374   3.178   3.409   1.106  0.1777 -0.0932  1.7275
 2804TIP3   OH2 8375   1.461   5.103   4.614 -0.4122 -0.2437  0.3940
 2804TIP3    H1 8376   1.552   5.132   4.616 -0.7043  0.7049  0.7219
 2804TIP3    H2 8377   1.440   5.083   4.705 -1.2629  2.0252  0.7609
 2805TIP3   OH2 8378   3.972   5.933   1.021 -0.7190 -0.0488  0.2322
 2805TIP3    H1 8379   3.937   5.847   1.044 -1.1316  0.4001  1.3272
 2805TIP3    H2 8380   3.939   5.991   1.089  1.4540  0.5722  0.8284
 2806TIP3   OH2 8381   4.064   2.847   2.739  0.1215 -0.6348  0.1887
 2806TIP3    H1 8382   3.992   2.803   2.784  0.6980 -1.8158 -0.0053
 2806TIP3    H2 8383   4.137   2.784   2.743  0.4988 -0.3502 -1.4513
 2807TIP3   OH2 8384   3.265   4.352   2.808 -0.5579 -0.8173 -0.1207
 2807TIP3    H1 8385   3.341   4.390   2.853 -0.1179 -2.2346  0.3952
 2807TIP3    H2 8386   3.233   4.423   2.752 -0.0630  0.4456  1.1127
 2808TIP3   OH2 8387   1.353   1.097   3.320 -0.3327  0.0876 -0.1235
 2808TIP3    H1 8388   1.344   1.162   3.389  2.3441 -1.2063  1.5845
 2808TIP3    H2 8389   1.434   1.051   3.340 -0.4719 -1.6877 -3.0482
 2809TIP3   OH2 8390   5.132   1.799   1.575  0.1482 -0.0088 -0.7064
 2809TIP3    H1 8391   5.132   1.816   1.481  1.5422 -0.0016 -0.7255
 2809TIP3    H2 8392   5.195   1.861   1.611 -0.9172  0.5022  0.3560
 2810TIP3   OH2 8393   5.333   4.858   5.468 -0.0857 -0.3037 -0.2618
 2810TIP3    H1 8394   5.323   4.891   5.378  0.0620 -0.1681 -0.2293
 2810TIP3    H2 8395   5.246   4.867   5.507 -0.6505 -2.1719 -0.9933
 2811TIP3   OH2 8396   3.797   2.466   2.288 -0.2671 -0.4327 -0.1254
 2811TIP3    H1 8397   3.704   2.456   2.306 -0.9205  2.5731 -1.1988
 2811TIP3    H2 8398   3.827   2.379   2.263 -2.9720 -1.2949 -0.6181
 2812TIP3   OH2 8399   3.854   0.746   4.297 -0.8310  0.4610  0.0615
 2812TIP3    H1 8400   3.875   0.822   4.352  0.7343  0.3478 -0.3255
 2812TIP3    H2 8401   3.911   0.755   4.221 -0.0311 -1.4916  0.3640
 2813TIP3   OH2 8402   4.531   4.328   5.786 -0.2140 -0.1215 -0.3740
 2813TIP3    H1 8403   4.616   4.360   5.758  0.5385 -1.2031  0.5488
 2813TIP3    H2 8404   4.532   4.235   5.763  0.6218 -1.2153  3.2920
 2814TIP3   OH2 8405   5.168   5.838   2.489 -0.1691  0.1868  0.2879
 2814TIP3    H1 8406   5.162   5.803   2.401  1.1075  1.0175 -0.1486
 2814TIP3    H2 8407   5.224   5.915   2.481  0.9805 -0.4071  2.0263
 2815TIP3   OH2 8408   3.154   2.770   2.595 -0.3053  0.4473  0.1792
 2815TIP3    H1 8409   3.127   2.823   2.670  0.2009  1.6115 -0.4392
 2815TIP3    H2 8410   3.248   2.761   2.604 -0.3348 -0.0275  0.0653
 2816TIP3   OH2 8411   1.655   1.715   4.897 -0.0903  0.4751  0.3360
 2816TIP3    H1 8412   1.615   1.650   4.954 -1.5347 -0.3981 -1.5835
 2816TIP3    H2 8413   1.749   1.695   4.902 -0.2895 -0.3137  1.4849
 2817TIP3   OH2 8414   7.155   6.528   4.095 -0.0988  0.3583 -0.2713
 2817TIP3    H1 8415   7.239   6.484   4.110 -0.7332 -0.6525  0.5227
 2817TIP3    H2 8416   7.167   6.616   4.131  0.1627 -0.2722  1.2799
 2818TIP3   OH2 8417   5.890   6.697   4.926 -0.2517  0.0851 -0.4996
 2818TIP3    H1 8418   5.824   6.749   4.881 -0.3750 -0.7392 -1.3012
 2818TIP3    H2 8419   5.974   6.729   4.893 -0.2754  0.5555 -0.1156
 2819TIP3   OH2 8420   6.305   6.642   0.796 -0.3250  0.2276 -0.3765
 2819TIP3    H1 8421   6.214   6.671   0.789 -0.5009 -0.3967 -0.7162
 2819TIP3    H2 8422   6.338   6.689   0.872 -0.9650  0.3793 -0.1793
 2820TIP3   OH2 8423   0.381   1.994   3.455  0.1784  0.2510  0.0266
 2820TIP3    H1 8424   0.376   1.914   3.403 -0.6660  0.5261 -0.3192
 2820TIP3    H2 8425   0.473   2.022   3.446  0.2814 -0.2370 -0.5005
 2821TIP3   OH2 8426   4.050   4.168   1.178 -0.2525  0.4903 -0.5814
 2821TIP3    H1 8427   4.141   4.150   1.151  0.4298  1.8814  0.6345
 2821TIP3    H2 8428   4.008   4.199   1.098  1.0721  2.2560 -0.6576
 2822TIP3   OH2 8429   5.547   1.287   0.265  0.0601  0.2500  0.4880
 2822TIP3    H1 8430   5.507   1.240   0.337 -2.0154  2.3065  0.7796
 2822TIP3    H2 8431   5.512   1.244   0.186  0.4393 -0.4524  0.6871
 2823TIP3   OH2 8432   4.189   4.950   4.958  0.3843  0.2187  0.2653
 2823TIP3    H1 8433   4.162   4.894   5.031  0.0853 -0.6198 -0.4681
 2823TIP3    H2 8434   4.212   5.034   4.999  0.0666 -0.1823  1.2961
 2824TIP3   OH2 8435   6.611   3.627   1.830  0.2284 -0.6782 -0.6490
 2824TIP3    H1 8436   6.683   3.659   1.776 -0.5029  4.1089  0.7296
 2824TIP3    H2 8437   6.653   3.594   1.910  1.0341 -3.6198 -2.1538
 2825TIP3   OH2 8438   2.233   5.649   4.170  0.1711  0.0496 -0.0392
 2825TIP3    H1 8439   2.302   5.651   4.104  0.8688  0.3951  0.6871
 2825TIP3    H2 8440   2.160   5.603   4.128  0.7139  0.0024 -0.9360
 2826TIP3   OH2 8441   1.162   2.151   0.845 -0.0533  0.4364 -0.3770
 2826TIP3    H1 8442   1.190   2.088   0.911  2.2053  0.3912 -1.2783
 2826TIP3    H2 8443   1.085   2.111   0.805  0.1228 -0.7741  0.4402
 2827TIP3   OH2 8444   2.031   4.186   0.783 -1.4149 -0.9069 -0.2374
 2827TIP3    H1 8445   2.110   4.144   0.751  0.0123  1.2122  0.2749
 2827TIP3    H2 8446   2.024   4.159   0.874  0.2243  0.8341  0.4716
 2828TIP3   OH2 8447   4.916   0.766   5.869 -0.1959 -0.1153 -0.0597
 2828TIP3    H1 8448   4.914   0.672   5.889  0.6282 -0.1278 -0.0094
 2828TIP3    H2 8449   4.826   0.795   5.881 -0.1023 -0.5068  1.8831
 2829TIP3   OH2 8450   6.305   5.985   3.085  0.1239 -0.1426 -0.7458
 2829TIP3    H1 8451   6.222   5.972   3.131  0.1303 -0.8188 -0.9153
 2829TIP3    H2 8452   6.366   5.927   3.130  1.3889  2.7503  1.5806
 2830TIP3   OH2 8453   4.180   5.749   2.962  0.5065  0.4823 -0.6359
 2830TIP3    H1 8454   4.090   5.767   2.987  1.0938  2.3861  0.2419
 2830TIP3    H2 8455   4.183   5.653   2.954 -1.2695  0.2797  0.5234
 2831TIP3   OH2 8456   5.624   6.644   5.074 -0.0790  0.2253  0.2623
 2831TIP3    H1 8457   5.613   6.564   5.126 -0.7427  0.5085  0.5797
 2831TIP3    H2 8458   5.706   6.631   5.027 -0.0267 -0.5162  0.5365
 2832TIP3   OH2 8459   4.097   1.237   0.329  0.4190  0.1897  0.5356
 2832TIP3    H1 8460   4.187   1.251   0.361  1.1123 -2.8469  0.1616
 2832TIP3    H2 8461   4.101   1.155   0.281 -2.4465  0.3508 -0.1355
 2833TIP3   OH2 8462   3.565   4.393   4.549  0.0738 -0.5637 -0.0438
 2833TIP3    H1 8463   3.652   4.426   4.524 -0.3508  0.1761 -0.5825
 2833TIP3    H2 8464   3.544   4.329   4.481  0.9500 -2.0668  1.0682
 2834TIP3   OH2 8465   5.295   6.669   4.403  0.2640  0.0460 -0.2862
 2834TIP3    H1 8466   5.262   6.714   4.481  1.3306 -1.8867  1.3722
 2834TIP3    H2 8467   5.384   6.703   4.391  0.3524 -0.1645 -0.2348
 2835TIP3   OH2 8468   1.818   4.582   0.335 -0.2649  0.7909  0.0441
 2835TIP3    H1 8469   1.763   4.535   0.397  1.9488 -1.5817  0.3628
 2835TIP3    H2 8470   1.780   4.562   0.249 -2.2735  2.6358  0.4035
 2836TIP3   OH2 8471   1.810   0.396   1.974  0.4391 -0.0569 -0.5806
 2836TIP3    H1 8472   1.733   0.411   1.919  0.4906  0.6039 -0.4795
 2836TIP3    H2 8473   1.883   0.399   1.912  0.3554 -1.1276 -0.7443
 2837TIP3   OH2 8474   6.697   0.696   0.734 -0.2024  0.5524 -0.0029
 2837TIP3    H1 8475   6.652   0.752   0.797 -1.0979  0.3215 -0.4162
 2837TIP3    H2 8476   6.659   0.609   0.747  0.1940  0.3282 -0.2963
 2838TIP3   OH2 8477   0.066   4.817   5.310 -0.2825 -0.2088  0.4363
 2838TIP3    H1 8478   0.007   4.866   5.253  0.5988  0.1453 -0.1825
 2838TIP3    H2 8479   0.038   4.840   5.398 -1.5064 -0.5724  0.1621
 2839TIP3   OH2 8480   5.743   1.859   3.248  0.4732 -0.3792 -0.4480
 2839TIP3    H1 8481   5.786   1.791   3.196  0.4922  0.5208 -1.6489
 2839TIP3    H2 8482   5.650   1.842   3.236  0.4302 -1.9276  1.6202
 2840TIP3   OH2 8483   6.880   5.448   5.038  0.0486  0.4696  0.0372
 2840TIP3    H1 8484   6.919   5.536   5.041 -0.5724  0.8643 -1.9536
 2840TIP3    H2 8485   6.955   5.389   5.040  0.5105  1.0598  0.7246
 2841TIP3   OH2 8486   4.356   4.171   1.166  0.3992 -0.3193  0.2138
 2841TIP3    H1 8487   4.416   4.230   1.212  1.5856 -0.9677 -0.4576
 2841TIP3    H2 8488   4.399   4.086   1.169  0.0633 -0.5626 -1.2991
 2842TIP3   OH2 8489   2.598   4.891   5.901 -0.3815 -0.6756 -0.2486
 2842TIP3    H1 8490   2.606   4.840   5.820  1.1669  1.1664 -1.3450
 2842TIP3    H2 8491   2.546   4.967   5.877  2.0951  1.1182 -0.2183
 2843TIP3   OH2 8492   1.751   1.506   3.710  0.4893 -0.3182 -0.3236
 2843TIP3    H1 8493   1.735   1.588   3.756  1.6694 -0.6976  0.8474
 2843TIP3    H2 8494   1.846   1.502   3.700  0.3046 -0.5384 -2.3220
 2844TIP3   OH2 8495   1.801   2.512   2.413 -0.1051 -0.4553 -0.3982
 2844TIP3    H1 8496   1.739   2.465   2.469  0.9247 -0.7096  0.5534
 2844TIP3    H2 8497   1.807   2.599   2.452  0.5020 -0.5860 -0.1875
 2845TIP3   OH2 8498   0.966   5.464   3.546 -0.1428 -0.0234  0.2269
 2845TIP3    H1 8499   0.909   5.424   3.611 -0.0462  0.7225  0.7762
 2845TIP3    H2 8500   1.003   5.540   3.590 -0.0678  0.4827 -0.6942
 2846TIP3   OH2 8501   4.493   5.054   1.845  0.1348  0.3379  0.3074
 2846TIP3    H1 8502   4.521   5.020   1.760 -0.2800 -0.6131  0.5403
 2846TIP3    H2 8503   4.516   5.147   1.843 -2.9752  1.2362 -2.2523
 2847TIP3   OH2 8504   0.937   6.380   4.994  0.2261  0.3556  0.3461
 2847TIP3    H1 8505   0.951   6.468   5.027  0.6163  0.9344 -1.2437
 2847TIP3    H2 8506   1.022   6.336   5.004  0.6753  0.9006 -0.8835
 2848TIP3   OH2 8507   6.516   2.332   3.420  0.3390  0.3069  0.0857
 2848TIP3    H1 8508   6.610   2.332   3.442  0.5010  0.4816 -0.5686
 2848TIP3    H2 8509   6.480   2.404   3.472 -0.1637 -2.0145  3.1624
 2849TIP3   OH2 8510   3.959   5.681   5.132 -0.1828  0.6095  0.3190
 2849TIP3    H1 8511   3.985   5.689   5.224  0.2057 -0.0165  0.2735
 2849TIP3    H2 8512   3.941   5.771   5.104 -1.7072  0.6730  1.3908
 2850TIP3   OH2 8513   5.640   5.625   0.851  0.4989 -0.8927  0.0802
 2850TIP3    H1 8514   5.715   5.684   0.844 -2.1924  2.7321 -0.5437
 2850TIP3    H2 8515   5.621   5.600   0.761 -0.3673  0.0635 -0.0164
 2851TIP3   OH2 8516   5.354   0.953   3.897 -0.1490  0.1510 -0.3522
 2851TIP3    H1 8517   5.436   0.999   3.879  1.1745 -2.1208 -0.4346
 2851TIP3    H2 8518   5.344   0.957   3.992  0.3993 -0.1101 -0.2827
 2852TIP3   OH2 8519   0.744   0.609   1.957  0.4469  0.2832 -0.6241
 2852TIP3    H1 8520   0.666   0.635   1.907  0.3624  1.4639  0.0950
 2852TIP3    H2 8521   0.715   0.611   2.048  1.0025 -0.4503 -0.4256
 2853TIP3   OH2 8522   0.260   4.588   0.578 -0.1852 -0.2909 -0.2084
 2853TIP3    H1 8523   0.265   4.675   0.617 -1.8924 -0.1890 -0.1171
 2853TIP3    H2 8524   0.330   4.585   0.514  0.2131  0.9619  0.1532
 2854TIP3   OH2 8525   7.152   4.825   5.584  0.5565  0.3956 -0.1774
 2854TIP3    H1 8526   7.130   4.817   5.677  2.1273 -0.0059  0.1865
 2854TIP3    H2 8527   7.143   4.919   5.566 -1.7750  0.2252 -0.1934
 2855TIP3   OH2 8528   6.642   0.307   2.883  0.1894  0.0534  0.3581
 2855TIP3    H1 8529   6.682   0.390   2.910  2.5102 -1.3941  1.7201
 2855TIP3    H2 8530   6.710   0.262   2.834 -1.2350 -0.8614 -0.8841
 2856TIP3   OH2 8531   1.853   5.561   0.923  0.5741 -0.0852 -0.2451
 2856TIP3    H1 8532   1.930   5.505   0.927 -1.3374 -2.9501 -0.3317
 2856TIP3    H2 8533   1.799   5.523   0.853 -0.9502  1.7737 -0.1774
 2857TIP3   OH2 8534   5.814   5.823   4.744 -0.1090  0.4337 -0.4155
 2857TIP3    H1 8535   5.891   5.795   4.694  0.0337  2.2346 -1.2683
 2857TIP3    H2 8536   5.762   5.874   4.682 -1.0959  0.7612  0.6508
 2858TIP3   OH2 8537   1.392   5.846   1.790 -0.0758 -0.3740 -0.5529
 2858TIP3    H1 8538   1.378   5.865   1.883  1.2015 -1.9372  0.0008
 2858TIP3    H2 8539   1.364   5.925   1.745 -1.0522  0.2955  1.1330
 2859TIP3   OH2 8540   5.191   3.840   5.883 -0.4752 -0.2663  0.4989
 2859TIP3    H1 8541   5.270   3.862   5.833 -1.4071 -0.3546 -1.0977
 2859TIP3    H2 8542   5.212   3.758   5.926  0.2072 -0.4620 -0.1812
 2860TIP3   OH2 8543   4.823   0.191   5.448  0.5100  0.1143  0.1789
 2860TIP3    H1 8544   4.767   0.264   5.474  0.4395  0.4268 -0.7934
 2860TIP3    H2 8545   4.766   0.134   5.397  1.1714  0.6949 -1.2629
 2861TIP3   OH2 8546   3.089   2.949   1.752  0.2352  0.3497  0.1204
 2861TIP3    H1 8547   3.069   2.862   1.786 -0.8736  0.4138 -0.3388
 2861TIP3    H2 8548   3.158   2.933   1.686 -0.5711 -0.3076 -0.5911
 2862TIP3   OH2 8549   5.733   0.772   0.594 -0.9106  0.0714  0.2611
 2862TIP3    H1 8550   5.656   0.718   0.607 -0.9346  0.2356  0.8302
 2862TIP3    H2 8551   5.773   0.779   0.681 -0.3501  0.1277  0.0082
 2863TIP3   OH2 8552   5.181   3.634   4.383  0.8853  0.0947  0.1792
 2863TIP3    H1 8553   5.121   3.652   4.456  1.6594 -0.6562  1.0292
 2863TIP3    H2 8554   5.213   3.720   4.356 -1.9276  0.7300 -1.5425
 2864TIP3   OH2 8555   4.752   6.370   4.688 -0.1787  0.0371  0.1028
 2864TIP3    H1 8556   4.821   6.418   4.734 -0.1752 -0.0671  0.2069
 2864TIP3    H2 8557   4.672   6.394   4.733 -0.6105  2.2928 -1.6773
 2865TIP3   OH2 8558   1.115   3.683   2.094  0.1554  0.1248  0.1748
 2865TIP3    H1 8559   1.105   3.776   2.072  1.8075  0.3774  0.3726
 2865TIP3    H2 8560   1.178   3.682   2.166 -0.5956 -1.0990  0.8485
 2866TIP3   OH2 8561   0.268   2.428   3.061 -0.0671  0.3591  0.0075
 2866TIP3    H1 8562   0.178   2.396   3.055  0.2127 -0.4164 -0.2129
 2866TIP3    H2 8563   0.260   2.522   3.075 -0.9040  0.4013 -0.7051
 2867TIP3   OH2 8564   3.933   6.237   3.750  0.2081  0.4653 -0.0149
 2867TIP3    H1 8565   4.000   6.247   3.683  0.0528  2.5745  0.0868
 2867TIP3    H2 8566   3.982   6.223   3.831  0.5264  1.4196 -0.0349
 2868TIP3   OH2 8567   0.180   6.745   2.993  0.7783  0.0836 -0.1136
 2868TIP3    H1 8568   0.248   6.745   3.060  0.3243  0.3703  0.3536
 2868TIP3    H2 8569   0.216   6.799   2.923  1.0573  0.1977  0.1152
 2869TIP3   OH2 8570   2.693   3.506   1.281  0.3268  0.0662 -0.4128
 2869TIP3    H1 8571   2.615   3.507   1.337 -0.0565  1.6346 -0.9095
 2869TIP3    H2 8572   2.690   3.421   1.237 -0.1452 -0.6038  0.8690
 2870TIP3   OH2 8573   4.548   5.804   5.359  0.4145 -0.1356 -1.0322
 2870TIP3    H1 8574   4.608   5.819   5.432 -1.7539  0.9716  0.6354
 2870TIP3    H2 8575   4.589   5.848   5.285  1.8096  0.2994 -0.0550
 2871TIP3   OH2 8576   6.018   3.853   5.319 -0.1343  0.0606  0.2807
 2871TIP3    H1 8577   6.017   3.947   5.301 -1.2002 -0.3716 -2.3452
 2871TIP3    H2 8578   6.104   3.837   5.358  0.0896  2.0916  0.7293
 2872TIP3   OH2 8579   2.596   4.703   3.072  0.5216  1.1876  0.2276
 2872TIP3    H1 8580   2.517   4.731   3.118 -1.6889 -0.8218 -2.0424
 2872TIP3    H2 8581   2.595   4.608   3.078  1.6692  1.0130 -1.5196
 2873TIP3   OH2 8582   1.206   4.955   3.493  0.0915  0.7535 -0.5108
 2873TIP3    H1 8583   1.183   5.047   3.483  0.9855  1.2795  1.6674
 2873TIP3    H2 8584   1.206   4.940   3.588 -0.1326 -1.5268 -0.8011
 2874TIP3   OH2 8585   2.329   3.514   0.136  0.2445 -0.1610  0.3360
 2874TIP3    H1 8586   2.271   3.441   0.158 -0.2092  0.0354 -0.1969
 2874TIP3    H2 8587   2.352   3.499   0.044 -0.4977  0.8100 -0.0092
 2875TIP3   OH2 8588   1.603   4.366   4.833  0.0676 -0.2140 -0.4793
 2875TIP3    H1 8589   1.637   4.295   4.887  1.9121 -0.3773 -1.7693
 2875TIP3    H2 8590   1.510   4.347   4.824 -0.3581 -0.1135  2.6428
 2876TIP3   OH2 8591   0.549   2.537   1.968  0.0685  0.0674 -0.3239
 2876TIP3    H1 8592   0.635   2.572   1.992 -0.2386  0.5988  0.0147
 2876TIP3    H2 8593   0.505   2.609   1.923  0.2474 -0.5884 -1.5908
 2877TIP3   OH2 8594   4.886   2.738   3.281 -0.1747 -0.6097 -0.1087
 2877TIP3    H1 8595   4.795   2.754   3.303 -1.4558 -3.2762 -2.7281
 2877TIP3    H2 8596   4.919   2.683   3.351 -0.8185 -0.2863  0.4562
 2878TIP3   OH2 8597   4.530   0.777   0.722  0.0938  0.1311  0.0626
 2878TIP3    H1 8598   4.568   0.757   0.808 -0.5235  1.8271  0.7517
 2878TIP3    H2 8599   4.602   0.818   0.674 -0.3755  2.0057  0.8683
 2879TIP3   OH2 8600   3.454   5.585   5.839  0.0792  0.0246  0.5482
 2879TIP3    H1 8601   3.480   5.537   5.761  0.3280 -0.0773  0.6914
 2879TIP3    H2 8602   3.363   5.559   5.855 -0.6177  1.4757 -0.7858
 2880TIP3   OH2 8603   0.314   2.438   5.201 -0.8626 -0.7223  0.2459
 2880TIP3    H1 8604   0.386   2.420   5.263  2.1925  1.6084 -2.2835
 2880TIP3    H2 8605   0.262   2.505   5.245 -0.6972 -1.4008  1.5512
 2881TIP3   OH2 8606   4.664   3.732   5.794 -0.1314  0.3747  0.4953
 2881TIP3    H1 8607   4.610   3.786   5.738  0.2018 -0.6865 -0.8935
 2881TIP3    H2 8608   4.734   3.791   5.824 -1.2769  1.3963  1.2410
 2882TIP3   OH2 8609   1.056   1.291   1.285 -0.9436 -0.1746  0.1808
 2882TIP3    H1 8610   0.993   1.358   1.312 -1.9891 -0.7456 -0.7701
 2882TIP3    H2 8611   1.086   1.320   1.199 -0.4777 -0.2975  0.3011
 2883TIP3   OH2 8612   4.998   2.959   1.362 -0.3218 -0.6685 -0.0952
 2883TIP3    H1 8613   5.038   2.876   1.389 -1.7672 -0.5590  2.7624
 2883TIP3    H2 8614   4.992   2.953   1.266  2.7225 -2.3383 -0.3110
 2884TIP3   OH2 8615   5.977   5.305   2.845 -0.3752  0.5722  0.0375
 2884TIP3    H1 8616   6.049   5.324   2.905  0.5812  0.8787 -1.1683
 2884TIP3    H2 8617   5.996   5.217   2.812  0.4354  1.2959 -1.5729
 2885TIP3   OH2 8618   2.873   1.371   2.375 -0.0931  0.2649  0.0301
 2885TIP3    H1 8619   2.881   1.410   2.462 -0.2187  0.4724 -0.0518
 2885TIP3    H2 8620   2.844   1.442   2.318 -0.6161 -0.0122 -0.0599
 2886TIP3   OH2 8621   2.840   4.981   4.292  0.0880 -0.3604  0.4272
 2886TIP3    H1 8622   2.918   5.033   4.276  0.5281 -1.5017 -1.5548
 2886TIP3    H2 8623   2.871   4.903   4.337  0.0248 -0.5912  0.0775
 2887TIP3   OH2 8624   4.161   3.113   5.008 -0.2997  0.5670  0.3008
 2887TIP3    H1 8625   4.135   3.134   5.098  0.2517 -0.5432  0.7373
 2887TIP3    H2 8626   4.254   3.092   5.014 -0.2404  0.5621 -0.5492
 2888TIP3   OH2 8627   5.382   4.472   0.350  0.3339  0.1124 -0.7309
 2888TIP3    H1 8628   5.356   4.385   0.380  1.2403 -0.0980 -0.5536
 2888TIP3    H2 8629   5.310   4.529   0.379  0.5537 -0.2968  0.6878
 2889TIP3   OH2 8630   6.331   6.679   1.470 -0.0032  0.7162 -0.2824
 2889TIP3    H1 8631   6.388   6.666   1.546  0.0423  2.0440 -0.0490
 2889TIP3    H2 8632   6.284   6.760   1.490 -0.7220  0.5485 -1.2391
 2890TIP3   OH2 8633   2.931   0.105   4.867  0.0505 -0.4688  0.0941
 2890TIP3    H1 8634   2.948   0.013   4.887  2.1668  0.1015  1.2968
 2890TIP3    H2 8635   2.854   0.128   4.920 -1.0469 -1.7216 -0.9012
 2891TIP3   OH2 8636   3.231   1.356   1.138 -0.2083 -0.3264  0.6505
 2891TIP3    H1 8637   3.144   1.343   1.102  0.5605  0.9742 -1.9065
 2891TIP3    H2 8638   3.216   1.402   1.221 -1.9544  0.4319 -0.0406
 2892TIP3   OH2 8639   0.187   2.332   3.612  0.0930 -0.0469  0.5023
 2892TIP3    H1 8640   0.105   2.283   3.622  0.5989 -2.0394 -3.2415
 2892TIP3    H2 8641   0.246   2.292   3.675 -0.8750 -0.9895  0.8508
 2893TIP3   OH2 8642   2.855   2.296   3.150 -0.5513 -0.1917 -0.8548
 2893TIP3    H1 8643   2.936   2.339   3.124 -1.6530  0.8985 -2.7353
 2893TIP3    H2 8644   2.883   2.226   3.208  1.3971  2.8436  2.2680
 2894TIP3   OH2 8645   6.679   5.296   4.440  0.1465 -0.0519 -0.1927
 2894TIP3    H1 8646   6.770   5.298   4.471  0.0241 -1.3024  0.2808
 2894TIP3    H2 8647   6.672   5.213   4.392 -0.9819 -0.3998  0.5334
 2895TIP3   OH2 8648   6.283   3.675   0.287  0.5270  0.0717  0.3476
 2895TIP3    H1 8649   6.301   3.592   0.243  1.1684  0.5470 -0.3180
 2895TIP3    H2 8650   6.251   3.650   0.373 -0.3520 -0.8861 -0.2235
 2896TIP3   OH2 8651   3.849   4.711   2.730  0.8026  0.1021 -0.2935
 2896TIP3    H1 8652   3.834   4.698   2.636  0.1066 -2.5252  0.0902
 2896TIP3    H2 8653   3.923   4.772   2.735  2.8872 -2.0234 -2.6246
 2897TIP3   OH2 8654   6.580   3.214   3.256 -0.2356  0.0138  0.5508
 2897TIP3    H1 8655   6.554   3.256   3.337 -2.0507 -1.9158  1.0746
 2897TIP3    H2 8656   6.578   3.284   3.190 -2.5078  0.8990  1.4658
 2898TIP3   OH2 8657   6.014   3.177   3.822  0.0050 -0.3942  0.2957
 2898TIP3    H1 8658   6.096   3.144   3.784 -0.1748  0.0349 -0.5008
 2898TIP3    H2 8659   5.948   3.160   3.754 -0.7447 -1.5175  1.2618
 2899TIP3   OH2 8660   1.659   1.777   0.612  0.2145  0.2749 -0.4700
 2899TIP3    H1 8661   1.651   1.865   0.575 -0.2992  1.3320  1.9964
 2899TIP3    H2 8662   1.578   1.733   0.585 -0.5447  1.2996  0.0478
 2900TIP3   OH2 8663   4.790   1.883   2.217  0.3239 -0.4011  0.4619
 2900TIP3    H1 8664   4.753   1.965   2.251 -0.9166 -1.0321  0.7034
 2900TIP3    H2 8665   4.731   1.815   2.250 -0.3844 -1.1479 -2.1280
 2901TIP3   OH2 8666   6.267   3.618   0.938  0.0823  0.1870 -0.1599
 2901TIP3    H1 8667   6.197   3.555   0.958 -0.2111 -0.7453 -3.4482
 2901TIP3    H2 8668   6.273   3.673   1.016 -1.4099 -2.3211  1.8765
 2902TIP3   OH2 8669   3.258   1.479   0.482  0.0022 -0.1133  0.2897
 2902TIP3    H1 8670   3.337   1.429   0.461 -0.5244 -1.6145  1.7748
 2902TIP3    H2 8671   3.270   1.507   0.573 -1.1699 -0.3404  0.5298
 2903TIP3   OH2 8672   4.325   5.950   1.049  0.0442  0.2633  0.1797
 2903TIP3    H1 8673   4.328   5.860   1.015  0.8868 -0.0451  1.0205
 2903TIP3    H2 8674   4.232   5.975   1.042 -0.0808 -0.4046 -0.7154
 2904TIP3   OH2 8675   6.196   2.680   0.802 -0.2030 -0.4152  0.0755
 2904TIP3    H1 8676   6.212   2.743   0.731 -0.2900  0.2839  0.6637
 2904TIP3    H2 8677   6.130   2.620   0.766  0.1285 -0.3746 -0.6144
 2905TIP3   OH2 8678   0.892   2.797   5.839 -0.1447 -0.6789  0.2191
 2905TIP3    H1 8679   0.929   2.779   5.925 -0.5767 -2.2434  0.1154
 2905TIP3    H2 8680   0.917   2.721   5.786 -0.3063  0.0248 -0.8973
 2906TIP3   OH2 8681   6.060   3.471   1.028  0.0666  0.2012 -0.0677
 2906TIP3    H1 8682   5.969   3.450   1.007 -0.0291 -1.1800  1.4904
 2906TIP3    H2 8683   6.108   3.391   1.006  0.7173  0.5090  0.2090
 2907TIP3   OH2 8684   0.629   3.896   3.185 -0.1825 -0.4489 -0.7656
 2907TIP3    H1 8685   0.665   3.976   3.146  1.4460 -0.5100  0.5254
 2907TIP3    H2 8686   0.691   3.827   3.162 -0.6016 -0.9907 -0.3228
 2908TIP3   OH2 8687   4.075   6.578   4.489 -0.1605  0.3698  0.1512
 2908TIP3    H1 8688   4.057   6.496   4.535 -1.1465  0.0468 -0.7589
 2908TIP3    H2 8689   3.989   6.612   4.467  0.2638  0.4972 -1.4382
 2909TIP3   OH2 8690   2.969   0.238   4.040  0.2668  0.6267 -0.1964
 2909TIP3    H1 8691   3.054   0.282   4.040  0.1274  0.9643  1.3337
 2909TIP3    H2 8692   2.973   0.180   4.116 -0.8036  0.5141 -0.2151
 2910TIP3   OH2 8693   2.372   1.126   4.488 -0.4752 -0.1465  0.1267
 2910TIP3    H1 8694   2.449   1.140   4.433  0.7501 -4.8941  0.2652
 2910TIP3    H2 8695   2.298   1.148   4.431  0.8468 -1.9005 -2.4556
 2911TIP3   OH2 8696   7.002   4.779   0.401 -0.2966  0.0088  0.1848
 2911TIP3    H1 8697   7.009   4.828   0.483 -0.4009 -0.1911  0.3142
 2911TIP3    H2 8698   7.092   4.754   0.380 -0.4288 -1.3778  1.1234
 2912TIP3   OH2 8699   4.390   2.911   1.394  0.1370 -0.2114 -0.2907
 2912TIP3    H1 8700   4.479   2.876   1.403  0.3380  0.3433 -0.0919
 2912TIP3    H2 8701   4.335   2.848   1.441  0.1018 -1.7913 -2.2752
 2913TIP3   OH2 8702   3.078   2.297   5.749  0.3967 -0.3930 -0.4085
 2913TIP3    H1 8703   3.140   2.267   5.815 -0.9940 -0.8659  0.7331
 2913TIP3    H2 8704   3.029   2.368   5.792 -0.7170 -0.8912 -0.8108
 2914TIP3   OH2 8705   0.116   6.220   4.191 -0.3596  0.0126  0.5759
 2914TIP3    H1 8706   0.131   6.128   4.168 -1.1160 -0.1715  0.8049
 2914TIP3    H2 8707   0.021   6.230   4.190 -0.3024  0.6612  1.0579
 2915TIP3   OH2 8708   2.166   4.193   1.202 -0.1709 -0.5396 -0.1170
 2915TIP3    H1 8709   2.250   4.155   1.177  1.1126  1.3984  0.9377
 2915TIP3    H2 8710   2.143   4.250   1.129 -1.2775 -2.0288 -0.9808
 2916TIP3   OH2 8711   5.630   1.237   3.614 -0.1998  0.1688  0.7712
 2916TIP3    H1 8712   5.679   1.311   3.648 -1.2004  1.0593  0.3234
 2916TIP3    H2 8713   5.609   1.185   3.691  0.3931  0.4040  1.1012
 2917TIP3   OH2 8714   0.590   5.488   4.579 -0.2913  0.1148 -0.0394
 2917TIP3    H1 8715   0.628   5.444   4.503 -1.2512 -0.8278  0.0103
 2917TIP3    H2 8716   0.514   5.435   4.603 -0.3785  0.7485  1.1949
 2918TIP3   OH2 8717   1.357   4.665   4.714  0.5268 -0.3895  0.1905
 2918TIP3    H1 8718   1.418   4.706   4.775 -1.0354  0.5442  1.2136
 2918TIP3    H2 8719   1.303   4.608   4.769 -1.7996  1.4892  0.0358
 2919TIP3   OH2 8720   2.301   5.169   5.222 -0.3653  0.2659  0.2181
 2919TIP3    H1 8721   2.248   5.110   5.276 -0.1814  0.8069  0.9981
 2919TIP3    H2 8722   2.318   5.119   5.142 -0.8024 -0.4720  0.5766
 2920TIP3   OH2 8723   0.109   2.496   4.202 -0.3832  0.5170  0.0192
 2920TIP3    H1 8724   0.131   2.439   4.275  0.4761 -1.6548 -1.8321
 2920TIP3    H2 8725   0.013   2.501   4.204 -0.4440 -0.5358  0.5768
 2921TIP3   OH2 8726   6.493   6.182   0.845  0.1595 -0.1478 -1.1157
 2921TIP3    H1 8727   6.439   6.200   0.769 -3.4051  1.5871  1.5125
 2921TIP3    H2 8728   6.505   6.267   0.887 -0.0254 -1.2539  1.4067
 2922TIP3   OH2 8729   5.152   5.280   5.465  0.5105  0.0741  0.0685
 2922TIP3    H1 8730   5.126   5.197   5.506 -0.9992  0.5701  0.1848
 2922TIP3    H2 8731   5.167   5.339   5.539 -2.5769  1.0794  0.0594
 2923TIP3   OH2 8732   6.971   4.181   3.124 -0.2802 -0.0768  0.1011
 2923TIP3    H1 8733   6.886   4.139   3.110  0.0313 -0.0524 -2.3928
 2923TIP3    H2 8734   7.035   4.111   3.115  0.0239  0.0724  1.0135
 2924TIP3   OH2 8735   3.745   3.352   0.095 -0.1589 -0.1446  0.0796
 2924TIP3    H1 8736   3.825   3.333   0.144 -0.3831 -2.5580 -0.3887
 2924TIP3    H2 8737   3.718   3.438   0.127 -0.3782 -1.5992  4.3736
 2925TIP3   OH2 8738   5.765   1.346   0.558  0.4782  0.1471  0.0372
 2925TIP3    H1 8739   5.838   1.389   0.603  1.0868 -0.1768 -0.6241
 2925TIP3    H2 8740   5.752   1.264   0.606 -1.4334  1.4906  2.0244
 2926TIP3   OH2 8741   0.147   5.486   4.918 -0.9685  0.0298 -0.4503
 2926TIP3    H1 8742   0.240   5.489   4.896 -0.5724  0.4043  1.1077
 2926TIP3    H2 8743   0.105   5.442   4.844  0.6284 -1.3260 -0.5982
 2927TIP3   OH2 8744   4.771   4.340   2.909 -0.4794 -1.0895  0.5487
 2927TIP3    H1 8745   4.836   4.282   2.947  1.4841  0.5045 -0.1909
 2927TIP3    H2 8746   4.808   4.428   2.919 -1.2420 -0.3278 -2.2758
 2928TIP3   OH2 8747   3.464   0.079   5.543 -0.0310 -0.6334 -0.0530
 2928TIP3    H1 8748   3.403   0.069   5.617 -0.2937  1.3434  0.0675
 2928TIP3    H2 8749   3.497   0.168   5.552 -0.6783 -0.0407 -2.7705
 2929TIP3   OH2 8750   4.782   1.401   3.068 -0.1153 -0.3396  0.2229
 2929TIP3    H1 8751   4.811   1.488   3.041 -1.3941  0.6788  1.9330
 2929TIP3    H2 8752   4.853   1.369   3.125  0.3805 -0.4731 -0.4522
 2930TIP3   OH2 8753   3.864   5.680   1.049  0.2185 -0.1907  0.3427
 2930TIP3    H1 8754   3.788   5.667   0.992  1.9395 -2.7593 -1.5917
 2930TIP3    H2 8755   3.847   5.624   1.125  0.0515 -0.5467  0.0446
 2931TIP3   OH2 8756   6.806   2.178   1.564  0.2293  0.1240  0.1990
 2931TIP3    H1 8757   6.723   2.174   1.515 -0.2307 -0.5930  1.0097
 2931TIP3    H2 8758   6.869   2.135   1.507 -0.6953 -2.4107  0.9484
 2932TIP3   OH2 8759   5.046   6.129   1.390  0.4980  0.1846 -0.8443
 2932TIP3    H1 8760   5.032   6.199   1.326 -1.1632  0.2152 -0.4821
 2932TIP3    H2 8761   5.076   6.054   1.338  1.1024  0.7896 -1.3888
 2933TIP3   OH2 8762   3.298   6.187   0.236  0.1638 -0.4334 -0.8854
 2933TIP3    H1 8763   3.313   6.282   0.237 -1.6411 -0.0936  1.0943
 2933TIP3    H2 8764   3.292   6.164   0.329  0.7345 -2.5523 -1.3345
 2934TIP3   OH2 8765   4.745   5.169   4.523 -0.2485 -0.3084  0.4403
 2934TIP3    H1 8766   4.783   5.257   4.525 -0.7442 -0.0939  0.6477
 2934TIP3    H2 8767   4.696   5.162   4.605 -0.8015 -0.5075  0.0997
 2935TIP3   OH2 8768   5.566   5.158   0.232 -0.3372  0.2025  0.4646
 2935TIP3    H1 8769   5.491   5.206   0.266  0.6235  1.5292  0.8069
 2935TIP3    H2 8770   5.631   5.161   0.302  0.4715  0.1059 -0.2527
 2936TIP3   OH2 8771   3.705   5.422   0.516 -0.5190 -0.4671  0.2848
 2936TIP3    H1 8772   3.774   5.454   0.458 -1.2414  1.5031  0.4380
 2936TIP3    H2 8773   3.750   5.404   0.599 -0.0871  0.2597  0.2167
 2937TIP3   OH2 8774   6.228   2.914   3.550 -0.0111  0.1600 -0.4038
 2937TIP3    H1 8775   6.306   2.903   3.496 -0.9342  1.4335 -2.0865
 2937TIP3    H2 8776   6.155   2.907   3.489 -1.2261 -0.6635  1.0734
 2938TIP3   OH2 8777   4.401   3.838   0.346 -0.4004  0.9047  0.1844
 2938TIP3    H1 8778   4.424   3.753   0.383  0.9081  1.1405 -0.0218
 2938TIP3    H2 8779   4.320   3.822   0.297 -0.5861 -0.0423  0.7767
 2939TIP3   OH2 8780   2.988   5.099   4.565 -0.1297  0.0991  0.6014
 2939TIP3    H1 8781   3.043   5.074   4.639  0.3143 -0.2149  0.1751
 2939TIP3    H2 8782   3.040   5.074   4.488 -1.5638 -1.7773  0.1675
 2940TIP3   OH2 8783   4.607   4.711   4.649  0.7468 -0.5884  0.1085
 2940TIP3    H1 8784   4.542   4.768   4.690  0.2208 -2.5513  2.2270
 2940TIP3    H2 8785   4.571   4.692   4.563 -0.4876 -0.0295  0.4778
 2941TIP3   OH2 8786   2.361   2.385   1.222  0.1285 -0.1741  0.2585
 2941TIP3    H1 8787   2.414   2.420   1.151  1.5308 -1.3630  0.6771
 2941TIP3    H2 8788   2.416   2.392   1.300 -0.4009 -1.2188  0.7529
 2942TIP3   OH2 8789   2.993   0.873   3.379  0.0623  0.1525 -0.0271
 2942TIP3    H1 8790   2.899   0.867   3.360 -0.2152  0.3686  1.2189
 2942TIP3    H2 8791   3.007   0.964   3.404  0.2881 -0.2384  1.3393
 2943TIP3   OH2 8792   5.637   4.154   4.284  0.5959  0.2082  0.1739
 2943TIP3    H1 8793   5.620   4.241   4.322 -0.5263  0.2449 -0.3518
 2943TIP3    H2 8794   5.575   4.148   4.210 -0.0531 -1.4179  0.7993
 2944TIP3   OH2 8795   4.644   0.878   0.325 -0.2644 -0.0696 -0.5812
 2944TIP3    H1 8796   4.690   0.930   0.258  1.6305 -0.4846  0.3435
 2944TIP3    H2 8797   4.703   0.805   0.344 -1.8806 -1.3338 -0.2058
 2945TIP3   OH2 8798   0.331   1.726   5.823  1.0181  0.0757  0.1872
 2945TIP3    H1 8799   0.378   1.649   5.790  1.0739 -0.2356  0.9717
 2945TIP3    H2 8800   0.339   1.791   5.753  2.5423 -0.0054  0.2600
 2946TIP3   OH2 8801   3.775   4.152   5.150 -0.3282 -0.4222 -0.0857
 2946TIP3    H1 8802   3.698   4.153   5.093 -0.5078 -0.7330  0.1475
 2946TIP3    H2 8803   3.758   4.082   5.212 -0.1676 -0.0369  0.4025
 2947TIP3   OH2 8804   3.626   4.269   2.619 -0.5323  0.2649  0.6355
 2947TIP3    H1 8805   3.614   4.189   2.672  0.9189  0.4997  1.3571
 2947TIP3    H2 8806   3.656   4.237   2.534  3.5511  0.0758  1.9597
 2948TIP3   OH2 8807   6.076   1.721   3.841 -0.2430 -0.1879 -0.2953
 2948TIP3    H1 8808   6.123   1.638   3.839 -3.2739 -2.0644 -2.5227
 2948TIP3    H2 8809   5.999   1.704   3.896 -1.0296  1.0356 -0.9587
 2949TIP3   OH2 8810   4.859   1.110   0.887  0.2603  0.1207  0.4939
 2949TIP3    H1 8811   4.867   1.066   0.802  1.1286 -0.6135  0.9255
 2949TIP3    H2 8812   4.786   1.170   0.877  0.7903  0.5575 -0.9918
 2950TIP3   OH2 8813   0.820   5.378   3.177  0.2569  0.1488 -0.5458
 2950TIP3    H1 8814   0.725   5.366   3.172  0.0168  1.1287  1.0170
 2950TIP3    H2 8815   0.854   5.292   3.200 -0.3963  0.0896  0.2372
 2951TIP3   OH2 8816   2.987   2.122   4.542  0.3676 -0.1967 -0.6037
 2951TIP3    H1 8817   3.026   2.164   4.465  0.5542  1.4624  0.3447
 2951TIP3    H2 8818   3.057   2.067   4.577 -0.2803 -2.5086 -2.6119
 2952TIP3   OH2 8819   6.540   0.088   0.609 -0.3739 -0.1259  0.2560
 2952TIP3    H1 8820   6.511   0.046   0.529  0.3717 -1.3580  0.5994
 2952TIP3    H2 8821   6.535   0.182   0.591 -0.9034 -0.3800 -0.9670
 2953TIP3   OH2 8822   0.462   5.547   3.599  1.4276  0.0841  0.1579
 2953TIP3    H1 8823   0.420   5.467   3.567  0.0588 -0.0972  2.1866
 2953TIP3    H2 8824   0.534   5.516   3.655 -0.2062  0.1223  2.4084
 2954TIP3   OH2 8825   2.047   4.412   4.163  0.1030 -0.1134 -0.1214
 2954TIP3    H1 8826   2.037   4.316   4.167  0.4571 -0.1311  0.3891
 2954TIP3    H2 8827   2.008   4.436   4.079 -1.3498 -0.5290  0.4022
 2955TIP3   OH2 8828   4.558   0.504   4.014  0.2154  0.1797 -0.1312
 2955TIP3    H1 8829   4.562   0.558   4.094  1.4274  0.4023 -0.3152
 2955TIP3    H2 8830   4.538   0.416   4.045  1.3013  0.1341  0.5182
 2956TIP3   OH2 8831   6.875   5.931   5.441  0.2325 -0.1765  0.1183
 2956TIP3    H1 8832   6.942   5.911   5.506  0.2580  0.2902  0.2336
 2956TIP3    H2 8833   6.924   5.957   5.363  0.1791  0.8383  0.4169
 2957TIP3   OH2 8834   3.148   3.211   2.597  0.5271  0.1434 -0.2656
 2957TIP3    H1 8835   3.181   3.283   2.543  1.2545 -0.6163 -0.8657
 2957TIP3    H2 8836   3.054   3.225   2.602  0.1003 -0.8521 -3.4508
 2958TIP3   OH2 8837   6.546   6.589   4.763  0.2109 -0.2649 -0.0720
 2958TIP3    H1 8838   6.479   6.632   4.710 -0.3858 -1.6577 -0.5000
 2958TIP3    H2 8839   6.529   6.496   4.752  1.9416 -0.6482  0.1913
 2959TIP3   OH2 8840   2.961   1.345   1.053 -0.1380  0.1718 -0.0201
 2959TIP3    H1 8841   2.947   1.330   1.147 -0.3093 -0.0731 -0.0850
 2959TIP3    H2 8842   2.912   1.275   1.010  0.5700 -0.1774 -0.2705
 2960TIP3   OH2 8843   6.008   4.276   4.511 -0.4878 -0.1443 -0.9915
 2960TIP3    H1 8844   6.007   4.284   4.416  2.5717  1.2152 -1.0569
 2960TIP3    H2 8845   6.047   4.359   4.541  2.9478 -2.2130  0.9980
 2961TIP3   OH2 8846   4.042   1.045   4.241 -0.4156 -0.9558 -0.0647
 2961TIP3    H1 8847   4.131   1.080   4.228 -1.1096  0.4182 -1.4612
 2961TIP3    H2 8848   4.029   0.985   4.167 -0.4225 -1.6553  0.5007
 2962TIP3   OH2 8849   2.731   2.025   4.540 -0.1318  0.1322  0.0500
 2962TIP3    H1 8850   2.733   1.933   4.567  0.2355 -0.4654 -1.8308
 2962TIP3    H2 8851   2.820   2.043   4.509 -0.1554  1.1862  0.5670
 2963TIP3   OH2 8852   1.008   0.883   3.522 -0.3419 -0.7194 -0.2236
 2963TIP3    H1 8853   1.028   0.918   3.435  2.0881 -1.3094  0.0211
 2963TIP3    H2 8854   1.074   0.923   3.579 -0.6553 -1.8434  0.9768
 2964TIP3   OH2 8855   1.898   3.702   3.115 -0.4339  0.0621 -0.8288
 2964TIP3    H1 8856   1.869   3.615   3.142 -0.0450 -0.1101 -0.9671
 2964TIP3    H2 8857   1.882   3.704   3.020  1.4443 -0.6183 -1.2124
 2965TIP3   OH2 8858   4.607   6.215   5.304 -0.2220  0.4566  0.0148
 2965TIP3    H1 8859   4.642   6.230   5.216 -0.9554  0.4261 -0.2873
 2965TIP3    H2 8860   4.512   6.216   5.292 -0.3547  1.6104  1.0005
 2966TIP3   OH2 8861   5.638   3.132   4.913  0.9158 -0.1965 -0.0547
 2966TIP3    H1 8862   5.640   3.065   4.843 -0.7199 -0.3944  0.0361
 2966TIP3    H2 8863   5.573   3.195   4.883 -0.6707 -0.8654  1.7568
 2967TIP3   OH2 8864   0.330   0.250   4.853 -0.0295 -0.3831  0.0519
 2967TIP3    H1 8865   0.244   0.210   4.837  0.0545 -0.4595 -0.2148
 2967TIP3    H2 8866   0.358   0.282   4.767  0.7913 -1.5013 -0.1159
 2968TIP3   OH2 8867   3.088   0.877   4.425  0.0838 -0.1778  0.2712
 2968TIP3    H1 8868   3.019   0.839   4.480 -2.0340 -2.2049 -3.4349
 2968TIP3    H2 8869   3.143   0.803   4.401  0.8621  0.6252 -0.4800
 2969TIP3   OH2 8870   3.510   3.921   0.864  0.1458  0.4955  0.3539
 2969TIP3    H1 8871   3.533   4.001   0.818 -1.2828 -0.0703 -1.4595
 2969TIP3    H2 8872   3.569   3.855   0.829 -0.0983  0.3282  0.2521
 2970TIP3   OH2 8873   4.794   3.402   4.439  0.7510  0.6637  0.0730
 2970TIP3    H1 8874   4.786   3.457   4.517  0.3504 -0.4556  0.8597
 2970TIP3    H2 8875   4.708   3.360   4.431  1.9233 -2.2483  1.4108
 2971TIP3   OH2 8876   1.334   5.663   2.308  0.0294 -0.6990  0.0028
 2971TIP3    H1 8877   1.387   5.654   2.387  1.5560 -2.0408 -1.0974
 2971TIP3    H2 8878   1.398   5.666   2.236 -1.2593  1.1723 -1.1789
 2972TIP3   OH2 8879   6.360   5.560   2.362 -0.1681 -0.1984 -0.2164
 2972TIP3    H1 8880   6.367   5.480   2.413  1.0580  0.6659  1.0456
 2972TIP3    H2 8881   6.302   5.616   2.413  0.8013  0.5449  0.1127
 2973TIP3   OH2 8882   4.931   2.870   3.988  0.6202  0.0543 -0.2708
 2973TIP3    H1 8883   4.866   2.940   3.982 -0.1744 -0.4707  1.6236
 2973TIP3    H2 8884   4.881   2.790   3.979  1.1042 -0.3405  0.4694
 2974TIP3   OH2 8885   6.992   6.579   4.363 -0.0857 -0.2616  0.0806
 2974TIP3    H1 8886   7.016   6.630   4.286  0.6359 -0.2122  0.3330
 2974TIP3    H2 8887   7.074   6.567   4.411 -0.7450  0.9301  1.5763
 2975TIP3   OH2 8888   4.579   0.681   3.304 -0.1099  0.3267 -0.6640
 2975TIP3    H1 8889   4.631   0.723   3.372 -0.8364  1.8106 -0.9885
 2975TIP3    H2 8890   4.641   0.665   3.233 -0.2378  3.1811 -1.5439
 2976TIP3   OH2 8891   1.487   1.862   4.708 -0.0900 -0.0556  0.1479
 2976TIP3    H1 8892   1.515   1.835   4.795 -3.3136 -2.3070  0.7031
 2976TIP3    H2 8893   1.567   1.887   4.663  1.8663 -0.1618  3.2744
 2977TIP3   OH2 8894   0.130   6.686   2.591 -0.3252 -0.2917 -0.3081
 2977TIP3    H1 8895   0.131   6.683   2.496 -1.2278 -0.8529 -0.3093
 2977TIP3    H2 8896   0.209   6.735   2.614 -1.1600  1.6803 -1.3900
 2978TIP3   OH2 8897   1.573   4.047   4.095 -0.0912 -0.2219  0.2616
 2978TIP3    H1 8898   1.597   4.053   4.003  2.0692 -1.0506  0.7064
 2978TIP3    H2 8899   1.545   4.135   4.119 -1.4156 -0.1581 -1.3229
 2979TIP3   OH2 8900   3.518   4.128   5.040  0.0741  0.3196  0.2336
 2979TIP3    H1 8901   3.489   4.064   5.105  0.9191 -0.4982 -0.1503
 2979TIP3    H2 8902   3.463   4.205   5.054 -1.6945 -0.8587  0.0351
 2980TIP3   OH2 8903   0.897   2.688   0.246 -0.0768  0.4626 -0.0478
 2980TIP3    H1 8904   0.978   2.651   0.211  1.0331  0.3645  2.3905
 2980TIP3    H2 8905   0.828   2.633   0.209  1.3122 -2.2507  1.0928
 2981TIP3   OH2 8906   2.808   1.613   0.985 -0.3874  0.3022 -0.5517
 2981TIP3    H1 8907   2.833   1.520   0.984  0.4544  0.4115  2.0773
 2981TIP3    H2 8908   2.868   1.655   0.923 -1.2633 -0.9630 -2.3358
 2982TIP3   OH2 8909   4.239   5.641   1.039  0.1842  0.2067 -0.4363
 2982TIP3    H1 8910   4.294   5.603   1.108 -1.1910  0.6661  0.9741
 2982TIP3    H2 8911   4.151   5.609   1.059 -0.5445  1.8484 -0.8674
 2983TIP3   OH2 8912   5.216   0.717   2.690 -0.2577 -0.3981  0.0766
 2983TIP3    H1 8913   5.165   0.654   2.640 -1.6726 -0.0847  1.0776
 2983TIP3    H2 8914   5.286   0.665   2.730  1.1473 -0.6024 -2.4388
 2984TIP3   OH2 8915   2.248   1.986   1.405  0.1550  0.4198 -0.3942
 2984TIP3    H1 8916   2.202   1.904   1.423  1.8466 -0.5838 -0.4153
 2984TIP3    H2 8917   2.236   2.002   1.312  0.1509 -0.0214 -0.4678
 2985TIP3   OH2 8918   2.359   4.200   5.623 -0.0403  0.2399  0.1442
 2985TIP3    H1 8919   2.283   4.207   5.565 -0.4896 -2.8788  0.1959
 2985TIP3    H2 8920   2.325   4.224   5.709 -1.0217 -1.0862  0.1608
 2986TIP3   OH2 8921   5.199   4.312   4.739 -0.2442 -0.1453 -0.2426
 2986TIP3    H1 8922   5.224   4.254   4.811  0.6178  1.2782  0.6582
 2986TIP3    H2 8923   5.275   4.311   4.680 -0.2197  0.0794 -0.2154
 2987TIP3   OH2 8924   1.096   0.810   0.299  0.3073  0.3649 -0.1934
 2987TIP3    H1 8925   1.084   0.720   0.329 -0.0994  0.1898 -0.8608
 2987TIP3    H2 8926   1.009   0.838   0.271 -0.0141  1.6869  1.8770
 2988TIP3   OH2 8927   6.885   0.464   2.899  0.2815  0.3775 -0.0174
 2988TIP3    H1 8928   6.940   0.530   2.856  2.0413 -1.9988 -1.7173
 2988TIP3    H2 8929   6.945   0.394   2.923 -1.5819 -0.9631  1.0570
 2989TIP3   OH2 8930   4.008   4.469   0.852 -0.0987 -0.1176 -0.0435
 2989TIP3    H1 8931   4.080   4.427   0.898 -0.8481 -0.4139  0.8867
 2989TIP3    H2 8932   4.033   4.464   0.759  0.6397 -1.0402  0.1871
 2990TIP3   OH2 8933   5.315   4.467   2.368 -0.3279 -0.6627  0.2672
 2990TIP3    H1 8934   5.284   4.556   2.354  0.8890 -0.2290  0.1768
 2990TIP3    H2 8935   5.237   4.412   2.359 -1.4297  0.5281  1.9991
 2991TIP3   OH2 8936   5.838   1.645   3.094 -0.2791  0.2516  0.5028
 2991TIP3    H1 8937   5.860   1.577   3.156 -2.1392 -0.7475  0.1406
 2991TIP3    H2 8938   5.880   1.618   3.012 -0.5022 -0.1453  0.5179
 2992TIP3   OH2 8939   3.122   2.696   0.804  0.0520  0.1266 -0.1050
 2992TIP3    H1 8940   3.203   2.645   0.806 -0.4804 -0.7900 -0.8925
 2992TIP3    H2 8941   3.053   2.633   0.825 -0.5327  0.7254 -0.2006
 2993TIP3   OH2 8942   2.478   1.257   0.055  0.2336  0.1293  0.0340
 2993TIP3    H1 8943   2.476   1.184  -0.007 -0.8425 -0.5142  0.7631
 2993TIP3    H2 8944   2.559   1.245   0.104  1.0823  0.6395 -1.2261
 2994TIP3   OH2 8945   2.992   5.731   5.640 -0.0303  0.2045 -0.1722
 2994TIP3    H1 8946   2.956   5.643   5.631 -2.1613  1.0917 -0.8103
 2994TIP3    H2 8947   3.017   5.756   5.551 -1.9997  1.2309 -0.4889
 2995TIP3   OH2 8948   2.560   2.701   5.551  0.0528  0.3862 -0.0108
 2995TIP3    H1 8949   2.557   2.644   5.475 -0.1020 -1.5331  1.3560
 2995TIP3    H2 8950   2.478   2.750   5.549 -0.5177 -0.5659 -0.4194
 2996TIP3   OH2 8951   0.487   2.864   3.668 -0.0495  0.1424 -0.7113
 2996TIP3    H1 8952   0.451   2.827   3.749  0.1761 -0.5034 -0.9034
 2996TIP3    H2 8953   0.502   2.956   3.689 -0.4582  0.0915 -0.1735
 2997TIP3   OH2 8954   7.186   2.597   4.656 -0.0321  0.2743  0.7987
 2997TIP3    H1 8955   7.120   2.572   4.720  1.2505 -0.0341  2.0536
 2997TIP3    H2 8956   7.156   2.682   4.623 -1.7973 -0.5195  0.2241
 2998TIP3   OH2 8957   3.340   1.793   1.158 -0.2016  0.1135  0.5858
 2998TIP3    H1 8958   3.308   1.862   1.216  1.5263  0.2351  1.4682
 2998TIP3    H2 8959   3.345   1.715   1.214  0.2416 -0.0933  0.2705
 2999TIP3   OH2 8960   5.593   3.659   0.999 -0.7664  0.1225  0.2410
 2999TIP3    H1 8961   5.586   3.754   0.989  1.7516  0.1646 -2.0118
 2999TIP3    H2 8962   5.543   3.623   0.926 -1.7803 -0.3591  1.1301
 3000TIP3   OH2 8963   4.047   0.010   0.564  0.1900  0.1071 -0.6859
 3000TIP3    H1 8964   4.074   0.101   0.573  2.0086 -0.5193  0.9625
 3000TIP3    H2 8965   4.124  -0.041   0.590 -1.0149 -1.9041 -0.8057
 3001TIP3   OH2 8966   1.244   6.044   1.612 -0.0379 -0.2685  0.1335
 3001TIP3    H1 8967   1.218   5.952   1.607 -1.2102 -0.0078  1.0946
 3001TIP3    H2 8968   1.181   6.090   1.557  0.7885 -0.0664 -0.6687
 3002TIP3   OH2 8969   4.824   5.818   5.255  0.2896  0.5071  0.7638
 3002TIP3    H1 8970   4.884   5.743   5.260 -0.5375 -0.1348  1.2333
 3002TIP3    H2 8971   4.855   5.878   5.323  3.3563  2.4513 -2.0448
 3003TIP3   OH2 8972   7.071   2.852   4.608  0.1388  0.2894  0.3850
 3003TIP3    H1 8973   7.109   2.939   4.595 -0.2764  0.2438 -1.4397
 3003TIP3    H2 8974   6.986   2.868   4.650 -0.1406  0.8238 -0.3625
 3004TIP3   OH2 8975   3.790   4.071   2.221 -0.3037 -0.4416 -0.6146
 3004TIP3    H1 8976   3.740   4.147   2.251  1.6310  1.5086 -2.0051
 3004TIP3    H2 8977   3.752   3.997   2.268 -1.9267  1.4393  1.2264
 3005TIP3   OH2 8978   5.654   4.673   4.753 -0.4107  0.4936 -0.1575
 3005TIP3    H1 8979   5.567   4.651   4.786  0.1299  0.0545  1.0020
 3005TIP3    H2 8980   5.702   4.705   4.829  0.9316 -0.7028 -0.4656
 3006TIP3   OH2 8981   5.110   2.403   2.346 -0.3425 -0.1083 -0.0067
 3006TIP3    H1 8982   5.137   2.365   2.262 -0.6375 -1.6871  0.5861
 3006TIP3    H2 8983   5.015   2.396   2.347 -0.4299  0.8770  0.0355
 3007TIP3   OH2 8984   6.760   0.081   5.458  0.6265  0.4682  0.3177
 3007TIP3    H1 8985   6.700   0.076   5.533  1.4151  0.3520  0.9596
 3007TIP3    H2 8986   6.748  -0.002   5.412  2.3945 -0.8957  2.1171
 3008TIP3   OH2 8987   3.134   5.178   3.811 -0.3691  0.6301  0.0614
 3008TIP3    H1 8988   3.067   5.189   3.878 -1.0225 -1.3209 -0.2077
 3008TIP3    H2 8989   3.086   5.175   3.728  0.1448  0.3689 -0.2373
 3009TIP3   OH2 8990   3.910   6.770   0.080  0.2820  0.7286 -0.5269
 3009TIP3    H1 8991   3.879   6.681   0.068 -1.0852  0.9609  1.0404
 3009TIP3    H2 8992   3.882   6.816   0.001 -1.8073  0.4895  0.0332
 3010TIP3   OH2 8993   3.851   0.293   5.841 -0.2254  0.3582  0.2110
 3010TIP3    H1 8994   3.876   0.350   5.914 -1.9905 -1.0984  2.0826
 3010TIP3    H2 8995   3.912   0.220   5.845 -0.5620  0.0864  0.5188
 3011TIP3   OH2 8996   3.244   2.600   3.010 -0.1772 -0.0414  0.6194
 3011TIP3    H1 8997   3.272   2.675   3.063 -1.0958  0.8718 -0.1439
 3011TIP3    H2 8998   3.309   2.594   2.941  2.0466 -2.3341  2.7136
 3012TIP3   OH2 8999   3.860   4.602   1.167 -0.0130  0.1094  0.0107
 3012TIP3    H1 9000   3.953   4.583   1.157 -0.0777 -0.2885  0.1266
 3012TIP3    H2 9001   3.816   4.526   1.128 -0.2904  0.5002 -0.4411
 3013TIP3   OH2 9002   2.529   5.026   5.544  0.1991  0.4529  0.5406
 3013TIP3    H1 9003   2.557   4.966   5.613  0.2958 -2.2958 -1.7149
 3013TIP3    H2 9004   2.434   5.030   5.553  0.3482  1.5584  1.8786
 3014TIP3   OH2 9005   0.711   2.046   1.266  0.3171 -0.1819  0.2540
 3014TIP3    H1 9006   0.775   1.980   1.239 -0.5015 -0.6201 -0.6696
 3014TIP3    H2 9007   0.680   2.084   1.184 -1.4611 -0.8039  0.6051
 3015TIP3   OH2 9008   7.019   1.434   0.902 -0.1648  0.0953 -0.0641
 3015TIP3    H1 9009   6.976   1.415   0.985 -0.9560  2.4153  0.1129
 3015TIP3    H2 9010   7.017   1.351   0.854 -2.2937 -0.5723  1.0775
 3016TIP3   OH2 9011   4.763   1.992   0.799  0.5323  0.2592  0.2628
 3016TIP3    H1 9012   4.709   2.070   0.805  0.8161  0.5742 -1.0003
 3016TIP3    H2 9013   4.705   1.924   0.766  0.9390  0.7070 -1.5310
 3017TIP3   OH2 9014   3.108   4.447   0.752  0.0787 -0.3330 -0.1998
 3017TIP3    H1 9015   3.111   4.523   0.811 -0.9459 -1.9703  2.1373
 3017TIP3    H2 9016   3.200   4.432   0.729  0.9065 -0.8984  2.8990
 3018TIP3   OH2 9017   5.938   1.826   2.131  0.1785  0.2819  1.2438
 3018TIP3    H1 9018   5.934   1.849   2.038  0.0954 -2.2683  0.5498
 3018TIP3    H2 9019   5.862   1.769   2.145  1.7653 -1.7528  2.0933
 3019TIP3   OH2 9020   2.982   4.649   3.647  0.2451 -0.0645 -0.5407
 3019TIP3    H1 9021   2.941   4.735   3.640  0.7238  0.2508  0.3708
 3019TIP3    H2 9022   3.073   4.667   3.670  0.2816 -0.8259 -0.0534
 3020TIP3   OH2 9023   0.870   2.458   0.745 -0.2960  0.5257 -0.2578
 3020TIP3    H1 9024   0.843   2.467   0.653  0.3954  3.1557 -0.2918
 3020TIP3    H2 9025   0.962   2.432   0.739 -0.9652 -2.1411 -0.2025
 3021TIP3   OH2 9026   2.901   4.021   0.033 -0.0650 -0.0204 -0.5152
 3021TIP3    H1 9027   2.944   3.972   0.103  1.0400  0.1920 -1.0184
 3021TIP3    H2 9028   2.972   4.068  -0.010 -0.6389 -0.5037 -2.0613
 3022TIP3   OH2 9029   4.499   3.269   1.049  0.2271  0.1305  0.0733
 3022TIP3    H1 9030   4.445   3.221   1.112 -0.2329  2.7785  1.8208
 3022TIP3    H2 9031   4.558   3.322   1.102  1.8252  0.3371 -1.7807
 3023TIP3   OH2 9032   4.235   3.634   1.810 -0.3466  0.6255 -0.1312
 3023TIP3    H1 9033   4.275   3.709   1.765  1.6304  0.3719  1.0841
 3023TIP3    H2 9034   4.299   3.610   1.877 -1.8379 -0.9183  0.8018
 3024TIP3   OH2 9035   1.218   1.227   0.085 -0.0650 -0.2287  0.8180
 3024TIP3    H1 9036   1.136   1.262   0.118 -0.2540 -1.1238  1.3355
 3024TIP3    H2 9037   1.281   1.298   0.098 -0.7715  0.5128  0.2835
 3025TIP3   OH2 9038   4.923   3.537   1.337  0.1921 -0.1797  0.8015
 3025TIP3    H1 9039   4.969   3.454   1.322  2.0481  0.8761  0.1826
 3025TIP3    H2 9040   4.852   3.537   1.274  0.6379 -0.9868  0.2765
 3026TIP3   OH2 9041   2.314   3.875   4.602 -0.4213  0.2858  0.6336
 3026TIP3    H1 9042   2.303   3.876   4.697 -0.0397 -0.9423  0.7122
 3026TIP3    H2 9043   2.229   3.900   4.567 -0.0096  2.8975  1.2870
 3027TIP3   OH2 9044   1.869   5.085   3.730  0.2239 -0.9396  0.1634
 3027TIP3    H1 9045   1.833   5.134   3.804 -0.5561 -1.0000 -0.1657
 3027TIP3    H2 9046   1.935   5.143   3.693 -0.6407 -0.1516 -0.1789
 3028TIP3   OH2 9047   4.476   2.012   5.583  0.0680 -0.6362  0.1885
 3028TIP3    H1 9048   4.523   2.082   5.627  1.1011 -0.6396 -0.8725
 3028TIP3    H2 9049   4.494   1.934   5.635 -0.1685 -0.3293  0.7397
 3029TIP3   OH2 9050   1.738   1.755   3.841  0.0987 -0.0646  0.1347
 3029TIP3    H1 9051   1.687   1.803   3.907  0.2554 -0.8651  0.8585
 3029TIP3    H2 9052   1.810   1.815   3.819  0.4272 -0.0417  1.1980
 3030TIP3   OH2 9053   5.781   2.816   3.753  0.3919 -0.1183  0.1349
 3030TIP3    H1 9054   5.818   2.901   3.730 -0.1020 -0.1513 -0.8935
 3030TIP3    H2 9055   5.754   2.779   3.668 -1.3444 -0.3665  0.7512
 3031TIP3   OH2 9056   5.680   3.834   4.186  0.0994  0.2400  0.2930
 3031TIP3    H1 9057   5.656   3.891   4.114  0.0675 -0.8106 -0.5562
 3031TIP3    H2 9058   5.690   3.892   4.261 -1.7267  1.1211 -0.1074
 3032TIP3   OH2 9059   4.298   5.959   4.419 -0.2385 -0.0862  0.6297
 3032TIP3    H1 9060   4.246   5.890   4.376 -1.5053 -0.0902  2.0895
 3032TIP3    H2 9061   4.359   5.911   4.475  0.1209 -0.0387  0.2866
 3033TIP3   OH2 9062   3.706   3.980   1.238 -0.5762  0.2992  0.0860
 3033TIP3    H1 9063   3.633   4.001   1.179 -0.4879 -0.0060 -0.1341
 3033TIP3    H2 9064   3.749   4.064   1.253 -0.4157  0.3349 -0.5326
 3034TIP3   OH2 9065   7.085   3.357   1.787 -0.0920 -0.2974 -0.0374
 3034TIP3    H1 9066   7.031   3.282   1.765  0.1251 -0.3508 -0.3874
 3034TIP3    H2 9067   7.028   3.413   1.840 -1.6161  1.2464 -3.0553
 3035TIP3   OH2 9068   5.778   3.726   0.549  0.3317 -0.5467  0.3221
 3035TIP3    H1 9069   5.805   3.795   0.609 -0.6290 -0.1739  0.3437
 3035TIP3    H2 9070   5.846   3.659   0.556  0.0466 -0.6810  2.1102
 3036TIP3   OH2 9071   5.894   1.712   0.816 -0.3450  0.1888  0.5584
 3036TIP3    H1 9072   5.981   1.672   0.804 -1.2322 -1.3853 -1.0451
 3036TIP3    H2 9073   5.912   1.805   0.822  1.3554  0.0736 -1.5073
 3037TIP3   OH2 9074   0.995   6.129   3.138 -0.7427  0.2551  0.4692
 3037TIP3    H1 9075   1.069   6.117   3.197  0.0611  1.3158 -0.2846
 3037TIP3    H2 9076   1.027   6.188   3.070 -1.7788 -0.5750 -0.7976
 3038TIP3   OH2 9077   5.548   3.894   5.502  0.3669 -0.2357 -0.0268
 3038TIP3    H1 9078   5.639   3.923   5.509  0.5938 -0.3245 -2.0323
 3038TIP3    H2 9079   5.499   3.973   5.477  0.0664 -0.3856  0.0871
 3039TIP3   OH2 9080   2.874   5.191   1.271 -0.1260  0.4110 -0.1568
 3039TIP3    H1 9081   2.936   5.155   1.207 -1.1477  0.8118 -1.4038
 3039TIP3    H2 9082   2.904   5.156   1.355  2.2991  1.2691 -0.5823
 3040TIP3   OH2 9083   4.542   1.789   3.702 -0.4450  0.1999  0.1685
 3040TIP3    H1 9084   4.611   1.806   3.767  0.2917 -0.7326 -0.3369
 3040TIP3    H2 9085   4.519   1.876   3.669  0.3867  0.5480  0.4654
 3041TIP3   OH2 9086   5.440   3.670   5.419 -0.0392 -0.0726  0.2128
 3041TIP3    H1 9087   5.504   3.738   5.436  0.8136 -0.7474 -0.2008
 3041TIP3    H2 9088   5.414   3.684   5.328  0.5529 -0.6237 -0.0475
 3042TIP3   OH2 9089   3.805   1.865   4.941 -0.5861 -0.5259 -0.1391
 3042TIP3    H1 9090   3.811   1.933   5.008 -0.7611  0.0484 -0.6950
 3042TIP3    H2 9091   3.796   1.913   4.859  2.2295 -1.1236 -0.9131
 3043TIP3   OH2 9092   5.081   3.805   3.978 -0.1602  0.1425 -0.7553
 3043TIP3    H1 9093   4.996   3.792   3.936 -0.9095  1.7217  0.1946
 3043TIP3    H2 9094   5.065   3.872   4.045  2.3800  2.4636 -2.3051
 3044TIP3   OH2 9095   2.283   4.085   2.894 -0.8641  0.1954  0.3413
 3044TIP3    H1 9096   2.368   4.087   2.849 -1.5300 -0.4537 -0.9974
 3044TIP3    H2 9097   2.279   3.997   2.932 -1.6882 -0.4659 -1.1787
 3045TIP3   OH2 9098   2.145   2.365   4.648 -0.0632  0.6012 -0.2444
 3045TIP3    H1 9099   2.196   2.444   4.632  1.0341 -0.0025  0.2008
 3045TIP3    H2 9100   2.202   2.310   4.701 -0.8976 -0.4028 -0.3682
 3046TIP3   OH2 9101   2.746   3.935   4.671 -0.3821 -0.2593  0.3752
 3046TIP3    H1 9102   2.723   3.952   4.762 -0.7766  1.6865 -0.0452
 3046TIP3    H2 9103   2.836   3.964   4.662 -0.2893 -0.5974  0.1728
 3047TIP3   OH2 9104   1.388   6.083   2.722 -0.4734  0.0328  0.0030
 3047TIP3    H1 9105   1.420   6.170   2.699 -1.2291  0.4452  0.4511
 3047TIP3    H2 9106   1.447   6.053   2.791  1.3821 -0.9260 -1.8770
 3048TIP3   OH2 9107   3.532   3.332   1.291  0.4599  0.1976  0.2921
 3048TIP3    H1 9108   3.493   3.415   1.264  0.6072  0.1772  0.0103
 3048TIP3    H2 9109   3.473   3.298   1.358 -2.1192 -1.6374 -2.6582
 3049TIP3   OH2 9110   4.300   5.869   2.093 -0.6787 -0.2719  0.9254
 3049TIP3    H1 9111   4.293   5.848   2.186  1.1766  1.9217  1.6674
 3049TIP3    H2 9112   4.394   5.877   2.078 -0.9468 -0.5091 -1.1473
 3050TIP3   OH2 9113   7.162   0.678   0.157 -0.2060 -0.1463  1.1827
 3050TIP3    H1 9114   7.172   0.749   0.094 -2.7495 -1.4319 -0.8820
 3050TIP3    H2 9115   7.102   0.713   0.223  1.1119  0.6373  2.0020
 3051TIP3   OH2 9116   4.915   3.172   4.490  0.7520  0.1229  0.1074
 3051TIP3    H1 9117   4.990   3.166   4.549 -0.6773  1.5418  2.1962
 3051TIP3    H2 9118   4.896   3.266   4.486 -1.7347 -0.3039  0.7259
 3052TIP3   OH2 9119   0.250   4.089   4.889  0.4596 -0.4344 -0.2248
 3052TIP3    H1 9120   0.238   4.148   4.963 -0.6520 -1.7849  0.7206
 3052TIP3    H2 9121   0.295   4.142   4.823  1.3376  0.8444  1.3381
 3053TIP3   OH2 9122   0.852   1.089   3.841 -0.4567  0.3623  0.1134
 3053TIP3    H1 9123   0.770   1.137   3.853 -1.2133 -1.1683  1.6467
 3053TIP3    H2 9124   0.825   1.007   3.800  0.5069  0.3755 -0.5737
 3054TIP3   OH2 9125   6.874   2.612   0.205  0.6150 -0.0145 -0.2453
 3054TIP3    H1 9126   6.820   2.675   0.157 -0.3928 -1.2274 -0.7473
 3054TIP3    H2 9127   6.824   2.594   0.284  0.4782 -0.8297 -0.5124
 3055TIP3   OH2 9128   2.960   1.744   5.146  0.2002 -0.1491  0.6332
 3055TIP3    H1 9129   2.993   1.794   5.072 -1.3481 -2.2510 -1.6274
 3055TIP3    H2 9130   3.039   1.710   5.188  1.1171  0.9242 -0.1431
 3056TIP3   OH2 9131   0.451   6.369   1.300 -0.5765  0.1886 -0.3624
 3056TIP3    H1 9132   0.433   6.420   1.220 -0.2050 -1.9618 -1.9142
 3056TIP3    H2 9133   0.451   6.278   1.270 -1.2506 -0.7630  2.2862
 3057TIP3   OH2 9134   1.161   3.729   1.088 -0.4044 -0.4289  0.3161
 3057TIP3    H1 9135   1.141   3.635   1.083 -0.2180 -0.4553  0.0034
 3057TIP3    H2 9136   1.076   3.771   1.097 -0.5061 -0.6156  0.2525
 3058TIP3   OH2 9137   0.503   3.378   4.695 -0.0866  0.0565 -0.2703
 3058TIP3    H1 9138   0.459   3.315   4.751 -1.5357 -0.5356 -1.9516
 3058TIP3    H2 9139   0.511   3.333   4.610  3.1999  0.4007 -0.2935
 3059TIP3   OH2 9140   2.224   1.447   5.410  0.6732 -0.4450  0.5081
 3059TIP3    H1 9141   2.277   1.374   5.379  0.7795  0.2457 -1.0406
 3059TIP3    H2 9142   2.137   1.431   5.372  0.6403  0.1053  0.3472
 3060TIP3   OH2 9143   1.755   0.935   2.838  0.3950 -0.2056  0.2879
 3060TIP3    H1 9144   1.729   0.984   2.759  3.0035  1.8813  0.6007
 3060TIP3    H2 9145   1.715   0.984   2.910 -0.1356 -0.8280  0.4340
 3061TIP3   OH2 9146   1.100   5.294   5.453  0.1945 -0.1914 -0.7824
 3061TIP3    H1 9147   1.123   5.345   5.530  1.8419  0.2870 -1.5556
 3061TIP3    H2 9148   1.183   5.262   5.419 -0.6444 -1.9289 -1.3419
 3062TIP3   OH2 9149   0.684   4.237   4.509 -0.1992 -0.2448 -0.6372
 3062TIP3    H1 9150   0.674   4.332   4.496  0.3198 -0.4151 -2.4841
 3062TIP3    H2 9151   0.766   4.228   4.558 -1.2897  0.3282  1.4202
 3063TIP3   OH2 9152   1.154   0.727   1.082 -0.0506  0.0278 -0.6037
 3063TIP3    H1 9153   1.071   0.773   1.097  0.1119  0.3962 -0.8157
 3063TIP3    H2 9154   1.127   0.642   1.048 -0.3324  0.6297 -1.9677
 3064TIP3   OH2 9155   2.897   6.298   3.327 -0.1057  0.1319  0.4987
 3064TIP3    H1 9156   2.862   6.247   3.399 -0.8708  0.2282  0.2125
 3064TIP3    H2 9157   2.846   6.269   3.251  0.8941 -0.1855 -0.0578
 3065TIP3   OH2 9158   6.558   6.190   5.133  0.0604  0.4865  0.5075
 3065TIP3    H1 9159   6.556   6.152   5.045  1.5449  0.3546  0.5069
 3065TIP3    H2 9160   6.501   6.133   5.185 -0.4740  0.3005 -0.2694
 3066TIP3   OH2 9161   0.841   3.686   3.922  0.0029  0.2084  0.2195
 3066TIP3    H1 9162   0.751   3.656   3.935 -0.1404  0.2276 -0.6398
 3066TIP3    H2 9163   0.858   3.672   3.829  0.3708  1.5727  0.0481
 3067TIP3   OH2 9164   4.905   0.984   5.572 -0.8311 -0.0462  0.3161
 3067TIP3    H1 9165   4.839   1.046   5.603 -0.0160  0.8873  0.2543
 3067TIP3    H2 9166   4.989   1.026   5.594 -0.2578 -1.1298  0.2564
 3068TIP3   OH2 9167   3.962   2.212   4.500  0.1085  0.2114  0.4622
 3068TIP3    H1 9168   3.914   2.155   4.440  1.1175  1.6591 -1.9243
 3068TIP3    H2 9169   3.944   2.301   4.468 -0.0634  1.1660  2.9688
 3069TIP3   OH2 9170   4.349   2.325   0.262  0.1433 -0.3154  0.0350
 3069TIP3    H1 9171   4.265   2.308   0.305  0.6390 -1.2738  0.6784
 3069TIP3    H2 9172   4.413   2.276   0.315  1.2931  1.3785  0.2755
 3070TIP3   OH2 9173   3.351   6.675   5.535  0.6959  0.0651 -0.1030
 3070TIP3    H1 9174   3.341   6.770   5.543  1.4008  0.0314  1.5297
 3070TIP3    H2 9175   3.273   6.639   5.576  0.9216 -0.0712  0.2058
 3071TIP3   OH2 9176   2.997   2.110   3.305  0.3164 -0.5778 -0.0438
 3071TIP3    H1 9177   3.082   2.144   3.275 -0.1561  1.5796  0.8751
 3071TIP3    H2 9178   3.000   2.017   3.284  2.4634 -0.3475 -1.0541
 3072TIP3   OH2 9179   0.776   5.854   2.875  0.3386  0.3197 -0.7182
 3072TIP3    H1 9180   0.729   5.777   2.907  1.5464  0.7753  2.5134
 3072TIP3    H2 9181   0.731   5.928   2.916  1.8541  0.9732 -0.1551
 3073TIP3   OH2 9182   7.192   1.666   3.044  0.6917  0.0380 -0.1671
 3073TIP3    H1 9183   7.171   1.757   3.063  0.5786  0.2285 -1.1294
 3073TIP3    H2 9184   7.106   1.624   3.032  0.7470 -0.1465  0.0859
 3074TIP3   OH2 9185   1.935   1.604   2.451 -0.3983 -0.3801 -0.0965
 3074TIP3    H1 9186   1.875   1.566   2.515 -0.6269 -0.1291 -0.1646
 3074TIP3    H2 9187   2.019   1.608   2.497 -0.5529 -0.2386  0.1762
 3075TIP3   OH2 9188   1.654   4.302   5.223 -0.1399 -0.1955 -0.4638
 3075TIP3    H1 9189   1.749   4.298   5.222 -0.0235  1.6523 -2.1148
 3075TIP3    H2 9190   1.626   4.239   5.157  0.0031  0.1238 -0.8313
 3076TIP3   OH2 9191   4.555   3.056   4.323  0.1297 -0.4157  0.3521
 3076TIP3    H1 9192   4.587   2.990   4.262  1.0009  0.0680  0.2650
 3076TIP3    H2 9193   4.466   3.075   4.293  0.6102 -0.0412 -0.9187
 3077TIP3   OH2 9194   1.737   1.119   3.084 -0.8033  0.1344 -0.6540
 3077TIP3    H1 9195   1.714   1.192   3.141 -0.4756  0.5418 -1.0360
 3077TIP3    H2 9196   1.833   1.115   3.087 -0.7957  0.0090 -0.9864
 3078TIP3   OH2 9197   6.117   0.929   5.439  0.2088 -0.0531  0.0227
 3078TIP3    H1 9198   6.159   0.948   5.523 -1.5680 -0.2736  1.0096
 3078TIP3    H2 9199   6.085   1.014   5.409  0.7754  0.0128 -0.3922
 3079TIP3   OH2 9200   4.571   6.814   0.975 -0.2492  0.1971 -0.6399
 3079TIP3    H1 9201   4.523   6.733   0.992 -0.8799  0.7321  0.2150
 3079TIP3    H2 9202   4.564   6.826   0.881 -0.6934 -0.4093 -0.6967
 3080TIP3   OH2 9203   5.909   5.981   0.300  0.0541  0.8529 -0.1406
 3080TIP3    H1 9204   5.837   5.996   0.361  1.0873  0.8627  1.1227
 3080TIP3    H2 9205   5.915   5.886   0.292  0.1564  0.8433  0.0588
 3081TIP3   OH2 9206   2.889   1.859   1.760  0.0324  0.1723  0.1208
 3081TIP3    H1 9207   2.900   1.954   1.751  0.8746 -0.0120 -1.0246
 3081TIP3    H2 9208   2.822   1.836   1.696  0.9925 -0.2003 -0.7885
 3082TIP3   OH2 9209   4.291   3.654   4.018  1.0653  0.3762  0.7463
 3082TIP3    H1 9210   4.270   3.732   3.968 -1.1139  0.1194  1.1804
 3082TIP3    H2 9211   4.371   3.621   3.978  0.8018  1.5925 -0.8713
 3083TIP3   OH2 9212   1.702   6.065   4.316 -0.0289  0.1728  0.1547
 3083TIP3    H1 9213   1.651   6.042   4.394 -1.0732  1.0569 -0.2270
 3083TIP3    H2 9214   1.698   5.987   4.261 -2.1854  0.6474 -0.4567
 3084TIP3   OH2 9215   2.843   6.060   4.246  0.2986 -0.9649  0.3895
 3084TIP3    H1 9216   2.834   5.985   4.188  1.3025 -1.5740  0.9872
 3084TIP3    H2 9217   2.790   6.038   4.323 -1.4014  0.0405 -0.4537
 3085TIP3   OH2 9218   6.447   4.465   5.462 -0.1372 -0.4900 -0.5616
 3085TIP3    H1 9219   6.438   4.396   5.528 -2.5813  0.5853  0.3139
 3085TIP3    H2 9220   6.372   4.453   5.404 -1.4126  2.1731  0.3938
 3086TIP3   OH2 9221   5.308   3.542   2.393  0.1142 -0.8993 -0.1199
 3086TIP3    H1 9222   5.258   3.546   2.475  0.2111 -1.0674 -0.0537
 3086TIP3    H2 9223   5.356   3.460   2.397  1.8469  0.1050  0.6520
 3087TIP3   OH2 9224   5.484   3.714   2.283  0.1276 -0.0938 -0.3890
 3087TIP3    H1 9225   5.451   3.802   2.304  0.5083  0.0280 -0.3101
 3087TIP3    H2 9226   5.424   3.655   2.328  0.9319  0.1580  1.0543
 3088TIP3   OH2 9227   0.709   0.505   2.800  0.1071 -0.2494 -0.4632
 3088TIP3    H1 9228   0.697   0.429   2.856  0.2997 -0.3656 -0.5779
 3088TIP3    H2 9229   0.790   0.546   2.832 -0.8900  0.8718  0.7028
 3089TIP3   OH2 9230   1.901   6.086   5.112  0.2291 -0.6362 -0.2909
 3089TIP3    H1 9231   1.987   6.129   5.106  0.5278 -0.9454  1.3769
 3089TIP3    H2 9232   1.839   6.158   5.126  0.2826 -0.4707 -0.8628
 3090TIP3   OH2 9233   4.344   1.920   4.144  0.0230  0.0726 -0.2315
 3090TIP3    H1 9234   4.253   1.906   4.167  0.1178  0.6091  0.4854
 3090TIP3    H2 9235   4.393   1.868   4.208  0.2630  1.0036  0.3556
 3091TIP3   OH2 9236   3.318   3.791   2.257 -0.1511  0.2399 -0.0370
 3091TIP3    H1 9237   3.271   3.852   2.315  1.3650 -0.2208  1.7954
 3091TIP3    H2 9238   3.260   3.780   2.182 -1.8093  1.6189  0.9520
 3092TIP3   OH2 9239   7.148   3.073   4.400 -0.5964  0.0577 -0.2929
 3092TIP3    H1 9240   7.087   3.077   4.326 -0.1381 -1.0251 -0.7548
 3092TIP3    H2 9241   7.188   2.986   4.393  1.7576  1.1031 -0.5953
 3093TIP3   OH2 9242   0.639   1.414   3.186 -0.0303  0.3008  0.1358
 3093TIP3    H1 9243   0.692   1.342   3.152 -0.7683 -0.2821  0.1931
 3093TIP3    H2 9244   0.703   1.477   3.220  0.7360  0.7385 -1.9636
 3094TIP3   OH2 9245   0.500   1.002   5.558  0.1157  0.2379  0.7518
 3094TIP3    H1 9246   0.468   0.926   5.606 -0.1310  1.1566  2.0977
 3094TIP3    H2 9247   0.431   1.068   5.568 -0.2104  0.2962 -1.3736
 3095TIP3   OH2 9248   3.300   2.486   4.896  0.2430  0.1338  0.8331
 3095TIP3    H1 9249   3.207   2.478   4.918  0.0206  0.0581 -0.0950
 3095TIP3    H2 9250   3.344   2.497   4.981 -0.5987  0.0846  1.2863
 3096TIP3   OH2 9251   6.617   5.736   3.271 -0.6491 -0.5227  0.0584
 3096TIP3    H1 9252   6.647   5.725   3.181  0.1644 -1.6971  0.4313
 3096TIP3    H2 9253   6.621   5.647   3.308  0.4748  0.1294  1.6575
 3097TIP3   OH2 9254   1.427   1.897   1.178  0.0209 -0.0435 -0.1368
 3097TIP3    H1 9255   1.481   1.898   1.099  1.2902  0.3038  0.7138
 3097TIP3    H2 9256   1.477   1.947   1.242 -1.4814  0.5840  0.5899
 3098TIP3   OH2 9257   4.324   6.153   1.998  0.1816  0.1915  0.3564
 3098TIP3    H1 9258   4.290   6.087   2.059 -1.4787  1.6564  1.1333
 3098TIP3    H2 9259   4.287   6.235   2.030 -0.0034  1.1524 -2.1167
 3099TIP3   OH2 9260   7.156   3.737   5.467 -0.3701 -0.2289 -0.3354
 3099TIP3    H1 9261   7.175   3.653   5.427 -3.1722 -0.5570 -1.1220
 3099TIP3    H2 9262   7.175   3.724   5.560  0.7179 -1.2044 -0.6695
 3100TIP3   OH2 9263   2.300   0.216   5.735 -0.9711  0.3081 -0.1197
 3100TIP3    H1 9264   2.290   0.273   5.659  2.8160 -0.7666 -1.6310
 3100TIP3    H2 9265   2.383   0.242   5.773 -1.6076 -0.8622  2.2477
 3101TIP3   OH2 9266   6.188   2.521   4.922  0.3888 -0.2195 -0.4652
 3101TIP3    H1 9267   6.183   2.616   4.929 -0.5837 -0.3063  0.2959
 3101TIP3    H2 9268   6.100   2.495   4.896  1.0725 -0.8014 -2.2956
 3102TIP3   OH2 9269   1.441   5.294   2.842  0.3423  0.0263 -0.5739
 3102TIP3    H1 9270   1.369   5.231   2.835 -0.2897  0.5507  0.6983
 3102TIP3    H2 9271   1.447   5.312   2.936  2.2098 -0.0540 -0.6383
 3103TIP3   OH2 9272   1.058   3.161   5.579  0.0334  0.0794 -0.6089
 3103TIP3    H1 9273   1.031   3.226   5.514  1.8793  1.7082  0.1388
 3103TIP3    H2 9274   1.099   3.092   5.527 -2.2159 -0.7262 -1.4422
 3104TIP3   OH2 9275   3.538   4.688   1.832  0.3384  0.3604  0.0703
 3104TIP3    H1 9276   3.455   4.654   1.799 -0.0639  1.6566 -0.3476
 3104TIP3    H2 9277   3.513   4.745   1.905  0.6702  1.9518 -0.9983
 3105TIP3   OH2 9278   3.475   0.706   4.868  0.1060 -0.2744  0.2657
 3105TIP3    H1 9279   3.461   0.617   4.838 -2.4584 -0.1110  0.8241
 3105TIP3    H2 9280   3.429   0.712   4.951  1.7782  1.0953  1.1763
 3106TIP3   OH2 9281   5.454   5.092   4.411 -0.4799 -0.2325  0.1457
 3106TIP3    H1 9282   5.497   5.152   4.471  1.3283 -2.0759  0.8165
 3106TIP3    H2 9283   5.447   5.010   4.459 -2.0424 -0.8630 -1.0391
 3107TIP3   OH2 9284   1.731   2.073   3.076 -0.0664  0.0732 -0.6440
 3107TIP3    H1 9285   1.748   1.981   3.098 -1.2775 -1.3926 -4.8506
 3107TIP3    H2 9286   1.773   2.086   2.991 -4.0462  1.7372 -2.6484
 3108TIP3   OH2 9287   1.743   5.689   0.171  0.5390  0.2529  0.0129
 3108TIP3    H1 9288   1.756   5.750   0.244 -0.4747 -0.5357  0.8894
 3108TIP3    H2 9289   1.821   5.633   0.173  1.2367  1.1812 -0.4826
 3109TIP3   OH2 9290   4.426   4.762   0.206  0.0254 -0.0493  0.5621
 3109TIP3    H1 9291   4.459   4.844   0.243 -1.6460  0.9375  0.0026
 3109TIP3    H2 9292   4.479   4.746   0.129  1.5978 -0.5318  1.7000
 3110TIP3   OH2 9293   2.996   6.138   1.485 -0.3933 -0.1063  0.1945
 3110TIP3    H1 9294   2.939   6.201   1.530 -0.9605 -0.4065 -0.0936
 3110TIP3    H2 9295   3.051   6.102   1.555 -0.8249 -0.0960  0.5476
 3111TIP3   OH2 9296   1.720   4.892   3.868 -0.5608 -0.2503 -0.0502
 3111TIP3    H1 9297   1.796   4.847   3.905 -1.0964 -0.5092  0.7557
 3111TIP3    H2 9298   1.757   4.952   3.804  0.2986 -0.6206  0.0790
 3112TIP3   OH2 9299   1.363   1.713   1.928  0.5506 -0.0709  0.0280
 3112TIP3    H1 9300   1.371   1.744   1.838 -0.5796  0.9587  0.2525
 3112TIP3    H2 9301   1.438   1.750   1.974  1.4731 -1.1010 -0.5962
 3113TIP3   OH2 9302   4.439   5.772   2.850  0.3156  0.4034  0.0869
 3113TIP3    H1 9303   4.350   5.785   2.883 -0.0477  0.5241 -0.9070
 3113TIP3    H2 9304   4.427   5.720   2.771  1.1935 -0.1337  0.3006
 3114TIP3   OH2 9305   4.863   5.659   2.912  0.1122 -0.3652  0.2370
 3114TIP3    H1 9306   4.816   5.733   2.950 -0.8204 -0.8189 -0.0148
 3114TIP3    H2 9307   4.894   5.692   2.827 -1.1957 -0.5629 -0.3431
 3115TIP3   OH2 9308   6.821   3.129   5.826  0.1791 -0.4948  0.9542
 3115TIP3    H1 9309   6.821   3.224   5.813  1.2948 -0.5763  0.1949
 3115TIP3    H2 9310   6.814   3.118   5.921  1.5727  0.4054  1.1963
 3116TIP3   OH2 9311   2.646   4.550   3.844 -0.1526 -0.4926  0.1179
 3116TIP3    H1 9312   2.731   4.510   3.823 -0.5522 -0.9129 -0.7642
 3116TIP3    H2 9313   2.663   4.644   3.845  0.3775 -0.5868  0.2145
 3117TIP3   OH2 9314   1.808   3.119   5.291  0.3207  0.0815 -0.0200
 3117TIP3    H1 9315   1.765   3.075   5.218 -0.9697  0.1699  0.6372
 3117TIP3    H2 9316   1.898   3.132   5.263 -0.4013  1.0811 -2.0348
 3118TIP3   OH2 9317   0.225   6.200   0.951  0.0203 -0.1687  0.6504
 3118TIP3    H1 9318   0.231   6.275   1.010 -0.8975 -0.1527  0.7362
 3118TIP3    H2 9319   0.193   6.128   1.006  2.1437 -1.0012  0.8793
 3119TIP3   OH2 9320   0.094   4.566   2.514 -0.1924 -0.4443 -0.0295
 3119TIP3    H1 9321   0.103   4.515   2.594 -0.6722 -1.5239 -0.6450
 3119TIP3    H2 9322   0.153   4.641   2.526 -1.1074  0.0407  1.8012
 3120TIP3   OH2 9323   4.001   3.144   1.645 -0.2276 -0.1841  0.4952
 3120TIP3    H1 9324   3.948   3.208   1.692 -0.6163 -0.0692 -0.0901
 3120TIP3    H2 9325   4.075   3.195   1.612 -0.6818  0.0323 -0.2107
 3121TIP3   OH2 9326   6.127   2.864   3.947  0.2310 -0.0604  0.0654
 3121TIP3    H1 9327   6.065   2.899   4.011 -1.3986  1.2019 -2.0728
 3121TIP3    H2 9328   6.166   2.942   3.907  2.3923 -0.8314  0.5340
 3122TIP3   OH2 9329   3.946   1.317   5.101  0.2886 -0.0175 -0.2100
 3122TIP3    H1 9330   4.036   1.317   5.067  0.4566  0.6391  0.2141
 3122TIP3    H2 9331   3.892   1.291   5.026  0.9138 -1.4171 -0.1950
 3123TIP3   OH2 9332   4.983   2.546   3.468  0.2007  0.2178  0.2978
 3123TIP3    H1 9333   4.933   2.468   3.493 -0.6414  1.3173  2.2373
 3123TIP3    H2 9334   5.050   2.554   3.535  0.6295  0.8674 -0.1982
 3124TIP3   OH2 9335   0.807   1.997   2.896 -0.0629  0.1056  0.7063
 3124TIP3    H1 9336   0.896   1.968   2.876  0.0279  0.2680  0.8614
 3124TIP3    H2 9337   0.811   2.022   2.989 -0.4299 -0.4849  0.8913
 3125TIP3   OH2 9338   1.452   0.902   1.879 -0.0377 -0.6360 -0.0250
 3125TIP3    H1 9339   1.369   0.854   1.881  0.2986 -1.1990  1.0452
 3125TIP3    H2 9340   1.457   0.945   1.964  0.7780 -0.6263 -0.0680
 3126TIP3   OH2 9341   6.082   2.620   2.797  0.8074 -0.8392  0.6928
 3126TIP3    H1 9342   6.110   2.530   2.817 -0.1319 -0.7561  2.6052
 3126TIP3    H2 9343   6.052   2.616   2.707  1.7161 -2.2116  0.4211
 3127TIP3   OH2 9344   1.481   3.951   2.747  0.3247 -0.0988 -0.0379
 3127TIP3    H1 9345   1.515   4.013   2.683  1.2749 -0.2335  0.3194
 3127TIP3    H2 9346   1.512   3.984   2.831 -0.4288 -0.2388  0.3026
 3128TIP3   OH2 9347   0.626   1.129   3.635  0.1891 -0.1551 -0.5500
 3128TIP3    H1 9348   0.661   1.046   3.668  0.9621 -0.6647 -2.5198
 3128TIP3    H2 9349   0.537   1.107   3.605 -0.1404  0.0800  0.2250
 3129TIP3   OH2 9350   1.809   3.852   4.204 -0.3678 -0.4123 -0.7199
 3129TIP3    H1 9351   1.739   3.917   4.197  0.8632  1.2619  1.2201
 3129TIP3    H2 9352   1.791   3.807   4.287  1.4171  0.9000  0.4651
 3130TIP3   OH2 9353   5.453   5.298   0.531  0.3778 -0.6033  0.1114
 3130TIP3    H1 9354   5.391   5.342   0.473  1.0334 -1.0433 -0.9536
 3130TIP3    H2 9355   5.522   5.363   0.547 -0.4046 -0.0535  1.4360
 3131TIP3   OH2 9356   1.613   6.416   1.973 -0.5117  0.4948  0.0577
 3131TIP3    H1 9357   1.560   6.407   2.052 -0.2630  0.0200  0.1680
 3131TIP3    H2 9358   1.567   6.482   1.921 -0.6140  0.8951  0.6472
 3132TIP3   OH2 9359   4.550   5.019   3.480 -0.0770 -0.4064 -0.6326
 3132TIP3    H1 9360   4.596   4.977   3.407 -1.0902 -0.7409 -1.0984
 3132TIP3    H2 9361   4.459   4.990   3.471 -0.3339  0.0068  0.4349
 3133TIP3   OH2 9362   7.101   0.677   5.694  0.0263 -0.4133 -0.2033
 3133TIP3    H1 9363   7.103   0.766   5.729  2.0816 -1.2700  2.1811
 3133TIP3    H2 9364   7.019   0.641   5.726 -0.3026  0.2883 -0.2404
 3134TIP3   OH2 9365   7.036   4.249   5.905 -1.1606 -0.7217 -0.1537
 3134TIP3    H1 9366   6.989   4.324   5.869  1.4235  1.1641  0.0829
 3134TIP3    H2 9367   7.110   4.236   5.845  0.2569 -0.9131  1.5513
 3135TIP3   OH2 9368   3.187   5.360   3.039 -0.0833  0.2443  0.1184
 3135TIP3    H1 9369   3.162   5.424   2.972  3.0344  2.2460  0.6539
 3135TIP3    H2 9370   3.208   5.413   3.116  3.1630 -1.2846  0.4170
 3136TIP3   OH2 9371   2.227   4.159   2.318 -0.7433  0.1933 -0.2821
 3136TIP3    H1 9372   2.269   4.084   2.278  1.1846  1.7370 -1.3280
 3136TIP3    H2 9373   2.283   4.183   2.391 -0.8454  1.0944 -0.4771
 3137TIP3   OH2 9374   3.743   2.504   0.014  0.0275 -0.3530  0.0444
 3137TIP3    H1 9375   3.793   2.584   0.032 -1.4390  0.9289 -1.2430
 3137TIP3    H2 9376   3.677   2.502   0.084 -1.2544  0.7698 -1.0779
 3138TIP3   OH2 9377   5.581   4.858   5.906  0.7836 -0.2148  0.2243
 3138TIP3    H1 9378   5.667   4.888   5.877  0.5580 -0.5451 -0.8315
 3138TIP3    H2 9379   5.546   4.808   5.831 -0.6818  0.6416  0.2917
 3139TIP3   OH2 9380   4.612   2.242   5.653 -0.3546  0.4974  0.1663
 3139TIP3    H1 9381   4.587   2.299   5.580 -2.0372  0.3234  0.5716
 3139TIP3    H2 9382   4.575   2.284   5.731  0.0449 -0.1503  0.7223
 3140TIP3   OH2 9383   3.770   3.802   5.124  0.3357 -0.1798 -0.6741
 3140TIP3    H1 9384   3.828   3.846   5.061  2.9871  0.0294  1.7299
 3140TIP3    H2 9385   3.822   3.730   5.159 -1.1544 -0.5179  0.9939
 3141TIP3   OH2 9386   1.237   1.671   4.899  0.2937  0.7280  0.2112
 3141TIP3    H1 9387   1.247   1.678   4.804  0.9809 -1.2804  0.0967
 3141TIP3    H2 9388   1.295   1.599   4.924 -1.8091 -0.5275  1.7818
 3142TIP3   OH2 9389   4.330   3.984   2.498  0.1355 -0.0658 -0.2027
 3142TIP3    H1 9390   4.387   3.911   2.523 -0.1300 -0.2225 -0.0501
 3142TIP3    H2 9391   4.363   4.058   2.549  0.9361  0.1289 -0.9848
 3143TIP3   OH2 9392   2.809   0.486   0.564 -0.0527 -0.2040  0.2262
 3143TIP3    H1 9393   2.856   0.557   0.608  1.3848 -0.1451 -1.2948
 3143TIP3    H2 9394   2.716   0.505   0.578  0.3317  0.5624  1.9727
 3144TIP3   OH2 9395   5.413   0.086   4.094  0.1336 -0.6288  0.4230
 3144TIP3    H1 9396   5.390   0.101   4.002 -0.2478 -0.0041  0.6169
 3144TIP3    H2 9397   5.338   0.040   4.130 -0.6551  0.9856  0.9359
 3145TIP3   OH2 9398   4.440   3.183   1.319 -0.0201  0.3807  0.6922
 3145TIP3    H1 9399   4.437   3.101   1.368 -1.8376 -0.6863 -1.0461
 3145TIP3    H2 9400   4.502   3.237   1.367 -0.0868 -1.3518  2.9081
 3146TIP3   OH2 9401   5.999   1.311   2.137  0.0369 -0.4241  0.1100
 3146TIP3    H1 9402   5.963   1.361   2.211 -2.0851 -0.6989 -0.6739
 3146TIP3    H2 9403   6.018   1.377   2.071  1.2744 -0.2504  0.6215
 3147TIP3   OH2 9404   0.027   3.492   2.504  0.0468 -0.7922 -0.0126
 3147TIP3    H1 9405   0.088   3.420   2.494  0.1898 -0.7574  0.6017
 3147TIP3    H2 9406  -0.040   3.477   2.436 -0.6371 -2.2196  0.9420
 3148TIP3   OH2 9407   5.249   4.642   3.189 -0.5302  0.7723  0.5566
 3148TIP3    H1 9408   5.177   4.588   3.220 -1.1416  0.7988 -0.7540
 3148TIP3    H2 9409   5.327   4.605   3.230 -0.7407 -1.9824 -1.2742
 3149TIP3   OH2 9410   4.530   3.779   1.402  0.0115  0.3386  0.3367
 3149TIP3    H1 9411   4.557   3.845   1.338  0.2046 -0.0685 -0.0052
 3149TIP3    H2 9412   4.441   3.804   1.427  0.2102  0.9209  0.4650
 3150TIP3   OH2 9413   3.542   1.377   2.332 -0.3713  0.4977 -0.1817
 3150TIP3    H1 9414   3.634   1.376   2.304 -0.1272  0.3505  0.6067
 3150TIP3    H2 9415   3.504   1.299   2.291  0.2697 -0.3742  0.8349
 3151TIP3   OH2 9416   1.688   1.770   1.889  0.6270  0.3742  0.1378
 3151TIP3    H1 9417   1.658   1.770   1.798 -0.0758  0.4626  0.3602
 3151TIP3    H2 9418   1.778   1.802   1.885 -0.0009  2.1648 -0.3387
 3152TIP3   OH2 9419   4.488   2.910   0.674 -0.0031 -0.2513 -0.0492
 3152TIP3    H1 9420   4.440   2.828   0.664  0.4370 -0.4042 -1.0134
 3152TIP3    H2 9421   4.434   2.975   0.631  1.1401 -0.6250 -2.1755
 3153TIP3   OH2 9422   2.282   0.777   1.090  0.2744  0.0845  0.5400
 3153TIP3    H1 9423   2.373   0.747   1.091  0.3235 -0.0446 -1.7370
 3153TIP3    H2 9424   2.233   0.706   1.050 -0.1878  1.5138 -1.6243
 3154TIP3   OH2 9425   2.352   1.827   1.899 -0.0986  0.0710  0.0461
 3154TIP3    H1 9426   2.397   1.784   1.826 -1.2361 -0.3183 -0.4601
 3154TIP3    H2 9427   2.278   1.872   1.858  0.6335  1.9299  0.6584
 3155TIP3   OH2 9428   5.699   0.254   3.562  0.2736  0.1749  0.1441
 3155TIP3    H1 9429   5.773   0.255   3.502 -0.5097  1.3222 -0.8572
 3155TIP3    H2 9430   5.738   0.262   3.649  1.2971  1.6293 -0.4133
 3156TIP3   OH2 9431   7.179   2.856   3.658  0.3123 -0.0649  0.4893
 3156TIP3    H1 9432   7.166   2.778   3.711  2.1100 -0.7503 -0.0100
 3156TIP3    H2 9433   7.140   2.834   3.573 -0.7762  0.2800  0.8839
 3157TIP3   OH2 9434   3.971   5.357   4.291  0.5141 -0.2047 -0.5776
 3157TIP3    H1 9435   4.061   5.329   4.311  0.6580 -0.2853 -1.2827
 3157TIP3    H2 9436   3.934   5.383   4.375  0.8608 -1.1432 -0.1199
 3158TIP3   OH2 9437   3.397   6.704   3.052  0.1259  0.0555 -0.0473
 3158TIP3    H1 9438   3.360   6.618   3.030  0.1358 -0.0135  0.2034
 3158TIP3    H2 9439   3.378   6.758   2.975 -0.3413 -0.0268  0.0058
 3159TIP3   OH2 9440   2.998   1.043   1.266  0.0349  0.3091 -0.2753
 3159TIP3    H1 9441   3.088   1.030   1.236  0.1518 -1.0556  0.5622
 3159TIP3    H2 9442   3.006   1.049   1.361 -0.9447 -2.1263  0.0203
 3160TIP3   OH2 9443   1.690   2.412   0.077 -0.3222  0.2325  0.1079
 3160TIP3    H1 9444   1.755   2.365   0.128  0.4312  1.0253 -0.0989
 3160TIP3    H2 9445   1.733   2.430  -0.007 -1.2582 -0.3388 -0.5201
 3161TIP3   OH2 9446   1.388   2.958   3.882  0.1835 -0.0919 -0.5073
 3161TIP3    H1 9447   1.401   2.866   3.903  0.2114 -0.3537 -1.6173
 3161TIP3    H2 9448   1.468   3.002   3.913  0.3710 -0.5041 -0.4039
 3162TIP3   OH2 9449   5.961   0.607   5.119 -0.3630 -0.0815 -0.4240
 3162TIP3    H1 9450   5.909   0.666   5.173 -1.2039  0.6685 -1.9861
 3162TIP3    H2 9451   5.922   0.614   5.032  1.1796 -0.9570 -1.2239
 3163TIP3   OH2 9452   2.364   5.441   1.803  0.5847 -0.7543  0.1772
 3163TIP3    H1 9453   2.378   5.451   1.709  1.6170 -0.3594  0.3612
 3163TIP3    H2 9454   2.269   5.435   1.813  0.4202  0.0197 -0.8065
 3164TIP3   OH2 9455  -0.024   2.535   2.254  0.1877 -0.3469 -0.4955
 3164TIP3    H1 9456  -0.026   2.445   2.287  1.6349  0.0389  0.7498
 3164TIP3    H2 9457   0.063   2.545   2.216 -0.2579  0.2968 -1.4050
 3165TIP3   OH2 9458   4.614   5.350   0.898  0.3238  0.7247  0.7827
 3165TIP3    H1 9459   4.583   5.411   0.831  0.1703  0.0558  0.2287
 3165TIP3    H2 9460   4.693   5.312   0.861  0.4268  0.5976  1.1304
 3166TIP3   OH2 9461   2.040   3.119   3.759  0.0218  0.1573 -0.5524
 3166TIP3    H1 9462   2.106   3.088   3.822  0.6258 -1.5000 -1.9312
 3166TIP3    H2 9463   2.084   3.189   3.711  0.8460 -0.9526 -1.4781
 3167TIP3   OH2 9464   5.622   1.194   2.070  0.3176  0.1535 -0.2485
 3167TIP3    H1 9465   5.637   1.281   2.108 -0.5938 -0.6550  2.1411
 3167TIP3    H2 9466   5.706   1.148   2.082 -0.4888 -0.7359  2.8159
 3168TIP3   OH2 9467   4.883   0.500   5.255  0.5902  0.6453  0.0129
 3168TIP3    H1 9468   4.791   0.508   5.281  0.8164 -1.2844  1.7127
 3168TIP3    H2 9469   4.880   0.473   5.163 -0.6099 -0.3727  0.3275
 3169TIP3   OH2 9470   0.558   6.273   2.821 -0.4089  0.6422  0.3639
 3169TIP3    H1 9471   0.515   6.349   2.781  0.6001  0.3307 -1.4133
 3169TIP3    H2 9472   0.599   6.308   2.900 -0.6111  1.7815 -0.0058
 3170TIP3   OH2 9473   3.267   4.391   5.586  0.4148  0.8462  0.3677
 3170TIP3    H1 9474   3.250   4.371   5.494 -0.1212  3.3085 -0.1433
 3170TIP3    H2 9475   3.274   4.305   5.629 -0.2816 -0.3470 -1.7672
 3171TIP3   OH2 9476   6.570   4.809   4.428  0.7197  0.0573 -0.6029
 3171TIP3    H1 9477   6.546   4.817   4.520  0.7984  0.1865 -0.5939
 3171TIP3    H2 9478   6.633   4.879   4.413 -0.0958  0.7363 -1.0143
 3172TIP3   OH2 9479   0.939   1.320   3.303  0.0949  0.3049  0.9210
 3172TIP3    H1 9480   0.872   1.324   3.372  1.4527  0.8215  2.2728
 3172TIP3    H2 9481   1.010   1.376   3.336  1.5620 -0.9185 -0.0504
 3173TIP3   OH2 9482   5.820   3.486   3.851  0.6203 -0.3982 -0.4672
 3173TIP3    H1 9483   5.840   3.410   3.906  0.3194  0.0874  0.3198
 3173TIP3    H2 9484   5.767   3.542   3.906  2.2069  1.1779 -0.4505
 3174TIP3   OH2 9485   0.121   5.948   5.129 -0.2012 -0.8567  0.0247
 3174TIP3    H1 9486   0.203   5.972   5.172 -0.1093 -0.1169 -0.5440
 3174TIP3    H2 9487   0.132   5.856   5.106 -0.0390 -1.1117  1.0821
 3175TIP3   OH2 9488   2.793   6.317   1.538  0.2895 -0.1533 -0.1682
 3175TIP3    H1 9489   2.802   6.409   1.515  0.1898 -0.0087  0.3746
 3175TIP3    H2 9490   2.722   6.285   1.482  0.2517  0.1218 -0.2773
 3176TIP3   OH2 9491   3.248   1.412   2.871  0.4846 -0.0043 -0.0322
 3176TIP3    H1 9492   3.341   1.415   2.847  0.7541  3.0975  1.0285
 3176TIP3    H2 9493   3.206   1.479   2.817 -0.9447 -0.5594  0.3320
 3177TIP3   OH2 9494   1.825   2.607   3.291  0.1143 -0.1971  0.0322
 3177TIP3    H1 9495   1.832   2.681   3.231 -4.2416  0.3358 -0.1684
 3177TIP3    H2 9496   1.842   2.530   3.237  0.1696  0.4753 -0.9240
 3178TIP3   OH2 9497   1.995   0.269   0.283 -0.1250 -0.0448  0.1931
 3178TIP3    H1 9498   1.945   0.277   0.364  2.9535 -0.1916  2.2771
 3178TIP3    H2 9499   1.953   0.331   0.223 -2.5332  0.0598  1.8439
 3179TIP3   OH2 9500   3.239   3.832   0.463 -0.0862 -0.2437 -0.0206
 3179TIP3    H1 9501   3.252   3.803   0.553 -0.3200 -2.1075 -0.5436
 3179TIP3    H2 9502   3.326   3.830   0.424 -0.1893 -0.9235 -0.2317
 3180TIP3   OH2 9503   2.202   0.704   3.376 -0.1370  0.4156 -0.1633
 3180TIP3    H1 9504   2.276   0.649   3.403 -0.2620  0.8083  1.0423
 3180TIP3    H2 9505   2.218   0.788   3.418 -0.3807  1.0581 -1.3235
 3181TIP3   OH2 9506   4.375   2.108   1.720 -0.4513 -0.5642 -0.2903
 3181TIP3    H1 9507   4.397   2.017   1.697  0.6987 -0.3991  0.1047
 3181TIP3    H2 9508   4.371   2.153   1.636  3.8647  0.0684 -0.3757
 3182TIP3   OH2 9509   4.827   5.274   3.993  0.5888  0.4640  0.0209
 3182TIP3    H1 9510   4.770   5.207   4.030 -1.0929  1.7121 -0.1711
 3182TIP3    H2 9511   4.908   5.269   4.044 -0.6227  0.2850  1.9989
 3183TIP3   OH2 9512   5.138   2.415   3.075 -0.0287 -0.3499 -0.0547
 3183TIP3    H1 9513   5.172   2.500   3.047  0.5313 -0.0244  1.4982
 3183TIP3    H2 9514   5.044   2.429   3.088 -0.3009 -0.5081 -1.6494
 3184TIP3   OH2 9515   4.219   0.728   2.974  0.0128 -0.3157 -0.2593
 3184TIP3    H1 9516   4.250   0.642   3.005 -2.1576 -0.4511  1.8513
 3184TIP3    H2 9517   4.153   0.707   2.909  1.1463 -0.1214 -1.5267
 3185TIP3   OH2 9518   5.890   4.189   2.920  0.4362 -0.1804 -0.2003
 3185TIP3    H1 9519   5.809   4.187   2.869  0.4581 -0.7551 -0.2145
 3185TIP3    H2 9520   5.898   4.102   2.957  2.2056 -0.8728 -2.0215
 3186TIP3   OH2 9521   2.302   3.918   0.500  0.6811  0.3319 -0.1081
 3186TIP3    H1 9522   2.375   3.856   0.506 -0.0365 -0.4008  1.3821
 3186TIP3    H2 9523   2.226   3.869   0.530 -0.4342  1.1358 -1.4947
 3187TIP3   OH2 9524   4.519   3.637   0.045  0.1993  1.0913  0.0551
 3187TIP3    H1 9525   4.438   3.627  -0.005  0.4979 -0.9769 -0.0991
 3187TIP3    H2 9526   4.589   3.633  -0.021  0.5075  4.0879  0.0159
 3188TIP3   OH2 9527   1.918   5.326   2.220 -0.2752  0.0905 -0.0224
 3188TIP3    H1 9528   1.916   5.394   2.152 -0.2035 -0.7581 -0.8973
 3188TIP3    H2 9529   1.883   5.248   2.177 -2.5945  0.1190  1.6333
 3189TIP3   OH2 9530   5.979   0.692   2.087  0.2430  0.5772  0.1171
 3189TIP3    H1 9531   6.023   0.611   2.113 -1.6161 -0.7518 -0.6411
 3189TIP3    H2 9532   5.932   0.719   2.165 -0.5571 -0.0964 -0.1137
 3190TIP3   OH2 9533   3.728   3.997   5.657 -0.3656  0.2890 -0.0033
 3190TIP3    H1 9534   3.709   3.981   5.750 -1.3437  0.3900 -0.1844
 3190TIP3    H2 9535   3.725   3.910   5.617  0.5718  0.1752  0.1347
 3191TIP3   OH2 9536   5.676   6.091   3.116 -0.2856  0.0061 -0.1923
 3191TIP3    H1 9537   5.589   6.050   3.112  0.2879 -1.2713  0.0676
 3191TIP3    H2 9538   5.710   6.084   3.027  0.9266 -2.6638  0.3870
 3192TIP3   OH2 9539   4.204   5.643   4.757 -0.0916  0.2515 -0.2922
 3192TIP3    H1 9540   4.297   5.622   4.743 -0.2012 -1.2479  0.9735
 3192TIP3    H2 9541   4.204   5.699   4.834 -0.2736 -0.2792  0.0978
 3193TIP3   OH2 9542   1.188   1.355   1.043 -0.0587 -0.0609 -0.3596
 3193TIP3    H1 9543   1.188   1.275   0.990  2.0608 -0.6100  0.4125
 3193TIP3    H2 9544   1.233   1.419   0.989  0.7429 -0.1914  0.1448
 3194TIP3   OH2 9545   4.874   4.932   3.563  0.0466 -0.0240 -0.2510
 3194TIP3    H1 9546   4.856   5.013   3.611  0.7258  0.6705 -1.1524
 3194TIP3    H2 9547   4.849   4.951   3.473 -2.3204 -1.6792 -0.0567
 3195TIP3   OH2 9548   1.367   0.127   0.673  0.7303  0.8501 -0.5211
 3195TIP3    H1 9549   1.452   0.171   0.673  1.7565 -1.0042  0.5179
 3195TIP3    H2 9550   1.371   0.066   0.599  1.8547 -1.8500  1.5845
 3196TIP3   OH2 9551   2.584   0.447   3.091 -0.4964 -0.4521  0.2180
 3196TIP3    H1 9552   2.505   0.416   3.045 -0.2921 -1.4964  0.5239
 3196TIP3    H2 9553   2.620   0.367   3.131  2.1731 -0.5451 -2.0348
 3197TIP3   OH2 9554   2.780   6.169   2.739  0.2314  0.1530  0.0169
 3197TIP3    H1 9555   2.709   6.118   2.700  0.1753  1.0571 -1.1150
 3197TIP3    H2 9556   2.836   6.103   2.782 -0.3464 -0.7531 -0.5783
 3198TIP3   OH2 9557   3.305   2.599   5.768  0.4929  0.0017  0.1548
 3198TIP3    H1 9558   3.282   2.609   5.860 -0.0412  0.5988 -0.0394
 3198TIP3    H2 9559   3.225   2.622   5.720  1.2228  1.2953 -0.5082
 3199TIP3   OH2 9560   0.120   2.096   3.427 -0.0892 -0.2258  0.0553
 3199TIP3    H1 9561   0.115   2.192   3.436 -0.5065 -0.1137 -1.1624
 3199TIP3    H2 9562   0.214   2.077   3.430 -0.0064  0.1996  0.4039
 3200TIP3   OH2 9563   6.334   4.026   1.177  0.0030  0.8873  0.0913
 3200TIP3    H1 9564   6.365   4.039   1.267  0.7354  1.0234 -0.1762
 3200TIP3    H2 9565   6.280   4.102   1.159  1.4409  1.8639 -0.2529
 3201TIP3   OH2 9566   0.767   0.436   5.401  0.1850 -0.1559 -0.3114
 3201TIP3    H1 9567   0.723   0.510   5.444 -0.1700  0.2728 -1.3888
 3201TIP3    H2 9568   0.859   0.447   5.425  0.3127  1.2733 -1.2856
 3202TIP3   OH2 9569   2.064   3.868   4.339  0.3069  0.1274  0.1166
 3202TIP3    H1 9570   2.046   3.864   4.433 -0.4617 -1.0085 -0.0693
 3202TIP3    H2 9571   1.982   3.845   4.297  1.2612 -1.8358 -0.8027
 3203TIP3   OH2 9572   4.833   3.189   4.218 -0.1434 -0.0628  0.0531
 3203TIP3    H1 9573   4.743   3.159   4.222  0.0496 -0.6791 -0.0830
 3203TIP3    H2 9574   4.866   3.177   4.307 -0.2930  0.4852  0.1854
 3204TIP3   OH2 9575   4.389   1.314   1.399  0.4269 -0.0912  0.1729
 3204TIP3    H1 9576   4.404   1.358   1.315 -0.1106 -0.2538 -0.0128
 3204TIP3    H2 9577   4.356   1.227   1.375  0.3047 -0.1509  0.5531
 3205TIP3   OH2 9578   4.872   6.423   3.244 -0.7044  0.1530  0.0310
 3205TIP3    H1 9579   4.961   6.404   3.272 -0.5871  0.1398 -0.3380
 3205TIP3    H2 9580   4.839   6.339   3.212 -0.1086  0.5744 -1.8195
 3206TIP3   OH2 9581   4.809   2.325   1.170 -0.0943 -0.0212 -0.2413
 3206TIP3    H1 9582   4.836   2.384   1.099  3.9467 -0.8097  0.4176
 3206TIP3    H2 9583   4.714   2.318   1.160 -0.2881  3.4990 -2.6921
 3207TIP3   OH2 9584   2.062   4.864   5.612  0.5971 -0.2379 -0.1661
 3207TIP3    H1 9585   1.988   4.817   5.574 -0.0115  0.4760  0.1168
 3207TIP3    H2 9586   2.072   4.825   5.699  1.4585 -1.2916 -0.7043
 3208TIP3   OH2 9587   2.242   5.781   5.771  0.0379  0.4149  0.4200
 3208TIP3    H1 9588   2.193   5.862   5.757  0.0206  0.3029 -0.1856
 3208TIP3    H2 9589   2.236   5.734   5.688 -0.9148 -0.7419  1.1056
 3209TIP3   OH2 9590   0.415   0.706   4.982 -0.5610 -0.3117 -0.3010
 3209TIP3    H1 9591   0.406   0.662   4.897  0.0846 -1.5256  0.2222
 3209TIP3    H2 9592   0.326   0.732   5.005 -0.6760  0.4986 -1.5707
 3210TIP3   OH2 9593   2.149   0.863   0.715 -0.1336 -0.0855 -0.3563
 3210TIP3    H1 9594   2.110   0.866   0.803 -2.1228  1.3181 -1.2206
 3210TIP3    H2 9595   2.084   0.819   0.661  0.9596 -0.7047 -1.2233
 3211TIP3   OH2 9596   3.607   1.006   1.902  0.1943 -0.4230  0.0726
 3211TIP3    H1 9597   3.579   0.955   1.978  0.6795 -1.7127 -0.5854
 3211TIP3    H2 9598   3.670   0.950   1.857  1.7312  1.2736 -0.0170
 3212TIP3   OH2 9599   3.505   6.047   2.164  0.0371 -0.5044 -0.1297
 3212TIP3    H1 9600   3.488   5.963   2.121 -1.6916  0.0729 -0.6552
 3212TIP3    H2 9601   3.511   6.110   2.093 -0.8925  0.1505  0.3558
 3213TIP3   OH2 9602   3.714   1.044   4.013 -0.7731 -0.1583 -0.3916
 3213TIP3    H1 9603   3.744   1.098   3.940 -1.8622 -0.5626 -1.1802
 3213TIP3    H2 9604   3.745   1.089   4.091 -1.6846  1.6624 -1.0088
 3214TIP3   OH2 9605   3.828   3.110   3.583  0.2906 -0.3169  0.4698
 3214TIP3    H1 9606   3.741   3.147   3.563  0.8898  0.8431 -0.0935
 3214TIP3    H2 9607   3.837   3.037   3.523  1.3463  2.0608 -2.4990
 3215TIP3   OH2 9608   0.219   3.960   1.232  0.6943  0.3129  0.4340
 3215TIP3    H1 9609   0.192   3.981   1.142  0.8133  2.3265  0.8312
 3215TIP3    H2 9610   0.293   4.019   1.249  0.6521 -0.0242  1.8721
 3216TIP3   OH2 9611   7.139   0.689   4.621  0.1029  0.0162 -0.1736
 3216TIP3    H1 9612   7.191   0.742   4.682 -1.4434  1.6466 -0.1684
 3216TIP3    H2 9613   7.197   0.673   4.547  1.1759  0.2487  0.5968
 3217TIP3   OH2 9614   2.001   5.376   3.008 -0.7580 -0.4227 -0.0533
 3217TIP3    H1 9615   2.083   5.334   3.034 -0.5103  1.2581  2.1449
 3217TIP3    H2 9616   2.021   5.413   2.921  0.1204 -1.7741 -0.4548
 3218TIP3   OH2 9617   5.236   0.432   0.932  0.2082 -0.1301 -0.3115
 3218TIP3    H1 9618   5.226   0.342   0.964  1.1182 -0.0444  0.2746
 3218TIP3    H2 9619   5.251   0.423   0.838  1.9058 -0.7308 -0.0167
 3219TIP3   OH2 9620   1.015   5.105   1.644 -0.8362 -0.3593 -0.2744
 3219TIP3    H1 9621   1.018   5.100   1.740 -1.2593  0.3686 -0.2230
 3219TIP3    H2 9622   1.060   5.187   1.623 -0.0487 -0.9013 -0.7460
 3220TIP3   OH2 9623   4.302   5.868   3.962 -0.0596  0.5737  0.2761
 3220TIP3    H1 9624   4.213   5.870   3.997 -0.6894 -1.0575 -1.1291
 3220TIP3    H2 9625   4.352   5.924   4.022 -1.8571  0.9344  1.5220
 3221TIP3   OH2 9626   2.006   4.919   1.948  0.6363 -0.0945  0.3996
 3221TIP3    H1 9627   1.977   4.920   1.856  1.3960 -1.2412  0.1189
 3221TIP3    H2 9628   1.935   4.960   1.996 -0.1169 -0.1475 -0.6209
 3222TIP3   OH2 9629   4.452   5.376   2.978  0.4293  0.0606  0.2671
 3222TIP3    H1 9630   4.490   5.461   2.958  1.1641 -0.2380  0.3751
 3222TIP3    H2 9631   4.504   5.313   2.929  0.6674 -0.4390  1.1323
 3223TIP3   OH2 9632   0.779   5.675   5.113 -0.0137 -0.3225  0.0791
 3223TIP3    H1 9633   0.691   5.696   5.145  1.2526  1.5266  2.7016
 3223TIP3    H2 9634   0.774   5.584   5.086 -1.9268 -1.3877  3.5056
 3224TIP3   OH2 9635   0.153   4.930   1.483  0.3860  0.4160 -0.4355
 3224TIP3    H1 9636   0.196   4.918   1.398 -1.9009 -1.2051 -1.4764
 3224TIP3    H2 9637   0.100   5.009   1.472  0.7684  0.7083 -0.1957
 3225TIP3   OH2 9638   0.344   1.592   5.203 -0.1820  0.2034 -0.2017
 3225TIP3    H1 9639   0.365   1.528   5.271 -0.8415 -0.2168 -0.3814
 3225TIP3    H2 9640   0.250   1.582   5.189 -0.0376  0.2014 -1.2465
 3226TIP3   OH2 9641   0.816   6.177   4.048  0.8963 -0.5206 -0.4367
 3226TIP3    H1 9642   0.893   6.153   3.996  0.1645 -1.0124 -1.3202
 3226TIP3    H2 9643   0.778   6.094   4.075  1.6081 -0.2718  1.4513
 3227TIP3   OH2 9644   3.654   5.857   2.000 -0.0297  0.7160  0.0689
 3227TIP3    H1 9645   3.715   5.919   1.960 -1.2222  1.3877 -0.7670
 3227TIP3    H2 9646   3.709   5.804   2.058  1.7350 -0.1522 -2.2274
 3228TIP3   OH2 9647   7.151   6.525   0.401  0.6880  0.0330 -0.6913
 3228TIP3    H1 9648   7.172   6.437   0.431 -1.5271  0.2913  2.0733
 3228TIP3    H2 9649   7.070   6.515   0.350  0.7149  0.4072 -0.8124
 3229TIP3   OH2 9650   4.011   5.822   2.304 -0.6398  0.0263 -0.3962
 3229TIP3    H1 9651   4.051   5.752   2.354 -1.3797 -0.4130 -0.4027
 3229TIP3    H2 9652   4.050   5.902   2.338 -0.9571 -0.2795  0.7151
 3230TIP3   OH2 9653   5.361   6.325   5.127 -0.2154  0.0166  0.1362
 3230TIP3    H1 9654   5.406   6.281   5.199 -0.4587 -0.4258  0.0238
 3230TIP3    H2 9655   5.423   6.322   5.055 -1.2396 -2.7226 -0.7630
 3231TIP3   OH2 9656   2.277   4.425   0.836  0.1708 -0.1093  0.8721
 3231TIP3    H1 9657   2.348   4.479   0.871  1.3417 -0.1148 -1.2544
 3231TIP3    H2 9658   2.302   4.411   0.744 -1.2943 -2.2982  0.7380
 3232TIP3   OH2 9659   3.623   5.000   1.255 -0.7550  0.7529  0.3775
 3232TIP3    H1 9660   3.608   5.059   1.329 -1.6028  0.1880  0.6698
 3232TIP3    H2 9661   3.701   5.035   1.212 -1.5921  2.4709  0.1599
 3233TIP3   OH2 9662   0.213   0.597   4.279  0.2461  0.0521 -0.4849
 3233TIP3    H1 9663   0.238   0.552   4.199 -0.6346 -0.9996 -0.1848
 3233TIP3    H2 9664   0.118   0.598   4.278  0.2239  0.0902  0.5072
 3234TIP3   OH2 9665   1.680   2.341   1.375 -0.0225  0.0769 -0.0708
 3234TIP3    H1 9666   1.731   2.357   1.296 -1.2016  3.6756 -0.2759
 3234TIP3    H2 9667   1.589   2.340   1.344 -0.3710 -1.7446  0.8705
 3235TIP3   OH2 9668   5.394   3.984   0.591 -0.2764 -0.4053 -0.1118
 3235TIP3    H1 9669   5.470   4.029   0.629 -0.0652  1.1626 -2.2103
 3235TIP3    H2 9670   5.355   3.936   0.665  1.4162  0.5989  1.5181
 3236TIP3   OH2 9671   0.264   2.072   0.373 -0.4774  0.2153 -0.7574
 3236TIP3    H1 9672   0.331   2.139   0.359  0.0424 -0.4292 -1.4175
 3236TIP3    H2 9673   0.207   2.078   0.296 -0.9936  0.5408 -0.3554
 3237TIP3   OH2 9674   0.273   4.334   3.824 -0.3318 -0.5570  0.1387
 3237TIP3    H1 9675   0.230   4.335   3.738 -1.0464 -0.4522  0.4914
 3237TIP3    H2 9676   0.205   4.304   3.884  0.4634 -1.6336  0.5206
 3238TIP3   OH2 9677   4.006   0.238   0.020 -0.0871  0.1407 -0.6047
 3238TIP3    H1 9678   3.930   0.185  -0.006 -1.0385  0.6380  1.0421
 3238TIP3    H2 9679   4.051   0.184   0.085  0.3292  0.3345 -0.7306
 3239TIP3   OH2 9680   5.424   0.886   5.548  0.5070 -0.6144  0.2968
 3239TIP3    H1 9681   5.425   0.807   5.494 -0.4124  0.4414 -1.3643
 3239TIP3    H2 9682   5.336   0.891   5.583  0.3870 -0.0669 -0.0590
 3240TIP3   OH2 9683   0.310   3.030   3.271 -0.0173 -0.1685  0.1283
 3240TIP3    H1 9684   0.287   2.945   3.309  0.6778 -0.3211  0.2291
 3240TIP3    H2 9685   0.404   3.038   3.286 -0.1338  0.7957  0.4757
 3241TIP3   OH2 9686   0.610   2.780   2.609  0.2648 -0.2054 -0.0653
 3241TIP3    H1 9687   0.570   2.694   2.603  1.6362 -1.1226  2.5432
 3241TIP3    H2 9688   0.703   2.765   2.589 -0.0272  1.4203 -3.3676
 3242TIP3   OH2 9689   5.564   2.688   4.609 -0.2032  0.4413  0.1747
 3242TIP3    H1 9690   5.543   2.603   4.648  0.7739  0.2825  0.3911
 3242TIP3    H2 9691   5.655   2.679   4.580  0.5447  1.9740  1.8327
 3243TIP3   OH2 9692   7.088   1.350   4.629  0.7404  0.1071  0.5962
 3243TIP3    H1 9693   7.031   1.405   4.574  0.0769  0.3393  1.4913
 3243TIP3    H2 9694   7.174   1.359   4.589  0.1844 -0.1845 -0.7466
 3244TIP3   OH2 9695   0.616   1.048   2.798 -0.1565 -0.1219 -0.2222
 3244TIP3    H1 9696   0.528   1.012   2.808  0.8406 -2.2789  1.6401
 3244TIP3    H2 9697   0.628   1.056   2.703 -1.9183 -0.9042 -0.5464
 3245TIP3   OH2 9698   5.905   1.994   1.341  0.1836 -0.5856  0.3026
 3245TIP3    H1 9699   5.948   2.070   1.303 -0.3295 -0.6666 -0.4649
 3245TIP3    H2 9700   5.940   1.919   1.293 -0.4485 -0.6915 -0.0142
 3246TIP3   OH2 9701   3.906   0.154   2.288 -0.7293 -0.1850 -0.7726
 3246TIP3    H1 9702   3.849   0.229   2.303 -0.1125  0.3247 -0.9320
 3246TIP3    H2 9703   3.878   0.089   2.352  1.6607  1.8137  2.5857
 3247TIP3   OH2 9704   2.976   1.103   2.641  0.5108  0.6100  0.1974
 3247TIP3    H1 9705   2.972   1.039   2.712 -0.5420 -1.9688 -2.0115
 3247TIP3    H2 9706   2.885   1.129   2.627  0.8772  2.2727  0.7397
 3248TIP3   OH2 9707   0.663   5.751   1.178  0.3595  0.0131  0.1572
 3248TIP3    H1 9708   0.742   5.785   1.220  1.5513 -0.2425 -1.7906
 3248TIP3    H2 9709   0.602   5.824   1.179  1.5776  1.0733 -0.6967
 3249TIP3   OH2 9710   0.179   4.388   1.627 -0.3667  0.0931 -0.1684
 3249TIP3    H1 9711   0.246   4.352   1.569 -0.9795  0.1127 -0.9061
 3249TIP3    H2 9712   0.163   4.476   1.594 -1.0101 -0.0408 -0.2278
 3250TIP3   OH2 9713   0.827   5.180   4.041  0.3147  0.1462 -0.1038
 3250TIP3    H1 9714   0.863   5.161   3.955  2.9054  2.0216  0.4482
 3250TIP3    H2 9715   0.864   5.112   4.098  0.8908  0.5279 -0.0100
 3251TIP3   OH2 9716   3.227   0.490   0.408 -0.1157  0.4483  0.0455
 3251TIP3    H1 9717   3.249   0.583   0.406 -0.5277  0.6184  1.8628
 3251TIP3    H2 9718   3.142   0.484   0.365  0.9320  0.5400 -2.1838
 3252TIP3   OH2 9719   6.708   4.987   3.632  0.5371  0.1008  0.6130
 3252TIP3    H1 9720   6.707   4.933   3.553  0.2828  1.8531 -0.6427
 3252TIP3    H2 9721   6.642   4.949   3.689  0.2887 -0.8386 -0.2821
 3253TIP3   OH2 9722   6.093   6.492   4.090  0.9099  0.0663 -0.3629
 3253TIP3    H1 9723   6.018   6.434   4.099  0.6707  0.1976 -1.3949
 3253TIP3    H2 9724   6.091   6.520   3.999  1.2410  1.4052  0.0178
 3254TIP3   OH2 9725   4.386   5.925   1.764 -0.3515  0.3126  0.5333
 3254TIP3    H1 9726   4.435   5.972   1.696 -1.5831  1.0882  0.1508
 3254TIP3    H2 9727   4.362   5.993   1.826  0.2470 -0.2991  1.4587
 3255TIP3   OH2 9728   6.546   5.068   4.613  0.0351  0.0553 -0.1982
 3255TIP3    H1 9729   6.511   5.102   4.531 -2.2158  0.1372  0.7389
 3255TIP3    H2 9730   6.495   4.988   4.629  1.8860 -1.1227  0.0967
 3256TIP3   OH2 9731   1.306   0.180   0.027  0.3797  0.0222 -0.6208
 3256TIP3    H1 9732   1.376   0.240   0.049 -1.3684  1.2205  2.2272
 3256TIP3    H2 9733   1.263   0.220  -0.049  1.3595  0.4974 -0.9306
 3257TIP3   OH2 9734   3.619   4.384   3.502 -0.2780 -0.3025  0.2466
 3257TIP3    H1 9735   3.611   4.316   3.569 -1.4639 -0.2840  0.1408
 3257TIP3    H2 9736   3.592   4.465   3.546  1.7669  0.2630  0.5643
 3258TIP3   OH2 9737   3.376   4.273   5.835  0.5430  0.4167 -0.1164
 3258TIP3    H1 9738   3.436   4.270   5.909  0.0522  1.0053  0.3148
 3258TIP3    H2 9739   3.430   4.249   5.759  1.6213  2.0957  0.0728
 3259TIP3   OH2 9740   2.225   1.728   1.583 -0.2405 -0.1482 -0.3003
 3259TIP3    H1 9741   2.303   1.741   1.638 -0.3575  1.3674 -0.4640
 3259TIP3    H2 9742   2.194   1.641   1.607  0.7659 -0.2569  0.7137
 3260TIP3   OH2 9743   5.832   1.772   1.633 -0.3043  0.5267  0.1268
 3260TIP3    H1 9744   5.789   1.687   1.626 -1.9160  1.3590 -0.6922
 3260TIP3    H2 9745   5.769   1.833   1.595  0.1344  2.3235  2.1347
 3261TIP3   OH2 9746   4.705   1.515   5.617 -0.2376  0.2383  0.2580
 3261TIP3    H1 9747   4.613   1.504   5.591 -0.4057 -0.6814  1.2003
 3261TIP3    H2 9748   4.736   1.589   5.563 -1.0636 -0.4521 -1.2393
 3262TIP3   OH2 9749   2.928   1.845   3.425  0.1479  0.3324 -0.1542
 3262TIP3    H1 9750   3.007   1.846   3.478  0.9315  0.5280 -1.2973
 3262TIP3    H2 9751   2.912   1.752   3.408 -1.4481  0.0652  2.3048
 3263TIP3   OH2 9752   1.634   4.279   0.869  0.2366  0.3887 -0.6990
 3263TIP3    H1 9753   1.571   4.340   0.831  0.4863 -0.3989 -2.4961
 3263TIP3    H2 9754   1.610   4.194   0.832  0.2735 -0.5301  1.2686
 3264TIP3   OH2 9755   1.557   6.785   3.717 -0.2781  0.1738 -0.7008
 3264TIP3    H1 9756   1.589   6.705   3.676  1.5001  0.4071  0.1552
 3264TIP3    H2 9757   1.622   6.852   3.692  1.0224  0.2858  2.5626
 3265TIP3   OH2 9758   2.675   6.812   5.355 -0.3792 -0.2607 -0.1281
 3265TIP3    H1 9759   2.761   6.772   5.348 -0.1954 -0.0605  0.8233
 3265TIP3    H2 9760   2.614   6.741   5.335 -0.0789 -1.2532  2.1198
 3266TIP3   OH2 9761   2.489   3.707   2.579 -0.0136 -0.4751 -0.0063
 3266TIP3    H1 9762   2.488   3.630   2.635  0.2083 -1.4275 -1.2679
 3266TIP3    H2 9763   2.537   3.679   2.501 -0.7865  0.6335 -0.9039
 3267TIP3   OH2 9764   2.805   3.573   5.396  0.2970 -0.1301  0.1053
 3267TIP3    H1 9765   2.845   3.577   5.483  2.3713 -2.0374 -0.6330
 3267TIP3    H2 9766   2.832   3.654   5.353  0.7445  0.0287  0.6680
 3268TIP3   OH2 9767   4.900   2.457   5.159  0.8794  0.6446 -0.2951
 3268TIP3    H1 9768   4.941   2.424   5.079  0.5393 -0.4704 -0.0127
 3268TIP3    H2 9769   4.806   2.454   5.142  0.8319  1.6296 -0.3137
 3269TIP3   OH2 9770   2.663   5.922   4.427  0.4466  0.3174  0.9921
 3269TIP3    H1 9771   2.724   5.902   4.498  1.3260  3.4073  1.2524
 3269TIP3    H2 9772   2.580   5.940   4.472  0.7079  1.1426  1.1646
 3270TIP3   OH2 9773   5.136   2.110   0.109  0.5425 -0.1704  0.4783
 3270TIP3    H1 9774   5.057   2.162   0.096  0.8353  0.2180  0.2447
 3270TIP3    H2 9775   5.189   2.127   0.031  0.3622 -1.3181  0.0898
 3271TIP3   OH2 9776   5.202  -0.023   5.636 -0.1727  1.2178 -0.1585
 3271TIP3    H1 9777   5.108  -0.025   5.622 -0.4627  0.7514  1.5919
 3271TIP3    H2 9778   5.215   0.052   5.695  0.5868  1.4066 -0.5541
 3272TIP3   OH2 9779   1.690   6.633   0.030  0.5619  0.4950 -0.6901
 3272TIP3    H1 9780   1.734   6.571  -0.028  0.0999 -2.4650  1.8928
 3272TIP3    H2 9781   1.597   6.613   0.021  0.4089  0.7305  0.2616
 3273TIP3   OH2 9782   1.202   6.714   3.887 -0.0179 -0.9571 -0.3469
 3273TIP3    H1 9783   1.127   6.773   3.892 -0.1708 -1.0699 -1.1905
 3273TIP3    H2 9784   1.202   6.682   3.797 -0.6595 -3.1630  0.3615
 3274TIP3   OH2 9785   2.273   4.072   0.727 -0.3022  0.1984  0.5785
 3274TIP3    H1 9786   2.300   4.141   0.666  1.7680 -1.9670 -1.1796
 3274TIP3    H2 9787   2.300   3.990   0.684 -1.6230 -1.6718  3.0299
 3275TIP3   OH2 9788   0.445   4.165   3.588  0.3801 -0.1279 -0.0479
 3275TIP3    H1 9789   0.381   4.175   3.658  2.6960 -0.2719  2.2714
 3275TIP3    H2 9790   0.493   4.248   3.587 -0.0435  0.1280 -1.9844
 3276TIP3   OH2 9791   0.196   2.576   3.458  0.7662 -0.0334  0.1407
 3276TIP3    H1 9792   0.128   2.547   3.398  2.0769 -1.5238 -0.6968
 3276TIP3    H2 9793   0.207   2.504   3.520  1.1092  0.4814  0.6895
 3277TIP3   OH2 9794   2.345   0.830   3.054 -0.2852 -0.7813  0.1805
 3277TIP3    H1 9795   2.425   0.817   3.104 -0.1828 -0.3042  0.1401
 3277TIP3    H2 9796   2.364   0.795   2.967 -0.8688 -2.7941  0.7947
 3278TIP3   OH2 9797   1.937   3.157   1.018  0.4278 -0.6501 -0.0754
 3278TIP3    H1 9798   1.922   3.149   0.924 -0.3092  0.0055 -0.0123
 3278TIP3    H2 9799   1.851   3.171   1.056  1.0160  2.4199  0.3558
 3279TIP3   OH2 9800   0.052   1.297   0.226  0.2423 -0.7480  0.2809
 3279TIP3    H1 9801   0.106   1.357   0.174 -3.1421  2.3339 -0.0630
 3279TIP3    H2 9802   0.010   1.241   0.162 -0.6968  0.2131  0.0314
 3280TIP3   OH2 9803   2.351   2.587   4.106  0.3395  0.1197 -0.0063
 3280TIP3    H1 9804   2.407   2.561   4.180  0.0589  1.4599  0.7174
 3280TIP3    H2 9805   2.262   2.575   4.138  0.2102  1.2990  0.1324
 3281TIP3   OH2 9806   6.652   3.478   0.311  0.5953  0.0568 -0.4063
 3281TIP3    H1 9807   6.710   3.549   0.340  0.7731 -0.1636 -0.2178
 3281TIP3    H2 9808   6.655   3.415   0.383 -0.4160  0.3561 -0.0880
 3282TIP3   OH2 9809   2.481   6.619   0.062  0.1011 -0.5908 -0.6443
 3282TIP3    H1 9810   2.425   6.579  -0.005  0.7185 -2.3201 -0.1950
 3282TIP3    H2 9811   2.563   6.569   0.058  1.5018  1.6054 -1.0033
 3283TIP3   OH2 9812   7.130   0.199   0.304 -0.6077 -0.3505 -0.4038
 3283TIP3    H1 9813   7.044   0.223   0.339 -0.9795 -0.1572 -1.4208
 3283TIP3    H2 9814   7.143   0.258   0.229  0.1598 -0.7665 -0.6100
 3284TIP3   OH2 9815   5.006   5.440   2.010  0.4400 -0.1449  0.0059
 3284TIP3    H1 9816   5.034   5.425   2.100  0.6864  2.6003  0.4636
 3284TIP3    H2 9817   4.910   5.439   2.013  0.4498 -0.3819  0.2258
 3285TIP3   OH2 9818   4.797   0.284   3.508 -0.6761  0.1691  0.1250
 3285TIP3    H1 9819   4.778   0.260   3.598  0.1343  0.5944  0.4218
 3285TIP3    H2 9820   4.733   0.236   3.456 -0.9258 -0.3547  0.9025
 3286TIP3   OH2 9821   0.246   3.760   2.533  0.5773 -0.4545  0.0779
 3286TIP3    H1 9822   0.170   3.802   2.492  0.1909 -1.0913  0.1368
 3286TIP3    H2 9823   0.314   3.762   2.465  0.6815  0.5892  0.2017
 3287TIP3   OH2 9824   1.786   3.729   0.523 -0.2531 -0.1709 -0.7961
 3287TIP3    H1 9825   1.844   3.805   0.514  1.0335 -1.0438 -0.1330
 3287TIP3    H2 9826   1.717   3.744   0.459  0.8517  0.7800 -1.8095
 3288TIP3   OH2 9827   1.223   5.464   0.797 -0.8350  0.2258 -0.2514
 3288TIP3    H1 9828   1.292   5.453   0.731 -0.6203  0.1648 -0.0179
 3288TIP3    H2 9829   1.229   5.385   0.851 -0.7189  0.4766  0.1085
 3289TIP3   OH2 9830   2.951   2.340   3.677  0.1504  0.2569  0.1530
 3289TIP3    H1 9831   2.976   2.381   3.594  1.7878 -1.5748 -0.3235
 3289TIP3    H2 9832   2.945   2.247   3.657  1.8570 -0.4097  2.3408
 3290TIP3   OH2 9833   1.174   2.615   0.179 -0.2700  0.2394  0.3347
 3290TIP3    H1 9834   1.125   2.533   0.192 -0.7893  0.3220 -0.9297
 3290TIP3    H2 9835   1.266   2.589   0.186 -0.3074 -0.9362 -2.1443
 3291TIP3   OH2 9836   0.409   5.681   1.970  0.1478 -0.2330  0.0624
 3291TIP3    H1 9837   0.381   5.638   1.889  1.0203 -1.8197  0.5732
 3291TIP3    H2 9838   0.335   5.672   2.029  0.2401 -0.8467  0.0888
 3292TIP3   OH2 9839   2.941   5.348   1.553 -0.2417  0.1837 -0.4207
 3292TIP3    H1 9840   2.889   5.428   1.563  0.6127  0.6895  0.1504
 3292TIP3    H2 9841   3.031   5.379   1.540 -0.2183 -0.6359 -2.6215
 3293TIP3   OH2 9842   5.288   6.671   2.896  0.4722  0.4265  0.2620
 3293TIP3    H1 9843   5.256   6.598   2.843 -1.0305  1.6323 -0.5841
 3293TIP3    H2 9844   5.321   6.735   2.833  1.6711  0.5463  0.9798
 3294TIP3   OH2 9845   6.908   0.147   1.864  0.1446 -0.6903  0.3077
 3294TIP3    H1 9846   6.816   0.151   1.839 -0.3893  0.9362  2.1840
 3294TIP3    H2 9847   6.909   0.094   1.943  0.7488 -0.3781  0.5160
 3295TIP3   OH2 9848   3.261   0.467   1.816  0.2768 -0.0287 -0.4137
 3295TIP3    H1 9849   3.307   0.524   1.877 -0.0759 -0.9090  0.7231
 3295TIP3    H2 9850   3.282   0.501   1.729  2.1392  0.2741  0.1184
 3296TIP3   OH2 9851   0.964   4.711   0.258  0.2853  0.5754  0.3080
 3296TIP3    H1 9852   1.051   4.739   0.288 -0.2018  1.0533  1.3129
 3296TIP3    H2 9853   0.949   4.762   0.178  1.1206  0.1271 -0.1509
 3297TIP3   OH2 9854   6.924   2.412   4.083 -0.6581 -0.4127 -0.1902
 3297TIP3    H1 9855   6.975   2.334   4.103 -2.4526 -1.2558  1.3479
 3297TIP3    H2 9856   6.835   2.380   4.067 -1.3841  1.2688  0.2330
 3298TIP3   OH2 9857   3.109   2.218   2.063 -0.1006 -0.2660 -0.8180
 3298TIP3    H1 9858   3.019   2.243   2.083  0.2951  0.6575 -0.0976
 3298TIP3    H2 9859   3.161   2.294   2.089  0.6518  0.3926 -3.8211
 3299TIP3   OH2 9860   3.939   6.015   0.136  0.2654 -0.3966 -0.1828
 3299TIP3    H1 9861   3.915   6.108   0.138 -1.6603 -0.8332 -0.6086
 3299TIP3    H2 9862   4.015   6.012   0.077  1.5812  1.1024  1.3285
 3300TIP3   OH2 9863   6.623   4.121   2.552  0.4912  0.1101 -0.1937
 3300TIP3    H1 9864   6.680   4.045   2.546  0.7340  0.2728  0.0577
 3300TIP3    H2 9865   6.582   4.115   2.638  0.6846  0.3864 -0.0809
 3301TIP3   OH2 9866   4.396   2.236   5.146  0.0188  0.5486  0.0341
 3301TIP3    H1 9867   4.334   2.184   5.197 -0.7999  1.2938 -0.1849
 3301TIP3    H2 9868   4.343   2.277   5.078  0.9552  0.2706 -0.8827
 3302TIP3   OH2 9869   2.971   0.274   5.581  0.7056 -0.6142 -0.4171
 3302TIP3    H1 9870   2.979   0.333   5.656 -1.5114 -0.1468 -0.4746
 3302TIP3    H2 9871   2.895   0.218   5.602 -0.4386  0.0126 -2.5746
 3303TIP3   OH2 9872   4.658   0.871   2.245  0.4019  0.0753  0.2492
 3303TIP3    H1 9873   4.591   0.939   2.242  0.3053 -0.0617 -1.8076
 3303TIP3    H2 9874   4.711   0.893   2.322 -2.6066 -0.4777  2.7029
 3304TIP3   OH2 9875   3.654   2.246   3.401 -0.4352  0.0495  0.1976
 3304TIP3    H1 9876   3.577   2.196   3.429 -1.4477  0.4065 -1.8019
 3304TIP3    H2 9877   3.693   2.193   3.331  1.1862 -0.1210  1.1549
 3305TIP3   OH2 9878   4.324   3.379   4.548  0.7473  0.1426  0.2179
 3305TIP3    H1 9879   4.248   3.322   4.552  0.6914  0.1763 -0.3453
 3305TIP3    H2 9880   4.308   3.436   4.473  1.2115  0.3154  0.2458
 3306TIP3   OH2 9881   0.941   6.778   3.017 -0.2003 -0.1143 -0.0783
 3306TIP3    H1 9882   0.955   6.692   3.057 -0.8902 -0.1660  0.0693
 3306TIP3    H2 9883   0.908   6.833   3.089  0.6546  0.4022 -0.0664
 3307TIP3   OH2 9884   3.626   5.143   4.345 -0.3290 -0.7901  0.8438
 3307TIP3    H1 9885   3.654   5.234   4.333  4.4314 -1.8687  1.7443
 3307TIP3    H2 9886   3.615   5.110   4.256 -0.1723  0.1737  0.4541
 3308TIP3   OH2 9887   1.735   5.268   2.838 -0.4120 -0.2750  0.0520
 3308TIP3    H1 9888   1.642   5.270   2.858 -0.0741  0.1465  1.7823
 3308TIP3    H2 9889   1.775   5.231   2.917  1.0553  1.3312  0.1273
 3309TIP3   OH2 9890   3.257   0.163   0.072 -0.1585  0.3758 -0.0143
 3309TIP3    H1 9891   3.305   0.204   0.144  2.2338 -0.4050 -1.0712
 3309TIP3    H2 9892   3.320   0.159   0.000 -1.6375 -1.2668 -1.3105
 3310TIP3   OH2 9893   3.311   0.046   2.122 -0.2177 -0.6156 -0.2916
 3310TIP3    H1 9894   3.341   0.120   2.174 -0.1420 -0.9743  0.1781
 3310TIP3    H2 9895   3.295   0.083   2.035 -0.0657 -0.0748 -0.0934
 3311TIP3   OH2 9896   6.597   1.362   1.615  0.0455 -0.1686  0.0845
 3311TIP3    H1 9897   6.643   1.407   1.686 -1.8260  0.6061  0.8485
 3311TIP3    H2 9898   6.594   1.270   1.644 -1.2149  0.2321  1.3394
 3312TIP3   OH2 9899   5.147   2.738   0.351  0.1234  0.1233  0.8000
 3312TIP3    H1 9900   5.080   2.686   0.395 -2.0151  1.1911 -0.9947
 3312TIP3    H2 9901   5.129   2.829   0.376  2.6438  0.3020  2.3956
 3313TIP3   OH2 9902   4.082   2.474   0.154 -0.0040  0.1109  0.5743
 3313TIP3    H1 9903   4.013   2.410   0.170  1.3964 -2.1277 -1.7018
 3313TIP3    H2 9904   4.043   2.536   0.092 -0.3195 -0.5309  0.1239
 3314TIP3   OH2 9905   1.024   0.616   1.969 -0.1870 -0.2554  0.4121
 3314TIP3    H1 9906   0.931   0.636   1.982 -0.7117 -1.1613 -1.5776
 3314TIP3    H2 9907   1.061   0.614   2.057 -1.9713  0.5182  1.2168
 3315TIP3   OH2 9908   3.407   2.598   4.681  0.3889 -0.5316 -0.2114
 3315TIP3    H1 9909   3.371   2.547   4.754 -1.4083 -1.3127 -1.5576
 3315TIP3    H2 9910   3.481   2.546   4.650  0.1410 -1.0384  0.0302
 3316TIP3   OH2 9911   0.997   1.352   0.212 -0.3809 -1.0501 -0.4006
 3316TIP3    H1 9912   1.047   1.389   0.286 -0.2027 -1.1340 -0.4775
 3316TIP3    H2 9913   0.908   1.343   0.246 -0.5946  0.0953 -0.5972
 3317TIP3   OH2 9914   6.464   5.201   2.250 -0.1518  0.0141  0.3857
 3317TIP3    H1 9915   6.542   5.174   2.299 -0.7744  0.3368  1.6056
 3317TIP3    H2 9916   6.404   5.127   2.259 -0.0321 -0.2005 -0.4845
 3318TIP3   OH2 9917   0.535   0.050   4.827  0.7133 -0.5405  0.5892
 3318TIP3    H1 9918   0.463   0.085   4.775  0.9135 -1.6991 -0.5052
 3318TIP3    H2 9919   0.574   0.127   4.869  0.4535  0.4243 -0.8625
 3319TIP3   OH2 9920   1.305   1.794   2.213  0.0534  0.2983  0.6107
 3319TIP3    H1 9921   1.329   1.843   2.291  0.2801  0.1071  0.6648
 3319TIP3    H2 9922   1.389   1.760   2.179  0.0517  1.0400 -0.1667
 3320TIP3   OH2 9923   6.585   3.360   2.979 -0.6789  0.4827 -0.1019
 3320TIP3    H1 9924   6.575   3.286   2.918  3.8378 -1.8283  1.4932
 3320TIP3    H2 9925   6.649   3.417   2.937 -0.1437  0.6767  0.9493
 3321TIP3   OH2 9926   0.631   6.522   3.460 -0.4401 -0.5520  0.3035
 3321TIP3    H1 9927   0.683   6.458   3.411 -1.2631 -1.4148  0.5281
 3321TIP3    H2 9928   0.597   6.473   3.534  0.7756  0.7343  1.7826
 3322TIP3   OH2 9929   4.515   4.313   2.914 -0.5084 -0.4927  0.3176
 3322TIP3    H1 9930   4.504   4.348   3.002 -0.0127  1.7129 -0.4290
 3322TIP3    H2 9931   4.609   4.319   2.897 -0.6146 -0.7579 -0.4260
 3323TIP3   OH2 9932   1.307   5.296   4.489 -0.0925 -0.0463  0.1963
 3323TIP3    H1 9933   1.360   5.218   4.505 -1.3812 -1.1111 -0.5436
 3323TIP3    H2 9934   1.228   5.283   4.543 -0.6837  0.3514 -0.5594
 3324TIP3   OH2 9935   1.179   0.357   1.622 -0.5348 -0.1593 -0.0355
 3324TIP3    H1 9936   1.128   0.414   1.680  0.9448  0.3944  0.7868
 3324TIP3    H2 9937   1.186   0.274   1.670 -0.7760 -0.2976 -0.2303
 3325TIP3   OH2 9938   5.646   4.757   5.289  0.4806  0.7178 -0.0440
 3325TIP3    H1 9939   5.684   4.719   5.368  1.3168 -0.0585 -0.7933
 3325TIP3    H2 9940   5.675   4.849   5.290 -0.6207  1.0767  1.2074
 3326TIP3   OH2 9941   0.468   0.068   2.657 -0.2203  0.1499 -0.6891
 3326TIP3    H1 9942   0.501   0.123   2.586 -0.3695  0.2427 -0.6852
 3326TIP3    H2 9943   0.451   0.129   2.729 -1.1259  0.2088 -0.9412
 3327TIP3   OH2 9944   0.369   4.117   0.773 -0.4555  0.4967 -0.0424
 3327TIP3    H1 9945   0.444   4.176   0.786  0.8774 -1.0293 -0.4917
 3327TIP3    H2 9946   0.296   4.176   0.756  1.0515  2.0211 -1.6842
 3328TIP3   OH2 9947   2.067   5.808   1.796  0.7686 -0.2040 -0.3039
 3328TIP3    H1 9948   2.052   5.861   1.874 -2.7994  0.1165 -1.0149
 3328TIP3    H2 9949   2.118   5.864   1.737  0.3332  0.9936  0.4282
 3329TIP3   OH2 9950   2.212   4.757   0.727  0.3060 -0.1221 -0.0733
 3329TIP3    H1 9951   2.202   4.664   0.708  1.2525 -0.3067  0.2515
 3329TIP3    H2 9952   2.307   4.771   0.725  0.3599  0.2901  2.4114
 3330TIP3   OH2 9953   6.449   3.071   0.755  0.5173 -0.0757  0.2330
 3330TIP3    H1 9954   6.502   3.136   0.800  0.7555  0.0744 -0.2594
 3330TIP3    H2 9955   6.431   3.004   0.821  1.1828 -0.0474  0.4429
 3331TIP3   OH2 9956   2.503   1.226   2.379 -0.0082  0.3737  0.3067
 3331TIP3    H1 9957   2.481   1.133   2.386  2.5379 -0.2740  1.0552
 3331TIP3    H2 9958   2.557   1.231   2.300  0.6126  1.0226  0.7575
 3332TIP3   OH2 9959   5.388   5.386   3.991  0.3615 -0.6147 -0.8276
 3332TIP3    H1 9960   5.325   5.315   4.006  0.2074 -0.2865  0.1308
 3332TIP3    H2 9961   5.350   5.462   4.037  0.6837  0.0080 -1.5664
 3333TIP3   OH2 9962   3.887   0.322   1.503  0.0715  0.6560  0.4385
 3333TIP3    H1 9963   3.901   0.229   1.521 -1.0703  0.4674  0.4057
 3333TIP3    H2 9964   3.909   0.332   1.411  0.8817  0.5715  0.6114
 3334TIP3   OH2 9965   2.612   5.306   1.604  0.0581  0.2308  0.9777
 3334TIP3    H1 9966   2.684   5.245   1.588 -1.3628 -1.2239 -0.0808
 3334TIP3    H2 9967   2.590   5.294   1.697  0.9188  0.4391  1.2199
 3335TIP3   OH2 9968   1.400   1.234   1.248 -0.0159 -0.0104  0.4024
 3335TIP3    H1 9969   1.461   1.167   1.279  1.2776  1.2567  0.7053
 3335TIP3    H2 9970   1.377   1.206   1.160  0.8679 -0.6253  0.3482
 3336TIP3   OH2 9971   6.540   5.696   5.488 -0.5729  0.2934  0.3069
 3336TIP3    H1 9972   6.629   5.686   5.455  0.3591  0.4797  2.5482
 3336TIP3    H2 9973   6.532   5.790   5.508 -0.8584  0.1100  1.1120
 3337TIP3   OH2 9974   2.272   1.300   0.238 -0.2507  1.0543 -0.2099
 3337TIP3    H1 9975   2.316   1.319   0.155 -1.0714  3.0167 -0.2600
 3337TIP3    H2 9976   2.333   1.243   0.285 -0.0319 -0.6206 -2.3718
 3338TIP3   OH2 9977   3.010   3.778   4.933  0.4727  0.3738 -0.4967
 3338TIP3    H1 9978   3.031   3.759   4.842 -0.1671 -0.2343 -0.5290
 3338TIP3    H2 9979   3.085   3.828   4.966  1.8833 -1.5611 -0.6221
 3339TIP3   OH2 9980   5.923   2.255   0.010  0.2516  0.0622 -0.1486
 3339TIP3    H1 9981   5.913   2.297   0.095  0.1207 -0.0436 -0.1127
 3339TIP3    H2 9982   5.939   2.328  -0.051 -2.1949  0.4073 -0.4748
 3340TIP3   OH2 9983   6.113   1.249   4.462  0.8101 -0.5743  0.0624
 3340TIP3    H1 9984   6.098   1.156   4.476  0.9529 -0.4749  0.9514
 3340TIP3    H2 9985   6.106   1.261   4.368 -0.3184 -1.2971  0.0326
 3341TIP3   OH2 9986   5.527   4.859   1.144 -0.4601  0.0109  0.5184
 3341TIP3    H1 9987   5.493   4.892   1.060 -0.2782 -1.2893 -0.0977
 3341TIP3    H2 9988   5.603   4.805   1.119 -0.2659 -0.2104  1.5454
 3342TIP3   OH2 9989   5.454   0.703   1.538 -0.2811  0.3726  0.0011
 3342TIP3    H1 9990   5.537   0.727   1.580 -0.7599 -0.5449  1.5617
 3342TIP3    H2 9991   5.422   0.629   1.590 -0.7043 -1.1564 -2.3007
 3343TIP3   OH2 9992   4.919   5.066   4.188  0.3370  0.3604  0.1641
 3343TIP3    H1 9993   4.957   4.981   4.169  1.5052  0.3152  2.3741
 3343TIP3    H2 9994   4.843   5.047   4.243  0.5891  0.7258  0.6493
 3344TIP3   OH2 9995   5.696   2.468   5.332 -0.0710 -0.4395  0.1800
 3344TIP3    H1 9996   5.759   2.539   5.340 -0.0697 -0.1963 -1.7049
 3344TIP3    H2 9997   5.746   2.394   5.297 -0.0899 -1.4121  2.0399
 3345TIP3   OH2 9998   3.217   6.221   4.448 -0.4443  0.2936  0.2352
 3345TIP3    H1 9999   3.311   6.210   4.431 -0.0607  1.0775  1.6238
 3345TIP3    H210000   3.176   6.220   4.362  0.6618 -1.4727 -0.3316
 3346TIP3   OH210001   1.455   4.254   2.150 -0.0144  0.0341 -0.4671
 3346TIP3    H110002   1.537   4.241   2.198 -0.9074 -0.1852  1.0860
 3346TIP3    H210003   1.480   4.303   2.072  1.9228 -2.0320 -1.2539
 3347TIP3   OH210004   3.487   2.462   1.954 -0.2428 -0.6769  0.4509
 3347TIP3    H110005   3.580   2.468   1.932 -0.2145 -3.9227 -0.9970
 3347TIP3    H210006   3.446   2.535   1.908  1.1989 -1.3839 -2.2030
 3348TIP3   OH210007   7.188   4.918   3.159  0.2565 -0.0089  0.0860
 3348TIP3    H110008   7.105   4.877   3.183  0.4359 -1.0060 -0.9390
 3348TIP3    H210009   7.178   4.940   3.066  0.7667  0.8093  0.2119
 3349TIP3   OH210010   0.196   2.634   0.372 -0.0295  0.1435 -0.8688
 3349TIP3    H110011   0.198   2.560   0.432  0.2096 -0.5183 -1.6754
 3349TIP3    H210012   0.215   2.710   0.427  1.1232 -0.5607 -0.2620
 3350TIP3   OH210013   5.635   0.981   1.608 -0.2653 -0.3824  0.0568
 3350TIP3    H110014   5.666   0.960   1.520 -1.7693 -1.3200 -0.2970
 3350TIP3    H210015   5.713   1.008   1.656  0.5347  0.4472 -1.6408
 3351TIP3   OH210016   3.344   0.110   3.982 -0.2909 -0.4469 -0.2578
 3351TIP3    H110017   3.284   0.175   4.017  0.6030  0.4519 -0.3630
 3351TIP3    H210018   3.416   0.107   4.045 -0.8954 -2.2665  0.4117
 3352TIP3   OH210019   6.678   2.275   4.049 -0.0060 -0.5839 -0.1915
 3352TIP3    H110020   6.601   2.223   4.025 -0.1804 -1.0316  1.2030
 3352TIP3    H210021   6.659   2.363   4.016 -0.6251 -0.9361 -0.8133
 3353TIP3   OH210022   1.998   3.480   5.861 -0.2647 -0.1840 -0.7279
 3353TIP3    H110023   2.042   3.395   5.863  0.2449  0.0466 -1.4330
 3353TIP3    H210024   2.067   3.542   5.835 -0.0486  0.8279  1.9684
 3354TIP3   OH210025   4.294   3.740   3.403  0.3048 -0.0192  0.9046
 3354TIP3    H110026   4.264   3.716   3.491 -0.5048 -0.8547  0.4150
 3354TIP3    H210027   4.238   3.690   3.344  0.2230  1.2348 -0.1210
 3355TIP3   OH210028   1.550   5.287   0.922 -0.0103  0.1589 -0.3836
 3355TIP3    H110029   1.625   5.235   0.892 -0.8718 -0.5853 -1.3529
 3355TIP3    H210030   1.551   5.365   0.868 -0.6802 -0.4780 -1.3633
 3356TIP3   OH210031   4.895   4.670   3.249  0.1189  0.4258 -0.4795
 3356TIP3    H110032   4.944   4.727   3.190  1.5702 -0.6096 -0.3439
 3356TIP3    H210033   4.833   4.624   3.192  1.3359 -0.3861 -1.2097
 3357TIP3   OH210034   1.056   1.359   4.701  0.4990 -1.1107  0.0312
 3357TIP3    H110035   1.131   1.337   4.645  0.0679 -1.5516 -0.3816
 3357TIP3    H210036   1.031   1.276   4.741  0.9081 -0.7674  1.0251
 3358TIP3   OH210037   5.325   2.725   2.218 -0.3146  0.3079 -0.2764
 3358TIP3    H110038   5.238   2.748   2.252  0.0004  1.8653 -0.4590
 3358TIP3    H210039   5.307   2.689   2.131 -0.7177  1.9430 -0.9098
 3359TIP3   OH210040   7.158   2.712   2.912  0.7440 -0.4342 -0.0959
 3359TIP3    H110041   7.102   2.786   2.937 -1.3109 -2.3376  1.4733
 3359TIP3    H210042   7.247   2.741   2.931  0.0049  1.5871  0.5332
 3360TIP3   OH210043   5.684   0.822   3.966  0.4058 -0.5936  0.0787
 3360TIP3    H110044   5.648   0.800   4.052  0.0923 -0.1395  0.0669
 3360TIP3    H210045   5.681   0.918   3.962  0.3342 -0.6138 -0.4734
 3361TIP3   OH210046   5.919   4.534   0.721 -0.1088  0.0892 -0.1408
 3361TIP3    H110047   5.906   4.577   0.636  0.4680  1.7943  0.5905
 3361TIP3    H210048   5.834   4.537   0.764  0.1582  1.5151  0.3306
 3362TIP3   OH210049   1.394   1.591   3.452  0.1875 -0.3981  0.2891
 3362TIP3    H110050   1.380   1.626   3.540 -2.4225  0.5733 -0.4262
 3362TIP3    H210051   1.486   1.609   3.433  1.1227 -1.6182  3.1840
 3363TIP3   OH210052   6.058   2.479   4.035  0.5024 -0.2322 -0.2196
 3363TIP3    H110053   6.046   2.384   4.028 -3.0724 -0.1587  2.0556
 3363TIP3    H210054   5.976   2.516   4.003 -0.2272  1.7132  3.3425
 3364TIP3   OH210055   4.191   1.812   0.872 -0.0029  0.0036  0.1105
 3364TIP3    H110056   4.097   1.830   0.872  0.0561  0.3388 -0.4607
 3364TIP3    H210057   4.216   1.817   0.780  0.4129 -0.9547  0.1539
 3365TIP3   OH210058   5.637   6.147   1.328 -0.5181  0.8446  0.9816
 3365TIP3    H110059   5.662   6.190   1.246 -0.5799 -1.7992 -0.5389
 3365TIP3    H210060   5.549   6.113   1.313  0.4576 -2.0239  1.0130
 3366TIP3   OH210061   1.045   6.031   2.731 -0.0859 -0.6278 -0.2356
 3366TIP3    H110062   1.006   5.943   2.727 -0.8120 -0.4189  1.4801
 3366TIP3    H210063   0.973   6.088   2.757  1.1344 -0.0769  2.1776
 3367TIP3   OH210064   5.084   0.257   3.838 -0.8292  0.4291 -0.1016
 3367TIP3    H110065   5.006   0.207   3.862 -0.9926  1.0673  0.7429
 3367TIP3    H210066   5.066   0.289   3.750 -1.1458 -0.1512 -0.2549
 3368TIP3   OH210067   1.615   5.311   5.641  0.0419  0.6872  0.1818
 3368TIP3    H110068   1.602   5.381   5.705  1.2633  0.6740  0.4574
 3368TIP3    H210069   1.620   5.231   5.694  1.2788  0.7001  0.0995
 3369TIP3   OH210070   4.538   2.676   2.069 -0.0507  0.2882  0.3166
 3369TIP3    H110071   4.537   2.592   2.115 -0.3518  0.7878  1.2335
 3369TIP3    H210072   4.485   2.661   1.991  2.1603 -1.1913 -1.0431
 3370TIP3   OH210073   2.876   5.481   0.477  0.4387 -0.2462  0.4835
 3370TIP3    H110074   2.808   5.531   0.432  1.9424  1.2418 -0.2452
 3370TIP3    H210075   2.830   5.435   0.547 -1.3148  0.6789 -0.0113
 3371TIP3   OH210076   3.616   4.713   1.241  0.2012 -0.2772 -0.4218
 3371TIP3    H110077   3.707   4.684   1.231  0.4783 -0.1975  1.5413
 3371TIP3    H210078   3.623   4.809   1.247 -0.1082 -0.2162 -0.9415
 3372TIP3   OH210079   3.531   3.122   1.952 -0.5701 -0.4286 -0.3947
 3372TIP3    H110080   3.566   3.135   1.863 -0.1507 -2.1532 -0.5134
 3372TIP3    H210081   3.597   3.069   1.996 -0.8212  0.3296  0.9468
 3373TIP3   OH210082   5.886   4.198   0.144  0.0442  0.0528 -0.0139
 3373TIP3    H110083   5.952   4.195   0.214  0.5808 -0.0213 -0.5111
 3373TIP3    H210084   5.820   4.134   0.171 -0.9210  1.6473  1.5426
 3374TIP3   OH210085   3.447   5.159   4.988  0.5878 -0.2624 -0.4223
 3374TIP3    H110086   3.395   5.122   4.916  0.0636  0.3006 -0.3448
 3374TIP3    H210087   3.506   5.221   4.945  2.9524 -2.6257 -0.8215
 3375TIP3   OH210088   0.789   3.535   2.448 -0.3408 -0.0032  0.0214
 3375TIP3    H110089   0.761   3.559   2.537  0.8518 -1.9973  1.0127
 3375TIP3    H210090   0.789   3.618   2.400 -2.6081  0.8934  1.4000
 3376TIP3   OH210091   5.397   2.211   5.333 -0.1864  0.3852  0.6918
 3376TIP3    H110092   5.373   2.276   5.399  0.3599  0.2705  1.0160
 3376TIP3    H210093   5.474   2.168   5.370  1.3899  1.6793 -0.9098
 3377TIP3   OH210094   0.474   0.310   5.120  0.3344  0.1002  0.3556
 3377TIP3    H110095   0.437   0.306   5.031 -0.6767  0.1339  0.7609
 3377TIP3    H210096   0.436   0.236   5.166  1.5589 -0.4493  0.5267
 3378TIP3   OH210097   4.364   4.855   4.306  0.2276  0.9543  0.1335
 3378TIP3    H110098   4.402   4.819   4.225 -1.1779  0.0109 -0.1310
 3378TIP3    H210099   4.301   4.920   4.276 -0.4334  0.4704  0.4513
 3379TIP3   OH210100   4.468   5.160   1.084  0.3345 -0.0963  0.5023
 3379TIP3    H110101   4.498   5.217   1.013 -1.0173 -1.8063 -1.5615
 3379TIP3    H210102   4.534   5.171   1.152  1.5979  1.7943 -0.9184
 3380TIP3   OH210103   3.946   3.263   0.244 -0.1258  0.6674  0.2100
 3380TIP3    H110104   4.021   3.304   0.202 -0.3713  0.2843 -0.6288
 3380TIP3    H210105   3.910   3.332   0.301  0.2845  1.1584 -0.1134
 3381TIP3   OH210106   6.237   3.941   2.905  0.0539 -0.9170  0.0309
 3381TIP3    H110107   6.319   3.928   2.858  0.0589 -1.3041  0.1461
 3381TIP3    H210108   6.171   3.944   2.836  0.0705 -1.4094 -0.0049
 3382TIP3   OH210109   2.613   5.848   4.156 -0.0378 -0.0230  0.1666
 3382TIP3    H110110   2.610   5.885   4.244  0.3730  1.7296 -0.5254
 3382TIP3    H210111   2.633   5.755   4.170 -0.6574  0.0702  1.9345
 3383TIP3   OH210112   4.948   4.325   2.076 -1.0141  0.0298  0.4825
 3383TIP3    H110113   4.876   4.343   2.015 -1.9179 -1.9343  0.9015
 3383TIP3    H210114   5.020   4.381   2.045 -1.5428 -0.6098 -2.1464
 3384TIP3   OH210115   2.213   3.110   1.445  0.6818  0.2041  0.5107
 3384TIP3    H110116   2.163   3.135   1.367  0.5176  0.8140  0.8066
 3384TIP3    H210117   2.295   3.159   1.437 -0.3003  2.1874  1.9193
 3385TIP3   OH210118   6.361   0.967   1.193 -0.0971  0.4206 -0.6210
 3385TIP3    H110119   6.357   1.057   1.160  1.7696  0.6174 -0.3947
 3385TIP3    H210120   6.435   0.966   1.253 -0.4698 -1.1357 -0.1363
 3386TIP3   OH210121   0.319   0.369   3.082  0.4686  0.0739 -0.4044
 3386TIP3    H110122   0.375   0.441   3.109  2.4342 -0.9729 -1.4840
 3386TIP3    H210123   0.261   0.354   3.157  0.2283  2.4924 -0.0339
 3387TIP3   OH210124   3.652   5.037   2.369 -0.5105 -0.7014 -0.7716
 3387TIP3    H110125   3.671   5.113   2.314  1.0377 -1.6887 -1.6585
 3387TIP3    H210126   3.628   5.074   2.454  1.0308  0.7578 -0.9341
 3388TIP3   OH210127   0.570   2.135   4.194  0.2242  0.0574  0.2500
 3388TIP3    H110128   0.561   2.102   4.105 -1.7733 -0.0498  0.4654
 3388TIP3    H210129   0.600   2.059   4.244 -0.8844 -0.5074  0.0855
 3389TIP3   OH210130   7.127   4.006   3.789 -0.2244  0.9385  0.4101
 3389TIP3    H110131   7.032   4.000   3.799 -0.1701  0.9372  0.9366
 3389TIP3    H210132   7.143   3.976   3.699 -0.7056  0.7901  0.3686
 3390TIP3   OH210133   1.845   0.026   0.207  0.2736 -0.2775  0.3679
 3390TIP3    H110134   1.883  -0.062   0.215 -1.3845 -1.0216  0.4102
 3390TIP3    H210135   1.907   0.083   0.253  0.8194 -1.5789  1.3157
 3391TIP3   OH210136   1.019   0.122   4.465 -0.5307  0.2797  0.1973
 3391TIP3    H110137   0.973   0.180   4.525  0.8348 -0.4081  2.0069
 3391TIP3    H210138   1.068   0.181   4.407 -0.3259  0.9672  1.0487
 3392TIP3   OH210139   5.227   5.417   3.436 -0.2503 -0.1265  0.4322
 3392TIP3    H110140   5.212   5.512   3.440  1.5144  0.1916  0.5918
 3392TIP3    H210141   5.238   5.392   3.528  2.1972  0.1010  0.2727
 3393TIP3   OH210142   6.830   2.258   3.410 -0.4437 -0.0759 -0.3794
 3393TIP3    H110143   6.780   2.245   3.329 -1.8540  1.3426  0.1826
 3393TIP3    H210144   6.856   2.350   3.407  1.2787 -0.5272 -0.1446
 3394TIP3   OH210145   3.203   0.842   4.048 -0.3724  0.3772  0.3228
 3394TIP3    H110146   3.132   0.905   4.062 -0.4006  0.1536  1.3212
 3394TIP3    H210147   3.256   0.849   4.128 -0.0962 -0.4934  0.2234
 3395TIP3   OH210148   2.728   0.018   1.330  0.1765  0.2190 -0.0691
 3395TIP3    H110149   2.789   0.074   1.283 -0.1208  1.6339  1.1583
 3395TIP3    H210150   2.713   0.062   1.413 -0.3347 -1.5302  0.8319
 3396TIP3   OH210151   6.335   0.520   2.922  0.0798  0.1999  0.3952
 3396TIP3    H110152   6.313   0.471   3.002  0.0555  2.2193  1.7160
 3396TIP3    H210153   6.430   0.531   2.926  0.7582 -3.2837 -2.1440
 3397TIP3   OH210154   3.419   6.672   5.088  0.0797  0.2983 -0.0036
 3397TIP3    H110155   3.372   6.667   5.171 -0.0737 -0.6864 -0.1403
 3397TIP3    H210156   3.350   6.679   5.022  0.1078 -1.2114 -0.2097
 3398TIP3   OH210157   0.495   0.562   3.170  0.0040  0.0544  0.6009
 3398TIP3    H110158   0.554   0.500   3.213  1.7058  0.2982 -1.2015
 3398TIP3    H210159   0.520   0.647   3.205 -0.2678  0.0214  0.8782
 3399TIP3   OH210160   6.193   4.212   2.945 -0.1602 -0.1058  0.0250
 3399TIP3    H110161   6.109   4.215   2.991 -0.5197 -1.2620 -0.5232
 3399TIP3    H210162   6.211   4.119   2.936  0.8935  0.1374 -0.4007
 3400TIP3   OH210163   4.312   6.147   5.300 -0.4442 -0.2570 -0.3418
 3400TIP3    H110164   4.275   6.132   5.214  0.4164 -1.6332 -0.5029
 3400TIP3    H210165   4.245   6.196   5.348 -1.1322  0.0688 -1.6156
 3401TIP3   OH210166   2.662   6.179   1.098 -0.3700  0.2444 -0.0053
 3401TIP3    H110167   2.570   6.157   1.116 -0.1340  0.7037  2.0229
 3401TIP3    H210168   2.713   6.111   1.142  0.2681  1.8472  1.8714
 3402TIP3   OH210169   3.822   3.309   4.797  0.0178 -0.9814 -0.1250
 3402TIP3    H110170   3.809   3.346   4.884  0.8983  2.0842 -1.1738
 3402TIP3    H210171   3.798   3.216   4.807  0.7425 -0.9507  3.4947
 3403TIP3   OH210172   5.406   0.959   2.105  0.0082  0.6193 -0.5949
 3403TIP3    H110173   5.468   1.027   2.132 -1.5902  1.3515  1.6028
 3403TIP3    H210174   5.321   0.995   2.130 -0.8492 -2.5921  1.7019
 3404TIP3   OH210175   5.133   2.561   1.713 -0.3145 -0.2862  0.5666
 3404TIP3    H110176   5.068   2.614   1.759  0.6500  0.0884  1.5360
 3404TIP3    H210177   5.100   2.471   1.719 -0.5185 -0.1565  1.4429
 3405TIP3   OH210178   4.654   6.080   0.886 -0.5284 -0.3918  0.3874
 3405TIP3    H110179   4.652   6.147   0.817 -0.8747  0.2865  1.0483
 3405TIP3    H210180   4.579   6.100   0.942 -1.4761 -2.1735 -0.1668
 3406TIP3   OH210181   2.263   6.790   4.551 -0.0437  0.0687  0.4677
 3406TIP3    H110182   2.333   6.743   4.505 -0.9539  0.4624 -1.4008
 3406TIP3    H210183   2.306   6.829   4.627  1.4983 -0.7059  0.0307
 3407TIP3   OH210184   2.754   4.408   1.825 -0.0658 -0.1656  0.4341
 3407TIP3    H110185   2.782   4.347   1.758  0.6090 -1.7633  2.0991
 3407TIP3    H210186   2.658   4.407   1.820 -0.0371 -0.6957 -0.1021
 3408TIP3   OH210187   1.093   4.298   5.374 -0.5306  0.1003 -0.0170
 3408TIP3    H110188   1.134   4.379   5.403  0.6764 -0.7840  0.8567
 3408TIP3    H210189   1.004   4.302   5.410 -1.1642  1.8680 -1.6147
 3409TIP3   OH210190   4.287   0.272   3.397 -0.1100  0.5507  0.0358
 3409TIP3    H110191   4.334   0.189   3.388 -0.9263 -0.0326  0.8778
 3409TIP3    H210192   4.337   0.334   3.345 -0.1907 -0.7513 -1.6652
 3410TIP3   OH210193   3.128   1.926   3.134 -0.2169  0.0668 -0.1062
 3410TIP3    H110194   3.142   1.984   3.059 -0.7013  1.1209  0.6010
 3410TIP3    H210195   3.183   1.850   3.116  0.9882  1.0552 -0.7187
 3411TIP3   OH210196   6.592   2.503   4.438 -0.0742  0.3282  0.1265
 3411TIP3    H110197   6.578   2.554   4.518 -2.0352 -0.0273  0.0744
 3411TIP3    H210198   6.619   2.567   4.372 -1.2412  1.1239  0.3882
 3412TIP3   OH210199   6.565   3.617   3.771 -0.0376 -0.8211 -0.1564
 3412TIP3    H110200   6.632   3.579   3.828 -1.4303 -0.5110  1.7830
 3412TIP3    H210201   6.493   3.640   3.830 -1.3132  0.1171 -1.9717
 3413TIP3   OH210202   4.284   5.025   1.231 -0.1134  0.0103 -0.3082
 3413TIP3    H110203   4.359   5.069   1.192  1.2687  0.4266  2.5771
 3413TIP3    H210204   4.316   4.938   1.253 -0.7155 -0.0747  0.2501
 3414TIP3   OH210205   2.343   1.550   5.630  0.3584 -0.3078  0.0854
 3414TIP3    H110206   2.306   1.519   5.547 -0.5671  2.6238 -0.7477
 3414TIP3    H210207   2.406   1.483   5.655 -1.6583 -2.9094 -1.2655
 3415TIP3   OH210208   2.888   3.278   2.545  0.2281  0.2389 -0.3087
 3415TIP3    H110209   2.794   3.267   2.536  0.4080 -0.3012 -1.8547
 3415TIP3    H210210   2.912   3.338   2.474  0.7550  2.2569  1.4779
 3416TIP3   OH210211   3.014   5.828   5.395  0.0173  0.1736  0.0126
 3416TIP3    H110212   3.026   5.922   5.411  0.6231 -0.0409  0.8774
 3416TIP3    H210213   3.098   5.799   5.360  0.2284 -0.2719  0.8708
 3417TIP3   OH210214   2.787   4.609   2.847 -0.1029 -0.2169  0.0059
 3417TIP3    H110215   2.718   4.606   2.914 -0.1669  0.2208 -0.0337
 3417TIP3    H210216   2.743   4.648   2.771  0.4475  1.0271  0.3035
 3418TIP3   OH210217   2.880   4.414   1.374  0.4709 -0.0227  0.8558
 3418TIP3    H110218   2.826   4.491   1.390  0.5215  0.2241 -0.0813
 3418TIP3    H210219   2.925   4.397   1.457  1.3938  1.7041  0.7470
 3419TIP3   OH210220   6.381   5.237   4.467 -0.4875 -0.4756 -0.1603
 3419TIP3    H110221   6.294   5.234   4.507 -1.2885 -0.7691 -1.8531
 3419TIP3    H210222   6.379   5.169   4.400  0.0636  1.3038 -2.0968
 3420TIP3   OH210223   6.903   6.064   0.249  0.4601 -0.2295  0.0735
 3420TIP3    H110224   6.971   6.130   0.264  0.8130 -0.4222 -0.5775
 3420TIP3    H210225   6.949   5.994   0.202  0.0755 -0.9052  0.6822
 3421TIP3   OH210226   4.384   6.523   5.561  0.1496 -0.2697  0.8346
 3421TIP3    H110227   4.405   6.431   5.542  0.2832 -1.0516  4.1668
 3421TIP3    H210228   4.295   6.521   5.596 -1.4213  1.5233 -2.5365
 3422TIP3   OH210229   7.144   1.053   0.688 -0.8124  0.1128 -0.5691
 3422TIP3    H110230   7.122   1.035   0.596 -0.3157 -1.4929 -0.4131
 3422TIP3    H210231   7.127   0.970   0.733 -2.0228  1.1644  1.0048
 3423TIP3   OH210232   2.287   4.572   2.155  0.4984  1.0540 -0.1661
 3423TIP3    H110233   2.235   4.523   2.220  0.7667  0.5798 -0.3058
 3423TIP3    H210234   2.252   4.661   2.160 -0.7342  0.6243 -0.6650
 3424TIP3   OH210235   0.358   4.383   0.283 -0.0355  0.1290 -0.1914
 3424TIP3    H110236   0.278   4.354   0.240 -0.0704 -0.5417  0.3110
 3424TIP3    H210237   0.330   4.414   0.369 -0.0514  2.0566 -0.8453
 3425TIP3   OH210238   5.406   5.775   0.950 -0.2774 -0.2157 -0.1630
 3425TIP3    H110239   5.421   5.869   0.940 -0.3198 -0.1306  0.4875
 3425TIP3    H210240   5.485   5.734   0.917 -0.2450  0.0501 -0.4235
 3426TIP3   OH210241   0.044   2.608   3.199  1.1405  0.0364 -0.1336
 3426TIP3    H110242   0.090   2.674   3.148  0.4728  0.8873  0.3474
 3426TIP3    H210243   0.012   2.545   3.134 -0.9814  1.8711 -1.0098
 3427TIP3   OH210244   0.157   6.415   1.108  0.2828  0.1978  0.0018
 3427TIP3    H110245   0.174   6.510   1.112 -0.7438  0.3573  1.0362
 3427TIP3    H210246   0.087   6.401   1.171  0.0018 -1.1747 -0.5955
 3428TIP3   OH210247   2.954   1.445   4.351 -0.0118  0.4743  0.1969
 3428TIP3    H110248   2.933   1.456   4.259  2.0770  1.0754 -0.2632
 3428TIP3    H210249   2.963   1.350   4.362  1.7124  0.4876 -0.7510
 3429TIP3   OH210250   2.862   4.099   0.893  0.2226  0.4103 -0.2542
 3429TIP3    H110251   2.848   4.156   0.968 -0.8211 -1.0466  0.7306
 3429TIP3    H210252   2.859   4.157   0.817 -0.7796  1.6516  0.6892
 3430TIP3   OH210253   2.977   6.548   2.339 -0.1292  0.1606 -0.0897
 3430TIP3    H110254   3.014   6.544   2.427  1.6095 -1.1921 -0.8221
 3430TIP3    H210255   2.989   6.639   2.312  3.8764 -0.3394 -0.6737
 3431TIP3   OH210256   4.091   1.817   4.147 -0.4239  0.4785  0.6897
 3431TIP3    H110257   4.080   1.740   4.202 -1.1478  0.0708  0.0046
 3431TIP3    H210258   4.008   1.865   4.157 -0.9901 -0.1285 -0.8083
 3432TIP3   OH210259   0.985   2.523   4.452  0.2280 -0.0973 -0.1047
 3432TIP3    H110260   0.933   2.502   4.529  1.3310 -0.2625  0.6085
 3432TIP3    H210261   1.050   2.453   4.446 -0.7817 -0.9630 -2.0972
 3433TIP3   OH210262   3.409   5.779   3.867  0.5407 -0.2235  0.2503
 3433TIP3    H110263   3.449   5.847   3.812 -0.6654 -0.1338 -0.5564
 3433TIP3    H210264   3.365   5.828   3.937 -1.5652  0.0046 -1.1283
 3434TIP3   OH210265   4.476   5.609   1.984 -0.3086 -0.1861 -0.4054
 3434TIP3    H110266   4.534   5.566   1.921  0.8057  1.0363 -0.2512
 3434TIP3    H210267   4.503   5.701   1.983 -0.5840 -0.0438  1.4993
 3435TIP3   OH210268   0.553   4.072   1.034  0.2843 -0.1723 -0.1063
 3435TIP3    H110269   0.513   4.074   0.947 -0.0397  0.4222  0.0518
 3435TIP3    H210270   0.483   4.101   1.093  1.4434  2.8590 -0.0322
 3436TIP3   OH210271   6.538   6.085   4.861 -1.0020 -0.3652 -0.4321
 3436TIP3    H110272   6.619   6.042   4.834  0.6051  0.8806  2.0381
 3436TIP3    H210273   6.541   6.171   4.818  0.0970  0.4684  1.1728
 3437TIP3   OH210274   2.812   4.040   2.601 -0.1673  0.1890 -0.2355
 3437TIP3    H110275   2.772   4.017   2.517 -2.7085 -0.6987  1.1072
 3437TIP3    H210276   2.821   4.135   2.598  0.7005  0.0859 -1.8492
 3438TIP3   OH210277   6.956   2.062   3.532  0.3612 -0.7416  0.0802
 3438TIP3    H110278   6.902   2.125   3.484  0.7668  1.3270  2.1291
 3438TIP3    H210279   6.909   1.979   3.525 -2.1001  0.5539  0.1800
 3439TIP3   OH210280   4.652   6.683   4.880  0.4086 -0.4184 -0.0221
 3439TIP3    H110281   4.642   6.698   4.974 -1.0559 -0.8420 -0.0913
 3439TIP3    H210282   4.739   6.645   4.871  2.1864  3.0677  0.7213
 3440TIP3   OH210283   3.749   3.860   3.322 -0.2402  0.5195  0.1185
 3440TIP3    H110284   3.811   3.874   3.393 -1.8237  0.5441  1.5604
 3440TIP3    H210285   3.776   3.777   3.282  1.0686  0.8344  0.3052
 3441TIP3   OH210286   4.157   3.779   0.267 -0.1028 -0.1842 -0.6572
 3441TIP3    H110287   4.150   3.853   0.207  1.4309 -0.8862 -1.7641
 3441TIP3    H210288   4.128   3.703   0.216 -0.5450 -0.5339  0.0923
 3442TIP3   OH210289   7.072   4.615   1.679  0.3873  0.1414  0.2804
 3442TIP3    H110290   7.128   4.601   1.756 -0.2363 -3.3729  0.2632
 3442TIP3    H210291   7.051   4.527   1.649 -1.6275  1.3902 -2.3433
 3443TIP3   OH210292   0.812   2.223   2.038  0.1936 -0.3257  0.4517
 3443TIP3    H110293   0.821   2.177   1.955  2.1510 -1.4353  1.2097
 3443TIP3    H210294   0.791   2.154   2.102  0.7254  0.1743  1.1911
 3444TIP3   OH210295   3.102   3.106   0.661 -0.1096  0.3007  0.0008
 3444TIP3    H110296   3.127   3.102   0.569 -0.0386  0.4228  0.0148
 3444TIP3    H210297   3.043   3.181   0.667  0.5569  0.8090  0.2145
 3445TIP3   OH210298   6.787   1.408   3.206  0.3651 -0.7026 -0.3205
 3445TIP3    H110299   6.840   1.382   3.131  0.5580 -0.6396 -0.2062
 3445TIP3    H210300   6.812   1.346   3.275 -0.8840 -1.7171 -0.7326
 3446TIP3   OH210301   5.818   6.067   0.773  0.5631  0.0554  0.2151
 3446TIP3    H110302   5.827   5.972   0.782  0.1906  0.0375  0.4496
 3446TIP3    H210303   5.733   6.087   0.813  1.1585  0.6342  1.2384
 3447TIP3   OH210304   6.720   4.956   5.093 -0.1323 -0.8416 -0.0260
 3447TIP3    H110305   6.788   4.894   5.121  1.9003  2.1174  2.3315
 3447TIP3    H210306   6.754   4.992   5.010  0.3659 -0.6098  0.2686
 3448TIP3   OH210307   5.967   0.175   1.786  0.2780  0.1901  0.1472
 3448TIP3    H110308   5.923   0.254   1.820 -3.0255 -1.9197  1.2487
 3448TIP3    H210309   5.940   0.170   1.694 -2.3030 -1.2370  0.8832
 3449TIP3   OH210310   0.193   3.387   4.775  0.2120  0.3022 -0.2746
 3449TIP3    H110311   0.182   3.452   4.706  2.7233  1.0005 -0.0951
 3449TIP3    H210312   0.239   3.314   4.733  0.8225  0.2786  0.4140
 3450TIP3   OH210313   4.296   4.952   5.616  0.3253  0.0191  0.1511
 3450TIP3    H110314   4.243   4.872   5.616  0.4930 -0.1661  2.7031
 3450TIP3    H210315   4.234   5.023   5.607 -0.1321 -0.2949  0.7796
 3451TIP3   OH210316   3.178   5.863   1.783  0.5691 -0.0927  0.2012
 3451TIP3    H110317   3.250   5.924   1.799  0.4572 -0.2119  1.2511
 3451TIP3    H210318   3.220   5.778   1.774  0.7571  0.1578 -1.6103
 3452TIP3   OH210319   3.528   6.180   1.507 -0.5873  0.2024 -0.0346
 3452TIP3    H110320   3.598   6.125   1.473 -0.3965  0.8262 -0.6783
 3452TIP3    H210321   3.562   6.214   1.590 -1.2759 -1.7745  1.1085
 3453TIP3   OH210322   1.728   3.653   0.770  0.7324  0.0823  0.0081
 3453TIP3    H110323   1.748   3.667   0.677 -1.4036 -0.3702 -0.5740
 3453TIP3    H210324   1.647   3.703   0.785  1.2066  0.4038  1.7330
 3454TIP3   OH210325   4.839   2.392   2.384 -0.2233 -0.2526 -0.5431
 3454TIP3    H110326   4.788   2.336   2.442 -0.3718 -2.7430 -2.8667
 3454TIP3    H210327   4.777   2.458   2.353 -0.7545 -0.3545  0.2892
 3455TIP3   OH210328   1.334   3.665   4.966  0.3251  0.2090  0.0502
 3455TIP3    H110329   1.279   3.660   4.888  0.3883  0.9675 -0.0576
 3455TIP3    H210330   1.338   3.576   5.000  2.3446 -0.6633 -2.2217
 3456TIP3   OH210331   2.003   1.409   5.242 -0.0413 -0.0397 -0.0335
 3456TIP3    H110332   2.028   1.371   5.158 -0.0835 -0.6071  0.2073
 3456TIP3    H210333   1.924   1.459   5.223 -0.3459 -0.5891 -0.2321
 3457TIP3   OH210334   0.133   2.459   4.973  0.6950  0.1506 -0.3331
 3457TIP3    H110335   0.213   2.458   5.026 -0.4501  1.0530  1.5248
 3457TIP3    H210336   0.092   2.374   4.990 -1.4802  1.6730  3.3875
 3458TIP3   OH210337   4.192   0.153   4.216 -0.5123 -0.5388 -0.4115
 3458TIP3    H110338   4.141   0.229   4.243  0.1106  0.6581 -2.3769
 3458TIP3    H210339   4.163   0.082   4.274 -0.8609  1.2409  1.7216
 3459TIP3   OH210340   0.357   3.066   0.093 -0.9071 -0.5564  0.4616
 3459TIP3    H110341   0.449   3.058   0.068 -1.2863 -1.4448 -0.7654
 3459TIP3    H210342   0.337   3.159   0.082 -0.6333 -0.6559 -1.1468
 3460TIP3   OH210343   1.331   0.275   4.637 -0.0743  0.4911  0.4063
 3460TIP3    H110344   1.419   0.307   4.657 -0.0278 -0.2779  1.5083
 3460TIP3    H210345   1.324   0.192   4.685 -1.5379  0.7307  0.6537
 3461TIP3   OH210346   4.370   1.968   4.933 -0.5699 -0.5810 -0.1146
 3461TIP3    H110347   4.296   2.008   4.979 -1.2461 -0.5878 -1.1643
 3461TIP3    H210348   4.382   2.021   4.854 -1.1399 -2.0889 -1.2756
 3462TIP3   OH210349   4.251   4.047   3.432 -0.2190 -0.3777 -0.4509
 3462TIP3    H110350   4.320   3.981   3.433  1.0736  0.8945 -1.0004
 3462TIP3    H210351   4.232   4.064   3.524 -0.7516 -1.6686 -0.3068
 3463TIP3   OH210352   3.615   2.813   0.385  0.5350  0.6058 -0.0396
 3463TIP3    H110353   3.550   2.801   0.454  0.2570  0.0577 -0.3968
 3463TIP3    H210354   3.612   2.907   0.367 -0.1782  0.5875 -0.0695
 3464TIP3   OH210355   1.634   0.998   4.320  0.0428  0.1461  0.0800
 3464TIP3    H110356   1.723   0.968   4.336  0.0606  0.6126  0.9018
 3464TIP3    H210357   1.579   0.921   4.339  0.2761 -0.2418 -0.7525
 3465TIP3   OH210358   2.097   2.311   2.901 -0.4342 -0.5283  0.1768
 3465TIP3    H110359   2.170   2.315   2.839 -1.1794  0.9661 -0.6625
 3465TIP3    H210360   2.139   2.310   2.987  0.5851 -0.4625 -0.3099
 3466TIP3   OH210361   6.419   3.401   2.287 -0.3429  0.4415 -0.2939
 3466TIP3    H110362   6.359   3.388   2.361 -0.3246  0.9700 -0.1840
 3466TIP3    H210363   6.404   3.491   2.260  0.8227  0.7649  0.1042
 3467TIP3   OH210364   4.255   2.104   5.775  0.5428  0.0586  0.0880
 3467TIP3    H110365   4.319   2.174   5.760 -1.0934  1.6759  0.2995
 3467TIP3    H210366   4.194   2.142   5.838 -1.1475 -1.0802 -0.8080
 3468TIP3   OH210367   6.196   2.548   2.196 -1.0165 -0.0760  0.5204
 3468TIP3    H110368   6.202   2.544   2.291 -1.0598 -2.3127  0.4773
 3468TIP3    H210369   6.259   2.616   2.171 -0.3713 -0.0570  2.0869
 3469TIP3   OH210370   6.798   5.416   1.237 -0.3696  0.2890  0.0799
 3469TIP3    H110371   6.728   5.393   1.177  0.7472 -2.5042 -0.2878
 3469TIP3    H210372   6.776   5.370   1.318  1.3246 -1.2702 -0.2738
 3470TIP3   OH210373   6.616   4.664   5.511  0.2248 -0.0338 -0.7173
 3470TIP3    H110374   6.574   4.672   5.596  1.4809 -2.9979  0.3064
 3470TIP3    H210375   6.559   4.605   5.461 -0.3673  1.4746 -1.9132
 3471TIP3   OH210376   1.965   4.240   0.342 -0.4984 -0.4512  0.0482
 3471TIP3    H110377   1.922   4.182   0.405 -0.6170 -0.5705 -0.1413
 3471TIP3    H210378   1.926   4.326   0.358 -2.0296 -0.8584 -1.2217
 3472TIP3   OH210379   2.551   1.954   5.663  0.0187 -0.4683  0.3510
 3472TIP3    H110380   2.579   1.994   5.745 -0.5452  2.0908 -0.6151
 3472TIP3    H210381   2.456   1.948   5.670 -0.0333 -0.2380 -0.1070
 3473TIP3   OH210382   1.787   2.410   0.503 -0.2247  0.4338 -0.1415
 3473TIP3    H110383   1.738   2.414   0.585 -1.3739 -0.4691 -0.7570
 3473TIP3    H210384   1.767   2.492   0.459 -2.3557 -0.4390 -0.9789
 3474TIP3   OH210385   3.640   5.563   2.720  0.4457 -0.4427  0.0823
 3474TIP3    H110386   3.578   5.594   2.654 -1.4623  0.4353  2.1811
 3474TIP3    H210387   3.701   5.635   2.732 -0.7022  0.4065  1.0163
 3475TIP3   OH210388   3.594   4.058   2.001  0.1860  0.2381  0.6460
 3475TIP3    H110389   3.683   4.057   1.965 -0.0749 -0.7445 -0.0212
 3475TIP3    H210390   3.597   3.995   2.073 -0.5474 -1.6621 -0.9183
 3476TIP3   OH210391   5.503   3.557   4.256 -0.3240 -0.2124  0.3516
 3476TIP3    H110392   5.553   3.637   4.245  0.4026 -0.5962  0.7925
 3476TIP3    H210393   5.454   3.570   4.337 -1.3481  0.3675 -0.3438
 3477TIP3   OH210394   6.644   6.682   2.820  0.0174 -0.4860  0.1962
 3477TIP3    H110395   6.731   6.718   2.835  0.4402 -1.7280  0.9286
 3477TIP3    H210396   6.608   6.668   2.908 -0.1968 -1.6196 -0.0434
 3478TIP3   OH210397   6.065   5.564   1.470  0.2980  0.2319 -0.2548
 3478TIP3    H110398   5.975   5.531   1.479  0.2127  0.2565 -0.9684
 3478TIP3    H210399   6.109   5.497   1.418 -0.0964  1.5889 -2.4490
 3479TIP3   OH210400   1.973   0.251   4.704 -0.2162 -0.0726  0.4447
 3479TIP3    H110401   1.985   0.340   4.738  0.3021 -0.9001  2.5757
 3479TIP3    H210402   1.945   0.264   4.613 -1.5905  2.2810  1.1166
 3480TIP3   OH210403   4.978   1.163   5.134 -0.5052  0.4870  0.0343
 3480TIP3    H110404   5.003   1.097   5.197  0.2956  0.2593 -0.5085
 3480TIP3    H210405   5.016   1.134   5.051  2.2189  2.9476  0.2780
 3481TIP3   OH210406   1.222   5.402   4.237 -0.5683  0.0674  0.2888
 3481TIP3    H110407   1.259   5.490   4.230  2.3118 -1.1427 -1.5088
 3481TIP3    H210408   1.266   5.363   4.313  0.0380 -0.5960 -0.3895
 3482TIP3   OH210409   5.623   3.942   1.003 -0.4171  0.7394 -0.3208
 3482TIP3    H110410   5.711   3.969   1.029 -0.1547 -1.3500  1.1359
 3482TIP3    H210411   5.568   3.962   1.078 -0.8471  0.3751 -0.5313
 3483TIP3   OH210412   2.890   5.751   0.802  0.1921  0.2705 -0.1510
 3483TIP3    H110413   2.818   5.779   0.745  0.6907  0.7215 -0.5736
 3483TIP3    H210414   2.965   5.802   0.772  0.9845 -1.0654 -0.5222
 3484TIP3   OH210415   4.587   6.698   5.588  0.0397 -0.2314 -0.0504
 3484TIP3    H110416   4.515   6.640   5.564  0.9160 -1.0611 -0.7635
 3484TIP3    H210417   4.553   6.786   5.576 -1.2946 -0.5791  0.9623
 3485TIP3   OH210418   6.988   2.028   1.424 -0.2622 -0.3906 -0.3793
 3485TIP3    H110419   6.966   1.946   1.469  2.4548 -0.0390  1.8679
 3485TIP3    H210420   7.018   2.001   1.338  0.8115 -1.8717  0.4074
 3486TIP3   OH210421   6.826   2.380   5.663 -0.9476  0.1157  0.2831
 3486TIP3    H110422   6.802   2.404   5.752  0.7852  2.5262  0.1895
 3486TIP3    H210423   6.774   2.437   5.607  0.5980  1.2191 -0.0835
 3487TIP3   OH210424   4.445   4.917   5.889  0.5734 -0.4446  0.5513
 3487TIP3    H110425   4.466   4.867   5.809 -0.1380  0.7816 -0.4428
 3487TIP3    H210426   4.362   4.961   5.868 -0.7647 -1.7326  2.7501
 3488TIP3   OH210427   5.984   6.266   3.872 -0.0911 -0.3235  0.0536
 3488TIP3    H110428   6.041   6.341   3.851  1.4078 -1.1879  0.8665
 3488TIP3    H210429   5.998   6.205   3.799 -0.0822 -0.4636  0.1710
 3489TIP3   OH210430   1.593   6.286   3.200 -1.0600 -0.0216  0.5819
 3489TIP3    H110431   1.616   6.377   3.219  0.0182 -0.2935  0.6287
 3489TIP3    H210432   1.671   6.236   3.222 -0.5539 -0.6473 -2.2717
 3490TIP3   OH210433   1.371   0.603   1.937 -0.1951  0.2741  0.1929
 3490TIP3    H110434   1.293   0.648   1.969  0.3844  0.6145  1.1694
 3490TIP3    H210435   1.361   0.602   1.842 -1.4311  0.2240  0.3051
 3491TIP3   OH210436   1.665   2.449   1.633  0.5412  0.2386 -0.1154
 3491TIP3    H110437   1.571   2.463   1.647  0.4733  0.2571 -0.5870
 3491TIP3    H210438   1.670   2.407   1.547  1.0580  1.3831 -0.6540
 3492TIP3   OH210439   6.738   4.880   0.009  0.1552  0.1489 -0.0363
 3492TIP3    H110440   6.786   4.809  -0.032 -0.6790  0.1002 -0.9744
 3492TIP3    H210441   6.771   4.884   0.099  2.8722  0.9929 -0.9808
 3493TIP3   OH210442   1.221   3.441  -0.005  0.4782  0.2164  0.1434
 3493TIP3    H110443   1.263   3.492   0.063  0.3471  0.2407  0.2073
 3493TIP3    H210444   1.269   3.358  -0.007  1.2660  0.6720 -0.5671
 3494TIP3   OH210445   5.705   4.999   2.132  0.4848  0.4861  0.0276
 3494TIP3    H110446   5.773   4.963   2.075  2.0769 -0.3696  2.3057
 3494TIP3    H210447   5.726   5.092   2.140  1.0678  0.3323  0.2923
 3495TIP3   OH210448   3.914   1.301   2.807  0.6708  0.0347 -0.3812
 3495TIP3    H110449   3.960   1.358   2.745  1.4806 -1.0996 -0.8613
 3495TIP3    H210450   3.973   1.295   2.882  0.5156 -0.0576 -0.2653
 3496TIP3   OH210451   6.600   1.168   0.686 -0.5010 -0.1776 -0.0717
 3496TIP3    H110452   6.566   1.110   0.619  0.7972 -1.2770  0.2011
 3496TIP3    H210453   6.542   1.155   0.761 -0.7114 -0.4801 -0.2885
 3497TIP3   OH210454   6.738   2.890   5.683  0.2760  0.3274  0.0194
 3497TIP3    H110455   6.758   2.836   5.759  1.8260  1.6816  0.6278
 3497TIP3    H210456   6.738   2.980   5.716 -2.4980  0.7667 -0.9154
 3498TIP3   OH210457   3.041   5.080   1.079  0.1196 -0.0168 -0.6931
 3498TIP3    H110458   3.106   5.035   1.025 -0.4184 -1.3449 -0.2920
 3498TIP3    H210459   3.089   5.149   1.123  1.4582 -1.4689  0.2282
 3499TIP3   OH210460   1.582   5.877   0.014  0.0305 -0.6364 -0.2433
 3499TIP3    H110461   1.495   5.889   0.053  0.0872 -1.6359  0.2116
 3499TIP3    H210462   1.628   5.821   0.075  1.6947  1.4242  0.5174
 3500TIP3   OH210463   2.561   1.107   2.948  0.7191  0.1720  0.2502
 3500TIP3    H110464   2.604   1.041   3.002 -1.2090 -0.3365  1.2199
 3500TIP3    H210465   2.583   1.082   2.858  0.6221 -1.3774  0.6268
 3501TIP3   OH210466   2.314   1.837   5.499 -0.2644 -0.1731  0.4837
 3501TIP3    H110467   2.284   1.895   5.569  0.4660  2.0854 -0.9784
 3501TIP3    H210468   2.328   1.753   5.542 -4.2645 -0.2262  2.1381
 3502TIP3   OH210469   5.112   1.495   0.128 -0.1757  0.2924 -0.2662
 3502TIP3    H110470   5.047   1.440   0.172 -1.2541  0.0160 -2.1329
 3502TIP3    H210471   5.108   1.469   0.036  1.5248  1.3283 -0.6754
 3503TIP3   OH210472   6.769   2.338   4.754 -0.1221 -0.4233  0.5057
 3503TIP3    H110473   6.831   2.372   4.690  0.5466  1.3711  2.0200
 3503TIP3    H210474   6.814   2.264   4.796 -0.8083 -2.0313 -1.4229
 3504TIP3   OH210475   1.153   4.672   4.006 -0.4411  0.3514  0.5887
 3504TIP3    H110476   1.180   4.580   4.003 -0.7902  0.2650  0.0756
 3504TIP3    H210477   1.060   4.669   4.029 -0.4199  0.5839  0.7090
 3505TIP3   OH210478   6.849   4.122   4.514  0.0970 -0.3994 -0.6885
 3505TIP3    H110479   6.773   4.149   4.463  0.8334  2.8637 -0.2851
 3505TIP3    H210480   6.818   4.122   4.605  0.5312  1.0659 -0.5099
 3506TIP3   OH210481   3.508   6.039   5.225  0.3241 -0.0850  0.1068
 3506TIP3    H110482   3.578   5.992   5.270  1.0668  1.6486  0.8014
 3506TIP3    H210483   3.542   6.052   5.136 -0.2233 -1.5287 -0.3426
 3507TIP3   OH210484   7.191   5.673   1.872 -0.0442  0.4896 -0.0749
 3507TIP3    H110485   7.265   5.654   1.929  0.7987  1.5112 -0.7752
 3507TIP3    H210486   7.113   5.661   1.927  0.5926 -1.2274  0.4980
 3508TIP3   OH210487   0.921   1.372   0.896 -0.1447  0.4888 -0.3384
 3508TIP3    H110488   0.978   1.360   0.971 -1.8859 -0.1233  0.9533
 3508TIP3    H210489   0.923   1.467   0.880  0.6499  0.5602  0.1321
 3509TIP3   OH210490   1.839   3.483   4.902  0.2468  0.2926 -0.1674
 3509TIP3    H110491   1.784   3.522   4.970 -0.4048 -0.8157 -0.0405
 3509TIP3    H210492   1.925   3.472   4.944 -0.4885 -1.5723  0.9324
 3510TIP3   OH210493   0.109   0.257   0.536 -0.0571 -0.3944  0.3681
 3510TIP3    H110494   0.086   0.350   0.528  0.0318 -0.4230 -0.3042
 3510TIP3    H210495   0.057   0.213   0.468  0.5619 -0.7107  0.0856
 3511TIP3   OH210496   0.507   1.164   1.353  0.2713 -0.5139  0.2490
 3511TIP3    H110497   0.438   1.196   1.411  1.5690  0.3642  1.3706
 3511TIP3    H210498   0.537   1.242   1.306  1.4333 -0.6166  0.7929
 3512TIP3   OH210499   5.470   0.313   1.129 -0.0532  0.1163  0.0868
 3512TIP3    H110500   5.529   0.282   1.060  2.5422  1.6574  1.4431
 3512TIP3    H210501   5.502   0.270   1.208 -0.7195  1.0214  0.8607
 3513TIP3   OH210502   6.933   1.155   0.274 -0.3268 -0.8577 -0.0238
 3513TIP3    H110503   6.869   1.226   0.264  0.1135 -0.3475  0.6591
 3513TIP3    H210504   6.983   1.157   0.193 -1.3024 -1.4058 -0.6631
 3514TIP3   OH210505   6.996   1.627   3.260  1.1321 -0.2451  0.1370
 3514TIP3    H110506   6.948   1.574   3.323  1.4199 -0.6229  0.0456
 3514TIP3    H210507   7.088   1.605   3.276  1.1515 -1.2785 -1.2126
 3515TIP3   OH210508   1.080   2.416   2.879  0.0754  0.1113  0.0099
 3515TIP3    H110509   1.065   2.503   2.841  1.3628  0.9730  1.3720
 3515TIP3    H210510   1.081   2.357   2.804 -1.2884  1.1862 -0.9081
 3516TIP3   OH210511   3.087   2.807   2.875 -0.7772  0.1252  0.4302
 3516TIP3    H110512   3.106   2.731   2.931 -0.0052  0.8458  1.1703
 3516TIP3    H210513   3.153   2.872   2.899 -1.1603  0.8858 -0.5011
 3517TIP3   OH210514   4.259   5.700   1.676  0.3833 -0.1001  0.4582
 3517TIP3    H110515   4.283   5.766   1.741 -0.5136 -0.6291  1.3644
 3517TIP3    H210516   4.282   5.739   1.592  1.4610  0.6514  1.0752
 3518TIP3   OH210517   3.274   2.501   5.473 -0.5084 -0.8555 -0.1380
 3518TIP3    H110518   3.272   2.408   5.496  1.2000 -0.8916 -0.0573
 3518TIP3    H210519   3.204   2.539   5.525  0.6715 -1.6169  2.1475
 3519TIP3   OH210520   2.064   0.055   2.854 -0.1307  0.2036 -0.0660
 3519TIP3    H110521   2.053   0.111   2.931  1.2605 -1.9396  1.8307
 3519TIP3    H210522   2.123   0.104   2.797 -0.0786  1.2538  0.8575
 3520TIP3   OH210523   4.423   5.559   2.251 -0.2837 -0.4324  0.1741
 3520TIP3    H110524   4.449   5.577   2.161 -1.2552 -1.0703 -0.2574
 3520TIP3    H210525   4.504   5.564   2.301  0.5527 -1.6001 -0.9831
 3521TIP3   OH210526   5.315   0.411   3.645  0.0731 -0.4484  0.0284
 3521TIP3    H110527   5.224   0.407   3.616  0.1480  0.6195 -0.3992
 3521TIP3    H210528   5.359   0.338   3.601 -0.4673 -0.6737 -0.1357
 3522TIP3   OH210529   0.812   2.883   1.766 -0.2560  0.1552 -0.2415
 3522TIP3    H110530   0.884   2.820   1.769  0.5475  1.0511  1.3259
 3522TIP3    H210531   0.741   2.838   1.721 -0.2972 -2.5056  2.1586
 3523TIP3   OH210532   5.699   4.210   0.369 -0.0166  0.1123  0.5257
 3523TIP3    H110533   5.719   4.117   0.383  0.8743  0.3782  1.0732
 3523TIP3    H210534   5.784   4.253   0.367 -0.2866  0.6840 -1.6747
 3524TIP3   OH210535   6.115   3.673   3.350 -0.5009 -0.4345  0.0920
 3524TIP3    H110536   6.174   3.711   3.414 -1.9542  0.2068  1.0790
 3524TIP3    H210537   6.133   3.721   3.269 -0.5814  0.6470  0.7080
 3525TIP3   OH210538   1.974   0.844   3.174  0.1403  0.7819  0.6530
 3525TIP3    H110539   2.008   0.925   3.135  0.4558  1.3227  2.0182
 3525TIP3    H210540   1.889   0.831   3.132  0.0335  1.8811  0.5002
 3526TIP3   OH210541   3.025   6.521   1.739 -0.0462  0.1605 -0.0375
 3526TIP3    H110542   3.014   6.530   1.644  0.1341  0.7766  0.0019
 3526TIP3    H210543   2.945   6.558   1.776 -0.3891 -0.6201  0.0406
 3527TIP3   OH210544   0.380   6.507   3.799  0.3997 -0.1856 -0.1657
 3527TIP3    H110545   0.467   6.471   3.819  1.8258  3.0506  0.1796
 3527TIP3    H210546   0.372   6.583   3.856 -2.4975 -0.0698 -0.5865
 3528TIP3   OH210547   5.549   4.770   2.178  0.5610 -0.1360 -0.0736
 3528TIP3    H110548   5.493   4.801   2.249 -0.6128  0.1702 -1.0872
 3528TIP3    H210549   5.595   4.848   2.148 -1.0047  0.3198 -1.4118
 3529TIP3   OH210550   6.116   1.599   3.532  0.2379  0.1007 -0.8110
 3529TIP3    H110551   6.197   1.638   3.564 -0.5674 -0.0665  1.6409
 3529TIP3    H210552   6.128   1.505   3.544 -0.8307  0.1537  1.0500
 3530TIP3   OH210553   2.600   1.791   5.445 -0.0840 -0.1986  0.5641
 3530TIP3    H110554   2.610   1.835   5.529 -1.2477 -0.4086  0.8370
 3530TIP3    H210555   2.510   1.812   5.417  0.7679  1.1467 -1.3836
 3531TIP3   OH210556   0.386   0.938   3.813  0.7038  0.0518  0.5234
 3531TIP3    H110557   0.366   0.978   3.728  1.9436  1.1280  0.7072
 3531TIP3    H210558   0.300   0.925   3.853 -0.0427 -2.1738 -1.5840
 3532TIP3   OH210559   6.755   0.406   5.647 -0.1806 -0.1517 -0.1141
 3532TIP3    H110560   6.770   0.415   5.553  0.4453 -1.0948 -0.1182
 3532TIP3    H210561   6.842   0.388   5.683 -0.4846 -0.2514  0.5825
 3533TIP3   OH210562   5.000   6.068   5.228  0.4975 -0.2433 -0.2657
 3533TIP3    H110563   4.967   6.036   5.312  0.6925 -1.7608 -0.7289
 3533TIP3    H210564   4.980   6.162   5.228 -1.8974 -0.6822  0.3734
 3534TIP3   OH210565   1.173   5.077   2.553  0.2783  0.3044 -0.1058
 3534TIP3    H110566   1.156   5.017   2.626  0.6007 -0.7298 -0.8530
 3534TIP3    H210567   1.266   5.097   2.560  1.0260 -2.0695 -1.8147
 3535TIP3   OH210568   3.611   1.879   0.765 -0.8368  0.6366 -0.2883
 3535TIP3    H110569   3.540   1.836   0.718 -1.4598  0.6526  0.6283
 3535TIP3    H210570   3.569   1.921   0.839  0.2779 -0.4666  1.0271
 3536TIP3   OH210571   4.838   3.418   5.565 -0.4961  0.0271  0.0694
 3536TIP3    H110572   4.924   3.413   5.608 -0.3599  0.5259 -0.1429
 3536TIP3    H210573   4.846   3.360   5.489  0.1929  1.3139 -0.8689
 3537TIP3   OH210574   1.087   0.073   1.388  0.8745 -0.0432  0.1016
 3537TIP3    H110575   1.115   0.027   1.308  0.3727  0.5106 -0.4030
 3537TIP3    H210576   0.991   0.063   1.388  0.8615  0.0858  0.5611
 3538TIP3   OH210577   4.181   6.239   2.237  0.2680  0.0550 -0.0198
 3538TIP3    H110578   4.271   6.207   2.246  0.6161  1.1772  0.6305
 3538TIP3    H210579   4.154   6.262   2.326 -1.0968 -1.3348 -0.0205
 3539TIP3   OH210580   5.818   3.332   0.664  0.0715  0.0031  0.2198
 3539TIP3    H110581   5.734   3.375   0.676  0.2094  0.0643  1.0823
 3539TIP3    H210582   5.882   3.402   0.674  0.2058  0.0621 -1.0224
 3540TIP3   OH210583   1.871   0.360   5.782 -0.2948 -0.4559 -0.0739
 3540TIP3    H110584   1.858   0.412   5.862 -1.7342  1.3359 -1.3559
 3540TIP3    H210585   1.846   0.271   5.807  0.2910 -0.1635  1.7146
 3541TIP3   OH210586   0.133   1.352   1.759  0.2754 -0.0648 -0.2797
 3541TIP3    H110587   0.221   1.382   1.733  0.1833  0.6539  0.2206
 3541TIP3    H210588   0.079   1.431   1.757 -0.3002 -0.4540 -0.3047
 3542TIP3   OH210589   2.804   2.629   2.299 -0.4888 -0.0384 -0.2057
 3542TIP3    H110590   2.797   2.723   2.318 -0.9160 -0.2260  0.5857
 3542TIP3    H210591   2.745   2.587   2.362  0.8135 -0.9626  0.4398
 3543TIP3   OH210592   3.994   3.986   0.063 -0.8962 -0.3569  0.6031
 3543TIP3    H110593   3.963   3.984  -0.027  1.3924  1.6485 -0.3469
 3543TIP3    H210594   3.935   4.047   0.107 -0.1288  1.1956 -0.4343
 3544TIP3   OH210595   1.731   5.893   3.274  0.6441 -0.0028 -0.2991
 3544TIP3    H110596   1.742   5.950   3.350  2.3382 -1.7136  0.8651
 3544TIP3    H210597   1.765   5.943   3.200 -0.7017  1.5655  0.1019
 3545TIP3   OH210598   0.230   0.250   1.763 -0.2678  0.3396 -0.7163
 3545TIP3    H110599   0.188   0.335   1.772 -0.3536  0.6842 -3.5971
 3545TIP3    H210600   0.159   0.187   1.771 -1.4844  0.8899 -4.8458
 3546TIP3   OH210601   4.832   4.793   4.424  0.0502 -0.0747 -0.0101
 3546TIP3    H110602   4.778   4.726   4.466 -1.3855  0.3745 -1.0227
 3546TIP3    H210603   4.911   4.747   4.397 -0.3656 -1.0729  0.4206
 3547TIP3   OH210604   6.009   5.425   5.022  0.6130  0.2068 -0.1155
 3547TIP3    H110605   6.097   5.446   4.992  0.9495 -0.4294  0.4019
 3547TIP3    H210606   5.958   5.504   5.006  1.3920  0.7429  0.0199
 3548TIP3   OH210607   4.518   5.044   4.062  0.1987  0.3668  0.5400
 3548TIP3    H110608   4.570   5.029   4.140 -0.2146 -0.5180  0.6659
 3548TIP3    H210609   4.427   5.037   4.092 -0.1523  3.9295  0.7473
 3549TIP3   OH210610   6.014   4.725   4.538  0.0343  0.0013 -0.5808
 3549TIP3    H110611   5.938   4.667   4.539 -0.9407  1.2483 -0.6587
 3549TIP3    H210612   5.994   4.792   4.604  1.1351  0.2683 -0.4942
 3550TIP3   OH210613   1.027   5.898   1.073 -0.4585  0.0508  0.4538
 3550TIP3    H110614   0.963   5.911   1.003  1.4526 -0.4655 -1.4619
 3550TIP3    H210615   1.101   5.854   1.032  1.3451  0.9737  2.4721
 3551TIP3   OH210616   0.349   3.182   3.578  0.4177  0.5534 -0.0688
 3551TIP3    H110617   0.285   3.134   3.630 -0.0081  1.3212  0.1368
 3551TIP3    H210618   0.349   3.139   3.493  0.5987 -0.2698  0.3386
 3552TIP3   OH210619   5.849   3.681   3.298  0.0044  0.1544  0.7251
 3552TIP3    H110620   5.806   3.714   3.376  0.3227 -0.0129  0.9749
 3552TIP3    H210621   5.941   3.670   3.324  0.3526  1.2251 -0.0205
 3553TIP3   OH210622   3.629   5.307   3.910 -0.4538 -0.2872 -0.0062
 3553TIP3    H110623   3.667   5.379   3.960  1.3516 -0.9109 -0.3976
 3553TIP3    H210624   3.698   5.282   3.848 -1.4854 -1.5667 -0.6935
 3554TIP3   OH210625   6.106   1.152   0.566  0.0295  0.1961 -0.9585
 3554TIP3    H110626   6.189   1.183   0.528 -0.4775  1.7311 -0.8826
 3554TIP3    H210627   6.132   1.109   0.648  0.7629  0.5541 -0.9938
 3555TIP3   OH210628   0.219   3.421   1.578 -0.5726 -0.0024 -0.0897
 3555TIP3    H110629   0.240   3.378   1.495 -2.2130 -0.1182 -0.4670
 3555TIP3    H210630   0.289   3.394   1.638  0.3187 -0.3726 -1.2662
 3556TIP3   OH210631   2.730   1.175   2.578 -0.1447 -0.3636 -0.0039
 3556TIP3    H110632   2.660   1.213   2.632  0.8727  0.6968  0.6211
 3556TIP3    H210633   2.745   1.240   2.509  1.2203  0.1593  0.7395
 3557TIP3   OH210634   7.009   3.630   1.124 -0.4041 -0.0040  0.3016
 3557TIP3    H110635   7.074   3.651   1.191  0.1030  0.7207 -0.3982
 3557TIP3    H210636   6.975   3.544   1.150  2.9924 -1.9370 -0.8549
 3558TIP3   OH210637   3.909   6.101   4.546 -0.0578 -0.2478 -0.5530
 3558TIP3    H110638   3.897   6.030   4.483  0.9258  0.3976 -1.4972
 3558TIP3    H210639   3.836   6.160   4.531 -0.1171 -0.3644 -0.7198
 3559TIP3   OH210640   6.553   0.347   4.046  0.3245  0.2042  0.2393
 3559TIP3    H110641   6.467   0.315   4.020  0.5232 -0.3169  0.2087
 3559TIP3    H210642   6.544   0.365   4.140 -0.0368  0.8956  0.0734
 3560TIP3   OH210643   0.504   1.277   2.309 -0.1247 -0.6035 -0.2650
 3560TIP3    H110644   0.425   1.235   2.276 -0.8847  0.8630 -0.3672
 3560TIP3    H210645   0.501   1.262   2.404 -0.6209 -0.4018 -0.2464
 3561TIP3   OH210646   5.978   3.096   1.533 -0.2531 -0.2430  0.0611
 3561TIP3    H110647   5.953   3.186   1.514  1.8559  0.4319  0.1304
 3561TIP3    H210648   5.900   3.056   1.570 -1.8671  0.9303 -1.8718
 3562TIP3   OH210649   6.239   5.751   5.515 -0.7559 -0.0680 -0.2432
 3562TIP3    H110650   6.287   5.828   5.544  0.2865 -0.1416 -1.6859
 3562TIP3    H210651   6.210   5.772   5.426 -0.2751 -1.3938 -0.7423
 3563TIP3   OH210652   4.057   2.705   4.779  0.5696  0.8252  0.3195
 3563TIP3    H110653   4.068   2.762   4.703 -0.9964  1.0474  0.2222
 3563TIP3    H210654   4.039   2.765   4.851 -2.8685  0.5029 -0.1113
 3564TIP3   OH210655   4.404   5.308   5.482  0.1858 -0.7498  0.1363
 3564TIP3    H110656   4.398   5.251   5.559 -1.1297  0.9345  1.3370
 3564TIP3    H210657   4.320   5.296   5.438  0.3138 -0.4923 -0.1752
 3565TIP3   OH210658   5.137   2.567   1.179  0.4200  0.1451  0.9112
 3565TIP3    H110659   5.096   2.600   1.259 -0.7338  0.6780  0.1291
 3565TIP3    H210660   5.213   2.623   1.167  1.1047 -0.4967  2.0873
 3566TIP3   OH210661   1.648   1.578   1.623 -0.2842  0.2609  0.0980
 3566TIP3    H110662   1.704   1.567   1.700  1.1938  0.3932 -0.9272
 3566TIP3    H210663   1.685   1.518   1.558 -2.7916 -1.4563  0.1318
 3567TIP3   OH210664   5.099   0.246   5.520  0.2051 -0.4947 -0.1136
 3567TIP3    H110665   5.005   0.251   5.537  0.1343  1.5733 -0.7862
 3567TIP3    H210666   5.115   0.155   5.496 -1.8226 -0.6455 -1.0602
 3568TIP3   OH210667   0.946   3.168   5.817 -0.2845 -0.0055  0.0515
 3568TIP3    H110668   0.959   3.147   5.725 -1.6043  0.1520 -0.1841
 3568TIP3    H210669   1.003   3.243   5.833 -0.6294  0.4479 -0.8341
 3569TIP3   OH210670   5.838   3.589   5.731  0.0487  0.1642 -0.1313
 3569TIP3    H110671   5.911   3.643   5.762  1.6983 -1.8400 -0.3630
 3569TIP3    H210672   5.820   3.621   5.643  0.0200  1.2360  0.2385
 3570TIP3   OH210673   2.108   3.055   4.196  0.4895  0.5022  0.0154
 3570TIP3    H110674   2.193   3.084   4.162 -0.4560  0.3766 -2.7099
 3570TIP3    H210675   2.062   3.135   4.219  0.3865  0.7853 -1.0976
 3571TIP3   OH210676   2.246   6.568   2.189 -0.3173  0.1269  0.1788
 3571TIP3    H110677   2.318   6.545   2.248  0.2181  0.2967 -0.3963
 3571TIP3    H210678   2.177   6.506   2.211 -0.6883  1.1049  1.9949
 3572TIP3   OH210679   5.212   6.763   3.966 -0.5687 -0.1462  0.1907
 3572TIP3    H110680   5.208   6.721   4.052  0.8400 -1.8929 -0.5233
 3572TIP3    H210681   5.306   6.773   3.948 -0.8475  0.9690 -0.7875
 3573TIP3   OH210682   3.184   0.316   5.208  0.2227 -0.5144 -0.2996
 3573TIP3    H110683   3.183   0.383   5.277  0.7213  1.0676 -1.7568
 3573TIP3    H210684   3.140   0.241   5.248 -1.3117  1.0062  1.0895
 3574TIP3   OH210685   2.109   1.000   2.069  0.1089  0.0657 -0.1029
 3574TIP3    H110686   2.051   1.074   2.051 -1.5815 -1.5355 -1.6460
 3574TIP3    H210687   2.077   0.964   2.152  3.0231  2.8463  2.5215
 3575TIP3   OH210688   1.638   5.983   3.928  0.0886  0.2332  0.4128
 3575TIP3    H110689   1.571   5.921   3.896  1.0692 -0.4806 -0.3417
 3575TIP3    H210690   1.664   5.949   4.013 -1.5303  1.3445  1.3973
 3576TIP3   OH210691   3.479   5.520   4.051  0.3072  0.0656  0.4155
 3576TIP3    H110692   3.462   5.442   3.999  2.2051  0.2984 -0.6562
 3576TIP3    H210693   3.472   5.593   3.989 -1.8734  0.8640  1.4856
 3577TIP3   OH210694   1.083   6.753   4.882 -0.1558  0.4229 -0.1150
 3577TIP3    H110695   1.029   6.729   4.808 -1.9047  2.7607  0.2659
 3577TIP3    H210696   1.026   6.743   4.958  0.4452  1.3489  0.4897
 3578TIP3   OH210697   3.826   2.601   1.426  0.2698 -0.4646 -0.7936
 3578TIP3    H110698   3.753   2.660   1.446  0.5804 -0.3074 -0.0982
 3578TIP3    H210699   3.848   2.560   1.510  0.1088 -1.5262 -1.2560
 3579TIP3   OH210700   3.922   3.361   3.516 -0.1774  0.4144  0.2720
 3579TIP3    H110701   4.017   3.345   3.518 -0.0915  0.7421 -0.6854
 3579TIP3    H210702   3.884   3.279   3.547  0.3424 -0.8400 -2.1076
 3580TIP3   OH210703   6.171   3.757   1.546  0.2668 -0.3143  0.7431
 3580TIP3    H110704   6.161   3.852   1.547  2.0870 -0.0374  2.9140
 3580TIP3    H210705   6.101   3.725   1.602 -0.1114 -0.2241  0.3258
 3581TIP3   OH210706   5.691   4.669   5.536  0.1488 -0.0511  0.2555
 3581TIP3    H110707   5.608   4.710   5.562  0.0589 -1.1182  1.8211
 3581TIP3    H210708   5.736   4.652   5.619  1.4816 -0.4240 -0.5164
 3582TIP3   OH210709   3.455   6.381   4.129  1.0503 -0.0622 -0.4689
 3582TIP3    H110710   3.483   6.447   4.193 -1.2299  0.8712 -0.3598
 3582TIP3    H210711   3.534   6.364   4.077  2.7640 -0.2319  1.9807
 3583TIP3   OH210712   0.902   3.802   0.497 -0.0575 -0.6853 -0.3282
 3583TIP3    H110713   0.981   3.856   0.488 -0.4901 -0.0843 -0.6293
 3583TIP3    H210714   0.830   3.861   0.473 -0.6369 -1.1040  0.3231
 3584TIP3   OH210715   4.146   2.126   3.827 -0.2733  0.2333 -0.1269
 3584TIP3    H110716   4.108   2.165   3.748  0.7809 -0.1707 -0.8623
 3584TIP3    H210717   4.098   2.044   3.838 -1.4043  0.9588  0.5019
 3585TIP3   OH210718   1.563   0.789   1.353  0.4897 -0.2375 -0.1339
 3585TIP3    H110719   1.484   0.736   1.345 -0.4030  0.7767  1.3972
 3585TIP3    H210720   1.628   0.730   1.389  0.2421 -0.9187 -0.7892
 3586TIP3   OH210721   5.155   5.106   3.381 -0.5068  0.4935 -0.1786
 3586TIP3    H110722   5.212   5.182   3.374 -0.6177  0.4524 -1.7419
 3586TIP3    H210723   5.215   5.031   3.386 -0.3759  0.6568  2.0055
 3587TIP3   OH210724   1.589   0.134   2.212 -0.1519  0.6386 -0.4475
 3587TIP3    H110725   1.653   0.183   2.263  1.1420 -0.2847 -1.1109
 3587TIP3    H210726   1.520   0.197   2.193  0.0328  1.3855  1.1799
 3588TIP3   OH210727   6.959   6.523   0.196 -0.3882 -0.7572 -0.1867
 3588TIP3    H110728   6.880   6.561   0.157  0.2137 -0.4276 -1.1432
 3588TIP3    H210729   6.998   6.472   0.125 -0.3988 -1.9505  0.6511
 3589TIP3   OH210730   0.521   1.989   1.732  0.1311 -0.2028 -0.3349
 3589TIP3    H110731   0.596   1.935   1.757  0.3916  0.1447 -0.3484
 3589TIP3    H210732   0.473   2.001   1.814  1.7371  2.1032  0.4006
 3590TIP3   OH210733   2.516   1.141   1.783 -0.7896  0.5119  0.0657
 3590TIP3    H110734   2.491   1.123   1.873  0.7694  0.4958  0.5347
 3590TIP3    H210735   2.441   1.187   1.745 -2.4185 -1.5474  0.6419
 3591TIP3   OH210736   5.697   1.014   0.478  0.2627  0.2053 -0.4042
 3591TIP3    H110737   5.778   1.035   0.432  1.1450 -0.0890  0.9532
 3591TIP3    H210738   5.718   0.934   0.527 -1.2778 -0.6559 -1.0888
 3592TIP3   OH210739   1.227   6.262   0.910 -0.5413 -0.6608  0.0005
 3592TIP3    H110740   1.299   6.324   0.902 -0.5062 -0.6510  0.3742
 3592TIP3    H210741   1.266   6.185   0.952 -0.9498 -0.2879  1.1132
 3593TIP3   OH210742   1.194   0.270   1.211 -0.3229  0.0744 -0.0183
 3593TIP3    H110743   1.183   0.249   1.119  0.9173 -1.5702  0.1566
 3593TIP3    H210744   1.109   0.252   1.251 -0.3620 -0.9666 -0.5549
 3594TIP3   OH210745   1.234   6.045   2.966  0.5575 -0.2816 -0.3200
 3594TIP3    H110746   1.165   5.979   2.979 -0.9355  1.1378 -0.7118
 3594TIP3    H210747   1.231   6.064   2.873  1.3095  0.0010 -0.2907
 3595TIP3   OH210748   4.080   5.337  -0.008  0.1184  0.0631 -0.5555
 3595TIP3    H110749   4.115   5.426   0.003  1.1347 -0.4833  0.7999
 3595TIP3    H210750   4.069   5.304   0.081 -0.5982 -1.0612 -1.0406
 3596TIP3   OH210751   0.636   1.471   1.654  0.5474 -0.4949  0.5507
 3596TIP3    H110752   0.562   1.437   1.704 -0.0562 -1.2234 -0.7853
 3596TIP3    H210753   0.607   1.468   1.563  1.8171  0.2631  0.0929
 3597TIP3   OH210754   1.900   0.704   3.493  0.0247 -0.0275 -0.3379
 3597TIP3    H110755   1.859   0.787   3.516  0.8975 -0.0297  1.4013
 3597TIP3    H210756   1.935   0.671   3.576 -0.1834 -2.0691 -1.0070
 3598TIP3   OH210757   1.917   5.097   5.664  0.2550 -0.7599 -0.9437
 3598TIP3    H110758   1.973   5.022   5.644  1.4210 -0.1459 -0.1109
 3598TIP3    H210759   1.874   5.074   5.747 -0.0816 -0.8805 -1.1511
 3599TIP3   OH210760   0.665   2.643   0.854 -0.0525 -0.1186 -0.5784
 3599TIP3    H110761   0.599   2.656   0.786 -0.9225 -0.5168  0.1819
 3599TIP3    H210762   0.741   2.609   0.806 -0.5623 -0.1437 -1.3930
 3600TIP3   OH210763   4.061   1.487   5.896 -0.6967 -0.0996 -0.0969
 3600TIP3    H110764   4.049   1.409   5.841  1.3797  0.4862 -1.4860
 3600TIP3    H210765   4.156   1.499   5.902 -0.9440  2.4875 -0.1911
 3601TIP3   OH210766   0.700   4.593   4.538 -0.0506  0.2350 -0.2866
 3601TIP3    H110767   0.616   4.559   4.567  0.5598 -0.5758  0.6031
 3601TIP3    H210768   0.709   4.677   4.583 -0.6093  0.5917 -0.8155
 3602TIP3   OH210769   6.062   0.923   1.966  0.1777 -0.5413 -0.3123
 3602TIP3    H110770   6.013   0.860   2.018  1.7467  0.2021  2.2586
 3602TIP3    H210771   6.140   0.874   1.938  1.3568  0.0879  1.6183
 3603TIP3   OH210772   6.688   1.165   3.053 -0.1263  0.0626  0.7907
 3603TIP3    H110773   6.632   1.101   3.010 -1.0188  1.0278  0.4481
 3603TIP3    H210774   6.734   1.209   2.981 -0.4976  0.6634  0.9045
 3604TIP3   OH210775   0.147   0.562   0.766  0.4460  0.1809  0.2171
 3604TIP3    H110776   0.196   0.496   0.815  0.4350 -0.0128 -0.0322
 3604TIP3    H210777   0.107   0.514   0.694  0.6574  0.5011 -0.1226
 3605TIP3   OH210778   4.340   5.895   2.391  0.1850  0.3748 -0.4019
 3605TIP3    H110779   4.268   5.930   2.444 -0.8052  0.6216 -1.8395
 3605TIP3    H210780   4.396   5.850   2.454  0.8951  3.4310  1.4010
 3606TIP3   OH210781   1.680   2.519   4.312 -0.1217 -0.6433  0.0342
 3606TIP3    H110782   1.673   2.609   4.281  0.5850  0.1119  1.8899
 3606TIP3    H210783   1.596   2.502   4.355 -0.2797 -0.9055 -0.3721
 3607TIP3   OH210784   4.496   1.015   4.219 -0.5985  0.1533  0.6625
 3607TIP3    H110785   4.521   1.015   4.127  1.0808 -0.5284  1.0763
 3607TIP3    H210786   4.411   1.059   4.221 -1.8782 -1.9322 -1.5064
 3608TIP3   OH210787   6.778   2.924   5.174  0.3843  0.1222 -0.5392
 3608TIP3    H110788   6.775   2.872   5.255  1.9389 -2.1416 -1.7892
 3608TIP3    H210789   6.855   2.980   5.184  1.0774 -0.7693 -0.7394
 3609TIP3   OH210790   2.672   4.738   5.383 -0.2020  0.7546 -0.7068
 3609TIP3    H110791   2.626   4.736   5.299 -0.9264  0.6677 -0.3106
 3609TIP3    H210792   2.744   4.675   5.373 -2.8033 -2.6266  0.1795
 3610TIP3   OH210793   0.299   2.916   2.786  1.0304  0.6321 -0.0938
 3610TIP3    H110794   0.282   2.944   2.696 -1.1578 -1.2743 -0.3718
 3610TIP3    H210795   0.340   2.831   2.777 -0.0007  0.0274  0.6675
 3611TIP3   OH210796   2.122   5.487   1.158  0.5357  0.4637 -0.0815
 3611TIP3    H110797   2.066   5.445   1.224  0.3215 -0.1833 -0.6649
 3611TIP3    H210798   2.180   5.417   1.128 -0.3422  0.3645 -1.6256
 3612TIP3   OH210799   5.589   1.718   0.761  0.6851  0.0430  0.1700
 3612TIP3    H110800   5.682   1.719   0.783  0.8857  3.0561 -0.3910
 3612TIP3    H210801   5.554   1.799   0.799 -1.8479 -1.2232  0.7489
 3613TIP3   OH210802   4.431   6.147   2.278 -0.0319  0.3788 -0.2998
 3613TIP3    H110803   4.509   6.138   2.224 -0.7124  0.7018 -1.3735
 3613TIP3    H210804   4.417   6.059   2.315  0.0651 -0.0258 -1.2007
 3614TIP3   OH210805   4.576   1.422   3.761 -0.2959  0.0949 -0.1871
 3614TIP3    H110806   4.484   1.428   3.786  0.2222  0.6621  1.7085
 3614TIP3    H210807   4.620   1.487   3.815  1.5238 -1.5363  0.4047
 3615TIP3   OH210808   4.864   5.259   5.296  0.2499  0.0902 -0.4541
 3615TIP3    H110809   4.906   5.305   5.369 -0.6008  1.8319 -1.0014
 3615TIP3    H210810   4.889   5.167   5.307  1.3693  0.5545  1.1515
 3616TIP3   OH210811   7.033   0.278   3.563 -0.1330  0.0163 -0.3472
 3616TIP3    H110812   7.054   0.186   3.579  1.8725  0.4765 -0.0955
 3616TIP3    H210813   6.964   0.276   3.497  0.3868 -1.6582 -0.8795
 3617TIP3   OH210814   1.745   1.731   0.355  0.0928  0.1792 -0.0699
 3617TIP3    H110815   1.824   1.679   0.340  0.3207  0.3677  0.4647
 3617TIP3    H210816   1.745   1.749   0.449 -0.2657  0.6939 -0.1624
 3618TIP3   OH210817   1.055   4.414   2.755  0.3615  0.3923 -0.4240
 3618TIP3    H110818   0.972   4.412   2.707  0.8904 -3.0293 -1.4728
 3618TIP3    H210819   1.116   4.459   2.696 -0.0995  0.3860 -0.9085
 3619TIP3   OH210820   5.569   1.399   5.247 -0.3675  0.2485 -0.1220
 3619TIP3    H110821   5.664   1.396   5.261 -0.4497 -0.0169  0.3974
 3619TIP3    H210822   5.555   1.344   5.169  0.0981  1.7700 -1.3222
 3620TIP3   OH210823   2.542   0.899   3.649  0.0323  0.3820 -0.2908
 3620TIP3    H110824   2.454   0.934   3.662 -0.0092  0.5409 -0.9520
 3620TIP3    H210825   2.579   0.894   3.737 -0.8225 -0.1853  0.0463
 3621TIP3   OH210826   0.757   4.766   5.339  0.3958  0.2763 -0.3558
 3621TIP3    H110827   0.662   4.753   5.341  0.1272  1.6369 -2.1325
 3621TIP3    H210828   0.785   4.719   5.260  1.3035 -0.5114  0.4072
 3622TIP3   OH210829   4.138   0.828   4.711  0.2246  0.1381  0.5941
 3622TIP3    H110830   4.172   0.780   4.786  2.3877  1.2941  0.4203
 3622TIP3    H210831   4.200   0.811   4.641  0.7090  2.5830  0.3374
 3623TIP3   OH210832   0.037   2.825   1.454  0.1311  0.2896 -0.5043
 3623TIP3    H110833   0.107   2.797   1.395  0.4069 -0.9878  0.3651
 3623TIP3    H210834   0.081   2.842   1.537 -0.4380  0.5891 -0.2582
 3624TIP3   OH210835   2.190   2.868   4.518  0.4133  0.5393 -0.1598
 3624TIP3    H110836   2.096   2.873   4.537  0.6964  1.1095  1.2150
 3624TIP3    H210837   2.211   2.953   4.479 -0.1149 -0.5354 -2.9844
 3625TIP3   OH210838   4.568   1.203   3.585  0.0478 -0.1882 -0.3749
 3625TIP3    H110839   4.588   1.286   3.629  1.4932 -0.6886 -0.0259
 3625TIP3    H210840   4.565   1.226   3.492  0.8825  0.1995 -0.3188
 3626TIP3   OH210841   2.784   6.732   3.050 -0.3547 -0.0833  0.1233
 3626TIP3    H110842   2.754   6.734   2.959  1.7362 -0.5632 -0.6221
 3626TIP3    H210843   2.778   6.640   3.076 -0.4784 -0.0245  0.3048
 3627TIP3   OH210844   0.672   6.443   0.667  0.3628 -0.0556  0.3602
 3627TIP3    H110845   0.611   6.392   0.613 -1.0453  0.8289  1.0395
 3627TIP3    H210846   0.721   6.378   0.716 -0.1228 -0.8016 -0.1299
 3628TIP3   OH210847   2.081   4.558   4.638 -0.4852  0.1425 -0.0758
 3628TIP3    H110848   2.128   4.475   4.644  1.5455  1.2077 -0.1484
 3628TIP3    H210849   2.026   4.549   4.560  0.2715 -0.8662 -0.5229
 3629TIP3   OH210850   0.095   3.999   5.425  0.1192 -0.2465  0.3060
 3629TIP3    H110851   0.054   4.074   5.468  1.7236 -0.0110  1.5250
 3629TIP3    H210852   0.049   3.923   5.460 -0.8689  0.0933 -0.2042
 3630TIP3   OH210853   2.674   4.875   0.855 -0.0192 -0.5592  0.0839
 3630TIP3    H110854   2.707   4.964   0.866 -1.3221  0.0029 -0.3367
 3630TIP3    H210855   2.747   4.827   0.815  0.7738  0.2533  0.5284
 3631TIP3   OH210856   4.242   3.753   1.472  0.7104  0.2007 -0.4204
 3631TIP3    H110857   4.188   3.824   1.436  1.0201  0.6788  0.0595
 3631TIP3    H210858   4.288   3.792   1.545 -1.5023 -1.2722  1.9332
 3632TIP3   OH210859   2.430   2.341   3.958 -0.3132 -0.2809 -0.1058
 3632TIP3    H110860   2.485   2.361   3.882 -0.3676 -0.8314 -0.2956
 3632TIP3    H210861   2.446   2.413   4.019 -0.3803  0.2431 -0.6985
 3633TIP3   OH210862   2.267   2.862   1.992 -0.0403  1.0677  0.3475
 3633TIP3    H110863   2.194   2.800   1.995 -1.0002  2.1962  1.6684
 3633TIP3    H210864   2.339   2.816   2.036 -0.0216  0.0753 -0.6672
 3634TIP3   OH210865   6.707   4.290   2.797 -0.0592  0.3057 -0.0803
 3634TIP3    H110866   6.772   4.248   2.741 -2.4951 -0.1762 -2.7964
 3634TIP3    H210867   6.651   4.219   2.827 -1.7908  1.0625 -1.3357
 3635TIP3   OH210868   2.409   4.381   0.614 -0.0151 -0.3746 -0.0087
 3635TIP3    H110869   2.435   4.348   0.528 -0.5770  1.7698 -1.0631
 3635TIP3    H210870   2.480   4.439   0.640 -0.7389  0.5163  0.0387
 3636TIP3   OH210871   5.430   6.730   1.806 -1.1176  0.2272  0.0273
 3636TIP3    H110872   5.459   6.684   1.728 -0.1677 -0.3067  0.6742
 3636TIP3    H210873   5.341   6.759   1.786 -0.6844  0.5972 -1.4548
 3637TIP3   OH210874   3.540   2.876   5.070 -0.0051 -0.4733 -0.0130
 3637TIP3    H110875   3.501   2.961   5.049 -2.3092 -1.3638  0.3586
 3637TIP3    H210876   3.507   2.855   5.157  1.3519 -1.3290  0.3353
 3638TIP3   OH210877   5.362   0.249   0.692  0.5434  0.0641  0.1853
 3638TIP3    H110878   5.409   0.201   0.624 -1.5509  0.1231 -1.4146
 3638TIP3    H210879   5.382   0.341   0.675 -0.9428  0.1688 -1.2050
 3639TIP3   OH210880   6.347   5.374   0.339 -0.2573 -0.7418 -0.1168
 3639TIP3    H110881   6.319   5.310   0.405 -1.0119  0.3030  0.6095
 3639TIP3    H210882   6.310   5.457   0.369 -1.4333 -0.3657 -2.3501
 3640TIP3   OH210883   2.432   2.292   0.919  0.0754  0.1994 -0.1339
 3640TIP3    H110884   2.425   2.203   0.952  1.0265 -0.5110 -1.7406
 3640TIP3    H210885   2.344   2.329   0.932  0.2927 -0.1044  2.7561
 3641TIP3   OH210886   2.760   0.887   4.306  0.2631  0.0073 -0.1684
 3641TIP3    H110887   2.836   0.831   4.294 -0.2596 -0.4211 -1.7361
 3641TIP3    H210888   2.734   0.873   4.397  1.4715 -0.5655  0.1060
 3642TIP3   OH210889   4.632   2.386   5.159  0.2321  0.0055 -0.5388
 3642TIP3    H110890   4.590   2.472   5.152 -0.8692 -0.5363 -0.6560
 3642TIP3    H210891   4.572   2.326   5.116  1.5414 -0.6580 -1.4916
 3643TIP3   OH210892   6.964   6.592   4.704 -0.1807  0.0172 -0.2378
 3643TIP3    H110893   6.924   6.622   4.785  2.1728 -1.0833  1.4317
 3643TIP3    H210894   6.971   6.671   4.650  0.5437  1.3489  1.6868
 3644TIP3   OH210895   7.104   0.460   0.548  0.7230  0.0634  0.0808
 3644TIP3    H110896   7.103   0.528   0.481  0.9998 -1.4135 -1.5034
 3644TIP3    H210897   7.046   0.493   0.616  1.2703  2.1092 -0.3536
 3645TIP3   OH210898   0.926   6.744   1.622  0.4664 -0.1031  0.4610
 3645TIP3    H110899   0.936   6.662   1.671  0.3287  0.0771  0.7871
 3645TIP3    H210900   0.994   6.739   1.555  1.3606  0.1425  1.3315
 3646TIP3   OH210901   2.600   2.953   3.027 -0.5368  0.4991  0.5970
 3646TIP3    H110902   2.663   2.938   2.957 -0.6773  0.3765  0.4966
 3646TIP3    H210903   2.571   3.044   3.014 -0.7333  0.4043  0.3565
 3647TIP3   OH210904   2.763   0.457   2.202 -0.8568  0.1660 -0.6046
 3647TIP3    H110905   2.707   0.524   2.163 -0.9821  0.4213 -0.0097
 3647TIP3    H210906   2.755   0.472   2.297 -0.0229  0.0125 -0.5012
 3648TIP3   OH210907   4.162   4.858   0.323 -0.0963 -0.3826  0.3298
 3648TIP3    H110908   4.168   4.779   0.268  0.4207  0.3876 -0.7556
 3648TIP3    H210909   4.143   4.928   0.262  0.5658  0.5211  1.1310
 3649TIP3   OH210910   5.639   1.295   3.052 -0.2995  0.3746  0.4942
 3649TIP3    H110911   5.550   1.271   3.026 -0.1470  1.1233 -0.8196
 3649TIP3    H210912   5.686   1.308   2.970  1.3982 -1.2053  1.1288
 3650TIP3   OH210913   6.692   0.561   1.797 -0.1078 -0.6056  0.7551
 3650TIP3    H110914   6.648   0.553   1.882  1.8358 -2.7229  1.6687
 3650TIP3    H210915   6.641   0.505   1.739 -0.6781 -0.2076  0.8673
 3651TIP3   OH210916   6.912   2.444   0.649 -0.4366 -0.2043  0.3646
 3651TIP3    H110917   6.837   2.422   0.594  0.8132 -0.4931 -1.2815
 3651TIP3    H210918   6.955   2.360   0.666  0.2934  0.1222  0.1439
 3652TIP3   OH210919   3.720   0.187   2.721  0.3832  0.3608 -0.1954
 3652TIP3    H110920   3.706   0.098   2.689 -1.4564  0.7613 -0.6247
 3652TIP3    H210921   3.685   0.186   2.810  2.3843  0.1260  0.6373
 3653TIP3   OH210922   3.643   5.975   4.957 -0.0296  0.1499 -0.3564
 3653TIP3    H110923   3.712   5.939   4.902 -0.3157  0.0373 -0.6456
 3653TIP3    H210924   3.568   5.918   4.942 -0.7025  1.2466 -1.3515
 3654TIP3   OH210925   4.171   6.734   2.969  0.2256  0.2046 -0.0563
 3654TIP3    H110926   4.148   6.663   3.028 -0.2349 -0.3662 -0.9121
 3654TIP3    H210927   4.093   6.749   2.916  0.3375  1.2979  0.0530
 3655TIP3   OH210928   7.199   3.190   0.150 -0.1264 -0.2035  0.2347
 3655TIP3    H110929   7.203   3.110   0.202 -1.9779  0.3161  1.2745
 3655TIP3    H210930   7.159   3.164   0.068  2.4663 -0.9548 -0.9047
 3656TIP3   OH210931   0.243   2.058   1.301 -0.3575  0.5625  0.9897
 3656TIP3    H110932   0.253   1.965   1.280 -1.5281  1.0422 -2.2486
 3656TIP3    H210933   0.314   2.076   1.362  0.5876 -2.1958  0.8657
 3657TIP3   OH210934   1.496   1.985   1.448  0.0482  0.5320 -0.0970
 3657TIP3    H110935   1.433   1.918   1.474  0.7801  0.6260  2.1082
 3657TIP3    H210936   1.450   2.068   1.460 -0.0131  0.5358 -0.3424
 3658TIP3   OH210937   0.285   4.953   2.396  0.3214  0.4042 -0.1355
 3658TIP3    H110938   0.346   5.000   2.339 -1.1955  1.1636 -1.1879
 3658TIP3    H210939   0.272   5.013   2.470 -1.3603  1.6013 -1.3207
 3659TIP3   OH210940   5.311   0.905   1.442  0.4553 -0.0145 -0.6805
 3659TIP3    H110941   5.375   0.956   1.394  2.8167 -0.7874  1.4268
 3659TIP3    H210942   5.362   0.839   1.489 -1.7153  0.0146  2.0212
 3660TIP3   OH210943   1.879   2.078   1.417 -0.2567  0.4337 -0.7752
 3660TIP3    H110944   1.933   2.092   1.495 -0.9848  0.0520 -0.1957
 3660TIP3    H210945   1.844   2.164   1.396  0.7254  0.7229 -1.2721
 3661TIP3   OH210946   1.361   6.051   1.001 -0.1996 -0.4270  0.0904
 3661TIP3    H110947   1.441   6.078   1.047 -1.0481 -0.0366  1.3996
 3661TIP3    H210948   1.370   5.957   0.991 -0.0060 -0.5251  1.1152
 3662TIP3   OH210949   4.095   0.442   4.808  0.1513  0.1341  0.6265
 3662TIP3    H110950   4.065   0.366   4.858  3.7119 -1.5014  0.6006
 3662TIP3    H210951   4.022   0.463   4.751 -1.6548 -2.1021  1.9191
 3663TIP3   OH210952   1.090   3.644   3.675  0.2037 -0.2172  0.6266
 3663TIP3    H110953   0.999   3.643   3.647  0.1891 -0.3370  0.6754
 3663TIP3    H210954   1.137   3.596   3.607  0.1848 -0.4112  0.7476
 3664TIP3   OH210955   2.947   4.666   1.622  0.0349 -0.4417 -0.9780
 3664TIP3    H110956   3.038   4.654   1.595 -0.5239  0.1229 -3.3627
 3664TIP3    H210957   2.944   4.634   1.712  2.5669 -0.5103 -0.8453
 3665TIP3   OH210958   5.218   1.524   1.434  0.5185 -0.1858 -0.0896
 3665TIP3    H110959   5.189   1.579   1.507  1.2281 -0.8536  0.7124
 3665TIP3    H210960   5.233   1.438   1.474  2.2269 -0.2262 -0.7466
 3666TIP3   OH210961   0.830   1.767   1.472 -0.1555  0.0542 -0.0703
 3666TIP3    H110962   0.753   1.809   1.511 -0.4196 -0.1928 -0.3175
 3666TIP3    H210963   0.820   1.782   1.378  0.3906  0.5060 -0.0633
 3667TIP3   OH210964   4.694   0.238   5.128 -0.0217  0.4255  0.1213
 3667TIP3    H110965   4.659   0.325   5.147  0.2040  0.0947  2.4424
 3667TIP3    H210966   4.691   0.192   5.213 -0.4648 -1.9593 -1.0911
 3668TIP3   OH210967   4.475   3.654   4.536  0.0615 -0.2110 -0.1669
 3668TIP3    H110968   4.492   3.747   4.552 -3.7446  0.7259 -0.6639
 3668TIP3    H210969   4.401   3.633   4.593 -0.6028 -2.3134 -1.6808
 3669TIP3   OH210970   5.053   3.726   0.387 -0.5418 -0.0868  0.4471
 3669TIP3    H110971   5.016   3.651   0.341 -1.0033  1.9307 -2.8054
 3669TIP3    H210972   5.128   3.752   0.334 -0.8896  2.2188  0.9745
 3670TIP3   OH210973   5.303   5.331   3.184 -0.8464  0.0284 -0.2324
 3670TIP3    H110974   5.266   5.376   3.260 -1.1931 -0.1236 -0.3082
 3670TIP3    H210975   5.360   5.264   3.222 -0.2421  0.5955 -0.1207
 3671TIP3   OH210976   6.610   1.539   5.568 -0.6534 -0.1052  0.4354
 3671TIP3    H110977   6.673   1.505   5.631 -0.0340 -0.3894 -0.3313
 3671TIP3    H210978   6.560   1.462   5.540 -1.4139  0.1264  1.0929
 3672TIP3   OH210979   0.354   4.259   5.452 -0.1520  0.1841  0.3969
 3672TIP3    H110980   0.270   4.230   5.488 -0.0637 -0.2084  0.2979
 3672TIP3    H210981   0.330   4.316   5.379 -0.3505 -0.7171 -0.2649
 3673TIP3   OH210982   2.610   4.453   0.801  0.2393  0.2628  0.0759
 3673TIP3    H110983   2.561   4.399   0.864  0.9291 -1.9694 -1.1977
 3673TIP3    H210984   2.663   4.511   0.856 -0.2386 -0.6118  1.5288
 3674TIP3   OH210985   0.163   3.644   2.201  0.1839 -0.3878 -0.2273
 3674TIP3    H110986   0.134   3.612   2.287 -0.1784 -2.2805 -1.0014
 3674TIP3    H210987   0.113   3.592   2.138  0.5381  0.8714 -1.6014
 3675TIP3   OH210988   1.073   1.048   3.300  0.2373 -0.5736  0.3407
 3675TIP3    H110989   1.028   1.132   3.308 -0.7906 -1.1555  0.8547
 3675TIP3    H210990   1.164   1.071   3.284 -0.0589  0.6377  0.2997
 3676TIP3   OH210991   5.137   1.863   4.798  0.1483  0.5418 -0.2951
 3676TIP3    H110992   5.196   1.938   4.801 -0.1653  0.8279 -1.2307
 3676TIP3    H210993   5.053   1.898   4.770 -0.2707  0.0021  0.2583
 3677TIP3   OH210994   4.445   6.175   1.038 -0.3251 -0.4288  0.3416
 3677TIP3    H110995   4.385   6.102   1.028 -0.5847  0.0233 -1.8692
 3677TIP3    H210996   4.403   6.232   1.103 -1.9558 -0.4553 -0.6392
 3678TIP3   OH210997   5.358   4.090   1.723  0.6624  0.0120  0.0230
 3678TIP3    H110998   5.308   4.013   1.696 -0.7423  0.8565  0.1220
 3678TIP3    H210999   5.398   4.065   1.806 -0.0900 -0.4899  0.2361
 3679TIP3   OH211000   3.284   0.068   3.300 -0.1655  0.6382  0.2376
 3679TIP3    H111001   3.268   0.160   3.322  0.4934  1.7336 -3.1978
 3679TIP3    H211002   3.197   0.029   3.292 -0.5057  1.3790  0.2920
 3680TIP3   OH211003   2.100   1.375   4.066 -0.3469  0.1160 -0.0112
 3680TIP3    H111004   2.071   1.466   4.062  2.3001  1.0524  0.0845
 3680TIP3    H211005   2.135   1.357   3.978 -0.6249 -0.7399  0.0389
 3681TIP3   OH211006   4.105   1.786   1.563 -0.0453 -0.6402 -0.0741
 3681TIP3    H111007   4.011   1.781   1.580 -0.5288  0.8601 -2.0076
 3681TIP3    H211008   4.145   1.779   1.650 -1.8691 -1.9553  0.7316
 3682TIP3   OH211009   2.259   2.583   3.130  0.7470  0.0918  0.5630
 3682TIP3    H111010   2.301   2.658   3.172  1.5679 -0.3428  0.5260
 3682TIP3    H211011   2.324   2.514   3.133  0.4026 -0.2910 -0.4099
 3683TIP3   OH211012   6.793   1.862   3.482  0.5145  0.2932 -0.0043
 3683TIP3    H111013   6.720   1.921   3.503 -0.6396 -0.5032 -1.5592
 3683TIP3    H211014   6.773   1.830   3.394  0.0394 -3.9066  1.4067
 3684TIP3   OH211015   4.424   4.635   3.037 -0.3032  0.0277 -0.0782
 3684TIP3    H111016   4.494   4.659   2.978 -0.4893  0.1494 -0.2505
 3684TIP3    H211017   4.375   4.716   3.052  0.3678  0.2418  1.0878
 3685TIP3   OH211018   5.627   6.152   0.241 -0.6846 -0.1412  0.3884
 3685TIP3    H111019   5.650   6.102   0.319  0.8660 -2.6053 -1.4864
 3685TIP3    H211020   5.588   6.087   0.182 -0.0482  1.1894 -1.5898
 3686TIP3   OH211021   1.614   3.207   4.978 -0.3646  0.3749  0.1000
 3686TIP3    H111022   1.617   3.267   5.053 -1.0373 -0.0308  0.4562
 3686TIP3    H211023   1.526   3.169   4.982 -0.1687 -0.1375 -0.5150
 3687TIP3   OH211024   0.184   1.647   4.520  0.0240  0.1332  0.2342
 3687TIP3    H111025   0.258   1.639   4.581 -0.3847  2.8943  1.2426
 3687TIP3    H211026   0.199   1.731   4.476 -1.2709 -0.4171 -1.3672
 3688TIP3   OH211027   3.823   0.148   0.662  0.3585  0.1036  0.1542
 3688TIP3    H111028   3.918   0.143   0.658  0.3641 -0.4212  0.8403
 3688TIP3    H211029   3.793   0.080   0.602  0.4146  0.4509 -0.2685
 3689TIP3   OH211030   4.453   6.095   4.756  0.2656 -0.2202 -0.0936
 3689TIP3    H111031   4.541   6.099   4.720  0.2096 -1.4034 -0.3951
 3689TIP3    H211032   4.427   6.003   4.747 -0.6070 -0.0940  0.9138
 3690TIP3   OH211033   3.252   2.049   1.316  0.1189  0.0668 -0.3557
 3690TIP3    H111034   3.250   2.057   1.411  2.8333  1.0174 -0.2858
 3690TIP3    H211035   3.190   2.114   1.285  1.3514  1.8806  0.7859
 3691TIP3   OH211036   2.986   0.715   0.546 -0.9745  0.2947  0.4445
 3691TIP3    H111037   3.075   0.746   0.534  0.5601 -3.5537  0.4777
 3691TIP3    H211038   2.991   0.654   0.620 -2.8998 -2.3330 -1.3929
 3692TIP3   OH211039   2.500   0.625   4.648  0.1398  0.3089 -0.1160
 3692TIP3    H111040   2.413   0.660   4.668  0.0852 -0.3986  0.9626
 3692TIP3    H211041   2.490   0.531   4.657  0.6735  0.1096 -1.4358
 3693TIP3   OH211042   7.163   0.748   3.742  0.4072  0.1866 -0.8084
 3693TIP3    H111043   7.082   0.740   3.691 -0.1621 -0.4777  0.1690
 3693TIP3    H211044   7.190   0.658   3.759 -0.5455  0.2897  1.7500
 3694TIP3   OH211045   5.297   3.673   1.759 -0.7736  0.1411  0.1472
 3694TIP3    H111046   5.272   3.581   1.754  0.3466 -0.2817  1.5188
 3694TIP3    H211047   5.381   3.678   1.713 -1.1262  0.6068 -0.4559
 3695TIP3   OH211048   5.407   3.872   1.882  0.2350  0.9409 -0.1239
 3695TIP3    H111049   5.373   3.792   1.841  1.0345  1.6047 -2.2016
 3695TIP3    H211050   5.366   3.874   1.969 -3.1539  0.4843 -1.5777
 3696TIP3   OH211051   6.911   4.519   1.373  0.4260 -0.5616  0.0904
 3696TIP3    H111052   6.974   4.450   1.352 -0.6247 -1.6457  0.4087
 3696TIP3    H211053   6.887   4.503   1.464 -1.6798 -1.3224 -0.5512
 3697TIP3   OH211054   2.011   0.096   2.189  0.7494 -0.3996  0.7449
 3697TIP3    H111055   1.931   0.054   2.220  0.6261 -0.8804 -0.1931
 3697TIP3    H211056   2.055   0.029   2.137  2.0709 -0.3379  1.7297
 3698TIP3   OH211057   3.300   2.488   0.861 -0.0442 -0.4747 -0.7577
 3698TIP3    H111058   3.256   2.429   0.800  0.4966 -3.2062  1.2775
 3698TIP3    H211059   3.391   2.489   0.832  0.1469 -1.5110 -0.2589
 3699TIP3   OH211060   0.724   2.999   5.673  0.3977 -0.5847 -0.3189
 3699TIP3    H111061   0.782   2.929   5.703  0.4530 -0.3687  0.0776
 3699TIP3    H211062   0.782   3.073   5.654  0.2158 -0.1912  0.5883
 3700TIP3   OH211063   4.675   3.665   2.087 -0.1182  0.3422  0.4423
 3700TIP3    H111064   4.625   3.588   2.116 -0.7873  1.2921  1.9512
 3700TIP3    H211065   4.752   3.629   2.044 -0.3373 -1.1708  1.2614
 3701TIP3   OH211066   3.938   5.805   3.074 -0.0249  0.4959 -0.8745
 3701TIP3    H111067   3.969   5.811   3.165 -0.9606  0.6263 -0.5538
 3701TIP3    H211068   3.865   5.867   3.069  0.4287  0.9697 -1.8964
 3702TIP3   OH211069   6.408   5.748   1.443  0.6522 -0.0830 -0.4417
 3702TIP3    H111070   6.320   5.766   1.408  0.6245  0.4254 -0.1122
 3702TIP3    H211071   6.392   5.715   1.531  0.7448 -0.9776 -0.7503
 3703TIP3   OH211072   7.136   0.214   0.771  0.0718 -0.5397  0.1097
 3703TIP3    H111073   7.197   0.234   0.700  0.1702 -1.5259 -0.0943
 3703TIP3    H211074   7.143   0.119   0.783 -2.3989 -0.9020 -0.8068
 3704TIP3   OH211075   2.282   6.043   2.000  0.3937 -0.1125  0.1266
 3704TIP3    H111076   2.215   5.996   2.050 -0.0381  0.4154  0.0406
 3704TIP3    H211077   2.363   6.027   2.050  0.3607 -1.3769 -0.1798
 3705TIP3   OH211078   1.566   3.181   2.338 -0.4154  0.0655 -0.2015
 3705TIP3    H111079   1.473   3.191   2.322 -0.7827 -0.0098  1.6632
 3705TIP3    H211080   1.599   3.271   2.342 -0.8489  0.1828  1.3205
 3706TIP3   OH211081   4.803   4.187   3.962  0.5129 -0.3943  0.2352
 3706TIP3    H111082   4.795   4.112   4.020  0.9159  0.1826  1.0683
 3706TIP3    H211083   4.761   4.160   3.881 -0.6379 -1.0023  1.0065
 3707TIP3   OH211084   6.360   1.616   2.643 -0.3071  0.0386 -0.4793
 3707TIP3    H111085   6.444   1.654   2.617 -0.6446  0.1287 -1.4779
 3707TIP3    H211086   6.372   1.593   2.735  0.4136  1.1506 -0.2725
 3708TIP3   OH211087   1.568   5.090   1.361 -0.0461 -1.0124  0.4655
 3708TIP3    H111088   1.497   5.146   1.392  0.9414 -0.8413  2.5940
 3708TIP3    H211089   1.593   5.127   1.276 -1.1282  0.1663  0.6362
 3709TIP3   OH211090   6.135   1.056   0.094  0.2433  0.2819 -0.0411
 3709TIP3    H111091   6.158   0.971   0.058  1.2045  0.4404  0.1761
 3709TIP3    H211092   6.172   1.119   0.033 -3.7461  0.6749 -2.4060
 3710TIP3   OH211093   1.367   6.524   5.387  0.6352  0.2342 -0.7718
 3710TIP3    H111094   1.320   6.593   5.435 -0.6551 -0.4165 -1.0413
 3710TIP3    H211095   1.453   6.521   5.427  0.0801  0.7134  0.5241
 3711TIP3   OH211096   6.054   5.558   1.737  0.2804 -0.7718 -0.0652
 3711TIP3    H111097   6.053   5.582   1.644 -1.5903  0.0425  0.1188
 3711TIP3    H211098   6.136   5.594   1.770  1.1420 -1.3588 -1.4576
 3712TIP3   OH211099   4.462   4.963   0.501 -0.5136 -0.0792 -0.6756
 3712TIP3    H111100   4.383   5.016   0.511 -0.6641  0.5413 -3.8190
 3712TIP3    H211101   4.533   5.021   0.531 -1.1339 -0.5136  1.8293
 3713TIP3   OH211102   5.626   6.375   5.646  0.0019  0.1325 -0.2241
 3713TIP3    H111103   5.584   6.415   5.570 -0.1193 -1.1419 -0.8472
 3713TIP3    H211104   5.711   6.346   5.614  0.8894  1.5569  0.7133
 3714TIP3   OH211105   2.296   5.083   0.335  0.2979  0.1369 -0.3980
 3714TIP3    H111106   2.256   5.016   0.391  0.3450  1.6311  1.4829
 3714TIP3    H211107   2.339   5.033   0.266  0.4319 -1.7872  1.0011
 3715TIP3   OH211108   1.051   2.569   2.165  0.2702 -0.4435 -0.2532
 3715TIP3    H111109   0.962   2.599   2.146  0.8962  0.1517 -2.5811
 3715TIP3    H211110   1.057   2.571   2.260 -2.3060 -0.8473 -0.0103
 3716TIP3   OH211111   1.451   4.872   1.551 -0.1024  0.1218 -0.2478
 3716TIP3    H111112   1.437   4.954   1.598  0.8830 -0.5231  1.2590
 3716TIP3    H211113   1.367   4.826   1.557 -0.2005  0.3592  0.2821
 3717TIP3   OH211114   3.896   1.709   5.901  0.9027  0.1524  0.5083
 3717TIP3    H111115   3.905   1.731   5.808  1.2177  2.5578  1.0386
 3717TIP3    H211116   3.960   1.639   5.915 -0.7556 -1.9598 -1.5081
 3718TIP3   OH211117   5.382   0.945   2.638  0.3233  0.4909  0.1195
 3718TIP3    H111118   5.364   0.852   2.629  0.9910  0.0973  2.3348
 3718TIP3    H211119   5.297   0.987   2.621  0.1860 -0.4111 -1.6686
 3719TIP3   OH211120   0.526   5.048   3.840 -0.0893  0.2097  0.1072
 3719TIP3    H111121   0.536   5.027   3.747 -0.8582 -3.0044  0.6148
 3719TIP3    H211122   0.604   5.010   3.881 -0.2447  0.7070  0.8759
 3720TIP3   OH211123   3.583   3.141   3.005 -0.3501  0.3943 -0.4876
 3720TIP3    H111124   3.631   3.117   3.084  1.3347  0.0768 -1.5605
 3720TIP3    H211125   3.504   3.183   3.037 -0.4203 -1.0204  1.3827
 3721TIP3   OH211126   0.832   3.352   2.811 -0.4510  0.1079  0.0473
 3721TIP3    H111127   0.740   3.355   2.836 -0.5692 -0.9370 -0.2186
 3721TIP3    H211128   0.846   3.431   2.759 -1.8781 -1.0204 -2.1455
 3722TIP3   OH211129   2.530   4.022   3.802  0.7405  0.5301  0.0523
 3722TIP3    H111130   2.514   3.942   3.852 -0.0789  0.7033  0.0795
 3722TIP3    H211131   2.534   4.091   3.868 -0.3772  0.7639 -0.1053
 3723TIP3   OH211132   6.735   1.190   4.067  0.3307 -0.0373 -0.1141
 3723TIP3    H111133   6.663   1.147   4.114  0.1214  1.9941  1.5749
 3723TIP3    H211134   6.703   1.200   3.978 -1.4890  0.6961  0.5651
 3724TIP3   OH211135   4.583   4.392   4.616  0.2333  0.4331 -0.9580
 3724TIP3    H111136   4.500   4.348   4.635  1.4973 -1.9177 -0.4510
 3724TIP3    H211137   4.558   4.467   4.562 -2.2944  0.4166  0.0104
 3725TIP3   OH211138   0.553   4.048   1.857  0.3708 -0.5137  0.4267
 3725TIP3    H111139   0.496   4.122   1.839 -0.6902 -1.6478 -1.1009
 3725TIP3    H211140   0.535   4.026   1.949 -2.0298 -1.1191 -0.1268
 3726TIP3   OH211141   2.392   2.832   0.842  0.0337  0.0467  0.3706
 3726TIP3    H111142   2.305   2.872   0.846 -0.0005 -0.0145  0.2027
 3726TIP3    H211143   2.382   2.750   0.891  0.3172  0.6385  1.4734
 3727TIP3   OH211144   3.024   1.030   4.104  0.0716 -0.9358  0.7646
 3727TIP3    H111145   3.081   1.054   4.177  1.2774  0.0793 -0.4340
 3727TIP3    H211146   2.952   1.094   4.107  1.8645  1.3821 -0.8086
 3728TIP3   OH211147   2.922   1.704   1.276 -0.4099 -0.0657 -0.5952
 3728TIP3    H111148   2.950   1.614   1.294  0.2728  0.0335 -1.1291
 3728TIP3    H211149   2.878   1.699   1.191 -1.4201 -0.0899 -0.0914
 3729TIP3   OH211150   4.143   6.131   4.709  0.4538 -0.8547  0.7476
 3729TIP3    H111151   4.062   6.102   4.668  1.6065 -3.6768  0.2335
 3729TIP3    H211152   4.212   6.095   4.653  2.1167  1.6890  0.9995
 3730TIP3   OH211153   3.512   6.601   1.726 -0.1942 -0.3518  0.4584
 3730TIP3    H111154   3.473   6.515   1.742 -0.4882 -0.2591  0.2295
 3730TIP3    H211155   3.455   6.663   1.772 -0.7430 -0.1379 -0.4904
 3731TIP3   OH211156   4.744   3.886   0.358  0.0302  0.2034 -0.1566
 3731TIP3    H111157   4.717   3.889   0.266 -0.9688 -0.8295  0.0787
 3731TIP3    H211158   4.749   3.792   0.378 -1.0864  0.3960  1.1901
 3732TIP3   OH211159   6.425   0.092   3.247 -0.3673  0.0485 -0.0291
 3732TIP3    H111160   6.503   0.119   3.199  0.0225  0.5673  0.8554
 3732TIP3    H211161   6.439  -0.002   3.263 -1.3317 -0.5543 -2.3887
 3733TIP3   OH211162   5.892   4.867   3.765  0.5384  0.2519 -0.1966
 3733TIP3    H111163   5.933   4.953   3.760  0.4206  0.6111  2.9882
 3733TIP3    H211164   5.958   4.811   3.806 -0.9408  0.0844  2.1474
 3734TIP3   OH211165   4.118   3.814   4.654  0.1150  0.0642  0.4372
 3734TIP3    H111166   4.035   3.804   4.701 -0.8926 -0.5689 -1.3807
 3734TIP3    H211167   4.093   3.827   4.563  1.9634 -3.6885 -0.8320
 3735TIP3   OH211168   1.536   1.232   0.143  0.2370  0.2791  0.2603
 3735TIP3    H111169   1.501   1.205   0.058  0.1842  0.7228  0.1380
 3735TIP3    H211170   1.565   1.151   0.183  0.9540  0.1467 -0.4961
 3736TIP3   OH211171   2.305   0.828   4.451  0.2092  0.1684 -0.3159
 3736TIP3    H111172   2.315   0.895   4.519 -0.5404  0.8270 -0.8267
 3736TIP3    H211173   2.258   0.757   4.495  0.7963  0.0709  0.1690
 3737TIP3   OH211174   6.758   5.878   5.865  0.3729 -0.0718  0.0366
 3737TIP3    H111175   6.714   5.794   5.871  1.3287 -0.6851 -1.1656
 3737TIP3    H211176   6.692   5.942   5.891 -1.1997 -0.9534 -1.6288
 3738TIP3   OH211177   2.150   0.967   5.051 -0.2667  0.4809  0.4939
 3738TIP3    H111178   2.198   0.929   4.978 -1.5433  0.5129 -0.3847
 3738TIP3    H211179   2.107   1.044   5.015  0.4793  1.5197  1.7154
 3739TIP3   OH211180   4.369   2.308   2.338  0.3049  0.1586  0.6434
 3739TIP3    H111181   4.336   2.347   2.419 -0.1168  1.3070 -0.0599
 3739TIP3    H211182   4.408   2.225   2.366 -1.2922 -0.2513  1.7939
 3740TIP3   OH211183   5.852   0.188   5.030  0.2212 -0.0300 -0.1209
 3740TIP3    H111184   5.826   0.229   4.947  1.6519  0.3416 -0.4152
 3740TIP3    H211185   5.873   0.262   5.087  0.1031 -0.3082  0.2847
 3741TIP3   OH211186   3.276   6.168   4.999 -0.4596 -0.0095 -0.2617
 3741TIP3    H111187   3.366   6.198   5.011 -0.4725 -0.5128  1.1911
 3741TIP3    H211188   3.284   6.075   4.976 -0.6161 -0.1512  0.2465
 3742TIP3   OH211189   5.496   6.675   0.221 -0.4535  0.6245  0.2779
 3742TIP3    H111190   5.410   6.676   0.178  0.2231  1.0077 -1.0986
 3742TIP3    H211191   5.550   6.620   0.165  0.1557  0.2135  1.2553
 3743TIP3   OH211192   5.461   0.680   0.937  0.2800  0.9079  0.5356
 3743TIP3    H111193   5.505   0.646   0.859 -0.8085  0.7224 -0.0195
 3743TIP3    H211194   5.406   0.751   0.904 -0.2007  0.8210  1.1247
 3744TIP3   OH211195   4.150   3.496   2.728  0.1528 -0.0745  0.1166
 3744TIP3    H111196   4.074   3.541   2.691  0.2747 -1.7533 -2.4119
 3744TIP3    H211197   4.204   3.566   2.765 -1.2586  1.4518 -0.5844
 3745TIP3   OH211198   4.504   6.416   4.493  0.3644  0.4709 -0.0251
 3745TIP3    H111199   4.485   6.475   4.565 -1.5368  0.7160 -0.6738
 3745TIP3    H211200   4.594   6.438   4.466  0.4150  1.6307  1.0564
 3746TIP3   OH211201   1.666   4.832   1.333  0.0042 -0.2169 -0.0745
 3746TIP3    H111202   1.604   4.901   1.308 -0.1629 -0.2796  0.1723
 3746TIP3    H211203   1.654   4.821   1.427  2.3666  1.7536  0.5570
 3747TIP3   OH211204   5.018   5.416   5.107 -0.3943 -0.9009  0.2103
 3747TIP3    H111205   4.956   5.353   5.144  0.0105 -2.4894 -1.6504
 3747TIP3    H211206   5.085   5.362   5.066 -0.7065  0.6538 -2.6287
 3748TIP3   OH211207   4.819   1.878   0.334  0.1424  0.2615 -0.2911
 3748TIP3    H111208   4.902   1.876   0.286  0.2995 -0.2737 -0.0110
 3748TIP3    H211209   4.844   1.860   0.425  0.0670  3.0355  0.3504
 3749TIP3   OH211210   4.359   4.710   3.727 -0.1663  0.0236 -0.0897
 3749TIP3    H111211   4.395   4.798   3.738  1.0824 -0.3777 -0.7510
 3749TIP3    H211212   4.343   4.679   3.816  1.8638 -0.0467  0.3027
 3750TIP3   OH211213   6.787   2.047   4.836 -0.2339  0.4647 -0.0912
 3750TIP3    H111214   6.711   2.040   4.894 -0.2465  1.6373  0.0580
 3750TIP3    H211215   6.860   2.013   4.888 -0.4676  0.3494  0.1633
 3751TIP3   OH211216   3.310   3.960   4.522 -0.1195  0.1522  0.1381
 3751TIP3    H111217   3.398   3.964   4.560 -0.6316 -0.1607  1.3846
 3751TIP3    H211218   3.262   4.030   4.565 -1.0857 -1.0498  1.0860
 3752TIP3   OH211219   7.130   3.789   1.855  0.0102  0.0446  0.3159
 3752TIP3    H111220   7.180   3.788   1.937  0.5229  0.2773  0.0082
 3752TIP3    H211221   7.138   3.879   1.823  0.9881 -0.3846 -0.7017
 3753TIP3   OH211222   1.832   1.362   3.422 -0.2118  0.3255 -0.2618
 3753TIP3    H111223   1.864   1.294   3.482 -1.7228  0.0083  0.2065
 3753TIP3    H211224   1.910   1.415   3.403  0.4779 -0.0758  1.2993
 3754TIP3   OH211225   2.722   5.579   4.117  0.1415  0.1648 -0.2367
 3754TIP3    H111226   2.785   5.512   4.144  1.3474 -0.0217 -3.1643
 3754TIP3    H211227   2.636   5.537   4.128  0.5303 -0.1368  2.3164
 3755TIP3   OH211228   1.369   1.192   1.559  0.7311 -0.1303  0.5704
 3755TIP3    H111229   1.444   1.210   1.504 -0.3262 -0.5575 -1.0722
 3755TIP3    H211230   1.355   1.097   1.551 -0.0175 -0.0492  0.8217
 3756TIP3   OH211231   6.200   4.995   0.342  0.1876 -0.2798  0.0388
 3756TIP3    H111232   6.230   5.001   0.251 -1.3316  0.7250 -0.4432
 3756TIP3    H211233   6.109   4.967   0.336  0.4182 -1.4283  1.3434
 3757TIP3   OH211234   2.668   0.846   1.586 -0.0414 -0.4754  0.1914
 3757TIP3    H111235   2.617   0.800   1.519 -2.1185 -0.8024  1.8835
 3757TIP3    H211236   2.758   0.818   1.571 -0.7803 -2.5308 -0.8913
 3758TIP3   OH211237   6.735   3.551   2.511  0.1223 -0.3729  0.4934
 3758TIP3    H111238   6.729   3.495   2.434  1.6161 -1.7618  1.3304
 3758TIP3    H211239   6.667   3.518   2.570 -0.5171  0.2014  0.0910
 3759TIP3   OH211240   3.641   3.088   0.051 -0.5423 -0.1310 -0.2312
 3759TIP3    H111241   3.582   3.073   0.124  1.1898 -1.0083  1.0585
 3759TIP3    H211242   3.656   3.183   0.051 -1.4824  0.0268 -0.2283
 3760TIP3   OH211243   0.366   5.368   5.304  0.1781 -0.2868 -0.3370
 3760TIP3    H111244   0.396   5.383   5.394  0.0250 -0.5207 -0.2463
 3760TIP3    H211245   0.421   5.426   5.251 -0.2556  0.4405 -0.0197
 3761TIP3   OH211246   3.583   0.678   4.163  0.1136  0.1855 -0.1025
 3761TIP3    H111247   3.580   0.622   4.085 -2.6129  1.8963 -1.4078
 3761TIP3    H211248   3.671   0.717   4.161 -0.2584  1.1263 -3.1393
 3762TIP3   OH211249   2.867   2.263   1.682 -1.0194  0.4939 -0.1168
 3762TIP3    H111250   2.907   2.267   1.595 -0.2063 -1.3083  0.1413
 3762TIP3    H211251   2.790   2.209   1.671 -0.5268 -0.3364  0.4060
 3763TIP3   OH211252   3.582   4.488   0.816 -0.2134  0.3764 -0.3159
 3763TIP3    H111253   3.497   4.444   0.820 -0.2505  0.4047 -0.7268
 3763TIP3    H211254   3.629   4.456   0.892  0.3071 -1.4787 -1.3622
 3764TIP3   OH211255   1.926   5.358   1.326 -0.2638  0.0054 -0.6989
 3764TIP3    H111256   1.927   5.290   1.259 -1.8885 -1.6908  0.8819
 3764TIP3    H211257   1.837   5.355   1.361  0.1737  1.7233  0.6758
 3765TIP3   OH211258   1.050   3.504   0.485  0.0974  0.0926  0.4950
 3765TIP3    H111259   0.956   3.489   0.499 -0.2415  2.3729  1.0889
 3765TIP3    H211260   1.054   3.569   0.415  1.1597  0.9280  1.3010
 3766TIP3   OH211261   0.650   5.588   1.732  0.4140  0.3335 -0.1563
 3766TIP3    H111262   0.659   5.625   1.644 -1.0112 -0.6266 -0.7438
 3766TIP3    H211263   0.559   5.560   1.737  0.2621  1.0142  1.9120
 3767TIP3   OH211264   1.673   6.177   2.702 -0.4602 -0.4118  0.1674
 3767TIP3    H111265   1.657   6.187   2.608  1.7825 -0.2005 -0.2491
 3767TIP3    H211266   1.618   6.244   2.743 -0.8097  0.0817 -1.0658
 3768TIP3   OH211267   4.649   6.522   2.485  0.3686 -0.0522 -0.5063
 3768TIP3    H111268   4.716   6.458   2.461  0.4184 -0.4816  0.6835
 3768TIP3    H211269   4.689   6.607   2.466  1.0306 -0.3209 -0.3430
 3769TIP3   OH211270   3.972   2.565   4.217 -0.1322 -0.3623 -0.4051
 3769TIP3    H111271   3.928   2.524   4.143 -0.6302 -0.8940  0.1783
 3769TIP3    H211272   3.946   2.513   4.293 -0.4211  0.7538  0.2909
 3770TIP3   OH211273   2.581   5.108   0.168  0.6141  0.3674 -0.0514
 3770TIP3    H111274   2.640   5.094   0.094  1.6985 -0.9031  0.9978
 3770TIP3    H211275   2.634   5.154   0.232 -0.3107  1.4292 -0.0281
 3771TIP3   OH211276   2.789   2.204   1.401  0.0753  0.1638  0.3943
 3771TIP3    H111277   2.833   2.225   1.319 -1.0848 -1.0793 -0.5945
 3771TIP3    H211278   2.699   2.187   1.376 -0.2989 -0.2736  1.9361
 3772TIP3   OH211279   5.667   3.073   2.847 -0.3599  0.2760 -0.1983
 3772TIP3    H111280   5.673   3.027   2.764  0.9663  1.1480 -0.6256
 3772TIP3    H211281   5.624   3.156   2.826 -0.9645  0.0723  0.1952
 3773TIP3   OH211282   1.888   4.543   5.569  0.4744  0.4103  0.2248
 3773TIP3    H111283   1.821   4.475   5.571 -0.4324  1.0992  4.5742
 3773TIP3    H211284   1.838   4.625   5.564  1.2662  0.8541 -0.6317
 3774TIP3   OH211285   5.241   5.647   1.119  0.2178  0.1231  0.3931
 3774TIP3    H111286   5.324   5.651   1.166  0.2396  1.9069  0.2677
 3774TIP3    H211287   5.262   5.670   1.029  0.0066 -2.2646 -0.3387
 3775TIP3   OH211288   2.673   3.306   4.238 -0.2065 -0.1614 -0.1318
 3775TIP3    H111289   2.653   3.226   4.188  0.7887 -1.3136  1.2216
 3775TIP3    H211290   2.696   3.370   4.171  1.7067 -1.8213 -1.2187
 3776TIP3   OH211291   6.943   5.601   1.985  0.1542  0.0925  0.5543
 3776TIP3    H111292   6.929   5.512   2.019 -2.3534  0.5820  0.9888
 3776TIP3    H211293   6.862   5.621   1.938  2.3259  0.5719 -3.3700
 3777TIP3   OH211294   5.062   2.847   4.814 -0.2900  0.3826 -0.2684
 3777TIP3    H111295   5.136   2.786   4.819 -0.6014  0.0692  0.7508
 3777TIP3    H211296   5.032   2.855   4.904 -0.2681  2.0485 -0.3897
 3778TIP3   OH211297   1.611   1.051   1.426  0.0613  0.6143 -0.2317
 3778TIP3    H111298   1.628   1.050   1.520 -2.2361  1.1100  0.2506
 3778TIP3    H211299   1.608   0.959   1.401  1.2939  0.4860  0.0283
 3779TIP3   OH211300   0.598   3.297   0.558 -0.1540 -0.6263 -0.0206
 3779TIP3    H111301   0.526   3.283   0.496 -1.8489 -0.2885  1.7691
 3779TIP3    H211302   0.624   3.209   0.586  1.3106 -0.8427 -1.8646
 3780TIP3   OH211303   4.364   6.139   1.507  0.2651 -0.4389 -0.3238
 3780TIP3    H111304   4.416   6.059   1.513  1.3663  0.3750  1.6457
 3780TIP3    H211305   4.427   6.207   1.483 -0.1957  0.2604  0.4120
 3781TIP3   OH211306   5.594   5.371   3.778  0.0771 -0.2955 -0.0318
 3781TIP3    H111307   5.675   5.399   3.820 -0.1015  0.4319 -0.1455
 3781TIP3    H211308   5.525   5.401   3.838 -0.0822 -3.6900  1.7446
 3782TIP3   OH211309   0.208   6.734   5.766 -0.3070  0.2645 -0.1734
 3782TIP3    H111310   0.167   6.648   5.762 -0.1654  0.2249 -2.4985
 3782TIP3    H211311   0.154   6.790   5.710  0.8142  1.1124 -0.4673
 3783TIP3   OH211312   2.277   3.499   2.172 -0.2439  0.2301 -0.8742
 3783TIP3    H111313   2.319   3.455   2.099 -0.7491 -1.1081 -0.3973
 3783TIP3    H211314   2.284   3.436   2.245  0.0173  1.4114  0.1548
 3784TIP3   OH211315   1.366   2.366   4.127 -0.0706  0.0876  0.4056
 3784TIP3    H111316   1.387   2.287   4.177 -0.0379 -0.0428  0.1857
 3784TIP3    H211317   1.427   2.364   4.053 -0.5294 -0.0424  0.0251
 3785TIP3   OH211318   1.042   5.086   5.692 -0.2056 -0.3943 -0.0569
 3785TIP3    H111319   1.073   5.115   5.778  0.5866 -3.6834  0.9137
 3785TIP3    H211320   1.047   5.164   5.637  0.1202  1.6261  2.6240
 3786TIP3   OH211321   5.234   3.567   3.993  0.0196  0.7090 -0.1421
 3786TIP3    H111322   5.170   3.638   4.001 -0.0062  1.1005 -2.8681
 3786TIP3    H211323   5.183   3.488   4.010 -0.0711  1.2159  2.3822
 3787TIP3   OH211324  -0.023   3.366   4.940 -0.6357  0.1662 -0.1145
 3787TIP3    H111325  -0.019   3.365   5.036 -0.6478  0.9804 -0.1031
 3787TIP3    H211326   0.062   3.398   4.913  0.2100 -2.1580 -0.4650
 3788TIP3   OH211327   2.698   4.622   0.529 -0.2033  0.4153  0.2188
 3788TIP3    H111328   2.763   4.641   0.596  0.6941  0.5124 -0.6460
 3788TIP3    H211329   2.738   4.555   0.474 -0.3443  1.2631 -0.9815
 3789TIP3   OH211330   4.274   3.057   1.737 -0.2106  0.0664  0.1519
 3789TIP3    H111331   4.222   3.091   1.664  1.0218 -0.8470 -1.2215
 3789TIP3    H211332   4.220   3.070   1.814 -1.4016  1.4304 -0.8780
 3790TIP3   OH211333   7.116   1.136   3.269 -0.4968  0.1630  0.4703
 3790TIP3    H111334   7.113   1.057   3.216  2.0209 -1.4743  2.5415
 3790TIP3    H211335   7.088   1.206   3.210  1.0452 -1.6685 -2.6788
 3791TIP3   OH211336   3.466   2.273   4.792  0.2790 -0.0913 -0.3852
 3791TIP3    H111337   3.514   2.312   4.719  0.5784 -0.6983 -0.5186
 3791TIP3    H211338   3.402   2.340   4.817 -0.6544 -0.3291 -1.9864
 3792TIP3   OH211339   0.007   0.146   3.854  0.9548  0.3084  0.6726
 3792TIP3    H111340  -0.064   0.100   3.809  1.1081  0.0903  0.6530
 3792TIP3    H211341   0.079   0.083   3.856  0.5939 -0.0931  2.2252
 3793TIP3   OH211342   3.090   4.021   3.701 -0.0919 -0.8806 -0.6238
 3793TIP3    H111343   3.010   4.015   3.752  0.2830  0.6142  0.1757
 3793TIP3    H211344   3.160   3.998   3.763  0.4220  1.4872 -0.2214
 3794TIP3   OH211345   4.149   6.623   2.448  0.3949 -0.3054 -0.2815
 3794TIP3    H111346   4.174   6.543   2.495 -1.0125 -1.0770 -0.7962
 3794TIP3    H211347   4.084   6.594   2.384  0.8605  1.0506 -1.4054
 3795TIP3   OH211348   6.739   1.893   3.198  0.3331 -0.1839 -0.2479
 3795TIP3    H111349   6.813   1.951   3.177  0.8794 -0.5164  0.6731
 3795TIP3    H211350   6.682   1.947   3.252  1.1696 -0.6585  1.1757
 3796TIP3   OH211351   2.730   1.008   0.689  0.0892  0.0033 -0.5367
 3796TIP3    H111352   2.685   0.942   0.742 -0.1881  0.8198  0.2770
 3796TIP3    H211353   2.749   0.964   0.606  0.1081 -1.1590  0.0678
 3797TIP3   OH211354   3.058   2.677   1.819  0.3441  0.6264  0.1416
 3797TIP3    H111355   3.028   2.587   1.809 -1.7810  1.3273 -0.3060
 3797TIP3    H211356   3.093   2.681   1.908  1.3273 -0.8376 -0.1532
 3798TIP3   OH211357   0.498   1.874   4.604  0.2177 -0.0927 -0.1750
 3798TIP3    H111358   0.522   1.961   4.635  1.0096 -0.1508 -0.5847
 3798TIP3    H211359   0.414   1.886   4.560  1.6257  1.0930 -2.8058
 3799TIP3   OH211360   1.976   3.713   3.423  0.2171 -0.6288 -0.3355
 3799TIP3    H111361   1.953   3.662   3.346 -0.6487 -0.3238 -0.2848
 3799TIP3    H211362   2.071   3.700   3.432 -0.0647 -2.7514  0.0785
 3800TIP3   OH211363   3.784   4.918   3.049  0.0367 -0.3548  0.0845
 3800TIP3    H111364   3.833   4.836   3.052  0.9864  0.1915 -0.3181
 3800TIP3    H211365   3.745   4.926   3.137 -0.0183 -1.1939  0.1474
 3801TIP3   OH211366   4.600   6.388   0.381 -0.7161  0.2832 -0.2388
 3801TIP3    H111367   4.512   6.356   0.399 -0.3216 -0.1958  0.9813
 3801TIP3    H211368   4.629   6.336   0.305 -1.6753  0.8526 -1.0095
 3802TIP3   OH211369   4.797   1.904   1.329  0.3061  0.1954 -0.1033
 3802TIP3    H111370   4.825   1.929   1.241 -0.6868 -0.7671 -0.7213
 3802TIP3    H211371   4.765   1.814   1.319  0.7154 -0.1332  1.3635
 3803TIP3   OH211372   3.994   1.950   2.206  0.0776  0.3122  0.5536
 3803TIP3    H111373   4.065   2.001   2.167 -0.2825  1.1246  0.9381
 3803TIP3    H211374   3.914   1.994   2.177 -0.2870 -0.7086 -0.0327
 3804TIP3   OH211375   4.686   6.630   4.565 -0.2127  0.3870  0.0332
 3804TIP3    H111376   4.707   6.714   4.526  1.5450 -0.1586 -0.2828
 3804TIP3    H211377   4.661   6.650   4.655  1.8373  1.1185  0.4815
 3805TIP3   OH211378   5.242   5.329   1.217 -0.4992  0.1167 -0.6157
 3805TIP3    H111379   5.321   5.380   1.232 -0.7686  0.2876  0.2682
 3805TIP3    H211380   5.179   5.392   1.182 -0.6319  0.2599 -0.1282
 3806TIP3   OH211381   4.085   4.374   3.581  0.0545 -0.1188  0.1097
 3806TIP3    H111382   4.157   4.428   3.549  0.4113 -1.3927 -1.3579
 3806TIP3    H211383   4.013   4.392   3.520 -0.2881 -0.1870  0.4928
 3807TIP3   OH211384   4.546   4.368   0.149  0.2234 -0.2450  0.9959
 3807TIP3    H111385   4.458   4.390   0.180  0.3864 -1.0632  2.1216
 3807TIP3    H211386   4.603   4.389   0.223  0.7757 -1.1723  0.8533
 3808TIP3   OH211387   5.781   6.141   1.727 -0.0702  0.2139 -0.7157
 3808TIP3    H111388   5.873   6.141   1.752 -0.2549  0.8661  0.0265
 3808TIP3    H211389   5.780   6.173   1.637  0.5644 -1.5643 -1.3863
 3809TIP3   OH211390   1.191   6.061   5.195  0.3758 -0.0669 -0.1967
 3809TIP3    H111391   1.242   6.122   5.248 -1.1255  1.3869 -0.3504
 3809TIP3    H211392   1.183   6.104   5.110  1.6131 -1.7684 -1.2366
 3810TIP3   OH211393   1.858   4.788   0.048 -0.6023  0.8010  0.2027
 3810TIP3    H111394   1.865   4.701   0.009 -1.5271 -0.1965  2.1251
 3810TIP3    H211395   1.920   4.841  -0.001  0.6459 -1.1451 -0.4510
 3811TIP3   OH211396   1.720   3.216   4.676  0.1730 -0.0212  0.1660
 3811TIP3    H111397   1.781   3.144   4.662  2.4942  1.3889  2.1883
 3811TIP3    H211398   1.708   3.219   4.771 -1.5734  0.9426 -0.0386
 3812TIP3   OH211399   0.115   0.754   2.627 -0.4197  0.1883  0.4800
 3812TIP3    H111400   0.177   0.761   2.700 -0.1879  0.2093  0.2845
 3812TIP3    H211401   0.065   0.836   2.631  1.2789  1.3574 -0.8917
 3813TIP3   OH211402   0.191   1.954   4.181  0.4649 -0.0450  0.9078
 3813TIP3    H111403   0.250   1.917   4.116  0.4480  0.3435  0.6707
 3813TIP3    H211404   0.176   2.043   4.152 -0.4082 -0.2032  0.8580
 3814TIP3   OH211405   5.742   3.623   5.460 -0.0840 -0.5543  0.7846
 3814TIP3    H111406   5.657   3.662   5.442  0.4175  0.8388  1.2921
 3814TIP3    H211407   5.785   3.617   5.375 -0.8017 -1.5857  0.4785
 3815TIP3   OH211408   0.663   2.393   2.199  0.2906  0.1331  0.0893
 3815TIP3    H111409   0.706   2.325   2.148  0.1833  0.2569 -0.1662
 3815TIP3    H211410   0.640   2.461   2.135  2.5429  1.5424  0.6590
 3816TIP3   OH211411   0.420   4.191   4.289  1.0201  0.3091 -0.4590
 3816TIP3    H111412   0.486   4.180   4.220 -1.3649  0.3286 -2.8907
 3816TIP3    H211413   0.451   4.135   4.361  3.6056  0.2710 -1.5100
 3817TIP3   OH211414   4.234   6.510   5.813 -0.0638  0.8452 -0.8062
 3817TIP3    H111415   4.259   6.425   5.849  0.5673  0.0042 -3.0477
 3817TIP3    H211416   4.159   6.492   5.757 -1.1218  2.1282  0.1303
 3818TIP3   OH211417   4.880   0.692   3.697 -0.2275  0.0909 -0.1356
 3818TIP3    H111418   4.967   0.686   3.737  1.2271  0.9538 -2.9083
 3818TIP3    H211419   4.873   0.614   3.642 -0.6677  0.6344 -0.8693
 3819TIP3   OH211420   3.299   0.612   0.849  0.0747 -0.1364 -0.0600
 3819TIP3    H111421   3.380   0.564   0.831  1.2850  1.7446 -0.0220
 3819TIP3    H211422   3.241   0.591   0.776  1.8831  1.0502 -1.9480
 3820TIP3   OH211423   0.666   6.301   2.109  0.5445  0.6567  0.1923
 3820TIP3    H111424   0.581   6.330   2.074  0.2509 -1.5754 -1.1073
 3820TIP3    H211425   0.644   6.258   2.191  0.3573 -0.2257 -0.3126
 3821TIP3   OH211426   3.507   5.147   1.478  0.4320 -0.1013 -0.1911
 3821TIP3    H111427   3.582   5.126   1.533  1.9706  0.3363 -2.0196
 3821TIP3    H211428   3.489   5.240   1.496  0.3440 -0.1943  0.2155
 3822TIP3   OH211429   7.095   2.549   5.447  0.1588  0.0272 -0.2826
 3822TIP3    H111430   7.005   2.536   5.416  0.0836  0.8143 -0.4202
 3822TIP3    H211431   7.103   2.491   5.523 -0.3882 -0.2182 -0.4047
 3823TIP3   OH211432   0.231   6.065   3.202  0.4908  0.0555 -0.6358
 3823TIP3    H111433   0.242   6.145   3.151 -1.4711  0.5096 -0.4523
 3823TIP3    H211434   0.233   6.093   3.293  0.9616 -0.2843 -0.5399
 3824TIP3   OH211435   1.270   5.498   3.057 -0.5610  0.6843 -0.2848
 3824TIP3    H111436   1.297   5.569   3.115 -3.0639  2.1682 -0.7724
 3824TIP3    H211437   1.191   5.531   3.015 -0.8290 -1.7495 -1.8671
 3825TIP3   OH211438   3.492   1.308   2.810  0.3015  0.2097 -0.4850
 3825TIP3    H111439   3.523   1.230   2.765  0.8013  0.5159 -0.6903
 3825TIP3    H211440   3.533   1.304   2.897 -0.2151 -0.0964 -0.2508
 3826TIP3   OH211441   3.191   0.170   0.754 -0.4078 -1.0140  0.3812
 3826TIP3    H111442   3.162   0.136   0.839 -0.5967  0.8295  1.0938
 3826TIP3    H211443   3.110   0.178   0.703 -1.2961  3.3009  2.0749
 3827TIP3   OH211444   4.611   0.424   4.760 -0.2719  0.2638  0.1237
 3827TIP3    H111445   4.614   0.329   4.773 -1.8088  0.2275  0.4217
 3827TIP3    H211446   4.520   0.447   4.776 -0.3179  1.5455 -1.6535
 3828TIP3   OH211447   3.478   4.202   5.334 -0.1181 -0.1678  0.4112
 3828TIP3    H111448   3.530   4.126   5.305  0.0407  0.2760 -0.4973
 3828TIP3    H211449   3.388   4.171   5.330 -0.0515 -0.3332  0.1024
 3829TIP3   OH211450   5.972   1.214   2.836 -0.8286  0.1736 -0.6873
 3829TIP3    H111451   5.910   1.160   2.886 -2.1935  2.3556  0.0944
 3829TIP3    H211452   6.024   1.258   2.903 -0.7290  0.9435 -1.2603
 3830TIP3   OH211453   4.625   1.206   4.376  0.5379  0.1795 -0.7426
 3830TIP3    H111454   4.670   1.241   4.299 -0.1236  0.0853 -1.1770
 3830TIP3    H211455   4.581   1.127   4.344 -0.4543  0.6117 -0.4694
 3831TIP3   OH211456   6.838   2.514   3.357  0.1649 -0.0516  0.0329
 3831TIP3    H111457   6.789   2.492   3.278  1.2492  2.1579 -1.3624
 3831TIP3    H211458   6.838   2.609   3.360  3.2309  0.0502  0.6252
 3832TIP3   OH211459   0.603   2.942   2.337  0.3748 -0.4331  0.0236
 3832TIP3    H111460   0.541   2.935   2.265  1.3272  1.3921 -1.0480
 3832TIP3    H211461   0.558   2.993   2.404  0.1959 -0.4160 -0.1110
 3833TIP3   OH211462   3.574   2.139   0.510 -0.4154  0.3219 -0.1978
 3833TIP3    H111463   3.627   2.214   0.485 -0.5319  0.5460  0.2191
 3833TIP3    H211464   3.573   2.140   0.605 -1.9647  0.9059 -0.1835
 3834TIP3   OH211465   5.531   5.281   2.020  0.3112  0.0996 -0.2315
 3834TIP3    H111466   5.605   5.271   1.960  0.4680 -0.7964  0.1017
 3834TIP3    H211467   5.524   5.376   2.033  2.0079  0.1599  0.4736
 3835TIP3   OH211468   3.240   1.456   4.961  0.1021  0.2497 -0.2180
 3835TIP3    H111469   3.287   1.479   4.881 -1.4365 -0.3140 -1.3286
 3835TIP3    H211470   3.296   1.389   5.002  0.9170  0.5470 -0.8097
 3836TIP3   OH211471   0.479   1.351   4.394 -0.1194  0.1870 -0.6221
 3836TIP3    H111472   0.455   1.442   4.379  1.6985  1.1257  1.6181
 3836TIP3    H211473   0.463   1.337   4.487  0.8827 -1.3821 -0.6443
 3837TIP3   OH211474   5.433   4.362   3.086  0.6239  0.2653  0.2748
 3837TIP3    H111475   5.518   4.405   3.077 -0.3254  2.2142  0.1231
 3837TIP3    H211476   5.407   4.380   3.176  1.0330 -1.7352  0.8592
 3838TIP3   OH211477   6.980   5.958   2.874  0.8990 -0.4337  0.4358
 3838TIP3    H111478   7.024   5.985   2.954  2.4876  1.4189 -0.9584
 3838TIP3    H211479   6.986   6.034   2.816 -1.0989 -1.3432 -1.1019
 3839TIP3   OH211480   4.256   0.819   3.248 -0.1157 -0.4955  1.0677
 3839TIP3    H111481   4.279   0.804   3.156 -0.1344 -0.2267  1.0188
 3839TIP3    H211482   4.178   0.766   3.263 -0.9997  0.6053  0.5184
 3840TIP3   OH211483   4.769   5.886   4.640  0.2602  0.0822  0.1167
 3840TIP3    H111484   4.750   5.857   4.729  0.4889 -0.3276  0.0364
 3840TIP3    H211485   4.864   5.883   4.633  0.2676  0.5378 -0.0034
 3841TIP3   OH211486   0.756   2.996   5.023  0.2544  0.3419 -0.2340
 3841TIP3    H111487   0.765   3.025   4.932  1.4066 -0.9770 -0.5856
 3841TIP3    H211488   0.827   3.039   5.070  0.1355  0.4145 -0.1184
 3842TIP3   OH211489   4.279   0.561   0.982 -0.7347 -0.1748  0.5306
 3842TIP3    H111490   4.215   0.627   1.009 -1.1087 -0.6008  0.7068
 3842TIP3    H211491   4.276   0.494   1.051 -2.1416 -1.5748 -0.7996
 3843TIP3   OH211492   2.521   0.919   2.210  0.3467 -0.6380 -0.0884
 3843TIP3    H111493   2.489   0.942   2.297  0.1361 -0.5071 -0.2010
 3843TIP3    H211494   2.542   0.826   2.216  0.7309 -0.5365  0.2241
 3844TIP3   OH211495   1.770   0.211   0.485  0.2172  0.4293 -0.7213
 3844TIP3    H111496   1.698   0.178   0.432  0.6842  0.8010 -1.6070
 3844TIP3    H211497   1.751   0.179   0.574 -1.0740  0.6003 -0.9166
 3845TIP3   OH211498   0.866   5.596   3.323  0.4605  0.1180 -0.5137
 3845TIP3    H111499   0.871   5.517   3.269 -1.5761 -0.4678  0.0523
 3845TIP3    H211500   0.877   5.565   3.413 -2.8146 -0.0126 -0.0366
 3846TIP3   OH211501   0.242   0.786   2.378 -0.1914 -0.1652  0.6839
 3846TIP3    H111502   0.223   0.744   2.462  0.2158 -0.2887  0.7185
 3846TIP3    H211503   0.311   0.849   2.398  0.1471 -0.4329  0.3813
 3847TIP3   OH211504   6.337   2.350   4.372  0.0078 -0.4923 -0.0366
 3847TIP3    H111505   6.252   2.316   4.344  0.3316  1.2671 -3.6631
 3847TIP3    H211506   6.330   2.445   4.358  1.9463 -0.0574  1.5160
 3848TIP3   OH211507   1.698   6.719   5.832  0.1387  0.0441 -0.0463
 3848TIP3    H111508   1.664   6.791   5.885 -0.7171 -0.5758  0.2637
 3848TIP3    H211509   1.627   6.655   5.830  1.5711 -1.6922  1.3779
 3849TIP3   OH211510   3.526   2.705   1.424  0.0810 -1.1355 -0.9332
 3849TIP3    H111511   3.502   2.647   1.497 -0.4098 -2.0708 -1.8143
 3849TIP3    H211512   3.459   2.689   1.358  0.3008 -0.0117 -1.4546
 3850TIP3   OH211513   6.701   2.412   3.673 -0.5318 -0.0007 -0.4702
 3850TIP3    H111514   6.772   2.409   3.609 -0.5787  1.7828 -0.6375
 3850TIP3    H211515   6.716   2.492   3.723  0.3706 -1.9974  2.8214
 3851TIP3   OH211516   2.386   5.979   5.568 -0.1598  0.4650  0.1705
 3851TIP3    H111517   2.307   6.032   5.583 -0.0089  1.4433 -2.1633
 3851TIP3    H211518   2.415   6.003   5.480  1.5171 -1.5026  0.1195
 3852TIP3   OH211519   6.423   1.422   4.082  0.3522  0.5476  0.5976
 3852TIP3    H111520   6.453   1.335   4.108  1.2624  0.5625 -0.3195
 3852TIP3    H211521   6.436   1.476   4.160  0.5281  0.0255  0.9327
 3853TIP3   OH211522   7.013   2.510   5.154 -0.0032 -0.5893  0.7145
 3853TIP3    H111523   7.087   2.570   5.141 -1.1150  0.5355 -0.6685
 3853TIP3    H211524   6.966   2.547   5.229 -0.5434  0.1515  0.0243
 3854TIP3   OH211525   6.952   3.497   4.796  0.7637 -0.0564  0.2395
 3854TIP3    H111526   6.969   3.533   4.709 -0.1744 -0.3101 -0.0563
 3854TIP3    H211527   7.032   3.450   4.818  0.6063 -0.9098 -0.9562
 3855TIP3   OH211528   2.485   5.443   4.164 -0.2037 -1.0929 -0.3080
 3855TIP3    H111529   2.432   5.366   4.146 -1.9581 -0.2922  1.1482
 3855TIP3    H211530   2.459   5.471   4.251  0.6120  0.9563 -0.6614
 3856TIP3   OH211531   1.369   5.974   2.454 -0.1066  0.1971  0.2018
 3856TIP3    H111532   1.435   5.905   2.451 -2.7325 -2.5035 -0.3642
 3856TIP3    H211533   1.363   5.998   2.547  0.3917 -0.8861  0.5281
 3857TIP3   OH211534   2.707   1.159   5.590  1.0985  0.1299 -0.3833
 3857TIP3    H111535   2.770   1.218   5.631  0.7864 -0.6494  1.3271
 3857TIP3    H211536   2.633   1.156   5.652 -0.2868  0.4161 -1.9524
 3858TIP3   OH211537   1.625   3.986   0.623 -0.5120 -0.0593 -0.5339
 3858TIP3    H111538   1.577   3.921   0.572  0.5855 -3.2249  2.0826
 3858TIP3    H211539   1.564   4.015   0.690 -0.5661  0.5405 -0.8375
 3859TIP3   OH211540   0.460   3.164   4.864  0.2169 -0.2977  0.0006
 3859TIP3    H111541   0.548   3.148   4.829 -0.7716 -0.2333 -2.7445
 3859TIP3    H211542   0.416   3.078   4.859 -0.3156 -0.0294 -0.0105
 3860TIP3   OH211543   0.840   5.513   0.718 -0.1073  0.0937 -0.2081
 3860TIP3    H111544   0.900   5.445   0.749  0.9256  0.3680 -1.5056
 3860TIP3    H211545   0.886   5.595   0.737 -0.1381  0.3143 -1.0517
 3861TIP3   OH211546   4.638   0.323   1.006 -0.3187 -0.0661 -0.0293
 3861TIP3    H111547   4.657   0.230   1.022 -1.3974 -0.6677 -1.9264
 3861TIP3    H211548   4.566   0.343   1.066  0.2339 -0.2869  0.7329
 3862TIP3   OH211549   1.953   0.834   1.031 -0.2988 -0.1059  0.3361
 3862TIP3    H111550   1.977   0.899   1.097  0.0623 -0.2876  0.3882
 3862TIP3    H211551   1.877   0.789   1.067 -1.3611  1.1443 -0.2682
 3863TIP3   OH211552   1.923   3.662   2.824 -0.1113  0.7006 -0.4421
 3863TIP3    H111553   1.884   3.734   2.773  0.1692  1.1026 -0.0931
 3863TIP3    H211554   2.014   3.660   2.796 -0.1214  0.4743 -0.4570
 3864TIP3   OH211555   5.181   4.678   5.758 -0.2885 -0.0021 -0.9168
 3864TIP3    H111556   5.125   4.741   5.712 -2.4333 -1.6484 -0.7029
 3864TIP3    H211557   5.189   4.605   5.697  0.7839 -0.2294 -0.5111
 3865TIP3   OH211558   4.404   1.500   4.608 -0.2158 -0.3452  1.1945
 3865TIP3    H111559   4.395   1.410   4.641 -2.4345 -0.5595  0.2134
 3865TIP3    H211560   4.361   1.554   4.675 -3.8873 -0.6887 -0.5992
 3866TIP3   OH211561   0.075   1.599   3.349  0.3587  0.3758 -0.0988
 3866TIP3    H111562   0.153   1.628   3.302 -0.1303  2.5387  0.3162
 3866TIP3    H211563   0.057   1.670   3.411 -1.8381 -0.1396 -0.0643
 3867TIP3   OH211564   5.673   2.458  -0.016  0.1434 -0.3000 -0.0609
 3867TIP3    H111565   5.752   2.450   0.038  1.2477 -0.5643 -1.6660
 3867TIP3    H211566   5.620   2.382   0.009  0.1971  0.0661  1.2866
 3868TIP3   OH211567   6.156   6.750   4.853 -0.2107 -0.0737 -0.3237
 3868TIP3    H111568   6.240   6.794   4.836 -0.5338  0.1365 -1.4872
 3868TIP3    H211569   6.177   6.656   4.849 -0.1622 -0.0264 -1.3917
 3869TIP3   OH211570   5.531   3.587   2.613  0.1249  0.2168  0.2037
 3869TIP3    H111571   5.497   3.670   2.579 -2.4431 -0.9770 -0.4325
 3869TIP3    H211572   5.481   3.573   2.694 -0.1754 -1.1130 -0.1931
 3870TIP3   OH211573   3.367   4.110   0.565  0.3137  0.3789  0.2159
 3870TIP3    H111574   3.285   4.142   0.603  0.8044  0.9440  0.8090
 3870TIP3    H211575   3.345   4.023   0.531 -0.0692 -0.3285  2.1230
 3871TIP3   OH211576   6.958   3.345   3.713 -0.7220  0.5268 -0.0736
 3871TIP3    H111577   7.030   3.282   3.714  1.0258  2.3910 -0.7097
 3871TIP3    H211578   6.883   3.296   3.681  0.0407 -1.6968  1.3270
 3872TIP3   OH211579   2.416   1.060   5.777 -0.0161 -0.8880 -0.1951
 3872TIP3    H111580   2.456   1.011   5.849  0.5737 -1.9886 -1.2270
 3872TIP3    H211581   2.397   0.994   5.711  1.7065  0.3514 -2.0644
 3873TIP3   OH211582   2.236   4.183   4.393  0.5970 -0.1264 -0.3176
 3873TIP3    H111583   2.149   4.178   4.353 -0.3677  0.4244  1.5776
 3873TIP3    H211584   2.265   4.091   4.397  0.0386 -0.3329 -0.8287
 3874TIP3   OH211585   1.536   2.758   5.613 -0.0984 -0.6168  0.2009
 3874TIP3    H111586   1.576   2.734   5.530  1.5352 -0.2844  0.8553
 3874TIP3    H211587   1.591   2.828   5.647 -1.6564  0.3550  0.8491
 3875TIP3   OH211588   5.291   3.285   3.525  0.3001  0.6404 -0.7112
 3875TIP3    H111589   5.277   3.310   3.617 -0.9446  0.7682 -0.9102
 3875TIP3    H211590   5.335   3.201   3.530 -1.2671 -0.1822  0.0506
 3876TIP3   OH211591   4.587   4.016   1.297  0.0696 -0.3105 -0.4400
 3876TIP3    H111592   4.553   4.055   1.377 -2.4059  0.7998 -1.9040
 3876TIP3    H211593   4.676   4.049   1.290 -0.6029  1.8557  0.4451
 3877TIP3   OH211594   3.105   6.476   5.365 -0.5760  0.0065 -0.4494
 3877TIP3    H111595   3.020   6.519   5.370 -0.4173  0.4579 -1.4455
 3877TIP3    H211596   3.160   6.538   5.317  0.6384  0.2248  1.1648
 3878TIP3   OH211597   0.467   6.454   0.966  0.3258 -0.5617 -0.1558
 3878TIP3    H111598   0.387   6.485   0.925  0.4500 -1.3820 -1.0715
 3878TIP3    H211599   0.484   6.369   0.924  0.6767 -1.2608  1.3263
 3879TIP3   OH211600   3.185   0.998   3.007 -0.3468  0.0421  0.0385
 3879TIP3    H111601   3.223   0.936   3.069  0.7992  1.3134  0.6730
 3879TIP3    H211602   3.239   1.077   3.017 -0.3332  0.3898 -2.3496
 3880TIP3   OH211603   5.701   4.303   5.446  0.4700 -0.4548 -0.4298
 3880TIP3    H111604   5.645   4.320   5.371  1.4214 -0.1665 -1.0883
 3880TIP3    H211605   5.670   4.363   5.514 -0.7726 -1.1249 -0.3764
 3881TIP3   OH211606   3.284   1.178   1.429 -0.4660  0.0738  0.4899
 3881TIP3    H111607   3.236   1.173   1.511 -0.7123  0.1271  0.3507
 3881TIP3    H211608   3.341   1.101   1.429 -0.0245  0.3964  0.9829
 3882TIP3   OH211609   5.296   1.318   1.224  0.3890 -0.0145 -0.0313
 3882TIP3    H111610   5.325   1.352   1.309  1.1008 -0.5508 -0.0451
 3882TIP3    H211611   5.303   1.223   1.234 -0.8105 -0.1395 -0.2486
 3883TIP3   OH211612   0.071   3.298   3.672 -0.3355  0.3742 -0.2579
 3883TIP3    H111613   0.109   3.306   3.584 -2.2796 -0.2929 -1.2129
 3883TIP3    H211614   0.051   3.387   3.698  3.0183  0.9311  0.8900
 3884TIP3   OH211615   2.692   6.678   3.661 -0.4281 -1.1503 -0.1874
 3884TIP3    H111616   2.744   6.749   3.623 -1.6189 -0.8533 -1.3515
 3884TIP3    H211617   2.726   6.667   3.749 -1.2529  2.0101  0.6529
 3885TIP3   OH211618   0.346   2.925   2.213 -0.0338  0.6040 -0.2330
 3885TIP3    H111619   0.392   3.001   2.178 -0.3900  0.6707 -0.5529
 3885TIP3    H211620   0.298   2.889   2.138  1.8132 -1.2081 -0.6530
 3886TIP3   OH211621   2.619   2.660   0.496  0.1209  0.2972  0.0607
 3886TIP3    H111622   2.632   2.739   0.549 -0.0676 -0.2264  0.8926
 3886TIP3    H211623   2.555   2.608   0.545 -0.1367 -0.1466 -0.7330
 3887TIP3   OH211624   0.661   1.061   2.506  0.2026 -0.3231  0.1284
 3887TIP3    H111625   0.704   1.039   2.423  0.2189 -1.8772  0.5167
 3887TIP3    H211626   0.710   1.137   2.538  1.5963 -1.0159 -0.2547
 3888TIP3   OH211627   5.595   0.551   3.968  0.2357 -0.7173 -0.4626
 3888TIP3    H111628   5.594   0.472   4.021  2.0053 -0.6383 -0.2380
 3888TIP3    H211629   5.688   0.568   3.952 -0.0577  1.4948 -0.2034
 3889TIP3   OH211630   4.825   4.843   0.568 -0.6161 -0.6350 -0.1515
 3889TIP3    H111631   4.787   4.763   0.532  0.9731 -2.5789  2.1573
 3889TIP3    H211632   4.800   4.841   0.661  1.7157  0.0949  0.5476
 3890TIP3   OH211633   0.795   1.534   2.182  0.1363 -0.2687 -0.1004
 3890TIP3    H111634   0.766   1.485   2.105  0.4873 -1.2034  0.3452
 3890TIP3    H211635   0.872   1.582   2.153 -1.2382  1.4894 -1.0378
 3891TIP3   OH211636   3.671   0.355   3.699 -0.7025 -0.3596 -0.4584
 3891TIP3    H111637   3.591   0.383   3.742  0.5025  0.2706  1.4649
 3891TIP3    H211638   3.720   0.308   3.766  0.4552 -0.9430 -1.6593
 3892TIP3   OH211639   3.794   3.438   5.042 -0.1570 -0.1391  0.2220
 3892TIP3    H111640   3.757   3.381   5.110  0.7407 -0.1634  0.7050
 3892TIP3    H211641   3.844   3.503   5.091 -1.3585  1.2253 -0.3107
 3893TIP3   OH211642   1.141   5.831   0.415 -0.1104 -0.2719  0.1585
 3893TIP3    H111643   1.100   5.820   0.501  1.0436 -0.7880  0.6621
 3893TIP3    H211644   1.177   5.744   0.395  1.6380  0.4176  0.2069
 3894TIP3   OH211645   5.314   2.917   2.466  0.1946  0.6816  0.9436
 3894TIP3    H111646   5.251   2.863   2.513 -0.4460  0.2198 -0.3983
 3894TIP3    H211647   5.268   2.943   2.386  0.7016  2.7319  1.2684
 3895TIP3   OH211648   0.947   6.167   5.273  0.0013  0.2001 -0.6863
 3895TIP3    H111649   0.887   6.094   5.281  0.2832 -0.2651 -2.4433
 3895TIP3    H211650   1.032   6.131   5.298  0.4957 -0.6708 -3.2959
 3896TIP3   OH211651   4.766   0.750   4.969 -0.1102 -0.3211 -0.5791
 3896TIP3    H111652   4.764   0.659   4.937 -0.6473 -0.7395  0.5773
 3896TIP3    H211653   4.855   0.760   5.003 -0.6551 -1.1253  1.1794
 3897TIP3   OH211654   0.571   1.448   1.222 -0.0712  0.2554 -0.0342
 3897TIP3    H111655   0.512   1.496   1.164 -1.2560 -0.7266  0.3216
 3897TIP3    H211656   0.529   1.450   1.307  1.3100  1.0605  0.6616
 3898TIP3   OH211657   2.708   3.357   4.496  0.3851 -0.5918 -0.0393
 3898TIP3    H111658   2.699   3.358   4.401  0.6694 -1.5136 -0.0838
 3898TIP3    H211659   2.620   3.337   4.528  0.5208 -1.3822 -0.1529
 3899TIP3   OH211660   4.094   2.632   1.973  0.0337 -0.1954 -0.4319
 3899TIP3    H111661   4.157   2.585   2.026  0.9456  1.1954 -0.2296
 3899TIP3    H211662   4.096   2.587   1.888 -1.0204 -2.0759  0.4757
 3900TIP3   OH211663   7.227   1.214   5.353 -0.1993 -0.3649  0.4174
 3900TIP3    H111664   7.168   1.188   5.424 -2.1113  1.0099 -0.5897
 3900TIP3    H211665   7.192   1.171   5.276  0.4951 -0.0026 -0.1154
 3901TIP3   OH211666   2.673   0.367   4.746 -0.3542 -0.0300 -0.2669
 3901TIP3    H111667   2.717   0.373   4.831  0.3154  0.6832 -0.6490
 3901TIP3    H211668   2.644   0.276   4.740  0.2096 -0.2650  0.4230
 3902TIP3   OH211669   1.348   0.439   0.797  0.1968  0.1557  0.1489
 3902TIP3    H111670   1.273   0.493   0.818 -1.1323 -0.3486 -2.7186
 3902TIP3    H211671   1.312   0.351   0.786  1.3467 -0.2619 -0.4593
 3903TIP3   OH211672   6.543   0.596   4.373 -0.1549  0.0404  0.0817
 3903TIP3    H111673   6.629   0.584   4.412  0.1820  1.0314 -0.3162
 3903TIP3    H211674   6.481   0.575   4.443  0.4264  0.2590  0.6670
 3904TIP3   OH211675   6.169   5.224   4.177  0.0356  0.4471  0.0080
 3904TIP3    H111676   6.087   5.195   4.218  0.0323  0.6937  0.1832
 3904TIP3    H211677   6.175   5.316   4.200  1.5889 -0.1055  2.1230
 3905TIP3   OH211678   5.425   4.958   4.137 -0.2093 -0.0341  0.1421
 3905TIP3    H111679   5.369   4.968   4.060  1.1933  0.6531 -0.8333
 3905TIP3    H211680   5.398   5.029   4.195 -0.1525  0.4822 -0.4515
 3906TIP3   OH211681   0.714   5.888   4.000 -0.0420 -0.0779  0.3813
 3906TIP3    H111682   0.703   5.889   3.905  0.0936 -1.1288  0.3464
 3906TIP3    H211683   0.633   5.851   4.033  0.0150  0.0457  0.6618
 3907TIP3   OH211684   0.467   2.269   3.209 -0.0704  0.4094 -0.7304
 3907TIP3    H111685   0.390   2.303   3.163 -0.0425 -1.4310 -2.2641
 3907TIP3    H211686   0.458   2.174   3.202  2.0648  0.1497 -0.4451
 3908TIP3   OH211687   2.866   2.685   3.854  0.5291 -0.6606 -0.5187
 3908TIP3    H111688   2.943   2.703   3.800 -0.0830 -1.3236 -1.6693
 3908TIP3    H211689   2.793   2.691   3.793 -0.1621 -1.7530  0.1739
 3909TIP3   OH211690   3.838   5.447   3.662 -0.2336  0.4164  0.2975
 3909TIP3    H111691   3.914   5.448   3.604 -0.5395 -0.6252 -0.1406
 3909TIP3    H211692   3.860   5.385   3.731 -0.7875 -0.1103  0.0099
 3910TIP3   OH211693   2.077   3.125   5.218 -0.2304 -0.0616  0.9684
 3910TIP3    H111694   2.169   3.112   5.195  0.1233  0.5244  2.0010
 3910TIP3    H211695   2.072   3.215   5.250 -1.7440  0.9652 -1.7767
 3911TIP3   OH211696   4.545   2.252   0.490 -0.0188  0.5781  0.6324
 3911TIP3    H111697   4.624   2.255   0.437  0.1197  1.1091  0.8595
 3911TIP3    H211698   4.576   2.241   0.580 -0.2846 -1.3271  0.5400
 3912TIP3   OH211699   3.400   0.347   0.698 -0.0430  0.2738 -0.6483
 3912TIP3    H111700   3.320   0.308   0.734 -0.1431  1.4642  0.4991
 3912TIP3    H211701   3.471   0.306   0.748 -0.2079  2.2919  1.3867
 3913TIP3   OH211702   4.195   0.905   1.185  0.3758  0.2759  0.5368
 3913TIP3    H111703   4.176   0.999   1.178  0.4615  0.1802 -1.5743
 3913TIP3    H211704   4.126   0.862   1.135  0.0233 -0.8715  1.9277
 3914TIP3   OH211705   0.707   5.366   2.426 -0.0570  0.2825 -0.6196
 3914TIP3    H111706   0.729   5.458   2.438 -0.2829  0.2696 -0.1091
 3914TIP3    H211707   0.785   5.319   2.456 -1.0586  0.1975  2.1308
 3915TIP3   OH211708   3.039   2.063   0.837  0.0557  0.2706  0.8074
 3915TIP3    H111709   3.132   2.062   0.814 -0.4764  0.7112 -1.6864
 3915TIP3    H211710   3.024   1.978   0.878  1.1948 -0.6046 -0.4803
 3916TIP3   OH211711   1.059   1.732   0.471  0.0769 -0.9760 -0.2177
 3916TIP3    H111712   1.102   1.711   0.554  0.5189 -0.1860 -0.2404
 3916TIP3    H211713   0.973   1.767   0.497  0.0976 -1.0041 -0.1111
 3917TIP3   OH211714   3.834   4.024   1.766 -0.0408  0.0820  0.3893
 3917TIP3    H111715   3.797   4.112   1.760 -0.5479 -0.0901  0.9061
 3917TIP3    H211716   3.761   3.966   1.747  0.0949 -0.2469  0.8477
 3918TIP3   OH211717   0.051   1.145   3.656 -0.0188 -0.2078  0.0230
 3918TIP3    H111718   0.002   1.224   3.679  0.9451  0.4443 -0.1212
 3918TIP3    H211719   0.077   1.108   3.740 -0.5871 -0.4597  0.0954
 3919TIP3   OH211720   2.379   3.306   3.870 -0.3886  0.6417  0.0308
 3919TIP3    H111721   2.466   3.344   3.887  0.3703 -1.2032  0.5395
 3919TIP3    H211722   2.345   3.286   3.957 -1.3084  1.2503 -0.1786
 3920TIP3   OH211723   4.330   1.912   0.592 -0.2945  0.0122  0.7793
 3920TIP3    H111724   4.416   1.881   0.621 -0.2068  0.2206  0.7499
 3920TIP3    H211725   4.340   1.928   0.498 -0.0435  1.0678  0.9714
 3921TIP3   OH211726   7.025   4.400   2.958  0.0511  0.2179 -0.0725
 3921TIP3    H111727   6.948   4.379   2.906  0.3118  0.5916 -0.6139
 3921TIP3    H211728   7.010   4.355   3.041 -0.7537  0.2901 -0.1657
 3922TIP3   OH211729   4.967   1.224   2.261 -0.8280 -0.0960 -0.4645
 3922TIP3    H111730   4.946   1.307   2.218 -2.9236 -0.3335 -0.0220
 3922TIP3    H211731   4.885   1.198   2.303 -1.0147 -3.6479 -2.6297
 3923TIP3   OH211732   4.688   4.530   5.048  0.5756 -0.0554  0.5060
 3923TIP3    H111733   4.611   4.583   5.030  0.6903 -0.7978 -2.7664
 3923TIP3    H211734   4.668   4.486   5.131 -0.9063  2.4797  1.5924
 3924TIP3   OH211735   6.078   3.558   2.918 -0.2792 -0.4123 -0.4352
 3924TIP3    H111736   6.047   3.510   2.995 -1.2480  1.1054  0.1674
 3924TIP3    H211737   6.001   3.564   2.861 -0.0516  0.0216 -0.6991
 3925TIP3   OH211738   2.985   3.816   4.183 -0.5303  0.4208  0.6044
 3925TIP3    H111739   2.907   3.835   4.130 -0.5919 -1.0488  0.1277
 3925TIP3    H211740   3.005   3.899   4.226 -0.5308  1.6677 -1.6214
 3926TIP3   OH211741   1.444   1.589   4.239  0.0167  0.1408 -0.6265
 3926TIP3    H111742   1.389   1.549   4.307 -0.6663 -0.4752 -1.5247
 3926TIP3    H211743   1.464   1.517   4.179  0.9906  0.5773 -0.8491
 3927TIP3   OH211744   3.473   3.009   0.691 -0.1273 -0.4530 -0.2213
 3927TIP3    H111745   3.563   3.026   0.718 -0.3981 -0.3145  0.5984
 3927TIP3    H211746   3.450   3.084   0.636  0.8702 -1.3759 -1.9980
 3928TIP3   OH211747   3.313   2.334   1.100  0.1796 -0.7086  0.2779
 3928TIP3    H111748   3.342   2.366   1.015  1.4981  0.2130  1.0423
 3928TIP3    H211749   3.337   2.241   1.100  1.1824 -0.4575  0.0685
 3929TIP3   OH211750   4.462   6.434   3.821 -0.3784 -0.2413 -0.0818
 3929TIP3    H111751   4.405   6.359   3.837  0.3872 -1.7295 -3.4093
 3929TIP3    H211752   4.443   6.495   3.893 -2.7402 -2.5843  1.4658
 3930TIP3   OH211753   5.855   2.366   0.275  0.7947 -0.2473 -0.4783
 3930TIP3    H111754   5.811   2.451   0.269  1.2508  0.0729  0.4267
 3930TIP3    H211755   5.835   2.335   0.363 -0.3125 -1.6345 -1.1845
 3931TIP3   OH211756   1.627   5.919   3.598 -0.3531 -0.1524  0.0884
 3931TIP3    H111757   1.701   5.967   3.634 -0.5305  0.8280 -0.8086
 3931TIP3    H211758   1.550   5.969   3.624 -0.6295 -0.5865  0.1228
 3932TIP3   OH211759   3.198   2.086   2.915  0.3097  0.0851 -0.4283
 3932TIP3    H111760   3.248   2.069   2.835 -1.3475 -1.6118 -1.1772
 3932TIP3    H211761   3.111   2.111   2.884 -0.1423  0.1705  0.8499
 3933TIP3   OH211762   0.909   6.051   5.007  0.3670  0.6342  0.6690
 3933TIP3    H111763   0.830   6.103   4.993 -0.0533 -0.6843 -3.1375
 3933TIP3    H211764   0.981   6.114   5.003 -0.3368  1.4805  1.0865
 3934TIP3   OH211765   3.976   2.130   1.349  0.0335 -0.1833  0.0897
 3934TIP3    H111766   3.995   2.187   1.275  2.6998  2.1256  2.3356
 3934TIP3    H211767   4.015   2.046   1.325 -3.6478 -1.2615 -3.1315
 3935TIP3   OH211768   6.148   5.638   3.695 -0.0491  0.4291 -0.2069
 3935TIP3    H111769   6.115   5.618   3.782  0.0290 -1.8909 -0.6597
 3935TIP3    H211770   6.181   5.728   3.702  2.3620 -0.5098  2.9198
 3936TIP3   OH211771   2.653   2.765   5.798  0.1323  0.0693 -0.4244
 3936TIP3    H111772   2.638   2.741   5.707  0.8771 -1.5182 -0.1689
 3936TIP3    H211773   2.565   2.772   5.836 -0.1486 -0.7577 -0.9072
 3937TIP3   OH211774   2.384   6.486   2.865 -0.3195 -0.4736  0.6211
 3937TIP3    H111775   2.364   6.579   2.851  0.8252 -0.3507 -0.3866
 3937TIP3    H211776   2.416   6.482   2.955  0.3063  0.2531  0.4452
 3938TIP3   OH211777   5.121   4.861   1.273  0.2523 -0.0081  0.5258
 3938TIP3    H111778   5.161   4.913   1.342  0.5748 -0.6301  0.8225
 3938TIP3    H211779   5.053   4.917   1.236 -0.9061 -0.1692  2.3126
 3939TIP3   OH211780   0.437   6.775   1.646 -0.1069 -0.4349 -0.4783
 3939TIP3    H111781   0.447   6.683   1.623  0.0919 -0.3410 -0.7635
 3939TIP3    H211782   0.485   6.823   1.578 -0.0481 -0.1309 -0.2270
 3940TIP3   OH211783   4.019   5.060   3.444 -1.0451  0.2649 -0.3511
 3940TIP3    H111784   4.114   5.054   3.453 -1.1945 -0.6990  0.8412
 3940TIP3    H211785   3.985   5.038   3.531 -2.3149  2.6234 -0.1646
 3941TIP3   OH211786   4.717   1.224   2.412 -0.6039  0.1371 -0.6122
 3941TIP3    H111787   4.648   1.180   2.362 -0.9285  1.1404 -1.0788
 3941TIP3    H211788   4.730   1.169   2.489  0.2387 -1.7208 -1.9853
 3942TIP3   OH211789   4.743   6.310   2.712  0.1899 -0.2181 -0.0428
 3942TIP3    H111790   4.812   6.253   2.742  1.8727  1.4313 -0.5715
 3942TIP3    H211791   4.709   6.268   2.633 -0.3805 -1.7041  0.9556
 3943TIP3   OH211792   2.683   4.889   1.804 -0.2177  0.7454  0.1152
 3943TIP3    H111793   2.743   4.954   1.769 -0.2254  1.8432  1.9843
 3943TIP3    H211794   2.738   4.814   1.828  0.0561  0.7916 -0.3794
 3944TIP3   OH211795   0.252   5.111   4.345 -0.8046 -0.0148 -0.0684
 3944TIP3    H111796   0.320   5.141   4.285 -0.7784 -0.8990 -0.4861
 3944TIP3    H211797   0.272   5.020   4.362 -1.1572  0.0622  0.8288
 3945TIP3   OH211798   1.790   2.115   2.447 -0.2679  0.0004 -0.4686
 3945TIP3    H111799   1.701   2.122   2.413 -0.6794  1.0800  0.7613
 3945TIP3    H211800   1.794   2.180   2.517  0.8915 -1.3643  0.7903
 3946TIP3   OH211801   4.186   5.193   0.297 -0.2133  0.1722 -0.3363
 3946TIP3    H111802   4.187   5.167   0.388  0.3890 -1.0843 -0.6867
 3946TIP3    H211803   4.277   5.214   0.276 -0.0255 -1.2669 -1.1011
 3947TIP3   OH211804   1.586   0.904   5.424  0.1268  0.5636  0.2696
 3947TIP3    H111805   1.584   0.968   5.495 -2.1283  0.5298  0.2913
 3947TIP3    H211806   1.516   0.932   5.364  0.6631 -0.5438 -0.9301
 3948TIP3   OH211807   2.501   6.083   2.615  0.1132 -0.3000 -0.0908
 3948TIP3    H111808   2.476   6.027   2.689 -0.2685 -2.0341 -1.4630
 3948TIP3    H211809   2.418   6.100   2.570  0.3288  0.8552 -0.0892
 3949TIP3   OH211810   6.302   4.836   5.614  0.2853 -0.2870 -0.2814
 3949TIP3    H111811   6.355   4.850   5.692 -0.6655  0.2617  0.2977
 3949TIP3    H211812   6.275   4.744   5.619  0.6578 -0.3952 -0.2480
 3950TIP3   OH211813   0.102   4.230   5.817 -0.1009 -0.9536 -0.3899
 3950TIP3    H111814   0.084   4.156   5.759  0.8712 -0.4645 -1.3666
 3950TIP3    H211815   0.190   4.258   5.792 -0.4238  0.4880  0.0051
 3951TIP3   OH211816   5.119   0.117   4.156  0.0911  0.1473 -0.1463
 3951TIP3    H111817   5.034   0.124   4.198 -0.3417 -0.0682 -0.9752
 3951TIP3    H211818   5.157   0.205   4.167 -0.1493  0.1921  0.3869
 3952TIP3   OH211819   6.104   6.656   2.259 -0.1928  0.4127 -0.7729
 3952TIP3    H111820   6.062   6.738   2.234 -1.0626  0.3490  0.4233
 3952TIP3    H211821   6.125   6.614   2.176 -1.2806  1.0618 -1.4022
 3953TIP3   OH211822   1.332   3.453   3.242  0.8628  0.0047 -0.5846
 3953TIP3    H111823   1.413   3.502   3.255  0.1790  0.7672  1.0108
 3953TIP3    H211824   1.349   3.368   3.283  1.2903 -0.3379 -1.4356
 3954TIP3   OH211825   5.780   3.928   0.286  0.2002 -0.5569  0.2289
 3954TIP3    H111826   5.875   3.913   0.287  0.1432 -1.3529 -1.9437
 3954TIP3    H211827   5.743   3.849   0.325  0.3636 -1.1564 -0.8091
 3955TIP3   OH211828   1.877   0.495   4.781  0.4780  0.0341 -0.2056
 3955TIP3    H111829   1.950   0.538   4.824 -0.0029  0.5489  0.1060
 3955TIP3    H211830   1.897   0.501   4.687  0.1658  1.4154 -0.2028
 3956TIP3   OH211831   5.804   2.197   3.615 -0.3038 -0.2978 -0.1476
 3956TIP3    H111832   5.862   2.127   3.646 -0.0029 -0.2024 -0.4840
 3956TIP3    H211833   5.858   2.276   3.622 -0.7454 -0.0475  0.5272
 3957TIP3   OH211834   3.248   5.250   0.866  0.1584 -0.1866 -0.0160
 3957TIP3    H111835   3.194   5.284   0.936 -0.7439 -1.8382  0.1337
 3957TIP3    H211836   3.327   5.218   0.910 -0.2241 -0.8417  0.1984
 3958TIP3   OH211837   0.519   4.573   3.832 -0.4439 -0.6877 -0.0881
 3958TIP3    H111838   0.443   4.630   3.843  0.4615  0.1191  3.0440
 3958TIP3    H211839   0.535   4.537   3.920  2.4324 -1.2845 -0.7468
 3959TIP3   OH211840   2.511   0.579   4.334 -0.0531  1.3241  0.5889
 3959TIP3    H111841   2.586   0.585   4.393  0.6017  0.6209 -0.1578
 3959TIP3    H211842   2.444   0.533   4.386  0.2184  1.4646  1.0672
 3960TIP3   OH211843   2.788   1.957   5.241 -0.5786 -0.2393 -0.0217
 3960TIP3    H111844   2.838   1.877   5.224 -0.3199 -0.0009 -0.3952
 3960TIP3    H211845   2.696   1.930   5.232 -0.4752 -0.3488 -0.8207
 3961TIP3   OH211846   2.865   0.279   2.540  0.0199 -0.1731 -0.5444
 3961TIP3    H111847   2.948   0.316   2.512 -0.2556  0.6206 -0.3382
 3961TIP3    H211848   2.814   0.354   2.570 -0.2418 -0.8064  0.6721
 3962TIP3   OH211849   3.710   5.350   4.897  0.1447 -0.1204  0.6599
 3962TIP3    H111850   3.638   5.388   4.847 -0.0094 -0.9508  0.2398
 3962TIP3    H211851   3.783   5.410   4.883 -0.4380  0.6906  1.0279
 3963TIP3   OH211852   2.347   5.111   0.858  0.1034 -0.1165 -0.3050
 3963TIP3    H111853   2.386   5.053   0.923  1.1504  0.4949 -0.3727
 3963TIP3    H211854   2.262   5.071   0.838  1.0542 -1.9566 -0.8058
 3964TIP3   OH211855   4.773   2.589   5.863 -0.1919  0.3288  0.5092
 3964TIP3    H111856   4.791   2.558   5.774 -1.0274 -1.3248  0.8855
 3964TIP3    H211857   4.856   2.581   5.909 -0.4154 -1.6316  0.6490
 3965TIP3   OH211858   4.918   6.510   4.450  0.9231  0.0811  0.4972
 3965TIP3    H111859   4.896   6.550   4.366  1.2150  1.6791  1.1427
 3965TIP3    H211860   4.842   6.527   4.506  0.8700 -0.6710  0.6721
 3966TIP3   OH211861   2.951   3.244   1.692  0.4622  0.2408  0.1140
 3966TIP3    H111862   2.985   3.164   1.652  0.6582  0.4003 -0.0408
 3966TIP3    H211863   3.026   3.284   1.735  0.3689  0.3518  0.1760
 3967TIP3   OH211864   5.130   4.943   4.876 -0.0807  0.1175 -0.0625
 3967TIP3    H111865   5.051   4.896   4.900 -0.6241  0.5908 -0.8783
 3967TIP3    H211866   5.099   5.018   4.825  0.9516 -0.2406 -1.2516
 3968TIP3   OH211867   6.101   4.896   0.604 -0.1094 -0.0089  0.3726
 3968TIP3    H111868   6.136   4.808   0.589 -0.6327 -0.3504  1.0924
 3968TIP3    H211869   6.006   4.885   0.598 -0.1468  0.8695 -1.3758
 3969TIP3   OH211870   0.455   6.824   0.529  0.2634  0.5787 -0.0465
 3969TIP3    H111871   0.510   6.784   0.462  0.2332  0.9699 -0.3103
 3969TIP3    H211872   0.425   6.751   0.582 -1.2548  0.0170 -1.5950
 3970TIP3   OH211873   5.176   6.564   4.168 -0.6896  0.5518 -0.0514
 3970TIP3    H111874   5.178   6.587   4.261  1.1392  0.7813 -0.1162
 3970TIP3    H211875   5.241   6.495   4.159 -1.6921 -0.3085 -0.9841
 3971TIP3   OH211876   1.565   3.316   1.733 -0.3436 -0.2298  0.1392
 3971TIP3    H111877   1.483   3.268   1.729 -1.2495  1.2325  0.3242
 3971TIP3    H211878   1.549   3.396   1.683  0.5029  0.7265  1.3182
 3972TIP3   OH211879   6.513   2.518   2.461 -0.3380 -0.1723  0.4172
 3972TIP3    H111880   6.534   2.428   2.487  1.0382  0.2870  0.9657
 3972TIP3    H211881   6.513   2.516   2.365  0.2227 -0.6328  0.4236
 3973TIP3   OH211882   4.998   4.211   4.420 -0.4726  0.4833 -0.0720
 3973TIP3    H111883   4.904   4.228   4.411 -0.6047 -0.7561 -1.4261
 3973TIP3    H211884   5.040   4.277   4.365 -0.6575  0.1068 -0.6815
 3974TIP3   OH211885   0.003   4.214   4.421  0.0057  0.2070 -0.2440
 3974TIP3    H111886   0.059   4.284   4.387 -0.5375  0.8908  0.2248
 3974TIP3    H211887   0.062   4.141   4.437  1.0892  1.4458  1.7768
 3975TIP3   OH211888   0.403   5.673   3.363 -0.1981 -0.2570 -0.0270
 3975TIP3    H111889   0.413   5.618   3.441  1.6319 -0.6750 -0.5078
 3975TIP3    H211890   0.482   5.727   3.361 -1.4481  1.6670 -0.1660
 3976TIP3   OH211891   2.664   2.707   3.200  0.5995 -0.1162 -0.3684
 3976TIP3    H111892   2.699   2.742   3.283  0.0891  0.0915 -0.2366
 3976TIP3    H211893   2.644   2.785   3.148  0.0656 -0.2275 -0.3312
 3977TIP3   OH211894   5.753   5.904   5.856 -0.3190  0.0593 -0.1978
 3977TIP3    H111895   5.720   5.903   5.945  0.9354 -0.6798  0.2823
 3977TIP3    H211896   5.677   5.882   5.802 -0.4607 -2.7730  0.9494
 3978TIP3   OH211897   2.530   4.440   2.545 -0.1939 -0.7250  0.0029
 3978TIP3    H111898   2.536   4.535   2.541 -1.6733 -0.6499 -1.3151
 3978TIP3    H211899   2.571   4.410   2.464 -1.7926 -1.0461 -0.7298
 3979TIP3   OH211900   5.685   0.096   0.067  0.0889  0.3882  0.4787
 3979TIP3    H111901   5.772   0.081   0.030  0.6010 -1.4476  2.2507
 3979TIP3    H211902   5.671   0.190   0.057  2.0792  0.6702 -0.2369
 3980TIP3   OH211903   1.563   1.711   2.135 -0.1901  0.1204  0.5847
 3980TIP3    H111904   1.622   1.681   2.066 -0.5030 -1.3933  0.9311
 3980TIP3    H211905   1.620   1.735   2.208  0.0981  0.8632  0.1172
 3981TIP3   OH211906   5.197   5.274   4.444  0.0884  0.8456  0.0078
 3981TIP3    H111907   5.282   5.243   4.413 -0.4011 -0.1698 -0.3753
 3981TIP3    H211908   5.152   5.195   4.474 -1.5625  0.9898 -1.8570
 3982TIP3   OH211909   3.105   4.111   2.656 -0.0683  0.0166 -0.1187
 3982TIP3    H111910   3.108   4.194   2.608  0.4508 -0.3671 -0.7517
 3982TIP3    H211911   3.018   4.076   2.638 -0.0149  0.0591 -0.4590
 3983TIP3   OH211912   3.746   2.436   5.459 -0.3062  0.2363  0.4021
 3983TIP3    H111913   3.774   2.489   5.385  0.2696 -1.8771 -0.9997
 3983TIP3    H211914   3.663   2.475   5.487  0.0938  1.8227 -0.5511
 3984TIP3   OH211915   2.554   4.090   2.758  0.5114 -0.3499  0.0782
 3984TIP3    H111916   2.616   4.088   2.831 -0.0930 -1.1337  0.5729
 3984TIP3    H211917   2.582   4.018   2.701  1.7338  0.9867 -1.1291
 3985TIP3   OH211918   2.227   0.653   1.775 -0.0870  0.1459 -0.2721
 3985TIP3    H111919   2.247   0.631   1.683  0.4822  0.5120 -0.2437
 3985TIP3    H211920   2.285   0.596   1.826  0.0361  0.3748 -0.1559
 3986TIP3   OH211921   0.950   3.690   0.262  0.3598  0.3595  0.0114
 3986TIP3    H111922   1.006   3.757   0.224  0.7874  0.1669  0.2995
 3986TIP3    H211923   0.904   3.735   0.333 -1.1461  0.9734 -1.2881
 3987TIP3   OH211924   5.522   4.407   2.583 -0.1347  0.2703  0.0612
 3987TIP3    H111925   5.471   4.387   2.505 -1.3960  1.0155  0.6579
 3987TIP3    H211926   5.612   4.414   2.552 -0.4309 -0.6725 -1.0962
 3988TIP3   OH211927   6.982   0.359   5.800 -0.1435 -0.2387  0.7437
 3988TIP3    H111928   6.970   0.377   5.893  1.3064  0.2919  0.8515
 3988TIP3    H211929   7.076   0.366   5.786 -0.2777 -0.9017 -0.6513
 3989TIP3   OH211930   3.296   4.977   0.096  0.1727 -0.4616 -0.0167
 3989TIP3    H111931   3.316   5.049   0.155 -1.2365  0.7373 -0.9294
 3989TIP3    H211932   3.348   4.995   0.017 -0.0695 -0.5199 -0.1908
 3990TIP3   OH211933   6.090   6.081   5.462  0.0032 -0.4651 -0.3526
 3990TIP3    H111934   6.110   5.987   5.464 -1.6525 -0.8353  0.7281
 3990TIP3    H211935   6.037   6.096   5.540  0.7930  1.5304 -0.1418
 3991TIP3   OH211936   0.445   5.161   2.864 -0.0640  0.5660 -0.0469
 3991TIP3    H111937   0.456   5.214   2.786  0.7493  1.3037  0.5426
 3991TIP3    H211938   0.459   5.071   2.835 -0.0710  0.8086 -0.8034
 3992TIP3   OH211939   0.108   5.160   2.853  0.3521 -0.1617  0.2722
 3992TIP3    H111940   0.118   5.219   2.927  1.3673  1.5986 -1.1685
 3992TIP3    H211941   0.090   5.074   2.892 -2.5383  1.2407  2.4712
 3993TIP3   OH211942   5.388   4.240   5.622  0.5698 -0.1228 -0.0559
 3993TIP3    H111943   5.364   4.219   5.712  2.3879 -1.5813  0.1647
 3993TIP3    H211944   5.450   4.313   5.630  0.1043  0.2921 -0.2001
 3994TIP3   OH211945   2.382   2.899   4.894 -0.2654 -0.3461 -0.0354
 3994TIP3    H111946   2.346   2.981   4.859 -0.6050 -0.0883  0.8722
 3994TIP3    H211947   2.449   2.873   4.831 -0.7253  0.1933 -0.7660
 3995TIP3   OH211948   6.939   4.766   4.915 -0.0912  0.0078 -0.7440
 3995TIP3    H111949   6.923   4.727   4.829 -1.0507 -0.7701 -0.2405
 3995TIP3    H211950   6.884   4.715   4.975 -1.5714  2.2325 -0.0570
 3996TIP3   OH211951   6.931   4.166   2.708 -0.1770  0.2657 -0.3661
 3996TIP3    H111952   6.958   4.236   2.648  0.3288  0.5256  0.1441
 3996TIP3    H211953   6.954   4.085   2.662 -1.8676  0.3636 -1.4823
 3997TIP3   OH211954   5.487   0.248   4.894  0.3223 -0.6397 -0.2958
 3997TIP3    H111955   5.446   0.201   4.821 -1.9001  2.9385 -1.6220
 3997TIP3    H211956   5.433   0.225   4.970 -1.8183  0.8748 -1.2550
 3998TIP3   OH211957   3.192   4.227   4.618  0.3541  0.1471  0.9591
 3998TIP3    H111958   3.197   4.311   4.573  0.3964  0.1463  0.9622
 3998TIP3    H211959   3.231   4.244   4.704  1.1696 -0.0884  0.6436
 3999TIP3   OH211960   1.538   3.942   3.614 -0.1393  0.4729  0.0586
 3999TIP3    H111961   1.536   3.849   3.589 -1.9903  0.6829 -0.7465
 3999TIP3    H211962   1.453   3.956   3.657  0.2795  1.7149  0.5064
 4000TIP3   OH211963   0.629   6.362   3.668 -0.5190 -0.1330  0.1934
 4000TIP3    H111964   0.670   6.276   3.660 -1.4393 -0.6234  0.7049
 4000TIP3    H211965   0.686   6.410   3.729  0.4104 -0.0969 -0.6600
 4001TIP3   OH211966   5.365   0.879   0.793 -0.0995 -0.2735  0.0876
 4001TIP3    H111967   5.278   0.893   0.757 -0.0456 -0.7568 -0.2365
 4001TIP3    H211968   5.425   0.904   0.723  0.1128  2.5551  1.1396
 4002TIP3   OH211969   6.003   4.097   5.234  0.7224 -0.3246 -0.3466
 4002TIP3    H111970   5.979   4.143   5.315 -0.3159 -1.3331 -0.0484
 4002TIP3    H211971   5.967   4.151   5.164  0.8505  0.1027 -0.0829
 4003TIP3   OH211972   6.487   3.890   3.130  0.0335 -0.2611  0.0186
 4003TIP3    H111973   6.474   3.796   3.112 -2.3840 -0.3796  1.9303
 4003TIP3    H211974   6.482   3.931   3.044 -1.8158 -1.6395 -0.6102
 4004TIP3   OH211975   3.789   1.628   0.937  0.4246  0.5458 -0.4205
 4004TIP3    H111976   3.697   1.620   0.914  0.6243 -2.9534 -0.4965
 4004TIP3    H211977   3.790   1.633   1.033  0.1563 -1.5986 -0.2630
 4005TIP3   OH211978   5.838   2.757   5.197 -0.4400 -0.2197 -0.0737
 4005TIP3    H111979   5.773   2.763   5.128  0.4265 -1.0855 -1.0014
 4005TIP3    H211980   5.836   2.843   5.240 -0.7231  0.4826 -1.4345
 4006TIP3   OH211981   3.933   0.207   5.602 -0.2965 -0.6913 -0.3802
 4006TIP3    H111982   3.898   0.199   5.513  0.9310  2.5335 -1.3125
 4006TIP3    H211983   3.860   0.242   5.653 -0.8387 -2.0069 -0.2361
 4007TIP3   OH211984   3.943   5.939   5.034  0.1167 -0.0022 -0.2911
 4007TIP3    H111985   3.935   6.031   5.059  0.5391  0.1573 -0.7308
 4007TIP3    H211986   3.950   5.941   4.939 -1.0528 -0.5757 -0.4089
 4008TIP3   OH211987   6.282   1.025   3.045  0.0651 -0.1800 -0.1435
 4008TIP3    H111988   6.326   1.086   3.105 -0.8201  0.6138 -0.2638
 4008TIP3    H211989   6.294   1.064   2.959 -0.6724 -0.0616 -0.2002
 4009TIP3   OH211990   4.122   0.719   1.789 -0.5139  0.7092 -0.5744
 4009TIP3    H111991   4.118   0.625   1.808  0.4011  0.9686  1.1221
 4009TIP3    H211992   4.084   0.760   1.867  0.6714  1.7821 -0.5457
 4010TIP3   OH211993   6.034   1.044   4.821 -0.0472  0.1623 -0.6719
 4010TIP3    H111994   6.057   1.137   4.816 -0.3650  0.2164 -1.2365
 4010TIP3    H211995   6.118   0.999   4.821  0.2216  0.5076  1.9083
 4011TIP3   OH211996   0.957   5.390   4.243  0.3078 -0.7378 -0.1828
 4011TIP3    H111997   1.051   5.400   4.230  0.5146 -1.2267  0.8148
 4011TIP3    H211998   0.936   5.447   4.317 -0.4413  0.3829 -1.2212
 4012TIP3   OH211999   6.435   1.596   2.923  0.0670 -0.5443  0.4929
 4012TIP3    H112000   6.529   1.594   2.937  0.0776 -2.9647  0.3576
 4012TIP3    H212001   6.397   1.602   3.011  0.3274 -1.1232  0.6457
 4013TIP3   OH212002   0.416   3.434   2.311  0.2163 -0.3579 -0.3002
 4013TIP3    H112003   0.409   3.474   2.224  1.4293 -0.7640 -0.6108
 4013TIP3    H212004   0.496   3.381   2.306  0.2314 -0.4852  1.0275
 4014TIP3   OH212005   7.070   0.539   1.349  0.3994  0.0998 -0.1594
 4014TIP3    H112006   7.000   0.534   1.413 -0.1432 -1.0183 -0.8115
 4014TIP3    H212007   7.030   0.512   1.266  1.4932 -0.1637 -0.6271
 4015TIP3   OH212008   6.696   2.282   0.970  0.4719  0.4425 -0.1239
 4015TIP3    H112009   6.663   2.300   1.058 -0.4749 -1.6487  0.0161
 4015TIP3    H212010   6.787   2.312   0.972  0.9933 -0.9889  2.1382
 4016TIP3   OH212011   4.793   4.507   4.796 -0.0962 -0.0018  0.1837
 4016TIP3    H112012   4.786   4.529   4.889 -0.1181 -1.3139  0.5038
 4016TIP3    H212013   4.706   4.476   4.773  0.5169 -1.9163  0.3342
 4017TIP3   OH212014   2.051   2.909   0.476  0.1945  0.4437 -0.1409
 4017TIP3    H112015   2.141   2.935   0.458  0.4362 -0.1514  0.1986
 4017TIP3    H212016   1.999   2.985   0.450  0.8634  1.1713  0.5885
 4018TIP3   OH212017   6.930   3.103   5.364 -0.0239 -0.0697  0.8051
 4018TIP3    H112018   6.996   3.061   5.419  0.8066 -0.1574 -0.2157
 4018TIP3    H212019   6.981   3.157   5.303 -0.8123 -0.8426 -0.5914
 4019TIP3   OH212020   4.410   6.583   0.982  0.0971  0.0044  0.2743
 4019TIP3    H112021   4.399   6.538   0.898  0.9888  0.3506 -0.0343
 4019TIP3    H212022   4.418   6.511   1.045  4.3147 -0.4986 -0.5369
 4020TIP3   OH212023   5.076   6.618   1.892 -0.0880 -0.2975  0.0386
 4020TIP3    H112024   5.066   6.545   1.831  1.8606 -1.0179  0.5249
 4020TIP3    H212025   5.073   6.578   1.979 -0.8956  0.4741  0.3859
 4021TIP3   OH212026   2.721   5.918   3.223 -0.0943  0.2949  0.2754
 4021TIP3    H112027   2.756   5.871   3.148  0.1621 -0.8822  1.1172
 4021TIP3    H212028   2.637   5.954   3.191 -0.7613 -1.5228 -0.1220
 4022TIP3   OH212029   4.102   0.798   5.813  0.3103 -0.8027  0.1954
 4022TIP3    H112030   4.113   0.888   5.783 -1.2006 -1.0197 -1.1211
 4022TIP3    H212031   4.192   0.765   5.822  0.8722  0.2105 -1.2860
 4023TIP3   OH212032   4.422   0.518   0.756  0.2081 -0.4202 -0.0267
 4023TIP3    H112033   4.451   0.605   0.727  0.8693 -0.1616  1.2950
 4023TIP3    H212034   4.388   0.533   0.844 -0.2467 -1.4086 -0.0245
 4024TIP3   OH212035   1.800   3.794   0.090 -0.3607  0.0088 -0.0013
 4024TIP3    H112036   1.768   3.732   0.156 -0.8578 -0.2313 -0.4588
 4024TIP3    H212037   1.848   3.739   0.029 -1.9325 -0.1627 -1.1475
 4025TIP3   OH212038   1.435   6.625   2.131 -0.1237 -0.4269  0.5697
 4025TIP3    H112039   1.418   6.546   2.080 -1.4828 -0.0202  0.3434
 4025TIP3    H212040   1.522   6.612   2.168  0.6458 -0.9876 -1.3565
 4026TIP3   OH212041   1.569   6.649   3.043  0.2985 -0.2773  0.1468
 4026TIP3    H112042   1.603   6.623   2.957  0.6521 -0.6951  0.4130
 4026TIP3    H212043   1.643   6.691   3.087 -0.3473  1.5172 -0.3985
 4027TIP3   OH212044   5.833   4.482   1.505  0.0587 -0.0089 -0.0825
 4027TIP3    H112045   5.740   4.462   1.506 -0.2881  1.4537 -0.1513
 4027TIP3    H212046   5.858   4.489   1.597  0.0006 -0.0012 -0.0676
 4028TIP3   OH212047   5.717   1.418   2.226  0.7417 -0.1997  0.1719
 4028TIP3    H112048   5.648   1.436   2.289  1.0557  0.1808  0.4151
 4028TIP3    H212049   5.798   1.425   2.276  0.9063 -2.2948  0.2753
 4029TIP3   OH212050   6.212   1.642   4.992  0.2403  0.1635  0.6890
 4029TIP3    H112051   6.134   1.587   4.997 -1.7471  2.5793 -0.9339
 4029TIP3    H212052   6.242   1.649   5.083 -1.1528 -1.1934  1.3080
 4030TIP3   OH212053   6.158   4.624   0.570 -0.3420 -0.4125 -0.3517
 4030TIP3    H112054   6.192   4.577   0.494 -0.0237  0.4267 -0.7318
 4030TIP3    H212055   6.092   4.565   0.607  1.9795 -2.4574  0.8467
 4031TIP3   OH212056   2.507   5.616   1.989  1.0204  0.4265  0.6209
 4031TIP3    H112057   2.453   5.549   1.947  0.8228  1.8757 -1.5711
 4031TIP3    H212058   2.588   5.617   1.938  1.0838  1.7403  0.7208
 4032TIP3   OH212059   1.383   2.997   2.552  0.3109  0.6806 -0.0827
 4032TIP3    H112060   1.474   3.002   2.522  0.7425  0.3395  1.1052
 4032TIP3    H212061   1.332   2.991   2.471  1.3842  0.2450 -0.7640
 4033TIP3   OH212062   5.540   6.476   1.638 -0.1647 -0.0674  0.3600
 4033TIP3    H112063   5.569   6.556   1.593 -0.8300 -0.2740 -0.4477
 4033TIP3    H212064   5.473   6.439   1.581 -1.1364 -0.2648  1.5992
 4034TIP3   OH212065   4.336   4.331   0.707  0.3820  0.5204  0.8012
 4034TIP3    H112066   4.386   4.267   0.656  0.5148  0.1372  1.3954
 4034TIP3    H212067   4.263   4.355   0.651 -0.1919 -0.8632  0.9190
 4035TIP3   OH212068   0.150   4.647   4.381  0.1449  0.3140  0.6990
 4035TIP3    H112069   0.147   4.591   4.459  2.9353 -0.8707  0.0797
 4035TIP3    H212070   0.158   4.585   4.308  0.5140  1.4510 -0.2558
 4036TIP3   OH212071   2.010   3.484   0.637 -0.3446  0.2112  0.2618
 4036TIP3    H112072   1.946   3.442   0.580  0.0591 -0.7418  0.4919
 4036TIP3    H212073   1.978   3.467   0.725 -0.3322  0.6458  0.3502
 4037TIP3   OH212074   4.486   2.056   2.098 -0.1788 -0.0407 -0.4156
 4037TIP3    H112075   4.492   2.054   2.003  0.7797 -0.2920 -0.3595
 4037TIP3    H212076   4.542   1.984   2.128 -0.1897  0.2477  0.3397
 4038TIP3   OH212077   4.671   1.197   2.884 -0.4591 -0.5305 -0.0386
 4038TIP3    H112078   4.698   1.265   2.946  0.0418 -0.5548 -0.2243
 4038TIP3    H212079   4.581   1.177   2.907 -1.3548  1.6924 -1.2703
 4039TIP3   OH212080   3.976   4.958   2.742  0.0411 -0.6090  0.0206
 4039TIP3    H112081   3.944   4.969   2.652  1.0203 -0.5198 -0.3271
 4039TIP3    H212082   3.942   5.035   2.789  0.3381 -0.1522 -0.5068
 4040TIP3   OH212083   1.566   5.650   1.070  0.2109  0.4884  0.0569
 4040TIP3    H112084   1.651   5.629   1.033  0.7407  2.8847 -0.2756
 4040TIP3    H212085   1.579   5.647   1.165  0.8425  1.3363  0.0118
 4041TIP3   OH212086   0.267   3.356   0.688  0.1767 -0.0110 -0.1378
 4041TIP3    H112087   0.224   3.357   0.602 -0.9310 -3.4140  0.2366
 4041TIP3    H212088   0.360   3.347   0.668 -0.0875 -0.9654 -1.0023
 4042TIP3   OH212089   6.671   6.664   0.563  0.3593  0.1486  0.0188
 4042TIP3    H112090   6.724   6.586   0.575  0.4138  0.2748  0.6576
 4042TIP3    H212091   6.725   6.722   0.509  1.9937  1.3060  2.6985
 4043TIP3   OH212092   2.860   3.608   4.322  0.1166  0.0396 -0.4018
 4043TIP3    H112093   2.909   3.671   4.268  1.6022  0.4529  1.3136
 4043TIP3    H212094   2.804   3.662   4.377 -0.1611 -0.2828 -0.3615
 4044TIP3   OH212095   3.939   5.431   5.355 -0.1818  0.6062  0.6418
 4044TIP3    H112096   3.896   5.414   5.439 -1.8195 -1.1604 -0.4673
 4044TIP3    H212097   3.878   5.397   5.289  1.7635  0.4221 -1.1865
 4045TIP3   OH212098   5.342   6.148   4.609  0.1326 -0.2699  0.0928
 4045TIP3    H112099   5.263   6.128   4.660 -0.6416 -1.0368 -1.3472
 4045TIP3    H212100   5.317   6.224   4.556  0.1598 -0.8827 -0.8011
 4046TIP3   OH212101   3.501   5.566   3.544 -0.0760  0.5223 -0.0819
 4046TIP3    H112102   3.435   5.501   3.565 -0.3144  0.2198 -1.6114
 4046TIP3    H212103   3.452   5.643   3.517  0.2075  1.0815  0.9599
 4047TIP3   OH212104   3.821   6.350   1.539 -0.0512 -0.7514  0.0073
 4047TIP3    H112105   3.898   6.356   1.596 -1.0423  0.3026  1.2775
 4047TIP3    H212106   3.752   6.316   1.595 -0.3683 -2.4965 -1.3310
 4048TIP3   OH212107   3.288   1.947   5.505  0.5746  0.0113  0.2717
 4048TIP3    H112108   3.286   1.931   5.410 -0.7654  0.9720  0.1160
 4048TIP3    H212109   3.273   1.861   5.544 -1.5046 -0.0100 -0.4598
 4049TIP3   OH212110   6.671   4.165   3.506 -0.0597  0.7637 -0.2059
 4049TIP3    H112111   6.745   4.202   3.554  0.9140 -2.7739  1.3550
 4049TIP3    H212112   6.706   4.086   3.465 -2.6128 -0.2009 -0.7242
 4050TIP3   OH212113   5.369   4.302   5.159 -0.1820 -0.0376 -0.2699
 4050TIP3    H112114   5.293   4.334   5.207  0.2731  0.6499  0.0111
 4050TIP3    H212115   5.435   4.370   5.171  0.9680 -1.2677  0.7037
 4051TIP3   OH212116   3.074   6.487   2.857  0.3434 -0.2006  0.0687
 4051TIP3    H112117   2.992   6.453   2.891  0.4283 -0.0661  0.4223
 4051TIP3    H212118   3.134   6.484   2.932 -0.0454  2.0546  0.5264
 4052TIP3   OH212119   6.485   5.872   0.963  0.6990  0.6880  0.3171
 4052TIP3    H112120   6.418   5.890   1.029  1.5323  0.3957  1.2541
 4052TIP3    H212121   6.502   5.779   0.971  0.2674  0.4910 -0.8483
 4053TIP3   OH212122   4.350   3.946   4.338 -0.5879 -0.0667  0.1275
 4053TIP3    H112123   4.431   3.993   4.318  1.2429 -2.4982  1.2800
 4053TIP3    H212124   4.349   3.940   4.434 -2.2521  0.0734  0.1408
 4054TIP3   OH212125   0.994   5.247   5.196  0.0513 -0.0593  0.6063
 4054TIP3    H112126   1.009   5.339   5.173 -1.7484 -0.2634 -1.7477
 4054TIP3    H212127   0.991   5.247   5.292 -1.4642  2.6480  0.6655
 4055TIP3   OH212128   2.599   1.367   3.793  0.3870 -0.3065  0.3563
 4055TIP3    H112129   2.554   1.451   3.805 -0.4238 -0.8909  1.4954
 4055TIP3    H212130   2.534   1.311   3.751  1.0166 -0.3138 -0.6557
 4056TIP3   OH212131   7.088   0.689   5.141 -0.2735  0.0095 -0.6844
 4056TIP3    H112132   7.034   0.663   5.215  0.8946 -1.8516 -0.4330
 4056TIP3    H212133   7.056   0.777   5.119 -1.3527  0.1970  1.3273
 4057TIP3   OH212134   2.074   1.722   3.609 -0.0477  0.3137 -0.2246
 4057TIP3    H112135   2.044   1.806   3.574  0.5819  0.0296 -1.5238
 4057TIP3    H212136   2.163   1.712   3.573  0.5983 -0.0706  1.3942
 4058TIP3   OH212137   2.186   1.512   0.715  1.0871  0.0548 -0.2273
 4058TIP3    H112138   2.170   1.496   0.808  2.6933  2.1827  0.5063
 4058TIP3    H212139   2.126   1.453   0.670  0.5807 -1.3885  2.1372
 4059TIP3   OH212140   0.759   1.640   3.925 -0.6877 -0.0190 -0.0738
 4059TIP3    H112141   0.766   1.551   3.959 -1.4305  0.0949  0.3898
 4059TIP3    H212142   0.820   1.691   3.978 -1.0585 -0.0478  0.3856
 4060TIP3   OH212143   1.883   0.866   1.306 -0.2456  0.3056 -0.0454
 4060TIP3    H112144   1.927   0.942   1.345  0.4733  1.2384 -2.5149
 4060TIP3    H212145   1.889   0.798   1.373  0.4659  1.9500  1.6376
 4061TIP3   OH212146   3.963   0.041   1.518 -0.3869  0.0195  0.5998
 4061TIP3    H112147   3.999   0.051   1.606 -0.7778  2.1663  0.5651
 4061TIP3    H212148   3.869   0.028   1.532 -0.3009 -0.7893  0.5085
 4062TIP3   OH212149   3.305   1.507   0.742 -0.7671  0.3637  0.3573
 4062TIP3    H112150   3.327   1.419   0.772 -2.1023  0.2195  0.9571
 4062TIP3    H212151   3.382   1.560   0.765  1.6285 -1.2253 -3.1173
 4063TIP3   OH212152   5.001   2.118   5.480  0.1496 -0.2102  0.3924
 4063TIP3    H112153   4.922   2.072   5.450  1.1986 -2.3604  0.6802
 4063TIP3    H212154   5.039   2.155   5.401 -1.3928  1.3458  0.3256
 4064TIP3   OH212155   3.203   4.143   0.985 -0.3835  0.1465 -0.1662
 4064TIP3    H112156   3.140   4.075   1.008  0.5962 -0.7643 -0.0766
 4064TIP3    H212157   3.180   4.218   1.040 -0.4923 -0.6650  0.9211
 4065TIP3   OH212158   1.911   3.128   0.406 -0.3808 -0.2816 -0.1653
 4065TIP3    H112159   1.876   3.207   0.448  0.0018  1.1823 -2.3822
 4065TIP3    H212160   1.876   3.132   0.317 -1.4310 -3.3874  0.0262
 4066TIP3   OH212161   3.812   6.619   3.703  0.0311 -0.0270  0.3558
 4066TIP3    H112162   3.898   6.577   3.690  0.6733  0.9979  1.1514
 4066TIP3    H212163   3.763   6.555   3.754  0.5154 -0.3877  0.3886
 4067TIP3   OH212164   4.866   4.841   4.812 -0.4755 -0.5619  0.1876
 4067TIP3    H112165   4.826   4.778   4.751  0.6181 -0.5354 -0.5711
 4067TIP3    H212166   4.807   4.916   4.810 -2.5756 -1.9918  2.1331
 4068TIP3   OH212167   5.676   2.930   4.713 -0.0751 -0.2504  0.5580
 4068TIP3    H112168   5.683   2.991   4.640 -0.4805 -0.2296  0.5315
 4068TIP3    H212169   5.635   2.852   4.674 -1.8879  0.3787  1.1022
 4069TIP3   OH212170   4.282   5.802   3.699  0.2092  0.0539  0.0850
 4069TIP3    H112171   4.304   5.804   3.793  1.9685  0.5139 -0.2913
 4069TIP3    H212172   4.347   5.860   3.659 -0.8067  0.2202 -1.3754
 4070TIP3   OH212173   1.910   6.601   1.491 -0.1229  0.2675  0.5964
 4070TIP3    H112174   1.894   6.610   1.585  1.0416  0.7804  0.7702
 4070TIP3    H212175   1.920   6.690   1.460 -1.9510  0.1928 -0.3250
 4071TIP3   OH212176   3.229   2.465   0.215 -0.1718  0.3352 -0.0037
 4071TIP3    H112177   3.216   2.370   0.211  0.3489  0.2826 -0.7073
 4071TIP3    H212178   3.194   2.491   0.300 -1.3672 -0.3173 -0.2717
 4072TIP3   OH212179   0.678   5.988   1.391  0.3504 -0.1497 -0.3257
 4072TIP3    H112180   0.710   6.078   1.382 -1.6825  0.5726 -0.9846
 4072TIP3    H212181   0.756   5.934   1.382  2.1666  1.5734  2.9449
 4073TIP3   OH212182   2.119   3.496   2.466  0.2835 -0.5634  0.0086
 4073TIP3    H112183   2.207   3.526   2.440  0.2563  0.2569  0.8269
 4073TIP3    H212184   2.128   3.401   2.474  0.5156 -0.7641 -2.0909
 4074TIP3   OH212185   4.695   0.792   2.663  0.1961 -0.6595 -0.0397
 4074TIP3    H112186   4.745   0.816   2.740 -0.3847  0.9631 -0.1200
 4074TIP3    H212187   4.604   0.788   2.693 -0.0017 -0.3234 -0.5737
 4075TIP3   OH212188   3.701   4.635   4.888 -0.2884 -0.0664 -0.1181
 4075TIP3    H112189   3.675   4.609   4.800 -0.4482 -1.9696  0.4524
 4075TIP3    H212190   3.775   4.695   4.875 -1.3205  0.9414 -1.5721
 4076TIP3   OH212191   6.840   1.543   5.422 -0.1893 -0.1302  0.1792
 4076TIP3    H112192   6.849   1.632   5.388 -0.0437 -0.5749 -1.0049
 4076TIP3    H212193   6.930   1.510   5.427 -0.1570  0.1283  1.6024
 4077TIP3   OH212194   1.088   5.797   4.764 -0.1011 -0.0621 -0.5764
 4077TIP3    H112195   1.126   5.822   4.848  0.2040 -1.9508 -0.1232
 4077TIP3    H212196   0.996   5.823   4.771  0.0679  0.3971  0.0622
 4078TIP3   OH212197   6.464   0.230   0.820  0.1360 -0.0944  0.3720
 4078TIP3    H112198   6.374   0.203   0.803  0.2533 -0.0449 -0.3850
 4078TIP3    H212199   6.516   0.181   0.756  0.5223  0.6815  0.0767
 4079TIP3   OH212200   6.432   4.051   5.408  0.4589 -0.2768 -0.6286
 4079TIP3    H112201   6.442   4.073   5.501 -0.3077  1.7966 -0.9978
 4079TIP3    H212202   6.522   4.045   5.376  0.7282 -0.6462  0.1578
 4080TIP3   OH212203   1.606   1.761   4.340 -0.0174 -0.3754 -0.5394
 4080TIP3    H112204   1.545   1.821   4.382 -0.1944 -0.1413 -1.1119
 4080TIP3    H212205   1.550   1.702   4.289  0.1835 -0.7324 -0.3521
 4081TIP3   OH212206   1.713   3.354   5.237 -0.4050 -0.1392 -0.0419
 4081TIP3    H112207   1.775   3.422   5.209 -0.9059  0.5253  0.4321
 4081TIP3    H212208   1.769   3.282   5.267  0.1322  0.0261 -0.6211
 4082TIP3   OH212209   1.540   6.355   1.486  0.2236  0.5766 -0.3002
 4082TIP3    H112210   1.624   6.336   1.443  0.1481  3.6625 -2.1427
 4082TIP3    H212211   1.474   6.318   1.427  0.2216  0.1923 -0.0610
 4083TIP3   OH212212   6.799   2.778   3.354  0.1110 -0.2048  0.9216
 4083TIP3    H112213   6.744   2.810   3.426  1.2958  0.5424  1.5298
 4083TIP3    H212214   6.809   2.854   3.297  0.7935 -0.2317  1.0019
 4084TIP3   OH212215   2.291   0.995   2.749 -0.2642  0.4573 -0.0285
 4084TIP3    H112216   2.238   1.019   2.825 -1.1806  1.3718 -0.9078
 4084TIP3    H212217   2.381   1.004   2.778 -0.5867  2.4882  0.4975
 4085TIP3   OH212218   4.897   2.210   3.211  0.1267  0.3915 -0.0307
 4085TIP3    H112219   4.839   2.272   3.254 -1.9992 -1.6678  0.2635
 4085TIP3    H212220   4.963   2.188   3.278 -0.4849  0.5953  0.6456
 4086TIP3   OH212221   3.216   1.490   4.495  0.1952 -0.5460  0.1862
 4086TIP3    H112222   3.217   1.405   4.539 -2.4494 -1.2189 -0.8585
 4086TIP3    H212223   3.133   1.491   4.446  0.2976  2.4954 -0.1266
 4087TIP3   OH212224   1.616   0.325   4.326  0.1973  0.6141 -0.5403
 4087TIP3    H112225   1.567   0.245   4.311  0.4015  0.5025 -0.6178
 4087TIP3    H212226   1.701   0.310   4.284  0.1718  0.9407 -0.7182
 4088TIP3   OH212227   1.366   1.731   5.642 -0.0870  0.6722 -0.0598
 4088TIP3    H112228   1.358   1.637   5.658 -1.3856  0.4026 -1.9712
 4088TIP3    H212229   1.281   1.757   5.606  1.4339  1.7627 -3.2009
 4089TIP3   OH212230   2.447   4.929   2.827  0.1565 -0.1793  0.2869
 4089TIP3    H112231   2.447   5.023   2.843 -0.0959 -0.6436  3.7962
 4089TIP3    H212232   2.526   4.897   2.871  0.5140 -1.6254 -1.2700
 4090TIP3   OH212233   0.572   4.485   0.648 -0.0896  0.4075  0.0395
 4090TIP3    H112234   0.534   4.544   0.713 -0.2808  0.7117 -0.3472
 4090TIP3    H212235   0.614   4.543   0.585  2.6957  0.0754  1.4181
 4091TIP3   OH212236   1.274   2.045   5.552 -0.1774  0.0073  0.0932
 4091TIP3    H112237   1.244   2.077   5.637  1.2913 -0.8096  0.9754
 4091TIP3    H212238   1.216   1.970   5.533  0.6285 -0.9692  1.3095
 4092TIP3   OH212239   1.559   5.719   0.481 -0.1664  0.1189  0.1010
 4092TIP3    H112240   1.534   5.791   0.424 -1.9557  1.4757  2.4239
 4092TIP3    H212241   1.553   5.754   0.569 -1.0578 -2.8337  1.3538
 4093TIP3   OH212242   2.696   6.647   4.404  0.0300  0.0469 -0.4481
 4093TIP3    H112243   2.662   6.628   4.491 -0.7536  2.0010 -0.2914
 4093TIP3    H212244   2.725   6.738   4.408  0.2940  0.0723 -2.1335
 4094TIP3   OH212245   4.235   4.608   3.304  0.2098  0.4629  0.3713
 4094TIP3    H112246   4.267   4.583   3.391  1.8402 -0.2647 -0.3835
 4094TIP3    H212247   4.260   4.535   3.247  1.9795  2.1854 -1.2553
 4095TIP3   OH212248   4.235   6.463   0.060 -0.6251 -0.3050 -0.1325
 4095TIP3    H112249   4.251   6.370   0.075  0.2958 -0.4244 -1.6004
 4095TIP3    H212250   4.319   6.497   0.030 -1.2882  0.7140 -0.9092
 4096TIP3   OH212251   4.107   6.622   3.303 -0.1712 -0.2281 -0.5920
 4096TIP3    H112252   4.187   6.636   3.251  0.3690 -3.1341 -0.7304
 4096TIP3    H212253   4.133   6.558   3.369 -2.6967 -2.3705 -1.5357
 4097TIP3   OH212254   1.124   3.612   3.180 -0.0657 -0.3570 -0.4107
 4097TIP3    H112255   1.203   3.562   3.199 -0.7601 -1.3856 -0.1282
 4097TIP3    H212256   1.124   3.623   3.085  1.5798  1.6767 -0.2345
 4098TIP3   OH212257   3.113   1.945   2.118  0.0948 -0.4666  0.3940
 4098TIP3    H112258   3.109   2.039   2.101 -0.2629 -0.6644 -0.6684
 4098TIP3    H212259   3.092   1.904   2.034  1.6114 -1.5068  0.4690
 4099TIP3   OH212260   4.361   6.140   3.859  0.2453  0.5351 -0.0253
 4099TIP3    H112261   4.404   6.140   3.945  1.1247  0.4773 -0.4601
 4099TIP3    H212262   4.391   6.060   3.817  0.6077  1.0511 -0.7765
 4100TIP3   OH212263   5.260   4.518   1.356 -0.1838 -0.1931 -0.2618
 4100TIP3    H112264   5.177   4.497   1.401  1.3790 -1.6601  2.1649
 4100TIP3    H212265   5.283   4.438   1.309 -0.6355  0.5726 -1.8310
 4101TIP3   OH212266   7.159   3.991   3.127 -0.5443  0.2618 -0.9190
 4101TIP3    H112267   7.175   3.938   3.205  2.3692 -0.0404 -1.6008
 4101TIP3    H212268   7.096   3.941   3.076 -2.3976  0.3888  1.0908
 4102TIP3   OH212269   3.917   0.422   1.218  0.1135 -0.2773 -0.0304
 4102TIP3    H112270   3.873   0.486   1.161 -1.0803 -0.6464  0.4636
 4102TIP3    H212271   3.991   0.471   1.255  0.3371  0.2545 -1.1302
 4103TIP3   OH212272   2.844   1.822   3.828  0.0343 -0.1787  0.7408
 4103TIP3    H112273   2.850   1.888   3.897  0.5140  0.5571  0.0149
 4103TIP3    H212274   2.935   1.798   3.810  0.1402  1.6054 -1.4612
 4104TIP3   OH212275   4.150   5.628   3.509 -0.6658 -0.0995  0.4593
 4104TIP3    H112276   4.187   5.683   3.578 -0.4179 -0.4813  0.6359
 4104TIP3    H212277   4.091   5.686   3.461 -0.6940  0.2195  0.8717
 4105TIP3   OH212278   1.825   1.688   4.477 -0.4513  0.2674  0.1245
 4105TIP3    H112279   1.903   1.693   4.422  0.4679  1.4331  1.4562
 4105TIP3    H212280   1.752   1.704   4.417  0.3564 -0.2846 -1.0468
 4106TIP3   OH212281   4.997   4.632   1.303  0.0913 -1.2758 -0.1598
 4106TIP3    H112282   5.045   4.715   1.296  1.1112 -1.6969  1.4549
 4106TIP3    H212283   4.931   4.649   1.370  1.0587 -2.0828  1.0341
 4107TIP3   OH212284   5.625   5.959   1.873  0.1486 -0.6254 -0.1045
 4107TIP3    H112285   5.679   6.009   1.813 -0.2413  0.3862  0.3677
 4107TIP3    H212286   5.575   5.900   1.816 -0.4895  0.5748 -0.8237
 4108TIP3   OH212287   3.756   2.727   2.596  0.3846 -0.5417 -0.3625
 4108TIP3    H112288   3.667   2.713   2.566  0.0696  1.6251 -0.6523
 4108TIP3    H212289   3.747   2.788   2.669  1.6240 -0.1107 -0.5414
 4109TIP3   OH212290   6.318   5.339   4.767 -0.0376  0.1137  0.8879
 4109TIP3    H112291   6.327   5.252   4.806  0.0004  0.6572  2.1396
 4109TIP3    H212292   6.310   5.398   4.842 -2.3111  0.9731  0.0504
 4110TIP3   OH212293   5.115   1.231   0.840  0.2266 -0.3025  0.2767
 4110TIP3    H112294   5.135   1.281   0.920 -0.0766 -1.3527  1.0233
 4110TIP3    H212295   5.175   1.266   0.775  0.1347  0.9254  0.8253
 4111TIP3   OH212296   0.810   4.368   5.381  0.5502  0.3181 -0.3312
 4111TIP3    H112297   0.756   4.362   5.302 -2.4982 -0.7603  1.6613
 4111TIP3    H212298   0.804   4.281   5.420  1.4669  1.0037  1.4266
 4112TIP3   OH212299   5.761   5.508   1.462 -0.6218  0.2439 -0.3158
 4112TIP3    H112300   5.752   5.506   1.557 -1.3495 -0.3746 -0.3861
 4112TIP3    H212301   5.697   5.444   1.431 -0.2966  0.3446 -1.2153
 4113TIP3   OH212302   3.643   4.205   3.800  0.0654  0.5416  0.1063
 4113TIP3    H112303   3.675   4.204   3.890 -1.7139 -0.7823  0.7732
 4113TIP3    H212304   3.585   4.281   3.795 -0.0838  0.4308  0.1651
 4114TIP3   OH212305   5.770   5.873   2.692 -0.3512  0.4231  0.6579
 4114TIP3    H112306   5.787   5.947   2.751 -0.1010  2.2763 -1.5979
 4114TIP3    H212307   5.674   5.865   2.691 -0.3299 -0.2045  1.9390
 4115TIP3   OH212308   0.795   3.906   3.593  0.1667  0.1698 -0.1089
 4115TIP3    H112309   0.720   3.913   3.651 -0.1568 -0.1719 -0.4787
 4115TIP3    H212310   0.828   3.817   3.608  0.8530  0.5087  0.4737
 4116TIP3   OH212311   2.674   4.804   3.820  0.0183  0.4031  0.5326
 4116TIP3    H112312   2.747   4.859   3.792  0.6810  0.2313  1.8485
 4116TIP3    H212313   2.596   4.856   3.801  0.4712  0.5874 -0.8955
 4117TIP3   OH212314   5.070   3.614   3.560  0.2780  0.1932 -0.2894
 4117TIP3    H112315   5.133   3.569   3.616 -1.3997 -1.2041  0.5656
 4117TIP3    H212316   5.000   3.641   3.619 -0.8684 -0.0577 -1.4835
 4118TIP3   OH212317   2.711   3.554   4.713  0.6177 -0.0417 -0.0104
 4118TIP3    H112318   2.706   3.640   4.671 -0.1012 -0.0113  0.1330
 4118TIP3    H212319   2.728   3.494   4.641  0.2689  0.1192 -0.2326
 4119TIP3   OH212320   2.742   3.192   3.072  0.2874  0.7156  0.8972
 4119TIP3    H112321   2.652   3.200   3.043  0.3070  0.1606  0.6798
 4119TIP3    H212322   2.769   3.282   3.093 -0.0084  1.0036  0.0643
 4120TIP3   OH212323   6.601   3.975   0.643  0.0775  0.2634  0.8810
 4120TIP3    H112324   6.610   4.059   0.599  2.5431 -0.1874  0.3983
 4120TIP3    H212325   6.565   3.917   0.575 -2.1816  0.9639  1.3756
 4121TIP3   OH212326   0.344   4.767   1.612 -0.3542  0.1166 -0.2399
 4121TIP3    H112327   0.277   4.835   1.601 -0.5840  0.1433  1.1444
 4121TIP3    H212328   0.390   4.765   1.528  0.1987  2.5631 -0.0657
 4122TIP3   OH212329   0.116   0.958   3.854 -0.2016 -0.3424 -0.0543
 4122TIP3    H112330   0.076   0.877   3.824  2.3801 -1.6448 -0.2517
 4122TIP3    H212331   0.125   0.947   3.949 -0.5604  0.0640  0.0303
 4123TIP3   OH212332   2.257   4.501   3.930 -0.6952 -0.2239  0.2016
 4123TIP3    H112333   2.262   4.568   3.862 -0.7679  0.1098  0.5238
 4123TIP3    H212334   2.202   4.432   3.891 -2.3204  0.7849  0.6097
 4124TIP3   OH212335   5.230   5.679   5.746  0.8221  0.0739  0.1098
 4124TIP3    H112336   5.158   5.695   5.686  2.0083  1.1626 -1.0931
 4124TIP3    H212337   5.292   5.625   5.697  1.2349 -0.0960  0.7955
 4125TIP3   OH212338   3.987   4.817   4.613 -0.3442  0.1672 -0.1226
 4125TIP3    H112339   3.946   4.813   4.699  0.0789 -1.7553  0.0456
 4125TIP3    H212340   3.934   4.759   4.558  0.2101  0.2649 -0.7794
 4126TIP3   OH212341   1.887   4.709   1.484  0.3356 -0.4325 -0.3600
 4126TIP3    H112342   1.956   4.684   1.422  0.2792 -0.8174 -0.2727
 4126TIP3    H212343   1.809   4.720   1.430  0.5856  0.5412 -0.5325
 4127TIP3   OH212344   5.254   4.716   0.419  0.8623 -0.0694 -0.2476
 4127TIP3    H112345   5.324   4.775   0.392  0.7082  0.0698 -0.3481
 4127TIP3    H212346   5.271   4.699   0.512  1.2109 -0.2946 -0.3527
 4128TIP3   OH212347   4.049   1.319   3.037  0.3554  0.1046  0.3437
 4128TIP3    H112348   4.030   1.413   3.031  1.5355  0.2737 -2.9307
 4128TIP3    H212349   4.138   1.314   3.072  0.0480  0.1515  1.1430
 4129TIP3   OH212350   5.590   6.125   2.374  0.2405  0.0242 -0.0516
 4129TIP3    H112351   5.609   6.153   2.285  0.2381 -1.0042 -0.3868
 4129TIP3    H212352   5.633   6.191   2.429 -0.6956  1.3003 -0.7843
 4130TIP3   OH212353   3.625   1.105   5.335  1.1789 -0.6290  0.0447
 4130TIP3    H112354   3.545   1.077   5.290  0.1241  2.4202 -0.2265
 4130TIP3    H212355   3.662   1.024   5.370 -0.3029 -2.5854 -2.5019
 4131TIP3   OH212356   6.115   2.686   0.097 -0.4619 -0.0330 -0.1322
 4131TIP3    H112357   6.128   2.592   0.101 -1.4721 -0.1929 -0.3316
 4131TIP3    H212358   6.073   2.709   0.180 -2.3019 -0.1385 -0.9716
 4132TIP3   OH212359   0.994   5.551   3.014 -0.2904 -0.1193 -0.4710
 4132TIP3    H112360   0.935   5.499   3.068  0.6748  0.0327  0.7760
 4132TIP3    H212361   0.991   5.509   2.928 -2.4800  0.1132 -0.5575
 4133TIP3   OH212362   1.100   4.294   3.176 -1.0657 -0.5915 -0.7404
 4133TIP3    H112363   1.091   4.370   3.233  1.0809 -0.2879 -0.7375
 4133TIP3    H212364   1.074   4.220   3.232 -0.1370 -0.1788  0.2774
 4134TIP3   OH212365   1.711   5.188   3.432  0.0240  0.5803 -0.4995
 4134TIP3    H112366   1.799   5.220   3.449  0.3003  0.0423 -0.8841
 4134TIP3    H212367   1.675   5.249   3.368 -0.7873  2.2362  1.4374
 4135TIP3   OH212368   1.783   6.221   3.926  0.3033 -0.0755 -0.5752
 4135TIP3    H112369   1.875   6.196   3.934 -0.0834 -1.8536 -1.3465
 4135TIP3    H212370   1.734   6.143   3.951 -1.0115  0.8293 -0.2151
 4136TIP3   OH212371   0.579   5.370   5.818 -0.6699 -0.2520 -0.3400
 4136TIP3    H112372   0.601   5.391   5.909 -0.3338 -0.1066 -0.4512
 4136TIP3    H212373   0.566   5.455   5.776  2.8003 -0.0223 -1.3138
 4137TIP3   OH212374   3.279   6.477   2.675  0.0011  0.0025  0.3171
 4137TIP3    H112375   3.204   6.505   2.728 -0.8992  0.8637 -1.3307
 4137TIP3    H212376   3.247   6.400   2.628  0.3655 -0.0089  0.0880
 4138TIP3   OH212377   0.392   6.506   0.354 -0.2092  0.4511 -0.3270
 4138TIP3    H112378   0.408   6.570   0.284  2.6165 -0.6901 -0.8981
 4138TIP3    H212379   0.357   6.557   0.426  0.5404  2.4004 -1.2561
 4139TIP3   OH212380   2.518   3.633   2.245 -0.2705 -0.2850  0.5870
 4139TIP3    H112381   2.592   3.574   2.260  1.2983  0.7976 -2.1331
 4139TIP3    H212382   2.462   3.585   2.184  0.3536  0.4528 -0.6083
 4140TIP3   OH212383   6.019   0.874   3.779  0.2672 -0.0958 -0.0442
 4140TIP3    H112384   6.091   0.935   3.760 -0.4475  0.4744 -1.0134
 4140TIP3    H212385   6.042   0.795   3.730 -0.8450  0.8702 -2.2995
 4141TIP3   OH212386   6.927   4.284   5.179  0.4397  0.2747  0.3024
 4141TIP3    H112387   6.977   4.345   5.233  0.2931 -0.2826  1.0860
 4141TIP3    H212388   6.951   4.197   5.212  0.1742 -0.0698 -0.3847
 4142TIP3   OH212389   4.847   0.698   5.570 -0.2378  0.8229 -0.9838
 4142TIP3    H112390   4.928   0.663   5.534  0.5124 -0.5380  1.7450
 4142TIP3    H212391   4.870   0.785   5.601 -0.3638  1.2050 -1.9359
 4143TIP3   OH212392   6.741   4.307   2.402 -0.3423 -0.2218  0.0865
 4143TIP3    H112393   6.664   4.353   2.436 -0.7843 -1.5345  0.9466
 4143TIP3    H212394   6.741   4.223   2.448  1.2269 -0.5260 -0.4068
 4144TIP3   OH212395   6.013   3.143   2.334 -0.3180  0.1866 -0.0664
 4144TIP3    H112396   5.987   3.067   2.386 -0.3349 -1.7289 -2.6654
 4144TIP3    H212397   5.947   3.149   2.265  2.3954 -0.7548 -2.9746
 4145TIP3   OH212398   1.457   3.922   1.801 -0.4979 -0.2326  0.3133
 4145TIP3    H112399   1.462   4.018   1.799 -0.4652 -0.2514 -1.4446
 4145TIP3    H212400   1.538   3.892   1.760 -1.1090 -0.9812 -0.3926
 4146TIP3   OH212401   0.442   3.708   3.707 -0.1863  0.0018  0.4372
 4146TIP3    H112402   0.495   3.630   3.693 -0.0950 -0.0533  1.0419
 4146TIP3    H212403   0.363   3.676   3.752  0.3080  0.3764  1.6222
 4147TIP3   OH212404   6.178   3.659   3.675  0.4185 -0.1318 -0.1240
 4147TIP3    H112405   6.088   3.632   3.655  0.3687 -1.0361  1.2006
 4147TIP3    H212406   6.233   3.596   3.629  0.3284 -0.9605  0.8706
 4148TIP3   OH212407   6.424   0.995   3.403 -0.3982 -0.3322  0.0707
 4148TIP3    H112408   6.492   0.933   3.377 -0.1342  0.0158 -0.0771
 4148TIP3    H212409   6.343   0.945   3.398 -0.1473 -0.7647  0.2959
 4149TIP3   OH212410   2.229   6.572   5.808  0.4330  0.0345  0.2522
 4149TIP3    H112411   2.224   6.478   5.793 -0.5393 -0.2773  2.2465
 4149TIP3    H212412   2.152   6.593   5.861  1.1935  1.7608  0.7833
 4150TIP3   OH212413   3.981   0.281   3.054  0.4538 -0.4238 -0.0393
 4150TIP3    H112414   3.941   0.239   3.130  0.0605 -2.0432 -1.1109
 4150TIP3    H212415   4.074   0.288   3.078  0.1860 -0.0199  0.9583
 4151TIP3   OH212416   4.335   2.787   1.706 -0.6326 -0.2181  0.0837
 4151TIP3    H112417   4.253   2.746   1.734 -2.1819  1.0928 -2.1777
 4151TIP3    H212418   4.322   2.881   1.722  0.9033 -0.0781  0.7068
 4152TIP3   OH212419   2.399   2.026   0.178 -0.3958  0.1263  0.0365
 4152TIP3    H112420   2.380   2.052   0.268 -1.3021  0.2435 -0.1815
 4152TIP3    H212421   2.313   2.013   0.137 -0.0162  0.4737 -0.9239
 4153TIP3   OH212422   4.593   6.023   2.623 -0.3609 -0.4425 -0.4231
 4153TIP3    H112423   4.666   6.040   2.683 -1.1272 -0.1248  0.4393
 4153TIP3    H212424   4.518   6.067   2.663 -0.5995  1.0532 -2.3404
 4154TIP3   OH212425   4.932   4.557   3.837  0.2481  0.0449 -0.5839
 4154TIP3    H112426   4.878   4.628   3.872 -1.7195 -1.0051 -1.3341
 4154TIP3    H212427   4.906   4.550   3.745  2.2482 -0.0249 -1.1962
 4155TIP3   OH212428   6.684   1.648   3.084  0.1381 -0.7887  0.4984
 4155TIP3    H112429   6.707   1.588   3.154 -0.1332 -1.9118 -0.3487
 4155TIP3    H212430   6.702   1.735   3.120  2.0590 -1.4258  1.2084
 4156TIP3   OH212431   0.185   0.551   0.478  0.7658  0.4821 -0.5002
 4156TIP3    H112432   0.147   0.625   0.526 -1.0598 -0.3506 -0.5785
 4156TIP3    H212433   0.279   0.558   0.494  1.0660  4.2705 -2.4688
 4157TIP3   OH212434   3.301   5.944   3.222 -0.0915  0.3483 -0.2629
 4157TIP3    H112435   3.335   5.891   3.294 -1.7557 -0.6053 -0.1306
 4157TIP3    H212436   3.215   5.973   3.252  0.0639  1.6845 -1.0461
 4158TIP3   OH212437   2.682   3.025   4.675 -0.2498  0.6576  0.3235
 4158TIP3    H112438   2.703   3.036   4.582 -1.7528  0.1715 -0.1199
 4158TIP3    H212439   2.762   3.049   4.721  1.2457 -1.0919 -1.1795
 4159TIP3   OH212440   4.468   0.654   2.238  0.1149  0.2949 -0.8511
 4159TIP3    H112441   4.423   0.650   2.153 -1.7923  0.6181  0.0875
 4159TIP3    H212442   4.522   0.733   2.233 -2.2699  2.0530 -0.7606
 4160TIP3   OH212443   7.112   2.070   0.451 -0.1815 -0.1053 -0.0820
 4160TIP3    H112444   7.039   2.075   0.390 -0.6345 -0.8153  0.3871
 4160TIP3    H212445   7.190   2.083   0.397 -0.6919  1.8700 -0.4177
 4161TIP3   OH212446   4.433   2.602   2.505  0.2244 -0.0508 -0.0429
 4161TIP3    H112447   4.437   2.695   2.480  0.8629 -0.4730 -1.6055
 4161TIP3    H212448   4.342   2.577   2.490  0.3265  0.0199 -0.8062
 4162TIP3   OH212449   1.151   3.675   4.151  0.0556 -0.4648 -0.2891
 4162TIP3    H112450   1.062   3.677   4.185  0.1669 -0.5561  0.0034
 4162TIP3    H212451   1.207   3.669   4.228  0.3347  0.0414 -0.4461
 4163TIP3   OH212452   5.848   3.207   3.015 -0.2498 -0.3423  0.2058
 4163TIP3    H112453   5.804   3.180   2.935  0.8421  0.7234 -0.7830
 4163TIP3    H212454   5.919   3.143   3.026 -1.7842 -1.9103  1.6646
 4164TIP3   OH212455   4.546   2.998   1.770 -0.0984  0.9919 -0.0420
 4164TIP3    H112456   4.451   2.998   1.760 -0.3769 -0.9991  1.8725
 4164TIP3    H212457   4.561   3.006   1.864  1.3461 -3.0578  0.2986
 4165TIP3   OH212458   5.457   0.695   5.083  0.0507  0.1758  0.4998
 4165TIP3    H112459   5.449   0.728   4.994 -3.6297 -0.0588  0.6014
 4165TIP3    H212460   5.527   0.629   5.078 -0.8884 -0.7377 -2.5068
 4166TIP3   OH212461   4.055   1.471   2.638 -0.2473 -0.1538 -1.1619
 4166TIP3    H112462   4.143   1.493   2.670 -0.6912  2.7284 -1.6281
 4166TIP3    H212463   4.061   1.480   2.543 -1.1993  0.8710 -1.1430
 4167TIP3   OH212464   7.230   4.742   5.002  0.6559 -0.0097 -0.2323
 4167TIP3    H112465   7.214   4.717   4.910  1.8690  0.2172 -0.5302
 4167TIP3    H212466   7.156   4.798   5.025  0.5476  0.2809 -1.2167
 4168TIP3   OH212467   0.159   6.002   1.148  0.2647 -0.5955  0.0670
 4168TIP3    H112468   0.180   6.028   1.238  1.4033  1.5689 -0.7859
 4168TIP3    H212469   0.069   6.032   1.135  0.5486  0.2520  0.0584
 4169TIP3   OH212470   3.512   0.786   2.383 -0.2260  0.0875  0.7450
 4169TIP3    H112471   3.459   0.847   2.434  0.6556  0.2080  1.5444
 4169TIP3    H212472   3.459   0.706   2.379 -2.2797  1.4203 -1.9692
 4170TIP3   OH212473   0.549   5.393   1.478 -0.4197  0.5614  0.7273
 4170TIP3    H112474   0.590   5.458   1.421  0.9175  0.0574  1.0643
 4170TIP3    H212475   0.622   5.337   1.505 -1.3251 -0.2515  1.5310
 4171TIP3   OH212476   1.811   6.232   2.321 -0.3765 -0.2874  0.5663
 4171TIP3    H112477   1.800   6.220   2.226 -0.1933 -0.4327  0.5636
 4171TIP3    H212478   1.805   6.143   2.357 -0.2664 -0.2516  0.6733
 4172TIP3   OH212479   1.351   5.313   3.591  0.0068 -0.1737 -0.7030
 4172TIP3    H112480   1.296   5.259   3.535  1.0783 -0.4656 -1.5063
 4172TIP3    H212481   1.336   5.402   3.559 -0.3444 -0.1933 -0.6036
 4173TIP3   OH212482   4.448   1.008   3.403 -0.5114  0.3077  0.0780
 4173TIP3    H112483   4.518   0.963   3.452  0.2221 -0.3913 -1.5235
 4173TIP3    H212484   4.403   0.937   3.357 -2.0628  0.8052  0.7895
 4174TIP3   OH212485   6.921   0.225   1.161 -0.1637  0.5362  0.3093
 4174TIP3    H112486   6.943   0.159   1.096 -2.0395  2.0550 -2.0562
 4174TIP3    H212487   6.961   0.194   1.242  1.6174 -1.8719 -1.3668
 4175TIP3   OH212488   2.003   3.062   2.131  0.0536 -0.4134 -0.6222
 4175TIP3    H112489   2.090   3.057   2.092  0.3078  1.0842 -0.3236
 4175TIP3    H212490   2.004   3.144   2.180 -1.1672 -0.9181  0.2949
 4176TIP3   OH212491   5.930   1.293   1.139  0.6889 -0.2936 -0.5441
 4176TIP3    H112492   5.884   1.365   1.096  2.2943 -0.8895 -3.4983
 4176TIP3    H212493   5.890   1.214   1.103 -0.2364 -0.9541  1.7541
 4177TIP3   OH212494   4.791   4.566   2.263  0.8417 -0.0589 -0.4812
 4177TIP3    H112495   4.737   4.559   2.341  0.7006  0.0467 -0.5694
 4177TIP3    H212496   4.737   4.613   2.200  0.9072 -0.2492 -0.6833
 4178TIP3   OH212497   2.002   3.746   5.252  0.3936 -0.2052 -0.0299
 4178TIP3    H112498   2.097   3.745   5.246  0.3835 -1.8160 -0.3642
 4178TIP3    H212499   1.981   3.830   5.293  1.9416  0.2129 -0.0535
 4179TIP3   OH212500   6.945   4.158   5.509 -0.4085  0.4259  0.3679
 4179TIP3    H112501   7.008   4.227   5.485  0.7429 -0.7401 -0.0732
 4179TIP3    H212502   6.863   4.205   5.524 -0.0039  1.7573 -1.2551
 4180TIP3   OH212503   3.380   0.976   2.528 -0.2506 -0.0692  0.3917
 4180TIP3    H112504   3.380   0.942   2.618 -0.3006 -1.2085 -0.0182
 4180TIP3    H212505   3.401   1.069   2.537  1.7516 -0.5738  1.4325
 4181TIP3   OH212506   5.425   2.989   5.657 -0.2016 -0.1976 -0.5046
 4181TIP3    H112507   5.518   2.994   5.635 -0.5203 -0.7168 -2.0411
 4181TIP3    H212508   5.424   2.955   5.747  1.0910  0.1696 -0.3316
 4182TIP3   OH212509   1.890   5.438   0.361  0.3430 -0.0998  0.3521
 4182TIP3    H112510   1.927   5.398   0.439 -0.0331  0.0905  0.6312
 4182TIP3    H212511   1.966   5.472   0.313  0.6293 -0.8008  0.3028
 4183TIP3   OH212512   6.222   4.335   4.263 -0.5788 -0.6403 -0.1848
 4183TIP3    H112513   6.163   4.409   4.280  1.0770  0.8388 -0.5935
 4183TIP3    H212514   6.197   4.303   4.177 -1.0290 -0.2804 -0.1904
 4184TIP3   OH212515   6.092   5.187   5.684  0.2270 -0.3542 -0.0307
 4184TIP3    H112516   6.060   5.224   5.766 -2.3228  1.5912 -1.7346
 4184TIP3    H212517   6.024   5.125   5.657 -0.7185  1.4402 -2.1544
 4185TIP3   OH212518   5.237   5.546   2.841  0.0550  0.1112  0.5087
 4185TIP3    H112519   5.221   5.548   2.935  0.8966 -0.0485  0.6670
 4185TIP3    H212520   5.150   5.554   2.801 -0.2447  0.8351  1.2895
 4186TIP3   OH212521   6.190   2.934   0.997  0.3560 -0.0354 -0.2919
 4186TIP3    H112522   6.122   2.867   1.004 -0.0967  0.3553 -0.8728
 4186TIP3    H212523   6.271   2.888   1.017  0.2532 -1.1490 -2.1893
 4187TIP3   OH212524   0.398   0.789   5.714  0.1097  0.0162  0.5401
 4187TIP3    H112525   0.308   0.758   5.703  0.6978 -1.6108 -0.0500
 4187TIP3    H212526   0.440   0.722   5.768  0.9349  0.8625  0.9902
 4188TIP3   OH212527   3.681   1.611   3.295  0.4777  0.1089  0.4812
 4188TIP3    H112528   3.616   1.598   3.226  1.2749  0.8826 -0.4376
 4188TIP3    H212529   3.729   1.529   3.299 -0.2765 -0.3234  0.8864
 4189TIP3   OH212530   2.992   0.933   1.808  0.3299 -0.4123 -0.2091
 4189TIP3    H112531   3.009   0.946   1.901 -0.7439  1.5980 -0.2362
 4189TIP3    H212532   2.924   0.997   1.787 -1.0539 -2.3289 -1.9066
 4190TIP3   OH212533   4.516   4.099   1.565  0.2258 -0.5363 -0.6888
 4190TIP3    H112534   4.515   4.190   1.593 -1.2398 -0.8840  0.5546
 4190TIP3    H212535   4.560   4.052   1.636  1.4385 -0.7630 -1.5575
 4191TIP3   OH212536   6.390   2.856   3.061  0.2140  0.1904  0.3842
 4191TIP3    H112537   6.367   2.935   3.013 -0.0186  0.6618  1.2498
 4191TIP3    H212538   6.394   2.787   2.994 -0.9961  0.6390 -0.1695
 4192TIP3   OH212539   0.983   1.412   2.964  0.3486  0.1961  0.1214
 4192TIP3    H112540   0.910   1.351   2.970 -0.0679  0.6608 -0.1425
 4192TIP3    H212541   1.025   1.409   3.050 -0.0723  0.0436  0.3220
 4193TIP3   OH212542   6.218   0.708   4.183 -0.4691  0.2760  0.4816
 4193TIP3    H112543   6.159   0.767   4.137 -0.3467 -0.5131 -0.7451
 4193TIP3    H212544   6.299   0.758   4.192 -0.8378  0.8255  0.8278
 4194TIP3   OH212545   2.181   2.373   0.795 -0.2760  0.6627 -0.8286
 4194TIP3    H112546   2.173   2.315   0.720  1.6735 -1.0101  0.1586
 4194TIP3    H212547   2.182   2.461   0.757 -1.5959 -0.0008 -2.5180
 4195TIP3   OH212548   0.462   6.130   2.579 -0.0704 -0.1074 -0.3834
 4195TIP3    H112549   0.413   6.082   2.512  0.0155 -0.9817  0.1641
 4195TIP3    H212550   0.431   6.094   2.662  1.0992 -0.3007 -0.0137
 4196TIP3   OH212551   6.667   6.311   4.376  0.9671  0.0254  0.4353
 4196TIP3    H112552   6.716   6.379   4.422  0.7871  0.7747 -0.4413
 4196TIP3    H212553   6.697   6.318   4.285  1.3445 -1.4353  0.4197
 4197TIP3   OH212554   0.325   0.259   1.235  0.6026 -0.1581 -0.1716
 4197TIP3    H112555   0.298   0.169   1.252 -0.3673  0.2585  0.5997
 4197TIP3    H212556   0.363   0.289   1.318 -1.8828  1.0936  0.6277
 4198TIP3   OH212557   3.019   0.080   4.256  0.7313  0.0769 -0.0593
 4198TIP3    H112558   3.057   0.100   4.342  0.1320 -1.0610  0.5020
 4198TIP3    H212559   3.072   0.007   4.223  1.5684  1.1261 -1.1175
 4199TIP3   OH212560   0.119   4.646   3.691 -0.2508  0.4378 -0.0492
 4199TIP3    H112561   0.140   4.563   3.647  1.4015  1.5695 -1.5139
 4199TIP3    H212562   0.037   4.628   3.738  0.5546 -2.3023  0.5037
 4200TIP3   OH212563   0.877   1.875   0.628 -0.4083  0.0768  0.2925
 4200TIP3    H112564   0.864   1.810   0.697 -1.7227 -1.4166 -1.2927
 4200TIP3    H212565   0.892   1.957   0.676 -0.3667 -1.0493  2.3353
 4201TIP3   OH212566   0.737   5.849   0.520  0.3399 -0.1904  0.4866
 4201TIP3    H112567   0.674   5.779   0.533 -0.8396  0.8852  0.7533
 4201TIP3    H212568   0.790   5.850   0.600  0.1645 -0.5685  0.6084
 4202TIP3   OH212569   2.076   4.941   4.053 -0.1242  0.2924 -0.0016
 4202TIP3    H112570   2.165   4.971   4.071  0.2345 -0.0341 -1.1401
 4202TIP3    H212571   2.050   4.989   3.974 -0.5217 -0.4835 -0.3475
 4203TIP3   OH212572   0.790   2.133   0.052 -0.3676  0.3340 -0.5042
 4203TIP3    H112573   0.719   2.069   0.051 -0.5554  0.4792  0.9093
 4203TIP3    H212574   0.748   2.216   0.032 -0.2949  0.1716 -1.3544
 4204TIP3   OH212575   3.788   4.627   3.568 -0.0453  0.8313  0.4226
 4204TIP3    H112576   3.772   4.563   3.499  1.0967 -1.1716  1.9029
 4204TIP3    H212577   3.701   4.644   3.605 -0.4022  0.3403 -0.1704
 4205TIP3   OH212578   5.769   1.472   0.921  0.0302 -0.5002  0.6113
 4205TIP3    H112579   5.803   1.542   0.865 -0.0903 -0.3387  0.7400
 4205TIP3    H212580   5.814   1.393   0.890 -0.6112 -0.5500 -0.2357
 4206TIP3   OH212581   6.366   3.111   2.891  0.0434  0.4149 -0.2433
 4206TIP3    H112582   6.394   3.053   2.820 -0.8294 -0.2521 -0.0608
 4206TIP3    H212583   6.330   3.188   2.847 -2.3225 -0.8200 -0.6391
 4207TIP3   OH212584   7.182   2.886   1.058  0.0638  0.3598  0.0099
 4207TIP3    H112585   7.263   2.927   1.090 -0.0999 -0.1718  1.1499
 4207TIP3    H212586   7.120   2.958   1.051  0.3778  0.6337  0.0106
 4208TIP3   OH212587   0.941   2.875   3.442  0.4887  0.3877  0.1813
 4208TIP3    H112588   0.903   2.841   3.361  0.9348  0.5807 -0.1119
 4208TIP3    H212589   0.901   2.821   3.511 -1.8114  1.8501  0.0913
 4209TIP3   OH212590   4.070   1.480   3.791  0.0865  0.5199 -0.2459
 4209TIP3    H112591   4.121   1.446   3.865 -0.8164 -0.0482  0.1330
 4209TIP3    H212592   4.073   1.575   3.803 -1.4518  0.4188  1.5555
 4210TIP3   OH212593   5.260   1.423   2.989  0.1807  0.1783  0.3007
 4210TIP3    H112594   5.278   1.512   2.959  1.5826  0.0950  0.8470
 4210TIP3    H212595   5.239   1.433   3.082  1.1699 -0.1464  0.5642
 4211TIP3   OH212596   4.229   4.019   2.248  0.0776  0.3035 -0.2525
 4211TIP3    H112597   4.284   4.011   2.326  2.2299 -0.4512 -1.7484
 4211TIP3    H212598   4.228   4.112   2.227  1.8401  0.2272 -0.8454
 4212TIP3   OH212599   5.342   3.627   2.834 -0.2804  0.2785  0.1365
 4212TIP3    H112600   5.314   3.580   2.913  0.1822 -0.2545 -0.0121
 4212TIP3    H212601   5.286   3.592   2.764 -0.7334  0.7952  0.2273
 4213TIP3   OH212602   3.843   4.928   5.449  0.8912  0.2244  0.0396
 4213TIP3    H112603   3.758   4.889   5.429  1.6274 -1.8458  0.6707
 4213TIP3    H212604   3.841   4.945   5.543  1.1329  0.2770  0.0377
 4214TIP3   OH212605   5.362   6.242   2.972  0.3788  0.3544  0.4643
 4214TIP3    H112606   5.408   6.289   3.040 -1.3037  0.0457  1.8892
 4214TIP3    H212607   5.269   6.257   2.990 -0.1842 -1.9075 -0.1456
 4215TIP3   OH212608   6.791   1.475   4.568 -0.8189  0.0043 -0.0617
 4215TIP3    H112609   6.752   1.393   4.535  1.6388 -1.5635  0.6561
 4215TIP3    H212610   6.836   1.513   4.492  0.9912 -1.2192  0.3339
 4216TIP3   OH212611   1.258   0.859   4.193  0.4280  0.0572 -0.1585
 4216TIP3    H112612   1.193   0.884   4.259  0.3685 -0.4784 -0.0032
 4216TIP3    H212613   1.210   0.858   4.110  0.5256  0.8263 -0.2248
 4217TIP3   OH212614   5.906   4.925   0.943  0.3280  0.3306  0.1464
 4217TIP3    H112615   5.986   4.874   0.928 -0.1422 -0.3573 -0.0704
 4217TIP3    H212616   5.852   4.868   0.998 -0.6046  0.1931 -0.8892
 4218TIP3   OH212617   1.717   3.124   3.483 -0.1336 -0.3660  0.0570
 4218TIP3    H112618   1.778   3.079   3.424  0.0040 -0.3764  0.2072
 4218TIP3    H212619   1.651   3.057   3.504  0.5024 -0.7406  0.9066
 4219TIP3   OH212620   6.568   6.139   1.849 -0.1213  0.1814  0.4438
 4219TIP3    H112621   6.615   6.138   1.766 -1.7083  1.0384 -0.5204
 4219TIP3    H212622   6.615   6.202   1.903  1.8365 -1.4857  0.8184
 4220TIP3   OH212623   3.145   0.710   1.078 -0.6094  0.3900  0.3323
 4220TIP3    H112624   3.188   0.647   1.020  0.7986  0.7138  0.9953
 4220TIP3    H212625   3.069   0.662   1.112  0.7653 -1.2161  1.3101
 4221TIP3   OH212626   4.831   4.277   0.086  0.2668 -0.2673  0.3287
 4221TIP3    H112627   4.736   4.282   0.071  0.2039 -0.5138  0.6339
 4221TIP3    H212628   4.840   4.229   0.168  0.6992 -1.4858 -0.4093
 4222TIP3   OH212629   2.190   3.616   1.285  0.0520 -0.1388 -0.0174
 4222TIP3    H112630   2.119   3.626   1.348 -1.4123 -0.2306 -1.5791
 4222TIP3    H212631   2.225   3.529   1.302 -0.6201 -0.3418  0.3879
 4223TIP3   OH212632   6.704   0.188   3.160  0.5033 -0.5468 -0.7689
 4223TIP3    H112633   6.699   0.191   3.064  1.0439 -1.1758 -0.8246
 4223TIP3    H212634   6.758   0.112   3.178 -0.8381 -1.3174  0.0863
 4224TIP3   OH212635   6.469   4.150   4.899 -0.0790  0.4592 -0.0198
 4224TIP3    H112636   6.534   4.218   4.915  0.3038  0.2329 -0.5675
 4224TIP3    H212637   6.443   4.119   4.986 -1.3301  2.2991  0.3128
 4225TIP3   OH212638   0.633   3.805   0.839 -0.0231  0.1419 -0.0851
 4225TIP3    H112639   0.622   3.882   0.783  2.0936  0.5033 -0.0810
 4225TIP3    H212640   0.722   3.776   0.822 -0.3975 -1.6194  0.7997
 4226TIP3   OH212641   2.566   5.135   0.659 -0.2514  0.3375 -0.3280
 4226TIP3    H112642   2.491   5.100   0.707 -0.4144  1.3372  0.1541
 4226TIP3    H212643   2.607   5.057   0.619 -0.1051 -0.5421  1.4350
 4227TIP3   OH212644   7.148   2.556   2.567 -0.4265 -0.3408  0.2306
 4227TIP3    H112645   7.125   2.643   2.598  1.4835 -0.1768  1.3493
 4227TIP3    H212646   7.173   2.568   2.476 -0.7469  0.1600  0.2049
 4228TIP3   OH212647   6.902   0.241   4.259  0.4103  0.1756 -0.2459
 4228TIP3    H112648   6.849   0.266   4.336 -1.2812  0.0762 -1.3260
 4228TIP3    H212649   6.910   0.322   4.209  1.0496  0.1181 -0.2422
 4229TIP3   OH212650   0.811   1.275   2.587 -0.1670 -0.3252 -0.4175
 4229TIP3    H112651   0.902   1.264   2.613 -0.3363  0.9157  0.8088
 4229TIP3    H212652   0.805   1.365   2.554 -1.0004 -0.2842 -0.1924
 4230TIP3   OH212653   7.074   2.420   0.172 -0.6000  0.0305  0.0928
 4230TIP3    H112654   7.106   2.434   0.082  1.4613  0.7106  0.8813
 4230TIP3    H212655   6.999   2.480   0.180 -0.3797  0.4731 -0.9405
 4231TIP3   OH212656   3.833   1.548   4.048  0.0158 -0.6532 -0.1879
 4231TIP3    H112657   3.751   1.582   4.084  0.6717  0.1226  0.6533
 4231TIP3    H212658   3.810   1.515   3.961 -0.9301  0.7752 -0.5149
 4232TIP3   OH212659   3.728   2.918   3.980  0.3432 -0.0622  0.0240
 4232TIP3    H112660   3.798   2.903   4.044  0.6838  0.0822 -0.3120
 4232TIP3    H212661   3.676   2.837   3.982  1.6746 -1.0033 -1.1706
 4233TIP3   OH212662   2.466   6.695   0.309 -0.3673 -0.9189 -0.1259
 4233TIP3    H112663   2.499   6.785   0.316  2.2976 -1.7832 -0.5271
 4233TIP3    H212664   2.485   6.670   0.219 -1.9052 -1.6455 -0.2857
 4234TIP3   OH212665   2.338   3.301   4.139  0.4751  0.6343  1.4541
 4234TIP3    H112666   2.247   3.316   4.163 -0.6446 -1.3903 -0.9617
 4234TIP3    H212667   2.383   3.383   4.159 -2.2496  2.3424  1.0475
 4235TIP3   OH212668   1.311   5.976   3.695 -0.2838  0.3553 -0.3520
 4235TIP3    H112669   1.223   6.014   3.691  0.0145  0.9643 -3.4148
 4235TIP3    H212670   1.369   6.051   3.710 -0.2389 -0.0821  1.9673
 4236TIP3   OH212671   1.690   5.428   5.231 -0.2124 -0.1364  0.0730
 4236TIP3    H112672   1.667   5.484   5.158 -2.4659  1.1261  1.6392
 4236TIP3    H212673   1.779   5.456   5.256 -0.7474  1.8035 -0.0555
 4237TIP3   OH212674   3.354   5.315   3.900 -0.1466  0.6525  0.1229
 4237TIP3    H112675   3.299   5.250   3.856 -1.3575  3.0502 -2.2022
 4237TIP3    H212676   3.441   5.302   3.860 -0.8388  1.6545 -1.8728
 4238TIP3   OH212677   4.651   4.286   3.192 -0.6059  0.3237 -0.2950
 4238TIP3    H112678   4.695   4.205   3.167 -0.0780  1.0727 -2.0246
 4238TIP3    H212679   4.584   4.260   3.255  1.1638 -1.0939  1.0922
 4239TIP3   OH212680   5.976   4.083   4.118  0.3590  0.1706 -0.2159
 4239TIP3    H112681   6.021   4.109   4.038 -1.0803  1.9888 -0.5005
 4239TIP3    H212682   5.886   4.065   4.090 -0.2130  1.0474  1.0222
 4240TIP3   OH212683   1.468   2.188   3.469 -0.4728  0.2649  0.1895
 4240TIP3    H112684   1.551   2.142   3.455 -0.7951 -0.2328 -0.0772
 4240TIP3    H212685   1.491   2.259   3.530  0.1665  0.1862  0.0509
 4241TIP3   OH212686   5.546   5.941   0.109  0.2432 -0.0675  0.3332
 4241TIP3    H112687   5.571   5.856   0.145  0.6901 -0.7993 -1.6071
 4241TIP3    H212688   5.455   5.928   0.080  0.7839 -0.3653 -1.2964
 4242TIP3   OH212689   3.609   4.135   0.688 -0.9250  0.4152 -0.9372
 4242TIP3    H112690   3.550   4.111   0.616 -0.2914 -0.3993 -1.1950
 4242TIP3    H212691   3.697   4.119   0.654 -0.6453 -1.7428  0.5713
 4243TIP3   OH212692   0.064   4.461   2.744 -0.7106  0.1679 -0.1952
 4243TIP3    H112693   0.088   4.379   2.788 -0.1332 -0.5231 -1.7475
 4243TIP3    H212694  -0.022   4.443   2.705 -0.5750  0.3017 -0.5561
 4244TIP3   OH212695   0.976   2.477   3.671 -0.6041 -0.1127 -0.2092
 4244TIP3    H112696   0.941   2.486   3.582  0.4433  0.5288 -0.5754
 4244TIP3    H212697   1.058   2.429   3.661 -1.7175 -2.3587  0.7425
 4245TIP3   OH212698   6.519   6.316   4.671  0.0064 -0.3528  0.1581
 4245TIP3    H112699   6.514   6.335   4.577  2.6255  1.3346  0.2424
 4245TIP3    H212700   6.428   6.312   4.700 -0.8680 -0.5966 -2.3800
 4246TIP3   OH212701   3.683   1.218   2.986 -0.6174  0.4830 -0.2117
 4246TIP3    H112702   3.681   1.122   2.994 -0.9751  0.3936 -1.1894
 4246TIP3    H212703   3.764   1.236   2.940 -0.1478  0.7269  0.6887
 4247TIP3   OH212704   0.943   3.316   3.701  0.0613  0.3752 -0.3633
 4247TIP3    H112705   1.013   3.315   3.636  0.7836 -0.3163  0.3999
 4247TIP3    H212706   0.983   3.358   3.778  0.4216 -2.0583  0.8837
 4248TIP3   OH212707   3.957   0.839   1.974 -0.1312 -0.1548 -0.3554
 4248TIP3    H112708   3.936   0.829   2.066  0.5046 -1.2645 -0.3127
 4248TIP3    H212709   3.997   0.926   1.968  0.7722 -0.4862  0.6042
 4249TIP3   OH212710   7.148   2.348   0.432  0.3859  0.1964 -0.1569
 4249TIP3    H112711   7.140   2.400   0.352  1.0277  0.0383 -0.3284
 4249TIP3    H212712   7.088   2.389   0.494  0.4233  0.7583 -0.4914
 4250TIP3   OH212713   5.428   3.207   2.980 -0.7265  0.1385  0.5868
 4250TIP3    H112714   5.503   3.246   3.025 -0.2247 -0.6353  0.4366
 4250TIP3    H212715   5.462   3.127   2.940 -1.4300  0.2194 -0.2147
 4251TIP3   OH212716   6.118   5.965   2.854 -0.0787 -0.2208 -0.4435
 4251TIP3    H112717   6.117   5.869   2.855 -1.8145 -0.2430 -0.5317
 4251TIP3    H212718   6.176   5.990   2.925 -1.5940 -1.3657  1.2812
 4252TIP3   OH212719   5.887   4.303   1.273  0.4067  0.6466  0.2182
 4252TIP3    H112720   5.935   4.222   1.254 -0.5359  0.4191 -1.3997
 4252TIP3    H212721   5.886   4.309   1.368  0.0711 -1.5201  0.3918
 4253TIP3   OH212722   7.145   0.900   4.266 -0.2912  0.0514 -0.2751
 4253TIP3    H112723   7.112   0.860   4.185  2.0618  3.5422 -3.2582
 4253TIP3    H212724   7.240   0.892   4.260 -0.0261  1.0915  1.8043
 4254TIP3   OH212725   0.038   6.575   4.482 -0.6110  0.1976 -0.3454
 4254TIP3    H112726   0.108   6.526   4.437 -1.3030 -0.7708 -0.3998
 4254TIP3    H212727   0.041   6.543   4.572 -0.0844  1.1865  0.0054
 4255TIP3   OH212728   6.793   3.226   0.170  0.2263  0.1530  0.3703
 4255TIP3    H112729   6.699   3.236   0.189 -0.1076  2.0288 -1.8216
 4255TIP3    H212730   6.819   3.310   0.131  2.6695 -0.5731  0.2710
 4256TIP3   OH212731   2.577   4.005   3.507 -0.6845  0.2947 -0.7829
 4256TIP3    H112732   2.667   4.037   3.499 -0.2334 -1.0985 -1.7564
 4256TIP3    H212733   2.556   4.013   3.600  1.1052 -0.9887 -0.2184
 4257TIP3   OH212734   0.916   0.044   0.553  0.3777  0.5796 -0.6603
 4257TIP3    H112735   0.954  -0.035   0.516 -0.0888  0.0722 -0.0858
 4257TIP3    H212736   0.853   0.012   0.618  0.5474  1.4257 -0.0607
 4258TIP3   OH212737   2.622   2.376   5.846  0.3256 -0.1677 -0.2730
 4258TIP3    H112738   2.610   2.340   5.758  2.5946 -0.8309 -0.3650
 4258TIP3    H212739   2.582   2.311   5.904  0.3724 -0.5901 -0.7093
 4259TIP3   OH212740   5.400   5.887   5.484 -0.0481  0.3723  0.2198
 4259TIP3    H112741   5.352   5.809   5.455  0.1969 -0.3958  1.7940
 4259TIP3    H212742   5.456   5.909   5.410 -0.2390 -0.8571 -0.3124
 4260TIP3   OH212743   1.024   5.771   0.668  0.1507 -0.6145  0.3407
 4260TIP3    H112744   0.958   5.812   0.724  0.6272  0.0093  0.4619
 4260TIP3    H212745   1.085   5.729   0.729  0.2414 -0.5949  0.2648
 4261TIP3   OH212746   4.215   5.253   4.345 -0.2019  0.1291 -0.3407
 4261TIP3    H112747   4.269   5.304   4.405 -2.4001  2.3543 -0.0810
 4261TIP3    H212748   4.177   5.184   4.400 -2.5163  2.3816  1.1312
 4262TIP3   OH212749   5.239   4.749   4.681  0.2297  0.4463  0.6870
 4262TIP3    H112750   5.175   4.682   4.659  1.6739 -1.2347  1.3845
 4262TIP3    H212751   5.193   4.805   4.745 -1.9172  1.8647 -1.8891
 4263TIP3   OH212752   1.776   0.794   2.530  0.4649  0.0991  0.0354
 4263TIP3    H112753   1.823   0.857   2.583  1.0811 -1.3828  1.3234
 4263TIP3    H212754   1.844   0.743   2.486  0.0757 -1.0427  0.6995
 4264TIP3   OH212755   3.677   1.972   2.677 -0.4479  0.0687  0.6308
 4264TIP3    H112756   3.598   2.009   2.716 -0.6911 -0.0283  0.2284
 4264TIP3    H212757   3.749   2.012   2.727 -0.7197  0.7086  0.5165
 4265TIP3   OH212758   0.907   6.691   5.365 -0.1609  0.0714 -0.6171
 4265TIP3    H112759   0.958   6.758   5.411 -0.8185  0.6701 -0.7396
 4265TIP3    H212760   0.928   6.610   5.410 -0.1411  0.5194  0.2006
 4266TIP3   OH212761   6.897   1.570   4.344 -0.2356 -0.2705  0.1831
 4266TIP3    H112762   6.856   1.513   4.279  2.0126 -1.9392  0.1266
 4266TIP3    H212763   6.989   1.573   4.320  0.4434  0.1452  2.5170
 4267TIP3   OH212764   0.523   4.352   1.068 -0.0439 -0.8565  0.0882
 4267TIP3    H112765   0.569   4.321   0.990  0.0780  0.8774 -0.5796
 4267TIP3    H212766   0.568   4.309   1.141 -0.2495 -2.6185 -0.7848
 4268TIP3   OH212767   0.861   6.242   1.689 -0.2048  0.4623  0.2676
 4268TIP3    H112768   0.828   6.238   1.599  0.5653  0.3294 -0.0159
 4268TIP3    H212769   0.856   6.151   1.720  0.0259  0.4183  0.1761
 4269TIP3   OH212770   3.313   1.207   5.103  0.8312  0.3165  0.1669
 4269TIP3    H112771   3.236   1.153   5.121  1.1842 -0.6968 -1.2056
 4269TIP3    H212772   3.365   1.155   5.041  2.7277  0.8659  1.1973
 4270TIP3   OH212773   4.254   6.805   5.159  0.1416 -0.2403 -0.0520
 4270TIP3    H112774   4.185   6.820   5.224 -0.4359 -0.7540 -0.5277
 4270TIP3    H212775   4.302   6.728   5.191  1.8503  1.3297  1.3619
 4271TIP3   OH212776   2.900   2.952   3.129 -0.5421  0.1430 -0.2933
 4271TIP3    H112777   2.825   3.011   3.117 -1.3974 -1.1718 -1.9702
 4271TIP3    H212778   2.900   2.932   3.223 -0.4291  2.4694  0.2563
 4272TIP3   OH212779   4.140   2.930   2.086  0.3261  0.2829 -0.3085
 4272TIP3    H112780   4.144   2.841   2.121 -0.7742  0.2512 -0.2117
 4272TIP3    H212781   4.086   2.922   2.007  0.1119  0.8865 -0.2266
 4273TIP3   OH212782   2.745   6.547   1.852 -0.0552 -0.5464 -0.1653
 4273TIP3    H112783   2.725   6.459   1.884 -1.6284 -0.1257  0.0776
 4273TIP3    H212784   2.739   6.603   1.930  0.9989 -0.2161 -0.3043
 4274TIP3   OH212785   0.448   4.546   4.618 -0.2930 -0.1389  1.1207
 4274TIP3    H112786   0.363   4.512   4.645 -1.3738  1.2445 -0.3978
 4274TIP3    H212787   0.457   4.630   4.664  0.1541 -0.1778  1.1154
 4275TIP3   OH212788   3.984   5.506   2.782  0.1203  0.3459 -0.1912
 4275TIP3    H112789   3.960   5.433   2.726 -1.7611 -0.3294  1.3701
 4275TIP3    H212790   4.036   5.465   2.853 -1.8493  0.2510  1.2760
 4276TIP3   OH212791   2.363   5.392   0.866 -1.2066 -0.4853  0.3050
 4276TIP3    H112792   2.342   5.299   0.872  0.1616 -0.9628 -1.4045
 4276TIP3    H212793   2.363   5.411   0.772  0.3564  0.7621  0.5081
 4277TIP3   OH212794   5.893   0.653   4.619  0.4499 -0.5210  0.3830
 4277TIP3    H112795   5.810   0.618   4.587  0.9306 -0.1823 -1.3558
 4277TIP3    H212796   5.869   0.719   4.683 -0.5426 -1.9278  1.5349
 4278TIP3   OH212797   6.509   0.315   5.516  0.4941  0.1593 -0.0447
 4278TIP3    H112798   6.526   0.254   5.589  1.4886 -0.1974 -0.5628
 4278TIP3    H212799   6.560   0.393   5.538  0.6913  0.1001 -0.2978
 4279TIP3   OH212800   0.835   3.698   5.653 -0.0167 -0.4961  0.5996
 4279TIP3    H112801   0.922   3.659   5.664 -0.3916 -0.8961  2.8338
 4279TIP3    H212802   0.815   3.735   5.740 -1.5760  0.6571 -0.2045
 4280TIP3   OH212803   3.731   5.298   3.460 -0.3891 -0.2230 -0.3802
 4280TIP3    H112804   3.820   5.263   3.452 -0.1231  0.4372 -0.3199
 4280TIP3    H212805   3.739   5.372   3.520 -0.6271  1.0448 -1.8573
 4281TIP3   OH212806   6.038   4.437   2.052 -0.1863 -0.6115  0.3482
 4281TIP3    H112807   6.081   4.394   2.125  1.5553  0.4868  0.0150
 4281TIP3    H212808   6.025   4.368   1.987 -0.4977 -1.3021  1.1305
 4282TIP3   OH212809   0.449   6.031   0.127 -0.3437 -0.0633  0.5927
 4282TIP3    H112810   0.522   5.985   0.086 -0.1301  1.5519 -1.0201
 4282TIP3    H212811   0.463   6.021   0.221  1.1263 -1.0158  0.2994
 4283TIP3   OH212812   1.291   1.757   2.748  0.4187  0.5002  0.0163
 4283TIP3    H112813   1.315   1.824   2.812  0.9121  1.4254 -1.1225
 4283TIP3    H212814   1.345   1.681   2.772  0.5140  0.7945  0.7581
 4284TIP3   OH212815   0.757   6.073   1.123 -0.6990  0.4417  0.1309
 4284TIP3    H112816   0.727   6.019   1.049 -1.6823 -0.6273  1.2647
 4284TIP3    H212817   0.851   6.083   1.108 -0.8968  0.4285 -1.3603
 4285TIP3   OH212818   5.721   5.278   3.228 -0.0090  0.2366  0.2393
 4285TIP3    H112819   5.801   5.225   3.229  1.6105  2.5612  0.3805
 4285TIP3    H212820   5.728   5.331   3.148 -2.6199 -1.1274 -1.0361
 4286TIP3   OH212821   0.567   3.356   2.848 -0.0226 -0.1838  0.2385
 4286TIP3    H112822   0.557   3.262   2.833  0.0623 -0.2034  0.3082
 4286TIP3    H212823   0.518   3.397   2.776 -1.8689 -0.2701  1.3808
 4287TIP3   OH212824   0.048   2.288   2.339  0.1215 -0.1739 -0.1614
 4287TIP3    H112825   0.010   2.224   2.399 -1.7571 -0.1896 -1.2620
 4287TIP3    H212826   0.135   2.306   2.374  0.0559 -2.0466  1.1212
 4288TIP3   OH212827   6.516   6.635   3.070  0.0976  0.1153  0.5173
 4288TIP3    H112828   6.508   6.624   3.165 -0.8869  0.8616  0.5502
 4288TIP3    H212829   6.442   6.586   3.034 -1.3507  2.2623  0.3676
 4289TIP3   OH212830   5.183   3.169   3.825 -0.3782  0.1179  0.2073
 4289TIP3    H112831   5.192   3.163   3.920  0.5593  0.2556  0.1270
 4289TIP3    H212832   5.132   3.248   3.811 -1.7491 -0.6442  0.6497
 4290TIP3   OH212833   5.485   0.479   3.088 -0.1854  0.6685 -0.4081
 4290TIP3    H112834   5.568   0.526   3.082  0.1849  0.0562 -0.1190
 4290TIP3    H212835   5.509   0.387   3.099 -0.8045  0.7532  2.5435
 4291TIP3   OH212836   4.470   3.749   1.928  0.3509  0.3331  0.6347
 4291TIP3    H112837   4.432   3.827   1.970  0.0650  0.2894  0.4572
 4291TIP3    H212838   4.537   3.719   1.990 -0.7325 -0.3064  1.5336
 4292TIP3   OH212839   3.555   3.871   2.178  1.0704 -0.9671 -0.1839
 4292TIP3    H112840   3.487   3.817   2.137  0.1936  0.3722 -0.5472
 4292TIP3    H212841   3.525   3.881   2.268 -0.4513  1.4085 -0.8470
 4293TIP3   OH212842   0.622   0.386   3.337  0.2275  0.4507 -0.0907
 4293TIP3    H112843   0.706   0.350   3.364 -0.1929 -0.5360 -0.0793
 4293TIP3    H212844   0.575   0.402   3.419  0.2366  0.5992 -0.1137
 4294TIP3   OH212845   6.021   0.610   5.426  0.5736  0.5708  0.4078
 4294TIP3    H112846   6.106   0.567   5.438  0.3428  0.1992  0.7435
 4294TIP3    H212847   6.015   0.672   5.499 -0.0487 -0.4035  1.1945
 4295TIP3   OH212848   2.257   4.048   3.681  0.1607 -0.1741  0.4180
 4295TIP3    H112849   2.353   4.053   3.673  0.0287 -0.4860 -2.0183
 4295TIP3    H212850   2.238   3.954   3.680 -0.1505 -0.1412  1.7165
 4296TIP3   OH212851   6.178   5.694   0.959 -0.1794 -0.0939  0.6207
 4296TIP3    H112852   6.187   5.630   1.030  0.8483 -0.4683  0.1867
 4296TIP3    H212853   6.180   5.779   1.003 -3.0329 -0.3131  1.3551
 4297TIP3   OH212854   6.113   2.658   3.745  0.1073 -0.7802 -0.0703
 4297TIP3    H112855   6.102   2.701   3.830  1.6571  0.0468 -0.2647
 4297TIP3    H212856   6.125   2.729   3.683  1.0192 -1.4310 -0.6634
 4298TIP3   OH212857   5.839   2.508   0.681  0.6122 -0.4217 -0.2274
 4298TIP3    H112858   5.910   2.518   0.617 -0.5435  0.4258 -1.4400
 4298TIP3    H212859   5.772   2.458   0.635  0.7053 -1.9308  1.1789
 4299TIP3   OH212860   3.843   5.774   5.821  0.2863 -0.1166  0.0712
 4299TIP3    H112861   3.878   5.703   5.766  2.2175  0.8688 -0.0613
 4299TIP3    H212862   3.911   5.789   5.886 -0.5848  0.8940  0.7719
 4300TIP3   OH212863   0.345   3.523   1.024  0.5530 -0.0985  0.4540
 4300TIP3    H112864   0.305   3.437   1.022  0.5323 -0.1917  2.5336
 4300TIP3    H212865   0.426   3.513   0.973 -0.0771 -0.9715 -0.4135
 4301TIP3   OH212866   1.022   1.645   4.679 -0.2745  0.1753 -0.2503
 4301TIP3    H112867   1.107   1.677   4.650 -0.5513 -0.3715 -1.7568
 4301TIP3    H212868   1.037   1.552   4.699 -0.6394 -0.0844 -1.1391
 4302TIP3   OH212869   3.427   4.413   3.298  0.3046 -0.3966  0.0940
 4302TIP3    H112870   3.474   4.431   3.216  0.0685 -0.0641  0.0285
 4302TIP3    H212871   3.495   4.393   3.361  0.5161 -0.2187 -0.0769
 4303TIP3   OH212872   1.576   2.808   4.727  0.1929 -0.7506  0.5574
 4303TIP3    H112873   1.659   2.782   4.688 -1.1337 -1.1997 -2.1720
 4303TIP3    H212874   1.516   2.819   4.653 -1.8810  0.7719  2.3132
 4304TIP3   OH212875   0.487   3.487   5.878  0.0892  0.0292 -0.4333
 4304TIP3    H112876   0.557   3.426   5.855 -0.8565 -1.1168 -0.3111
 4304TIP3    H212877   0.423   3.478   5.807 -0.8916 -0.4610  0.4938
 4305TIP3   OH212878   6.880   1.517   5.106 -0.4112 -0.1244 -0.1782
 4305TIP3    H112879   6.892   1.528   5.012 -0.9499  2.3830 -0.0195
 4305TIP3    H212880   6.969   1.506   5.141 -0.1512 -0.3037 -0.8885
 4306TIP3   OH212881   3.967   0.921   3.539 -0.4408  0.1498 -0.0342
 4306TIP3    H112882   4.007   0.834   3.535 -0.0093  0.3737 -0.8979
 4306TIP3    H212883   3.874   0.904   3.555 -0.0626 -0.3846  1.8800
 4307TIP3   OH212884   0.508   5.795   5.138 -0.3402  0.1449 -0.4603
 4307TIP3    H112885   0.458   5.856   5.191 -0.8639  0.2890 -1.1054
 4307TIP3    H212886   0.459   5.788   5.056 -0.0779 -0.8320 -0.5522
 4308TIP3   OH212887   4.514   1.871   3.096 -0.0518  0.0128 -0.0950
 4308TIP3    H112888   4.527   1.966   3.088 -3.3357  0.9750  3.0414
 4308TIP3    H212889   4.445   1.851   3.032 -1.0048  0.2858  0.8197
 4309TIP3   OH212890   5.883   1.746   4.548  0.0528  0.6452 -0.0386
 4309TIP3    H112891   5.820   1.798   4.598  0.8008  1.1627  0.3929
 4309TIP3    H212892   5.908   1.803   4.475 -0.4102  0.2118 -0.5463
 4310TIP3   OH212893   0.219   6.281   0.273  0.2315  0.1663  0.6839
 4310TIP3    H112894   0.257   6.269   0.187  0.3209  2.9561  0.2671
 4310TIP3    H212895   0.273   6.348   0.315  0.0876 -0.9825  2.8876
 4311TIP3   OH212896   1.461   6.271   5.837  0.7035 -0.4223  0.0272
 4311TIP3    H112897   1.441   6.241   5.749  1.4377 -1.5875  0.2367
 4311TIP3    H212898   1.412   6.211   5.894  1.8599 -0.9905  0.4477
 4312TIP3   OH212899   3.423   6.302   5.270  0.2917  0.4335 -0.6505
 4312TIP3    H112900   3.444   6.209   5.260  1.1096  0.5123  0.2340
 4312TIP3    H212901   3.337   6.303   5.312 -0.6648  0.1019 -2.5015
 4313TIP3   OH212902   7.118   1.106   5.093  0.3992 -0.3141  0.3452
 4313TIP3    H112903   7.066   1.027   5.107  0.9365 -0.4872  1.5217
 4313TIP3    H212904   7.189   1.078   5.035 -0.6309 -0.1466 -1.0203
 4314TIP3   OH212905   0.475   3.927   5.022 -1.0027 -0.1388 -0.3253
 4314TIP3    H112906   0.433   3.949   5.105  0.0674 -0.9488  0.4460
 4314TIP3    H212907   0.487   4.012   4.978 -2.0362  0.2456  0.0926
 4315TIP3   OH212908   3.853   0.368   3.979  0.7682 -0.2303 -0.0026
 4315TIP3    H112909   3.822   0.285   3.942 -0.8439  1.3914 -2.4861
 4315TIP3    H212910   3.797   0.382   4.055 -0.1644 -0.5530 -0.6125
 4316TIP3   OH212911   0.746   1.523   0.598  0.0198  0.4898 -0.4412
 4316TIP3    H112912   0.657   1.511   0.630 -0.0483  3.2100  0.6391
 4316TIP3    H212913   0.735   1.555   0.508 -0.1039  0.8650 -0.2937
 4317TIP3   OH212914   1.329   3.014   2.005 -0.2546 -0.5586  0.8064
 4317TIP3    H112915   1.341   2.920   1.990  0.8931 -0.1071 -1.4915
 4317TIP3    H212916   1.246   3.034   1.962  0.3952 -0.2312 -0.3428
 4318TIP3   OH212917   2.951   5.582   4.815  0.4854  0.0438  0.1819
 4318TIP3    H112918   2.879   5.542   4.864  1.8237  0.4613  2.6525
 4318TIP3    H212919   3.004   5.508   4.786  0.6384 -0.1663  0.9732
 4319TIP3   OH212920   3.893   2.883   5.813 -0.0245  0.1565  0.1842
 4319TIP3    H112921   3.802   2.887   5.784  0.0617 -0.7774 -0.2763
 4319TIP3    H212922   3.896   2.934   5.893 -0.2962  2.7919 -1.3594
 4320TIP3   OH212923   6.549   2.244   0.323  0.0042 -0.5609 -0.3700
 4320TIP3    H112924   6.559   2.172   0.385 -1.4068 -1.3491 -1.0172
 4320TIP3    H212925   6.563   2.204   0.237 -1.4706 -0.2341 -0.7823
 4321TIP3   OH212926   3.998   4.281   1.901 -0.3466  0.1862  0.0053
 4321TIP3    H112927   4.061   4.279   1.829 -0.8580  1.4452 -0.5082
 4321TIP3    H212928   3.915   4.254   1.861 -0.4282 -0.1009  0.3591
 4322TIP3   OH212929   0.244   4.745   2.743  0.4374 -0.4764 -0.0060
 4322TIP3    H112930   0.244   4.676   2.809 -1.1421 -0.4460  0.0556
 4322TIP3    H212931   0.159   4.788   2.752  1.1999  1.2114 -0.3325
 4323TIP3   OH212932   6.803   0.233   3.409  0.1321  0.0596 -0.3170
 4323TIP3    H112933   6.765   0.203   3.491  0.6467 -2.7567 -1.0277
 4323TIP3    H212934   6.736   0.214   3.343  0.7126 -0.0594 -0.8805
 4324TIP3   OH212935   3.054   0.869   0.901  0.2851 -0.2999  0.7575
 4324TIP3    H112936   3.115   0.825   0.959  0.6745  0.6403  1.0902
 4324TIP3    H212937   2.972   0.874   0.951 -0.1174 -1.6562  0.2699
 4325TIP3   OH212938   6.330   4.500   0.923  0.8603 -0.3338  0.1835
 4325TIP3    H112939   6.380   4.428   0.884  1.8933  0.4944 -0.0510
 4325TIP3    H212940   6.338   4.572   0.860  0.0839  0.0929  0.5548
 4326TIP3   OH212941   4.166   0.169   2.012 -0.0566  0.2098  0.1926
 4326TIP3    H112942   4.093   0.121   1.972 -1.5451  1.4384  1.2728
 4326TIP3    H212943   4.141   0.175   2.105  1.3341  0.8487  0.5413
 4327TIP3   OH212944   2.248   4.829   1.090  0.0100  0.1813  0.5532
 4327TIP3    H112945   2.324   4.881   1.063 -0.1312  0.9916  1.6595
 4327TIP3    H212946   2.265   4.741   1.056  0.7583  0.6942 -0.4378
 4328TIP3   OH212947   5.047   2.655   1.441 -0.0993 -0.5267 -0.2941
 4328TIP3    H112948   4.959   2.630   1.471 -0.4128 -0.2349 -0.9652
 4328TIP3    H212949   5.093   2.679   1.522 -1.4078  1.7311 -0.1345
 4329TIP3   OH212950   1.557   1.862   3.382 -0.0029 -0.1960 -0.5705
 4329TIP3    H112951   1.620   1.792   3.367  0.7111  0.8847 -3.2862
 4329TIP3    H212952   1.606   1.928   3.431  0.1815 -0.4088 -0.4633
 4330TIP3   OH212953   2.441   3.538   4.196 -0.2537 -0.6726  0.1493
 4330TIP3    H112954   2.511   3.597   4.168 -0.2318 -1.2178 -1.0467
 4330TIP3    H212955   2.406   3.577   4.276 -1.7178  2.2074 -1.7161
 4331TIP3   OH212956   4.346   2.602   0.311  0.0683 -0.1532  0.0950
 4331TIP3    H112957   4.253   2.602   0.291 -0.3053  0.0376  1.7222
 4331TIP3    H212958   4.376   2.515   0.286 -0.6527 -0.3952  0.0528
 4332TIP3   OH212959   5.328   2.846   3.201 -0.0014 -0.4245 -0.4415
 4332TIP3    H112960   5.351   2.772   3.145  1.0813  0.2661 -0.9504
 4332TIP3    H212961   5.234   2.858   3.188 -0.0438 -1.2375 -0.9315
 4333TIP3   OH212962   3.009   0.053   0.060  0.6800 -0.6085  0.0042
 4333TIP3    H112963   3.009   0.035  -0.034 -0.8892 -0.1046 -0.1154
 4333TIP3    H212964   3.086   0.108   0.073  1.4319 -1.4193 -0.8181
 4334TIP3   OH212965   7.004   6.771   2.021  0.2476 -0.0878 -0.4371
 4334TIP3    H112966   7.047   6.855   2.002  0.2153 -0.3033 -1.5289
 4334TIP3    H212967   7.047   6.709   1.962 -0.3062 -0.6755 -0.2294
 4335TIP3   OH212968   2.411   1.552   2.815  0.1740 -0.6573 -0.2585
 4335TIP3    H112969   2.423   1.632   2.764 -0.1295 -0.5132 -0.1032
 4335TIP3    H212970   2.485   1.551   2.876  2.3653 -2.3610 -2.6514
 4336TIP3   OH212971   5.373   0.678   5.354 -0.2143  0.2513 -0.1260
 4336TIP3    H112972   5.294   0.627   5.367  1.3552 -2.0315  1.1186
 4336TIP3    H212973   5.378   0.690   5.259 -0.3369 -2.5732 -0.5781
 4337TIP3   OH212974   6.726   3.722   0.789  0.3433 -0.2917  0.7016
 4337TIP3    H112975   6.750   3.745   0.878 -1.4440  2.9186  0.5118
 4337TIP3    H212976   6.693   3.804   0.751  0.4731 -1.6496 -2.7267
 4338TIP3   OH212977   1.868   5.148   4.470 -0.1141 -0.2638 -0.5029
 4338TIP3    H112978   1.852   5.081   4.404  0.3611  1.2836 -2.2610
 4338TIP3    H212979   1.790   5.203   4.469 -0.4702 -0.6991  0.8715
 4339TIP3   OH212980   5.301   1.855   5.479  0.5090 -0.2106  0.1206
 4339TIP3    H112981   5.273   1.867   5.389 -2.3079  0.3833  0.9878
 4339TIP3    H212982   5.332   1.941   5.507  3.0295 -0.7551 -0.6794
 4340TIP3   OH212983   5.249   4.197   2.145  0.4138  0.6420  1.0248
 4340TIP3    H112984   5.194   4.205   2.223 -1.6809  0.4659 -0.3818
 4340TIP3    H212985   5.214   4.260   2.083  2.7559  1.5902  0.5474
 4341TIP3   OH212986   4.046   6.493   3.614 -0.5413 -0.0876 -0.5963
 4341TIP3    H112987   4.004   6.430   3.556  0.5259 -1.1627 -0.2402
 4341TIP3    H212988   4.135   6.501   3.580 -0.6480  1.2187 -0.6138
 4342TIP3   OH212989   3.167   0.228   1.207  0.5213 -0.3334  0.9079
 4342TIP3    H112990   3.238   0.179   1.250 -0.1737 -0.6267  1.7440
 4342TIP3    H212991   3.188   0.320   1.224  0.7202 -0.4151  1.1119
 4343TIP3   OH212992   5.227   3.040  -0.032 -0.2459  1.0776  0.8902
 4343TIP3    H112993   5.137   3.009  -0.021  0.2284 -0.8279 -0.1371
 4343TIP3    H212994   5.262   3.044   0.057 -0.2115 -1.9854  1.1071
 4344TIP3   OH212995   6.562   3.380   1.371 -0.0151 -0.0133 -0.0330
 4344TIP3    H112996   6.614   3.330   1.434 -0.1617  1.6075  1.4273
 4344TIP3    H212997   6.472   3.369   1.400 -0.5252 -2.1817 -2.1129
 4345TIP3   OH212998   0.172   4.105   3.441 -0.3307  0.2654  0.6448
 4345TIP3    H112999   0.218   4.188   3.431 -0.0896  0.0757  0.1361
 4345TIP3    H213000   0.088   4.128   3.479 -0.7799  0.8985 -0.6756
 4346TIP3   OH213001   3.309   1.880   5.252  0.5535  0.2467 -0.7144
 4346TIP3    H113002   3.393   1.866   5.208  0.5298  0.5107 -0.8449
 4346TIP3    H213003   3.253   1.810   5.219  1.3760 -1.3942  1.1207
 4347TIP3   OH213004   4.434   6.554   4.750  0.1393 -0.1965  0.0970
 4347TIP3    H113005   4.359   6.610   4.731 -0.7120 -1.0709  0.7947
 4347TIP3    H213006   4.493   6.611   4.801 -0.2357  0.3691 -0.0887
 4348TIP3   OH213007   4.916   6.025   2.431 -0.1046 -0.3697 -0.4925
 4348TIP3    H113008   4.833   5.978   2.418 -1.0884  1.7193 -2.4969
 4348TIP3    H213009   4.974   5.960   2.472 -1.9552 -2.6774 -1.2784
 4349TIP3   OH213010   3.242   3.263   2.210  0.2296  0.1104 -0.3669
 4349TIP3    H113011   3.327   3.277   2.250 -0.4761 -0.5631  1.4695
 4349TIP3    H213012   3.243   3.172   2.180  0.8829  0.7080 -2.3206
 4350TIP3   OH213013   3.034   2.330   0.777  0.1153 -0.1351  0.2201
 4350TIP3    H113014   3.006   2.239   0.792 -1.3841  0.1818 -0.4871
 4350TIP3    H213015   2.958   2.372   0.738  0.8275  1.4217  0.4586
 4351TIP3   OH213016   0.628   2.600   3.838 -0.3199  0.2913 -0.0557
 4351TIP3    H113017   0.647   2.509   3.861 -0.2036  0.3824  0.2229
 4351TIP3    H213018   0.559   2.595   3.772 -0.5964  0.0145  0.2513
 4352TIP3   OH213019   6.375   3.671   2.201 -0.1209  0.1134 -0.2217
 4352TIP3    H113020   6.389   3.725   2.123  0.2515  1.7203  0.9047
 4352TIP3    H213021   6.280   3.661   2.206 -0.2925  1.7164  0.1921
 4353TIP3   OH213022   6.493   4.857   3.502  0.9479  0.1175 -0.1074
 4353TIP3    H113023   6.398   4.846   3.507  1.1374 -2.1433 -0.2143
 4353TIP3    H213024   6.523   4.844   3.592  0.9729  4.7974  0.8123
 4354TIP3   OH213025   3.323   2.260   4.518 -0.4425 -0.5037  0.2256
 4354TIP3    H113026   3.307   2.261   4.424  0.5142 -1.9752  0.0132
 4354TIP3    H213027   3.417   2.280   4.527 -0.8532  1.2332  0.9882
 4355TIP3   OH213028   0.412   0.148   4.193  0.1760  0.5818 -0.1060
 4355TIP3    H113029   0.417   0.190   4.107 -0.4881 -1.0466 -0.9744
 4355TIP3    H213030   0.502   0.147   4.225  0.5352  0.5749 -1.0920
 4356TIP3   OH213031   3.604   0.389   5.054  0.1402 -0.1204  0.1349
 4356TIP3    H113032   3.693   0.360   5.074  1.1088  2.7331  0.3408
 4356TIP3    H213033   3.600   0.479   5.085 -2.9386 -0.2272  0.3563
 4357TIP3   OH213034   0.881   0.631   0.677 -0.0427  0.3866  0.4004
 4357TIP3    H113035   0.860   0.555   0.732 -0.4450 -0.2237 -0.5668
 4357TIP3    H213036   0.968   0.658   0.704  0.0863 -0.4052  0.7860
 4358TIP3   OH213037   3.967   2.540   2.515  0.0597  0.1044  0.0191
 4358TIP3    H113038   3.906   2.472   2.486 -0.5215  0.2172  0.9055
 4358TIP3    H213039   3.911   2.615   2.534  0.4688  0.2225  0.8173
 4359TIP3   OH213040   4.790   5.431   2.785  0.1334  0.2683 -0.2980
 4359TIP3    H113041   4.874   5.414   2.743  0.1842 -0.5058  0.0980
 4359TIP3    H213042   4.808   5.497   2.851  0.9388 -1.5684  1.4013
 4360TIP3   OH213043   5.731   2.608   4.235  0.3782  0.2897 -0.1753
 4360TIP3    H113044   5.652   2.658   4.255  2.6633  3.7202  1.1554
 4360TIP3    H213045   5.769   2.587   4.320  0.5423 -2.1601 -0.7688
 4361TIP3   OH213046   0.153   5.818   5.719  0.3261 -0.1456 -0.0454
 4361TIP3    H113047   0.199   5.735   5.710 -0.0652 -0.4144  0.4463
 4361TIP3    H213048   0.209   5.871   5.776 -0.4487 -0.8390  1.4124
 4362TIP3   OH213049   3.431   3.608   0.293  0.3566  0.3315 -0.1830
 4362TIP3    H113050   3.411   3.664   0.218  0.0086  1.1430  0.4859
 4362TIP3    H213051   3.429   3.668   0.368  1.7425 -0.2472  0.3535
 4363TIP3   OH213052   3.761   0.680   2.477 -0.3680 -0.2879 -0.3779
 4363TIP3    H113053   3.765   0.597   2.525  0.1796 -0.3437 -0.5176
 4363TIP3    H213054   3.667   0.698   2.469 -0.4647 -0.2165  0.8124
 4364TIP3   OH213055   0.274   0.924   3.070  0.2669  0.0412 -0.2648
 4364TIP3    H113056   0.206   0.976   3.028  0.4522 -0.1376 -0.8003
 4364TIP3    H213057   0.332   0.988   3.111  0.2323  0.2289 -0.5112
 4365TIP3   OH213058   3.891   1.025   5.533 -0.7217  0.7802 -0.6723
 4365TIP3    H113059   3.887   1.100   5.474 -3.9469  1.1127 -0.2301
 4365TIP3    H213060   3.815   0.972   5.510 -0.2625 -0.7567  1.0711
 4366TIP3   OH213061   1.304   4.937   5.483  0.1446  0.2711  0.7031
 4366TIP3    H113062   1.350   4.858   5.453 -2.1566 -0.6152 -0.8559
 4366TIP3    H213063   1.284   4.985   5.402 -3.5691 -0.6041  0.9086
 4367TIP3   OH213064   2.371   6.534   5.562  0.3538  0.0240 -0.4290
 4367TIP3    H113065   2.456   6.500   5.591  0.4128 -0.7410 -1.4598
 4367TIP3    H213066   2.319   6.538   5.642  0.7274 -1.4063 -0.0818
 4368TIP3   OH213067   4.639   1.665   3.230 -0.1284 -0.1091  0.2850
 4368TIP3    H113068   4.618   1.736   3.169  0.1086  0.0839  0.4268
 4368TIP3    H213069   4.571   1.672   3.298  0.0695  0.1718  0.4558
 4369TIP3   OH213070   3.066   4.933   5.893 -0.0803  0.3316  0.4811
 4369TIP3    H113071   3.148   4.909   5.849 -0.0860  1.0874  0.0398
 4369TIP3    H213072   3.000   4.876   5.854  0.1110  0.2214  0.3186
 4370TIP3   OH213073   0.201   2.357   4.417 -0.3462 -0.1468 -0.2162
 4370TIP3    H113074   0.183   2.400   4.501 -0.9576 -0.5864 -0.1084
 4370TIP3    H213075   0.240   2.273   4.441  0.6462  0.2447 -0.4187
 4371TIP3   OH213076   6.707   5.360   5.340 -0.9156 -0.3061 -0.0945
 4371TIP3    H113077   6.660   5.404   5.270 -0.3828 -0.7820 -0.7614
 4371TIP3    H213078   6.704   5.421   5.414 -1.4300  0.2182 -0.5491
 4372TIP3   OH213079   1.417   4.722   2.358 -0.1740 -0.4048 -0.0938
 4372TIP3    H113080   1.446   4.697   2.270 -1.5839  0.7293 -0.9382
 4372TIP3    H213081   1.390   4.813   2.349  0.5110  0.0062  1.7611
 4373TIP3   OH213082   2.903   3.362   0.898  0.1463  0.2325 -0.0723
 4373TIP3    H113083   2.913   3.273   0.932  1.0699  0.4368  0.2122
 4373TIP3    H213084   2.926   3.355   0.805  1.6703  0.4254  0.2624
 4374TIP3   OH213085   4.021   6.432   3.112  0.0118 -0.0271 -0.1767
 4374TIP3    H113086   4.040   6.477   3.194 -0.1076 -2.0306  1.0110
 4374TIP3    H213087   3.951   6.370   3.134 -0.9594  0.2886 -2.1222
 4375TIP3   OH213088   6.900   3.873   1.379  0.9066  0.0270  0.2033
 4375TIP3    H113089   6.995   3.880   1.382  1.1555 -2.6477  0.6380
 4375TIP3    H213090   6.877   3.823   1.457 -0.6840 -0.7242 -0.6993
 4376TIP3   OH213091   0.449   3.615   3.405 -0.2662  0.4362 -0.4801
 4376TIP3    H113092   0.395   3.592   3.481  0.1694 -0.4245 -0.4213
 4376TIP3    H213093   0.516   3.547   3.402  0.5074  1.1938 -0.8650
 4377TIP3   OH213094   1.615   2.445   3.060  0.1711 -0.1301 -0.0432
 4377TIP3    H113095   1.570   2.463   2.977  0.2400  1.3092  0.2074
 4377TIP3    H213096   1.705   2.426   3.034  0.4656  1.4285 -0.2526
 4378TIP3   OH213097   6.156   0.687   4.794  0.2495 -0.3527  0.2244
 4378TIP3    H113098   6.149   0.599   4.757  1.4008 -0.6572  0.6916
 4378TIP3    H213099   6.065   0.715   4.807 -0.2121 -0.3502 -2.4782
 4379TIP3   OH213100   3.230   2.956   4.992  0.2913  0.9232  0.0754
 4379TIP3    H113101   3.320   2.926   4.975 -0.2199 -0.4456 -0.3441
 4379TIP3    H213102   3.231   3.049   4.969  1.1036  0.4783 -1.9538
 4380TIP3   OH213103   1.609   6.414   0.262 -0.3150  0.0084  0.3557
 4380TIP3    H113104   1.536   6.355   0.241 -0.7487  0.3709  0.8209
 4380TIP3    H213105   1.575   6.501   0.243  0.3390  0.1164 -0.3687
 4381TIP3   OH213106   4.724   1.683   4.147 -0.2984  0.1679 -0.1261
 4381TIP3    H113107   4.768   1.618   4.202 -0.1850 -0.1222 -0.5605
 4381TIP3    H213108   4.647   1.709   4.198 -1.4072 -1.7172 -0.7665
 4382TIP3   OH213109   1.334   5.260   3.226  0.1306 -0.2276  0.3918
 4382TIP3    H113110   1.312   5.353   3.221 -1.4322 -0.6142 -0.4641
 4382TIP3    H213111   1.272   5.225   3.289 -0.7264 -1.0735 -0.8945
 4383TIP3   OH213112   0.755   5.903   4.458  0.0924  0.8026  0.1292
 4383TIP3    H113113   0.799   5.832   4.504  2.4695  2.4395  0.5710
 4383TIP3    H213114   0.670   5.912   4.501  0.7441 -0.1764  1.6807
 4384TIP3   OH213115   1.174   1.914   0.141 -0.0496  0.5003  0.2335
 4384TIP3    H113116   1.238   1.985   0.148 -0.5943  1.1264 -0.9615
 4384TIP3    H213117   1.169   1.895   0.048 -1.7483  0.6104  0.2718
 4385TIP3   OH213118   2.813   2.897   2.848 -0.1461 -0.0063  0.0109
 4385TIP3    H113119   2.907   2.885   2.861 -0.1464  0.7282  0.7962
 4385TIP3    H213120   2.785   2.820   2.799  0.8796 -0.1938 -0.2896
 4386TIP3   OH213121   2.112   1.944   1.764  0.5855  0.6398  0.0032
 4386TIP3    H113122   2.103   1.876   1.698  1.2492 -0.1604  0.7113
 4386TIP3    H213123   2.046   1.921   1.830 -0.5435  1.8163 -0.6739
 4387TIP3   OH213124   6.112   2.015   2.600 -0.2147  0.5050  0.4551
 4387TIP3    H113125   6.123   2.109   2.614 -1.9392  0.9691 -0.9341
 4387TIP3    H213126   6.056   2.008   2.522  0.7021 -1.6918 -0.1012
 4388TIP3   OH213127   2.213   2.512   1.454  0.2176  0.3419  0.1094
 4388TIP3    H113128   2.302   2.496   1.423 -0.7259 -0.9567 -2.1596
 4388TIP3    H213129   2.182   2.427   1.485 -0.4011  0.6831  0.4673
 4389TIP3   OH213130   3.208   3.894   2.854  0.1764 -0.1662 -0.0686
 4389TIP3    H113131   3.234   3.821   2.910  0.0221 -1.1966 -1.2960
 4389TIP3    H213132   3.112   3.891   2.854  0.0970  1.0758  1.1632
 4390TIP3   OH213133   6.405   5.144   1.533 -0.1842  0.1537  0.6452
 4390TIP3    H113134   6.468   5.084   1.573  1.8842  0.6987 -1.5687
 4390TIP3    H213135   6.354   5.089   1.473  1.2213  0.3666 -0.8340
 4391TIP3   OH213136   7.054   3.025   1.357 -0.1706 -0.2491 -0.0211
 4391TIP3    H113137   7.131   2.972   1.376  0.7125  2.0060  3.4852
 4391TIP3    H213138   7.085   3.093   1.298  0.3718  0.2315  0.8080
 4392TIP3   OH213139   5.301   3.886   4.251 -0.3958 -0.1288  0.1837
 4392TIP3    H113140   5.282   3.850   4.164 -2.5591  0.9521  0.1530
 4392TIP3    H213141   5.376   3.944   4.237  0.3453 -1.2189 -0.5982
 4393TIP3   OH213142   1.962   2.169   4.703  0.1178 -0.2104  0.1453
 4393TIP3    H113143   2.006   2.108   4.644  0.9171  0.8431 -0.3781
 4393TIP3    H213144   2.003   2.254   4.685 -0.4984  0.3639  1.3305
 4394TIP3   OH213145   2.832   1.137   4.834 -0.2212  0.4680  0.7932
 4394TIP3    H113146   2.777   1.201   4.790  1.7874  1.7856  0.0812
 4394TIP3    H213147   2.800   1.135   4.924 -0.7377  2.0213  0.6685
 4395TIP3   OH213148   5.245   4.315   0.716 -0.7525  0.0838  0.2089
 4395TIP3    H113149   5.334   4.319   0.681 -1.4999  0.0526 -1.8272
 4395TIP3    H213150   5.218   4.224   0.702 -0.4786 -0.4085  2.5654
 4396TIP3   OH213151   5.999   2.263   3.286  0.4131 -0.5116 -0.1164
 4396TIP3    H113152   5.962   2.189   3.335 -0.0042 -0.6475 -0.6222
 4396TIP3    H213153   6.088   2.272   3.320 -0.5320  0.7990  2.2369
 4397TIP3   OH213154   5.582   1.258   5.819 -0.3203 -0.0195  0.1017
 4397TIP3    H113155   5.631   1.329   5.777 -0.9599  0.4198  0.0687
 4397TIP3    H213156   5.573   1.192   5.751 -0.2650  0.1461 -0.0681
 4398TIP3   OH213157   3.588   0.753   2.973 -0.0361  0.2044 -0.3843
 4398TIP3    H113158   3.591   0.659   2.990 -1.1288  0.1659 -0.3888
 4398TIP3    H213159   3.677   0.774   2.943 -0.1700 -1.0858 -1.8172
 4399TIP3   OH213160   6.513   0.358   0.536  0.1311 -0.1322  0.0380
 4399TIP3    H113161   6.507   0.429   0.599  1.3580 -0.9269  1.1206
 4399TIP3    H213162   6.555   0.397   0.459 -0.7386  0.6810 -0.0431
 4400TIP3   OH213163   3.913   0.241   5.294  0.0959 -0.5504  0.0666
 4400TIP3    H113164   3.902   0.149   5.270  1.0909 -0.7795  0.4637
 4400TIP3    H213165   3.980   0.273   5.233 -0.5758  0.0423 -0.3771
 4401TIP3   OH213166   5.118   1.139   5.586  0.0853 -0.0866  0.0769
 4401TIP3    H113167   5.058   1.214   5.586  0.9811  0.6602  1.2543
 4401TIP3    H213168   5.178   1.157   5.514 -1.1087 -0.8781 -1.1626
 4402TIP3   OH213169   6.038   5.205   4.852  0.1494 -0.0060 -0.0656
 4402TIP3    H113170   6.043   5.273   4.919 -0.7079  0.7150 -0.7027
 4402TIP3    H213171   5.944   5.189   4.842  0.2525 -0.0092 -1.1623
 4403TIP3   OH213172   3.345   4.649   4.049 -0.0714 -0.4915 -0.6927
 4403TIP3    H113173   3.387   4.564   4.060  1.0903  0.2169  0.6417
 4403TIP3    H213174   3.410   4.702   4.002 -0.4954 -0.1151 -0.8683
 4404TIP3   OH213175   1.369   3.694   2.676 -0.2907 -0.0470  0.0219
 4404TIP3    H113176   1.370   3.783   2.642 -3.5364  0.7742  1.6667
 4404TIP3    H213177   1.375   3.704   2.771 -2.7390 -1.3059  0.4044
 4405TIP3   OH213178   0.691   0.117   2.973 -0.1003 -0.2098  0.0721
 4405TIP3    H113179   0.696   0.207   3.004 -2.7082 -0.1090  0.4119
 4405TIP3    H213180   0.688   0.064   3.053  0.9421 -0.5872 -0.1239
 4406TIP3   OH213181   6.873   6.442   2.185 -0.3262  0.2862  0.1174
 4406TIP3    H113182   6.951   6.492   2.162  0.2776 -0.2377  0.9622
 4406TIP3    H213183   6.827   6.496   2.249 -1.0863  0.9510 -0.9629
 4407TIP3   OH213184   0.400   5.763   2.668  0.2289 -0.2446  0.1334
 4407TIP3    H113185   0.402   5.853   2.699  1.0069 -1.1824  3.2564
 4407TIP3    H213186   0.454   5.762   2.590 -0.8343  2.1730 -0.7270
 4408TIP3   OH213187   6.285   1.127   5.329 -0.0141  0.3281  0.1792
 4408TIP3    H113188   6.312   1.166   5.412  2.2145  0.4666 -0.5492
 4408TIP3    H213189   6.262   1.203   5.274  1.0922  0.4533 -0.1495
 4409TIP3   OH213190   5.258   5.130   0.503  0.0387  0.2385 -0.4867
 4409TIP3    H113191   5.335   5.187   0.501  0.6961 -0.6592 -2.4978
 4409TIP3    H213192   5.262   5.081   0.421 -2.1353 -0.5684 -0.1596
 4410TIP3   OH213193   3.184   5.829   2.049 -0.1850 -0.3505  0.7431
 4410TIP3    H113194   3.273   5.795   2.045  0.1067  0.5183 -1.1554
 4410TIP3    H213195   3.159   5.842   1.958 -2.2568 -0.5360  1.2328
 4411TIP3   OH213196   1.563   3.124   4.461  0.6015  0.3224 -0.1164
 4411TIP3    H113197   1.651   3.136   4.426  0.8684  1.4223  0.8972
 4411TIP3    H213198   1.562   3.173   4.543 -0.9251  0.2389 -0.0538
 4412TIP3   OH213199   5.581   3.914   3.841  0.6211  0.1648 -0.1815
 4412TIP3    H113200   5.563   3.831   3.884  0.7131  1.1127  1.8245
 4412TIP3    H213201   5.496   3.942   3.807 -0.0842  0.6130  1.7839
 4413TIP3   OH213202   4.719   3.041   3.942 -0.0136  0.0445 -0.1667
 4413TIP3    H113203   4.623   3.047   3.947 -0.0825 -0.9650 -0.0793
 4413TIP3    H213204   4.740   3.073   3.854 -0.5046 -0.3888 -0.4545
 4414TIP3   OH213205   1.739   3.632   1.775 -0.0635 -0.0050  0.1837
 4414TIP3    H113206   1.819   3.668   1.738 -0.2409  1.7624  1.3576
 4414TIP3    H213207   1.691   3.598   1.701  0.7484  1.0361 -0.8632
 4415TIP3   OH213208   3.664   1.826   1.399  0.6048  0.8443 -0.1729
 4415TIP3    H113209   3.644   1.733   1.408  1.4224  0.8219  1.9166
 4415TIP3    H213210   3.619   1.852   1.319 -0.6498 -1.0660 -0.1602
 4416TIP3   OH213211   5.165   1.072   2.156  0.2663  0.0591  0.2320
 4416TIP3    H113212   5.160   1.098   2.064 -0.4718 -0.5776  0.0836
 4416TIP3    H213213   5.089   1.114   2.196 -1.7822 -2.8664 -0.2852
 4417TIP3   OH213214   6.632   5.576   5.144  0.2367  0.0331  0.2689
 4417TIP3    H113215   6.700   5.623   5.193  0.7976 -0.7991  0.3066
 4417TIP3    H213216   6.679   5.538   5.070 -0.2237 -0.4101  0.2052
 4418TIP3   OH213217   5.305   4.258   1.266 -0.4150  0.2031 -0.4627
 4418TIP3    H113218   5.235   4.201   1.299 -0.0139  0.4131  0.8296
 4418TIP3    H213219   5.375   4.249   1.331  0.7910 -0.0471 -1.7678
 4419TIP3   OH213220   1.132   2.178   5.743  0.0202  0.0639 -0.6087
 4419TIP3    H113221   1.224   2.200   5.756  0.1556  0.1060 -1.5812
 4419TIP3    H213222   1.089   2.264   5.737  0.0103  0.0477 -0.7692
 4420TIP3   OH213223   1.232   5.601   1.653  0.6323  0.6374  0.2275
 4420TIP3    H113224   1.325   5.620   1.638  1.3439 -2.3690  0.2755
 4420TIP3    H213225   1.218   5.625   1.745  1.3899  1.0480  0.2462
 4421TIP3   OH213226   6.750   0.015   4.230  0.0319 -0.1013 -0.0261
 4421TIP3    H113227   6.788   0.086   4.282 -0.1343 -0.0164 -0.0230
 4421TIP3    H213228   6.809   0.007   4.155  0.8472 -0.9001  0.6796
 4422TIP3   OH213229   3.113   6.080   5.463 -0.2140 -0.6364 -0.1475
 4422TIP3    H113230   3.040   6.120   5.511  0.0536 -1.8027  1.2994
 4422TIP3    H213231   3.191   6.105   5.513  0.4915  1.0275 -1.9637
 4423TIP3   OH213232   0.625   5.055   1.270 -0.1694 -0.3642 -0.0240
 4423TIP3    H113233   0.632   5.148   1.250  1.2524 -0.0133  1.8181
 4423TIP3    H213234   0.548   5.049   1.328  0.8610  0.0286  1.4522
 4424TIP3   OH213235   3.210   5.702   4.811  0.1473  0.2203  0.2776
 4424TIP3    H113236   3.131   5.658   4.843 -0.5091  0.3712 -1.0500
 4424TIP3    H213237   3.193   5.716   4.717  1.8003  0.1816 -0.0470
 4425TIP3   OH213238   6.488   5.478   4.615  0.0618 -0.0736 -0.6496
 4425TIP3    H113239   6.513   5.411   4.551  0.5251  0.4590 -1.0437
 4425TIP3    H213240   6.419   5.438   4.666 -0.1566 -0.6011 -1.3393
 4426TIP3   OH213241   0.993   5.246   0.739  0.7347 -0.5959 -0.2319
 4426TIP3    H113242   0.920   5.193   0.770  0.2097  0.9932  1.4823
 4426TIP3    H213243   1.067   5.221   0.794  1.2991 -1.6159 -1.4137
 4427TIP3   OH213244   3.352   1.593   2.375  0.3264 -0.0166  0.1875
 4427TIP3    H113245   3.290   1.601   2.447  0.3034 -0.4474  0.2182
 4427TIP3    H213246   3.432   1.560   2.416  0.0101 -1.2230 -0.1230
 4428TIP3   OH213247   6.500   1.069   1.409  0.0232  0.1262 -0.2013
 4428TIP3    H113248   6.508   1.078   1.504  0.5201  0.6606 -0.2932
 4428TIP3    H213249   6.548   1.143   1.373 -1.2609  0.6724 -0.8600
 4429TIP3   OH213250   4.975   0.237   0.215  0.8430  0.2021 -0.0285
 4429TIP3    H113251   4.990   0.205   0.126  1.2211  1.2537 -0.3502
 4429TIP3    H213252   4.880   0.244   0.222  0.6970 -1.4471  0.2349
 4430TIP3   OH213253   0.320   4.865   5.452  0.0973  0.8955 -0.3340
 4430TIP3    H113254   0.226   4.860   5.434  0.4212  0.6819 -2.1734
 4430TIP3    H213255   0.346   4.951   5.418  1.0090 -0.1142 -2.3737
 4431TIP3   OH213256   1.552   3.626   4.746 -0.0159 -0.3691  0.7501
 4431TIP3    H113257   1.509   3.682   4.811 -2.4205 -2.1877  0.8883
 4431TIP3    H213258   1.631   3.595   4.790  1.1876  2.5020  0.7892
 4432TIP3   OH213259   2.149   0.115   5.470  0.0741  0.4898 -0.0138
 4432TIP3    H113260   2.156   0.074   5.556 -2.4627 -0.2342 -0.0774
 4432TIP3    H213261   2.133   0.207   5.488  2.9018  1.0442  0.1620
 4433TIP3   OH213262   5.030   4.878   0.360  0.6000 -0.1945  0.0829
 4433TIP3    H113263   4.955   4.851   0.412  1.1623  1.7460  2.0491
 4433TIP3    H213264   5.098   4.814   0.380 -0.6329 -2.4348 -2.3227
 4434TIP3   OH213265   2.174   1.157   4.281  0.2938  0.2163 -0.0836
 4434TIP3    H113266   2.100   1.218   4.284 -0.9938 -1.3015  1.6258
 4434TIP3    H213267   2.162   1.108   4.200 -1.0800 -0.5385  0.5437
 4435TIP3   OH213268   0.999   1.562   5.691  0.1508  0.1032  0.3465
 4435TIP3    H113269   1.042   1.557   5.605 -0.8185 -0.0367 -0.1371
 4435TIP3    H213270   0.907   1.543   5.673 -0.1716  0.6869  1.3334
 4436TIP3   OH213271   1.077   6.112   3.651 -1.0258  0.7133  0.7359
 4436TIP3    H113272   0.981   6.119   3.645 -0.8107  3.2878 -1.7119
 4436TIP3    H213273   1.107   6.202   3.648  1.5294 -0.0479  1.4155
 4437TIP3   OH213274   1.492   0.535   3.027 -0.9040 -0.2722 -0.1975
 4437TIP3    H113275   1.500   0.629   3.007  0.7756 -0.7718 -2.1733
 4437TIP3    H213276   1.474   0.494   2.942  3.2667 -2.2000 -0.4041
 4438TIP3   OH213277   5.501   4.724   3.416  0.7428 -0.0032 -0.6731
 4438TIP3    H113278   5.526   4.685   3.500  0.5980  0.0046 -0.6249
 4438TIP3    H213279   5.581   4.722   3.363  0.8707  0.1212 -0.4853
 4439TIP3   OH213280   5.785   5.849   3.270 -0.4619  0.3551  0.7449
 4439TIP3    H113281   5.747   5.932   3.240 -1.0669 -0.4693 -0.9069
 4439TIP3    H213282   5.716   5.784   3.255  0.8944 -0.8678 -0.5379
 4440TIP3   OH213283   3.349   1.980   0.061 -0.3642  0.0024 -0.2068
 4440TIP3    H113284   3.312   1.892   0.062  0.9217 -0.5648  0.8913
 4440TIP3    H213285   3.314   2.020  -0.018 -2.4473 -0.8346  0.2154
 4441TIP3   OH213286   1.932   4.419   0.718  0.3501 -0.2223  0.7290
 4441TIP3    H113287   2.003   4.453   0.664  0.4491  0.2574  1.1443
 4441TIP3    H213288   1.966   4.337   0.754 -0.3060 -1.3960 -1.1781
 4442TIP3   OH213289   4.954   1.797   3.272 -0.0346 -0.6429 -0.0117
 4442TIP3    H113290   4.915   1.716   3.238 -1.0908  0.3522 -1.2525
 4442TIP3    H213291   5.038   1.804   3.226 -0.8799  0.0292 -1.4849
 4443TIP3   OH213292   5.865   6.294   5.520 -0.2122 -1.1428  0.0169
 4443TIP3    H113293   5.836   6.265   5.433 -1.4740 -1.5870  0.5632
 4443TIP3    H213294   5.868   6.214   5.572  0.5221 -0.8754  0.3994
 4444TIP3   OH213295   2.505   1.064   1.159 -0.2759 -0.3602  0.1936
 4444TIP3    H113296   2.541   0.983   1.196 -0.6276 -0.7616 -0.3159
 4444TIP3    H213297   2.507   1.126   1.231  1.0209 -0.4962  0.2936
 4445TIP3   OH213298   3.105   5.670   2.249 -0.5226 -0.3291 -0.2353
 4445TIP3    H113299   3.115   5.716   2.165 -1.1750  0.8207  0.2883
 4445TIP3    H213300   3.063   5.587   2.226  0.5617 -0.6279 -1.1944
 4446TIP3   OH213301   5.388   4.108   4.110  0.1047  0.0870 -0.3116
 4446TIP3    H113302   5.407   4.198   4.137 -0.9526  0.3800 -0.4708
 4446TIP3    H213303   5.396   4.110   4.014  1.2806 -0.2991 -0.2297
 4447TIP3   OH213304   6.460   2.947   4.188  0.3601 -0.4971 -0.2767
 4447TIP3    H113305   6.427   2.997   4.113 -1.3290 -2.1917 -0.7504
 4447TIP3    H213306   6.430   2.997   4.264 -0.0159 -0.0180 -0.7257
 4448TIP3   OH213307   1.108   5.232   4.887  0.4847  0.5217 -0.4703
 4448TIP3    H113308   1.071   5.320   4.896 -1.3418 -0.3411  1.1235
 4448TIP3    H213309   1.080   5.203   4.800 -3.2392 -0.2606  0.8173
 4449TIP3   OH213310   1.623   5.682   1.322 -0.0594  0.2811  0.1847
 4449TIP3    H113311   1.712   5.675   1.286 -0.4319 -1.9319 -0.4632
 4449TIP3    H213312   1.632   5.741   1.396  1.7050  1.1144 -0.6350
 4450TIP3   OH213313   1.012   2.789   1.988 -0.4764 -0.4656 -0.5702
 4450TIP3    H113314   1.027   2.861   1.927 -0.5093 -1.4976 -1.8489
 4450TIP3    H213315   1.073   2.721   1.960  0.1888 -0.6280  1.1737
 4451TIP3   OH213316   6.983   1.287   3.078  0.7345  0.0745  0.0116
 4451TIP3    H113317   6.966   1.200   3.042  0.0685  0.2521 -0.1329
 4451TIP3    H213318   7.075   1.304   3.059  0.4798  0.0257 -1.3245
 4452TIP3   OH213319   7.100   5.447   4.773 -0.3420  0.2258 -0.6417
 4452TIP3    H113320   7.038   5.520   4.780 -1.0514 -0.4062 -0.1979
 4452TIP3    H213321   7.099   5.406   4.860 -0.1579 -0.4842 -0.9681
 4453TIP3   OH213322   2.445   3.199   3.480  0.1420  0.7111  0.0766
 4453TIP3    H113323   2.473   3.149   3.404  0.2742 -0.6921  1.0179
 4453TIP3    H213324   2.526   3.227   3.522  0.0994  0.1215  0.5651
 4454TIP3   OH213325   5.632   4.817   3.732 -0.5398  0.2256  0.1725
 4454TIP3    H113326   5.652   4.723   3.735 -0.3206  0.2425 -0.6372
 4454TIP3    H213327   5.716   4.860   3.750 -0.3104  0.2752 -0.9816
 4455TIP3   OH213328   1.401   5.386   2.574  0.3111 -0.5421  0.6990
 4455TIP3    H113329   1.415   5.365   2.666  0.6487  0.1328  0.8059
 4455TIP3    H213330   1.479   5.435   2.548  1.9934 -3.7068 -0.9196
 4456TIP3   OH213331   1.537   4.277   4.201  0.2641 -0.4195  0.1633
 4456TIP3    H113332   1.447   4.266   4.233  0.3864 -1.4101  0.1993
 4456TIP3    H213333   1.565   4.362   4.235 -0.2902 -0.5850  1.0468
 4457TIP3   OH213334   7.147   4.844   1.946 -0.4302  0.4415 -0.1317
 4457TIP3    H113335   7.128   4.902   1.872 -0.5069 -0.0704 -0.5243
 4457TIP3    H213336   7.218   4.887   1.993 -1.6554  1.7291  0.6115
 4458TIP3   OH213337   2.738   3.851   1.258 -0.1717  0.2553 -0.4453
 4458TIP3    H113338   2.770   3.834   1.170  1.6189 -1.2205  0.4324
 4458TIP3    H213339   2.735   3.765   1.300  2.1625  1.2131  1.9286
 4459TIP3   OH213340   3.439   4.255   2.082 -0.0161 -0.2324  0.1833
 4459TIP3    H113341   3.479   4.170   2.064 -0.0556 -0.0615 -0.7485
 4459TIP3    H213342   3.488   4.317   2.027  1.3213  0.6877  2.2781
 4460TIP3   OH213343   2.678   2.513   2.505  0.1362  0.6554  0.7574
 4460TIP3    H113344   2.583   2.501   2.504  0.0519  0.9394 -2.0121
 4460TIP3    H213345   2.713   2.423   2.507 -0.0985  0.5539  2.9060
 4461TIP3   OH213346   5.220   2.294   0.437  0.0658  0.0755 -0.3824
 4461TIP3    H113347   5.286   2.317   0.372 -0.6518  1.8686 -0.5232
 4461TIP3    H213348   5.227   2.361   0.504 -1.5637  0.2877 -0.3734
 4462TIP3   OH213349   6.559   0.929   3.032  0.5550  0.1483 -0.2949
 4462TIP3    H113350   6.465   0.929   3.013  0.8398 -0.6141 -1.8641
 4462TIP3    H213351   6.568   0.871   3.108 -0.3119  0.8041  0.3255
 4463TIP3   OH213352   0.261   5.894   3.624  0.1073  0.8831  0.3158
 4463TIP3    H113353   0.190   5.893   3.560  0.9083 -0.2466 -0.5975
 4463TIP3    H213354   0.336   5.928   3.576  0.8568 -0.4799  0.4591
 4464TIP3   OH213355   6.956   3.524   3.500  0.0977  0.0701  0.4568
 4464TIP3    H113356   6.954   3.607   3.549  1.5749  0.5727 -0.3006
 4464TIP3    H213357   6.965   3.457   3.568  1.6436  0.7256  0.9515
 4465TIP3   OH213358   2.252   6.520   4.911  0.4022  0.2456  0.4653
 4465TIP3    H113359   2.313   6.446   4.910 -0.2628 -0.4404  2.8154
 4465TIP3    H213360   2.282   6.575   4.984 -0.7030  0.8540  0.4921
 4466TIP3   OH213361   0.836   4.130   0.177  0.0340  0.0599  0.1292
 4466TIP3    H113362   0.902   4.196   0.200  0.6591 -0.4988 -0.0500
 4466TIP3    H213363   0.753   4.173   0.197  0.2781  1.8445 -2.2209
 4467TIP3   OH213364   0.773   5.643   2.048  0.0202 -0.6027  0.1153
 4467TIP3    H113365   0.842   5.580   2.029  0.3081 -0.3260  0.2203
 4467TIP3    H213366   0.696   5.590   2.069  0.5093 -0.9319  1.1244
 4468TIP3   OH213367   2.290   2.287   4.851  0.4243  0.3415  0.0998
 4468TIP3    H113368   2.236   2.351   4.897  0.4492  0.4462 -0.0161
 4468TIP3    H213369   2.376   2.328   4.845 -0.5601  2.4466 -4.0876
 4469TIP3   OH213370   1.867   6.507   5.397  0.9208  0.2113  0.0829
 4469TIP3    H113371   1.785   6.524   5.443 -0.4092  0.8529 -2.3669
 4469TIP3    H213372   1.913   6.445   5.453 -0.4671  1.0856  2.3385
 4470TIP3   OH213373   7.125   6.410   3.426  0.5862  0.2201  0.4131
 4470TIP3    H113374   7.186   6.453   3.366 -1.0298  3.3101  0.7945
 4470TIP3    H213375   7.146   6.446   3.512 -0.2245 -0.5074  0.9361
 4471TIP3   OH213376   5.674   4.652   0.773  0.4586 -0.4328  0.3831
 4471TIP3    H113377   5.586   4.652   0.812  1.1321 -2.0817  2.0338
 4471TIP3    H213378   5.666   4.597   0.695 -0.4190  1.1966 -0.7508
 4472TIP3   OH213379   3.470   5.727   1.665 -0.4512 -0.3135 -0.1998
 4472TIP3    H113380   3.389   5.713   1.713 -0.4041  1.1539  0.3755
 4472TIP3    H213381   3.539   5.717   1.731 -0.3191  0.6229 -0.1726
 4473TIP3   OH213382   1.161   1.420   4.421 -0.2239 -0.0335 -0.1757
 4473TIP3    H113383   1.137   1.333   4.391  1.1840  0.2953 -2.5007
 4473TIP3    H213384   1.246   1.409   4.464 -0.0934  0.1594 -0.3784
 4474TIP3   OH213385   5.928   5.932   2.280 -0.3106  0.0873 -0.4622
 4474TIP3    H113386   5.908   6.025   2.272 -0.1994  0.1405 -0.1264
 4474TIP3    H213387   5.856   5.888   2.234 -0.2139  0.3463 -0.8671
 4475TIP3   OH213388   0.423   5.919   1.457  0.4073  0.1710  0.4517
 4475TIP3    H113389   0.510   5.933   1.421 -0.3628 -0.0561 -1.6118
 4475TIP3    H213390   0.383   6.006   1.458 -1.0012 -0.2773 -3.2922
 4476TIP3   OH213391   2.616   3.268   0.459  0.7691  0.0265 -0.0728
 4476TIP3    H113392   2.645   3.178   0.473 -0.8248 -0.3507  1.1307
 4476TIP3    H213393   2.624   3.281   0.364  1.7541 -1.0957 -0.1734
 4477TIP3   OH213394   6.283   1.382   5.231 -0.3259  0.5262  0.4842
 4477TIP3    H113395   6.354   1.418   5.178 -1.3022 -0.3603 -1.5398
 4477TIP3    H213396   6.205   1.428   5.202 -0.8744  0.1594  1.3273
 4478TIP3   OH213397   2.503   5.986   2.137 -0.4622 -0.2748  0.4971
 4478TIP3    H113398   2.578   5.932   2.110  0.0982 -0.6313  2.6088
 4478TIP3    H213399   2.542   6.068   2.167 -1.2499  1.0679 -1.8618
 4479TIP3   OH213400   4.530   2.633   0.515 -0.9793 -0.3633  1.1592
 4479TIP3    H113401   4.470   2.607   0.585 -0.9304 -2.8160  0.4012
 4479TIP3    H213402   4.478   2.627   0.435 -0.1677 -0.9909  0.6573
 4480TIP3   OH213403   1.914   6.763   3.604 -0.6217 -0.2029  0.4940
 4480TIP3    H113404   1.987   6.723   3.558 -0.3380 -0.2529  0.9849
 4480TIP3    H213405   1.842   6.701   3.592 -0.0297 -1.1667  1.7505
 4481TIP3   OH213406   4.544   2.384   1.224 -0.1675  0.1472 -0.2060
 4481TIP3    H113407   4.495   2.466   1.235 -1.2870 -0.0853 -2.6774
 4481TIP3    H213408   4.477   2.315   1.228  0.5800 -0.5673  0.5159
 4482TIP3   OH213409   0.878   1.593   3.645  0.1600 -0.0537 -0.0466
 4482TIP3    H113410   0.968   1.561   3.657  1.0814  2.5270  0.5949
 4482TIP3    H213411   0.847   1.612   3.733 -2.2792 -3.6671  0.0979
 4483TIP3   OH213412   6.915   1.039   3.637  0.0355  0.1746 -0.2116
 4483TIP3    H113413   6.872   1.088   3.567  0.0619  1.2573  0.5165
 4483TIP3    H213414   7.008   1.057   3.624  0.0378  0.4026  0.1173
 4484TIP3   OH213415   6.065   3.065   1.847 -0.3718  0.2760  0.1962
 4484TIP3    H113416   6.043   3.124   1.775 -0.4417  0.2622  0.2062
 4484TIP3    H213417   6.137   3.108   1.893  0.5018 -0.2831 -0.5968
 4485TIP3   OH213418   3.281   3.310   5.868 -0.6261  0.2965 -0.4875
 4485TIP3    H113419   3.363   3.307   5.821 -0.0441  1.9186  0.3236
 4485TIP3    H213420   3.228   3.373   5.820 -1.7575 -1.3255 -1.4717
 4486TIP3   OH213421   0.243   1.643   1.393  0.0353  0.2966 -0.4167
 4486TIP3    H113422   0.157   1.648   1.353 -0.5712 -1.9846  0.4657
 4486TIP3    H213423   0.255   1.728   1.436 -0.7411  1.4999 -2.4543
 4487TIP3   OH213424   5.362   2.086   3.261  0.0988 -0.1753  0.7525
 4487TIP3    H113425   5.394   2.076   3.171 -2.2115  2.5039 -0.4942
 4487TIP3    H213426   5.431   2.136   3.305 -0.5536  2.2685 -0.8335
 4488TIP3   OH213427   0.224   6.436   4.307  0.3583 -0.0702 -0.0800
 4488TIP3    H113428   0.199   6.352   4.267  2.0500  0.0517 -1.4996
 4488TIP3    H213429   0.300   6.415   4.361  1.3846  0.6565 -1.1850
 4489TIP3   OH213430   4.188   2.698   1.440  0.1055 -0.5584  0.0589
 4489TIP3    H113431   4.196   2.631   1.508  0.8416 -1.2271 -0.6852
 4489TIP3    H213432   4.127   2.762   1.478 -0.2425 -1.3988  0.9658
 4490TIP3   OH213433   3.432   2.115   3.461 -0.1617  0.1164  0.6421
 4490TIP3    H113434   3.435   2.054   3.534  0.8801 -1.5027 -0.6646
 4490TIP3    H213435   3.349   2.095   3.416 -0.2043  0.2192  0.6756
 4491TIP3   OH213436   1.313   1.565   3.194 -0.1096 -0.1606 -0.3922
 4491TIP3    H113437   1.349   1.571   3.283  0.0680  1.0788 -0.5277
 4491TIP3    H213438   1.325   1.473   3.170 -1.9404 -0.9880  1.5806
 4492TIP3   OH213439   5.111   1.102   3.341  0.2299 -0.0228 -0.3383
 4492TIP3    H113440   5.185   1.087   3.282 -1.2812  1.0953 -2.7283
 4492TIP3    H213441   5.082   1.015   3.366 -0.3877 -0.7429 -3.1439
 4493TIP3   OH213442   3.383   6.630   0.344 -0.3508 -0.0954 -0.3217
 4493TIP3    H113443   3.430   6.710   0.318  1.8849 -0.6658  1.6344
 4493TIP3    H213444   3.379   6.635   0.439  0.6814 -2.7110 -0.0697
 4494TIP3   OH213445   4.468   6.064   4.109  0.5273 -0.2178 -0.4515
 4494TIP3    H113446   4.434   6.023   4.189 -0.7770  1.4604 -0.0998
 4494TIP3    H213447   4.551   6.102   4.135  0.6993 -0.7302 -0.2274
 4495TIP3   OH213448   4.144   6.457   2.051 -0.1689  0.4011 -0.1013
 4495TIP3    H113449   4.147   6.399   2.127 -2.2683  0.1590 -0.1210
 4495TIP3    H213450   4.097   6.406   1.985 -2.4992  2.1925  0.0343
 4496TIP3   OH213451   4.206   4.213   1.699  0.3182 -0.5051 -0.3339
 4496TIP3    H113452   4.153   4.227   1.621 -0.2981  3.2392  0.5732
 4496TIP3    H213453   4.283   4.268   1.685  1.0156 -1.1030  1.0034
 4497TIP3   OH213454   2.753   1.579   4.744 -0.0285 -0.2224  0.4537
 4497TIP3    H113455   2.721   1.490   4.726 -1.0719  0.1062  0.6010
 4497TIP3    H213456   2.797   1.605   4.664 -3.3708  0.6877 -1.2777
 4498TIP3   OH213457   2.007   1.951   5.158  0.5792  0.4458 -0.0055
 4498TIP3    H113458   2.100   1.930   5.163  0.5810  0.4128 -0.1545
 4498TIP3    H213459   1.991   1.962   5.064  0.8380  2.2361  0.1243
 4499TIP3   OH213460   5.718   4.760   3.119 -0.1319 -0.0855 -0.1858
 4499TIP3    H113461   5.630   4.781   3.088 -0.5238  0.0042  0.9141
 4499TIP3    H213462   5.722   4.665   3.115  0.5475 -0.0051 -2.3257
 4500TIP3   OH213463   2.144   6.402   4.452 -0.5391  0.0605  0.4984
 4500TIP3    H113464   2.094   6.321   4.444 -0.0903 -0.2398  0.6991
 4500TIP3    H213465   2.133   6.428   4.543 -0.3130 -0.0209  0.5503
 4501TIP3   OH213466   6.130   2.126   3.649  0.4430  0.9529  0.2981
 4501TIP3    H113467   6.120   2.030   3.645  0.8735  0.8719  1.0200
 4501TIP3    H213468   6.184   2.147   3.573  1.8879  0.3924  1.1280
 4502TIP3   OH213469   3.629   5.395   1.571  0.3320 -0.3674  0.2174
 4502TIP3    H113470   3.720   5.422   1.561 -0.2279  1.6327  0.0927
 4502TIP3    H213471   3.580   5.448   1.507 -0.8993 -1.5518  0.1269
 4503TIP3   OH213472   2.721   1.026   2.035 -0.0559 -0.1340  0.5601
 4503TIP3    H113473   2.697   1.114   2.065  1.5949  0.7349 -0.4722
 4503TIP3    H213474   2.651   0.970   2.066 -1.0484  1.5165  1.4587
 4504TIP3   OH213475   4.341   2.508   0.954 -0.3409  0.3017 -0.3850
 4504TIP3    H113476   4.319   2.540   1.042 -0.4293  1.9674 -0.9806
 4504TIP3    H213477   4.318   2.415   0.956 -1.4175  0.5659  0.9998
 4505TIP3   OH213478   3.385   5.857   0.720 -0.1153 -0.5714 -0.2845
 4505TIP3    H113479   3.454   5.877   0.785  0.2519 -0.7411 -0.6203
 4505TIP3    H213480   3.400   5.765   0.698 -0.9110 -0.8199  0.1826
 4506TIP3   OH213481   5.700   0.717   4.285  0.0171  0.2297  0.2789
 4506TIP3    H113482   5.778   0.662   4.287 -0.3714 -0.3050  1.0417
 4506TIP3    H213483   5.648   0.688   4.360 -0.6685  0.9422  0.0911
 4507TIP3   OH213484   2.366   6.024   0.686 -0.1312  0.6291  0.4834
 4507TIP3    H113485   2.320   6.041   0.769 -0.0506  0.2058  0.6179
 4507TIP3    H213486   2.458   6.040   0.707 -0.1487  0.8733  0.3779
 4508TIP3   OH213487   4.441   6.483   1.518 -0.1807  0.0833 -0.1845
 4508TIP3    H113488   4.379   6.556   1.507 -0.4650  0.4858  2.9149
 4508TIP3    H213489   4.456   6.480   1.613 -1.9605 -5.3107  0.2471
 4509TIP3   OH213490   1.840   3.479   3.676 -0.8329 -0.2897 -0.8066
 4509TIP3    H113491   1.763   3.454   3.625  0.6039 -1.0965 -2.7112
 4509TIP3    H213492   1.914   3.442   3.628  0.8693  1.4759  0.2848
 4510TIP3   OH213493   5.281   4.797   4.308  0.0599  0.9971  0.1115
 4510TIP3    H113494   5.256   4.816   4.399  4.7430 -0.1706  1.9270
 4510TIP3    H213495   5.343   4.866   4.286  0.2289  0.3289 -1.6219
 4511TIP3   OH213496   4.264   4.621   4.393 -0.0948 -0.3216 -0.1966
 4511TIP3    H113497   4.306   4.704   4.373 -0.1710 -0.1098  0.5084
 4511TIP3    H213498   4.195   4.612   4.327 -0.3813  0.3875  0.0022
 4512TIP3   OH213499   1.808   3.983   3.539 -0.1661 -0.3598 -0.6179
 4512TIP3    H113500   1.721   3.967   3.576 -0.2798  1.3380 -0.0544
 4512TIP3    H213501   1.849   3.897   3.535 -1.0548 -0.9112  1.1950
 4513TIP3   OH213502   1.824   4.291   1.503 -1.0634  0.3842  0.5757
 4513TIP3    H113503   1.867   4.375   1.512  0.8027 -0.5687  1.0823
 4513TIP3    H213504   1.770   4.282   1.581 -1.2026  1.0760  0.5571
 4514TIP3   OH213505   0.552   4.246   0.474 -0.5637 -0.8136 -0.1801
 4514TIP3    H113506   0.548   4.319   0.536  0.6064 -0.8165 -0.0934
 4514TIP3    H213507   0.480   4.263   0.414  0.3566  1.0380 -0.8296
 4515TIP3   OH213508   0.110   1.078   2.901 -0.4588  0.1725  0.6553
 4515TIP3    H113509   0.051   1.060   2.828  1.3087 -1.7728 -0.4406
 4515TIP3    H213510   0.100   1.171   2.918 -2.4874  0.2533 -0.6407
 4516TIP3   OH213511   4.033   2.931   1.826 -0.4629 -0.1385 -0.4090
 4516TIP3    H113512   4.031   2.842   1.792  1.0344  0.5723 -2.5951
 4516TIP3    H213513   4.024   2.987   1.748  0.0214  1.6197  0.7258
 4517TIP3   OH213514   5.705   5.482   4.924 -0.0979 -0.2798  0.0965
 4517TIP3    H113515   5.628   5.525   4.888  0.3857  0.7533  0.2793
 4517TIP3    H213516   5.745   5.547   4.981  1.9578 -0.1219 -1.4242
 4518TIP3   OH213517   6.575   1.390   0.917 -0.5236 -0.1075 -0.1857
 4518TIP3    H113518   6.658   1.378   0.963 -0.3251 -0.2342 -0.5699
 4518TIP3    H213519   6.585   1.341   0.835 -0.5540  0.8116 -0.7508
 4519TIP3   OH213520   4.848   3.013   5.242 -0.5450 -0.4775 -0.0027
 4519TIP3    H113521   4.904   2.971   5.177 -2.2493 -1.8239 -0.6874
 4519TIP3    H213522   4.769   2.959   5.244 -1.5133  0.8965  1.4736
 4520TIP3   OH213523   1.317   3.061   1.142  0.2937  0.3962  0.3608
 4520TIP3    H113524   1.400   3.033   1.104 -0.0780 -1.0205  0.5202
 4520TIP3    H213525   1.281   3.123   1.079  1.3096  0.7722  0.1316
 4521TIP3   OH213526   2.380   2.420   2.233  0.0381 -0.2424  0.2331
 4521TIP3    H113527   2.460   2.392   2.188  0.9592  0.7511  1.1778
 4521TIP3    H213528   2.310   2.370   2.191  0.9331  0.0682 -1.7538
 4522TIP3   OH213529   6.142   2.811   4.550 -0.4334 -0.0181  0.1612
 4522TIP3    H113530   6.097   2.890   4.581  2.0386  1.0032  1.3992
 4522TIP3    H213531   6.222   2.807   4.602 -0.3275 -3.2257 -0.0680
 4523TIP3   OH213532   7.026   1.194   4.318 -0.2671 -0.0325 -0.1777
 4523TIP3    H113533   7.095   1.148   4.365  0.2418 -1.4833 -2.1896
 4523TIP3    H213534   7.070   1.232   4.242 -0.9021  2.9168  0.7919
 4524TIP3   OH213535   4.839   2.352   5.405  0.4748  0.2381  0.2342
 4524TIP3    H113536   4.880   2.415   5.346  1.3985  0.0412  0.6361
 4524TIP3    H213537   4.908   2.286   5.421 -1.1208 -2.1261 -1.9134
 4525TIP3   OH213538   6.455   3.236   3.502  0.3402  0.1649  0.3098
 4525TIP3    H113539   6.379   3.217   3.556 -1.1234  0.6238 -1.4728
 4525TIP3    H213540   6.529   3.234   3.562 -1.2135  0.9235  2.3386
 4526TIP3   OH213541   2.015   1.392   4.508  0.2510  0.4106 -0.4949
 4526TIP3    H113542   2.039   1.481   4.481  0.1991  0.1550 -1.4109
 4526TIP3    H213543   1.973   1.354   4.431  0.2054 -0.3858 -0.0840
 4527TIP3   OH213544   2.244   1.116   2.480 -0.2525  0.9429  0.3705
 4527TIP3    H113545   2.271   1.089   2.568 -0.4242 -1.1412 -0.1648
 4527TIP3    H213546   2.300   1.190   2.459  0.6903  0.6411  1.7265
 4528TIP3   OH213547   2.490   0.474   4.988 -0.1569 -0.1708 -0.3219
 4528TIP3    H113548   2.448   0.445   4.907 -0.2971 -3.0145  0.6615
 4528TIP3    H213549   2.581   0.447   4.979  0.1165  0.5976  0.0093
 4529TIP3   OH213550   0.962   0.150   4.916 -0.1042  0.3371  0.1728
 4529TIP3    H113551   0.870   0.136   4.898 -0.5327  0.2474  2.1662
 4529TIP3    H213552   0.973   0.245   4.913  0.0618  0.2905 -1.3518
 4530TIP3   OH213553   6.362   2.615   3.978 -0.1889 -0.5201 -0.1587
 4530TIP3    H113554   6.306   2.559   3.926  0.0354 -1.1086  0.2228
 4530TIP3    H213555   6.325   2.703   3.969 -0.4980 -0.7212 -0.8134
 4531TIP3   OH213556   5.215   0.796   4.954 -0.3541  0.0897 -0.2161
 4531TIP3    H113557   5.159   0.797   5.031 -0.1507  2.1323 -0.0324
 4531TIP3    H213558   5.255   0.883   4.952  2.1976 -0.9901 -0.7903
 4532TIP3   OH213559   1.646   3.652   0.278 -0.1916  0.0083  0.0889
 4532TIP3    H113560   1.564   3.701   0.277  0.8305  1.8321 -0.9723
 4532TIP3    H213561   1.621   3.563   0.303 -2.0691  1.1618  2.7249
 4533TIP3   OH213562   6.787   2.967   3.172  0.1906  0.1059  0.3258
 4533TIP3    H113563   6.846   3.042   3.161  0.1833  0.0393 -0.2105
 4533TIP3    H213564   6.708   2.992   3.123  0.5097 -0.5963 -0.5657
 4534TIP3   OH213565   3.058   3.926   1.106  0.3736 -0.9574  0.5176
 4534TIP3    H113566   3.072   3.877   1.187  1.7560 -0.0907  0.8560
 4534TIP3    H213567   2.970   3.904   1.078  1.2941 -4.5417 -0.0142
 4535TIP3   OH213568   4.190   3.181   5.312  0.2236  0.2704 -0.3008
 4535TIP3    H113569   4.104   3.173   5.354 -0.2624 -0.6444 -1.3957
 4535TIP3    H213570   4.225   3.265   5.343 -1.5087  1.1568 -0.6194
 4536TIP3   OH213571   2.817   2.695   5.183 -0.0537  0.4533  0.1309
 4536TIP3    H113572   2.875   2.659   5.249  0.7511 -0.8410 -1.2154
 4536TIP3    H213573   2.750   2.628   5.169 -1.4950  1.6110  1.1166
 4537TIP3   OH213574   4.037   1.161   3.446  0.0627  0.0857  0.3616
 4537TIP3    H113575   4.001   1.240   3.487 -0.2721 -0.3127  0.8631
 4537TIP3    H213576   4.006   1.090   3.502 -2.0135 -0.6779 -1.5832
 4538TIP3   OH213577   0.426   1.449   1.434  0.3760 -0.0862  0.5654
 4538TIP3    H113578   0.379   1.377   1.475  1.3990 -0.4473  1.1213
 4538TIP3    H213579   0.359   1.516   1.418  0.0401  0.3894  3.4746
 4539TIP3   OH213580   4.775   1.556   2.240 -0.0539 -0.1854 -0.2564
 4539TIP3    H113581   4.780   1.545   2.335 -0.3104 -0.3095 -0.2540
 4539TIP3    H213582   4.856   1.601   2.216  0.0197 -0.1685  0.0191
 4540TIP3   OH213583   0.387   1.861   4.018  1.0338 -0.1921 -0.1849
 4540TIP3    H113584   0.439   1.917   3.961 -0.2177  2.4767  1.0924
 4540TIP3    H213585   0.312   1.835   3.965 -0.7030  3.1725  0.3125
 4541TIP3   OH213586   0.496   5.958   0.891 -0.0187 -0.1986 -0.1691
 4541TIP3    H113587   0.579   5.920   0.860 -0.4031 -0.1111 -1.3572
 4541TIP3    H213588   0.451   5.885   0.933 -0.7559 -1.1516 -2.4397
 4542TIP3   OH213589   3.575   4.746   3.338  0.5745 -0.0066 -0.3646
 4542TIP3    H113590   3.642   4.814   3.345 -0.1893  0.6010  1.7308
 4542TIP3    H213591   3.624   4.666   3.321  1.5725  0.8442 -1.7877
 4543TIP3   OH213592   3.957   2.761   5.277  0.0798  0.6079  0.2362
 4543TIP3    H113593   4.007   2.732   5.353  0.1077 -2.4952 -0.8258
 4543TIP3    H213594   3.866   2.739   5.299  0.2329 -1.6722 -1.0561
 4544TIP3   OH213595   0.757   0.638   0.400  0.0329 -0.0135  0.0249
 4544TIP3    H113596   0.661   0.645   0.397 -0.0998 -1.6736 -0.9954
 4544TIP3    H213597   0.777   0.625   0.493 -0.6431  1.1533  0.3526
 4545TIP3   OH213598   1.297   3.494   1.400 -0.0770 -0.4283 -0.0069
 4545TIP3    H113599   1.284   3.552   1.475  1.5749  0.0808 -0.0794
 4545TIP3    H213600   1.347   3.420   1.435  0.2098 -0.4648 -0.4872
 4546TIP3   OH213601   6.885   0.399   2.013  0.0912 -0.2017  0.2734
 4546TIP3    H113602   6.892   0.318   1.962 -1.8356 -0.9586  1.1318
 4546TIP3    H213603   6.903   0.372   2.103 -2.2759 -0.0719  0.8339
 4547TIP3   OH213604   2.422   1.362   5.064  0.2892  0.1284  0.1748
 4547TIP3    H113605   2.509   1.343   5.029  0.3374  0.8344 -0.0879
 4547TIP3    H213606   2.434   1.365   5.159  0.1206 -1.9993  0.3167
 4548TIP3   OH213607   4.639   2.453   0.180 -0.6084 -0.7260  0.1774
 4548TIP3    H113608   4.567   2.464   0.118  1.2483  1.7580 -1.7206
 4548TIP3    H213609   4.676   2.368   0.158 -0.8348 -0.4889 -1.2238
 4549TIP3   OH213610   3.060   6.366   4.664 -0.2584  0.8022 -0.0769
 4549TIP3    H113611   3.141   6.317   4.648 -1.0854 -0.8988  0.6595
 4549TIP3    H213612   3.035   6.342   4.753 -2.1040  0.4483 -0.6520
 4550TIP3   OH213613   5.141   0.713   2.110  0.0811 -1.2129  0.5080
 4550TIP3    H113614   5.131   0.738   2.202 -0.2812  0.6495  0.0043
 4550TIP3    H213615   5.211   0.768   2.077 -1.2319 -0.2659 -0.8461
 4551TIP3   OH213616   6.337   0.476   3.678 -0.2896  0.1896 -0.8866
 4551TIP3    H113617   6.374   0.409   3.621  1.0619  1.3513 -1.4272
 4551TIP3    H213618   6.411   0.504   3.732 -1.4085 -0.4897  1.1006
 4552TIP3   OH213619   6.818   2.108   3.849  0.1713  0.8938  0.5652
 4552TIP3    H113620   6.799   2.188   3.898  0.9217  1.0744  0.5684
 4552TIP3    H213621   6.843   2.045   3.915  0.3987  0.9023  0.4875
 4553TIP3   OH213622   5.948   5.783   4.110  0.0022  0.2235  0.0825
 4553TIP3    H113623   5.887   5.857   4.102 -0.0140  0.3521  1.2222
 4553TIP3    H213624   5.911   5.729   4.180 -0.2015 -1.0925 -1.0232
 4554TIP3   OH213625   3.101   3.159   3.572 -0.0727  0.1594  0.0512
 4554TIP3    H113626   3.032   3.095   3.555 -0.8158  1.0248 -0.3330
 4554TIP3    H213627   3.137   3.178   3.485  0.3893 -0.0091  0.2065
 4555TIP3   OH213628   1.055   3.104   2.728 -0.2158 -0.2863 -0.5728
 4555TIP3    H113629   1.008   3.108   2.644 -3.5097 -0.8782  1.0943
 4555TIP3    H213630   1.088   3.014   2.732 -1.7734 -0.8987 -0.4618
 4556TIP3   OH213631   0.307   4.721   3.899  0.1877  0.4272 -0.7986
 4556TIP3    H113632   0.290   4.812   3.873 -2.4043 -0.2796 -1.8614
 4556TIP3    H213633   0.238   4.671   3.855  0.4847 -1.8538  1.1913
 4557TIP3   OH213634   0.206   2.775   3.035 -0.0548  0.0682  0.1711
 4557TIP3    H113635   0.253   2.858   3.049  1.3240 -0.8627  1.3866
 4557TIP3    H213636   0.243   2.741   2.954 -0.3914  0.4776 -0.1603
 4558TIP3   OH213637   6.141   3.599   4.948 -0.1637 -0.4961  0.2004
 4558TIP3    H113638   6.211   3.601   5.013 -0.0888  0.0007  0.1067
 4558TIP3    H213639   6.110   3.508   4.949  0.0321 -0.5614  0.7208
 4559TIP3   OH213640   6.435   6.663   2.630 -0.5214 -0.0611  0.0721
 4559TIP3    H113641   6.516   6.670   2.681 -0.8095  0.0569  0.5157
 4559TIP3    H213642   6.397   6.580   2.657 -0.2065 -0.4481 -0.6474
 4560TIP3   OH213643   6.189   3.337   2.448  0.0338  0.2401  0.0606
 4560TIP3    H113644   6.123   3.391   2.492 -0.3465 -0.5817  0.5163
 4560TIP3    H213645   6.143   3.256   2.426  0.8384 -0.2694  0.2111
 4561TIP3   OH213646   4.147   5.024   3.848 -0.1739  0.8940 -0.1274
 4561TIP3    H113647   4.064   5.003   3.805  0.3517  1.1623 -1.2808
 4561TIP3    H213648   4.202   5.059   3.779  0.7887  1.0585  0.7084
 4562TIP3   OH213649   1.960   3.088   0.694  0.0234  0.0732  0.3175
 4562TIP3    H113650   1.874   3.106   0.733 -0.8570 -3.0767  0.1019
 4562TIP3    H213651   1.949   3.111   0.602 -1.0465 -1.4408  0.0332
 4563TIP3   OH213652   4.083   6.432   1.316 -0.4709 -0.1515 -0.8394
 4563TIP3    H113653   4.116   6.502   1.259  1.3518  0.3562  0.7116
 4563TIP3    H213654   4.109   6.351   1.272  0.4328  0.2249 -1.0248
 4564TIP3   OH213655   4.839   2.873   2.587 -0.2062  0.1516  0.6002
 4564TIP3    H113656   4.791   2.794   2.615  0.3891  0.0751  1.4435
 4564TIP3    H213657   4.909   2.839   2.531 -1.0154  0.2539 -0.5283
 4565TIP3   OH213658   0.824   0.769   4.328 -0.3036  0.6287  0.3637
 4565TIP3    H113659   0.856   0.689   4.370 -0.8621  0.3418  0.2577
 4565TIP3    H213660   0.787   0.740   4.245 -0.2164  1.0462  0.1727
 4566TIP3   OH213661   4.278   1.792   3.348 -0.0165 -0.4557 -0.2814
 4566TIP3    H113662   4.274   1.793   3.253  1.3755  1.6506 -0.4006
 4566TIP3    H213663   4.354   1.738   3.369 -0.3040 -0.8915 -0.3692
 4567TIP3   OH213664   1.473   4.107   3.424 -0.5887  0.3872  0.2009
 4567TIP3    H113665   1.519   4.064   3.496 -2.6003  0.9222  1.9079
 4567TIP3    H213666   1.424   4.036   3.382 -1.1589  0.4186  0.7982
 4568TIP3   OH213667   5.006   1.493   1.720 -0.1299 -0.4536  0.9982
 4568TIP3    H113668   5.076   1.453   1.668 -0.2608 -0.9329  1.1801
 4568TIP3    H213669   4.948   1.533   1.655  2.0662  3.0531  0.9493
 4569TIP3   OH213670   5.787   4.263   0.899  0.2469  0.3390 -0.2253
 4569TIP3    H113671   5.794   4.219   0.814  2.0654  2.5082 -1.3061
 4569TIP3    H213672   5.793   4.192   0.963  1.4347 -1.1346 -1.8701
 4570TIP3   OH213673   5.559   4.524   5.194  0.2438  0.4157  0.1198
 4570TIP3    H113674   5.561   4.614   5.228  0.8084  0.8246 -0.9537
 4570TIP3    H213675   5.649   4.507   5.166  0.0221 -0.2894 -0.1822
 4571TIP3   OH213676   5.433   4.342   1.043 -0.7666 -0.2836 -0.4551
 4571TIP3    H113677   5.384   4.306   1.117 -0.6826  2.5655  1.1022
 4571TIP3    H213678   5.521   4.358   1.078 -0.2811 -0.2849 -1.6255
 4572TIP3   OH213679   4.842   6.308   2.406  0.5031  0.7225 -0.1628
 4572TIP3    H113680   4.852   6.213   2.415 -0.8588  0.3291 -2.2679
 4572TIP3    H213681   4.879   6.328   2.320 -0.1988  1.9439 -0.2022
 4573TIP3   OH213682   6.459   4.427   0.511  0.5172  0.2412  0.2246
 4573TIP3    H113683   6.454   4.495   0.443  0.6704  1.0183  0.9715
 4573TIP3    H213684   6.493   4.473   0.588  1.3606 -0.8552  0.5364
 4574TIP3   OH213685   6.394   3.347   1.143 -0.5781  0.9345  0.4444
 4574TIP3    H113686   6.320   3.318   1.196 -0.0185  3.2815  2.6754
 4574TIP3    H213687   6.464   3.366   1.206  0.8735  1.7744 -1.3155
 4575TIP3   OH213688   3.646   2.335   5.884 -0.3042  0.7672  0.1367
 4575TIP3    H113689   3.711   2.267   5.866 -0.4621  0.2839  1.3361
 4575TIP3    H213690   3.568   2.306   5.836 -0.2012  0.3811  0.1989
 4576TIP3   OH213691   5.463   4.568   4.544  0.3352  0.1183 -0.2056
 4576TIP3    H113692   5.528   4.637   4.561  0.5825 -0.3853  0.9730
 4576TIP3    H213693   5.433   4.541   4.631 -0.4212 -0.6409 -0.6873
 4577TIP3   OH213694   7.070   6.566   3.684 -0.1082 -0.0451 -0.2048
 4577TIP3    H113695   7.007   6.523   3.741 -2.3002  0.8835 -1.7948
 4577TIP3    H213696   7.154   6.526   3.707 -0.7672  0.4668  3.8206
 4578TIP3   OH213697   3.021   1.456   0.817  0.0112 -0.2708 -0.3424
 4578TIP3    H113698   3.113   1.467   0.793  0.4830  0.5250  1.6275
 4578TIP3    H213699   3.023   1.407   0.899 -1.3085 -0.2062 -0.2511
 4579TIP3   OH213700   5.142   3.723   5.385 -0.0388  0.0886  0.2211
 4579TIP3    H113701   5.236   3.710   5.400 -0.0232 -0.8745 -0.6114
 4579TIP3    H213702   5.108   3.752   5.470  1.4147  3.0069 -0.0586
 4580TIP3   OH213703   4.229   3.516   5.146 -0.2081 -0.0465 -0.2502
 4580TIP3    H113704   4.252   3.608   5.139 -0.4404 -0.0989 -2.7101
 4580TIP3    H213705   4.292   3.480   5.207  1.1022  1.3940 -0.6925
 4581TIP3   OH213706   1.633   4.378   5.621  0.1287 -0.0068  0.0278
 4581TIP3    H113707   1.635   4.391   5.715  0.3650 -2.3909  0.4230
 4581TIP3    H213708   1.543   4.396   5.595 -0.1275 -0.0869  0.8453
 4582TIP3   OH213709   0.117   3.088   2.889 -0.6842  0.1601  0.5125
 4582TIP3    H113710   0.030   3.079   2.849 -0.8892 -0.5520  1.1042
 4582TIP3    H213711   0.170   3.020   2.847 -0.4841  0.4079  0.3596
 4583TIP3   OH213712   6.801   3.517   2.924 -0.0862  0.1582  0.0571
 4583TIP3    H113713   6.878   3.533   2.977  1.3720 -1.9886 -1.2474
 4583TIP3    H213714   6.834   3.474   2.845 -2.5118  0.0158 -0.9801
 4584TIP3   OH213715   5.515   0.832   1.891 -0.1065  0.1110 -0.4049
 4584TIP3    H113716   5.452   0.871   1.952 -3.0531 -1.3418 -2.2714
 4584TIP3    H213717   5.521   0.896   1.819 -0.1737 -0.1414 -0.6377
 4585TIP3   OH213718   5.154   0.017   1.142 -0.2794  0.4167 -0.3453
 4585TIP3    H113719   5.116   0.101   1.170 -2.6850 -0.2792 -1.2748
 4585TIP3    H213720   5.187   0.034   1.054 -1.2430  0.2690 -0.7406
 4586TIP3   OH213721   5.377   6.297   5.696 -0.3020  0.3436  0.5563
 4586TIP3    H113722   5.387   6.258   5.783 -1.0448  1.0895  0.9906
 4586TIP3    H213723   5.466   6.307   5.663 -0.0439 -0.6715  0.8981
 4587TIP3   OH213724   7.164   5.382   1.572 -0.3496 -0.2390 -0.0965
 4587TIP3    H113725   7.220   5.349   1.642  0.0831  0.9992  0.1714
 4587TIP3    H213726   7.095   5.430   1.618  0.2351  1.0357 -0.5142
 4588TIP3   OH213727   2.119   3.451   4.551  0.1729  0.4415 -0.2818
 4588TIP3    H113728   2.146   3.542   4.558  1.1668  0.3972 -2.5303
 4588TIP3    H213729   2.024   3.453   4.560  0.1469  1.7550 -0.6772
 4589TIP3   OH213730   4.922   1.689   0.642  0.3776 -0.0685  0.1531
 4589TIP3    H113731   4.933   1.622   0.710  2.8481 -2.0053 -1.9679
 4589TIP3    H213732   4.827   1.704   0.638  0.0395 -0.8192  3.0576
 4590TIP3   OH213733   5.025   3.504   3.155 -0.5802  0.2500 -0.8884
 4590TIP3    H113734   5.051   3.476   3.243 -0.9838  0.6004 -0.6508
 4590TIP3    H213735   5.007   3.598   3.164 -0.9912  0.2111 -1.2535
 4591TIP3   OH213736   4.052   3.825   2.441 -0.3333  0.0235 -0.7717
 4591TIP3    H113737   4.038   3.833   2.347  0.3503  0.0197 -0.8814
 4591TIP3    H213738   4.141   3.790   2.449  1.1238  3.4904 -0.0812
 4592TIP3   OH213739   6.431   0.274   3.514  0.1186 -0.3593 -0.5995
 4592TIP3    H113740   6.354   0.242   3.467 -0.2514  1.2433 -1.1570
 4592TIP3    H213741   6.482   0.195   3.533 -3.1113 -1.9956  2.6191
 4593TIP3   OH213742   5.783   1.506   5.912  0.2416  0.2100  0.1864
 4593TIP3    H113743   5.873   1.474   5.902  0.5267  1.2428 -0.7335
 4593TIP3    H213744   5.747   1.501   5.823 -0.3975  0.4353  0.4336
 4594TIP3   OH213745   5.976   1.516   2.886 -0.2113  0.2236 -0.3563
 4594TIP3    H113746   6.016   1.574   2.821 -0.9903  0.0601 -1.0051
 4594TIP3    H213747   6.050   1.471   2.927  0.3662  1.2002 -0.2829
 4595TIP3   OH213748   3.899   5.226   3.860 -0.3330 -0.1805 -0.1028
 4595TIP3    H113749   3.925   5.179   3.939 -0.0381  0.4393  0.1728
 4595TIP3    H213750   3.981   5.261   3.825 -0.5621  0.2093 -0.2550
 4596TIP3   OH213751   3.203   1.754   0.107 -0.0954 -0.2759 -0.5358
 4596TIP3    H113752   3.224   1.708   0.026  2.2282  0.4048 -0.4117
 4596TIP3    H213753   3.114   1.726   0.129 -0.1369 -1.7990 -2.3870
 4597TIP3   OH213754   4.138   3.502   3.273 -0.1752 -0.3283  0.6271
 4597TIP3    H113755   4.152   3.564   3.201  0.4238 -0.2083  0.8389
 4597TIP3    H213756   4.175   3.420   3.241 -1.6356 -0.8003  0.0504
 4598TIP3   OH213757   3.016   2.809   3.654  0.8073 -0.2722 -0.2116
 4598TIP3    H113758   3.092   2.782   3.603  0.2584  0.7330 -1.6167
 4598TIP3    H213759   2.943   2.806   3.592  0.2457  1.7792  0.2847
 4599TIP3   OH213760   5.606   1.103   2.663  0.3213  0.6467 -0.5465
 4599TIP3    H113761   5.527   1.050   2.656  0.7175 -0.0114 -0.1466
 4599TIP3    H213762   5.586   1.166   2.733  0.8455 -0.8202  1.0040
 4600TIP3   OH213763   6.097   2.119   4.535 -0.2597 -0.2077  0.3580
 4600TIP3    H113764   6.105   2.166   4.618  1.0109  1.6245 -0.7355
 4600TIP3    H213765   6.181   2.075   4.523 -0.5647 -0.7596  0.1926
 4601TIP3   OH213766   7.074   2.836   2.560 -0.2184  0.3536  0.3322
 4601TIP3    H113767   7.132   2.850   2.485 -0.9822  1.7876 -0.0257
 4601TIP3    H213768   6.986   2.833   2.521 -0.6217  1.0873  1.1499
 4602TIP3   OH213769   0.246   6.409   5.487  0.5569 -0.2190 -0.0377
 4602TIP3    H113770   0.297   6.483   5.453  0.6921 -0.6053 -0.7141
 4602TIP3    H213771   0.312   6.351   5.526  0.3222  0.5710  1.5900
 4603TIP3   OH213772   0.411   1.296   4.664 -0.0021  0.1121 -0.1737
 4603TIP3    H113773   0.457   1.227   4.712 -1.1583 -1.5501 -1.3837
 4603TIP3    H213774   0.325   1.302   4.706 -0.5673 -0.4893 -1.1985
 4604TIP3   OH213775   2.010   0.143   1.673 -0.5047  0.3893 -0.0387
 4604TIP3    H113776   1.930   0.111   1.632  0.1341 -1.1720 -0.1272
 4604TIP3    H213777   1.991   0.141   1.767 -0.6041  0.1107 -0.0631
 4605TIP3   OH213778   1.980   6.751   5.328  0.3992  0.3528 -0.0438
 4605TIP3    H113779   1.941   6.681   5.381  0.4534  1.4465  1.4810
 4605TIP3    H213780   1.909   6.779   5.270 -0.4766  0.8538  1.2209
 4606TIP3   OH213781   6.007   5.806   0.579  0.4139  0.2182  0.9967
 4606TIP3    H113782   5.944   5.798   0.507 -0.5206  0.7984  1.7415
 4606TIP3    H213783   5.966   5.762   0.653  1.6857 -1.0200  1.0176
 4607TIP3   OH213784   3.794   4.373   2.967 -0.4270 -0.3565  0.5628
 4607TIP3    H113785   3.838   4.372   2.882  0.2020 -0.5629  0.8854
 4607TIP3    H213786   3.801   4.282   2.997 -1.2396 -0.4333  0.5357
 4608TIP3   OH213787   0.340   0.536   4.790  0.2973 -0.4045  0.1156
 4608TIP3    H113788   0.255   0.497   4.810  0.1481 -1.3178 -2.0050
 4608TIP3    H213789   0.339   0.548   4.695  3.4988 -2.9489 -0.4451
 4609TIP3   OH213790   2.040   5.240   4.301  0.1444  0.4286 -0.3077
 4609TIP3    H113791   2.049   5.165   4.243 -0.0747 -1.1301  1.5873
 4609TIP3    H213792   1.998   5.205   4.379  0.0428  2.5359  0.6505
 4610TIP3   OH213793   0.902   2.135   0.711  0.0659 -0.0546  0.2296
 4610TIP3    H113794   0.818   2.178   0.728 -0.2789 -0.8738  0.6373
 4610TIP3    H213795   0.918   2.149   0.617 -0.0005  1.0122  0.3663
 4611TIP3   OH213796   4.897   2.555   3.080 -0.4018  0.2560  0.3832
 4611TIP3    H113797   4.804   2.546   3.063 -0.3905 -1.9890  1.1726
 4611TIP3    H213798   4.903   2.627   3.144 -1.8266 -0.8390  1.8384
 4612TIP3   OH213799   6.080   1.313   4.728 -0.3090 -0.1524  0.6444
 4612TIP3    H113800   6.046   1.402   4.730  0.3187  0.0859  0.9091
 4612TIP3    H213801   6.086   1.291   4.635  3.2963  1.5723  0.3058
 4613TIP3   OH213802   0.294   3.290   1.878 -0.5299  0.2325 -0.2386
 4613TIP3    H113803   0.377   3.299   1.831 -1.0621  2.1359 -0.9093
 4613TIP3    H213804   0.302   3.352   1.951 -0.6810 -0.8918  0.7489
 4614TIP3   OH213805   1.161   6.135   3.353 -0.1220  0.0416 -0.0371
 4614TIP3    H113806   1.140   6.074   3.424  0.3184  0.7540  0.7224
 4614TIP3    H213807   1.257   6.137   3.351 -0.1131 -0.6402 -1.2500
 4615TIP3   OH213808   3.992   0.876   5.322  0.3414  0.0141 -0.5397
 4615TIP3    H113809   3.962   0.902   5.409 -0.2130 -1.9642 -0.0925
 4615TIP3    H213810   4.080   0.913   5.314  0.6759 -0.3381  1.1475
 4616TIP3   OH213811   0.885   0.587   0.168  0.0379 -0.1451  0.3098
 4616TIP3    H113812   0.907   0.494   0.169 -0.1893 -0.2191  2.1307
 4616TIP3    H213813   0.859   0.606   0.258  3.0672  2.3981  0.8262
 4617TIP3   OH213814   0.063   1.380   2.416 -0.5049  0.8491  0.1212
 4617TIP3    H113815  -0.021   1.334   2.413  0.1063 -0.3041  0.1340
 4617TIP3    H213816   0.079   1.406   2.325 -0.6099  0.5738  0.0235
 4618TIP3   OH213817   1.784   1.813   3.152  0.4051 -0.1353  0.5109
 4618TIP3    H113818   1.861   1.776   3.194  0.1263  0.2453  1.3740
 4618TIP3    H213819   1.729   1.737   3.130  1.7414 -0.5649 -1.6433
 4619TIP3   OH213820   4.121   3.072   4.584  0.5209 -0.5833  0.2065
 4619TIP3    H113821   4.189   3.034   4.639  0.2642 -0.8794  0.3219
 4619TIP3    H213822   4.042   3.022   4.606  0.1729  0.0322  0.3829
 4620TIP3   OH213823   2.872   2.460   0.065  0.6613  0.1173  0.1172
 4620TIP3    H113824   2.856   2.399  -0.007 -2.0651  0.2903  0.4697
 4620TIP3    H213825   2.907   2.405   0.135 -0.0305 -0.7322 -0.1787
 4621TIP3   OH213826   5.414   2.171   1.904  0.2855  0.0639  0.4078
 4621TIP3    H113827   5.407   2.077   1.887 -3.1038  0.0607  1.2787
 4621TIP3    H213828   5.465   2.204   1.829 -1.4224 -1.9945 -1.8344
 4622TIP3   OH213829   3.248   0.746   0.399 -0.2945 -0.4781  0.6035
 4622TIP3    H113830   3.201   0.818   0.356  0.3030  0.5912  1.6886
 4622TIP3    H213831   3.310   0.789   0.457  2.3676 -1.8356 -1.0575
 4623TIP3   OH213832   2.914   4.867   4.000 -0.2872  0.2124 -0.2246
 4623TIP3    H113833   2.899   4.958   4.025 -0.0346  0.1566  0.1428
 4623TIP3    H213834   2.919   4.869   3.905  1.7854  0.9183 -0.1396
 4624TIP3   OH213835   0.163   0.841   4.442  0.4484  0.1752  0.5678
 4624TIP3    H113836   0.210   0.766   4.405 -0.4108  0.3030 -0.8824
 4624TIP3    H213837   0.215   0.868   4.518  1.8562 -0.6388 -0.0780
 4625TIP3   OH213838   3.114   3.371   4.260 -0.3302  0.0207 -0.6779
 4625TIP3    H113839   3.100   3.463   4.235  1.0172  0.3585 -0.3202
 4625TIP3    H213840   3.078   3.364   4.348  0.1904  0.4103 -0.4263
 4626TIP3   OH213841   3.023   0.296   3.311 -0.3616 -0.2358  0.1755
 4626TIP3    H113842   3.008   0.236   3.238  1.4950 -0.4739 -0.0415
 4626TIP3    H213843   3.117   0.311   3.311 -0.5358  1.0539  1.5247
 4627TIP3   OH213844   5.006   0.937   3.636 -0.3275  0.4778 -0.0424
 4627TIP3    H113845   4.961   0.864   3.678 -1.4410  1.0594 -0.1719
 4627TIP3    H213846   5.095   0.906   3.622 -0.5536 -0.5412  0.6705
 4628TIP3   OH213847   1.456   2.163   2.651 -0.1312  0.1146  0.5151
 4628TIP3    H113848   1.425   2.233   2.708 -1.3507  0.5390 -0.6256
 4628TIP3    H213849   1.422   2.185   2.564  0.8019 -1.0604 -0.1864
 4629TIP3   OH213850   3.942   1.257   3.957  0.3521  0.6610  0.2362
 4629TIP3    H113851   4.036   1.262   3.973  0.0521 -0.0387  2.5541
 4629TIP3    H213852   3.926   1.324   3.891  2.5162  0.5276 -0.5075
 4630TIP3   OH213853   1.952   2.451   5.583 -0.0074 -0.2651  0.0035
 4630TIP3    H113854   1.972   2.432   5.491 -0.3287 -2.6844  0.3753
 4630TIP3    H213855   1.865   2.491   5.581  0.0725 -0.1180 -0.7577
 4631TIP3   OH213856   1.490   6.564   0.653  0.0665  0.1242  0.4786
 4631TIP3    H113857   1.543   6.608   0.585 -0.0041 -0.5226 -0.0016
 4631TIP3    H213858   1.410   6.616   0.658 -0.2547 -0.2432 -0.4847
 4632TIP3   OH213859   5.153   2.982   4.352  0.6135 -0.4087  0.0852
 4632TIP3    H113860   5.116   3.021   4.431  0.4623 -1.8999  0.7847
 4632TIP3    H213861   5.111   3.029   4.280 -0.0755  0.2346  0.8879
 4633TIP3   OH213862   4.944   1.489   0.837 -0.0157 -0.4909 -0.3425
 4633TIP3    H113863   4.958   1.443   0.919  0.6719  1.5313  0.7495
 4633TIP3    H213864   4.875   1.439   0.793 -0.7648 -1.3504  1.6748
 4634TIP3   OH213865   6.702   4.802   1.480  0.1365  0.1686 -0.0476
 4634TIP3    H113866   6.795   4.785   1.469  0.2069  0.3475  0.3028
 4634TIP3    H213867   6.673   4.829   1.393 -0.1295 -2.4570 -0.8690
 4635TIP3   OH213868   0.244   4.214   1.977  0.4357 -0.0323 -0.6403
 4635TIP3    H113869   0.323   4.269   1.969  0.2344  0.4657  0.5435
 4635TIP3    H213870   0.172   4.274   1.957  0.0867  0.6652  2.1921
 4636TIP3   OH213871   6.779   3.759   2.800  0.1196  0.0995 -0.3918
 4636TIP3    H113872   6.782   3.679   2.851  3.7333  0.2120 -0.1116
 4636TIP3    H213873   6.710   3.811   2.840 -0.9989 -2.0649  0.6624
 4637TIP3   OH213874   0.363   1.943   1.966  0.3019 -0.4259  0.2706
 4637TIP3    H113875   0.406   1.886   2.029  1.9462  1.2087  0.7129
 4637TIP3    H213876   0.274   1.955   2.000  0.4019 -1.4990  0.9433
 4638TIP3   OH213877   3.047   6.521   3.520 -0.6175  0.0564  0.0574
 4638TIP3    H113878   3.069   6.563   3.436  1.7294 -2.3309 -0.6532
 4638TIP3    H213879   2.984   6.453   3.496 -0.8584  0.1400  0.4463
 4639TIP3   OH213880   4.859   4.672   3.526 -0.2992  0.3136 -0.0027
 4639TIP3    H113881   4.867   4.765   3.547 -1.7391  0.8704 -1.6902
 4639TIP3    H213882   4.881   4.666   3.433 -2.6975 -0.6043 -0.5674
 4640TIP3   OH213883   2.932   1.312   5.610  0.1977  0.5104 -0.2020
 4640TIP3    H113884   2.949   1.335   5.518  0.0285 -2.0694 -0.9896
 4640TIP3    H213885   2.951   1.218   5.614 -2.7597 -0.1421  1.6257
 4641TIP3   OH213886   1.716   5.064   1.599  0.5461  0.3635 -0.4753
 4641TIP3    H113887   1.635   5.079   1.649  0.5846 -1.4072  0.1955
 4641TIP3    H213888   1.691   5.078   1.508  0.2288  2.6782 -0.0939
 4642TIP3   OH213889   2.308   5.551   1.503 -0.3462  0.2575 -0.5289
 4642TIP3    H113890   2.300   5.458   1.481  0.2339  0.5644 -2.2710
 4642TIP3    H213891   2.371   5.585   1.439 -0.2264  1.7706  0.3381
 4643TIP3   OH213892   4.709   5.087   0.577  0.6091 -0.0749  0.0613
 4643TIP3    H113893   4.748   4.999   0.573 -0.3754 -0.6524  1.7816
 4643TIP3    H213894   4.739   5.122   0.661  0.7050  1.1033 -0.4582
 4644TIP3   OH213895   0.988   3.121   3.022  0.1959  0.1289 -1.0133
 4644TIP3    H113896   0.976   3.116   3.117  0.9312  1.7863 -0.8141
 4644TIP3    H213897   1.001   3.030   2.995  2.4961 -0.1893  0.8292
 4645TIP3   OH213898   4.773   0.074   1.374  0.0697  0.2684  0.3493
 4645TIP3    H113899   4.802   0.156   1.335  0.6965  0.0240  0.2865
 4645TIP3    H213900   4.710   0.038   1.311  1.4356 -0.3642 -0.6985
 4646TIP3   OH213901   4.626   2.869   5.268  0.0778 -0.2366 -0.0578
 4646TIP3    H113902   4.538   2.904   5.285  0.3957  0.8341 -0.4868
 4646TIP3    H213903   4.615   2.815   5.189 -0.3026 -0.5843  0.2290
 4647TIP3   OH213904   1.011   2.020   1.925 -0.6743  0.1650 -0.9605
 4647TIP3    H113905   1.043   1.943   1.878 -0.5425 -0.4923  0.1733
 4647TIP3    H213906   1.084   2.046   1.981 -1.9137 -1.1930  1.4695
 4648TIP3   OH213907   6.625   4.009   1.018 -0.2878 -0.2900  0.2910
 4648TIP3    H113908   6.674   3.951   1.077 -0.5965 -0.6896  0.1625
 4648TIP3    H213909   6.575   4.066   1.077  1.1641  0.8815  0.4470
 4649TIP3   OH213910   7.065   4.315  -0.020  0.0427 -0.1292  0.1238
 4649TIP3    H113911   7.085   4.408  -0.028  1.8524 -0.5030 -0.1893
 4649TIP3    H213912   7.029   4.305   0.068  1.0197  0.6857  0.6341
 4650TIP3   OH213913   2.067   6.749   2.380 -0.5614 -0.5263  0.2107
 4650TIP3    H113914   2.048   6.703   2.298  1.7043 -0.4356 -0.4240
 4650TIP3    H213915   2.151   6.792   2.365 -1.7901  2.5626  1.3334
 4651TIP3   OH213916   5.006   6.319   1.170 -0.0091  0.9045  0.2684
 4651TIP3    H113917   4.914   6.325   1.144  0.3352  1.6200 -0.8455
 4651TIP3    H213918   5.033   6.409   1.184  0.2357  0.6350  1.7713
 4652TIP3   OH213919   5.594   4.344   4.726 -0.2285 -0.6226  0.3613
 4652TIP3    H113920   5.689   4.333   4.724 -0.2077 -0.3749  0.0400
 4652TIP3    H213921   5.561   4.279   4.663 -0.3595 -1.6260  1.4355
 4653TIP3   OH213922   6.472   3.583   4.028 -0.4070  0.1464  0.2003
 4653TIP3    H113923   6.489   3.556   4.118 -0.2069 -2.5718 -0.5793
 4653TIP3    H213924   6.378   3.604   4.027 -0.4533  0.0113  1.0018
 4654TIP3   OH213925   0.512   0.677   5.469 -0.1114  0.6740  0.5070
 4654TIP3    H113926   0.466   0.716   5.543 -1.5042  2.6599 -1.2734
 4654TIP3    H213927   0.444   0.637   5.416  0.6027  0.8966 -0.6166
 4655TIP3   OH213928   6.909   3.609   0.403 -0.5427  0.4247 -0.1632
 4655TIP3    H113929   6.940   3.535   0.352 -2.2577 -0.0812 -0.5257
 4655TIP3    H213930   6.914   3.580   0.494 -0.8806 -0.0193 -0.2829
 4656TIP3   OH213931   2.445   3.904   1.788  0.0932  0.5996  0.0871
 4656TIP3    H113932   2.533   3.899   1.752 -0.2699  0.8893 -0.8778
 4656TIP3    H213933   2.410   3.986   1.755 -0.8501  0.0615 -0.2859
 4657TIP3   OH213934   2.743   4.167   1.953 -0.3439 -0.1909 -0.2069
 4657TIP3    H113935   2.711   4.157   1.864 -2.0614  1.3831  0.1623
 4657TIP3    H213936   2.718   4.257   1.977 -0.0137 -0.6028  1.8651
 4658TIP3   OH213937   2.421   6.449   2.002 -0.6007  0.0263  0.1601
 4658TIP3    H113938   2.330   6.438   2.030 -0.5199  0.2675  0.5279
 4658TIP3    H213939   2.416   6.468   1.908 -0.9792  0.7894  0.3266
 4659TIP3   OH213940   4.267   0.604   0.230 -0.5142  0.7053 -0.3038
 4659TIP3    H113941   4.239   0.526   0.277  0.9908 -0.7620 -1.7218
 4659TIP3    H213942   4.310   0.658   0.296 -0.8812 -0.0229  0.5460
 4660TIP3   OH213943   4.467   2.712   4.812 -0.1494  0.6405  0.7269
 4660TIP3    H113944   4.540   2.727   4.873  0.5795 -0.6477  0.2308
 4660TIP3    H213945   4.507   2.661   4.741 -1.7397 -0.9103  0.9005
 4661TIP3   OH213946   4.803   6.258   5.530  0.4565  0.1942 -0.3495
 4661TIP3    H113947   4.728   6.237   5.474 -0.2311  0.3240  0.5025
 4661TIP3    H213948   4.768   6.322   5.592  0.7147 -1.2615  1.3496
 4662TIP3   OH213949   0.895   2.168   1.440 -0.0557  0.0119  0.2775
 4662TIP3    H113950   0.805   2.151   1.411  0.1447  0.7431 -0.8110
 4662TIP3    H213951   0.924   2.084   1.476 -0.2829 -1.0088 -1.7701
 4663TIP3   OH213952   2.280   2.585   1.017  0.1286  0.2818  0.5023
 4663TIP3    H113953   2.250   2.581   1.108  0.0978  1.9279  0.5895
 4663TIP3    H213954   2.212   2.633   0.970 -0.4237 -1.5369 -0.6810
 4664TIP3   OH213955  -0.001   1.108   1.227 -0.2074  0.0526  0.2292
 4664TIP3    H113956   0.086   1.087   1.195  0.0653 -0.9866  1.6028
 4664TIP3    H213957   0.013   1.158   1.307 -0.8726  0.1189  0.3148
 4665TIP3   OH213958   0.029   6.243   4.698 -0.5676 -0.1781 -0.6615
 4665TIP3    H113959   0.066   6.183   4.634  0.9406 -0.8050  0.7123
 4665TIP3    H213960   0.083   6.322   4.691  1.3368 -1.1461  1.4452
 4666TIP3   OH213961   0.800   2.299   5.379 -0.0275  0.4955  0.2090
 4666TIP3    H113962   0.791   2.206   5.399  1.0928  0.3869  0.3137
 4666TIP3    H213963   0.819   2.340   5.463 -1.0438  0.9065  0.2457
 4667TIP3   OH213964   6.426   6.738   4.252 -0.5026 -0.2354 -0.1394
 4667TIP3    H113965   6.507   6.742   4.305  0.3880  0.8850 -1.5239
 4667TIP3    H213966   6.372   6.810   4.286  0.0738  0.4934 -0.7388
 4668TIP3   OH213967   2.156   4.323   2.982 -0.4805  0.0265  0.4513
 4668TIP3    H113968   2.235   4.367   2.950 -0.9900 -0.3494 -1.4361
 4668TIP3    H213969   2.183   4.232   2.993 -0.6993 -0.1695 -0.5088
 4669TIP3   OH213970   1.016   2.449   3.135 -0.2448 -0.0690 -0.5876
 4669TIP3    H113971   0.922   2.430   3.127 -0.7461  1.7468  0.3778
 4669TIP3    H213972   1.050   2.439   3.046 -1.3289 -0.7703 -0.9479
 4670TIP3   OH213973   3.334   1.265   5.450 -0.2606 -0.8967  0.0817
 4670TIP3    H113974   3.317   1.175   5.424 -0.3631 -0.9190  0.2241
 4670TIP3    H213975   3.385   1.258   5.530 -0.0557 -0.8279 -0.0421
 4671TIP3   OH213976   5.775   1.728   3.883 -0.1455  0.4803 -0.4651
 4671TIP3    H113977   5.706   1.700   3.823 -0.9761  2.1359 -0.3276
 4671TIP3    H213978   5.798   1.648   3.931 -0.9012 -0.4204 -1.5390
 4672TIP3   OH213979   4.226   3.701   5.740  0.5518  0.3276 -0.7076
 4672TIP3    H113980   4.240   3.744   5.825 -0.8884  0.0398 -0.2995
 4672TIP3    H213981   4.195   3.614   5.763 -1.7515  0.8816 -1.4879
 4673TIP3   OH213982   4.520   1.811   2.355 -0.3813  0.4391  0.0668
 4673TIP3    H113983   4.431   1.846   2.364 -0.5092 -0.0190  0.7199
 4673TIP3    H213984   4.546   1.792   2.445  0.0570 -0.2183 -0.1940
 4674TIP3   OH213985   1.534   2.922   3.536 -0.2489  0.4716 -0.3654
 4674TIP3    H113986   1.440   2.924   3.521 -0.2704  0.0928 -0.2978
 4674TIP3    H213987   1.555   2.829   3.543 -0.1245  0.5932  1.2752
 4675TIP3   OH213988   2.234   3.177   0.996  0.0733  0.5346  0.3714
 4675TIP3    H113989   2.141   3.169   1.020 -0.2635  1.2288 -0.6388
 4675TIP3    H213990   2.237   3.147   0.905  0.9829 -0.1996  0.6342
 4676TIP3   OH213991   1.245   3.881   0.869  0.8119  0.1866 -0.2804
 4676TIP3    H113992   1.228   3.821   0.941 -0.2206 -1.6955 -1.9732
 4676TIP3    H213993   1.186   3.955   0.883 -0.1592 -0.6680  0.2316
 4677TIP3   OH213994   6.676   5.093   5.685 -0.3719 -0.0764  0.2342
 4677TIP3    H113995   6.722   5.174   5.706  1.3341 -0.5826 -1.2861
 4677TIP3    H213996   6.610   5.119   5.620  0.3397  0.0776 -0.4389
 4678TIP3   OH213997   7.145   2.710   0.024  0.9502 -0.5972  0.0615
 4678TIP3    H113998   7.132   2.689   0.117  0.2836 -0.2978  0.0418
 4678TIP3    H213999   7.239   2.700   0.010  0.9072 -1.7695  0.4877
 4679TIP3   OH214000   0.251   4.361   4.489  0.3357 -0.2053  0.1005
 4679TIP3    H114001   0.207   4.296   4.543  1.1488 -0.9264 -0.0980
 4679TIP3    H214002   0.309   4.311   4.432  0.4153  0.6328 -0.5828
 4680TIP3   OH214003   1.922   0.086   1.925  0.1571  0.1556  0.2994
 4680TIP3    H114004   1.828   0.097   1.939  0.1742 -0.3146  0.8273
 4680TIP3    H214005   1.963   0.153   1.980  0.1652 -0.4405  1.0266
 4681TIP3   OH214006   6.970   0.607   3.277 -0.6906  0.2410 -0.5644
 4681TIP3    H114007   7.013   0.521   3.272  0.8316  0.7522  1.8733
 4681TIP3    H214008   6.877   0.587   3.270 -0.3526 -1.5713 -0.4699
 4682TIP3   OH214009   2.571   1.534   2.048  0.1994  0.0041  0.0577
 4682TIP3    H114010   2.488   1.505   2.009 -1.0820  2.9483  0.3672
 4682TIP3    H214011   2.628   1.551   1.973 -1.0190  2.1448 -0.4578
 4683TIP3   OH214012   4.030   5.905   3.643  0.0755 -0.0995 -0.5260
 4683TIP3    H114013   4.108   5.853   3.661  0.0402  0.1971  0.5450
 4683TIP3    H214014   4.056   5.995   3.661 -0.4077  0.0359 -0.4897
 4684TIP3   OH214015   6.166   3.645   1.848 -0.1743 -1.2043  0.0513
 4684TIP3    H114016   6.123   3.641   1.933  0.3367 -1.2432  0.3139
 4684TIP3    H214017   6.096   3.663   1.786 -0.6889 -2.1314  0.3568
 4685TIP3   OH214018   2.748   5.931   2.487  0.3663  0.1119 -0.3828
 4685TIP3    H114019   2.653   5.941   2.483  0.2596  0.0979  1.4715
 4685TIP3    H214020   2.770   5.884   2.406 -1.1810  0.1801 -0.8810
 4686TIP3   OH214021   2.275   3.548   5.405  0.8948  0.1824  0.6356
 4686TIP3    H114022   2.356   3.506   5.434 -0.0330 -0.5100  2.3848
 4686TIP3    H214023   2.254   3.611   5.475 -0.3838 -0.0883  0.5236
 4687TIP3   OH214024   3.569   0.314   4.130  0.3365  0.2392 -0.4336
 4687TIP3    H114025   3.650   0.292   4.177  0.3662  0.6654 -0.2751
 4687TIP3    H214026   3.507   0.247   4.156  0.3919  0.3924  0.1148
 4688TIP3   OH214027   5.687   5.606   0.043  0.3747 -0.3586  0.0148
 4688TIP3    H114028   5.691   5.642   0.132  0.4206  1.1309 -0.5676
 4688TIP3    H214029   5.656   5.516   0.055  0.2102 -0.1265  1.5208
 4689TIP3   OH214030   4.304   3.696   2.863  0.0488 -0.5645  0.0844
 4689TIP3    H114031   4.369   3.627   2.875 -1.2209 -1.7880  0.2565
 4689TIP3    H214032   4.350   3.766   2.817  1.7056 -1.0064  1.0111
 4690TIP3   OH214033   4.280   0.094   1.406  0.4001 -0.0497  0.3222
 4690TIP3    H114034   4.333   0.147   1.466  0.0693  4.8376 -3.1248
 4690TIP3    H214035   4.190   0.113   1.432  0.2818 -0.3622  0.1398
 4691TIP3   OH214036   5.982   2.886   2.793  0.0205 -0.8636  0.2313
 4691TIP3    H114037   6.004   2.793   2.794 -0.8381 -1.0723  0.9362
 4691TIP3    H214038   5.992   2.914   2.884  4.1860  0.7400 -0.4928
 4692TIP3   OH214039   7.120   1.189   1.814 -0.1069  0.2509  0.7902
 4692TIP3    H114040   7.161   1.119   1.865  0.1576  0.2696  0.6048
 4692TIP3    H214041   7.192   1.249   1.793  0.4484 -1.2958 -2.2384
 4693TIP3   OH214042   4.195   1.922   0.341  0.1392 -0.5948  0.0983
 4693TIP3    H114043   4.188   2.015   0.360  1.4587 -0.5913  0.6514
 4693TIP3    H214044   4.212   1.917   0.247 -0.5470 -0.3215 -0.0457
 4694TIP3   OH214045   5.768   3.288   4.355  0.0131 -0.3084 -0.0159
 4694TIP3    H114046   5.785   3.234   4.278 -1.9997 -0.7762 -0.1788
 4694TIP3    H214047   5.850   3.336   4.369  0.9578 -1.4150 -1.4549
 4695TIP3   OH214048   2.840   3.764   1.015  0.0573 -0.7066 -0.2926
 4695TIP3    H114049   2.890   3.764   0.934  1.1450 -0.7173  0.3609
 4695TIP3    H214050   2.844   3.673   1.046  0.2660 -0.5533  0.1377
 4696TIP3   OH214051   5.455   6.672   4.114 -0.0687 -0.1295  0.2198
 4696TIP3    H114052   5.379   6.661   4.170 -0.6623 -0.2726 -0.6019
 4696TIP3    H214053   5.479   6.764   4.123 -0.6988  0.0544  0.0251
 4697TIP3   OH214054   0.975   5.170   0.487  0.2479 -0.3109  0.0104
 4697TIP3    H114055   0.945   5.257   0.459  2.4368  0.5678  0.1593
 4697TIP3    H214056   0.982   5.176   0.582  0.3575 -0.6630  0.0273
 4698TIP3   OH214057   0.005   1.945   4.640 -0.3149  0.0063 -0.2448
 4698TIP3    H114058   0.036   1.987   4.560  0.3087  0.6348  0.3263
 4698TIP3    H214059  -0.009   2.017   4.702 -1.9140 -0.3444 -0.1382
 4699TIP3   OH214060   4.784   0.933   0.630 -0.3580 -0.2269 -0.5125
 4699TIP3    H114061   4.831   0.993   0.572 -0.2459  0.4196  0.2286
 4699TIP3    H214062   4.848   0.865   0.651 -0.5510 -0.7444 -1.5273
 4700TIP3   OH214063   2.673   2.658   0.098 -0.7252 -0.1277  0.2426
 4700TIP3    H114064   2.634   2.732   0.052  0.8874  1.0961  0.7215
 4700TIP3    H214065   2.736   2.621   0.036 -0.8409 -0.4805  0.3356
 4701TIP3   OH214066   0.433   2.924   5.680  0.4555 -0.1470  0.2351
 4701TIP3    H114067   0.425   3.017   5.658  1.1383 -0.3667 -1.0372
 4701TIP3    H214068   0.515   2.897   5.638 -0.5648 -1.7167 -0.8316
 4702TIP3   OH214069   4.465   6.616   2.686  0.4854  0.0734  0.4373
 4702TIP3    H114070   4.386   6.565   2.668 -0.3662  1.8200 -1.1408
 4702TIP3    H214071   4.530   6.582   2.624  0.3085  0.0639  0.2568
 4703TIP3   OH214072   3.094   0.956   3.810 -0.4095 -0.0300 -0.3885
 4703TIP3    H114073   3.114   0.899   3.735 -1.3477 -0.5694 -0.2409
 4703TIP3    H214074   3.155   0.927   3.878  1.2136  1.1989 -1.2603
 4704TIP3   OH214075   3.131   2.484   4.576 -0.0353 -0.0614 -0.1122
 4704TIP3    H114076   3.190   2.409   4.582  2.5122  1.4240 -3.4545
 4704TIP3    H214077   3.167   2.548   4.636  0.8426  0.2630 -0.9702
 4705TIP3   OH214078   3.279   3.145   4.201  0.0510  0.0367 -0.2228
 4705TIP3    H114079   3.202   3.189   4.236  0.9186  0.5064  1.1422
 4705TIP3    H214080   3.318   3.100   4.276  0.4735 -1.1700 -1.1256
 4706TIP3   OH214081   2.057   5.260   3.633 -0.0950 -0.0529 -0.1038
 4706TIP3    H114082   2.004   5.338   3.614  0.2703  0.4011  0.7017
 4706TIP3    H214083   2.141   5.277   3.591  0.1772  0.2496  0.5489
 4707TIP3   OH214084   5.991   3.549   0.550  0.3962  0.1693  0.1661
 4707TIP3    H114085   6.086   3.566   0.555  0.4917 -0.5824  1.2489
 4707TIP3    H214086   5.974   3.533   0.457  1.6745 -1.5318  0.1819
 4708TIP3   OH214087   3.188   0.961   0.079 -0.2010 -0.7718 -0.3472
 4708TIP3    H114088   3.283   0.961   0.086 -0.1147  1.3544 -0.6755
 4708TIP3    H214089   3.158   1.004   0.159 -0.7613 -0.0034 -0.9518
 4709TIP3   OH214090   0.612   3.715   0.189 -0.2977  0.0424  0.1052
 4709TIP3    H114091   0.532   3.739   0.235 -0.4936 -0.8924  0.2776
 4709TIP3    H214092   0.642   3.636   0.234  1.1742  0.8352  0.5630
 4710TIP3   OH214093   6.365   2.537   0.416  0.3398  0.1141 -0.6786
 4710TIP3    H114094   6.418   2.617   0.416  1.2006 -0.4448 -0.2191
 4710TIP3    H214095   6.390   2.492   0.335  1.7656 -0.8930  0.2591
 4711TIP3   OH214096   0.729   3.309   1.908  0.3662  0.0383  0.0875
 4711TIP3    H114097   0.787   3.236   1.932  1.0995  0.5189 -0.2008
 4711TIP3    H214098   0.699   3.344   1.992 -0.7243 -1.1559  0.2311
 4712TIP3   OH214099   3.745   1.832   3.938  0.9353 -0.2541  0.0360
 4712TIP3    H114100   3.805   1.760   3.917  2.9544  1.0895  0.8612
 4712TIP3    H214101   3.739   1.882   3.856 -0.3280 -1.2050 -0.4860
 4713TIP3   OH214102   5.445   2.475   1.294  0.2209  0.2296  0.5129
 4713TIP3    H114103   5.378   2.415   1.261  0.1427  0.8151 -0.4262
 4713TIP3    H214104   5.525   2.422   1.298  0.2021  0.1040 -0.5130
 4714TIP3   OH214105   3.596   0.251   4.494 -0.2856 -0.4829 -0.3107
 4714TIP3    H114106   3.588   0.241   4.589 -2.0107  0.5379 -0.3088
 4714TIP3    H214107   3.579   0.163   4.460  0.5436 -0.9047  0.2971
 4715TIP3   OH214108   2.352   4.354   3.241 -0.0025  0.2710 -0.2741
 4715TIP3    H114109   2.393   4.376   3.157  0.3322 -1.3768 -0.5679
 4715TIP3    H214110   2.391   4.270   3.266  1.7107  1.7572  2.7043
 4716TIP3   OH214111   0.149   1.180   4.299  0.5498 -0.2789 -0.4613
 4716TIP3    H114112   0.090   1.196   4.225  0.1541  0.6451  0.0369
 4716TIP3    H214113   0.216   1.121   4.264  0.3484  0.1087 -1.5413
 4717TIP3   OH214114   5.142   4.830   3.602  0.2916  0.2355  0.0282
 4717TIP3    H114115   5.176   4.837   3.512  0.5030 -0.6075  0.0330
 4717TIP3    H214116   5.057   4.873   3.599  0.0155 -0.3322 -0.7408
 4718TIP3   OH214117   2.932   2.584   1.360 -0.0121 -1.0598 -0.1054
 4718TIP3    H114118   2.894   2.520   1.299  0.9959 -2.4273  0.6496
 4718TIP3    H214119   2.921   2.668   1.316 -1.2157 -1.7630 -1.2174
 4719TIP3   OH214120   3.909   6.278   2.674 -0.1396  0.1117 -0.2672
 4719TIP3    H114121   3.873   6.222   2.742 -1.1644  1.2659  0.1613
 4719TIP3    H214122   3.941   6.355   2.720  0.7382  0.1556 -0.9180
 4720TIP3   OH214123   3.826   4.293   0.437  0.2749  0.4502  0.2317
 4720TIP3    H114124   3.787   4.373   0.472 -0.8566 -0.2513  0.6066
 4720TIP3    H214125   3.920   4.304   0.453 -0.1123  0.4183  3.0090
 4721TIP3   OH214126   5.250   4.944   1.581  0.0105 -0.3544 -0.2578
 4721TIP3    H114127   5.293   4.895   1.511 -1.2962 -1.2270 -0.4833
 4721TIP3    H214128   5.313   4.943   1.653  0.3016 -1.7703 -0.5018
 4722TIP3   OH214129   3.657   2.248   5.280 -0.3503  0.1003  0.6790
 4722TIP3    H114130   3.673   2.312   5.349 -0.6222  0.2005  0.6499
 4722TIP3    H214131   3.565   2.261   5.255 -0.1998  0.1913  0.1660
 4723TIP3   OH214132   6.946   3.667   3.863  0.4220  0.0506 -0.0585
 4723TIP3    H114133   6.878   3.672   3.931 -1.4250 -2.0829 -1.5917
 4723TIP3    H214134   7.026   3.646   3.912 -0.4909  0.2447  1.6041
 4724TIP3   OH214135   0.421   6.571   0.658  0.2012 -0.0603  0.7069
 4724TIP3    H114136   0.503   6.524   0.674  0.1429  0.0094  1.1940
 4724TIP3    H214137   0.354   6.520   0.704  0.0046  0.0187  0.5140
 4725TIP3   OH214138   1.846   3.794   5.586 -0.0059 -0.0599  0.0495
 4725TIP3    H114139   1.900   3.812   5.663 -1.5300  0.5291  1.0081
 4725TIP3    H214140   1.864   3.866   5.526  1.0269 -0.4138 -0.0995
 4726TIP3   OH214141   6.986   2.701   1.441  0.5383  0.5946  0.2466
 4726TIP3    H114142   6.950   2.741   1.520  1.5720 -1.1335  1.6804
 4726TIP3    H214143   7.078   2.727   1.441  0.7540 -0.1432  0.1151
 4727TIP3   OH214144   2.967   4.913   3.271 -0.3719 -0.2070 -0.0650
 4727TIP3    H114145   3.003   4.965   3.199 -0.6916  0.9083  0.5716
 4727TIP3    H214146   3.023   4.932   3.346 -0.1516 -1.2263  0.0537
 4728TIP3   OH214147   5.814   0.496   0.210  0.0030 -0.4208  0.1933
 4728TIP3    H114148   5.847   0.582   0.238  1.2580 -0.7118 -0.3582
 4728TIP3    H214149   5.773   0.460   0.289  0.5283  0.1832  0.7604
 4729TIP3   OH214150   0.749   3.204   4.292  0.4629 -0.0091  0.8737
 4729TIP3    H114151   0.676   3.182   4.234 -0.9818  3.4468  1.1184
 4729TIP3    H214152   0.804   3.262   4.239  1.2908 -0.0312  1.6986
 4730TIP3   OH214153   4.771   6.139   4.051 -0.0014 -0.5280  0.1777
 4730TIP3    H114154   4.769   6.060   3.998  2.0704  0.3997 -1.4358
 4730TIP3    H214155   4.856   6.136   4.095  0.5730  1.2455 -0.7109
 4731TIP3   OH214156   3.804   6.093   3.451  0.1144 -0.5165 -0.1914
 4731TIP3    H114157   3.722   6.142   3.452 -0.7065 -1.5594  4.0806
 4731TIP3    H214158   3.778   6.002   3.438  0.7844 -0.6944 -0.3407
 4732TIP3   OH214159   3.611   5.152   0.906 -0.0730  0.4610 -0.4979
 4732TIP3    H114160   3.655   5.117   0.829  2.1329  0.5269  0.6369
 4732TIP3    H214161   3.668   5.223   0.936 -1.2689  0.9458  0.7367
 4733TIP3   OH214162   1.442   6.544   5.786 -0.8285 -0.3650 -0.7341
 4733TIP3    H114163   1.375   6.575   5.846  1.1989 -0.9141  1.9708
 4733TIP3    H214164   1.446   6.450   5.800  1.5718 -0.1568  0.4110
 4734TIP3   OH214165   5.644   0.650   5.768 -0.5887 -0.5548 -0.8842
 4734TIP3    H114166   5.674   0.679   5.854 -0.3221 -1.0523 -0.8061
 4734TIP3    H214167   5.550   0.635   5.779 -0.7581  0.3684 -0.9558
 4735TIP3   OH214168   1.040   4.053   5.210  0.7069 -0.3511 -0.0739
 4735TIP3    H114169   0.952   4.041   5.175  0.1985  1.0902  0.6387
 4735TIP3    H214170   1.027   4.083   5.300  1.8597  1.1670 -0.3609
 4736TIP3   OH214171   6.026   6.501   4.735 -0.7196  0.1030 -0.0203
 4736TIP3    H114172   6.011   6.586   4.692  0.9060  0.3419 -0.1711
 4736TIP3    H214173   5.957   6.495   4.801 -1.5005  1.0508 -0.7082
 4737TIP3   OH214174   5.340   3.750   5.156 -0.4279  0.2562 -0.3363
 4737TIP3    H114175   5.259   3.801   5.153 -0.0151  0.9039 -3.1396
 4737TIP3    H214176   5.340   3.700   5.074  1.5216 -0.5251  0.0760
 4738TIP3   OH214177   4.962   5.837   3.251  0.0752  0.3587  0.4640
 4738TIP3    H114178   4.986   5.917   3.298  1.8145  0.3745 -0.3658
 4738TIP3    H214179   5.024   5.832   3.179 -1.4099 -0.5809 -0.8336
 4739TIP3   OH214180   5.263   0.221   4.632  0.4697  0.0841  0.2282
 4739TIP3    H114181   5.220   0.304   4.653 -2.1262 -1.1828  0.3559
 4739TIP3    H214182   5.204   0.178   4.570  1.9757 -1.4738 -0.2254
 4740TIP3   OH214183   3.055   4.413   0.029  0.7040 -0.5009 -0.2280
 4740TIP3    H114184   3.090   4.329  -0.001  0.1648 -0.7681 -0.1281
 4740TIP3    H214185   3.131   4.460   0.063  0.8980 -1.2612  0.4240
 4741TIP3   OH214186   3.232   3.052   4.470  0.4656  0.1640 -0.3734
 4741TIP3    H114187   3.292   3.019   4.537  0.6661  0.9471 -0.1593
 4741TIP3    H214188   3.178   3.116   4.516  1.5515  1.7770 -1.2363
 4742TIP3   OH214189   4.510   1.058   2.388  0.2704  0.3348 -0.2526
 4742TIP3    H114190   4.448   1.130   2.397  0.2890  0.3646 -0.3580
 4742TIP3    H214191   4.502   1.009   2.470 -1.3457 -0.7972 -1.0397
 4743TIP3   OH214192   1.645   0.332   1.063  0.7389  0.0080 -0.2571
 4743TIP3    H114193   1.619   0.385   0.987 -1.7274 -2.4208 -1.2883
 4743TIP3    H214194   1.577   0.349   1.128 -0.6222 -2.3886 -0.9349
 4744TIP3   OH214195   2.434   5.947   0.066  0.3092 -0.4699 -0.0469
 4744TIP3    H114196   2.433   6.025   0.010  1.9697 -0.4790 -0.1484
 4744TIP3    H214197   2.348   5.947   0.109 -0.5401  0.2065 -1.6496
 4745TIP3   OH214198   3.565   3.654   1.379 -0.3154 -0.2461 -0.7056
 4745TIP3    H114199   3.533   3.646   1.290 -0.4026  2.0029 -0.9397
 4745TIP3    H214200   3.499   3.707   1.424  0.8744  0.6789  0.0201
 4746TIP3   OH214201   5.028   5.586   5.323 -0.4341 -0.6634 -0.1753
 4746TIP3    H114202   4.966   5.535   5.375  0.5082 -1.4107  0.2486
 4746TIP3    H214203   5.030   5.542   5.238 -1.1416 -0.1064 -0.4857
 4747TIP3   OH214204   6.008   0.383   4.284 -0.0232  0.4599  0.7287
 4747TIP3    H114205   5.962   0.465   4.302 -3.8657 -1.4398  0.5106
 4747TIP3    H214206   6.037   0.352   4.369  0.4654  1.4711  0.9459
 4748TIP3   OH214207   2.474   2.491   0.662  0.0494 -0.4937 -0.1536
 4748TIP3    H114208   2.465   2.538   0.745 -0.5754  0.1980 -0.6086
 4748TIP3    H214209   2.549   2.432   0.677  0.7056  0.4687  0.4978
 4749TIP3   OH214210   6.748   6.592   3.610  0.1547  0.1523 -0.0869
 4749TIP3    H114211   6.766   6.686   3.621 -1.7811  0.4074  1.4258
 4749TIP3    H214212   6.821   6.560   3.557  1.8122  2.1500  0.8466
 4750TIP3   OH214213   2.541   2.151   5.334  0.1051  0.1180  0.0920
 4750TIP3    H114214   2.482   2.124   5.264  0.1745 -0.0805  0.1107
 4750TIP3    H214215   2.611   2.199   5.289 -1.1848  2.3087  0.2587
 4751TIP3   OH214216   6.465   2.141   5.834 -0.4951  0.0727 -0.1795
 4751TIP3    H114217   6.382   2.133   5.787 -0.1998 -0.6895 -0.5994
 4751TIP3    H214218   6.444   2.191   5.912 -1.2459  0.3227 -0.5320
 4752TIP3   OH214219   4.452   3.844   5.632 -0.1359  0.0891 -0.3127
 4752TIP3    H114220   4.365   3.807   5.650  0.2780  0.1540  2.1893
 4752TIP3    H214221   4.472   3.816   5.543 -2.9883  0.6522 -1.2363
 4753TIP3   OH214222   0.189   0.522   1.817  0.1587 -0.0561 -0.8301
 4753TIP3    H114223   0.276   0.542   1.785 -0.2836  0.4966 -1.7179
 4753TIP3    H214224   0.176   0.581   1.891  0.6870 -0.4195 -0.4462
 4754TIP3   OH214225   3.135   5.750   4.536  0.1516 -0.0870  0.0258
 4754TIP3    H114226   3.175   5.818   4.481 -0.1184  0.0748  0.0229
 4754TIP3    H214227   3.187   5.672   4.519  0.2590  0.0368 -0.2316
 4755TIP3   OH214228   5.235   3.537   2.123  0.4617 -0.2624  0.0559
 4755TIP3    H114229   5.194   3.623   2.116  0.6936 -0.0651  1.0468
 4755TIP3    H214230   5.248   3.523   2.217  1.0443 -1.0892 -0.1329
 4756TIP3   OH214231   5.724   5.998   4.543  0.2009  0.0208  0.5912
 4756TIP3    H114232   5.711   6.091   4.526  1.4428  0.3366  1.2308
 4756TIP3    H214233   5.795   5.973   4.485 -1.2328 -0.9768 -0.8236
 4757TIP3   OH214234   3.801   5.308   5.582  0.3378 -0.0539  0.0577
 4757TIP3    H114235   3.759   5.245   5.523  1.1868  0.1467 -0.7816
 4757TIP3    H214236   3.774   5.280   5.670  0.3754 -1.3573 -0.3246
 4758TIP3   OH214237   5.027   1.312   4.810 -0.5781 -0.5029 -0.5300
 4758TIP3    H114238   4.998   1.401   4.831  1.2423  0.4609 -1.8459
 4758TIP3    H214239   4.967   1.284   4.741 -1.1156 -0.2924 -0.1633
 4759TIP3   OH214240   4.166   2.831   3.670 -0.3953  0.3181  0.4121
 4759TIP3    H114241   4.215   2.881   3.604 -0.9410 -1.3748 -1.3953
 4759TIP3    H214242   4.083   2.811   3.627 -0.0460 -2.4579  0.8354
 4760TIP3   OH214243   2.529   1.923   0.888  0.3723  0.3484  0.2318
 4760TIP3    H114244   2.522   1.827   0.890  0.8091  0.2944 -0.5218
 4760TIP3    H214245   2.623   1.940   0.882  0.3413  0.8436  1.0740
 4761TIP3   OH214246   0.329   4.042   2.483 -0.1597 -0.1751 -0.4227
 4761TIP3    H114247   0.237   4.066   2.498 -0.1044  2.1833 -2.9433
 4761TIP3    H214248   0.336   4.033   2.388  2.4901  1.2054 -0.4525
 4762TIP3   OH214249   0.984   3.131   3.318 -0.4059  0.4483 -0.3148
 4762TIP3    H114250   1.032   3.195   3.370 -0.1828 -0.1436  0.2255
 4762TIP3    H214251   0.959   3.063   3.381 -0.0299 -0.3408 -0.9985
 4763TIP3   OH214252   1.200   5.728   3.689  0.0898 -0.0163  0.0757
 4763TIP3    H114253   1.254   5.675   3.631 -0.7455  0.8766 -1.5891
 4763TIP3    H214254   1.247   5.811   3.696 -1.1913  0.9254 -1.7351
 4764TIP3   OH214255   6.038   5.915   3.166  0.1203 -0.0012 -0.0050
 4764TIP3    H114256   5.957   5.891   3.210  0.4381 -0.1546  0.5128
 4764TIP3    H214257   6.029   5.880   3.077 -0.7477  0.7668 -0.2270
 4765TIP3   OH214258   5.900   4.433   3.637 -0.2926 -0.4582 -0.1514
 4765TIP3    H114259   5.967   4.499   3.652 -1.9170  1.5938 -1.3646
 4765TIP3    H214260   5.946   4.361   3.595  1.4037  0.2267  0.4657
 4766TIP3   OH214261   6.493   1.831   4.194  0.8279 -0.0034  0.4154
 4766TIP3    H114262   6.511   1.739   4.215  1.7247 -0.0775 -0.6125
 4766TIP3    H214263   6.487   1.833   4.099 -0.2549  0.8288  0.4870
 4767TIP3   OH214264   5.768   2.577   1.371  0.2864 -0.2841  0.1357
 4767TIP3    H114265   5.855   2.538   1.377  0.0512 -0.7284  0.9160
 4767TIP3    H214266   5.780   2.668   1.400  0.5086 -0.3241  0.1672
 4768TIP3   OH214267   0.720   4.870   3.920  0.5033 -0.7311 -0.2466
 4768TIP3    H114268   0.695   4.821   3.842 -0.2179 -3.2298  1.4245
 4768TIP3    H214269   0.815   4.880   3.913  0.3403  0.0463 -1.8923
 4769TIP3   OH214270   0.921   5.428   0.288  0.1184 -0.3952  0.4541
 4769TIP3    H114271   0.950   5.452   0.376 -1.3178 -0.5009  0.9836
 4769TIP3    H214272   0.995   5.379   0.251  0.9930  0.2049  1.3519
 4770TIP3   OH214273   5.339   1.990   2.747  0.3152  0.3533 -0.0537
 4770TIP3    H114274   5.272   2.000   2.815 -0.2113 -1.9261 -0.1645
 4770TIP3    H214275   5.403   2.058   2.767 -0.9212  1.1585  1.3987
 4771TIP3   OH214276   0.519   6.380   4.063  0.0711  0.0171  0.3846
 4771TIP3    H114277   0.585   6.408   4.000 -1.1997  0.3524 -0.8563
 4771TIP3    H214278   0.504   6.287   4.043 -0.2671  0.0997  0.2469
 4772TIP3   OH214279   4.049   1.082   2.354 -0.7969 -0.5014  0.2805
 4772TIP3    H114280   3.986   1.088   2.282 -2.4588  0.9177  1.7371
 4772TIP3    H214281   4.135   1.087   2.312 -1.7129  2.1382 -1.5508
 4773TIP3   OH214282   3.036   1.517   1.474 -0.8252 -0.5642  0.1267
 4773TIP3    H114283   3.099   1.449   1.497  1.6594  0.9222 -1.7369
 4773TIP3    H214284   2.978   1.476   1.410  0.2837 -1.1189 -0.5493
 4774TIP3   OH214285   6.316   2.563   3.326  0.3023 -0.2520  0.8897
 4774TIP3    H114286   6.273   2.632   3.274 -0.0602  1.1029  2.8840
 4774TIP3    H214287   6.246   2.521   3.374  0.5738 -1.8561 -0.0304
 4775TIP3   OH214288   2.095   4.488   5.356  0.0187  0.1918  0.0473
 4775TIP3    H114289   2.091   4.542   5.278 -0.3148 -0.9740 -0.7678
 4775TIP3    H214290   2.046   4.537   5.422  2.0549  2.1681  0.1912
 4776TIP3   OH214291   0.800   2.494   4.221  0.3194 -0.2114 -0.1813
 4776TIP3    H114292   0.821   2.568   4.164  0.3749  0.3278  0.5334
 4776TIP3    H214293   0.871   2.492   4.285  0.8277 -1.4643 -0.7471
 4777TIP3   OH214294   0.031   1.342   2.955 -0.2283  0.6473  0.4403
 4777TIP3    H114295   0.044   1.346   2.860  0.7959  1.4106  0.5965
 4777TIP3    H214296   0.066   1.425   2.987 -0.1339  0.1946  1.5370
 4778TIP3   OH214297   6.259   4.902   4.649 -1.1673 -0.2339 -1.1199
 4778TIP3    H114298   6.260   4.838   4.577  0.5740  0.7845 -2.0853
 4778TIP3    H214299   6.197   4.969   4.621 -0.4342  0.2006 -1.7603
 4779TIP3   OH214300   0.986   4.232   2.429  0.0340  1.1258  0.0235
 4779TIP3    H114301   0.977   4.238   2.334 -1.2474 -1.1345 -0.0718
 4779TIP3    H214302   1.079   4.217   2.443  0.1629  0.9794 -0.9152
 4780TIP3   OH214303   6.502   4.952   5.271 -0.2545 -0.1903 -0.2972
 4780TIP3    H114304   6.588   4.961   5.231  0.5651 -3.1526  0.5329
 4780TIP3    H214305   6.506   5.008   5.349  0.2009  1.1096 -1.2148
 4781TIP3   OH214306   5.729   3.777   3.531  0.2240 -0.2549 -0.2129
 4781TIP3    H114307   5.703   3.869   3.535 -0.5412 -0.3199 -2.1582
 4781TIP3    H214308   5.654   3.729   3.566  1.0119 -0.1500  1.7463
 4782TIP3   OH214309   0.056   4.868   2.253 -0.0486  0.4785 -0.3211
 4782TIP3    H114310  -0.004   4.881   2.327  0.5915  1.9876 -0.0331
 4782TIP3    H214311   0.143   4.870   2.291  0.2624  0.4684 -1.0065
 4783TIP3   OH214312   6.897   5.546   5.618  0.4858 -0.6900 -0.6064
 4783TIP3    H114313   6.906   5.586   5.704  0.3260  0.9695 -1.3207
 4783TIP3    H214314   6.878   5.454   5.636 -0.0622 -0.2700  1.1280
 4784TIP3   OH214315   5.469   3.503   3.460  0.3196 -0.2134 -0.0609
 4784TIP3    H114316   5.462   3.579   3.518 -0.3187  0.4979 -1.0335
 4784TIP3    H214317   5.424   3.433   3.507  0.7595  0.0482  0.7745
 4785TIP3   OH214318   4.139   1.124   5.310  0.4512  0.5998  0.0811
 4785TIP3    H114319   4.054   1.164   5.293  0.2255 -0.5959 -1.8604
 4785TIP3    H214320   4.197   1.159   5.242  1.3954  0.9232  1.0060
 4786TIP3   OH214321   2.081   4.643   4.303 -0.9761 -0.0038  0.6117
 4786TIP3    H114322   2.140   4.615   4.373 -0.0805 -0.4611 -0.3142
 4786TIP3    H214323   2.063   4.564   4.252 -1.1896  0.4334 -0.0035
 4787TIP3   OH214324   6.423   5.332   3.208  0.3860 -0.1797 -0.0081
 4787TIP3    H114325   6.492   5.398   3.209 -0.8139  1.2184  3.0591
 4787TIP3    H214326   6.416   5.303   3.299 -4.4694  1.4021  0.3863
 4788TIP3   OH214327   0.449   5.315   5.571  0.2454  0.4944 -0.6874
 4788TIP3    H114328   0.511   5.356   5.632 -0.4300 -0.3609  0.6167
 4788TIP3    H214329   0.374   5.292   5.625 -0.3163 -0.4466 -1.8269
 4789TIP3   OH214330   4.376   5.884   5.830  0.0914 -0.3256 -0.0672
 4789TIP3    H114331   4.329   5.968   5.836 -1.0496 -0.9685  0.2644
 4789TIP3    H214332   4.441   5.888   5.900  0.7686  0.6968 -0.7124
 4790TIP3   OH214333   0.590   3.728   2.880  0.5231  0.1930 -0.4553
 4790TIP3    H114334   0.582   3.778   2.799  0.8866  1.1711  0.0961
 4790TIP3    H214335   0.503   3.732   2.919  0.2682 -0.5298 -0.9261
 4791TIP3   OH214336   5.717   6.641   2.435  0.4676 -0.0917 -0.1223
 4791TIP3    H114337   5.708   6.733   2.413  0.2169 -0.4934 -1.8003
 4791TIP3    H214338   5.773   6.640   2.513  2.7094  1.3508 -1.6167
 4792TIP3   OH214339   4.368   6.323   4.905 -0.0393 -0.3125 -0.3693
 4792TIP3    H114340   4.390   6.401   4.854 -0.3797  1.2494  1.7134
 4792TIP3    H214341   4.392   6.250   4.849 -0.3002  1.2709 -2.6900
 4793TIP3   OH214342   1.913   4.061   5.078  0.2214  0.0205 -0.4084
 4793TIP3    H114343   1.931   4.155   5.073  1.0538 -0.1738 -1.5755
 4793TIP3    H214344   2.000   4.020   5.068 -0.2428 -0.8738 -0.9216
 4794TIP3   OH214345   0.840   1.290   1.517  0.4653  0.5394  0.3526
 4794TIP3    H114346   0.929   1.284   1.551  0.4617  0.8617  0.4189
 4794TIP3    H214347   0.803   1.202   1.530  0.0521  0.9660  2.3133
 4795TIP3   OH214348   5.569   1.619   4.270 -0.4808 -0.3251 -0.0485
 4795TIP3    H114349   5.519   1.661   4.199 -0.7781 -0.9064 -0.1960
 4795TIP3    H214350   5.504   1.604   4.338 -0.7221 -1.8397 -0.5664
 4796TIP3   OH214351   3.715   5.588   0.815  0.7642  0.0574 -0.4399
 4796TIP3    H114352   3.785   5.562   0.755 -0.3110 -0.3333 -1.5858
 4796TIP3    H214353   3.636   5.587   0.761 -0.3555 -0.8998  1.1297
 4797TIP3   OH214354   5.397   2.391   3.944  0.1391  0.1552  0.0900
 4797TIP3    H114355   5.455   2.320   3.915  0.1939 -0.7050  2.1844
 4797TIP3    H214356   5.438   2.471   3.910  1.4601 -0.5956 -0.1339
 4798TIP3   OH214357   4.757   5.771   1.775  0.1218  0.6957  0.3156
 4798TIP3    H114358   4.713   5.793   1.693  0.0352 -1.1708 -0.1903
 4798TIP3    H214359   4.798   5.686   1.758  1.5365  1.0673  1.6767
 4799TIP3   OH214360   0.872   0.290   3.359  0.1883  0.1404 -0.1098
 4799TIP3    H114361   0.955   0.314   3.399 -0.8437  0.4668  1.9482
 4799TIP3    H214362   0.869   0.194   3.364  2.0748 -0.3212 -3.7840
 4800TIP3   OH214363   3.468   3.806   1.686  0.1890  0.4762  0.1298
 4800TIP3    H114364   3.503   3.718   1.696 -2.3974 -0.7234 -0.3853
 4800TIP3    H214365   3.490   3.831   1.597 -0.5110 -0.4134 -0.3149
 4801TIP3   OH214366   6.419   3.809   1.960  0.0676 -0.3491  0.1932
 4801TIP3    H114367   6.458   3.739   1.909  0.0776 -0.5912  0.5272
 4801TIP3    H214368   6.325   3.801   1.944  0.0539 -0.5524  0.3704
 4802TIP3   OH214369   5.123   4.703  -0.028  0.5608  0.2404  0.1044
 4802TIP3    H114370   5.216   4.695  -0.011  0.6246  0.6809 -0.0231
 4802TIP3    H214371   5.081   4.689   0.058  0.7136 -0.4026  0.0769
 4803TIP3   OH214372   2.646   5.088   2.623 -0.5242 -0.9617  0.4703
 4803TIP3    H114373   2.562   5.050   2.598 -1.7351 -0.3509  3.1893
 4803TIP3    H214374   2.706   5.014   2.627 -0.6259 -1.2922 -2.3484
 4804TIP3   OH214375   3.315   1.830   1.757  0.0886  0.3305 -0.0200
 4804TIP3    H114376   3.326   1.925   1.754  0.7286  0.2427 -2.0591
 4804TIP3    H214377   3.244   1.812   1.695 -0.8142 -0.4600  1.1898
 4805TIP3   OH214378   2.265   6.168   2.450  0.1209  0.0877 -0.0086
 4805TIP3    H114379   2.201   6.218   2.400  0.2203 -0.8536 -1.1464
 4805TIP3    H214380   2.217   6.135   2.526  0.2945  2.6334  1.3025
 4806TIP3   OH214381   1.555   3.533   1.577 -0.2401 -0.1694  0.9139
 4806TIP3    H114382   1.471   3.578   1.587 -1.6730 -1.9966 -1.6609
 4806TIP3    H214383   1.603   3.586   1.512  1.0257  1.2592  2.8796
 4807TIP3   OH214384   7.031   2.198   0.671 -0.8537 -0.3191  0.3734
 4807TIP3    H114385   7.097   2.180   0.738 -2.6548 -2.7605  1.6456
 4807TIP3    H214386   7.060   2.148   0.595 -1.6565 -2.1992  1.2512
 4808TIP3   OH214387   4.857   5.875   0.993 -0.3753  0.1723  0.2765
 4808TIP3    H114388   4.794   5.808   1.019 -0.1640  0.2289  0.9419
 4808TIP3    H214389   4.804   5.940   0.946 -0.9541  0.5793  1.4430
 4809TIP3   OH214390   4.711   6.793   3.562 -0.5983  0.3914  0.2831
 4809TIP3    H114391   4.714   6.711   3.611 -1.7123  1.3114  1.9912
 4809TIP3    H214392   4.799   6.830   3.571 -0.4412 -0.0377  0.5380
 4810TIP3   OH214393   3.669   6.603   2.120 -0.2407  0.7846 -0.1519
 4810TIP3    H114394   3.683   6.684   2.168  2.1444 -0.2908  1.1896
 4810TIP3    H214395   3.689   6.625   2.029 -0.6238  1.9013  0.0213
 4811TIP3   OH214396   5.233   6.531   5.217  0.0483 -0.0434  0.2668
 4811TIP3    H114397   5.277   6.468   5.160  1.1338  1.4028 -0.5584
 4811TIP3    H214398   5.303   6.568   5.271 -0.6660  0.0036  1.1850
 4812TIP3   OH214399   5.312   1.572   0.801 -0.0414  0.1517  0.4997
 4812TIP3    H114400   5.267   1.654   0.783  1.5494  0.8269 -0.6722
 4812TIP3    H214401   5.401   1.598   0.825  0.2103 -1.1838  1.0861
 4813TIP3   OH214402   1.970   3.206   1.298 -0.0158  0.0226 -0.1201
 4813TIP3    H114403   1.952   3.171   1.211  0.4445 -0.9203  0.1417
 4813TIP3    H214404   1.889   3.247   1.325  0.1390  1.2717 -1.4104
 4814TIP3   OH214405   0.987   0.735   2.569 -0.1960 -0.0834 -0.3381
 4814TIP3    H114406   0.932   0.657   2.574 -1.6187  0.7224 -2.1521
 4814TIP3    H214407   1.065   0.707   2.522  0.5160 -0.9968  1.3306
 4815TIP3   OH214408   0.777   0.895   3.680  0.4216  0.4631  0.4802
 4815TIP3    H114409   0.737   0.811   3.704 -0.0925  0.5652 -0.0110
 4815TIP3    H214410   0.861   0.871   3.640 -0.9773 -0.0358 -2.3939
 4816TIP3   OH214411   6.405   0.523   4.602 -0.0888 -0.3622 -0.2301
 4816TIP3    H114412   6.450   0.539   4.684 -0.9552 -0.2619  0.2391
 4816TIP3    H214413   6.317   0.496   4.627 -0.2822 -0.6167 -1.1184
 4817TIP3   OH214414   4.256   4.715   0.560 -0.0828 -0.2733  0.7650
 4817TIP3    H114415   4.204   4.782   0.514  0.8648 -0.0368 -0.0104
 4817TIP3    H214416   4.213   4.633   0.538  0.1552 -0.1329 -0.3237
 4818TIP3   OH214417   6.788   0.811   4.938 -0.1069 -0.0853  0.3171
 4818TIP3    H114418   6.816   0.745   4.876 -1.0093 -0.3391  0.1592
 4818TIP3    H214419   6.778   0.891   4.886  2.1225  0.5132  0.7199
 4819TIP3   OH214420   2.906   5.256   4.003 -0.0533  0.5849  0.2255
 4819TIP3    H114421   2.931   5.290   4.089 -0.5512 -0.2593  0.7134
 4819TIP3    H214422   2.834   5.196   4.021 -1.3888  1.7570 -0.9844
 4820TIP3   OH214423   5.011   5.799   2.703  0.3023  0.5298 -0.1524
 4820TIP3    H114424   5.077   5.828   2.640  0.2107  2.0594  0.3931
 4820TIP3    H214425   4.954   5.875   2.714 -1.1591 -0.5284 -0.0894
 4821TIP3   OH214426   5.974   3.713   0.047  0.2700 -0.3337 -0.0453
 4821TIP3    H114427   6.039   3.671  -0.010 -0.8287 -1.2583 -0.6497
 4821TIP3    H214428   5.905   3.742  -0.012  1.2308  2.9755  0.2669
 4822TIP3   OH214429   3.150   6.739   5.275  0.2722 -0.2424 -0.1303
 4822TIP3    H114430   3.195   6.823   5.286  1.1085 -0.6416 -0.4370
 4822TIP3    H214431   3.078   6.758   5.215  0.1858  0.3478  0.1567
 4823TIP3   OH214432   2.963   0.789   1.557 -0.2020 -0.7548 -0.0921
 4823TIP3    H114433   3.005   0.771   1.473  0.7999 -1.8584  0.5991
 4823TIP3    H214434   3.034   0.821   1.613 -0.8881  0.1306  0.2943
 4824TIP3   OH214435   4.900   5.967   5.475 -0.1971 -0.3383 -0.7177
 4824TIP3    H114436   4.949   5.949   5.554  0.7817 -0.3423 -1.3138
 4824TIP3    H214437   4.810   5.982   5.505 -0.6385 -3.7739  0.1056
 4825TIP3   OH214438   7.186   1.978   5.202 -0.3666  0.8079  0.3891
 4825TIP3    H114439   7.150   1.941   5.122 -0.2703 -1.2718  1.2366
 4825TIP3    H214440   7.259   1.920   5.224  1.5134  3.0343  0.4407
 4826TIP3   OH214441   6.565   1.794   2.725  0.3811 -0.6068  0.0821
 4826TIP3    H114442   6.478   1.829   2.746  0.5555  0.7460 -1.2561
 4826TIP3    H214443   6.626   1.861   2.758  0.9341 -1.5746  1.0749
 4827TIP3   OH214444   0.377   4.262   5.786 -0.2577  0.3296 -0.2244
 4827TIP3    H114445   0.465   4.281   5.752  0.1975 -0.2965  0.5457
 4827TIP3    H214446   0.360   4.332   5.849  0.8826 -0.9817  1.6660
 4828TIP3   OH214447   3.235   5.978   5.231 -0.4286  0.2452  0.2646
 4828TIP3    H114448   3.330   5.973   5.246 -0.5123 -1.3855  0.4169
 4828TIP3    H214449   3.204   6.039   5.298  0.4074  0.1350  0.7734
 4829TIP3   OH214450   0.641   2.362   3.415 -0.0861  0.4050 -0.3649
 4829TIP3    H114451   0.608   2.449   3.438 -0.4873  0.0934  0.2678
 4829TIP3    H214452   0.595   2.340   3.335 -0.5614  0.4597 -0.1133
 4830TIP3   OH214453   5.403   2.458   5.805  0.0380  0.1720  0.2437
 4830TIP3    H114454   5.473   2.518   5.830  0.1263  0.1866 -0.0426
 4830TIP3    H214455   5.419   2.438   5.713 -0.5283  0.4505  0.0786
 4831TIP3   OH214456   6.210   0.703   5.191  0.1839 -0.1973  0.3893
 4831TIP3    H114457   6.140   0.650   5.229  0.4545  0.3152  1.6625
 4831TIP3    H214458   6.280   0.641   5.172  0.9397 -0.2190  2.9028
 4832TIP3   OH214459   0.212   3.287   0.943 -0.6809 -0.2578  0.5144
 4832TIP3    H114460   0.232   3.311   0.852 -0.1276  0.1181  0.7312
 4832TIP3    H214461   0.167   3.203   0.936 -2.3415  0.6358 -0.2483
 4833TIP3   OH214462   1.924   0.712   4.526 -0.2362 -0.2692  0.3843
 4833TIP3    H114463   1.868   0.754   4.591  0.4700 -0.6515  1.2675
 4833TIP3    H214464   1.899   0.753   4.443 -0.1351  1.3062  1.0891
 4834TIP3   OH214465   4.138   3.462   5.850 -0.1207  0.3424 -0.0877
 4834TIP3    H114466   4.193   3.459   5.928  2.0312  1.6334 -1.4531
 4834TIP3    H214467   4.103   3.373   5.841  0.9384 -0.2515  1.4079
 4835TIP3   OH214468   6.018   2.528   1.307 -0.6355  0.2968  0.3296
 4835TIP3    H114469   6.053   2.440   1.317 -0.6860  0.1226 -0.8884
 4835TIP3    H214470   6.094   2.583   1.289 -0.3806  0.8291  2.6538
 4836TIP3   OH214471   5.101   6.725   2.469  0.0725  0.3856  0.1469
 4836TIP3    H114472   5.118   6.745   2.561  1.2316  0.5966 -0.0864
 4836TIP3    H214473   5.146   6.642   2.453 -0.0900  0.3647 -0.2243
 4837TIP3   OH214474   6.417   1.837   0.729  0.1890  0.4833 -0.3140
 4837TIP3    H114475   6.473   1.783   0.673 -1.9365 -2.1682 -0.1211
 4837TIP3    H214476   6.403   1.783   0.807 -2.3748  1.1136 -0.2575
 4838TIP3   OH214477   3.291   2.719   3.912  0.5124 -0.5929 -0.4627
 4838TIP3    H114478   3.217   2.773   3.938 -0.3093 -1.4958 -0.8567
 4838TIP3    H214479   3.368   2.772   3.932 -0.2722  0.9565 -1.4107
 4839TIP3   OH214480   4.701   2.295   1.463 -0.0975  0.2169  0.7687
 4839TIP3    H114481   4.628   2.237   1.481 -1.9977  2.0778 -0.4152
 4839TIP3    H214482   4.684   2.330   1.375  1.1460  2.2037  1.2255
 4840TIP3   OH214483   1.650   2.597   3.962 -0.1900  0.0097  0.0145
 4840TIP3    H114484   1.645   2.504   3.983 -0.2327  0.5611  2.9214
 4840TIP3    H214485   1.574   2.614   3.907 -1.2075 -1.3564  0.9299
 4841TIP3   OH214486   4.511   3.068   5.045  0.2345  0.2626 -0.0144
 4841TIP3    H114487   4.532   3.059   5.138 -1.0057 -1.9725  0.1151
 4841TIP3    H214488   4.594   3.052   5.000  0.6218  0.3270  0.6634
 4842TIP3   OH214489   0.233   0.736   2.869 -0.6576 -0.3132  0.4535
 4842TIP3    H114490   0.266   0.794   2.937 -2.2620 -0.2084  1.1840
 4842TIP3    H214491   0.304   0.674   2.853  0.3167  0.6047  1.1021
 4843TIP3   OH214492   6.086   1.790   0.300  0.5169  0.6311 -0.3724
 4843TIP3    H114493   6.069   1.790   0.395 -0.0978 -2.8036 -0.3412
 4843TIP3    H214494   6.176   1.759   0.293  0.0911 -0.5403 -0.8917
 4844TIP3   OH214495   1.016   5.241   4.626 -0.1741  0.4135 -0.0443
 4844TIP3    H114496   0.931   5.201   4.643  0.4467 -0.8497  0.2723
 4844TIP3    H214497   1.038   5.213   4.537  0.3323 -0.1250  0.2352
 4845TIP3   OH214498   4.343   1.361   0.374 -0.8330 -0.0088  0.5044
 4845TIP3    H114499   4.398   1.438   0.358 -2.6195  1.5594  1.5876
 4845TIP3    H214500   4.362   1.337   0.464  1.4354 -2.3813 -0.4705
 4846TIP3   OH214501   4.986   2.431   1.996 -0.3216  0.5385 -0.1347
 4846TIP3    H114502   4.931   2.353   1.996 -0.6204  0.6455  2.6090
 4846TIP3    H214503   4.925   2.504   1.998 -0.0383  0.8797 -2.0640
 4847TIP3   OH214504   6.205   0.657   0.156 -0.6421  0.4439  0.0646
 4847TIP3    H114505   6.231   0.584   0.101 -1.3965  0.4345 -0.2949
 4847TIP3    H214506   6.190   0.730   0.096 -0.5331  0.7091  0.3517
 4848TIP3   OH214507   6.070   6.012   4.654  0.0185 -0.0930  0.0328
 4848TIP3    H114508   6.156   5.982   4.682  0.0096 -0.9277 -0.7957
 4848TIP3    H214509   6.053   5.966   4.572 -1.2133  0.0712  0.1673
 4849TIP3   OH214510   0.372   2.966   4.447  0.2356  0.0049 -0.4414
 4849TIP3    H114511   0.379   2.872   4.464  1.8250  0.3540  1.0749
 4849TIP3    H214512   0.333   2.971   4.360  1.4827 -2.0809 -1.1903
 4850TIP3   OH214513   3.645   3.266   3.379  0.1130 -0.1534  0.0762
 4850TIP3    H114514   3.634   3.172   3.385 -0.2602 -0.1399 -0.3564
 4850TIP3    H214515   3.735   3.277   3.347  1.2101 -0.2744  2.8312
 4851TIP3   OH214516   3.606   3.506   3.502  0.6025 -0.0391  0.0705
 4851TIP3    H114517   3.518   3.496   3.539  0.8546  0.0487  0.7027
 4851TIP3    H214518   3.632   3.417   3.477 -0.6900  0.2213 -2.5560
 4852TIP3   OH214519   1.702   6.573   3.587 -0.2255  0.1727 -0.0651
 4852TIP3    H114520   1.753   6.519   3.648 -0.1396  0.7559  0.3790
 4852TIP3    H214521   1.623   6.522   3.571  1.1062 -1.5032 -1.9714
 4853TIP3   OH214522   2.531   3.229   2.939  0.0326  0.1482 -0.7220
 4853TIP3    H114523   2.456   3.289   2.940 -2.0724 -2.2943 -1.0180
 4853TIP3    H214524   2.568   3.238   2.851  1.3852  2.7500  0.0149
 4854TIP3   OH214525   5.865   4.302   4.745 -0.1030 -0.3180 -0.0573
 4854TIP3    H114526   5.931   4.258   4.690  0.9506  0.7527  0.3038
 4854TIP3    H214527   5.881   4.267   4.833  2.2668  2.3152  0.6876
 4855TIP3   OH214528   5.448   2.606   5.273  0.8659  0.5932  0.0284
 4855TIP3    H114529   5.522   2.577   5.327  0.5870 -1.4976 -0.6211
 4855TIP3    H214530   5.442   2.540   5.205 -1.1440  1.1580 -0.3837
 4856TIP3   OH214531   3.987   4.859   4.197 -0.1888 -0.2959 -0.7365
 4856TIP3    H114532   4.055   4.817   4.144 -0.5228 -0.0842 -1.3383
 4856TIP3    H214533   3.915   4.875   4.136 -0.7753 -0.4970 -0.1144
 4857TIP3   OH214534   0.140   0.054   4.215 -0.4261  0.2250 -0.1447
 4857TIP3    H114535   0.228   0.083   4.189  0.3170 -0.0565  1.8824
 4857TIP3    H214536   0.141  -0.041   4.199 -0.2403  0.1727  0.1629
 4858TIP3   OH214537   6.468   4.537   5.097 -0.0791  0.4473  0.3416
 4858TIP3    H114538   6.529   4.471   5.131 -0.4246 -0.1755 -0.2236
 4858TIP3    H214539   6.431   4.577   5.175  0.0600 -0.1026  0.6987
 4859TIP3   OH214540   3.587   1.726   5.518 -0.2209  0.4184  0.0707
 4859TIP3    H114541   3.623   1.638   5.510  0.2156  0.5481  0.5329
 4859TIP3    H214542   3.589   1.761   5.429  1.8170  0.8065  0.2253
 4860TIP3   OH214543   0.497   2.391   1.573 -0.0849 -0.0623  0.0377
 4860TIP3    H114544   0.486   2.478   1.533 -0.1807 -0.9703 -2.0190
 4860TIP3    H214545   0.453   2.398   1.658  1.8872  2.5685  0.9783
 4861TIP3   OH214546   4.704   3.002   4.616 -0.3872 -0.3674 -0.0332
 4861TIP3    H114547   4.750   3.055   4.551  3.2396 -1.6403  1.2261
 4861TIP3    H214548   4.619   2.983   4.575  0.4514  1.4611 -2.9881
 4862TIP3   OH214549   0.167   4.590   2.970 -0.2682 -0.2046 -0.0360
 4862TIP3    H114550   0.144   4.572   3.061  2.6079  0.1624  0.8776
 4862TIP3    H214551   0.105   4.538   2.918 -0.8693 -1.8273  2.1660
 4863TIP3   OH214552   6.207   5.984   0.610 -0.6079  0.2805  0.4345
 4863TIP3    H114553   6.137   5.918   0.602  0.3489 -0.7800  0.6263
 4863TIP3    H214554   6.257   5.975   0.530 -0.6310  0.9837  0.3384
 4864TIP3   OH214555   1.059   3.869   2.452 -0.0852  0.2194 -0.3158
 4864TIP3    H114556   1.109   3.790   2.472  0.8233  0.6213 -0.9082
 4864TIP3    H214557   1.109   3.940   2.493 -0.0270  0.6599 -1.1279
 4865TIP3   OH214558   4.383   4.955   3.050 -0.9216 -0.0232  0.2155
 4865TIP3    H114559   4.336   4.978   3.130 -0.8767  2.5359 -0.4011
 4865TIP3    H214560   4.463   5.007   3.053  1.0961 -2.8708  0.3230
 4866TIP3   OH214561   2.453   6.306   4.787  0.0736 -0.6471  0.7893
 4866TIP3    H114562   2.466   6.233   4.727 -1.6114 -0.6462  0.3734
 4866TIP3    H214563   2.443   6.265   4.873 -0.9262 -0.9270  0.5499
 4867TIP3   OH214564   5.561   5.743   3.131 -0.5049 -0.5506  0.2916
 4867TIP3    H114565   5.550   5.656   3.093 -0.7112  0.0516 -1.0678
 4867TIP3    H214566   5.528   5.803   3.064  1.9810  0.7469  0.1193
 4868TIP3   OH214567   4.001   4.760   3.302  0.3565 -0.2891 -0.1931
 4868TIP3    H114568   4.050   4.786   3.380  1.2646  0.7229 -1.0621
 4868TIP3    H214569   4.065   4.713   3.248  0.1359  0.2564 -0.9441
 4869TIP3   OH214570   0.621   6.758   3.349 -0.3690  0.6802  0.7768
 4869TIP3    H114571   0.579   6.794   3.427  2.3765  1.4359  2.0339
 4869TIP3    H214572   0.629   6.664   3.367 -0.1827  0.7772  1.2268
 4870TIP3   OH214573   6.965   3.323   4.374  0.0033 -0.1716 -0.2870
 4870TIP3    H114574   6.996   3.252   4.318 -2.9448  0.8175 -3.5593
 4870TIP3    H214575   6.961   3.400   4.317 -0.4529  1.7268  2.1033
 4871TIP3   OH214576   4.732   5.785   4.881 -0.0483  0.0805 -0.1803
 4871TIP3    H114577   4.690   5.806   4.964  0.0141 -1.3476  0.2328
 4871TIP3    H214578   4.810   5.735   4.905  1.3216  1.7181 -0.9914
 4872TIP3   OH214579   3.364   4.975   2.090 -0.3569 -0.2851 -0.9081
 4872TIP3    H114580   3.450   5.018   2.088 -0.7964  0.6580 -0.2578
 4872TIP3    H214581   3.384   4.882   2.079  0.8092 -0.1584 -0.0926
 4873TIP3   OH214582   6.389   4.359   3.889  0.1472 -0.2119 -0.3331
 4873TIP3    H114583   6.336   4.284   3.916  0.3626  0.1609  1.2245
 4873TIP3    H214584   6.443   4.378   3.965  0.4422  1.2309 -0.8771
 4874TIP3   OH214585   1.950   0.025   3.187  0.5834 -0.5828 -0.0586
 4874TIP3    H114586   1.886   0.074   3.135 -0.2325 -1.3925  0.1367
 4874TIP3    H214587   1.897  -0.038   3.236  1.2921  0.2889  1.9439
 4875TIP3   OH214588   1.373   0.588   4.962  0.1142 -0.3015  0.3050
 4875TIP3    H114589   1.461   0.627   4.961 -0.0379  0.0430 -0.5372
 4875TIP3    H214590   1.317   0.654   5.001  0.5072 -1.2058  2.5465
 4876TIP3   OH214591   2.949   1.215   0.265  0.5517 -0.4013  0.3913
 4876TIP3    H114592   2.941   1.300   0.308 -0.2994 -0.4033  0.2479
 4876TIP3    H214593   2.975   1.155   0.334 -1.0401 -0.4547  0.9729
 4877TIP3   OH214594   1.114   3.459   1.216  0.1867  0.3689  0.7340
 4877TIP3    H114595   1.184   3.459   1.281 -0.2202  0.2879  1.1764
 4877TIP3    H214596   1.036   3.483   1.265 -0.3047 -0.6632  0.4740
 4878TIP3   OH214597   2.789   4.986   4.911  0.1960 -0.8596  0.0711
 4878TIP3    H114598   2.712   4.950   4.956 -0.7569 -0.5586 -1.2516
 4878TIP3    H214599   2.783   4.951   4.822  1.0193  0.0112 -0.3403
 4879TIP3   OH214600   6.812   1.181   5.480  0.0895 -0.2345  0.6094
 4879TIP3    H114601   6.847   1.220   5.560 -0.6151  0.2430  0.6877
 4879TIP3    H214602   6.804   1.254   5.419  0.9265 -0.6464 -0.0208
 4880TIP3   OH214603   7.228   1.272   1.456  0.0427 -0.0086 -0.0295
 4880TIP3    H114604   7.227   1.366   1.437  0.6065  0.1260  0.5708
 4880TIP3    H214605   7.147   1.257   1.505  0.1540  0.2510  0.2395
 4881TIP3   OH214606   6.834   3.807   4.767 -0.2755 -0.7437 -0.7826
 4881TIP3    H114607   6.868   3.830   4.680  1.3181  1.4418  0.3341
 4881TIP3    H214608   6.913   3.788   4.818 -0.9169  1.0518  0.9811
 4882TIP3   OH214609   4.490   4.976   3.755 -0.5880  0.4663 -0.0273
 4882TIP3    H114610   4.550   5.018   3.816  0.5181 -1.1617  0.0519
 4882TIP3    H214611   4.538   4.972   3.672 -0.7913 -0.3279 -0.1202
 4883TIP3   OH214612   4.621   0.275   4.431  0.8618 -0.1322  0.3588
 4883TIP3    H114613   4.544   0.308   4.475  0.9840 -0.3603  0.7498
 4883TIP3    H214614   4.630   0.185   4.463  1.3464 -0.0738  0.3929
 4884TIP3   OH214615   5.323   1.252   3.856 -0.4076  0.1175  0.2531
 4884TIP3    H114616   5.283   1.211   3.933  0.9579 -0.1812  0.8249
 4884TIP3    H214617   5.410   1.213   3.850  0.0468  1.2012 -0.5940
 4885TIP3   OH214618   1.284   5.874   4.578 -0.5007 -0.2298 -0.3511
 4885TIP3    H114619   1.264   5.861   4.485 -1.4320  0.8751 -0.3284
 4885TIP3    H214620   1.207   5.841   4.624 -0.1755 -0.4779  0.0244
 4886TIP3   OH214621   1.377   0.586   0.574  0.2439 -0.1888  0.3286
 4886TIP3    H114622   1.400   0.542   0.656 -0.2756 -1.3545 -0.1281
 4886TIP3    H214623   1.403   0.525   0.505 -1.3421 -0.2246 -0.2928
 4887TIP3   OH214624   4.408   2.752   5.523  0.1170  0.0467 -0.0785
 4887TIP3    H114625   4.399   2.672   5.574 -2.6095  0.8009  0.7775
 4887TIP3    H214626   4.464   2.808   5.577  0.5391 -0.5941  0.1718
 4888TIP3   OH214627   3.754   1.358   0.585  0.5483  0.2878 -0.0440
 4888TIP3    H114628   3.809   1.354   0.506  0.7032 -0.6690  0.1055
 4888TIP3    H214629   3.746   1.451   0.603 -1.5082  0.7153 -2.6161
 4889TIP3   OH214630   4.917   1.311   0.227 -0.6703 -0.2748  0.6705
 4889TIP3    H114631   4.825   1.309   0.200 -0.5420 -1.2512  0.2595
 4889TIP3    H214632   4.946   1.220   0.222  0.6719  0.1651 -0.4316
 4890TIP3   OH214633   3.738   5.780   3.471  0.0199  0.3095 -0.2057
 4890TIP3    H114634   3.731   5.736   3.556  0.6819 -0.0536 -0.3293
 4890TIP3    H214635   3.826   5.759   3.441  0.7900  2.6404  0.2303
 4891TIP3   OH214636   3.585   3.524   4.881 -0.2070  0.2009  0.2799
 4891TIP3    H114637   3.659   3.503   4.939 -0.6676 -1.5351  0.3048
 4891TIP3    H214638   3.623   3.524   4.793 -0.1812 -0.8531  0.2773
 4892TIP3   OH214639   5.262   1.207   3.533 -0.3640  0.1511 -0.5513
 4892TIP3    H114640   5.212   1.149   3.475 -0.7463  1.1621 -1.2514
 4892TIP3    H214641   5.213   1.207   3.615 -0.3424 -0.5253 -0.5281
 4893TIP3   OH214642   1.072   0.276   0.769  0.1225 -0.3387 -0.1125
 4893TIP3    H114643   1.102   0.187   0.788  0.4638 -0.0856  0.5285
 4893TIP3    H214644   0.978   0.266   0.753  0.1617 -0.8168 -0.0642
 4894TIP3   OH214645   3.087   2.338   4.168  0.3878 -0.3296 -0.0675
 4894TIP3    H114646   3.172   2.293   4.173  0.0802 -0.8135  1.4230
 4894TIP3    H214647   3.083   2.372   4.079  2.8222  1.0432  0.2678
 4895TIP3   OH214648   1.231   2.249   1.801 -0.2320 -0.2827 -0.1842
 4895TIP3    H114649   1.287   2.174   1.821 -1.8372 -1.9065 -1.4596
 4895TIP3    H214650   1.177   2.261   1.879 -0.6213 -1.0999 -0.3178
 4896TIP3   OH214651   7.046   5.937   0.664 -0.2168 -0.2150 -0.3949
 4896TIP3    H114652   7.113   6.005   0.667 -0.2051 -0.2485  2.2989
 4896TIP3    H214653   6.968   5.981   0.630  0.0134  0.9703  0.5423
 4897TIP3   OH214654   7.099   1.150   0.030 -0.3815  0.0683 -1.0655
 4897TIP3    H114655   7.166   1.085   0.011  0.1537  0.1067  0.4709
 4897TIP3    H214656   7.030   1.134  -0.033 -0.8243 -2.7964 -0.0012
 4898TIP3   OH214657   3.684   5.077   3.621 -0.4456 -0.5092  0.6168
 4898TIP3    H114658   3.592   5.054   3.637 -0.5841  0.3013  1.0227
 4898TIP3    H214659   3.680   5.152   3.562 -0.0286 -0.5775  0.4958
 4899TIP3   OH214660   1.427   6.357   2.724  0.4044 -0.0644 -0.2499
 4899TIP3    H114661   1.376   6.392   2.651  0.2678 -0.9005 -0.5786
 4899TIP3    H214662   1.433   6.429   2.787  0.1829  0.5438 -0.9105
 4900TIP3   OH214663   6.653   2.581   5.626  0.0307 -0.7122 -0.1941
 4900TIP3    H114664   6.625   2.560   5.537 -0.7134 -1.2689  0.1628
 4900TIP3    H214665   6.648   2.677   5.631 -0.6165 -0.7250 -0.5318
 4901TIP3   OH214666   6.450   0.706   1.232 -0.2514 -0.3031  0.8385
 4901TIP3    H114667   6.421   0.771   1.167  0.8479  1.4022  1.9538
 4901TIP3    H214668   6.545   0.703   1.221 -0.3094 -1.9999  0.6062
 4902TIP3   OH214669   2.720   3.090   3.627  0.2699 -0.2256 -0.2495
 4902TIP3    H114670   2.723   3.183   3.605  1.2847  0.2475  1.7026
 4902TIP3    H214671   2.758   3.046   3.552  0.4823  0.9924 -0.8765
 4903TIP3   OH214672   2.018   5.150   1.146 -0.4945  0.6650 -0.0683
 4903TIP3    H114673   2.081   5.123   1.213  0.3216  1.6070 -0.4386
 4903TIP3    H214674   2.063   5.137   1.063 -1.7176 -1.0878 -0.5278
 4904TIP3   OH214675   2.384   4.580   1.025  0.3278 -0.8578 -0.1297
 4904TIP3    H114676   2.444   4.630   1.079  2.2972  1.3182 -3.9808
 4904TIP3    H214677   2.417   4.490   1.030  1.4408 -0.4190  0.8863
 4905TIP3   OH214678   5.088   6.716   4.607 -0.1821 -0.0174  0.7602
 4905TIP3    H114679   5.012   6.679   4.562  0.3568  1.4835 -1.5619
 4905TIP3    H214680   5.066   6.809   4.619  1.0308  0.3122  0.5965
 4906TIP3   OH214681   2.179   1.676   2.620  0.0413 -0.0099  0.3412
 4906TIP3    H114682   2.163   1.633   2.704  0.2294 -0.9165 -0.0790
 4906TIP3    H214683   2.149   1.766   2.634 -2.1014 -0.7107  0.6885
 4907TIP3   OH214684   2.958   4.352   4.786 -0.5278  0.0927  0.0847
 4907TIP3    H114685   3.034   4.404   4.761 -1.4987  0.6547 -1.8938
 4907TIP3    H214686   2.994   4.266   4.810  0.7448  0.4227 -0.5945
 4908TIP3   OH214687   2.695   0.595   1.789 -0.1097  0.4381  0.2695
 4908TIP3    H114688   2.717   0.623   1.878 -0.4571 -0.6837  0.7261
 4908TIP3    H214689   2.678   0.676   1.742  1.3421  1.1353  0.8723
 4909TIP3   OH214690   5.273   1.665   5.786 -0.1058 -0.1157 -0.0056
 4909TIP3    H114691   5.280   1.581   5.741 -0.7479 -0.4718  0.5443
 4909TIP3    H214692   5.364   1.688   5.807  0.0106 -1.1659  0.7140
 4910TIP3   OH214693   5.698   5.203   5.021 -0.2745  0.1636  0.1171
 4910TIP3    H114694   5.711   5.185   4.928 -0.1743  1.6701 -0.1823
 4910TIP3    H214695   5.703   5.299   5.028 -2.6792  0.2939  1.2922
 4911TIP3   OH214696   2.501   1.077   3.977 -0.4273 -0.0573 -0.7452
 4911TIP3    H114697   2.508   1.003   4.038  0.2762 -0.1936 -0.9849
 4911TIP3    H214698   2.591   1.095   3.951 -0.7385 -0.1185 -1.8969
 4912TIP3   OH214699   2.110   3.738   0.631  0.2058  0.1182  0.2352
 4912TIP3    H114700   2.168   3.707   0.700 -0.6934 -0.3337  0.7956
 4912TIP3    H214701   2.069   3.659   0.596 -0.4444  0.4714  0.1772
 4913TIP3   OH214702   3.182   6.550   4.155 -0.3659  0.2473 -0.0504
 4913TIP3    H114703   3.260   6.566   4.102  0.3045 -0.1583  0.8056
 4913TIP3    H214704   3.131   6.487   4.104 -0.2965  0.7638 -0.7655
 4914TIP3   OH214705   1.900   4.239   3.212  0.4635  0.3723 -0.1332
 4914TIP3    H114706   1.927   4.281   3.294  0.0371 -0.0320  0.2199
 4914TIP3    H214707   1.927   4.148   3.222  0.7355  0.4030 -0.5953
 4915TIP3   OH214708   5.960   2.922   0.537  0.0999  0.3820  0.8810
 4915TIP3    H114709   5.911   2.936   0.618  1.6143  0.3957  1.8301
 4915TIP3    H214710   6.052   2.930   0.562  0.7015 -1.4409 -0.4678
 4916TIP3   OH214711   2.534   1.642   0.890  0.1031 -0.2635  0.2260
 4916TIP3    H114712   2.515   1.596   0.808  1.0896 -1.3981  0.6010
 4916TIP3    H214713   2.628   1.660   0.886 -0.2390  1.6543  0.1548
 4917TIP3   OH214714   2.834   4.481   0.184  0.0536  0.0785  0.4069
 4917TIP3    H114715   2.911   4.466   0.130 -1.6376  0.0167 -2.1496
 4917TIP3    H214716   2.792   4.395   0.189  1.0111 -0.3359  3.3783
 4918TIP3   OH214717   3.546   0.788   5.751 -0.8467  0.0622  0.0342
 4918TIP3    H114718   3.501   0.812   5.832 -2.0899  0.8087 -0.8298
 4918TIP3    H214719   3.578   0.699   5.766 -0.5003  0.4043  1.5472
 4919TIP3   OH214720   6.039   0.937   2.744 -0.4144  0.2029  0.2075
 4919TIP3    H114721   6.030   0.857   2.796  1.2972  0.6957  1.3459
 4919TIP3    H214722   5.976   0.998   2.783  0.3486  0.3328  1.2837
 4920TIP3   OH214723   5.783   0.126   1.221  0.2681 -0.0611 -0.2254
 4920TIP3    H114724   5.812   0.214   1.243  0.5752 -0.2435  0.1102
 4920TIP3    H214725   5.857   0.069   1.244  0.9642 -0.1957 -2.4630
 4921TIP3   OH214726   0.121   5.527   4.155  0.1251 -0.5945 -0.0336
 4921TIP3    H114727   0.056   5.572   4.102 -1.5985 -1.0482  1.5911
 4921TIP3    H214728   0.205   5.546   4.112 -0.8912  1.2986 -1.3104
 4922TIP3   OH214729   2.953   6.082   0.794 -0.3802  0.0069  0.0063
 4922TIP3    H114730   2.965   6.099   0.701 -0.3948 -1.2758 -0.2453
 4922TIP3    H214731   2.943   6.169   0.833  3.0556  0.8618 -0.6632
 4923TIP3   OH214732   4.267   6.429   3.442 -0.7389 -0.1668 -0.2721
 4923TIP3    H114733   4.309   6.506   3.481 -1.4417 -0.2779  0.7454
 4923TIP3    H214734   4.336   6.389   3.388  0.9739 -1.1821  2.4737
 4924TIP3   OH214735   1.628   3.480   2.302 -0.0728  0.5342  0.1749
 4924TIP3    H114736   1.558   3.510   2.359 -0.0688  0.4923  0.2017
 4924TIP3    H214737   1.624   3.539   2.226 -0.6517  0.0371 -0.1941
 4925TIP3   OH214738   1.994   0.544   5.626 -0.0443  0.2624  0.1501
 4925TIP3    H114739   1.925   0.611   5.619  1.0843  1.5710  0.9625
 4925TIP3    H214740   1.953   0.473   5.675 -1.2168  0.4109 -0.5534
 4926TIP3   OH214741   5.809   3.478   2.110  0.3994  0.0366  0.1668
 4926TIP3    H114742   5.758   3.425   2.171 -0.6060 -0.0663 -0.7520
 4926TIP3    H214743   5.746   3.508   2.045  1.5893 -0.5789 -1.3293
 4927TIP3   OH214744   2.056   3.745   2.317  0.2438  0.3739 -0.6668
 4927TIP3    H114745   2.069   3.744   2.222  2.2433  1.1583 -0.4503
 4927TIP3    H214746   2.032   3.655   2.339  0.6896 -0.0458 -1.8161
 4928TIP3   OH214747   2.837   4.871   2.675 -0.2253  0.3205  0.0408
 4928TIP3    H114748   2.836   4.877   2.771 -0.5449 -1.0974  0.1458
 4928TIP3    H214749   2.923   4.837   2.654  0.4667  2.1706 -0.3242
 4929TIP3   OH214750   2.886   4.434   3.792 -0.0639  0.0492  0.3379
 4929TIP3    H114751   2.963   4.392   3.829 -0.8397 -1.7972 -0.0640
 4929TIP3    H214752   2.920   4.513   3.750  1.8391 -1.4030 -1.0336
 4930TIP3   OH214753   6.907   2.443   0.937 -0.0168 -0.3475 -0.1223
 4930TIP3    H114754   6.932   2.463   0.847  1.8392 -1.4769  0.0965
 4930TIP3    H214755   6.884   2.529   0.975  1.4727  0.4834 -1.0073
 4931TIP3   OH214756   3.124   4.392   3.598  0.0093  0.0239 -0.3036
 4931TIP3    H114757   3.048   4.396   3.657  0.0718 -0.6648 -0.1680
 4931TIP3    H214758   3.128   4.479   3.558  0.5331  0.8254  1.4006
 4932TIP3   OH214759   0.929   6.044   5.583  0.1746 -0.7028 -0.2819
 4932TIP3    H114760   0.985   5.984   5.532  0.9122 -1.1699  1.0340
 4932TIP3    H214761   0.897   5.991   5.656 -0.1854  0.1749  0.2129
 4933TIP3   OH214762   0.788   1.309   3.521 -0.1753 -0.3614 -0.6918
 4933TIP3    H114763   0.738   1.235   3.555  1.5533 -1.9908 -1.4971
 4933TIP3    H214764   0.795   1.369   3.595 -1.4653 -1.0655  0.0432
 4934TIP3   OH214765   5.665   5.497   1.722 -0.4752 -0.3026 -0.3605
 4934TIP3    H114766   5.643   5.404   1.731 -1.1966  0.0465  2.4986
 4934TIP3    H214767   5.583   5.538   1.696 -0.4195 -0.3361 -0.5897
 4935TIP3   OH214768   5.790   0.384   1.917 -0.0591  0.0834  0.5215
 4935TIP3    H114769   5.729   0.456   1.901 -1.1501 -0.8390  0.3635
 4935TIP3    H214770   5.774   0.359   2.008 -0.2780 -0.4762  0.3366
 4936TIP3   OH214771   0.612   3.634   1.810  0.0176 -0.2837  0.1376
 4936TIP3    H114772   0.528   3.642   1.765  0.7715  0.6533 -1.2057
 4936TIP3    H214773   0.622   3.717   1.857  1.1632  0.6163 -1.5742
 4937TIP3   OH214774   3.969   5.122   1.368  0.3430 -0.2300 -0.2779
 4937TIP3    H114775   3.931   5.131   1.281 -0.4655  2.3017  0.2422
 4937TIP3    H214776   4.043   5.184   1.368  0.6799 -0.6074  0.6642
 4938TIP3   OH214777   6.359   6.023   4.287 -0.2111  0.2745  0.1101
 4938TIP3    H114778   6.353   6.091   4.354  2.2075  0.0673  0.6398
 4938TIP3    H214779   6.291   6.045   4.224 -0.5300  2.2627  1.0680
 4939TIP3   OH214780   3.768   0.610   5.067 -0.0382  0.2234  0.4670
 4939TIP3    H114781   3.762   0.629   4.973 -1.7258 -0.5297  0.3810
 4939TIP3    H214782   3.802   0.691   5.106 -0.3292  0.9215 -0.6795
 4940TIP3   OH214783   1.888   0.390   1.608  0.2876 -0.1748 -0.3634
 4940TIP3    H114784   1.842   0.310   1.583  0.3177 -0.1436 -0.5186
 4940TIP3    H214785   1.837   0.425   1.681  0.3177 -0.3761 -0.2436
 4941TIP3   OH214786   1.437   6.321   2.195  0.2181 -0.9269 -0.1753
 4941TIP3    H114787   1.472   6.233   2.211 -1.8642 -1.7113  0.4627
 4941TIP3    H214788   1.412   6.352   2.282 -0.6105 -0.4202 -0.5836
 4942TIP3   OH214789   2.663   6.507   3.416  0.0111  0.0741 -0.2577
 4942TIP3    H114790   2.660   6.547   3.503 -1.6471  1.3079 -0.8350
 4942TIP3    H214791   2.730   6.557   3.370  1.8547 -1.4325  0.6415
 4943TIP3   OH214792   5.436   5.851   2.219  0.4896  0.6432  0.3698
 4943TIP3    H114793   5.517   5.855   2.271  1.3282 -0.4658 -0.7692
 4943TIP3    H214794   5.460   5.889   2.135  0.4230 -1.4283 -0.6463
 4944TIP3   OH214795   5.054   5.492   4.000  0.2212 -0.0319 -0.7270
 4944TIP3    H114796   5.074   5.470   4.091 -0.4748 -1.6569 -0.9390
 4944TIP3    H214797   4.959   5.493   3.996  0.1911 -2.0033 -1.8454
 4945TIP3   OH214798   4.839   2.504   4.547  0.1910  0.4086  0.2568
 4945TIP3    H114799   4.933   2.510   4.529 -0.0044  0.8857 -0.6585
 4945TIP3    H214800   4.798   2.563   4.484 -0.7987 -0.4851  0.0238
 4946TIP3   OH214801   5.419   3.904   5.737 -0.4053 -0.3610 -0.2202
 4946TIP3    H114802   5.451   3.888   5.648 -0.9011  0.6820 -0.6009
 4946TIP3    H214803   5.477   3.973   5.771 -0.3988 -0.5513  0.1608
 4947TIP3   OH214804   6.964   1.446   0.004 -0.2118 -0.0309  0.3066
 4947TIP3    H114805   7.040   1.414   0.052 -0.0373  1.8575  1.3841
 4947TIP3    H214806   6.896   1.455   0.071 -1.0133 -0.5339 -0.4273
 4948TIP3   OH214807   5.957   1.307   1.781 -0.0189 -0.6418  0.1040
 4948TIP3    H114808   5.976   1.381   1.839 -0.5142 -0.6203  0.2459
 4948TIP3    H214809   5.967   1.342   1.693 -3.3869  0.5479  0.0379
 4949TIP3   OH214810   0.838   6.135   5.864 -0.6462 -0.0751  0.0929
 4949TIP3    H114811   0.841   6.041   5.882  1.0038  0.0762  0.8052
 4949TIP3    H214812   0.772   6.144   5.796  0.2358 -1.9701 -1.1147
 4950TIP3   OH214813   1.461   1.389   4.005 -0.0862 -0.0985 -0.0130
 4950TIP3    H114814   1.391   1.324   4.010 -2.2854  2.0955 -0.3584
 4950TIP3    H214815   1.437   1.444   3.930  2.0224  0.7710 -0.1195
 4951TIP3   OH214816   3.510   0.586   0.346  0.3556  0.3935  0.0739
 4951TIP3    H114817   3.425   0.564   0.307  1.7832 -1.7303 -2.1446
 4951TIP3    H214818   3.505   0.550   0.435 -0.8345 -0.2448 -0.2269
 4952TIP3   OH214819   0.586   3.067   3.300  0.4283 -0.7397 -0.0398
 4952TIP3    H114820   0.631   3.033   3.224  3.5945  1.0242  0.8462
 4952TIP3    H214821   0.605   3.161   3.299 -1.2396 -0.3116  1.7809
 4953TIP3   OH214822   5.356   3.219   5.538 -0.3400 -0.4848 -0.3432
 4953TIP3    H114823   5.353   3.131   5.577 -2.0431  0.3303  1.5187
 4953TIP3    H214824   5.340   3.203   5.444 -0.5300 -2.1560 -0.0652
 4954TIP3   OH214825   5.800   5.806   2.087  0.1135 -0.0409  0.0865
 4954TIP3    H114826   5.752   5.822   2.006  1.3474 -1.6612 -1.0333
 4954TIP3    H214827   5.753   5.733   2.129 -0.2784  0.5205  0.6423
 4955TIP3   OH214828   7.044   3.355   4.009  0.0742  0.7266 -0.8920
 4955TIP3    H114829   6.993   3.419   4.058  0.8840 -0.4852  1.7100
 4955TIP3    H214830   6.978   3.300   3.966 -0.9091 -0.1861  1.5773
 4956TIP3   OH214831   1.345   6.221   1.319 -0.1504 -0.4996 -0.1589
 4956TIP3    H114832   1.398   6.241   1.242  0.4559 -0.2732  0.3217
 4956TIP3    H214833   1.266   6.181   1.282 -0.4049  0.6999 -0.9829
 4957TIP3   OH214834   5.061   0.282   4.900  0.2585  0.2066 -0.0042
 4957TIP3    H114835   5.081   0.233   4.980 -0.0984 -0.0390 -0.0593
 4957TIP3    H214836   5.085   0.372   4.921  1.0257 -0.0095  0.0594
 4958TIP3   OH214837   3.872   1.975   4.391  0.2430  0.3953 -0.0440
 4958TIP3    H114838   3.798   1.943   4.338  0.0478  0.3926  0.2256
 4958TIP3    H214839   3.855   1.939   4.478 -0.7022  2.2832  0.6114
 4959TIP3   OH214840   7.120   6.128   1.108  0.1911  0.4268 -0.0253
 4959TIP3    H114841   7.114   6.209   1.159  1.9832 -0.7357  2.1798
 4959TIP3    H214842   7.070   6.064   1.159  1.8997 -0.7316  0.2701
 4960TIP3   OH214843   0.727   4.581   2.990 -0.5609 -0.3289 -0.1785
 4960TIP3    H114844   0.730   4.606   2.898 -1.3779 -0.6688 -0.3014
 4960TIP3    H214845   0.639   4.548   3.003 -0.2687 -0.8323  0.5819
 4961TIP3   OH214846   4.397   2.547   1.887 -0.3136 -0.5220  0.5074
 4961TIP3    H114847   4.441   2.486   1.828 -0.2317 -0.8972  0.9532
 4961TIP3    H214848   4.308   2.554   1.854 -0.5714 -1.5466  0.9424
 4962TIP3   OH214849   6.238   1.169   2.123 -0.5810 -0.1543  0.1070
 4962TIP3    H114850   6.257   1.176   2.217 -0.3507  0.6327  0.0082
 4962TIP3    H214851   6.143   1.186   2.117 -0.8081 -1.2857  0.3027
 4963TIP3   OH214852   5.917   0.366   5.205 -0.8122 -0.0265 -0.0753
 4963TIP3    H114853   5.997   0.339   5.252 -0.5193  0.5343 -0.2422
 4963TIP3    H214854   5.932   0.458   5.184 -2.2588  0.6200  1.4850
 4964TIP3   OH214855   2.241   4.610   1.511 -0.1385 -0.1081 -0.1427
 4964TIP3    H114856   2.242   4.703   1.486 -0.8753 -0.4056 -1.4148
 4964TIP3    H214857   2.294   4.605   1.590  0.6428  1.2620 -0.5533
 4965TIP3   OH214858   0.915   1.363   5.035 -0.1503 -0.4222 -0.0951
 4965TIP3    H114859   0.850   1.317   4.981  0.0850 -0.4063 -0.3997
 4965TIP3    H214860   0.928   1.447   4.991  0.0930 -0.4354 -0.0495
 4966TIP3   OH214861   4.382   6.383   1.214  0.4096  0.1058 -0.5293
 4966TIP3    H114862   4.356   6.473   1.235  1.3299  0.5663 -1.2673
 4966TIP3    H214863   4.410   6.346   1.298 -2.0828 -0.2743  0.2220
 4967TIP3   OH214864   6.652   3.073   1.790 -0.7520  0.3377 -0.3084
 4967TIP3    H114865   6.580   3.031   1.838  0.0104 -1.7590 -0.8613
 4967TIP3    H214866   6.697   3.000   1.747  0.9976  1.7193 -0.9405
 4968TIP3   OH214867   0.718   3.923   0.343 -0.0792  0.5875  0.4396
 4968TIP3    H114868   0.716   3.853   0.278 -1.1160  1.9693 -1.0845
 4968TIP3    H214869   0.752   3.999   0.296 -1.1401  1.6983  1.4202
 4969TIP3   OH214870   2.276   2.711   1.729  0.1266  0.8594 -0.1423
 4969TIP3    H114871   2.206   2.777   1.723  0.1083  1.0089  1.3193
 4969TIP3    H214872   2.236   2.639   1.777  0.1333 -0.2934 -1.7783
 4970TIP3   OH214873   1.130   6.498   5.159 -0.0901 -0.1538  0.1053
 4970TIP3    H114874   1.178   6.523   5.080  1.0550 -0.6700  0.6298
 4970TIP3    H214875   1.105   6.582   5.198  0.0331  0.1166 -0.3850
 4971TIP3   OH214876   1.785   2.125   5.613 -0.4153 -0.3020 -0.0885
 4971TIP3    H114877   1.880   2.124   5.617 -0.1926  1.7339 -2.4902
 4971TIP3    H214878   1.757   2.173   5.691  0.7713  2.0087 -1.0053
 4972TIP3   OH214879   4.198   1.324   3.981 -0.0913  0.2358  0.1672
 4972TIP3    H114880   4.259   1.335   4.054 -2.1176 -0.4310  2.1040
 4972TIP3    H214881   4.249   1.279   3.914  1.3854 -0.9374  1.9527
 4973TIP3   OH214882   5.885   2.192   4.973  0.4170 -0.7616  0.3331
 4973TIP3    H114883   5.870   2.283   5.000 -1.2420 -0.7261 -0.5413
 4973TIP3    H214884   5.951   2.198   4.904  0.4039 -0.2359  0.3631
 4974TIP3   OH214885   6.247   4.364   5.296  0.1532  0.3963 -0.1914
 4974TIP3    H114886   6.222   4.386   5.206  1.3692  0.9144 -0.4204
 4974TIP3    H214887   6.166   4.332   5.336  0.0047 -1.7851 -2.0304
 4975TIP3   OH214888   4.224   3.164   2.675  0.3741 -0.4867  0.0867
 4975TIP3    H114889   4.300   3.179   2.618  1.6518 -2.3132  1.1829
 4975TIP3    H214890   4.202   3.251   2.708  0.9879  0.3056 -1.4577
 4976TIP3   OH214891   5.454   6.386   3.212  0.7263 -0.4874 -0.0831
 4976TIP3    H114892   5.501   6.467   3.192  2.5997 -1.6227 -0.4561
 4976TIP3    H214893   5.471   6.372   3.305 -0.8324  0.2687  0.3571
 4977TIP3   OH214894   7.037   2.181   5.626  0.0167 -0.0043  0.3801
 4977TIP3    H114895   7.128   2.210   5.637 -0.1633  2.5899 -3.2283
 4977TIP3    H214896   6.984   2.256   5.653 -0.9238 -0.4253 -0.2425
 4978TIP3   OH214897   5.288   4.138   0.067 -0.4375 -0.2000 -0.5122
 4978TIP3    H114898   5.372   4.154   0.110 -1.0468  1.0687  0.2462
 4978TIP3    H214899   5.251   4.225   0.053 -2.4470 -0.7554  0.8415
 4979TIP3   OH214900   2.623   0.635   0.115 -0.7510  0.0863  0.9522
 4979TIP3    H114901   2.667   0.689   0.180  1.9670  0.7739 -1.2375
 4979TIP3    H214902   2.685   0.564   0.097 -1.4485 -0.1374 -0.7868
 4980TIP3   OH214903   4.531   5.529   5.587  0.2225  0.1043  0.1750
 4980TIP3    H114904   4.485   5.459   5.540  0.6012 -0.2148  0.2725
 4980TIP3    H214905   4.465   5.598   5.597  0.5263  0.7985 -2.1156
 4981TIP3   OH214906   6.349   1.711   4.750 -0.3538 -0.2162 -0.0510
 4981TIP3    H114907   6.296   1.705   4.830 -1.9991 -1.4988 -1.1553
 4981TIP3    H214908   6.387   1.624   4.740 -1.3251 -0.5129 -1.3828
 4982TIP3   OH214909   0.666   2.630   3.448  0.0036 -0.4567 -0.0978
 4982TIP3    H114910   0.702   2.682   3.519 -1.5269 -0.6180  0.8444
 4982TIP3    H214911   0.718   2.655   3.371  1.4400 -0.0047  0.9790
 4983TIP3   OH214912   0.219   4.987   0.592  0.0124  0.2409  0.2156
 4983TIP3    H114913   0.145   5.031   0.634 -0.2090  0.1547 -0.0803
 4983TIP3    H214914   0.207   5.004   0.498  1.1629  1.4449  0.2603
 4984TIP3   OH214915   0.166   0.544   0.212 -0.0818  0.0109 -0.3600
 4984TIP3    H114916   0.182   0.538   0.306  0.5816  0.4120 -0.4432
 4984TIP3    H214917   0.079   0.583   0.205 -0.4967 -0.8073  0.0901
 4985TIP3   OH214918   4.209   1.648   0.399  0.7864 -0.1670 -0.2545
 4985TIP3    H114919   4.284   1.637   0.457 -0.6260  0.1456  1.7157
 4985TIP3    H214920   4.197   1.743   0.392 -1.0188 -0.1580  1.7383
 4986TIP3   OH214921   4.560   1.292   4.911 -0.1842  0.2008  0.0065
 4986TIP3    H114922   4.532   1.383   4.896  0.5853  0.7161  1.4399
 4986TIP3    H214923   4.634   1.300   4.971  1.1877 -1.2837 -1.3914
 4987TIP3   OH214924   1.001   0.604   4.657 -0.2064  0.1802 -0.1830
 4987TIP3    H114925   0.988   0.675   4.720 -0.7765 -0.9699  1.0495
 4987TIP3    H214926   1.092   0.577   4.670 -0.2534  0.1003 -0.0189
 4988TIP3   OH214927   4.239   2.632   2.774 -0.4493 -0.2128  0.3454
 4988TIP3    H114928   4.281   2.623   2.860  0.5449 -1.5879 -0.2466
 4988TIP3    H214929   4.308   2.610   2.711 -1.9706 -2.3427 -0.6975
 4989TIP3   OH214930   2.094   3.324   4.286  0.2452  0.6750  0.3877
 4989TIP3    H114931   2.057   3.395   4.234  0.7744  1.1624  0.6703
 4989TIP3    H214932   2.108   3.361   4.373  0.0050  0.0620  0.6982
 4990TIP3   OH214933   2.439   1.526   0.384  0.1140 -0.2649  0.4625
 4990TIP3    H114934   2.407   1.444   0.347  2.0627 -0.6507 -0.4416
 4990TIP3    H214935   2.399   1.594   0.329 -0.2489 -0.6577  0.2299
 4991TIP3   OH214936   1.026   0.406   1.377 -0.5969  0.2267 -0.8729
 4991TIP3    H114937   0.993   0.492   1.402 -0.4975 -0.3829  1.6320
 4991TIP3    H214938   1.099   0.390   1.437 -0.1020 -1.2654 -1.8260
 4992TIP3   OH214939   1.293   1.280   3.539  0.2136 -0.1666  0.0053
 4992TIP3    H114940   1.242   1.348   3.494 -0.4634 -0.3841  0.4341
 4992TIP3    H214941   1.349   1.329   3.599 -1.2346 -0.0085  1.3081
 4993TIP3   OH214942   3.930   1.327   4.418  0.0320 -0.5291  0.0105
 4993TIP3    H114943   3.950   1.405   4.470  0.7735 -0.9514  0.3834
 4993TIP3    H214944   3.909   1.260   4.484  0.4613 -0.9254 -0.2466
 4994TIP3   OH214945   3.180   2.966   3.181  0.0882  0.2300 -0.4912
 4994TIP3    H114946   3.101   2.986   3.130  2.0237  2.1212 -2.9813
 4994TIP3    H214947   3.202   3.049   3.223  0.9718 -0.1816 -0.1287
 4995TIP3   OH214948   4.839   6.155   4.489 -0.2040  0.7159 -0.6125
 4995TIP3    H114949   4.797   6.230   4.532  1.8070  1.9599 -0.6834
 4995TIP3    H214950   4.883   6.193   4.412  0.0133 -0.7128 -1.2174
 4996TIP3   OH214951   7.082   2.160   2.143  0.7277  0.5900  0.2287
 4996TIP3    H114952   7.109   2.074   2.174  2.0141  1.2781  1.1256
 4996TIP3    H214953   7.118   2.221   2.208 -1.1423  1.7360  0.2662
 4997TIP3   OH214954   6.069   3.607   1.313  0.7412  0.0231 -0.6490
 4997TIP3    H114955   6.058   3.544   1.242  2.1920 -0.6348 -0.3442
 4997TIP3    H214956   6.081   3.553   1.391  1.0713  0.6854 -0.2267
 4998TIP3   OH214957   5.683   2.085   2.658 -0.1641 -0.4080 -0.6458
 4998TIP3    H114958   5.635   2.112   2.579 -1.2989 -1.5151 -0.3609
 4998TIP3    H214959   5.747   2.155   2.672  0.4652 -0.4521 -2.8789
 4999TIP3   OH214960   6.921   4.495   4.187 -0.0412  0.3362 -0.2048
 4999TIP3    H114961   6.955   4.405   4.190  0.7610  0.6185 -0.4679
 4999TIP3    H214962   6.852   4.492   4.122 -0.5999 -0.2743  0.3935
 5000TIP3   OH214963   1.435   0.188   1.883  0.6701 -0.0682  0.2065
 5000TIP3    H114964   1.340   0.182   1.874  0.7940  0.4426 -1.8309
 5000TIP3    H214965   1.449   0.261   1.943 -0.2149 -0.1988  0.5823
 5001TIP3   OH214966   1.003   4.541   2.006  0.5103  0.6104 -0.0913
 5001TIP3    H114967   0.918   4.584   2.012  0.4142  0.3018  0.8683
 5001TIP3    H214968   1.006   4.507   1.916  0.1101  1.6025 -0.4943
 5002TIP3   OH214969   4.779   5.198   0.031  0.2657 -0.3838 -0.6654
 5002TIP3    H114970   4.759   5.182   0.123  0.9712  0.6590 -0.3142
 5002TIP3    H214971   4.844   5.268   0.033 -0.1904  0.0940 -1.9839
 5003TIP3   OH214972   4.580   0.340   1.848  0.6532  0.0318  0.2038
 5003TIP3    H114973   4.672   0.352   1.872  0.1866  1.1251  1.5729
 5003TIP3    H214974   4.572   0.384   1.763  1.0780  1.3218  0.7986
 5004TIP3   OH214975   5.942   5.503   3.527 -0.6180 -0.5014 -0.0726
 5004TIP3    H114976   5.995   5.560   3.582 -0.1299 -2.9542  2.2057
 5004TIP3    H214977   5.852   5.533   3.539 -0.3269  0.0701  0.7024
 5005TIP3   OH214978   0.778   2.824   1.376 -0.1655 -0.7290  0.0825
 5005TIP3    H114979   0.839   2.816   1.302  0.8738 -0.8833  0.9248
 5005TIP3    H214980   0.832   2.860   1.447 -2.0626  3.4764 -0.3567
 5006TIP3   OH214981   5.415   1.588   1.869 -0.2161 -0.0998  0.0248
 5006TIP3    H114982   5.331   1.631   1.853  0.5613  0.5693 -3.0250
 5006TIP3    H214983   5.467   1.654   1.914 -0.6903  0.2344  0.0899
 5007TIP3   OH214984   4.512   3.983   4.852  0.1801 -0.4371 -0.3754
 5007TIP3    H114985   4.589   3.929   4.867  0.5129 -0.8058 -2.9567
 5007TIP3    H214986   4.517   4.051   4.920  2.1283 -1.1041  0.2283
 5008TIP3   OH214987   5.475   0.653   0.142 -0.3277 -0.1384 -0.5529
 5008TIP3    H114988   5.504   0.737   0.179 -0.4362 -0.4421  0.2503
 5008TIP3    H214989   5.470   0.669   0.048  1.2354  0.2939 -0.5968
 5009TIP3   OH214990   4.307   1.217   3.466 -0.2884  0.4226 -0.3562
 5009TIP3    H114991   4.378   1.154   3.450  0.7253  1.1644  1.0422
 5009TIP3    H214992   4.228   1.163   3.465  0.2350 -0.4071 -2.0822
 5010TIP3   OH214993   2.850   1.641   4.147 -0.3148  0.0776 -0.2668
 5010TIP3    H114994   2.864   1.718   4.202  0.2400  0.8430 -1.4618
 5010TIP3    H214995   2.920   1.643   4.082 -0.5897 -1.1539 -0.6434
 5011TIP3   OH214996   5.768   2.632   0.240 -0.2867  0.1666 -0.5793
 5011TIP3    H114997   5.848   2.678   0.266  0.1866 -0.7738 -0.3282
 5011TIP3    H214998   5.714   2.699   0.200 -0.2350  1.2603  1.1003
 5012TIP3   OH214999   5.265   3.454   3.023 -0.0351 -0.4587 -0.3943
 5012TIP3    H115000   5.271   3.359   3.025  1.1035 -0.4059 -1.0078
 5012TIP3    H215001   5.179   3.473   3.061  0.6330 -1.6231  1.9000
 5013TIP3   OH215002   6.697   2.448   1.982  0.0210  0.4882 -0.2211
 5013TIP3    H115003   6.694   2.443   1.886  1.3137 -0.9699 -0.2251
 5013TIP3    H215004   6.781   2.490   2.001  0.5042 -0.6623  0.2741
 5014TIP3   OH215005   4.944   2.331   3.652  0.2842 -0.2325  0.6274
 5014TIP3    H115006   5.000   2.354   3.726  3.5063 -1.6375 -1.1840
 5014TIP3    H215007   4.965   2.239   3.633  0.2772  0.2999 -2.5050
 5015TIP3   OH215008   3.041   0.454   5.013 -0.5340  0.9048 -0.0138
 5015TIP3    H115009   3.113   0.499   4.968  0.0509 -0.6878 -0.7781
 5015TIP3    H215010   3.084   0.408   5.085 -0.6778 -0.4461 -0.7617
 5016TIP3   OH215011   1.173   1.343   5.209  0.1783 -0.1537 -0.3833
 5016TIP3    H115012   1.108   1.369   5.144 -0.4230  1.5495  0.8188
 5016TIP3    H215013   1.256   1.378   5.176 -0.3466  1.9452  0.3574
 5017TIP3   OH215014   5.409   1.505   3.590 -0.1989  0.1851 -0.3162
 5017TIP3    H115015   5.469   1.553   3.648 -1.0387 -0.3593  1.0247
 5017TIP3    H215016   5.322   1.526   3.622 -0.6162 -1.9991  0.1361
 5018TIP3   OH215017   5.633   3.807   3.128 -0.3586  0.3157 -0.4946
 5018TIP3    H115018   5.542   3.782   3.143 -0.1873 -0.4674 -0.6947
 5018TIP3    H215019   5.684   3.736   3.167  0.1869  1.2238  0.4729
 5019TIP3   OH215020   3.649   3.633   2.317 -0.3205 -0.6937 -0.9836
 5019TIP3    H115021   3.571   3.602   2.363  0.5982 -2.7233 -0.6959
 5019TIP3    H215022   3.667   3.719   2.356 -2.1633 -0.3699 -0.7796
 5020TIP3   OH215023   4.265   0.914   1.637 -0.3528  0.7125  0.5684
 5020TIP3    H115024   4.201   0.959   1.582  0.5946 -0.5037 -1.6524
 5020TIP3    H215025   4.212   0.854   1.691 -1.1911  0.7246 -0.2227
 5021TIP3   OH215026   6.048   5.215   0.180 -0.4363  0.5439  0.2188
 5021TIP3    H115027   6.131   5.215   0.133 -0.3886  1.5645  0.2692
 5021TIP3    H215028   5.984   5.185   0.116  0.2339 -2.4053  0.7858
 5022TIP3   OH215029   2.203   2.397   3.804 -0.2622 -0.2329  0.4386
 5022TIP3    H115030   2.269   2.384   3.872  0.3723 -2.9102 -0.6026
 5022TIP3    H215031   2.243   2.363   3.724 -1.6061  1.3410 -0.9881
 5023TIP3   OH215032   0.100   3.180   3.147 -0.0167 -0.1902  0.0855
 5023TIP3    H115033   0.098   3.149   3.056 -1.0756 -3.1223  1.0079
 5023TIP3    H215034   0.174   3.134   3.187  0.7237  1.4135  0.6615
 5024TIP3   OH215035   4.408   4.199   4.108 -0.5911 -0.1975  0.1545
 5024TIP3    H115036   4.449   4.217   4.024 -1.3364 -0.1928 -0.2147
 5024TIP3    H215037   4.479   4.166   4.163 -0.0002  0.2674 -0.3224
 5025TIP3   OH215038   0.599   4.417   3.616 -0.4257 -0.0861 -0.5479
 5025TIP3    H115039   0.671   4.386   3.671 -0.8932 -0.3663 -0.0843
 5025TIP3    H215040   0.540   4.462   3.677 -1.3655 -1.1306 -0.6670
 5026TIP3   OH215041   1.696   3.822   2.939  0.2298 -0.3506  0.0895
 5026TIP3    H115042   1.686   3.854   2.850  0.3018  0.9627  0.5377
 5026TIP3    H215043   1.644   3.882   2.993  0.4977 -0.8931  0.9816
 5027TIP3   OH215044   2.679   3.994   1.670 -0.0563  0.3273 -0.0847
 5027TIP3    H115045   2.750   3.946   1.713  0.4165  1.9976  1.0947
 5027TIP3    H215046   2.715   4.081   1.655 -0.6725  0.1997 -2.7657
 5028TIP3   OH215047   0.287   4.363   2.512  0.8273  0.2469  0.0293
 5028TIP3    H115048   0.218   4.308   2.475  0.9883 -0.0014  0.0918
 5028TIP3    H215049   0.265   4.452   2.484  1.3592 -0.0181 -1.3068
 5029TIP3   OH215050   5.336   3.564   0.568 -0.3867 -0.2569  0.0159
 5029TIP3    H115051   5.309   3.629   0.632 -1.1374  0.2451 -0.7858
 5029TIP3    H215052   5.272   3.494   0.577  0.7207 -1.1667  1.2416
 5030TIP3   OH215053   1.221   2.957   5.888  0.4711 -0.4456 -0.6513
 5030TIP3    H115054   1.130   2.958   5.919  0.5255 -1.3995 -0.4244
 5030TIP3    H215055   1.224   2.887   5.823  0.7712  0.3994 -1.5728
 5031TIP3   OH215056   5.963   4.356   4.132  0.3406 -0.3068 -0.1383
 5031TIP3    H115057   5.879   4.380   4.170 -0.9821 -1.3382 -2.2090
 5031TIP3    H215058   5.966   4.261   4.138  1.5989 -0.2667  0.2926
 5032TIP3   OH215059   5.649   1.147   1.312  0.0780  0.0627 -0.1021
 5032TIP3    H115060   5.640   1.213   1.244 -2.1884  0.2707  0.3061
 5032TIP3    H215061   5.568   1.154   1.363 -0.1806 -2.8798  0.0624
 5033TIP3   OH215062   2.182   5.608   0.916  0.3318 -0.3259 -0.0046
 5033TIP3    H115063   2.244   5.539   0.895  0.8296 -0.2665  1.2012
 5033TIP3    H215064   2.179   5.610   1.012 -0.1029  0.9297 -0.0213
 5034TIP3   OH215065   5.256   2.987   5.041 -0.3339 -0.0849 -0.0584
 5034TIP3    H115066   5.319   2.927   5.081  1.1608  1.2444 -0.3535
 5034TIP3    H215067   5.296   3.011   4.957  0.1165  2.8989  0.9185
 5035TIP3   OH215068   6.743   6.144   2.574 -0.2759  0.0957 -0.4699
 5035TIP3    H115069   6.679   6.173   2.639  0.8417  0.5692  0.4430
 5035TIP3    H215070   6.826   6.181   2.603  0.6336 -1.4058 -1.0338
 5036TIP3   OH215071   1.028   5.823   3.002 -0.2442 -0.5088  0.5077
 5036TIP3    H115072   1.037   5.735   3.038  0.7394 -0.0471  1.4637
 5036TIP3    H215073   0.940   5.826   2.966 -1.5755 -0.7835  3.5185
 5037TIP3   OH215074   4.790   5.511   5.471  0.2073  0.6362 -0.6320
 5037TIP3    H115075   4.761   5.438   5.524 -0.2367  0.5553 -0.9773
 5037TIP3    H215076   4.718   5.574   5.474  1.0553  1.5881  0.6208
 5038TIP3   OH215077   0.387   1.573   4.706 -0.3605 -0.1717  0.5940
 5038TIP3    H115078   0.396   1.571   4.801  1.4029 -0.9520  0.4555
 5038TIP3    H215079   0.384   1.480   4.681 -0.3306  0.0244 -0.1448
 5039TIP3   OH215080   5.943   0.306   2.496  0.9018 -0.2794 -0.3124
 5039TIP3    H115081   6.018   0.248   2.507  1.3273  0.2345 -0.4712
 5039TIP3    H215082   5.868   0.247   2.491  1.2897 -0.7979 -0.1397
 5040TIP3   OH215083   2.476   0.073   0.299 -0.2178 -0.0878 -0.1408
 5040TIP3    H115084   2.409   0.130   0.261 -0.2397  1.1576  1.6611
 5040TIP3    H215085   2.452  -0.015   0.269 -1.6924  0.5176 -0.8714
 5041TIP3   OH215086   5.602   0.233   0.305 -0.3828  0.2519  0.6328
 5041TIP3    H115087   5.537   0.303   0.313 -2.1106 -1.3099  0.9877
 5041TIP3    H215088   5.593   0.203   0.214  0.1207  0.2867  0.5728
 5042TIP3   OH215089   6.175   2.068   5.729 -0.2725 -0.0234  0.1097
 5042TIP3    H115090   6.168   1.990   5.785 -2.2753  0.1321  0.1534
 5042TIP3    H215091   6.102   2.123   5.756  1.0215  1.8256 -0.0401
 5043TIP3   OH215092   0.357   3.632   4.149  0.2302 -0.5474 -0.0977
 5043TIP3    H115093   0.388   3.562   4.205  0.9616 -0.2189 -0.0738
 5043TIP3    H215094   0.394   3.712   4.188 -0.2148 -0.1972 -0.3784
 5044TIP3   OH215095   5.852   6.502   1.706  0.5690 -0.3693 -0.5533
 5044TIP3    H115096   5.804   6.461   1.633 -0.2269 -0.3299 -0.0661
 5044TIP3    H215097   5.822   6.593   1.705  0.6147 -0.3518 -0.2225
 5045TIP3   OH215098   3.629   4.108   3.249 -1.1335  0.2967  0.0973
 5045TIP3    H115099   3.584   4.100   3.334 -0.5014  2.7357  0.7594
 5045TIP3    H215100   3.686   4.032   3.245 -1.5699 -0.1550  1.6211
 5046TIP3   OH215101   2.824   1.504   1.927  0.2909 -0.0972 -0.0548
 5046TIP3    H115102   2.899   1.524   1.871 -0.2977  0.4927 -0.6597
 5046TIP3    H215103   2.860   1.456   2.001  1.5926  2.0104  0.7557
 5047TIP3   OH215104   2.074   1.802   1.071  0.0445  0.8033 -0.2214
 5047TIP3    H115105   2.019   1.729   1.043 -1.0197  0.8057  1.7199
 5047TIP3    H215106   2.162   1.777   1.046 -0.6004  0.0019 -1.8280
 5048TIP3   OH215107   3.051   2.055   3.923  0.7578 -0.4726  0.0351
 5048TIP3    H115108   2.984   2.121   3.944 -0.1612 -1.4560  0.2934
 5048TIP3    H215109   3.066   2.066   3.829 -0.0255 -0.4556 -0.0969
 5049TIP3   OH215110   1.479   1.757   2.534  0.0854  0.3890 -0.0678
 5049TIP3    H115111   1.404   1.708   2.569  0.6605 -1.0327 -0.7412
 5049TIP3    H215112   1.533   1.690   2.492  0.5614  1.7294 -1.6604
 5050TIP3   OH215113   2.308   6.156   4.562 -0.1546  0.0434  0.1624
 5050TIP3    H115114   2.237   6.205   4.603  0.7582  0.4610  1.3299
 5050TIP3    H215115   2.342   6.214   4.495  2.0969  1.9483  2.7043
 5051TIP3   OH215116   1.630   4.544   4.578 -0.0884  0.0957  0.1768
 5051TIP3    H115117   1.652   4.491   4.655 -0.7465  1.0102  1.0213
 5051TIP3    H215118   1.566   4.607   4.610 -0.5147  0.3836 -1.1771
 5052TIP3   OH215119   2.600   2.000   2.000  0.2086 -0.0562  0.1900
 5052TIP3    H115120   2.661   1.929   2.021  0.7548  1.0479  2.6838
 5052TIP3    H215121   2.515   1.957   1.994  0.8848 -1.3051 -1.2770
 5053TIP3   OH215122   5.541   2.589   3.797  0.0094  0.0686  0.0735
 5053TIP3    H115123   5.503   2.676   3.813  0.6763  0.6856 -1.4472
 5053TIP3    H215124   5.510   2.566   3.709  2.3243  0.1713 -0.8274
 5054TIP3   OH215125   1.360   1.608   1.124 -0.2569  0.2550  0.3926
 5054TIP3    H115126   1.350   1.549   1.199 -1.4303  0.5128  0.4586
 5054TIP3    H215127   1.392   1.690   1.162  1.9061 -0.4563  0.2357
 5055TIP3   OH215128   7.092   3.087   3.779  0.1480 -0.1849  0.1800
 5055TIP3    H115129   7.164   3.150   3.771 -0.8468  1.0101  0.2987
 5055TIP3    H215130   7.119   3.012   3.726  0.6916  0.9832 -1.2727
 5056TIP3   OH215131   2.086   4.008   1.482  0.3530  0.8177 -0.0764
 5056TIP3    H115132   2.156   3.951   1.449 -0.6507  1.2503 -3.2901
 5056TIP3    H215133   2.033   3.952   1.537  1.8115 -0.1841  0.3617
 5057TIP3   OH215134   3.453   4.095   1.097  0.8135  0.1437  0.0106
 5057TIP3    H115135   3.487   4.037   1.028  0.1372  1.3379 -1.3687
 5057TIP3    H215136   3.362   4.111   1.072  0.1405 -0.4517  1.9293
 5058TIP3   OH215137   0.780   0.955   4.997  0.2930  0.2325 -0.0738
 5058TIP3    H115138   0.797   1.000   4.915  1.0377  1.2467  0.6187
 5058TIP3    H215139   0.800   1.019   5.065  0.6843 -0.9144  0.9326
 5059TIP3   OH215140   4.881   2.172   2.943  0.0209  0.1049 -0.5828
 5059TIP3    H115141   4.864   2.206   3.031 -1.1942 -2.0687  0.0965
 5059TIP3    H215142   4.970   2.136   2.947  0.1169  0.3644 -0.3812
 5060TIP3   OH215143   4.754   1.046   3.744 -0.0057  0.0455  0.3120
 5060TIP3    H115144   4.720   1.062   3.656 -0.0197  1.9294  0.6170
 5060TIP3    H215145   4.844   1.017   3.730  0.3983  1.5183 -0.3260
 5061TIP3   OH215146   4.833   1.127   4.113 -0.6748  0.1228 -0.3699
 5061TIP3    H115147   4.805   1.038   4.133 -0.5195 -0.2110 -1.5964
 5061TIP3    H215148   4.916   1.117   4.066 -0.5096  0.9280 -0.2765
 5062TIP3   OH215149   1.478   3.713   2.207 -0.2841  0.4979 -0.2089
 5062TIP3    H115150   1.446   3.725   2.117  0.3151  1.8354 -0.2667
 5062TIP3    H215151   1.511   3.799   2.232  0.4095 -0.0905  0.9693
 5063TIP3   OH215152   6.914   5.749   4.698  0.4230  0.3870 -0.1552
 5063TIP3    H115153   6.882   5.662   4.720  1.1487 -0.5788 -2.5172
 5063TIP3    H215154   6.836   5.802   4.687  0.0030  0.4271  2.5129
 5064TIP3   OH215155   1.902   1.767   1.529 -0.0534  0.2333  0.5421
 5064TIP3    H115156   1.857   1.698   1.480  0.6030 -0.8452  1.4028
 5064TIP3    H215157   1.986   1.777   1.484 -0.2429  0.6521  0.2759
 5065TIP3   OH215158   1.886   1.305   1.543 -0.1272 -0.3250  0.3665
 5065TIP3    H115159   1.802   1.313   1.500  0.4169  0.7750 -0.5351
 5065TIP3    H215160   1.930   1.233   1.497 -0.7284 -1.2039  1.1368
 5066TIP3   OH215161   0.822   2.792   2.337  0.1265  0.2058  0.7851
 5066TIP3    H115162   0.737   2.834   2.352 -0.4921 -0.2187 -1.1472
 5066TIP3    H215163   0.886   2.855   2.370 -0.8807  1.4585  0.4599
 5067TIP3   OH215164   1.203   0.664   2.838  0.2098  0.8601 -0.1673
 5067TIP3    H115165   1.209   0.695   2.748  0.4824  0.5558 -0.2537
 5067TIP3    H215166   1.110   0.672   2.860  0.0038  0.1396 -0.7570
 5068TIP3   OH215167   3.755   3.593   0.977 -0.0121 -0.1669 -0.1089
 5068TIP3    H115168   3.682   3.534   0.995 -1.2945  1.6883  1.2154
 5068TIP3    H215169   3.832   3.549   1.014 -0.7866 -1.3099  0.1943
 5069TIP3   OH215170   4.095   6.378   1.606  0.5704  0.9444  0.3280
 5069TIP3    H115171   4.114   6.285   1.614 -2.2947  0.4026  2.7777
 5069TIP3    H215172   4.107   6.397   1.513 -0.6239 -2.3948 -0.6739
 5070TIP3   OH215173   1.375   5.225   5.387  0.2548 -0.1203 -0.4977
 5070TIP3    H115174   1.416   5.197   5.468  0.5983  0.9224 -0.2920
 5070TIP3    H215175   1.398   5.318   5.379 -1.3779  0.2965 -0.7937
 5071TIP3   OH215176   3.356   4.802   0.968 -0.0626 -0.6211 -0.3471
 5071TIP3    H115177   3.365   4.881   1.022 -2.2950  0.1903 -1.0293
 5071TIP3    H215178   3.401   4.824   0.886  0.2787 -0.4848 -0.1254
 5072TIP3   OH215179   5.291   6.004   0.552  0.5516 -0.5898  0.2258
 5072TIP3    H115180   5.239   6.059   0.493  2.3527 -0.4905 -1.3853
 5072TIP3    H215181   5.265   5.915   0.532  2.6785 -0.7412 -2.5004
 5073TIP3   OH215182   6.811   5.681   3.969 -0.3100  0.4215 -0.1856
 5073TIP3    H115183   6.756   5.657   3.894  1.0526 -0.7376 -0.8696
 5073TIP3    H215184   6.851   5.599   3.997  0.6458  1.1375  0.6290
 5074TIP3   OH215185   7.113   1.791   0.165 -0.1542 -0.0192 -0.0936
 5074TIP3    H115186   7.047   1.742   0.215 -0.7674  0.6643 -0.2087
 5074TIP3    H215187   7.062   1.842   0.102  0.5067  0.3576 -0.3332
 5075TIP3   OH215188   2.397   6.458   3.142 -0.2449 -0.3062  0.1885
 5075TIP3    H115189   2.307   6.428   3.149 -0.3900  0.2119  0.6875
 5075TIP3    H215190   2.410   6.511   3.221  0.0151  0.8891 -0.6411
 5076TIP3   OH215191   5.877   4.490   1.038 -0.6559 -0.1547  0.2807
 5076TIP3    H115192   5.855   4.413   0.985 -0.6186 -0.5792  0.8775
 5076TIP3    H215193   5.932   4.456   1.108  1.2911  0.7457 -0.7239
 5077TIP3   OH215194   0.275   4.895   4.841 -0.1936  0.3992 -0.3138
 5077TIP3    H115195   0.190   4.862   4.811  0.9028 -1.3284 -1.7468
 5077TIP3    H215196   0.334   4.819   4.834  1.0787  1.0222  2.4815
 5078TIP3   OH215197   6.726   5.417   0.939 -0.0612  0.1842 -0.9347
 5078TIP3    H115198   6.679   5.381   0.863 -3.9757 -0.2936  1.4122
 5078TIP3    H215199   6.722   5.347   1.005  2.5485  0.8394  0.0339
 5079TIP3   OH215200   3.015   0.499   3.497 -0.4435  0.7905 -0.9207
 5079TIP3    H115201   2.997   0.431   3.432  0.4126  0.9329 -1.3174
 5079TIP3    H215202   2.998   0.456   3.581 -2.6359  0.9298 -1.2359
 5080TIP3   OH215203   2.839   2.664   2.997 -0.4690 -0.6290 -0.5338
 5080TIP3    H115204   2.778   2.650   3.070 -1.2331  0.7081 -0.8735
 5080TIP3    H215205   2.876   2.750   3.014  0.5800 -1.0058 -0.8821
 5081TIP3   OH215206   3.318   5.120   3.438 -0.2812 -0.4909 -0.0615
 5081TIP3    H115207   3.373   5.116   3.359 -1.8201  0.9214 -1.3012
 5081TIP3    H215208   3.361   5.063   3.501  0.5413 -2.3959 -2.2226
 5082TIP3   OH215209   5.885   5.745   1.274  0.5326 -0.0400  0.4953
 5082TIP3    H115210   5.975   5.774   1.292  1.2708 -0.4104 -2.1655
 5082TIP3    H215211   5.880   5.657   1.311  1.1654  0.1032  0.9370
 5083TIP3   OH215212   1.606   5.616   3.121  0.1705 -0.2814 -0.0895
 5083TIP3    H115213   1.626   5.683   3.056 -0.6357 -0.5104 -0.5887
 5083TIP3    H215214   1.556   5.662   3.189 -0.4206 -0.3746 -0.4530
 5084TIP3   OH215215   4.364   0.047   0.352 -0.3393 -0.0248 -0.3379
 5084TIP3    H115216   4.449   0.017   0.322 -0.7705 -0.2159 -1.4149
 5084TIP3    H215217   4.381   0.133   0.390  0.4798 -0.4781  0.3419
 5085TIP3   OH215218   5.765   3.598   2.444  0.0554  0.2317 -0.4628
 5085TIP3    H115219   5.690   3.556   2.486 -1.0627  0.4468 -2.1411
 5085TIP3    H215220   5.767   3.561   2.356  1.3228  0.9798 -0.7755
 5086TIP3   OH215221   7.133   0.075   4.430 -0.5111 -0.0233 -0.0822
 5086TIP3    H115222   7.112   0.167   4.411 -1.0721  0.1543  1.3234
 5086TIP3    H215223   7.187   0.048   4.355 -0.2230  1.4836 -0.4694
 5087TIP3   OH215224   6.355   5.511   3.579 -0.0339 -0.3269  0.1150
 5087TIP3    H115225   6.318   5.504   3.491 -0.8123 -0.4212  0.4343
 5087TIP3    H215226   6.287   5.556   3.630  0.9704  0.9958  0.3440
 5088TIP3   OH215227   2.065   2.643   2.959 -1.1973 -0.3466  0.3686
 5088TIP3    H115228   2.118   2.628   3.037 -1.9855 -1.8215  0.6657
 5088TIP3    H215229   2.127   2.646   2.887 -0.4454  1.1672  1.0370
 5089TIP3   OH215230   2.024   6.115   5.426 -0.1126  0.7198 -0.0804
 5089TIP3    H115231   2.054   6.059   5.355 -0.3814 -0.7523  0.9278
 5089TIP3    H215232   1.929   6.122   5.413  0.0657  1.9991 -0.9062
 5090TIP3   OH215233   3.483   6.007   3.715  0.0817  0.2065 -0.1772
 5090TIP3    H115234   3.458   6.097   3.738 -0.2959  0.3288 -1.0206
 5090TIP3    H215235   3.577   6.003   3.732  0.0853  0.7392 -0.0473
 5091TIP3   OH215236   4.110   3.659   5.441 -0.1108  0.1547 -0.4959
 5091TIP3    H115237   4.133   3.749   5.418 -0.5513  0.8212  1.4337
 5091TIP3    H215238   4.192   3.620   5.471 -0.0192  0.0948 -0.8292
 5092TIP3   OH215239   0.070   0.462   4.821  0.1511 -0.5911  0.4564
 5092TIP3    H115240   0.052   0.440   4.912  2.6046  0.9339  1.4083
 5092TIP3    H215241   0.000   0.420   4.772 -2.2435 -0.0825  3.1662
 5093TIP3   OH215242   4.626   2.551   3.038  0.1987 -0.2727 -0.0663
 5093TIP3    H115243   4.537   2.579   3.015  0.4977  0.0943 -0.8169
 5093TIP3    H215244   4.628   2.458   3.016  0.1727 -0.1483 -0.6099
 5094TIP3   OH215245   0.916   4.460   0.677  0.0562 -0.2348 -0.5192
 5094TIP3    H115246   0.986   4.427   0.621  1.6297  1.8681  0.0960
 5094TIP3    H215247   0.875   4.530   0.625  2.1402  2.3976  1.0801
 5095TIP3   OH215248   1.797   1.113   1.180 -0.1252 -0.2245 -0.0261
 5095TIP3    H115249   1.853   1.079   1.250  0.8145 -2.2272 -1.6550
 5095TIP3    H215250   1.831   1.201   1.162 -1.1629  0.8585  2.7592
 5096TIP3   OH215251   4.818   0.492   1.842  0.2859  0.2433 -0.2997
 5096TIP3    H115252   4.860   0.549   1.906  3.5500 -0.9386 -1.1789
 5096TIP3    H215253   4.885   0.427   1.820 -1.8943 -1.5239 -2.2889
 5097TIP3   OH215254   5.735   4.672   1.338  0.3749  0.6067 -0.4486
 5097TIP3    H115255   5.764   4.761   1.358  0.1236  0.2385  1.7780
 5097TIP3    H215256   5.797   4.615   1.383  0.5705 -0.3962 -1.8923
 5098TIP3   OH215257   3.649   3.185   1.714 -0.3221  0.4162 -0.2513
 5098TIP3    H115258   3.735   3.219   1.739 -0.2314  0.0495 -0.0528
 5098TIP3    H215259   3.594   3.263   1.704 -0.2073  0.6072  0.5261
 5099TIP3   OH215260   3.416   0.210   5.132 -0.1643 -0.4347 -0.1587
 5099TIP3    H115261   3.339   0.264   5.150 -0.2050 -0.9324  1.2164
 5099TIP3    H215262   3.478   0.270   5.091 -0.9310  0.1905 -0.4244
 5100TIP3   OH215263   4.854   3.982   4.573 -0.1407  0.2177 -0.7247
 5100TIP3    H115264   4.846   4.057   4.633 -0.1960 -0.6095  0.3215
 5100TIP3    H215265   4.921   4.009   4.511  1.7766  0.1560  1.1911
 5101TIP3   OH215266   1.951   0.420   2.609 -0.0823  0.6620 -0.0630
 5101TIP3    H115267   2.000   0.374   2.540 -0.3537  0.8009 -0.3550
 5101TIP3    H215268   1.861   0.388   2.599 -0.5347  2.0891 -1.0371
 5102TIP3   OH215269   3.597   1.080   3.444  0.0858  0.3976  0.1431
 5102TIP3    H115270   3.629   1.008   3.389  1.0943  1.2250 -0.3971
 5102TIP3    H215271   3.504   1.087   3.423 -0.2226 -1.2584  0.8116
 5103TIP3   OH215272   5.371   5.061   2.253  0.0538 -0.3450  0.1870
 5103TIP3    H115273   5.452   5.100   2.284 -0.9273  0.8038  1.4362
 5103TIP3    H215274   5.362   5.092   2.163  0.5090  0.3343  0.3683
 5104TIP3   OH215275   2.249   0.494   0.279  0.1104 -0.0568 -0.2297
 5104TIP3    H115276   2.157   0.519   0.288  0.1082  0.1508 -0.7751
 5104TIP3    H215277   2.272   0.520   0.189  0.4085 -1.0417 -0.4491
 5105TIP3   OH215278   1.925   5.535   4.380  0.5443  0.2716  0.0121
 5105TIP3    H115279   2.011   5.538   4.423 -0.2157  0.1088  1.5935
 5105TIP3    H215280   1.873   5.476   4.433 -0.6101  0.4785 -0.8485
 5106TIP3   OH215281   5.514   3.009   0.730 -0.0562  0.2116  0.4307
 5106TIP3    H115282   5.579   3.002   0.660  1.5836  0.3233  1.8814
 5106TIP3    H215283   5.498   2.918   0.756  1.4866  0.2699  1.7526
 5107TIP3   OH215284   2.042   4.685   2.544 -0.3600 -0.4595 -0.5071
 5107TIP3    H115285   2.131   4.674   2.577  0.0578 -1.0527 -1.7458
 5107TIP3    H215286   2.025   4.779   2.550 -0.1806 -0.4987  0.9871
 5108TIP3   OH215287   1.768   2.988   5.065  0.0134  0.4566 -0.1125
 5108TIP3    H115288   1.717   2.928   5.011  0.8996  0.2299 -0.7187
 5108TIP3    H215289   1.739   3.075   5.038 -2.2295  0.3663  1.6840
 5109TIP3   OH215290   4.731   3.171   3.703 -0.0073  0.3061 -0.1258
 5109TIP3    H115291   4.795   3.241   3.715  0.5951  0.0660 -1.7040
 5109TIP3    H215292   4.647   3.214   3.715  0.4011  0.8530  0.9328
 5110TIP3   OH215293   5.362   4.949   1.854  0.0905 -0.0322 -0.0317
 5110TIP3    H115294   5.362   5.025   1.913 -0.9270  0.7964 -1.0440
 5110TIP3    H215295   5.288   4.896   1.883  0.4224 -0.3321  0.2817
 5111TIP3   OH215296   2.530   1.850   3.044  0.4200 -0.2238  0.1937
 5111TIP3    H115297   2.480   1.775   3.076  1.7020  0.0207  3.1270
 5111TIP3    H215298   2.620   1.817   3.038  0.6114  0.4587 -0.8385
 5112TIP3   OH215299   1.886   2.159  -0.007  0.1699 -0.4913 -0.3414
 5112TIP3    H115300   1.890   2.166   0.089  1.5223 -0.6469 -0.3675
 5112TIP3    H215301   1.947   2.226  -0.039  0.1476 -0.8096 -1.0725
 5113TIP3   OH215302   5.542   5.519   2.959  0.1397  0.1487  0.2871
 5113TIP3    H115303   5.524   5.483   2.872  1.6272  2.8175 -1.2876
 5113TIP3    H215304   5.472   5.486   3.014 -1.4694 -0.8364 -2.1856
 5114TIP3   OH215305   6.036   0.305   3.629  0.3623 -0.4324  0.4878
 5114TIP3    H115306   6.091   0.227   3.629 -1.4952 -1.8232  0.5942
 5114TIP3    H215307   5.952   0.275   3.665 -1.2608  0.9820 -1.8312
 5115TIP3   OH215308   1.684   5.888   2.164  0.0632  0.3555 -0.0733
 5115TIP3    H115309   1.761   5.836   2.188  0.9156  1.4839 -0.2920
 5115TIP3    H215310   1.622   5.824   2.128  0.4117 -0.7485  1.1875
 5116TIP3   OH215311   1.730   4.303   1.126  0.4610  0.1411 -0.6399
 5116TIP3    H115312   1.685   4.306   1.041 -1.6881  1.0329  0.4518
 5116TIP3    H215313   1.733   4.395   1.154 -3.4170 -0.4391  2.4258
 5117TIP3   OH215314   5.507   4.678   2.723 -0.3744 -0.3306  0.3518
 5117TIP3    H115315   5.489   4.683   2.817 -1.3417 -0.3362  0.1697
 5117TIP3    H215316   5.437   4.625   2.687 -0.0937 -0.2056 -0.4030
 5118TIP3   OH215317   2.872   0.546   1.499 -0.0675 -0.5812 -0.5186
 5118TIP3    H115318   2.912   0.619   1.547 -1.2669 -0.6335  0.6173
 5118TIP3    H215319   2.824   0.588   1.427 -1.4364 -0.1433  0.6125
 5119TIP3   OH215320   1.132   4.294   0.902 -0.0125 -0.0171 -0.0177
 5119TIP3    H115321   1.214   4.295   0.951 -0.7830 -0.4343  1.3264
 5119TIP3    H215322   1.098   4.383   0.911 -0.0572 -0.0395  0.0364
 5120TIP3   OH215323   2.745   6.745   0.433 -0.1185 -0.0835 -0.2129
 5120TIP3    H115324   2.840   6.756   0.432  0.1902 -2.1913  1.3206
 5120TIP3    H215325   2.725   6.706   0.348  0.4516 -0.1944 -0.3006
 5121TIP3   OH215326   4.952   2.861   4.562  0.0570 -0.2588  0.4026
 5121TIP3    H115327   4.971   2.843   4.654 -0.1125 -1.5195  0.2138
 5121TIP3    H215328   4.875   2.918   4.564  0.0262 -0.3165  1.0387
 5122TIP3   OH215329   3.443   4.772   3.068  0.0345 -0.2151  0.3096
 5122TIP3    H115330   3.491   4.855   3.078  0.2345 -0.3683  0.6501
 5122TIP3    H215331   3.490   4.711   3.126  0.9042 -0.9975 -1.1645
 5123TIP3   OH215332   0.922   4.742   1.527 -0.1329 -0.7060  0.0345
 5123TIP3    H115333   0.884   4.660   1.494  1.1647 -0.4778 -2.2705
 5123TIP3    H215334   0.871   4.811   1.484  0.2753 -0.3437  0.1281
 5124TIP3   OH215335   2.196   5.076   2.922  0.0024 -0.1978 -0.0387
 5124TIP3    H115336   2.181   5.105   3.012  0.6231 -0.6661  0.2255
 5124TIP3    H215337   2.286   5.104   2.902  0.1173 -0.7102 -0.2623
 5125TIP3   OH215338   7.230   0.699   1.966 -0.4585  0.4360 -0.5180
 5125TIP3    H115339   7.139   0.690   1.939 -0.4693 -0.6506 -0.1846
 5125TIP3    H215340   7.226   0.747   2.048 -0.8874 -0.9542  0.3100
 5126TIP3   OH215341   2.468   2.890   1.577 -0.1621 -0.4782  0.2837
 5126TIP3    H115342   2.400   2.841   1.623 -0.3342  0.3385  0.9149
 5126TIP3    H215343   2.501   2.829   1.511 -1.8662 -0.7266 -0.3930
 5127TIP3   OH215344   5.300   0.749   3.169  0.3638 -0.4416 -0.3336
 5127TIP3    H115345   5.395   0.741   3.163  0.5820  1.8685 -1.1439
 5127TIP3    H215346   5.282   0.839   3.142 -1.8911 -0.1371  1.8187
 5128TIP3   OH215347   0.461   3.137   2.110  0.1118  0.7424  0.8008
 5128TIP3    H115348   0.402   3.184   2.051 -1.0012 -1.2315  0.2682
 5128TIP3    H215349   0.539   3.192   2.114  0.2615  0.9754 -2.5351
 5129TIP3   OH215350   0.630   0.496   4.743 -0.3942 -0.0066  0.3030
 5129TIP3    H115351   0.558   0.514   4.802 -0.3159  1.1295  0.0645
 5129TIP3    H215352   0.605   0.537   4.660 -0.3881 -1.3528 -0.3917
 5130TIP3   OH215353   4.790   0.544   3.154 -0.3400 -0.3651  0.4933
 5130TIP3    H115354   4.749   0.541   3.068 -1.0793 -2.7848  0.8454
 5130TIP3    H215355   4.864   0.604   3.144  0.8333 -2.0983 -2.4103
 5131TIP3   OH215356   1.695   2.073   3.548 -0.0143  0.4893  0.2026
 5131TIP3    H115357   1.754   2.020   3.495 -1.3901 -1.0423  0.1540
 5131TIP3    H215358   1.754   2.127   3.602  1.4054 -0.0024 -0.7893
 5132TIP3   OH215359   7.070   3.246   2.602 -0.0281 -0.4968  0.5354
 5132TIP3    H115360   7.144   3.304   2.621 -0.3570  0.5837 -1.2753
 5132TIP3    H215361   7.072   3.181   2.673  0.6103  1.4494  2.4163
 5133TIP3   OH215362   3.745   2.115   0.717  0.6894  0.0103  0.4483
 5133TIP3    H115363   3.715   2.026   0.701  0.6867 -0.3709  2.3252
 5133TIP3    H215364   3.821   2.104   0.774  0.3405  1.2204  1.1740
 5134TIP3   OH215365   1.309   3.922   1.453 -0.1877  0.1850 -0.0365
 5134TIP3    H115366   1.310   3.988   1.523  0.7053  1.5034 -1.2505
 5134TIP3    H215367   1.255   3.960   1.384  0.6480 -0.1964 -0.9161
 5135TIP3   OH215368   3.059   6.738   4.387  0.1974  0.0459  0.4355
 5135TIP3    H115369   3.099   6.713   4.304  0.5161 -0.0733  0.6235
 5135TIP3    H215370   3.043   6.832   4.379 -2.2507 -0.4073 -0.8067
 5136TIP3   OH215371   1.379   4.344   3.311  0.1349  0.0852 -0.1091
 5136TIP3    H115372   1.425   4.261   3.300 -1.5156 -0.6033 -2.5385
 5136TIP3    H215373   1.416   4.401   3.243  0.1102  0.8098  0.4754
 5137TIP3   OH215374   1.747   6.257   0.686  0.0033  0.8302  0.2835
 5137TIP3    H115375   1.700   6.189   0.639  1.9222 -2.2920  2.4791
 5137TIP3    H215376   1.786   6.311   0.618 -1.0110 -0.7268 -1.6194
 5138TIP3   OH215377   3.678   0.550   2.026 -0.0132 -0.4288 -0.4363
 5138TIP3    H115378   3.596   0.501   2.014 -1.0155  0.7734  1.0095
 5138TIP3    H215379   3.649   0.637   2.056  1.8086 -0.1426  0.6404
 5139TIP3   OH215380   0.290   6.239   0.672 -0.1127 -0.0187 -0.2819
 5139TIP3    H115381   0.300   6.219   0.765 -0.1845 -0.7818 -0.4316
 5139TIP3    H215382   0.379   6.246   0.639 -0.0706 -1.1864 -0.4482
 5140TIP3   OH215383   5.094   4.084   0.668  0.2795 -0.0477 -0.2187
 5140TIP3    H115384   5.096   4.000   0.714 -1.2130 -0.2322 -0.4260
 5140TIP3    H215385   5.081   4.060   0.576 -1.7068  0.4068 -0.1007
 5141TIP3   OH215386   4.161   5.276   5.322  0.0319 -0.5981  0.3903
 5141TIP3    H115387   4.080   5.327   5.330  0.8686  0.8467 -0.0222
 5141TIP3    H215388   4.132   5.190   5.291 -1.3255 -0.0671  0.1141
 5142TIP3   OH215389   3.467   1.510   4.770  0.4339  0.1016  0.0091
 5142TIP3    H115390   3.478   1.549   4.683 -0.7216  2.7538  0.9383
 5142TIP3    H215391   3.550   1.527   4.814  0.9561 -1.0842 -0.4923
 5143TIP3   OH215392   4.014   1.928   5.243 -0.8044  0.1497  0.4944
 5143TIP3    H115393   4.080   1.917   5.311 -0.4034  1.6043  0.3595
 5143TIP3    H215394   3.990   1.838   5.218  2.3900 -0.4996 -0.6942
 5144TIP3   OH215395   6.452   6.332   3.981 -0.5329  0.2464 -0.7462
 5144TIP3    H115396   6.378   6.378   3.941 -1.9171  0.3548  1.6954
 5144TIP3    H215397   6.415   6.248   4.009  0.1988  0.3294  0.5791
 5145TIP3   OH215398   2.706   1.276   5.072 -0.0741 -0.2354  0.1464
 5145TIP3    H115399   2.694   1.266   5.166  0.2981  0.9102  0.3412
 5145TIP3    H215400   2.791   1.319   5.063  0.3898 -1.2940 -0.7752
 5146TIP3   OH215401   3.766   5.977   3.808 -0.6536 -0.3362  0.0083
 5146TIP3    H115402   3.769   5.882   3.824 -1.6133 -0.3658  0.0935
 5146TIP3    H215403   3.832   5.992   3.741 -0.3645 -1.0381  0.1206
 5147TIP3   OH215404   1.923   4.876   1.695  0.2870 -0.2187 -0.4761
 5147TIP3    H115405   1.896   4.961   1.661 -1.3567 -0.7231 -0.5048
 5147TIP3    H215406   1.918   4.817   1.619 -0.4009 -0.7077 -0.0688
 5148TIP3   OH215407   0.172   2.913   1.686  0.0589  0.2336 -0.7336
 5148TIP3    H115408   0.100   2.855   1.711 -0.1780  0.2917 -1.2572
 5148TIP3    H215409   0.169   2.984   1.751  0.9167 -0.7710  0.4420
 5149TIP3   OH215410   0.365   5.488   4.331 -0.0211 -0.0120  0.0390
 5149TIP3    H115411   0.271   5.496   4.317 -0.2323 -1.3571  0.5957
 5149TIP3    H215412   0.386   5.399   4.303  0.9228 -0.0409  0.7878
 5150TIP3   OH215413   2.169   6.570   0.245  0.3676  0.0543 -0.0169
 5150TIP3    H115414   2.200   6.654   0.211  1.6315  0.0714  1.0581
 5150TIP3    H215415   2.182   6.577   0.340 -1.8540 -0.4421  0.3686
 5151TIP3   OH215416   6.482   0.709   5.709 -0.0025  0.4156 -0.2096
 5151TIP3    H115417   6.510   0.659   5.786  0.8586  2.0463  0.5676
 5151TIP3    H215418   6.388   0.721   5.721 -0.6094 -2.4283 -1.2804
 5152TIP3   OH215419   1.027   0.613   3.616 -0.5589  0.0666 -0.1810
 5152TIP3    H115420   1.054   0.688   3.563 -0.3573  0.0365 -0.1223
 5152TIP3    H215421   0.936   0.599   3.592 -1.2968  1.7121  1.4246
 5153TIP3   OH215422   1.756   6.814   2.520  0.2167 -0.3745  0.0967
 5153TIP3    H115423   1.818   6.743   2.539 -1.3524 -2.1184 -0.9245
 5153TIP3    H215424   1.687   6.803   2.586 -1.8442 -2.1733 -2.1969
 5154TIP3   OH215425   5.876   1.624   2.602  0.0615  0.1286  0.5717
 5154TIP3    H115426   5.930   1.668   2.667  0.3072  3.2063 -1.4872
 5154TIP3    H215427   5.933   1.556   2.565  1.6021  1.4854  0.3542
 5155TIP3   OH215428   4.323   5.203   4.821 -0.8724 -0.4207 -0.1383
 5155TIP3    H115429   4.397   5.191   4.881 -0.0928  1.5334 -0.6353
 5155TIP3    H215430   4.253   5.238   4.876 -1.4942 -2.2449  0.3270
 5156TIP3   OH215431   1.481   6.500   3.414 -0.2885 -0.0746  0.5999
 5156TIP3    H115432   1.414   6.509   3.346  0.6579 -0.3935 -0.4029
 5156TIP3    H215433   1.504   6.590   3.437 -1.0452  0.0357  0.9492
 5157TIP3   OH215434   1.710   4.712   3.139  0.0080  0.3520 -0.1139
 5157TIP3    H115435   1.656   4.726   3.217  0.5497 -3.9499  1.3260
 5157TIP3    H215436   1.796   4.748   3.162 -0.3055  0.6497  0.6146
 5158TIP3   OH215437   1.722   3.986   1.631  0.1320 -0.0627  0.4381
 5158TIP3    H115438   1.787   3.931   1.675 -0.6803 -0.4808  1.1268
 5158TIP3    H215439   1.721   4.067   1.682 -0.6505 -0.4644  1.0819
 5159TIP3   OH215440   7.191   4.376   1.388  0.2313  0.3639 -0.0341
 5159TIP3    H115441   7.227   4.455   1.428  1.3211  0.0284 -0.3349
 5159TIP3    H215442   7.185   4.313   1.460 -0.2310  0.5642  0.1131
 5160TIP3   OH215443   4.809   3.215   0.235  0.5999  0.3374  0.1289
 5160TIP3    H115444   4.729   3.166   0.255  1.3955 -1.0607  0.0411
 5160TIP3    H215445   4.787   3.265   0.157  0.4383 -1.7677 -1.2640
 5161TIP3   OH215446   0.695   4.607   5.817  0.5806  0.0022  0.2901
 5161TIP3    H115447   0.732   4.586   5.731 -0.3321 -0.5315  0.0192
 5161TIP3    H215448   0.633   4.678   5.800 -1.2916 -1.6156  0.1095
 5162TIP3   OH215449   2.168   2.494   4.991  0.3402 -0.0444  0.4199
 5162TIP3    H115450   2.074   2.474   4.996  0.6436 -1.4810  0.9627
 5162TIP3    H215451   2.172   2.589   4.985 -1.2083 -0.0256 -1.1886
 5163TIP3   OH215452   2.843   4.209   4.192 -0.4159 -0.4225  0.3702
 5163TIP3    H115453   2.769   4.169   4.238 -0.5653 -1.1764 -0.4915
 5163TIP3    H215454   2.866   4.285   4.245 -1.5417 -0.4109  0.8731
 5164TIP3   OH215455   7.053   1.872   2.200 -0.5324  0.8733  0.1474
 5164TIP3    H115456   7.072   1.796   2.144 -0.7734  1.0450 -0.1704
 5164TIP3    H215457   7.108   1.858   2.277  0.7091  1.2177 -0.6325
 5165TIP3   OH215458   6.516   1.514   3.532 -0.7347 -0.0193 -0.5188
 5165TIP3    H115459   6.531   1.493   3.439 -1.7795  0.0335 -0.7114
 5165TIP3    H215460   6.593   1.479   3.577 -0.4657 -0.5226 -1.3455
 5166TIP3   OH215461   4.014   0.428   4.341 -0.7584  0.9641  0.4102
 5166TIP3    H115462   4.101   0.445   4.306 -0.0068 -0.2599  1.5824
 5166TIP3    H215463   3.993   0.505   4.393  1.0739 -0.0408  2.7920
 5167TIP3   OH215464   2.821   3.848   2.030 -0.9812  0.3678 -0.3085
 5167TIP3    H115465   2.772   3.812   1.957 -1.3839  0.7163 -0.2149
 5167TIP3    H215466   2.873   3.918   1.992  1.7706 -1.8752 -0.9944
 5168TIP3   OH215467   1.033   5.810   3.314  0.1280 -0.4702 -0.2822
 5168TIP3    H115468   0.981   5.729   3.318 -0.5776 -0.0115  0.0390
 5168TIP3    H215469   1.018   5.844   3.226 -2.1070  0.9163  0.5446
 5169TIP3   OH215470   0.188   1.636   2.247  0.3959 -0.2821 -0.1356
 5169TIP3    H115471   0.195   1.546   2.215 -0.2718 -1.3617  2.4466
 5169TIP3    H215472   0.272   1.676   2.226  0.6288 -1.4246 -1.5195
 5170TIP3   OH215473   2.539   0.197   4.215 -0.3732 -0.2310 -0.4429
 5170TIP3    H115474   2.609   0.184   4.150 -1.0458 -2.0720 -0.8915
 5170TIP3    H215475   2.584   0.223   4.295  0.7243 -0.2661 -1.0327
 5171TIP3   OH215476   5.615   6.309   4.274 -0.5542  0.1908  0.0013
 5171TIP3    H115477   5.687   6.329   4.334 -0.4928  0.8059 -0.2673
 5171TIP3    H215478   5.637   6.357   4.194 -2.3600  2.2359  0.6422
 5172TIP3   OH215479   0.432   5.957   3.058 -0.0938  0.2197  0.0226
 5172TIP3    H115480   0.511   6.009   3.045  1.1309 -1.8843 -1.5929
 5172TIP3    H215481   0.377   6.010   3.116  1.4116  2.8728 -0.8170
 5173TIP3   OH215482   0.763   3.899   2.077 -0.0344  0.2646  0.6226
 5173TIP3    H115483   0.724   3.980   2.045 -1.0583 -0.2763  0.4714
 5173TIP3    H215484   0.790   3.919   2.166 -0.4267  0.7213  0.6431
 5174TIP3   OH215485   4.723   1.208   5.639 -0.4703 -0.0188 -0.2895
 5174TIP3    H115486   4.726   1.299   5.610  1.2706  0.1751  0.3929
 5174TIP3    H215487   4.698   1.212   5.731 -2.5446 -0.4192 -0.7696
 5175TIP3   OH215488   0.183   4.247   4.131  0.7783  0.0827 -0.1510
 5175TIP3    H115489   0.254   4.212   4.184  0.5014 -0.3541 -0.0627
 5175TIP3    H215490   0.137   4.170   4.097 -1.0164  0.2934  1.6190
 5176TIP3   OH215491   2.735   0.257   3.238 -0.1109 -0.6303  0.0387
 5176TIP3    H115492   2.825   0.285   3.250 -0.2810  1.0404 -1.8703
 5176TIP3    H215493   2.691   0.281   3.320  0.7910  0.3456  0.2614
 5177TIP3   OH215494   4.107   0.809   3.797  0.1182 -0.7094  0.6459
 5177TIP3    H115495   4.201   0.820   3.783 -0.0100  0.7862  0.8675
 5177TIP3    H215496   4.080   0.747   3.729  0.5375  2.0359 -2.2214
 5178TIP3   OH215497   6.851   3.998   3.754 -0.0463  0.1169  0.7313
 5178TIP3    H115498   6.827   3.997   3.847  1.9189 -0.4940  1.2700
 5178TIP3    H215499   6.857   4.091   3.732  0.5769  0.2833  1.5431
 5179TIP3   OH215500   0.411   3.905   3.492 -0.0571  0.2514  0.0298
 5179TIP3    H115501   0.408   3.991   3.534  0.5915  0.1897  0.2008
 5179TIP3    H215502   0.480   3.857   3.539 -1.4870 -0.9391  1.0303
 5180TIP3   OH215503   5.225   1.867   2.049 -0.6538  0.6707  0.0460
 5180TIP3    H115504   5.243   1.920   1.972 -0.8692  0.2001 -0.3319
 5180TIP3    H215505   5.194   1.784   2.014  0.9265 -0.1806  0.5976
 5181TIP3   OH215506   2.523   2.580   2.860 -0.3843 -0.3881  0.2031
 5181TIP3    H115507   2.498   2.490   2.840  1.1274 -1.1014  1.2970
 5181TIP3    H215508   2.511   2.588   2.955 -0.3105  0.5023  0.1517
 5182TIP3   OH215509   1.586   3.718   5.540  0.4427 -0.2800  0.5163
 5182TIP3    H115510   1.570   3.681   5.453  0.3463  0.4781  0.2045
 5182TIP3    H215511   1.681   3.716   5.550  0.4701 -0.0941  0.2763
 5183TIP3   OH215512   6.460   3.752   4.470 -0.5790 -0.4642  0.0871
 5183TIP3    H115513   6.520   3.822   4.443  0.6226 -1.2439  0.6547
 5183TIP3    H215514   6.509   3.703   4.537 -1.3282 -1.9418 -0.4126
 5184TIP3   OH215515   0.889   5.132   0.139  0.7280 -0.1503  0.0694
 5184TIP3    H115516   0.824   5.132   0.068  0.0669  0.0967  0.6550
 5184TIP3    H215517   0.930   5.046   0.134  1.1799  0.1153 -1.0416
 5185TIP3   OH215518   0.487   6.297   5.628  0.5349 -0.1541 -0.2143
 5185TIP3    H115519   0.474   6.331   5.717  1.2671 -1.6121  0.4822
 5185TIP3    H215520   0.582   6.296   5.618  0.4786 -0.8971 -0.6603
 5186TIP3   OH215521   3.822   5.463   2.120 -0.1439 -0.4301  0.2775
 5186TIP3    H115522   3.872   5.431   2.196  0.0445  1.3481  0.9573
 5186TIP3    H215523   3.888   5.471   2.051 -0.3287 -2.1276 -0.1372
 5187TIP3   OH215524   0.778   6.690   3.627  0.3312  0.1888 -0.3299
 5187TIP3    H115525   0.740   6.616   3.580  0.5201 -0.8052  1.0281
 5187TIP3    H215526   0.708   6.755   3.631 -1.4431 -1.6741  2.3072
 5188TIP3   OH215527   4.097   4.913   1.735  0.1650  0.2067 -0.0607
 5188TIP3    H115528   4.084   4.821   1.712  1.9819  0.1302 -0.9999
 5188TIP3    H215529   4.021   4.959   1.699 -0.2885 -0.7935 -0.3961
 5189TIP3   OH215530   3.547   1.542   3.043 -0.2813 -0.7928  0.4751
 5189TIP3    H115531   3.493   1.510   2.971  1.3852 -1.3745 -0.5728
 5189TIP3    H215532   3.582   1.625   3.012 -1.8265  0.4311  1.8129
 5190TIP3   OH215533   5.532   1.777   2.045  0.5000 -0.0624 -0.4381
 5190TIP3    H115534   5.462   1.809   2.102  1.5320 -0.4122  1.0630
 5190TIP3    H215535   5.527   1.834   1.968  0.1548  1.5534  0.7201
 5191TIP3   OH215536   2.434   2.570   3.438 -0.6892 -0.3664 -0.1095
 5191TIP3    H115537   2.423   2.634   3.368 -0.7154 -2.6080 -2.3217
 5191TIP3    H215538   2.526   2.580   3.465  0.1007 -1.0813 -2.2973
 5192TIP3   OH215539   2.330   5.761   4.830 -0.2291 -1.0731 -0.1219
 5192TIP3    H115540   2.403   5.704   4.855  2.4737  2.0400 -0.1433
 5192TIP3    H215541   2.357   5.798   4.746 -0.3900  2.1747  1.1012
 5193TIP3   OH215542   2.606   3.971   0.970 -0.2878  0.6746  0.0163
 5193TIP3    H115543   2.615   3.961   0.876 -2.9702  1.5428 -0.4275
 5193TIP3    H215544   2.691   4.004   0.999  0.9977 -0.8055 -1.8620
 5194TIP3   OH215545   1.623   4.861   2.656  0.2453  0.6038  0.2574
 5194TIP3    H115546   1.593   4.773   2.633  0.8572  0.6399 -0.7386
 5194TIP3    H215547   1.687   4.847   2.726 -1.0371  0.4296  1.4606
 5195TIP3   OH215548   1.983   2.621   4.265  0.2039 -0.0245  0.0082
 5195TIP3    H115549   1.952   2.586   4.182 -0.8704  0.2682  0.2599
 5195TIP3    H215550   1.939   2.706   4.273  0.6345  0.1470  0.6714
 5196TIP3   OH215551   0.870   2.728   4.942  0.2228  0.7782 -0.0812
 5196TIP3    H115552   0.881   2.754   4.850  2.3609 -0.8664 -0.3600
 5196TIP3    H215553   0.847   2.809   4.987  1.2266  2.0607 -1.7435
 5197TIP3   OH215554   3.098   3.785   3.483  0.1632 -0.5830  0.4583
 5197TIP3    H115555   3.189   3.813   3.475 -0.4637  1.1298 -1.9361
 5197TIP3    H215556   3.053   3.862   3.519 -0.8577 -0.0405 -1.8092
 5198TIP3   OH215557   4.810   5.067   2.056 -0.2278  0.1943  0.1519
 5198TIP3    H115558   4.814   5.017   2.138  1.4411  1.0255  0.6298
 5198TIP3    H215559   4.898   5.059   2.019 -0.8780  0.0552 -1.4583
 5199TIP3   OH215560   2.341   0.838   4.803  0.1991 -0.2072 -0.1069
 5199TIP3    H115561   2.375   0.799   4.884  1.9535  0.6916 -0.3546
 5199TIP3    H215562   2.413   0.892   4.771 -0.5705 -0.2938 -2.1176
 5200TIP3   OH215563  -0.014   5.094   0.816 -0.6931 -0.7982  0.5338
 5200TIP3    H115564   0.049   5.155   0.777  0.9830 -2.7699 -0.0324
 5200TIP3    H215565   0.005   5.096   0.909 -2.4883  1.4738  0.9369
 5201TIP3   OH215566   3.942   5.835   0.354  0.2962 -0.4267 -0.1595
 5201TIP3    H115567   3.936   5.756   0.299  1.2922  0.2707 -1.3067
 5201TIP3    H215568   3.952   5.907   0.292  2.0250  0.3367  0.9502
 5202TIP3   OH215569   0.182   6.221   5.671 -0.5198  0.4614  0.5069
 5202TIP3    H115570   0.197   6.316   5.668 -1.1980  0.5856  0.9500
 5202TIP3    H215571   0.087   6.212   5.677 -0.6004 -0.2858 -1.2897
 5203TIP3   OH215572   0.889   4.914   2.027  0.5434 -0.2116  0.4892
 5203TIP3    H115573   0.886   4.909   1.932 -0.4780  1.2502  0.3939
 5203TIP3    H215574   0.839   4.838   2.057 -1.7557  0.8946 -0.2715
 5204TIP3   OH215575   0.656   4.476   4.114 -1.0455  0.1659 -0.5324
 5204TIP3    H115576   0.636   4.395   4.065  2.5598 -0.4271 -1.3079
 5204TIP3    H215577   0.617   4.461   4.200 -1.3206 -1.9892 -0.9522
 5205TIP3   OH215578   0.292   4.361   5.183 -0.8440 -0.3131 -0.3143
 5205TIP3    H115579   0.237   4.294   5.143  0.8102 -1.8772 -0.0688
 5205TIP3    H215580   0.243   4.443   5.168 -1.2543 -1.0160 -3.8078
 5206TIP3   OH215581   0.155   0.883   5.418 -0.0526  0.5092 -0.5749
 5206TIP3    H115582   0.070   0.885   5.372  0.5192 -0.4971 -1.7545
 5206TIP3    H215583   0.149   0.807   5.475  0.1983  0.1841 -0.9756
 5207TIP3   OH215584   3.354   1.559   3.351  0.3713 -0.8802  0.1515
 5207TIP3    H115585   3.408   1.481   3.340  1.6786 -0.0630  0.5523
 5207TIP3    H215586   3.339   1.591   3.262 -0.3900 -1.7110 -0.0332
 5208TIP3   OH215587   5.382   3.018   4.542  0.0179  0.1726  0.2182
 5208TIP3    H115588   5.455   3.020   4.480 -0.8184  1.0538 -0.7562
 5208TIP3    H215589   5.321   2.955   4.506  0.3502 -0.7005  1.1304
 5209TIP3   OH215590   4.488   4.471   3.943  0.1577 -0.1933  0.0902
 5209TIP3    H115591   4.395   4.451   3.952 -0.4502  1.1613 -2.3763
 5209TIP3    H215592   4.523   4.396   3.894 -0.2883  0.5965 -1.4998
 5210TIP3   OH215593   4.989   6.493   3.653 -0.0939 -0.0532  1.0799
 5210TIP3    H115594   5.022   6.532   3.572 -0.5292  0.4262  1.1282
 5210TIP3    H215595   4.902   6.461   3.630  0.4412 -1.4369  0.9146
 5211TIP3   OH215596   0.759   3.923   4.046  0.5261  0.2388  0.6518
 5211TIP3    H115597   0.814   3.856   4.005  1.1226  0.2777  1.3668
 5211TIP3    H215598   0.692   3.942   3.981  1.5998  0.4895 -0.4130
 5212TIP3   OH215599   1.782   1.356   0.131 -0.6505  0.1680  1.0434
 5212TIP3    H115600   1.812   1.296   0.063  3.0535  0.0685  2.5416
 5212TIP3    H215601   1.705   1.313   0.168 -0.6447 -1.5115 -0.7235
 5213TIP3   OH215602   0.081   4.277   5.519 -0.0721  0.2818  0.1251
 5213TIP3    H115603   0.124   4.349   5.564  0.3754  0.3836 -0.4509
 5213TIP3    H215604   0.009   4.318   5.471  0.6526  0.4774 -0.8272
 5214TIP3   OH215605   4.394   1.624   3.915  0.2966 -0.4856 -0.2784
 5214TIP3    H115606   4.312   1.671   3.930  0.4342 -0.2085 -0.3885
 5214TIP3    H215607   4.428   1.661   3.834 -0.4734 -2.0067 -1.3592
 5215TIP3   OH215608   4.336   2.578   1.245  0.0634 -0.4695 -0.2580
 5215TIP3    H115609   4.313   2.610   1.332  0.0014 -1.0454 -0.0608
 5215TIP3    H215610   4.384   2.651   1.205 -0.9175  0.2434 -0.1808
 5216TIP3   OH215611   2.172   5.526   3.299  0.0886 -0.2340 -0.4290
 5216TIP3    H115612   2.214   5.602   3.259 -0.5438  0.7334  0.6445
 5216TIP3    H215613   2.083   5.556   3.318  0.4803 -0.4014  2.1187
 5217TIP3   OH215614   5.360   3.509   0.286 -0.3549 -0.1366  0.2919
 5217TIP3    H115615   5.377   3.565   0.362  0.2423 -1.3222  1.0680
 5217TIP3    H215616   5.320   3.430   0.323  0.8518 -1.1532 -0.4825
 5218TIP3   OH215617   4.021   0.508   0.746 -0.0372 -0.3296  0.1795
 5218TIP3    H115618   4.062   0.422   0.739  1.3121  0.2587  0.5493
 5218TIP3    H215619   4.094   0.570   0.737 -0.4916  0.7441  3.0026
 5219TIP3   OH215620   2.538   3.503   3.151 -0.7707 -0.2121  0.0229
 5219TIP3    H115621   2.466   3.497   3.089 -0.9391  0.2591  0.1700
 5219TIP3    H215622   2.603   3.559   3.106 -0.1400 -1.2875 -0.4483
 5220TIP3   OH215623   0.626   4.647   5.088  0.3163  0.3117 -0.3060
 5220TIP3    H115624   0.588   4.572   5.043  0.1238 -0.6918  1.4411
 5220TIP3    H215625   0.568   4.662   5.163  1.9989  0.2754  1.0661
 5221TIP3   OH215626   6.689   3.778   5.021  0.4023 -0.0570  0.2188
 5221TIP3    H115627   6.698   3.779   4.925 -1.0758 -0.5274  0.0497
 5221TIP3    H215628   6.691   3.870   5.046 -0.3673  0.1361 -0.3995
 5222TIP3   OH215629   5.114   5.028   2.353 -0.6727 -0.0307  0.3135
 5222TIP3    H115630   5.102   5.122   2.339 -1.1964 -0.4076 -2.2888
 5222TIP3    H215631   5.206   5.013   2.332 -0.5312 -0.1025  0.9461
 5223TIP3   OH215632   1.330   0.297   5.899  0.1027 -0.1939 -0.3602
 5223TIP3    H115633   1.259   0.306   5.836 -0.0126 -1.0297 -0.3603
 5223TIP3    H215634   1.404   0.264   5.847  0.0862 -0.6282 -0.1062
 5224TIP3   OH215635   0.420   3.510   0.000 -0.5048 -0.1615  0.1025
 5224TIP3    H115636   0.336   3.464   0.007 -0.3539 -0.3068  1.2297
 5224TIP3    H215637   0.403   3.596   0.038  0.4746 -1.1072  2.9798
 5225TIP3   OH215638   6.328   0.584   0.777  0.4119 -0.7526  0.2767
 5225TIP3    H115639   6.238   0.568   0.750  0.2445 -0.6002  0.7389
 5225TIP3    H215640   6.367   0.631   0.703  0.1758 -1.0113 -0.0127
 5226TIP3   OH215641   5.256   2.512   3.346 -0.2154  0.0426  0.2374
 5226TIP3    H115642   5.207   2.470   3.417 -0.8378  1.0671  0.4427
 5226TIP3    H215643   5.202   2.498   3.269 -1.4344  2.0386  0.6363
 5227TIP3   OH215644   0.909   1.076   4.535 -0.0236  0.2860  0.2988
 5227TIP3    H115645   0.867   1.161   4.545  0.9028  0.6996  0.7971
 5227TIP3    H215646   0.840   1.019   4.501 -1.1366  0.7979  1.5937
 5228TIP3   OH215647   0.665   5.091   4.923 -0.0303 -0.4130 -0.0067
 5228TIP3    H115648   0.595   5.093   4.989  0.3162 -0.2940  0.3621
 5228TIP3    H215649   0.691   4.999   4.918 -0.7024 -0.5754 -0.6731
 5229TIP3   OH215650   6.036   6.198   4.303 -0.4361  0.5082 -0.0497
 5229TIP3    H115651   5.993   6.244   4.231  0.6969  0.0219 -1.0555
 5229TIP3    H215652   6.056   6.267   4.366 -0.9748  1.0152 -0.4227
 5230TIP3   OH215653   0.929   1.720   4.134 -0.3111  0.0265  0.1765
 5230TIP3    H115654   0.927   1.656   4.205 -0.1150 -0.6365 -0.4046
 5230TIP3    H215655   1.021   1.724   4.108 -0.4395 -0.0430 -0.3041
 5231TIP3   OH215656   1.153   4.448   3.441 -0.2560  0.0317  0.2415
 5231TIP3    H115657   1.153   4.539   3.409  0.0762 -0.5940 -1.6546
 5231TIP3    H215658   1.231   4.409   3.403 -1.3110 -1.5281 -0.4329
 5232TIP3   OH215659   6.143   3.978   3.520 -0.1749  0.0010 -0.0498
 5232TIP3    H115660   6.129   3.893   3.563  0.0390  0.4014  0.8324
 5232TIP3    H215661   6.229   3.969   3.479 -0.3947 -0.3993 -0.4269
 5233TIP3   OH215662   5.134   0.651   3.790  0.0713 -0.6436  0.5046
 5233TIP3    H115663   5.170   0.640   3.702 -0.3138 -0.2385  0.2877
 5233TIP3    H215664   5.194   0.603   3.847 -0.7084 -2.5241 -0.1826
 5234TIP3   OH215665   6.856   4.396   3.340 -0.5325 -0.0557 -0.4434
 5234TIP3    H115666   6.846   4.488   3.364 -0.8270  0.0624 -0.9921
 5234TIP3    H215667   6.800   4.385   3.263  0.0536 -0.5128 -0.8220
 5235TIP3   OH215668   6.285   3.110   4.917  0.1586 -0.3774 -0.3428
 5235TIP3    H115669   6.206   3.069   4.881 -0.3189 -0.2475  0.5370
 5235TIP3    H215670   6.299   3.067   5.001  1.1295 -0.5141 -0.5566
 5236TIP3   OH215671   0.154   3.579   0.204  0.1714 -0.0771  0.6424
 5236TIP3    H115672   0.069   3.624   0.203  0.4786  0.5202 -0.6785
 5236TIP3    H215673   0.209   3.630   0.145  1.2251 -0.9097  0.8707
 5237TIP3   OH215674   7.129   6.679   2.790  0.2310  0.0119  0.4728
 5237TIP3    H115675   7.087   6.765   2.785  0.5653  0.1484 -0.0567
 5237TIP3    H215676   7.212   6.690   2.743  1.5617  0.1444  2.7355
 5238TIP3   OH215677   6.979   4.591   4.646 -0.4926 -0.1174  0.3261
 5238TIP3    H115678   6.973   4.497   4.631 -0.1788 -0.2889  1.1974
 5238TIP3    H215679   6.906   4.628   4.597  0.4600 -0.6081 -1.5344
 5239TIP3   OH215680   3.740   2.810   4.473  0.2809 -0.3907  0.1314
 5239TIP3    H115681   3.692   2.886   4.442  2.5979  0.9889 -0.2907
 5239TIP3    H215682   3.733   2.747   4.401 -2.7052 -1.2080  0.9770
 5240TIP3   OH215683   2.385   2.514   2.484  0.2053  0.1289  0.7101
 5240TIP3    H115684   2.409   2.480   2.398  1.3831 -1.2595  1.5472
 5240TIP3    H215685   2.350   2.601   2.466 -2.3236 -1.1910 -1.4708
 5241TIP3   OH215686   0.258   1.176   2.499  0.2534  0.0198  0.0678
 5241TIP3    H115687   0.209   1.236   2.443  1.3666  1.5729  0.6958
 5241TIP3    H215688   0.238   1.204   2.588  0.5162 -0.7806  0.3903
 5242TIP3   OH215689   0.186   3.404   0.426 -0.7419 -0.1131 -0.0264
 5242TIP3    H115690   0.167   3.484   0.377 -0.3726  1.2033  1.8945
 5242TIP3    H215691   0.258   3.363   0.376 -1.9417 -0.1024 -1.8750
 5243TIP3   OH215692   6.426   0.964   3.967  0.0243  0.2529  0.4228
 5243TIP3    H115693   6.448   0.905   4.040  1.8346 -1.7901 -1.6227
 5243TIP3    H215694   6.333   0.981   3.977  0.4036  1.0308  3.8497
 5244TIP3   OH215695   0.876   3.660   4.210  0.1728  0.1255  0.2397
 5244TIP3    H115696   0.792   3.668   4.255  0.0104 -0.8197  0.1374
 5244TIP3    H215697   0.853   3.644   4.119  0.5089  2.9919 -0.4205
 5245TIP3   OH215698   2.207   0.586   4.050 -0.0433  0.0144  0.6746
 5245TIP3    H115699   2.151   0.651   4.093  1.4032  1.5629  0.3290
 5245TIP3    H215700   2.150   0.545   3.985 -0.8796  1.3060  0.5447
 5246TIP3   OH215701   4.419   2.812   2.300  0.2719 -0.0376 -0.2013
 5246TIP3    H115702   4.329   2.780   2.288  0.0735  0.1346  0.7039
 5246TIP3    H215703   4.468   2.772   2.229 -0.6408  0.3629 -1.0902
 5247TIP3   OH215704   3.721   4.187   4.071  0.2453  0.3363  0.3710
 5247TIP3    H115705   3.797   4.166   4.124  0.3678 -0.1427  0.0086
 5247TIP3    H215706   3.666   4.109   4.075  0.1641  0.3687 -0.0488
 5248TIP3   OH215707   4.838   5.524   1.712 -0.0057 -0.3799  0.6215
 5248TIP3    H115708   4.753   5.481   1.722 -0.1218  0.1968  2.4400
 5248TIP3    H215709   4.901   5.453   1.721 -0.2543 -0.5356  1.1859
 5249TIP3   OH215710   5.578   1.903   4.356  0.3011  0.6336 -0.6296
 5249TIP3    H115711   5.555   1.974   4.417  0.8479  1.2440 -1.1226
 5249TIP3    H215712   5.519   1.832   4.379 -0.2686  1.2556 -0.1306
 5250TIP3   OH215713   4.568   3.920   0.113 -0.5681 -0.2525  0.2788
 5250TIP3    H115714   4.509   3.928   0.188 -0.9778 -1.7417  0.1440
 5250TIP3    H215715   4.542   3.839   0.070 -0.5403  0.7138 -1.6797
 5251TIP3   OH215716   7.222   1.396   2.152  0.2421 -0.0869  0.1306
 5251TIP3    H115717   7.146   1.453   2.159  0.1433 -0.2979  0.8017
 5251TIP3    H215718   7.186   1.308   2.145  0.4192 -0.4436  2.8060
 5252TIP3   OH215719   6.222   1.494   0.450  0.3146  0.1172 -0.0865
 5252TIP3    H115720   6.199   1.581   0.483  1.0822 -0.0505  0.9687
 5252TIP3    H215721   6.149   1.469   0.393 -1.1786  0.4031  1.6107
 5253TIP3   OH215722   2.327   1.683   1.056 -0.3242 -0.2789  0.0871
 5253TIP3    H115723   2.358   1.671   1.146 -0.8459  0.3593  0.3652
 5253TIP3    H215724   2.406   1.685   1.003  0.2054  1.9090  0.8433
 5254TIP3   OH215725   4.268   4.258   4.896  0.3025  0.3510  0.0958
 5254TIP3    H115726   4.283   4.337   4.948  0.5717  0.3772 -0.0209
 5254TIP3    H215727   4.173   4.245   4.901 -0.0331  1.7898 -1.4596
 5255TIP3   OH215728   1.339   2.966   4.388 -0.2386  0.8118 -0.2103
 5255TIP3    H115729   1.424   3.009   4.400  0.1864  0.0565 -0.4945
 5255TIP3    H215730   1.344   2.887   4.442 -1.3887  1.5795  1.1107
 5256TIP3   OH215731   0.349   3.790   1.996  0.1902  0.4653  0.7285
 5256TIP3    H115732   0.324   3.738   1.920  1.2432  0.3317  0.4671
 5256TIP3    H215733   0.272   3.786   2.053  0.0148 -0.8532  0.4350
 5257TIP3   OH215734   0.591   1.804   2.860  0.1611  0.4671 -0.1993
 5257TIP3    H115735   0.646   1.748   2.915  0.5757  0.2880 -0.7826
 5257TIP3    H215736   0.645   1.882   2.843  0.6096 -0.0994 -1.5121
 5258TIP3   OH215737   5.042   1.773   2.439  0.4664 -0.0452  0.2190
 5258TIP3    H115738   5.118   1.819   2.404  0.2697 -0.6382 -1.0182
 5258TIP3    H215739   5.028   1.814   2.525  2.7821 -0.6153  0.9389
 5259TIP3   OH215740   1.034   5.157   4.351 -0.0509  0.2621 -0.2882
 5259TIP3    H115741   0.986   5.234   4.321  0.4794  0.4180 -0.7656
 5259TIP3    H215742   1.061   5.113   4.270 -0.1104 -0.2743 -0.0184
 5260TIP3   OH215743   5.090   3.266   5.652 -0.7686 -0.9151  0.2656
 5260TIP3    H115744   5.185   3.261   5.655 -0.7630 -1.4355 -0.3984
 5260TIP3    H215745   5.064   3.200   5.587 -1.3644  1.3013 -1.9286
 5261TIP3   OH215746   0.009   4.562   0.441  0.0910  0.2316  0.4110
 5261TIP3    H115747   0.071   4.581   0.511  2.1359 -1.2426 -0.8770
 5261TIP3    H215748  -0.020   4.472   0.458 -0.3495  0.3051  0.0523
 5262TIP3   OH215749   0.319   1.632   0.401  0.3232  0.2847 -0.2422
 5262TIP3    H115750   0.241   1.675   0.365 -0.1614 -1.8369 -1.9371
 5262TIP3    H215751   0.363   1.596   0.324  1.5393 -0.8742  0.9614
 5263TIP3   OH215752   6.519   6.465   5.165 -0.0888  0.0249  0.0394
 5263TIP3    H115753   6.609   6.492   5.145 -0.1578  0.4401  0.2875
 5263TIP3    H215754   6.522   6.369   5.164  0.2177  0.0340 -0.5795
 5264TIP3   OH215755   0.626   2.493   1.110 -0.0786 -0.1978 -0.5019
 5264TIP3    H115756   0.672   2.521   1.031 -2.1537  3.5007 -0.6173
 5264TIP3    H215757   0.674   2.535   1.181 -0.8294  0.2751 -0.2649
 5265TIP3   OH215758   4.600   0.700   3.822  0.0398  0.0232 -0.5119
 5265TIP3    H115759   4.689   0.697   3.789  1.3382  2.0348  2.3731
 5265TIP3    H215760   4.591   0.620   3.875  2.0749  1.9588  3.1594
 5266TIP3   OH215761   2.396   4.851   5.314 -0.6123 -0.7254  0.2193
 5266TIP3    H115762   2.463   4.918   5.301 -0.7615 -0.7073 -0.4684
 5266TIP3    H215763   2.315   4.900   5.329 -0.6770 -0.7521 -0.0450
 5267TIP3   OH215764   0.102   5.844   2.265  0.1446 -0.2036 -0.3683
 5267TIP3    H115765   0.111   5.935   2.295  0.0523  0.2786 -1.7416
 5267TIP3    H215766   0.010   5.836   2.241  0.3469 -0.3932 -1.0889
 5268TIP3   OH215767   1.351   0.161   5.604 -0.4197 -0.2986 -0.1226
 5268TIP3    H115768   1.313   0.077   5.630 -1.4988  0.0638 -0.4593
 5268TIP3    H215769   1.304   0.184   5.524  2.3330 -1.0571 -2.0727
 5269TIP3   OH215770   6.276   6.350   1.307 -0.3640 -0.7622  0.7254
 5269TIP3    H115771   6.281   6.359   1.402  2.5846  1.6747  0.4952
 5269TIP3    H215772   6.220   6.423   1.279 -0.3571 -0.8410  0.5035
 5270TIP3   OH215773   1.084   0.867   4.413 -0.1080  0.3199 -0.0006
 5270TIP3    H115774   1.140   0.878   4.489  0.8732  2.0057 -0.9070
 5270TIP3    H215775   0.997   0.895   4.442  0.0746  0.1350  0.7209
 5271TIP3   OH215776   5.488   1.918   1.812  0.0092  0.3109 -0.3501
 5271TIP3    H115777   5.567   1.970   1.800 -0.6386  1.4400  0.1364
 5271TIP3    H215778   5.456   1.901   1.724 -0.4184  1.7875 -0.5092
 5272TIP3   OH215779   0.915   0.662   1.417  0.1923  0.0055 -0.0275
 5272TIP3    H115780   0.924   0.745   1.369  2.7450  0.3395  0.9084
 5272TIP3    H215781   0.833   0.672   1.466  0.1476  1.7337 -0.3875
 5273TIP3   OH215782   4.657   4.684   2.030 -0.0704 -0.1665  0.2926
 5273TIP3    H115783   4.602   4.609   2.053  0.2961 -0.1529  1.2311
 5273TIP3    H215784   4.601   4.760   2.048 -0.1843 -0.1852  0.0314
 5274TIP3   OH215785   4.800   1.833   3.019 -0.1317  0.3395  0.0548
 5274TIP3    H115786   4.780   1.920   3.055 -1.4681 -0.5239  1.4897
 5274TIP3    H215787   4.716   1.799   2.988  0.2556 -0.7105  0.1071
 5275TIP3   OH215788   3.146   5.238   5.077 -0.2607 -0.0442 -0.3106
 5275TIP3    H115789   3.184   5.305   5.134  0.8805 -0.9055 -0.0278
 5275TIP3    H215790   3.221   5.199   5.032 -0.6620 -2.4286  0.9502
 5276TIP3   OH215791   5.109   6.443   0.019 -0.6841 -0.0234  0.2217
 5276TIP3    H115792   5.194   6.416   0.053 -0.7013 -1.2032 -0.6057
 5276TIP3    H215793   5.119   6.536   0.001  0.2624 -0.0378  0.6012
 5277TIP3   OH215794   1.034   3.139   4.881  0.6324 -0.3363  0.0209
 5277TIP3    H115795   1.078   3.068   4.835 -1.8054 -0.8578 -1.7241
 5277TIP3    H215796   1.033   3.111   4.973  0.7431 -2.0200 -0.4507
 5278TIP3   OH215797   1.620   5.929   0.985  0.5910  0.6024 -0.5112
 5278TIP3    H115798   1.698   5.898   0.940  0.4621 -0.7965  0.1471
 5278TIP3    H215799   1.633   5.901   1.076 -1.0945 -0.5929 -0.5787
 5279TIP3   OH215800   3.178   4.492   4.736  0.1563  0.4293 -0.2594
 5279TIP3    H115801   3.270   4.486   4.764 -0.1492 -1.0760  0.5272
 5279TIP3    H215802   3.164   4.585   4.722  1.0771  1.0362  2.2371
 5280TIP3   OH215803   5.062   6.291   4.370 -0.1458 -0.1231 -0.1156
 5280TIP3    H115804   5.149   6.301   4.407  0.4598  1.0507 -1.7568
 5280TIP3    H215805   5.007   6.351   4.420 -0.0789 -0.9323  0.9845
 5281TIP3   OH215806   3.818   2.118   5.818 -0.7662 -0.1920 -0.0352
 5281TIP3    H115807   3.775   2.042   5.778 -0.9135 -1.0559  1.6787
 5281TIP3    H215808   3.865   2.160   5.745 -0.1149 -2.3013 -0.9072
 5282TIP3   OH215809   1.665   4.968   4.435 -0.1755  0.5347 -0.6870
 5282TIP3    H115810   1.641   4.896   4.377 -0.4210  1.2623 -1.5045
 5282TIP3    H215811   1.625   5.045   4.395 -0.4218  1.0401  0.4981
 5283TIP3   OH215812   1.117   4.394   4.101  0.0639  0.4576  0.2682
 5283TIP3    H115813   1.042   4.351   4.142 -0.8451  0.6937 -1.0555
 5283TIP3    H215814   1.101   4.383   4.007  1.3127  1.1760 -0.0455
 5284TIP3   OH215815   6.737   2.268   5.179  0.8657  0.1147  0.3572
 5284TIP3    H115816   6.790   2.254   5.257  2.3146  0.3484 -0.5237
 5284TIP3    H215817   6.653   2.228   5.198  1.5398 -0.7489  1.6291
 5285TIP3   OH215818   4.570   6.756   4.045  0.4777 -0.5471 -0.2930
 5285TIP3    H115819   4.528   6.760   3.959 -1.0416 -0.9075  0.4009
 5285TIP3    H215820   4.640   6.691   4.035  0.2256 -0.6890 -1.2052
 5286TIP3   OH215821   4.187   2.949   5.545 -0.0030 -0.5116 -0.1160
 5286TIP3    H115822   4.179   2.855   5.561  1.9966 -0.3236  2.7045
 5286TIP3    H215823   4.280   2.963   5.531 -0.3694  1.0057 -1.3347
 5287TIP3   OH215824   4.312   1.175   0.832 -0.3899  0.3225  0.5614
 5287TIP3    H115825   4.396   1.181   0.877 -0.2665  1.8299  0.1978
 5287TIP3    H215826   4.320   1.096   0.777  1.0386  0.7835  0.0597
 5288TIP3   OH215827   2.922   0.039   3.630 -0.3875  0.7246  0.0858
 5288TIP3    H115828   2.921   0.104   3.699  0.4989 -0.2521  1.0647
 5288TIP3    H215829   2.833   0.004   3.627 -0.4119  0.7240  0.7823
 5289TIP3   OH215830   6.777   4.894   5.534 -0.1841 -0.9593 -0.3611
 5289TIP3    H115831   6.723   4.964   5.570  2.0293 -0.6033  2.6340
 5289TIP3    H215832   6.717   4.820   5.526 -2.7895  1.2242 -4.3823
 5290TIP3   OH215833   2.909   2.506   5.875  0.2630 -0.0695 -0.2443
 5290TIP3    H115834   2.896   2.598   5.852 -0.2746 -0.1898 -0.4381
 5290TIP3    H215835   2.823   2.476   5.902  0.8944  0.1129  2.1930
 5291TIP3   OH215836   2.103   5.758   0.495 -0.0669  0.3163 -0.1810
 5291TIP3    H115837   2.013   5.753   0.527  0.1966 -0.5539  0.4445
 5291TIP3    H215838   2.098   5.728   0.404  0.0548 -3.1192  0.8001
 5292TIP3   OH215839   0.113   3.995   4.026 -0.5890 -0.5274 -0.0309
 5292TIP3    H115840   0.139   3.903   4.021 -2.2644 -1.0451  0.3386
 5292TIP3    H215841   0.033   4.001   3.975 -1.4921  0.3367  1.4011
 5293TIP3   OH215842   3.106   4.344   1.141 -0.2503  0.1668 -0.4800
 5293TIP3    H115843   3.078   4.399   1.068 -0.8284  2.4063  1.3021
 5293TIP3    H215844   3.028   4.336   1.196  0.5046 -0.3020  0.5637
 5294TIP3   OH215845   5.547   3.035   3.954 -0.0802  0.0365  0.3125
 5294TIP3    H115846   5.489   3.043   4.030  0.3549  1.0226  0.5502
 5294TIP3    H215847   5.507   2.966   3.901 -1.6262  0.8875  0.3323
 5295TIP3   OH215848   1.080   3.599   2.910 -0.5001  0.1044 -0.1653
 5295TIP3    H115849   1.100   3.691   2.890  0.3371 -0.0127  0.0698
 5295TIP3    H215850   1.115   3.550   2.836 -0.8181 -0.0342 -0.2230
 5296TIP3   OH215851   1.255   4.573   0.426  0.0972 -0.0647 -0.1081
 5296TIP3    H115852   1.259   4.654   0.477 -4.2935  1.4457 -1.6073
 5296TIP3    H215853   1.304   4.593   0.346  0.9484  0.2417  0.4814
 5297TIP3   OH215854   3.860   4.462   4.696 -0.2388  0.3982  0.2387
 5297TIP3    H115855   3.927   4.483   4.631 -1.0967 -1.2089 -1.2365
 5297TIP3    H215856   3.785   4.516   4.671 -0.9848 -1.1033 -0.9255
 5298TIP3   OH215857   6.418   1.398   5.451  0.5532  0.3449  0.2559
 5298TIP3    H115858   6.345   1.408   5.390  0.1198 -0.1473  0.6817
 5298TIP3    H215859   6.488   1.357   5.400 -0.4303 -1.7850  0.5213
 5299TIP3   OH215860   4.146   2.385   5.757  0.0312  0.1634 -0.0871
 5299TIP3    H115861   4.080   2.337   5.705  2.0453 -0.0239 -2.6696
 5299TIP3    H215862   4.105   2.470   5.773 -1.0477 -0.0958 -1.2326
 5300TIP3   OH215863   5.260   3.107   0.660  0.0083  0.0332  0.2620
 5300TIP3    H115864   5.321   3.035   0.673 -0.0148  0.0422  0.4150
 5300TIP3    H215865   5.174   3.068   0.676 -0.0537 -0.0562 -0.2464
 5301TIP3   OH215866   3.772   0.416   2.276 -0.6360  0.2807 -0.4973
 5301TIP3    H115867   3.744   0.445   2.190  0.2390  0.7536 -0.6452
 5301TIP3    H215868   3.868   0.422   2.273 -0.5493 -0.4673  0.2397
 5302TIP3   OH215869   4.428   3.558   0.392  0.2147 -0.5282 -0.4706
 5302TIP3    H115870   4.403   3.521   0.476 -0.1443 -1.1706 -0.8513
 5302TIP3    H215871   4.418   3.486   0.329  0.6748 -0.1185 -1.0316
 5303TIP3   OH215872   5.677   4.293   3.817 -0.2894 -0.2568 -0.1622
 5303TIP3    H115873   5.587   4.316   3.840  0.4063  1.1154  1.4184
 5303TIP3    H215874   5.679   4.294   3.722 -2.6157 -3.1625 -0.3905
 5304TIP3   OH215875   2.448   3.584   1.469  0.7603  0.4329 -0.3894
 5304TIP3    H115876   2.372   3.585   1.527  0.8061  0.2433 -0.3225
 5304TIP3    H215877   2.442   3.665   1.419 -0.3957 -0.3440 -1.5851
 5305TIP3   OH215878   0.729   3.881   4.836  0.2419  0.4468 -0.0246
 5305TIP3    H115879   0.713   3.973   4.856 -1.0722  0.1059  0.5955
 5305TIP3    H215880   0.781   3.849   4.909 -0.0983  0.4700  0.2275
 5306TIP3   OH215881   6.232   6.011   2.332  0.4293  0.5083  0.5694
 5306TIP3    H115882   6.153   5.961   2.313  0.7936  0.7025 -1.6921
 5306TIP3    H215883   6.303   5.947   2.328  0.4999  0.4706  1.8809
 5307TIP3   OH215884   1.793   2.865   5.553  0.2475  0.3754 -0.2384
 5307TIP3    H115885   1.840   2.871   5.470 -1.3063 -0.9732 -1.2504
 5307TIP3    H215886   1.755   2.952   5.566  0.0535  0.4397 -1.2163
 5308TIP3   OH215887   0.951   6.514   3.131 -0.2586  0.5067  0.4042
 5308TIP3    H115888   0.952   6.453   3.205 -1.6751  0.4990  0.4560
 5308TIP3    H215889   1.008   6.474   3.066 -1.2964 -1.0032  0.3693
 5309TIP3   OH215890   0.004   0.351   5.113  0.1690  0.2702  0.2627
 5309TIP3    H115891   0.075   0.382   5.170  0.3047  1.2167 -0.4030
 5309TIP3    H215892  -0.020   0.265   5.149 -0.4368  1.2430  2.3930
 5310TIP3   OH215893   6.786   6.432   0.554  0.0725  0.2450  0.3798
 5310TIP3    H115894   6.708   6.377   0.545  0.0214  0.2343  0.8419
 5310TIP3    H215895   6.856   6.371   0.577 -0.0910  0.4248  1.3939
 5311TIP3   OH215896   2.620   2.576   1.992 -0.0991  0.1009 -0.3367
 5311TIP3    H115897   2.576   2.638   2.051  1.2253  2.0187 -1.2584
 5311TIP3    H215898   2.570   2.581   1.911 -0.4524 -0.6611 -0.1716
 5312TIP3   OH215899   5.990   2.914   3.392  0.4358 -0.1851 -0.8417
 5312TIP3    H115900   5.968   3.007   3.391  2.4623  0.3988  1.0072
 5312TIP3    H215901   5.910   2.872   3.425  0.2513  1.2002  0.6183
 5313TIP3   OH215902   6.940   5.935   3.258 -0.0884  0.0073  0.4689
 5313TIP3    H115903   6.984   6.018   3.280 -0.7214 -0.2018  2.7873
 5313TIP3    H215904   6.979   5.871   3.317 -0.9506 -0.9382  0.0366
 5314TIP3   OH215905   1.410   5.745   5.339  0.4764 -0.6900 -0.2735
 5314TIP3    H115906   1.380   5.684   5.273  1.1130 -0.8769 -0.4017
 5314TIP3    H215907   1.451   5.690   5.406 -0.4917 -0.5321  0.4629
 5315TIP3   OH215908   1.624   2.036   0.521  0.6899  0.5492  0.2306
 5315TIP3    H115909   1.605   2.106   0.458  1.2230  0.3031 -0.2093
 5315TIP3    H215910   1.712   2.055   0.552  1.7808 -1.1287 -1.5593
 5316TIP3   OH215911   0.416   2.112   2.817  0.1953  0.1613 -0.1713
 5316TIP3    H115912   0.447   2.104   2.907 -1.9813  1.8678  0.8254
 5316TIP3    H215913   0.368   2.032   2.800  0.1071  0.0942  0.3975
 5317TIP3   OH215914   4.434   6.022   0.625  0.1105 -0.1325  0.0578
 5317TIP3    H115915   4.435   6.035   0.530 -0.6732 -1.0590 -0.0934
 5317TIP3    H215916   4.473   6.102   0.661 -0.1521  0.4963 -1.0144
 5318TIP3   OH215917   2.534   2.141   0.585  0.3253  0.4437  0.0850
 5318TIP3    H115918   2.507   2.197   0.513 -1.0439  0.6247  0.7207
 5318TIP3    H215919   2.540   2.053   0.546  0.8576  0.7387 -0.5231
 5319TIP3   OH215920   3.763   4.939   3.345 -0.0679 -0.4377  0.3627
 5319TIP3    H115921   3.743   5.020   3.391 -0.4752 -1.1193  1.4151
 5319TIP3    H215922   3.836   4.901   3.393  0.0827 -0.7303 -0.0888
 5320TIP3   OH215923   5.799   6.708   4.080 -0.2777  0.4837 -0.0107
 5320TIP3    H115924   5.777   6.779   4.019  0.8924  0.7522 -0.1579
 5320TIP3    H215925   5.750   6.633   4.047 -0.6388  0.9356 -0.5456
 5321TIP3   OH215926   5.408   4.751   1.392  0.4004 -0.3115  0.5744
 5321TIP3    H115927   5.346   4.679   1.380 -0.6966  0.6773  0.0143
 5321TIP3    H215928   5.438   4.772   1.304  1.9897 -1.1287  0.8891
 5322TIP3   OH215929   2.080   6.473   1.702 -0.7703 -0.1018  0.3665
 5322TIP3    H115930   2.045   6.441   1.619  4.5047 -3.0202 -1.1906
 5322TIP3    H215931   2.057   6.405   1.766 -0.1705 -0.7154 -0.0566
 5323TIP3   OH215932   3.654   5.325   2.805 -0.2711 -0.3895  1.0388
 5323TIP3    H115933   3.657   5.411   2.764 -1.7516 -1.8781 -2.5572
 5323TIP3    H215934   3.574   5.327   2.858  0.0128  0.5710  1.4595
 5324TIP3   OH215935   2.667   5.631   2.282  0.1942 -0.3321 -0.0023
 5324TIP3    H115936   2.649   5.673   2.198  2.3073 -0.4563 -0.5894
 5324TIP3    H215937   2.595   5.658   2.339 -0.5215  0.9406 -1.4366
 5325TIP3   OH215938   6.184   5.029   2.038  0.4819  0.0397 -0.1625
 5325TIP3    H115939   6.258   4.968   2.039  1.5541  1.2890  0.6365
 5325TIP3    H215940   6.177   5.057   1.947  1.3144  0.2481 -0.1720
 5326TIP3   OH215941   3.266   4.921   4.139  0.0459 -0.0180  0.0154
 5326TIP3    H115942   3.294   4.833   4.115  1.7588  0.0586  1.5195
 5326TIP3    H215943   3.323   4.946   4.212 -1.3601  1.7758  0.5965
 5327TIP3   OH215944   5.435   3.407   1.651  0.0646  0.0865  0.5397
 5327TIP3    H115945   5.410   3.388   1.741  0.1180 -0.0665  0.5216
 5327TIP3    H215946   5.355   3.443   1.611 -0.0440 -0.1274  0.5635
 5328TIP3   OH215947   2.219   0.046   0.826 -0.1809  0.3735 -0.4138
 5328TIP3    H115948   2.315   0.044   0.823 -0.2100 -0.0237 -2.5502
 5328TIP3    H215949   2.192  -0.034   0.781 -1.5001  1.4486 -1.6327
 5329TIP3   OH215950   2.158   1.830   3.154  0.0031 -0.1483 -0.2110
 5329TIP3    H115951   2.195   1.918   3.143  1.5162 -0.5047  1.5619
 5329TIP3    H215952   2.231   1.776   3.182 -1.1933 -1.6824  0.1026
 5330TIP3   OH215953   0.510   4.585   1.748  0.5197 -0.2329 -0.1794
 5330TIP3    H115954   0.488   4.664   1.700  0.7276 -0.3181 -0.4139
 5330TIP3    H215955   0.508   4.515   1.683 -4.1680 -1.2900  0.6868
 5331TIP3   OH215956   2.645   6.420   5.380  0.6225 -0.2622 -0.1001
 5331TIP3    H115957   2.639   6.378   5.466  2.5485 -1.1041 -0.3353
 5331TIP3    H215958   2.642   6.348   5.318  3.0936 -0.0553 -0.5472
 5332TIP3   OH215959   6.843   1.939   2.037  0.0529  0.4080 -0.1790
 5332TIP3    H115960   6.774   1.884   2.074 -0.0317 -0.2191 -1.2260
 5332TIP3    H215961   6.920   1.920   2.090  0.0491 -0.8214 -0.5790
 5333TIP3   OH215962   2.403   4.468   5.129 -0.0331 -0.3367  0.1881
 5333TIP3    H115963   2.326   4.521   5.151 -1.5363 -1.5890 -1.6876
 5333TIP3    H215964   2.477   4.525   5.148 -1.4993  1.7701 -0.0149
 5334TIP3   OH215965   3.732   2.496   3.462 -0.0112 -0.0620 -0.2220
 5334TIP3    H115966   3.701   2.410   3.434 -0.8951 -0.3182  1.4301
 5334TIP3    H215967   3.825   2.496   3.441  0.0988 -1.6046  0.1440
 5335TIP3   OH215968   3.545   3.977   4.107  0.1513 -0.6107  0.1391
 5335TIP3    H115969   3.521   3.898   4.155  1.6052 -0.6468  0.8620
 5335TIP3    H215970   3.562   3.947   4.018  0.2723 -1.0444  0.3039
 5336TIP3   OH215971   2.772   6.444   2.821 -0.0813 -0.3806 -0.9296
 5336TIP3    H115972   2.769   6.349   2.816  0.6829 -0.3869 -1.4863
 5336TIP3    H215973   2.740   6.465   2.909 -0.3276 -1.1384 -0.8332
 5337TIP3   OH215974   5.742   6.309   3.561 -0.4040  0.5162  0.0637
 5337TIP3    H115975   5.787   6.253   3.625  2.2650  0.6837 -1.5234
 5337TIP3    H215976   5.673   6.253   3.525  0.1633 -0.6716  0.7398
 5338TIP3   OH215977   5.730   3.438   3.361  0.1574 -0.2026 -0.2347
 5338TIP3    H115978   5.778   3.521   3.359  0.0903 -0.1850 -1.7848
 5338TIP3    H215979   5.649   3.459   3.408  0.7769  0.2345  0.6799
 5339TIP3   OH215980   6.812   1.110   2.761  0.3187 -0.7787  0.6186
 5339TIP3    H115981   6.901   1.080   2.743  0.0264 -1.5437  0.3906
 5339TIP3    H215982   6.818   1.205   2.762  1.3297 -0.8318  1.5930
 5340TIP3   OH215983   0.423   5.249   0.508  0.4309 -0.4789 -0.3223
 5340TIP3    H115984   0.497   5.225   0.563  0.8496 -1.2859 -1.2146
 5340TIP3    H215985   0.442   5.340   0.481  0.3634 -0.1830  0.6052
 5341TIP3   OH215986   6.341   3.209   4.123  0.2088 -0.1550  0.3304
 5341TIP3    H115987   6.426   3.244   4.097 -1.2885  2.4030 -1.5215
 5341TIP3    H215988   6.325   3.246   4.210 -0.0596  1.4997 -0.3836
 5342TIP3   OH215989   0.468   2.374   4.254 -0.0935 -0.3805  0.2594
 5342TIP3    H115990   0.499   2.388   4.344  0.9236 -0.3861 -0.0886
 5342TIP3    H215991   0.501   2.287   4.231 -0.8527 -0.6297  0.0788
 5343TIP3   OH215992   0.065   3.345   4.179  0.0899 -0.1024  0.1296
 5343TIP3    H115993  -0.013   3.340   4.125 -0.4025 -0.7192  0.8792
 5343TIP3    H215994   0.131   3.293   4.132  0.2954  1.0051 -0.8626
 5344TIP3   OH215995   3.330   0.999   4.508  0.4331 -0.0863 -0.0629
 5344TIP3    H115996   3.260   0.973   4.448  1.4547  0.7258 -1.6733
 5344TIP3    H215997   3.322   0.938   4.582 -0.4654 -1.5670 -1.3183
 5345TIP3   OH215998   0.482   0.695   3.892 -0.3022  0.1221  0.1775
 5345TIP3    H115999   0.541   0.647   3.833  1.3015  1.0366  0.9780
 5345TIP3    H216000   0.452   0.770   3.840  1.3024  1.0602  0.5619
 5346TIP3   OH216001   5.107   6.223   3.292  0.6906 -0.5697  0.7467
 5346TIP3    H116002   5.094   6.141   3.339 -0.0854 -0.7240  0.2762
 5346TIP3    H216003   5.179   6.266   3.339  0.6485 -1.2016  1.4113
 5347TIP3   OH216004   2.974   3.055   1.480 -0.2854 -0.3364  0.0015
 5347TIP3    H116005   2.917   2.990   1.440 -0.0633 -0.2384 -0.4831
 5347TIP3    H216006   3.047   3.064   1.419 -0.8022  1.0954 -0.4377
 5348TIP3   OH216007   1.163   0.149   1.814 -0.2357 -0.1925  0.3430
 5348TIP3    H116008   1.104   0.081   1.782  0.4954 -0.8379  0.3540
 5348TIP3    H216009   1.142   0.156   1.907 -1.2771  0.5891  0.0619
 5349TIP3   OH216010   4.812   0.277   0.518 -0.0987 -0.3192  0.5074
 5349TIP3    H116011   4.791   0.320   0.601 -0.6042 -0.5733  0.5175
 5349TIP3    H216012   4.907   0.276   0.514 -0.0803  0.3177  0.7601
 5350TIP3   OH216013   6.578   1.058   2.418 -0.1735 -0.3916  0.5964
 5350TIP3    H116014   6.630   1.135   2.399  0.3088  0.1905  3.7006
 5350TIP3    H216015   6.533   1.038   2.336  3.0555  0.4811 -1.5695
 5351TIP3   OH216016   2.927   3.374   2.785 -1.3122  0.0520  0.4081
 5351TIP3    H116017   2.968   3.301   2.831  1.2475  1.3827  0.4306
 5351TIP3    H216018   2.909   3.340   2.698 -0.5498 -0.7631  0.5498
 5352TIP3   OH216019   2.371   1.096   2.050  0.0011 -0.2104  0.0759
 5352TIP3    H116020   2.404   1.029   2.110 -0.0874 -1.1192 -0.8673
 5352TIP3    H216021   2.282   1.067   2.029 -1.0382  1.5773  1.6581
 5353TIP3   OH216022   5.574   2.989   3.312 -0.0684 -0.4772 -0.5805
 5353TIP3    H116023   5.598   3.066   3.261  1.3189 -1.3261 -1.2626
 5353TIP3    H216024   5.490   2.961   3.275 -1.4379  1.5668  0.7330
 5354TIP3   OH216025   3.241   1.563   1.907  0.3385 -0.7684 -0.1720
 5354TIP3    H116026   3.271   1.622   1.837 -0.1978 -1.1577 -0.7371
 5354TIP3    H216027   3.146   1.576   1.911  0.4599 -0.0498  1.1443
 5355TIP3   OH216028   3.244   4.181   3.219  0.1363 -0.0009  0.1407
 5355TIP3    H116029   3.309   4.241   3.256  2.1221 -2.5094  1.0043
 5355TIP3    H216030   3.190   4.156   3.294 -1.4034  1.3833 -0.4147
 5356TIP3   OH216031   5.000   6.368   1.800  0.2476 -0.2274  0.7081
 5356TIP3    H116032   4.906   6.387   1.802  0.3631  0.5872 -0.5902
 5356TIP3    H216033   5.019   6.349   1.708  1.3403 -0.5046  0.9748
 5357TIP3   OH216034   1.679   5.257   2.553 -0.1029 -0.5747 -0.5258
 5357TIP3    H116035   1.706   5.347   2.571  1.4436 -1.0808 -0.1765
 5357TIP3    H216036   1.684   5.214   2.639  0.0714 -1.2146 -0.8547
 5358TIP3   OH216037   2.537   4.896   5.037 -0.3899 -0.2178  0.1890
 5358TIP3    H116038   2.569   4.929   5.121 -1.4510  1.1966  0.0700
 5358TIP3    H216039   2.448   4.931   5.030 -1.6580 -3.2111  0.0721
 5359TIP3   OH216040   1.501   1.681   0.083  0.1975  0.4043 -0.6036
 5359TIP3    H116041   1.567   1.658   0.019  1.4206 -0.2800  0.8314
 5359TIP3    H216042   1.524   1.629   0.160 -0.5532  1.9916  0.7513
 5360TIP3   OH216043   4.869   1.543   2.760 -0.0298 -0.1371  0.1989
 5360TIP3    H116044   4.859   1.521   2.668  0.0899 -1.5013  0.4835
 5360TIP3    H216045   4.924   1.473   2.795  1.9384  1.6213  0.8155
 5361TIP3   OH216046   2.446   6.471   2.373  0.0036  0.0174  0.0337
 5361TIP3    H116047   2.506   6.419   2.319 -0.5601 -0.7194  0.0963
 5361TIP3    H216048   2.452   6.431   2.460 -0.8922 -0.3451 -0.0616
 5362TIP3   OH216049   6.234   4.258   3.263  0.5571 -0.3174  0.1829
 5362TIP3    H116050   6.155   4.213   3.293  0.7953 -1.1490 -0.4106
 5362TIP3    H216051   6.297   4.249   3.334 -0.0617  0.8737  0.9134
 5363TIP3   OH216052   6.452   4.201   3.097  0.5322  0.3824  0.2561
 5363TIP3    H116053   6.470   4.140   3.025 -0.6936  0.5190 -0.1830
 5363TIP3    H216054   6.359   4.190   3.116  0.8206  0.3771  1.8126
 5364TIP3   OH216055   4.043   0.152   3.472  0.2506 -0.0727 -0.2858
 5364TIP3    H116056   4.126   0.194   3.447  0.3462  0.9306  1.5604
 5364TIP3    H216057   3.995   0.221   3.518 -0.4572 -1.4378  1.0711
 5365TIP3   OH216058   4.959   3.289   0.471  0.3235  0.4647  0.6699
 5365TIP3    H116059   4.886   3.331   0.517 -0.4680  0.3735 -0.4640
 5365TIP3    H216060   4.943   3.309   0.379  1.6857  0.3531  0.4002
 5366TIP3   OH216061   5.073   0.706   0.840 -0.2542  1.1525  0.2877
 5366TIP3    H116062   5.071   0.783   0.783 -0.6262  2.9772  2.6526
 5366TIP3    H216063   5.097   0.739   0.926 -0.5435 -1.3752  1.4467
 5367TIP3   OH216064   4.895   1.953   1.053 -0.0177 -0.1420  0.6091
 5367TIP3    H116065   4.915   1.860   1.055  1.7184  0.1918  0.4361
 5367TIP3    H216066   4.862   1.969   0.965 -0.3376 -0.5970  0.6478
 5368TIP3   OH216067   6.916   4.289   3.697  0.3083  0.4433  0.2012
 5368TIP3    H116068   6.874   4.364   3.656  2.0234  0.3721 -1.8924
 5368TIP3    H216069   6.943   4.320   3.783 -0.8312  1.5435  0.1904
 5369TIP3   OH216070   4.479   4.205   3.393  0.1464  0.3725 -0.1569
 5369TIP3    H116071   4.492   4.110   3.405 -0.0888  0.3661  0.0466
 5369TIP3    H216072   4.385   4.215   3.380  0.1272  0.6151  0.1647
 5370TIP3   OH216073   6.099   0.257   5.399 -0.0107  0.1449 -0.5442
 5370TIP3    H116074   6.122   0.174   5.357  1.2859  0.2558 -0.0951
 5370TIP3    H216075   6.054   0.231   5.479  0.9813 -0.1591 -0.0677
 5371TIP3   OH216076   3.852   1.705   1.563 -0.1149  0.0754 -0.2723
 5371TIP3    H116077   3.800   1.775   1.522  0.1378  0.2726 -0.2548
 5371TIP3    H216078   3.797   1.627   1.555 -0.3010  0.2281 -0.4952
 5372TIP3   OH216079   0.131   3.202   2.191 -0.3126  0.0881 -0.3381
 5372TIP3    H116080   0.051   3.176   2.237  0.5607 -3.8084 -0.6959
 5372TIP3    H216081   0.159   3.124   2.144  2.1100  2.1595 -2.7353
 5373TIP3   OH216082   2.973   0.467   5.769 -0.1173 -0.3607 -0.3549
 5373TIP3    H116083   2.884   0.499   5.779 -0.6749 -2.1585  0.8288
 5373TIP3    H216084   3.003   0.449   5.859  0.5921 -1.9150 -0.8585
 5374TIP3   OH216085   5.847   1.218   4.995 -0.0405 -0.0050  0.3484
 5374TIP3    H116086   5.829   1.128   5.024 -2.5489  0.8100  1.6714
 5374TIP3    H216087   5.802   1.226   4.911  0.6836 -0.1474 -0.0564
 5375TIP3   OH216088   5.615   3.717   1.284  0.3074  0.0519 -0.3691
 5375TIP3    H116089   5.587   3.671   1.204 -2.0903 -0.9241  0.9159
 5375TIP3    H216090   5.571   3.802   1.279  0.1824  0.0021 -0.1308
 5376TIP3   OH216091   6.921   1.150   4.668 -0.3795 -0.0478 -0.0743
 5376TIP3    H116092   6.976   1.094   4.613  0.2158  1.0791 -0.6689
 5376TIP3    H216093   6.947   1.239   4.644 -0.6668  0.4798  1.4776
 5377TIP3   OH216094   1.002   2.930   0.963 -0.6407 -0.7598 -0.3133
 5377TIP3    H116095   0.937   2.989   0.924  0.2476  1.3686  1.2523
 5377TIP3    H216096   1.038   2.979   1.037 -0.1435 -3.4653  1.3831
 5378TIP3   OH216097   0.592   3.990   0.584 -0.4119  0.4067  0.4551
 5378TIP3    H116098   0.553   4.074   0.560 -0.5984 -0.0573 -0.9510
 5378TIP3    H216099   0.662   3.977   0.520  1.9953  1.1115  2.7777
 5379TIP3   OH216100   2.972   6.247   1.073 -0.1753  0.2772 -0.3308
 5379TIP3    H116101   2.880   6.264   1.090 -0.1893 -0.8466  0.9146
 5379TIP3    H216102   3.009   6.332   1.049 -1.3475  0.9078  0.0429
 5380TIP3   OH216103   1.897   2.878   4.342 -0.5508  0.4709 -0.2869
 5380TIP3    H116104   1.930   2.968   4.337  0.7762 -0.0822 -3.5314
 5380TIP3    H216105   1.805   2.885   4.315  0.2033  0.6323 -3.0275
 5381TIP3   OH216106   0.551   2.693   5.394  0.2209 -0.5033 -0.2068
 5381TIP3    H116107   0.634   2.646   5.397 -0.4474 -1.6733  1.4999
 5381TIP3    H216108   0.485   2.625   5.383 -0.5611  0.3770 -1.1856
 5382TIP3   OH216109   3.110   4.778   2.639  0.2521 -0.0141  0.0009
 5382TIP3    H116110   3.136   4.807   2.727 -0.8688  1.0385  0.0148
 5382TIP3    H216111   3.182   4.804   2.583 -0.8091  3.2924 -0.0411
 5383TIP3   OH216112   2.077   3.447   3.208 -0.4076 -0.1175 -1.0015
 5383TIP3    H116113   2.122   3.447   3.124 -0.2898  3.2002 -1.0704
 5383TIP3    H216114   2.143   3.477   3.270 -1.0803 -0.4171 -0.1283
 5384TIP3   OH216115   0.020   5.127   3.691  0.2267 -0.1956 -0.1769
 5384TIP3    H116116  -0.056   5.074   3.663 -1.0420  1.6325 -0.3715
 5384TIP3    H216117   0.072   5.067   3.744 -0.9379 -1.7567 -0.6946
 5385TIP3   OH216118   1.794   0.318   3.408 -0.4236  0.2090 -0.4164
 5385TIP3    H116119   1.735   0.279   3.343 -2.0313  0.5325  0.7843
 5385TIP3    H216120   1.843   0.383   3.359 -0.6310 -0.4783 -1.5850
 5386TIP3   OH216121   1.523   0.752   2.869  0.2298 -0.3955 -0.0327
 5386TIP3    H116122   1.566   0.690   2.809 -1.1775 -0.4673 -1.0321
 5386TIP3    H216123   1.520   0.834   2.820 -1.2987 -0.5577 -0.2724
 5387TIP3   OH216124   4.480   5.114   5.029  0.0336 -0.2947 -0.6603
 5387TIP3    H116125   4.516   5.039   5.076 -1.4823 -0.5013  0.2461
 5387TIP3    H216126   4.501   5.189   5.084  3.0897  0.2853 -2.4038
 5388TIP3   OH216127   3.328   0.570   3.106  0.2603  0.6382  0.3006
 5388TIP3    H116128   3.252   0.601   3.155  0.4437  1.8027 -0.1334
 5388TIP3    H216129   3.403   0.613   3.147  0.6940 -0.3632  0.6126
 5389TIP3   OH216130   4.948   2.980   0.146 -0.4501  0.5570 -1.0781
 5389TIP3    H116131   4.936   3.038   0.221 -1.0033 -1.1384  0.2076
 5389TIP3    H216132   4.935   2.892   0.181  2.0854 -0.5300 -2.5520
 5390TIP3   OH216133   0.511   6.180   5.376  0.5247  0.4799  0.2258
 5390TIP3    H116134   0.496   6.217   5.462 -0.6932 -0.2344  0.3406
 5390TIP3    H216135   0.597   6.137   5.383 -0.2121 -0.8421  1.5478
 5391TIP3   OH216136   6.304   0.495   1.319  0.0540  0.8482 -0.0770
 5391TIP3    H116137   6.348   0.411   1.335 -1.7723  0.0275  0.9488
 5391TIP3    H216138   6.376   0.557   1.308  1.4895 -0.4392  1.3487
 5392TIP3   OH216139   6.502   3.230   2.526  0.0947  0.1781  0.1968
 5392TIP3    H116140   6.527   3.190   2.610  1.2584  2.0106  0.7818
 5392TIP3    H216141   6.485   3.322   2.548 -3.5409 -0.0852 -0.8981
 5393TIP3   OH216142   4.081   1.720   3.491  0.0724 -0.8091  0.1046
 5393TIP3    H116143   4.154   1.754   3.439 -0.0139 -1.5729 -0.5283
 5393TIP3    H216144   4.097   1.625   3.495  0.7728 -0.6503  2.5395
 5394TIP3   OH216145   2.323   5.767   2.145  0.1236  0.1502 -0.1674
 5394TIP3    H116146   2.365   5.712   2.079 -0.9221  0.8230 -1.4501
 5394TIP3    H216147   2.387   5.836   2.164 -0.0349  0.6609 -1.4266
 5395TIP3   OH216148   6.950   4.198   1.350  0.4736 -0.2436 -0.1287
 5395TIP3    H116149   7.016   4.200   1.419  0.4188  0.5414 -0.0933
 5395TIP3    H216150   6.990   4.146   1.280  1.0289  0.0268 -0.0147
 5396TIP3   OH216151   6.813   4.449   5.819 -0.0459 -0.2167  0.1875
 5396TIP3    H116152   6.865   4.483   5.892  1.3363  0.0551 -0.8725
 5396TIP3    H216153   6.748   4.393   5.860  2.8394 -2.9254  1.5342
 5397TIP3   OH216154   3.233   1.806   3.403  0.8023  0.6307 -0.2571
 5397TIP3    H116155   3.247   1.713   3.421 -0.3365  0.4431 -0.2683
 5397TIP3    H216156   3.174   1.807   3.328  1.4684  1.3762 -0.7810
 5398TIP3   OH216157   3.593   0.190   2.963 -0.0283  0.2978 -0.2089
 5398TIP3    H116158   3.601   0.100   2.995 -0.1684  0.4205  0.1759
 5398TIP3    H216159   3.619   0.244   3.038  0.0074  0.5789 -0.4231
 5399TIP3   OH216160   1.336   0.105   0.348 -0.0139  0.9451  0.1642
 5399TIP3    H116161   1.289   0.028   0.315 -0.0415  1.0439 -0.0259
 5399TIP3    H216162   1.269   0.174   0.352  0.3156  1.3531 -1.0063
 5400TIP3   OH216163   3.140   1.559   2.609  0.1000 -0.2912 -0.1384
 5400TIP3    H116164   3.056   1.601   2.625 -0.5225 -0.9757 -1.4584
 5400TIP3    H216165   3.117   1.469   2.583  1.2821 -0.7710  0.4084
 5401TIP3   OH216166   6.323   6.476   2.971 -0.5569  0.4013  0.7649
 5401TIP3    H116167   6.244   6.456   3.021  0.2600 -1.6325  1.3592
 5401TIP3    H216168   6.364   6.390   2.956  1.3755  1.3610  0.2073
 5402TIP3   OH216169   3.903   0.738   2.239 -0.1516  0.1770 -0.4731
 5402TIP3    H116170   3.956   0.658   2.229 -0.5591  0.0708 -2.0013
 5402TIP3    H216171   3.857   0.726   2.322  1.8895  0.0990  0.7155
 5403TIP3   OH216172   3.415   4.623   5.696  0.2520 -0.2215 -0.1428
 5403TIP3    H116173   3.356   4.550   5.674  1.8316 -1.5864 -0.0011
 5403TIP3    H216174   3.472   4.589   5.765  0.6621  1.3528  0.3384
 5404TIP3   OH216175   6.867   5.809   4.269  0.1971  0.5793 -0.4194
 5404TIP3    H116176   6.863   5.895   4.227  0.6012 -0.1404 -1.9667
 5404TIP3    H216177   6.879   5.747   4.198  2.7797 -0.5571  0.8668
 5405TIP3   OH216178   5.555   5.640   4.747 -0.3628 -0.1239  0.3024
 5405TIP3    H116179   5.642   5.656   4.711 -0.4657 -1.8842 -0.7907
 5405TIP3    H216180   5.499   5.705   4.704 -0.0937 -0.8346 -1.1654
 5406TIP3   OH216181   5.857   5.186   1.395  0.0195 -0.0347  0.2812
 5406TIP3    H116182   5.879   5.187   1.302  0.0616 -2.3156  0.2244
 5406TIP3    H216183   5.890   5.269   1.428 -1.1646  1.4370 -1.9697
 5407TIP3   OH216184   3.017   1.783   0.822 -0.7506 -0.1898 -0.1034
 5407TIP3    H116185   3.049   1.719   0.886 -0.5573 -1.2392 -1.2084
 5407TIP3    H216186   3.041   1.746   0.737 -2.3305  0.4076 -0.8591
 5408TIP3   OH216187   3.871   4.484   2.184 -0.3717  0.2520 -0.0381
 5408TIP3    H116188   3.960   4.450   2.193 -0.6035 -0.3345  0.0944
 5408TIP3    H216189   3.881   4.568   2.140  0.1845 -0.1727 -0.7294
 5409TIP3   OH216190   1.120   3.368   5.853 -0.3500 -0.5540  0.2903
 5409TIP3    H116191   1.188   3.330   5.909 -0.3208 -1.5591 -0.4134
 5409TIP3    H216192   1.168   3.399   5.776 -0.8280 -2.5876 -0.8823
 5410TIP3   OH216193   0.638   0.982   4.441  0.5039  0.0612  0.4860
 5410TIP3    H116194   0.626   0.887   4.435  1.2864  0.0358 -1.2069
 5410TIP3    H216195   0.574   1.018   4.380 -0.7503  0.7505  2.1153
 5411TIP3   OH216196   5.699   0.483   5.445 -0.3784  0.1783  0.2966
 5411TIP3    H116197   5.785   0.441   5.452  0.1627  1.5016  2.4169
 5411TIP3    H216198   5.716   0.576   5.460 -2.1709  0.4820  0.6764
 5412TIP3   OH216199   6.634   5.478   3.406  0.1265 -0.2292 -0.0450
 5412TIP3    H116200   6.567   5.492   3.473  1.8508  0.8915  1.5340
 5412TIP3    H216201   6.704   5.431   3.452  0.9516 -0.3014 -1.3305
 5413TIP3   OH216202   6.677   3.168   2.743  1.0942  0.0297 -0.2380
 5413TIP3    H116203   6.748   3.180   2.806  1.1011 -1.7612  0.1591
 5413TIP3    H216204   6.704   3.092   2.691  0.6529  0.9040 -1.8221
 5414TIP3   OH216205   1.796   2.276   1.118  0.6066 -0.4373  0.6330
 5414TIP3    H116206   1.878   2.314   1.087 -0.6967  0.8226 -1.5070
 5414TIP3    H216207   1.813   2.182   1.122  1.3601 -0.5509 -2.6947
 5415TIP3   OH216208   5.710   1.639   3.411 -0.6653 -0.3490  0.7771
 5415TIP3    H116209   5.722   1.696   3.488  0.3296 -1.0498  1.1598
 5415TIP3    H216210   5.760   1.682   3.342 -0.5044 -0.3874  0.8694
 5416TIP3   OH216211   3.518   4.185   5.604 -0.0353 -0.1702  0.5351
 5416TIP3    H116212   3.577   4.112   5.623  0.0298 -0.4504 -0.6851
 5416TIP3    H216213   3.512   4.187   5.508  0.2962  1.6771  0.5245
 5417TIP3   OH216214   6.344   2.411   5.534 -0.3011 -0.6309  0.1179
 5417TIP3    H116215   6.291   2.481   5.573 -1.8202 -2.8730  2.4021
 5417TIP3    H216216   6.393   2.374   5.608 -0.7294 -2.9466 -0.6777
 5418TIP3   OH216217   0.625   2.712   1.658  0.0953 -0.1178 -0.4790
 5418TIP3    H116218   0.566   2.681   1.590 -0.3986  1.5373 -0.8456
 5418TIP3    H216219   0.574   2.704   1.739 -1.1208  2.3676 -0.9320
 5419TIP3   OH216220   3.998   6.739   2.679 -0.7397  0.2790  0.3129
 5419TIP3    H116221   4.044   6.720   2.597 -0.6796  0.2836  0.3456
 5419TIP3    H216222   4.020   6.830   2.699  0.0971 -0.0339  0.8812
 5420TIP3   OH216223   4.162   2.099   5.043 -0.3998  0.0423 -0.0947
 5420TIP3    H116224   4.094   2.095   5.110  1.6138  1.1600  2.1710
 5420TIP3    H216225   4.159   2.189   5.011  2.4796  1.4476  3.0009
 5421TIP3   OH216226   0.916   1.480   2.427  0.1023  0.2374 -0.3090
 5421TIP3    H116227   0.920   1.390   2.394  0.6217  0.5991 -1.2610
 5421TIP3    H216228   0.901   1.533   2.349  3.7135  1.3605 -0.4235
 5422TIP3   OH216229   5.871   3.164   2.094  0.2607 -0.0680  0.3358
 5422TIP3    H116230   5.844   3.249   2.059 -1.3319 -0.4364  0.5854
 5422TIP3    H216231   5.962   3.154   2.065  0.1659  1.2718 -0.5363
 5423TIP3   OH216232   5.379   5.463   1.640  0.3131  0.2899  0.0555
 5423TIP3    H116233   5.348   5.509   1.719 -1.4708 -0.4906 -0.1446
 5423TIP3    H216234   5.329   5.382   1.638  2.8075 -1.3529 -0.0532
 5424TIP3   OH216235   2.104   5.738   3.804 -0.2291  0.3392  0.3923
 5424TIP3    H116236   2.054   5.769   3.880  0.6873  0.5813  0.9046
 5424TIP3    H216237   2.191   5.719   3.839 -0.2234 -0.9921 -0.2973
 5425TIP3   OH216238   5.731  -0.010   3.327  0.4177 -0.0896  0.0174
 5425TIP3    H116239   5.759  -0.033   3.239  1.5019  1.2962 -0.0345
 5425TIP3    H216240   5.786   0.065   3.351 -0.2480 -0.0810  1.6483
 5426TIP3   OH216241   4.201   3.387   2.968  0.2865 -0.0877  0.6526
 5426TIP3    H116242   4.296   3.399   2.963 -0.0159  3.0292  0.7493
 5426TIP3    H216243   4.168   3.421   2.885 -0.7356 -2.4994 -0.0318
 5427TIP3   OH216244   4.208   4.313   3.176  0.3532 -0.2683  0.6302
 5427TIP3    H116245   4.135   4.250   3.176 -1.5478  1.8019  0.3961
 5427TIP3    H216246   4.215   4.342   3.085  0.7350  0.3655  0.8544
 5428TIP3   OH216247   0.066   0.926   1.635  0.0364 -0.2338 -0.9459
 5428TIP3    H116248  -0.021   0.898   1.606  0.6950 -4.0043  0.1553
 5428TIP3    H216249   0.050   1.002   1.691 -2.5041 -0.6855 -0.9601
 5429TIP3   OH216250   5.057   5.810   0.478 -0.2047 -0.2016  0.3225
 5429TIP3    H116251   5.023   5.863   0.550 -0.8794 -0.1268 -0.0411
 5429TIP3    H216252   5.023   5.722   0.494  0.0353 -0.2914  0.3477
 5430TIP3   OH216253   4.862   4.232   4.694  0.3084 -0.5452  0.5260
 5430TIP3    H116254   4.787   4.285   4.665  0.4479  0.3568  1.6858
 5430TIP3    H216255   4.930   4.249   4.630 -0.2727 -0.8619 -0.1866
 5431TIP3   OH216256   6.989   6.452   5.126  0.1022 -0.3063 -0.6065
 5431TIP3    H116257   6.948   6.372   5.159 -0.2107 -0.1402 -0.5951
 5431TIP3    H216258   7.026   6.428   5.042 -1.3523 -0.0649 -1.3453
 5432TIP3   OH216259   5.292   2.076   4.854 -0.1901 -0.2910 -0.2348
 5432TIP3    H116260   5.270   2.157   4.808 -0.7064  0.2184  0.8678
 5432TIP3    H216261   5.377   2.093   4.893 -0.4690 -0.1378  0.3100
 5433TIP3   OH216262   5.927   2.337   3.037  0.0603  0.1346  0.3275
 5433TIP3    H116263   5.921   2.424   3.077 -2.9670  0.0410  0.2803
 5433TIP3    H216264   5.906   2.276   3.107 -1.4721 -0.2832 -0.4689
 5434TIP3   OH216265   3.156   0.575   4.588 -0.2699  0.0700  0.0196
 5434TIP3    H116266   3.247   0.564   4.561  0.2884  1.2721  1.3168
 5434TIP3    H216267   3.150   0.665   4.618 -2.4386  0.7046 -1.9650
 5435TIP3   OH216268   5.816   5.305   2.574  0.3965  0.2952  0.5969
 5435TIP3    H116269   5.872   5.265   2.506  0.2200  1.6093 -0.3527
 5435TIP3    H216270   5.854   5.392   2.587  0.0290  0.2915  1.7360
 5436TIP3   OH216271   3.051   6.348   2.558  0.4603  0.4850  0.1707
 5436TIP3    H116272   2.989   6.334   2.630  1.3855 -1.2250  0.6858
 5436TIP3    H216273   3.059   6.262   2.517 -0.9248  1.6195 -2.7747
 5437TIP3   OH216274   5.419   6.583   3.809  0.1856  0.2575  0.6037
 5437TIP3    H116275   5.425   6.610   3.900  0.5729 -0.1167  0.6925
 5437TIP3    H216276   5.371   6.654   3.766  1.2328  1.1255  0.8165
 5438TIP3   OH216277   2.001   1.663   0.427  0.0801 -0.7474 -0.0339
 5438TIP3    H116278   2.042   1.680   0.512 -0.5529  0.6009  0.0205
 5438TIP3    H216279   2.023   1.571   0.408  3.9398  0.0564 -0.4284
 5439TIP3   OH216280   3.848   1.644   2.743  0.4955 -0.4211 -0.5051
 5439TIP3    H116281   3.909   1.573   2.724  0.6875 -0.1125 -1.0639
 5439TIP3    H216282   3.787   1.643   2.669  0.9485  0.4725 -0.9034
 5440TIP3   OH216283   3.916   3.288   3.224 -0.1092 -0.2201  0.9776
 5440TIP3    H116284   3.962   3.362   3.185  1.3964 -2.7587 -2.6071
 5440TIP3    H216285   3.972   3.261   3.297  0.5160  0.8221  0.9063
 5441TIP3   OH216286   6.398   5.288   0.617 -0.3370  0.3628 -0.0007
 5441TIP3    H116287   6.344   5.215   0.647 -0.4098 -0.3078 -1.6684
 5441TIP3    H216288   6.367   5.363   0.668  0.5328 -0.9376  2.6025
 5442TIP3   OH216289   1.477   5.902   2.958 -0.1547  0.3301  0.2256
 5442TIP3    H116290   1.389   5.930   2.984 -0.2433 -0.7741  1.2120
 5442TIP3    H216291   1.464   5.821   2.909  0.3405 -0.2368  0.9984
 5443TIP3   OH216292   3.150   1.246   4.615  0.5293 -0.4345  0.3459
 5443TIP3    H116293   3.103   1.188   4.555 -0.0211  1.7918 -1.5166
 5443TIP3    H216294   3.132   1.210   4.702 -1.1823 -2.0501 -0.5927
 5444TIP3   OH216295   5.274   0.441   3.916 -0.5084 -0.2255 -0.2304
 5444TIP3    H116296   5.213   0.367   3.916  1.5443 -2.0207  0.5070
 5444TIP3    H216297   5.312   0.440   3.828 -0.6988  0.1403 -0.3155
 5445TIP3   OH216298   2.153   3.819   3.761 -0.3573 -0.2968 -0.0377
 5445TIP3    H116299   2.179   3.745   3.816 -0.4813 -0.5149 -0.2719
 5445TIP3    H216300   2.063   3.798   3.735 -0.6962  0.3443  0.5939
 5446TIP3   OH216301   0.057   5.912   4.197  0.9916  0.6403 -0.3560
 5446TIP3    H116302  -0.028   5.920   4.240  1.9311  2.2953  1.3529
 5446TIP3    H216303   0.043   5.848   4.127 -0.9862 -1.2537  1.6004
 5447TIP3   OH216304   2.147   2.287   2.115  0.2922  0.1484 -0.2360
 5447TIP3    H116305   2.090   2.335   2.175  1.2195 -0.5709  1.2782
 5447TIP3    H216306   2.137   2.196   2.140  1.4453 -0.0739 -0.5336
 5448TIP3   OH216307   0.197   3.725   1.528  0.0204  0.2307 -0.4468
 5448TIP3    H116308   0.204   3.694   1.438  0.3350 -0.9610 -0.0323
 5448TIP3    H216309   0.119   3.682   1.562 -0.7729  1.5935 -0.4858
 5449TIP3   OH216310   6.359   2.710   2.586  0.4584  0.2802 -0.1140
 5449TIP3    H116311   6.265   2.702   2.571  0.5409  2.0513 -2.1026
 5449TIP3    H216312   6.395   2.628   2.552 -0.2767  0.1133 -0.5270
 5450TIP3   OH216313   5.546   2.996   2.354 -0.1522 -0.0522  0.1853
 5450TIP3    H116314   5.607   2.986   2.427  1.5191  0.9856 -1.0168
 5450TIP3    H216315   5.468   2.947   2.382  0.7081 -0.3222  2.3214
 5451TIP3   OH216316   4.029   1.507   5.328  0.5586 -0.5313  0.0966
 5451TIP3    H116317   4.000   1.428   5.282 -1.2527  0.1872 -0.0763
 5451TIP3    H216318   4.005   1.579   5.270  1.0040  0.2352  0.8388
 5452TIP3   OH216319   2.517   6.620   5.217  0.2806 -0.2874  0.0103
 5452TIP3    H116320   2.508   6.537   5.263  1.3741 -1.5672 -1.9455
 5452TIP3    H216321   2.428   6.651   5.205 -0.4389 -2.7762 -1.9043
 5453TIP3   OH216322   4.772   2.137   0.423 -0.1355  0.3939  0.6469
 5453TIP3    H116323   4.739   2.052   0.393  0.3118  0.3244  0.3379
 5453TIP3    H216324   4.823   2.117   0.501 -0.0659  0.3826  0.5987
 5454TIP3   OH216325   2.590   0.227   2.903 -0.1041  0.1997  0.1906
 5454TIP3    H116326   2.683   0.239   2.886 -0.4644 -0.0617 -2.3392
 5454TIP3    H216327   2.547   0.260   2.824 -2.2352  1.1589  1.6698
 5455TIP3   OH216328   4.648   2.397   3.600  0.6802 -0.0068  0.3332
 5455TIP3    H116329   4.602   2.405   3.683  1.5160  1.1074  0.7130
 5455TIP3    H216330   4.734   2.364   3.623  0.5370 -0.8014 -0.2272
 5456TIP3   OH216331   2.135   3.939   5.034 -0.0475  0.2513  0.0011
 5456TIP3    H116332   2.138   3.848   5.066 -3.0002  0.0505  0.0251
 5456TIP3    H216333   2.148   3.932   4.940 -0.4067 -0.2317 -0.0161
 5457TIP3   OH216334   2.104   3.433   5.005  0.7261  0.0744 -0.1845
 5457TIP3    H116335   2.093   3.395   5.092  1.3988  0.1506 -0.0619
 5457TIP3    H216336   2.198   3.426   4.987  1.0096  2.2961  0.1550
 5458TIP3   OH216337   4.214   2.410   2.122  0.0038 -0.2992  0.6936
 5458TIP3    H116338   4.241   2.363   2.201 -1.4106 -0.7670  0.9201
 5458TIP3    H216339   4.214   2.344   2.053 -1.5803 -0.5678  0.9243
 5459TIP3   OH216340   0.485   4.849   2.811  0.0226  0.0860 -0.1848
 5459TIP3    H116341   0.543   4.776   2.789  0.3553  0.1756  0.3707
 5459TIP3    H216342   0.396   4.814   2.798  0.1383 -0.8301  1.2631
 5460TIP3   OH216343   4.461   0.020   5.874  0.2469 -1.2769  0.1430
 5460TIP3    H116344   4.556   0.016   5.860  0.3996  3.4518 -2.0835
 5460TIP3    H216345   4.423  -0.016   5.794  0.2525 -0.9036 -0.0289
 5461TIP3   OH216346   1.840   4.204   5.552 -0.9109 -0.1976  0.0120
 5461TIP3    H116347   1.785   4.272   5.590 -1.0781 -0.7028  0.7092
 5461TIP3    H216348   1.861   4.146   5.626  2.3574  1.1103  0.2755
 5462TIP3   OH216349   4.468   5.698   2.524 -0.2180 -0.2997  0.2672
 5462TIP3    H116350   4.533   5.634   2.495  0.9031  0.3922  1.1708
 5462TIP3    H216351   4.395   5.645   2.554 -0.4780 -1.0790 -1.5810
 5463TIP3   OH216352   0.785   3.738   5.105  0.5226  0.0280  0.4694
 5463TIP3    H116353   0.750   3.671   5.046 -2.8350  1.4849  0.6095
 5463TIP3    H216354   0.781   3.699   5.192  0.8718 -0.3965  0.3007
 5464TIP3   OH216355   0.985   6.537   0.389 -0.1632  0.3499 -0.2237
 5464TIP3    H116356   1.033   6.513   0.469  1.0648 -0.3559 -1.1527
 5464TIP3    H216357   0.926   6.464   0.374 -0.2205  0.3709 -0.1065
 5465TIP3   OH216358   4.015   4.901   1.088 -0.0657 -0.1324  0.2330
 5465TIP3    H116359   4.111   4.904   1.089  0.0272 -2.1744  0.4272
 5465TIP3    H216360   3.993   4.842   1.016 -1.3243  2.2545 -1.4939
 5466TIP3   OH216361   4.708   0.530   2.160  0.0216 -0.2255  0.8928
 5466TIP3    H116362   4.750   0.596   2.105 -2.4858 -0.0182 -0.9792
 5466TIP3    H216363   4.617   0.558   2.166 -0.1573 -1.0742  4.0123
 5467TIP3   OH216364   1.365   1.144   2.086 -0.3267 -0.2146  0.2173
 5467TIP3    H116365   1.273   1.132   2.110 -0.1337 -2.2323  0.1224
 5467TIP3    H216366   1.364   1.158   1.992 -0.5608  0.5039  0.3161
 5468TIP3   OH216367   5.661   1.767   0.392 -0.4907  0.3560  0.1174
 5468TIP3    H116368   5.670   1.696   0.329  0.6623 -0.9652  1.6894
 5468TIP3    H216369   5.722   1.744   0.463 -0.3554  2.7247  0.8528
 5469TIP3   OH216370   6.543   5.831   2.968 -0.6445 -0.0715 -0.2107
 5469TIP3    H116371   6.599   5.890   3.017 -0.7178  0.8418 -1.1923
 5469TIP3    H216372   6.509   5.884   2.895  0.7021 -1.7549 -2.1788
 5470TIP3   OH216373   0.086   3.682   0.790 -0.4548 -0.3437 -0.5619
 5470TIP3    H116374   0.177   3.711   0.782 -1.0301  1.8299  0.2343
 5470TIP3    H216375   0.043   3.716   0.712 -0.9576  0.2295 -0.0423
 5471TIP3   OH216376   0.895   5.141   3.311  0.2707  0.2749  0.0357
 5471TIP3    H116377   0.879   5.067   3.370 -0.6310  0.6663  0.2949
 5471TIP3    H216378   0.949   5.104   3.241  0.0604 -0.5589  0.3016
 5472TIP3   OH216379   6.028   3.821   0.934 -0.0733 -0.0209 -0.2639
 5472TIP3    H116380   6.006   3.736   0.897 -1.9783  0.1186  0.4247
 5472TIP3    H216381   6.109   3.806   0.984 -0.1388 -1.3071 -0.5153
 5473TIP3   OH216382   4.125   0.439   1.872 -0.2010 -0.3006  0.5336
 5473TIP3    H116383   4.031   0.427   1.862 -0.2225 -0.0326  0.4107
 5473TIP3    H216384   4.153   0.364   1.925 -0.6655  0.2003  1.5306
 5474TIP3   OH216385   5.933   2.272   0.532 -0.5538  0.2597  0.3509
 5474TIP3    H116386   6.009   2.230   0.494 -0.4309 -0.7403  1.6426
 5474TIP3    H216387   5.883   2.201   0.572  0.3046  1.3509  3.7219
 5475TIP3   OH216388   4.223   0.280   1.637 -0.0950  0.3302 -0.0330
 5475TIP3    H116389   4.160   0.339   1.680  1.3845  1.1013  1.1751
 5475TIP3    H216390   4.247   0.218   1.706  0.7537  0.2861 -0.3657
 5476TIP3   OH216391   2.458   5.766   0.908 -0.0743 -0.6567  0.5309
 5476TIP3    H116392   2.380   5.780   0.853 -0.5443 -0.2186  1.2957
 5476TIP3    H216393   2.510   5.702   0.859 -0.3986 -0.1493 -0.5114
 5477TIP3   OH216394   3.425   5.066   5.261  0.3868 -0.3047 -0.0882
 5477TIP3    H116395   3.367   4.991   5.248 -0.8217  0.7382 -0.8154
 5477TIP3    H216396   3.434   5.106   5.175 -0.4453  1.4371  0.5949
 5478TIP3   OH216397   1.259   6.554   4.900 -0.4267  0.3339 -0.0526
 5478TIP3    H116398   1.221   6.503   4.829 -1.5048  0.4645  0.4113
 5478TIP3    H216399   1.223   6.642   4.889 -2.1874 -0.0848  1.7487
 5479TIP3   OH216400   6.932   0.002   3.768  0.1777 -0.1747  0.0624
 5479TIP3    H116401   6.932  -0.031   3.678  0.1683  0.1401 -0.0543
 5479TIP3    H216402   6.867   0.072   3.768  0.5156  0.1435  0.1949
 5480TIP3   OH216403   2.551   4.698   1.253 -0.0627  0.7930 -0.4343
 5480TIP3    H116404   2.594   4.640   1.316 -0.7242  0.4062 -0.3299
 5480TIP3    H216405   2.574   4.786   1.282  1.4765  0.5913 -0.9654
 5481TIP3   OH216406   4.824   3.241   0.815 -0.1131  0.7601 -0.0176
 5481TIP3    H116407   4.868   3.315   0.773  2.0999  0.7880  2.1177
 5481TIP3    H216408   4.731   3.265   0.815 -0.1744  1.2213 -3.7174
 5482TIP3   OH216409   6.738   4.582   4.401 -0.1758 -0.0639 -0.2703
 5482TIP3    H116410   6.792   4.605   4.326  0.6236  1.3765  0.6916
 5482TIP3    H216411   6.667   4.647   4.400  0.1068  0.2706  0.4585
 5483TIP3   OH216412   3.183   4.548   0.226 -0.0343 -0.1907 -0.0014
 5483TIP3    H116413   3.264   4.592   0.201  0.3725 -0.3213  1.0770
 5483TIP3    H216414   3.156   4.591   0.307 -1.2002  0.0461 -0.4920
 5484TIP3   OH216415   1.220   5.336   1.732 -0.5805 -0.1091 -0.0099
 5484TIP3    H116416   1.219   5.409   1.671 -1.4724 -0.9106 -1.0023
 5484TIP3    H216417   1.308   5.336   1.770  0.0318  0.3396 -1.3857
 5485TIP3   OH216418   1.129   1.467   3.430  0.0992  0.6915 -0.3553
 5485TIP3    H116419   1.184   1.545   3.424 -1.1732  1.8242  1.5060
 5485TIP3    H216420   1.105   1.462   3.523 -0.4447 -1.5197 -0.5566
 5486TIP3   OH216421   5.280   6.589   4.737 -0.7366 -0.0427  0.3970
 5486TIP3    H116422   5.210   6.630   4.686  0.0808 -0.2549 -0.9630
 5486TIP3    H216423   5.331   6.662   4.772  0.8142  0.2600 -2.1505
 5487TIP3   OH216424   2.710   5.352   3.761  0.6181 -0.2410 -0.6221
 5487TIP3    H116425   2.705   5.446   3.778 -2.7820 -0.3400 -0.3962
 5487TIP3    H216426   2.701   5.312   3.847 -2.6481 -0.6776 -1.0394
 5488TIP3   OH216427   6.063   6.498   3.056 -0.3731  0.0303  0.0666
 5488TIP3    H116428   5.983   6.465   3.016 -0.0935 -0.6201  0.0271
 5488TIP3    H216429   6.055   6.593   3.051 -0.8744 -0.0328 -0.4653
 5489TIP3   OH216430   1.474   2.019   3.755  0.3227  0.0385 -0.1808
 5489TIP3    H116431   1.523   2.030   3.837 -0.4433  0.4562  0.2355
 5489TIP3    H216432   1.537   1.979   3.695  1.1239  0.3937  0.3902
 5490TIP3   OH216433   3.341   5.992   5.795 -0.0498 -0.2885 -0.2766
 5490TIP3    H116434   3.368   5.994   5.703  1.9971 -2.2548  0.1921
 5490TIP3    H216435   3.417   5.956   5.841 -0.1018  2.7171  2.5555
 5491TIP3   OH216436   1.365   0.717   0.075  0.8351  0.0710 -0.6582
 5491TIP3    H116437   1.342   0.807   0.052  0.7603 -0.0838 -1.1895
 5491TIP3    H216438   1.341   0.709   0.168 -1.1145 -0.0250 -1.1370
 5492TIP3   OH216439   2.084   4.683   3.337 -0.0025  0.4744  0.1584
 5492TIP3    H116440   2.070   4.628   3.414 -2.1124  1.0591  0.2603
 5492TIP3    H216441   2.020   4.754   3.347  0.8844  1.5096 -1.2655
 5493TIP3   OH216442   4.829   1.373   5.386 -0.1579  0.2729 -0.1059
 5493TIP3    H116443   4.787   1.402   5.305  0.7892 -0.6532 -0.9610
 5493TIP3    H216444   4.767   1.310   5.424 -0.0105 -0.3122 -0.8201
 5494TIP3   OH216445   7.217   1.580   0.794 -0.2187  0.0297 -0.0353
 5494TIP3    H116446   7.164   1.514   0.837 -0.3831  0.0402 -0.2199
 5494TIP3    H216447   7.171   1.598   0.711  1.3427 -1.7760 -1.3890
 5495TIP3   OH216448   2.084   4.660   0.337  0.2833 -0.3179 -0.3009
 5495TIP3    H116449   1.989   4.661   0.328  0.2249  0.1676  0.2659
 5495TIP3    H216450   2.117   4.645   0.249 -0.2954  0.6350 -0.6966
 5496TIP3   OH216451   0.856   5.738   0.251 -0.7067  0.2002  0.1150
 5496TIP3    H116452   0.814   5.798   0.312  2.1519  1.7292  0.7402
 5496TIP3    H216453   0.876   5.660   0.303  1.4176  1.3672  1.1756
 5497TIP3   OH216454   2.890   5.520   2.440 -0.1071 -0.9394  0.7590
 5497TIP3    H116455   2.837   5.567   2.376 -0.5100 -1.4454  0.7181
 5497TIP3    H216456   2.834   5.449   2.471 -0.4824  0.1708  2.7957
 5498TIP3   OH216457   6.642   6.132   5.765  0.3426  0.4333  0.5830
 5498TIP3    H116458   6.627   6.052   5.714 -0.2393  0.0226  1.3842
 5498TIP3    H216459   6.681   6.193   5.702 -0.3530 -0.0626 -0.3546
 5499TIP3   OH216460   0.937   6.450   2.397  0.0537 -0.1380 -0.2194
 5499TIP3    H116461   0.927   6.372   2.451  1.3186  0.1514  0.4666
 5499TIP3    H216462   1.005   6.428   2.334  1.0983  0.7054  0.5810
 5500TIP3   OH216463   5.186   2.501   0.911  0.0620  0.8344 -0.1895
 5500TIP3    H116464   5.279   2.506   0.933  0.3846 -0.4249 -1.1555
 5500TIP3    H216465   5.142   2.493   0.995  1.0192 -0.9845  0.1824
 5501TIP3   OH216466   2.958   6.205   3.939  0.1380  0.5184 -0.1228
 5501TIP3    H116467   3.012   6.213   4.018 -0.8647 -0.2949  0.6705
 5501TIP3    H216468   2.885   6.265   3.953 -0.5002 -0.2567 -0.0133
 5502TIP3   OH216469   0.095   4.189   5.092  0.0585  0.6975  0.5226
 5502TIP3    H116470   0.088   4.115   5.152  0.4774  0.1064 -0.1460
 5502TIP3    H216471   0.026   4.176   5.028  0.6411  0.4385 -0.0654
 5503TIP3   OH216472   0.479   0.248   4.600  0.3193 -0.2738  0.1559
 5503TIP3    H116473   0.572   0.265   4.586 -0.1041  0.6489 -1.9156
 5503TIP3    H216474   0.435   0.318   4.553 -1.4404 -1.1465  0.4341
 5504TIP3   OH216475   4.009   1.485   3.327 -0.2030  0.7587  0.7223
 5504TIP3    H116476   3.958   1.458   3.404 -1.2522 -1.6278 -0.7001
 5504TIP3    H216477   4.098   1.455   3.347 -0.4358  0.2802  1.0804
 5505TIP3   OH216478   3.528   5.415   5.611 -0.1496  0.1716 -0.1833
 5505TIP3    H116479   3.609   5.367   5.594 -0.2822 -0.1592  0.1090
 5505TIP3    H216480   3.532   5.490   5.552  0.9495  0.8375  0.6972
 5506TIP3   OH216481   6.867   3.233   2.948 -0.5600 -0.0091 -0.4242
 5506TIP3    H116482   6.837   3.309   2.997 -0.5011 -0.2876  0.0507
 5506TIP3    H216483   6.938   3.196   3.001 -4.1100 -3.6995  2.4462
 5507TIP3   OH216484   6.392   4.344   1.958  0.5501  0.0440 -0.4684
 5507TIP3    H116485   6.394   4.347   2.053 -0.0275  0.9179 -0.4748
 5507TIP3    H216486   6.472   4.297   1.934  0.2976 -0.9204  0.4662
 5508TIP3   OH216487   5.337   3.621   1.415  0.2917 -0.4122 -0.2223
 5508TIP3    H116488   5.375   3.706   1.439  0.3814 -0.3903 -0.4428
 5508TIP3    H216489   5.332   3.623   1.320 -0.2134 -0.4336 -0.2019
 5509TIP3   OH216490   4.390   3.185   2.440 -0.2915  0.4211 -0.2713
 5509TIP3    H116491   4.396   3.281   2.438  2.7508  0.3682  0.9048
 5509TIP3    H216492   4.427   3.158   2.356  4.4754  0.3655  1.5119
 5510TIP3   OH216493   1.732   5.483   0.704  0.6640 -0.0814 -0.0555
 5510TIP3    H116494   1.767   5.395   0.719  0.6149  0.0384  0.8343
 5510TIP3    H216495   1.690   5.478   0.618  1.2387 -0.7403 -0.3102
 5511TIP3   OH216496   3.164   3.770   1.687 -0.3025 -0.2537 -0.2367
 5511TIP3    H116497   3.158   3.696   1.626  0.2602  1.1661 -2.1077
 5511TIP3    H216498   3.258   3.782   1.701 -0.4250 -1.3995  2.0938
 5512TIP3   OH216499   1.835   6.589   4.665 -0.2646  0.0569  0.1646
 5512TIP3    H116500   1.929   6.586   4.686 -0.1238  1.8283 -0.0229
 5512TIP3    H216501   1.802   6.503   4.692  1.4950 -0.7985 -0.2192
 5513TIP3   OH216502   6.374   1.535   2.296 -0.3194  0.2195 -0.4357
 5513TIP3    H116503   6.311   1.602   2.322 -0.7914  0.3177 -1.7642
 5513TIP3    H216504   6.321   1.462   2.265  0.1648 -1.2188  1.9024
 5514TIP3   OH216505   6.595   1.585  -0.017 -0.4192 -0.3320  0.1257
 5514TIP3    H116506   6.643   1.515   0.028  1.1063  1.0966  0.8240
 5514TIP3    H216507   6.521   1.604   0.041  1.8229  1.8784  2.5198
 5515TIP3   OH216508   1.059   1.021   0.714 -0.2343  0.2024 -0.5279
 5515TIP3    H116509   0.978   1.048   0.670 -1.0537 -0.8042  0.3105
 5515TIP3    H216510   1.075   0.932   0.683 -0.4814 -0.2895  0.6971
 5516TIP3   OH216511   5.015   6.286   2.609 -0.1993  0.3751  0.7494
 5516TIP3    H116512   4.957   6.303   2.535 -0.4348 -0.6600  0.6849
 5516TIP3    H216513   4.988   6.200   2.642  1.1643 -0.0460  0.8367
 5517TIP3   OH216514   1.986   4.426   3.896 -0.3945 -0.2149  0.6631
 5517TIP3    H116515   1.891   4.422   3.896 -0.3784 -0.6575  1.1302
 5517TIP3    H216516   2.013   4.344   3.854 -0.2101 -0.3062  0.9605
 5518TIP3   OH216517   4.713   1.346   1.305  0.0538  0.7760  0.2250
 5518TIP3    H116518   4.680   1.272   1.356 -0.2675 -2.4233 -4.0517
 5518TIP3    H216519   4.807   1.332   1.299  0.0375  0.8622 -0.3311
 5519TIP3   OH216520   5.040   4.656   2.139  0.1498  0.2275 -0.2551
 5519TIP3    H116521   4.955   4.616   2.160  1.3775 -3.0606 -1.0063
 5519TIP3    H216522   5.079   4.675   2.224 -1.1293  1.4449  0.1031
 5520TIP3   OH216523   1.303   5.950   5.486 -0.6620  0.0388 -0.4015
 5520TIP3    H116524   1.351   5.899   5.420 -0.8421 -2.5407  1.3549
 5520TIP3    H216525   1.212   5.945   5.458 -0.5637  0.3248 -0.7928
 5521TIP3   OH216526   6.474   3.076   5.657  0.2116  0.2423  0.2443
 5521TIP3    H116527   6.424   2.996   5.639 -0.6101  0.3116  2.0115
 5521TIP3    H216528   6.536   3.082   5.584 -0.3401 -1.4878 -0.4288
 5522TIP3   OH216529   2.646   3.097   3.997 -0.3451 -0.6250  0.2285
 5522TIP3    H116530   2.653   3.177   3.945  4.4129 -0.4136  0.7956
 5522TIP3    H216531   2.615   3.031   3.934  2.4945  0.2241 -2.3211
 5523TIP3   OH216532   1.320   2.867   5.188 -0.2269  0.0718 -0.1074
 5523TIP3    H116533   1.233   2.863   5.148  0.9703 -1.5841 -2.8296
 5523TIP3    H216534   1.325   2.789   5.244 -1.0390  1.0820  1.4273
 5524TIP3   OH216535   5.908   3.190   3.396  0.4547  0.9082  0.4229
 5524TIP3    H116536   5.978   3.256   3.389 -0.9142  2.4175  0.3574
 5524TIP3    H216537   5.834   3.238   3.432 -1.2485 -0.0624 -1.5578
 5525TIP3   OH216538   6.212   4.872   3.470  0.2144  0.4804 -0.0149
 5525TIP3    H116539   6.172   4.874   3.384 -1.9249  1.0653  0.9251
 5525TIP3    H216540   6.212   4.963   3.500  0.8976  0.2866  0.6226
 5526TIP3   OH216541   1.701   3.455   4.061  0.1060  0.2026 -0.5217
 5526TIP3    H116542   1.641   3.508   4.113  1.7737  1.6132  0.0911
 5526TIP3    H216543   1.646   3.391   4.018 -2.0692  2.4409 -1.3192
 5527TIP3   OH216544   2.465   4.366   2.783  0.7613 -0.0015 -0.4338
 5527TIP3    H116545   2.484   4.407   2.699 -0.0017  0.5946 -0.3323
 5527TIP3    H216546   2.482   4.273   2.769  2.1407  0.2828 -0.7830
 5528TIP3   OH216547   2.572   2.209   3.445  0.7005 -0.1091  0.0856
 5528TIP3    H116548   2.616   2.124   3.448  1.8626  0.4743  0.2957
 5528TIP3    H216549   2.637   2.268   3.408 -1.0420  0.1649 -2.8256
 5529TIP3   OH216550   2.009   0.525   5.104 -0.1774  0.4042  0.1236
 5529TIP3    H116551   2.066   0.527   5.027  0.6202  0.6017  0.7127
 5529TIP3    H216552   1.948   0.598   5.090 -0.1766  0.3014 -0.4280
 5530TIP3   OH216553   0.343   3.394   1.332  0.1169  0.2593  0.4325
 5530TIP3    H116554   0.283   3.418   1.261 -0.6329 -1.4670  0.4342
 5530TIP3    H216555   0.360   3.301   1.318  1.1863  0.2437  1.6447
 5531TIP3   OH216556   5.694   5.186   4.143  0.2470 -0.1607  0.3879
 5531TIP3    H116557   5.708   5.164   4.051  1.0214  0.5084  0.3422
 5531TIP3    H216558   5.631   5.120   4.173  0.5689 -0.8561 -0.4135
 5532TIP3   OH216559   3.322   0.653   5.086  0.1805  0.0299  0.3113
 5532TIP3    H116560   3.372   0.602   5.148  2.2807  0.4246 -0.9597
 5532TIP3    H216561   3.244   0.680   5.134  1.0652 -0.8020  2.3067
 5533TIP3   OH216562   6.919   6.775   0.325  0.1739  0.1205  0.8241
 5533TIP3    H116563   6.939   6.855   0.276 -0.2902  0.5698  1.3475
 5533TIP3    H216564   6.969   6.707   0.281  0.4385  0.6670  0.2557
 5534TIP3   OH216565   1.679   5.464   1.629  0.2880  0.6483 -0.3184
 5534TIP3    H116566   1.642   5.477   1.542  0.0776  0.1843 -0.3001
 5534TIP3    H216567   1.737   5.539   1.641  0.9255  0.3182 -1.1820
 5535TIP3   OH216568   6.710   2.859   1.616  0.1432 -0.5231 -0.4573
 5535TIP3    H116569   6.728   2.902   1.532 -0.7026 -1.6984 -1.2749
 5535TIP3    H216570   6.624   2.819   1.604 -1.4391  1.7953  2.0203
 5536TIP3   OH216571   6.939   4.417   2.264  0.1112 -0.2667  0.4059
 5536TIP3    H116572   6.949   4.370   2.181 -0.3417  1.4841 -0.7104
 5536TIP3    H216573   6.873   4.368   2.312 -1.2899 -0.1192 -1.2577
 5537TIP3   OH216574   5.211   5.650   3.853  0.0807  0.5100  0.0886
 5537TIP3    H116575   5.147   5.589   3.890 -1.3721  0.2821 -2.5489
 5537TIP3    H216576   5.214   5.722   3.916 -2.6294  0.4063  0.4830
 5538TIP3   OH216577   0.094   1.720   5.427  0.4230 -0.2217 -0.2616
 5538TIP3    H116578   0.147   1.650   5.466  1.2532 -0.5975 -1.9906
 5538TIP3    H216579   0.150   1.759   5.361 -0.3978  1.4615 -0.0074
 5539TIP3   OH216580   0.174   0.402   2.119 -0.4808 -0.2944 -0.4940
 5539TIP3    H116581   0.122   0.365   2.191 -0.0527 -1.3376 -0.7059
 5539TIP3    H216582   0.136   0.363   2.040 -0.9560  0.8506 -0.8496
 5540TIP3   OH216583   6.096   5.670   4.823  0.4871  0.0513  0.3891
 5540TIP3    H116584   6.179   5.644   4.864  0.8375 -0.0766 -0.3715
 5540TIP3    H216585   6.120   5.688   4.732 -0.4346 -0.5911  0.0068
 5541TIP3   OH216586   3.529   5.279   2.258  0.4450 -0.5908  0.3734
 5541TIP3    H116587   3.460   5.304   2.319  0.9372 -1.5543  1.3608
 5541TIP3    H216588   3.611   5.300   2.303  0.8231  0.5290 -0.7768
 5542TIP3   OH216589   4.999   3.108   5.443  0.4878  0.5167 -0.0126
 5542TIP3    H116590   5.051   3.029   5.460 -0.6392 -0.0674  0.8901
 5542TIP3    H216591   4.916   3.076   5.409 -0.8785  1.0748  2.4808
 5543TIP3   OH216592   3.316   1.819   0.360  0.2993  0.6114 -0.2912
 5543TIP3    H116593   3.299   1.797   0.268  1.4801  0.2917 -0.4547
 5543TIP3    H216594   3.250   1.885   0.381 -1.4624 -0.9668 -0.6620
 5544TIP3   OH216595   4.132   4.445   5.605 -0.1589  0.2142 -0.3632
 5544TIP3    H116596   4.106   4.448   5.513  0.6257  0.0460 -0.6002
 5544TIP3    H216597   4.226   4.464   5.604  0.0730 -0.8069  0.2947
 5545TIP3   OH216598   0.443   3.844   0.359  0.7100 -0.2236  0.0983
 5545TIP3    H116599   0.351   3.829   0.379  0.9252 -0.6281  0.8291
 5545TIP3    H216600   0.486   3.847   0.444  1.2829  0.5919 -0.2111
 5546TIP3   OH216601   2.389   0.308   5.164 -0.1923 -0.6292  0.1169
 5546TIP3    H116602   2.437   0.352   5.094  0.5238 -1.2470  0.2051
 5546TIP3    H216603   2.380   0.218   5.134  0.3115 -0.9480  0.9129
 5547TIP3   OH216604   0.192   0.997   0.228  0.1987  0.5444 -0.3132
 5547TIP3    H116605   0.216   1.048   0.152 -1.0912  1.6008 -0.0502
 5547TIP3    H216606   0.205   0.906   0.201  2.2494  0.9610 -0.8780
 5548TIP3   OH216607   1.416   2.697   2.502  0.5055  0.3590 -0.7050
 5548TIP3    H116608   1.458   2.755   2.566  1.2901 -0.1842 -0.7082
 5548TIP3    H216609   1.489   2.648   2.463 -0.0954 -0.2589 -1.0713
 5549TIP3   OH216610   1.582   2.677   1.230  0.5514 -0.2779 -0.3152
 5549TIP3    H116611   1.583   2.613   1.301  0.0365  1.4849  1.3455
 5549TIP3    H216612   1.490   2.702   1.222  0.7725  0.4125 -0.7999
 5550TIP3   OH216613   0.582   6.678   5.841 -0.0211 -0.3671 -0.2045
 5550TIP3    H116614   0.639   6.616   5.794  0.0758 -2.2623  2.2322
 5550TIP3    H216615   0.507   6.625   5.869  0.5019  0.3068  2.7594
 5551TIP3   OH216616   6.098   5.371   2.482  0.3584 -0.2580  0.6297
 5551TIP3    H116617   6.133   5.282   2.478  0.6782 -0.1133  0.0869
 5551TIP3    H216618   6.126   5.403   2.568 -0.3388 -0.9077  1.1092
 5552TIP3   OH216619   6.186   0.129   2.465  0.1478 -0.0042  0.1216
 5552TIP3    H116620   6.224   0.153   2.381  1.4037 -0.6374  0.4866
 5552TIP3    H216621   6.253   0.151   2.529  0.6733 -2.7941  0.6333
 5553TIP3   OH216622   0.381   1.170   3.138  0.1380  0.3474 -0.1085
 5553TIP3    H116623   0.320   1.189   3.209  0.4764 -0.4953  0.4221
 5553TIP3    H216624   0.408   1.256   3.106 -1.0764  0.7383 -0.1479
 5554TIP3   OH216625   2.413   2.310   3.064  0.0050 -0.0996 -0.2226
 5554TIP3    H116626   2.451   2.314   2.976  0.1154 -0.2446 -0.1795
 5554TIP3    H216627   2.482   2.342   3.122 -0.4744  1.1612 -0.3198
 5555TIP3   OH216628   0.923   3.808   4.629  0.2760  0.2165  0.1709
 5555TIP3    H116629   0.850   3.786   4.571  0.1176 -2.4280  1.2110
 5555TIP3    H216630   0.882   3.834   4.711  0.4438 -0.8982  0.6328
 5556TIP3   OH216631   1.763   0.357   2.251  0.2710  0.4805  0.0664
 5556TIP3    H116632   1.850   0.359   2.291  0.8684 -1.5492 -0.9306
 5556TIP3    H216633   1.780   0.374   2.158 -0.8185  2.9921  0.2562
 5557TIP3   OH216634   2.692   1.313   1.526  0.1056  0.2550 -0.7758
 5557TIP3    H116635   2.663   1.372   1.596 -0.8965  0.0490 -0.9906
 5557TIP3    H216636   2.703   1.228   1.569  0.7370  0.4094 -0.6272
 5558TIP3   OH216637   3.087   2.642   2.095  0.2167 -0.5731 -0.0866
 5558TIP3    H116638   3.085   2.720   2.151  0.6442  0.7551 -1.8331
 5558TIP3    H216639   3.162   2.592   2.126  1.1755  0.7332 -0.1950
 5559TIP3   OH216640   4.143   0.013   4.009  0.3446  0.0329  0.1595
 5559TIP3    H116641   4.111   0.067   3.937  1.2673  0.4797  0.0674
 5559TIP3    H216642   4.139   0.071   4.086 -0.6329 -0.4393  0.4861
 5560TIP3   OH216643   3.622   1.714   2.590 -0.5895  0.6251 -0.3057
 5560TIP3    H116644   3.527   1.718   2.575 -0.4343  1.9277 -1.1290
 5560TIP3    H216645   3.645   1.802   2.620  0.4193  0.4391 -0.4927
 5561TIP3   OH216646   2.542   4.356   1.053 -0.0354  0.2999 -0.6655
 5561TIP3    H116647   2.480   4.282   1.054 -0.3805  0.5900 -0.3502
 5561TIP3    H216648   2.627   4.316   1.071 -0.3331  0.0776  0.2652
 5562TIP3   OH216649   1.628   0.988   1.701 -0.3741 -0.2372  0.6557
 5562TIP3    H116650   1.704   0.939   1.730  0.4191  0.8053  0.3922
 5562TIP3    H216651   1.554   0.945   1.743  0.3002 -1.6073  0.4665
 5563TIP3   OH216652   1.366   4.413   5.634  0.0316  0.2941 -0.4018
 5563TIP3    H116653   1.379   4.475   5.706  0.4530  0.6373 -0.7631
 5563TIP3    H216654   1.280   4.435   5.598 -0.1682  0.1400 -0.0255
 5564TIP3   OH216655   0.808   6.195   0.745 -0.0592  0.0662  0.0782
 5564TIP3    H116656   0.833   6.111   0.785 -2.9410 -1.4477 -0.9782
 5564TIP3    H216657   0.845   6.192   0.657  1.9623  1.1302  0.8169
 5565TIP3   OH216658   6.248   0.733   1.828  0.6729  0.4432 -0.4109
 5565TIP3    H116659   6.222   0.643   1.847 -1.0040  0.1416 -3.5529
 5565TIP3    H216660   6.329   0.725   1.778  0.9234  0.7453 -0.0606
 5566TIP3   OH216661   7.000   3.812   2.949  0.2519 -0.6353  0.0319
 5566TIP3    H116662   6.917   3.810   2.902 -0.6692  0.4397  1.5347
 5566TIP3    H216663   7.061   3.766   2.891 -1.2034 -0.8299 -1.4256
 5567TIP3   OH216664   5.374   5.820   1.717  0.3689 -0.1940 -0.0722
 5567TIP3    H116665   5.386   5.785   1.629 -0.1232  1.8525 -1.0108
 5567TIP3    H216666   5.293   5.872   1.712  0.0854 -0.3899  1.7105
 5568TIP3   OH216667   2.143   4.250   4.936 -0.2839  0.0326 -0.2292
 5568TIP3    H116668   2.176   4.249   4.846  1.9442 -2.9873  0.4447
 5568TIP3    H216669   2.059   4.295   4.931  1.5435  3.7338 -3.0344
 5569TIP3   OH216670   4.806   6.105   1.757  0.0147 -0.0577 -0.2304
 5569TIP3    H116671   4.831   6.034   1.698 -1.0382 -1.0180  0.4190
 5569TIP3    H216672   4.881   6.116   1.815  0.8874  0.6022 -1.4470
 5570TIP3   OH216673   4.415   0.881   1.950 -0.0908  0.0772 -0.0814
 5570TIP3    H116674   4.499   0.926   1.943  1.4011 -2.2820  1.5472
 5570TIP3    H216675   4.417   0.814   1.882 -0.7306  0.0672 -0.1039
 5571TIP3   OH216676   6.858   1.788   4.924 -0.1875 -0.9942  0.1430
 5571TIP3    H116677   6.812   1.785   4.840 -0.5463  0.3291  0.2606
 5571TIP3    H216678   6.931   1.726   4.914  0.3697 -0.1481 -1.5259
 5572TIP3   OH216679   0.934   6.650   4.678  0.4181  0.3559  0.0533
 5572TIP3    H116680   0.923   6.564   4.719  1.9940  0.2084  0.2385
 5572TIP3    H216681   0.852   6.665   4.630  0.1610 -1.2901 -0.0728
 5573TIP3   OH216682   7.159   3.122   0.813  0.5010  0.0742  0.3682
 5573TIP3    H116683   7.238   3.078   0.782  0.0295 -0.1791 -0.5061
 5573TIP3    H216684   7.145   3.193   0.751 -0.4196 -0.3928  0.0186
 5574TIP3   OH216685   6.392   2.990   1.863  0.1455  0.0202  0.3442
 5574TIP3    H116686   6.359   3.078   1.878 -1.4806 -0.9117  2.9123
 5574TIP3    H216687   6.339   2.955   1.791 -0.3581  0.5782  0.4440
 5575TIP3   OH216688   2.566   3.744   3.397  0.4696 -0.1530  0.3031
 5575TIP3    H116689   2.517   3.815   3.440  1.3179  0.1938  0.7168
 5575TIP3    H216690   2.633   3.789   3.346  1.2887 -0.6590  0.9111
 5576TIP3   OH216691   6.669   0.853   0.105  0.0817  0.1413 -0.2313
 5576TIP3    H116692   6.709   0.792   0.043 -0.5781 -1.2992  0.6771
 5576TIP3    H216693   6.727   0.852   0.181 -0.2471  0.1616  0.0255
 5577TIP3   OH216694   5.947   5.312   0.709 -0.7244  0.4687  0.4343
 5577TIP3    H116695   5.982   5.370   0.776 -0.4784  1.2865 -0.3831
 5577TIP3    H216696   6.022   5.291   0.653 -0.5447 -1.6288  1.3969
 5578TIP3   OH216697   4.328   4.783   1.627  0.0491 -0.2631 -0.2300
 5578TIP3    H116698   4.312   4.767   1.535  0.0508 -1.2042 -0.0726
 5578TIP3    H216699   4.253   4.836   1.656  0.0656  0.0576 -0.7660
 5579TIP3   OH216700   4.452   4.751   4.071 -0.1437  0.3752 -0.3231
 5579TIP3    H116701   4.502   4.673   4.047  1.4103  0.4934  2.1846
 5579TIP3    H216702   4.496   4.823   4.025  0.2511  0.1406 -0.3097
 5580TIP3   OH216703   3.910   1.458   2.170  0.1003 -0.1963  0.2235
 5580TIP3    H116704   3.921   1.529   2.107 -0.0292 -0.4540 -0.0853
 5580TIP3    H216705   3.857   1.393   2.125  0.0113 -0.3826  0.5960
 5581TIP3   OH216706   6.238   1.655   4.149  0.0667  0.1396 -0.6261
 5581TIP3    H116707   6.229   1.695   4.236 -3.4943 -0.5673 -0.5259
 5581TIP3    H216708   6.248   1.729   4.089  0.2720  0.7751  0.1804
 5582TIP3   OH216709   4.802   0.254   3.088  0.1024 -0.2534  0.3331
 5582TIP3    H116710   4.773   0.301   3.010 -0.1520  0.5184  0.8698
 5582TIP3    H216711   4.875   0.306   3.121 -1.2308  0.7486  1.8664
 5583TIP3   OH216712   0.169   2.189   1.689  0.1476  0.2076 -0.3273
 5583TIP3    H116713   0.201   2.185   1.599 -0.3837 -0.5177 -0.4933
 5583TIP3    H216714   0.247   2.209   1.741  0.5969 -0.1100 -0.8656
 5584TIP3   OH216715   2.904   3.615   1.819  0.2799  0.1000  0.1778
 5584TIP3    H116716   2.824   3.603   1.871  0.1172 -0.0931 -0.1158
 5584TIP3    H216717   2.954   3.535   1.833  0.1089 -0.0710 -0.1839
 5585TIP3   OH216718   2.759   6.578   1.411 -0.0270  0.2644  0.0072
 5585TIP3    H116719   2.693   6.587   1.479 -0.0888  1.7930 -0.2320
 5585TIP3    H216720   2.791   6.667   1.395  2.6595 -0.4782  0.6693
 5586TIP3   OH216721   3.415   2.991   5.775 -0.1832  0.2797 -0.0655
 5586TIP3    H116722   3.487   3.050   5.796 -0.9182  1.9575 -1.9076
 5586TIP3    H216723   3.454   2.904   5.777  1.7084  1.0693 -0.2755
 5587TIP3   OH216724   1.941   0.439   4.505  0.0649 -0.1885 -0.0306
 5587TIP3    H116725   1.911   0.416   4.417 -0.3974  3.1535 -0.8813
 5587TIP3    H216726   1.946   0.534   4.504  0.8323 -0.0829  3.3582
 5588TIP3   OH216727   6.564   2.625   0.141  0.2483 -0.1393  0.2393
 5588TIP3    H116728   6.545   2.687   0.211 -1.9697  0.0144 -0.4318
 5588TIP3    H216729   6.497   2.558   0.150  0.5064 -0.6184 -1.1770
 5589TIP3   OH216730   3.896   4.838   4.876 -0.0122  0.3697 -0.3623
 5589TIP3    H116731   3.972   4.827   4.933  0.9980  0.6325 -1.6127
 5589TIP3    H216732   3.851   4.915   4.910  0.3147  0.2569  0.3439
 5590TIP3   OH216733   6.162   5.319   3.063  0.0473 -0.0330  0.3143
 5590TIP3    H116734   6.233   5.380   3.043  0.2774 -0.4023 -0.0116
 5590TIP3    H216735   6.202   5.254   3.121  0.1609 -0.6132 -0.3949
 5591TIP3   OH216736   1.817   0.724   4.033  0.0637  0.1460  0.0900
 5591TIP3    H116737   1.774   0.654   3.984  0.7334  0.9805 -1.7936
 5591TIP3    H216738   1.818   0.693   4.124  0.1759 -2.2121 -0.6394
 5592TIP3   OH216739   0.586   5.438   0.843  0.1578 -0.0265  1.0767
 5592TIP3    H116740   0.665   5.492   0.849 -1.1574  2.0987  0.1497
 5592TIP3    H216741   0.529   5.470   0.913 -0.0645 -1.2968  1.5114
 5593TIP3   OH216742   6.058   6.188   0.193  0.7407  0.0834 -0.0101
 5593TIP3    H116743   6.084   6.121   0.130 -1.8983  0.5816 -1.7313
 5593TIP3    H216744   5.988   6.147   0.244  1.6354  0.3154  1.4829
 5594TIP3   OH216745   5.083   3.398   4.309 -0.0872  0.4923  0.5749
 5594TIP3    H116746   5.007   3.395   4.367  0.3927 -0.0344  1.2008
 5594TIP3    H216747   5.127   3.479   4.332 -0.5364  0.8725  0.1053
 5595TIP3   OH216748   4.830   4.129   2.549  0.4979 -0.5519 -0.5588
 5595TIP3    H116749   4.899   4.172   2.599  0.7687 -1.5308 -0.0723
 5595TIP3    H216750   4.825   4.179   2.467  0.1573  0.9802  0.3444
 5596TIP3   OH216751   6.147   1.748   0.564 -0.2088 -0.2375  0.2632
 5596TIP3    H116752   6.102   1.832   0.573 -1.3505 -0.8056  0.0471
 5596TIP3    H216753   6.190   1.734   0.648 -1.0351 -0.0169  0.7291
 5597TIP3   OH216754   6.887   0.565   3.704 -0.4945 -0.4695 -0.1000
 5597TIP3    H116755   6.853   0.489   3.750  0.6362 -0.2176  1.2448
 5597TIP3    H216756   6.960   0.531   3.652 -1.8014 -0.7619 -1.8077
 5598TIP3   OH216757   1.391   4.022   0.238  0.1961  0.2337 -0.3970
 5598TIP3    H116758   1.386   3.949   0.299 -0.1088 -2.5175 -3.4280
 5598TIP3    H216759   1.484   4.044   0.234  0.3180 -0.1025  0.4517
 5599TIP3   OH216760   0.467   0.411   1.755 -0.1282 -0.0920 -0.4419
 5599TIP3    H116761   0.417   0.347   1.806  2.2629 -2.5777 -0.9788
 5599TIP3    H216762   0.468   0.375   1.666  0.0591  1.4898 -1.1064
 5600TIP3   OH216763   5.026   6.015   3.441  0.8481  0.3505  0.7434
 5600TIP3    H116764   4.960   5.951   3.470  2.3738 -1.3440  0.6994
 5600TIP3    H216765   5.058   6.055   3.522  1.0712 -0.2007  0.9357
 5601TIP3   OH216766   3.793   5.534   1.258 -0.5090  0.0310  0.0142
 5601TIP3    H116767   3.830   5.532   1.346  0.7650 -1.1900 -0.5105
 5601TIP3    H216768   3.716   5.478   1.263  0.0176 -0.7035  0.1918
 5602TIP3   OH216769   0.986   4.728   3.496 -0.2450 -0.4016  0.4710
 5602TIP3    H116770   1.006   4.738   3.403  0.3961  1.2297  0.7566
 5602TIP3    H216771   0.954   4.638   3.504 -1.6420 -0.1414 -1.5480
 5603TIP3   OH216772   6.072   2.968   5.699 -0.1606 -0.1769  0.0333
 5603TIP3    H116773   6.139   2.913   5.739 -0.3057  0.4959  1.2442
 5603TIP3    H216774   5.990   2.922   5.715 -0.2980  0.4317  1.1715
 5604TIP3   OH216775   0.602   2.013   3.918 -0.3571  0.0938 -0.4368
 5604TIP3    H116776   0.598   1.971   3.832 -1.0483  0.4059 -0.5581
 5604TIP3    H216777   0.695   2.010   3.942 -0.3731 -1.4309 -0.4762
 5605TIP3   OH216778   4.924   0.313   1.043  0.0936 -0.1487 -0.1636
 5605TIP3    H116779   4.934   0.237   0.986 -0.2599 -2.0493  2.1578
 5605TIP3    H216780   4.831   0.334   1.040  0.1429  0.0195 -0.5771
 5606TIP3   OH216781   2.532   5.248   1.867  0.0364 -0.3022  0.0254
 5606TIP3    H116782   2.479   5.326   1.852  0.9797  0.9885  2.7231
 5606TIP3    H216783   2.493   5.207   1.944  0.5116 -1.6399 -0.4177
 5607TIP3   OH216784   7.220   3.508   3.899  0.2150  0.2524 -0.0195
 5607TIP3    H116785   7.207   3.530   3.807 -0.3474 -0.0195 -0.0100
 5607TIP3    H216786   7.141   3.460   3.924  1.3228 -1.6594  0.0032
 5608TIP3   OH216787   3.404   3.306   3.996  0.1702 -0.0291  0.5467
 5608TIP3    H116788   3.343   3.313   3.922  1.0157 -0.4758 -0.2087
 5608TIP3    H216789   3.357   3.254   4.061  0.3149 -1.7657 -0.6703
 5609TIP3   OH216790   0.327   5.810   1.059  0.5798 -0.3360 -0.1114
 5609TIP3    H116791   0.261   5.875   1.083 -0.3446 -0.4601 -2.0997
 5609TIP3    H216792   0.348   5.766   1.141 -0.8880  0.5535  0.7975
 5610TIP3   OH216793   3.267   3.900   3.870  0.1130  0.4094 -0.3325
 5610TIP3    H116794   3.299   3.984   3.905  1.2435  0.8305 -2.2317
 5610TIP3    H216795   3.331   3.836   3.901  0.2767  0.5379 -0.4027
 5611TIP3   OH216796   0.175   4.763   0.261  0.1656  0.2248  0.2638
 5611TIP3    H116797   0.158   4.702   0.332 -1.1947 -2.4897 -2.1612
 5611TIP3    H216798   0.153   4.849   0.296 -1.2836 -1.0797  2.8005
 5612TIP3   OH216799   2.632   4.559   4.546  0.7406  0.2377 -0.4316
 5612TIP3    H116800   2.576   4.581   4.472  0.7601 -0.6256 -0.7169
 5612TIP3    H216801   2.669   4.643   4.574 -0.0547  0.7078 -0.7501
 5613TIP3   OH216802   1.971   6.255   2.544 -0.8869 -0.1050  0.0338
 5613TIP3    H116803   1.895   6.271   2.489 -0.5016 -0.7401 -0.7020
 5613TIP3    H216804   1.978   6.160   2.549 -0.7294 -0.0595  0.9323
 5614TIP3   OH216805   6.846   2.805   2.413  0.3378  0.0706  0.4966
 5614TIP3    H116806   6.848   2.713   2.385 -1.8583  0.1151  0.0190
 5614TIP3    H216807   6.782   2.846   2.356 -0.9288  1.2100  2.6326
 5615TIP3   OH216808   7.105   3.691   0.217 -0.0014  0.0840 -0.2573
 5615TIP3    H116809   7.054   3.684   0.137  1.2204 -1.9488 -0.9389
 5615TIP3    H216810   7.041   3.712   0.285 -2.0104 -3.1462 -0.9119
 5616TIP3   OH216811   1.561   3.691   3.463 -0.5313 -0.3414  0.1571
 5616TIP3    H116812   1.596   3.604   3.446  0.0843 -0.2302  0.8221
 5616TIP3    H216813   1.594   3.745   3.391  1.7965  0.0538  1.4056
 5617TIP3   OH216814   1.351   0.266   2.369  0.2667 -0.2971 -0.4584
 5617TIP3    H116815   1.404   0.191   2.395  0.3636 -0.7887 -1.9940
 5617TIP3    H216816   1.411   0.340   2.372  0.4404 -0.4527  0.0409
 5618TIP3   OH216817   3.422   0.131   4.248  0.8359 -0.7042  0.1217
 5618TIP3    H116818   3.348   0.182   4.282  0.9109  0.7234 -1.6994
 5618TIP3    H216819   3.443   0.070   4.318 -1.3872 -0.4392  1.1149
 5619TIP3   OH216820   2.803   1.479   2.628 -0.5923 -0.1238 -0.0254
 5619TIP3    H116821   2.742   1.435   2.687 -1.4713 -1.1728 -1.6328
 5619TIP3    H216822   2.766   1.567   2.616 -0.7369 -0.1127  0.4874
 5620TIP3   OH216823   3.959   5.772   5.410  0.1706 -0.3155 -0.1152
 5620TIP3    H116824   3.941   5.856   5.452  1.4689  1.2725 -2.4724
 5620TIP3    H216825   4.035   5.738   5.457  0.6009  0.6181 -0.1009
 5621TIP3   OH216826   2.827   5.222   0.226 -0.3689 -0.3282 -0.4070
 5621TIP3    H116827   2.907   5.269   0.248 -0.9753  0.9107 -0.7495
 5621TIP3    H216828   2.850   5.170   0.149  0.3543 -0.7269  0.0658
 5622TIP3   OH216829   5.047   0.766   0.189 -0.2443  0.1383 -0.0048
 5622TIP3    H116830   5.080   0.676   0.197 -2.7697 -0.8687  0.0887
 5622TIP3    H216831   4.985   0.762   0.116  1.6706  2.5493 -1.9225
 5623TIP3   OH216832   2.385   6.034   1.126  0.2497  0.1804 -0.2341
 5623TIP3    H116833   2.366   6.065   1.037 -1.4058 -2.9506 -1.1553
 5623TIP3    H216834   2.304   6.048   1.174  0.2597 -0.4679 -0.0133
 5624TIP3   OH216835   5.548   0.433   0.810  0.0539  0.2780  0.7495
 5624TIP3    H116836   5.632   0.460   0.848  0.3474 -0.3439  0.5694
 5624TIP3    H216837   5.541   0.340   0.833  0.1152 -0.0467 -0.4792
 5625TIP3   OH216838   6.487   4.778   2.026  0.7136 -0.1842  0.3319
 5625TIP3    H116839   6.570   4.753   1.986  0.0057 -0.4826 -1.0167
 5625TIP3    H216840   6.425   4.711   1.997 -0.3036  0.8102  0.1352
 5626TIP3   OH216841   1.582   5.804   2.472 -0.4073  0.1663  0.5303
 5626TIP3    H116842   1.642   5.777   2.402  2.5973  1.1967  2.4975
 5626TIP3    H216843   1.579   5.728   2.531  0.6428  0.7931  1.4317
 5627TIP3   OH216844   0.987   0.941   2.155 -0.1292 -0.0963  0.1811
 5627TIP3    H116845   1.004   0.865   2.100  0.6311 -0.5680  1.0330
 5627TIP3    H216846   1.005   1.016   2.099 -0.1491 -0.5475 -0.4414
 5628TIP3   OH216847   7.010   6.643   1.088  0.1451 -0.2437 -0.3791
 5628TIP3    H116848   7.010   6.710   1.020  1.4662 -0.5200 -0.6705
 5628TIP3    H216849   7.050   6.686   1.164 -0.0794 -0.3567 -0.1931
 5629TIP3   OH216850   0.465   5.024   4.588  0.2077 -0.7773  0.3218
 5629TIP3    H116851   0.443   4.981   4.505  0.6756 -0.1241 -0.1567
 5629TIP3    H216852   0.451   5.117   4.570  0.1617 -0.6477  1.0309
 5630TIP3   OH216853   4.401   1.144   1.739 -0.5242  0.5968  0.2896
 5630TIP3    H116854   4.464   1.118   1.806 -0.1811 -0.0694 -0.2795
 5630TIP3    H216855   4.377   1.063   1.695 -4.0179  0.3136  2.3373
 5631TIP3   OH216856   4.677   4.757   2.561 -0.1521 -0.3445 -0.4518
 5631TIP3    H116857   4.583   4.773   2.551 -0.3612  0.4780  2.1607
 5631TIP3    H216858   4.706   4.821   2.627  2.1147 -1.0277 -0.6873
 5632TIP3   OH216859   3.353   1.833   2.570 -0.5202  0.4285  0.1758
 5632TIP3    H116860   3.333   1.842   2.476  2.3207  2.5157 -0.3702
 5632TIP3    H216861   3.319   1.914   2.608  0.6136  0.7952  0.4393
 5633TIP3   OH216862   4.831   2.836   2.230 -0.1674 -0.0729  0.5590
 5633TIP3    H116863   4.803   2.792   2.151  0.1172  0.3715  0.2003
 5633TIP3    H216864   4.771   2.806   2.298  0.0689 -1.0601  0.3497
 5634TIP3   OH216865   4.150   3.534   0.078 -0.3055  0.3755  0.0724
 5634TIP3    H116866   4.108   3.529  -0.008  1.9711  1.1503 -1.1439
 5634TIP3    H216867   4.174   3.443   0.098 -2.1108 -0.0267  0.6205
 5635TIP3   OH216868   6.966   5.955   3.854  0.5110  0.3562  0.3014
 5635TIP3    H116869   6.936   5.897   3.784  2.1380 -0.1053 -0.0561
 5635TIP3    H216870   6.912   5.932   3.929  0.1282 -0.5924 -0.2471
 5636TIP3   OH216871   0.897   3.209   1.405 -0.2841  0.3957  0.0246
 5636TIP3    H116872   0.837   3.201   1.480 -1.9735  1.0789 -1.1940
 5636TIP3    H216873   0.870   3.290   1.362  0.9372  0.2365 -1.0875
 5637TIP3   OH216874   7.112   2.225   3.673  0.2972 -0.0477 -0.4330
 5637TIP3    H116875   7.078   2.307   3.638  2.1156  0.2955 -1.5702
 5637TIP3    H216876   7.061   2.157   3.629  0.2160  0.4540 -1.1424
 5638TIP3   OH216877   0.625   1.050   1.809 -0.0331  0.3091  1.0050
 5638TIP3    H116878   0.682   1.125   1.825  0.9578 -0.6015  1.8774
 5638TIP3    H216879   0.676   0.975   1.836 -0.5593 -0.8163 -0.9351
 5639TIP3   OH216880   4.313   1.461   2.279  0.2886  0.1588 -0.4949
 5639TIP3    H116881   4.244   1.505   2.327  1.0244 -0.4708  1.2053
 5639TIP3    H216882   4.394   1.495   2.316  0.8747 -1.7289  0.0724
 5640TIP3   OH216883   2.767   0.030   2.652 -0.4898 -0.4514 -0.5261
 5640TIP3    H116884   2.776   0.119   2.617  1.6413 -0.5124 -0.2741
 5640TIP3    H216885   2.837   0.022   2.716 -0.5499 -2.3661 -0.6337
 5641TIP3   OH216886   1.663   4.783   1.764 -0.4063 -0.0764  0.3292
 5641TIP3    H116887   1.623   4.840   1.698  1.1616  0.6157 -0.0820
 5641TIP3    H216888   1.750   4.821   1.779  1.5607 -3.4142 -1.3952
 5642TIP3   OH216889   1.283   2.031   4.814 -0.2999 -0.3797 -0.1932
 5642TIP3    H116890   1.346   1.978   4.766 -0.5462  0.0055 -0.9665
 5642TIP3    H216891   1.317   2.035   4.904  0.8461 -0.0536 -0.6240
 5643TIP3   OH216892   6.116   6.020   3.459  0.2794 -0.1473 -0.4327
 5643TIP3    H116893   6.121   6.094   3.399  1.9232 -0.8974 -1.2866
 5643TIP3    H216894   6.117   5.943   3.402 -1.7831 -0.8616  0.4159
 5644TIP3   OH216895   6.379   5.831   3.388  0.2374  0.3264  0.3942
 5644TIP3    H116896   6.332   5.751   3.409  1.7865 -0.6113  0.4517
 5644TIP3    H216897   6.451   5.802   3.332  0.4556  1.7709 -0.1072
 5645TIP3   OH216898   0.653   2.375   4.458 -0.2323 -0.3392 -0.0349
 5645TIP3    H116899   0.677   2.377   4.366 -0.4410  0.9535 -0.0809
 5645TIP3    H216900   0.727   2.332   4.501  0.7443  0.7184 -0.5823
 5646TIP3   OH216901   4.905   5.896   3.948  0.3198  0.6330  0.2453
 5646TIP3    H116902   4.861   5.873   4.030 -1.1071 -2.2634 -1.1873
 5646TIP3    H216903   4.997   5.876   3.964  0.0705  0.1755  1.1546
 5647TIP3   OH216904   3.573   6.737   1.336 -0.1364 -0.0539  0.8525
 5647TIP3    H116905   3.623   6.695   1.406 -0.4894 -0.1615  1.0398
 5647TIP3    H216906   3.567   6.669   1.268  2.3108  0.8054 -0.3505
 5648TIP3   OH216907   2.539   4.437   2.159  0.5775  0.0826  0.5504
 5648TIP3    H116908   2.503   4.364   2.108 -0.9423  0.6927  0.6971
 5648TIP3    H216909   2.475   4.507   2.149  0.7748  0.5826  2.4279
 5649TIP3   OH216910   2.017   5.822   3.341  0.2634 -0.1507 -0.3230
 5649TIP3    H116911   2.035   5.879   3.416  0.0422  0.8448 -1.0129
 5649TIP3    H216912   1.923   5.833   3.325  0.6021  0.8932 -1.7322
 5650TIP3   OH216913   5.989   2.312   2.452  0.2102  0.2132  0.0103
 5650TIP3    H116914   5.957   2.228   2.419  1.0917 -0.6967  1.3543
 5650TIP3    H216915   5.910   2.360   2.477 -0.2492 -2.0137  3.3629
 5651TIP3   OH216916   1.030   0.546   3.245  0.1170 -0.3875  1.3870
 5651TIP3    H116917   1.082   0.506   3.315  0.6004  0.2079  1.3723
 5651TIP3    H216918   0.955   0.585   3.290  0.5248  0.1590  1.6020
 5652TIP3   OH216919   5.819   2.802   4.057  0.6234 -0.5772 -0.0094
 5652TIP3    H116920   5.807   2.722   4.108 -1.7393  0.5273  1.3873
 5652TIP3    H216921   5.798   2.778   3.967 -0.7739 -1.3990  0.5117
 5653TIP3   OH216922   1.076   5.537   5.194 -0.3648 -0.4132 -0.4000
 5653TIP3    H116923   1.030   5.610   5.151 -1.9262 -0.3237  1.3310
 5653TIP3    H216924   1.062   5.552   5.287  0.3956 -2.2438  0.0388
 5654TIP3   OH216925   7.118   5.725   0.432 -0.1480 -0.3702  0.2942
 5654TIP3    H116926   7.135   5.805   0.482 -1.0947 -1.1317  1.9252
 5654TIP3    H216927   7.090   5.756   0.346  1.0664  0.9988  0.3468
 5655TIP3   OH216928   1.000   0.520   1.717 -0.0650 -0.8332 -0.0407
 5655TIP3    H116929   0.994   0.550   1.808 -1.7972  0.6871 -0.6064
 5655TIP3    H216930   0.915   0.480   1.700  0.5554 -1.8635 -0.7553
 5656TIP3   OH216931   0.720   1.000   1.082  0.0059  0.1447  0.3540
 5656TIP3    H116932   0.712   1.093   1.060 -1.9375 -0.4636 -1.8309
 5656TIP3    H216933   0.736   0.957   0.999  1.5630 -1.4871  1.4232
 5657TIP3   OH216934   0.857   0.108   5.174  0.4594  0.0465 -0.5074
 5657TIP3    H116935   0.907   0.153   5.106 -0.3616  0.1195 -1.0834
 5657TIP3    H216936   0.843   0.020   5.138  1.9884 -0.6728  0.5726
 5658TIP3   OH216937   0.336   4.554   1.036  0.0543  0.6405  0.1920
 5658TIP3    H116938   0.334   4.558   1.131 -1.3023 -0.6127  0.2422
 5658TIP3    H216939   0.372   4.468   1.015 -0.8554  0.3761 -0.3853
 5659TIP3   OH216940   4.948   0.011   0.648 -0.0673  0.2640  0.0753
 5659TIP3    H116941   4.941   0.099   0.610 -1.7701  0.2972  0.3785
 5659TIP3    H216942   4.981  -0.044   0.577  3.3420  1.4936  0.5004
 5660TIP3   OH216943   0.781   0.874   2.936  0.0441  0.1188 -0.6648
 5660TIP3    H116944   0.721   0.921   2.878 -0.9174  2.0588  1.7503
 5660TIP3    H216945   0.731   0.861   3.017  2.2324  0.0231  0.7384
 5661TIP3   OH216946   4.160   4.922   0.048 -0.6884 -0.1256 -0.4184
 5661TIP3    H116947   4.251   4.922   0.079 -1.4555 -0.3166  2.0848
 5661TIP3    H216948   4.150   5.006   0.004  0.8703 -0.3985 -1.3771
 5662TIP3   OH216949   6.380   5.423   1.466  0.2175  0.0137 -0.4448
 5662TIP3    H116950   6.412   5.498   1.517  1.0312  1.0058 -2.3185
 5662TIP3    H216951   6.418   5.347   1.509  0.1235  0.7257  0.9675
 5663TIP3   OH216952   0.393   2.121   1.520 -0.3778  0.1895  0.0872
 5663TIP3    H116953   0.449   2.197   1.507 -1.2720  0.9127  0.3288
 5663TIP3    H216954   0.436   2.070   1.589  0.9957 -0.3112 -1.0908
 5664TIP3   OH216955   3.711   2.590   5.887  0.2417  0.1673  0.0141
 5664TIP3    H116956   3.678   2.501   5.892  2.5127 -0.7142  0.5120
 5664TIP3    H216957   3.787   2.585   5.828  0.0184  1.8980 -0.4809
 5665TIP3   OH216958   0.530   3.065   2.815  0.4310 -0.0573 -0.5054
 5665TIP3    H116959   0.456   3.005   2.816  1.1013 -0.8916  0.2900
 5665TIP3    H216960   0.558   3.066   2.723  2.6122 -3.8123 -0.0896
 5666TIP3   OH216961   1.023   4.870   2.745  0.4024  0.2100  0.8335
 5666TIP3    H116962   1.070   4.798   2.789 -0.1309  0.8269  2.5137
 5666TIP3    H216963   0.962   4.826   2.686  0.6198 -0.7016  1.2619
 5667TIP3   OH216964   4.569   5.210   1.519 -0.0934  0.3356  0.6485
 5667TIP3    H116965   4.604   5.259   1.593  1.6855 -0.2156  0.2303
 5667TIP3    H216966   4.577   5.118   1.545 -1.6069  0.1763  0.6614
 5668TIP3   OH216967   4.699   3.324   5.032 -0.1153 -0.2246 -0.4190
 5668TIP3    H116968   4.788   3.291   5.029 -0.0414 -0.3798  1.7827
 5668TIP3    H216969   4.647   3.260   4.984  0.8881 -0.3035 -1.4281
 5669TIP3   OH216970   6.058   1.944   0.759 -0.0243 -0.1841  0.1447
 5669TIP3    H116971   6.145   1.980   0.781  0.2571 -0.8961  0.2195
 5669TIP3    H216972   6.002   2.021   0.751  0.7588  0.3316 -0.5376
 5670TIP3   OH216973   2.528   3.951   5.650 -0.2959  0.2300 -0.4216
 5670TIP3    H116974   2.457   4.010   5.676 -0.0348 -0.2436  1.5085
 5670TIP3    H216975   2.489   3.893   5.585 -1.5050  0.3720  0.1582
 5671TIP3   OH216976   1.284   5.140   3.847 -0.2653  0.2084 -0.1867
 5671TIP3    H116977   1.369   5.100   3.864 -0.1796  0.1033 -0.8468
 5671TIP3    H216978   1.255   5.101   3.764 -0.5553  0.8919 -0.4129
 5672TIP3   OH216979   4.066   2.596   1.171  0.0921  0.4010  0.0634
 5672TIP3    H116980   4.152   2.572   1.205  0.6570 -0.7250 -2.0024
 5672TIP3    H216981   4.008   2.591   1.247  1.5547 -0.3853  1.1782
 5673TIP3   OH216982   2.756   0.548   4.034 -0.6203 -0.6792 -0.1231
 5673TIP3    H116983   2.770   0.503   4.117 -0.2541 -0.0431  0.1695
 5673TIP3    H216984   2.661   0.563   4.031 -0.6309 -0.6789  0.1939
 5674TIP3   OH216985   2.083   1.632   4.345 -0.4018 -0.1600 -0.1051
 5674TIP3    H116986   2.167   1.658   4.384 -0.0876 -1.2653 -0.0223
 5674TIP3    H216987   2.098   1.639   4.250  0.4226 -2.1734 -0.1629
 5675TIP3   OH216988   4.635   0.221   3.771  0.0423 -0.6183  0.5836
 5675TIP3    H116989   4.569   0.211   3.702 -0.9563  0.0722  1.4070
 5675TIP3    H216990   4.614   0.304   3.812  0.9979 -0.7378  1.3447
 5676TIP3   OH216991   6.826   0.798   2.916 -0.1609  0.6023 -0.3363
 5676TIP3    H116992   6.846   0.890   2.928 -1.2887  0.6894  1.1322
 5676TIP3    H216993   6.912   0.755   2.906  0.3469  2.0891 -4.0239
 5677TIP3   OH216994   7.075   2.738   3.424 -0.0338  0.2260  0.3509
 5677TIP3    H116995   7.147   2.709   3.367 -0.5617 -2.8371  1.0539
 5677TIP3    H216996   7.009   2.772   3.364  0.7257  0.1300 -0.5669
 5678TIP3   OH216997   6.965   4.938   0.675  0.1352  0.1377  0.6913
 5678TIP3    H116998   6.938   5.029   0.661  0.9953  0.4020  0.7036
 5678TIP3    H216999   7.045   4.944   0.727 -0.4679 -0.6752  1.7656
 5679TIP3   OH217000   5.652   4.836   4.086 -0.3834 -0.0886  0.3900
 5679TIP3    H117001   5.682   4.896   4.017 -0.5895 -1.4057 -0.8884
 5679TIP3    H217002   5.557   4.849   4.089 -0.3424  0.1609  0.6138
 5680TIP3   OH217003   6.110   2.775   5.025 -0.2542 -0.3183  0.1095
 5680TIP3    H117004   6.035   2.782   5.083  0.3033 -0.1844  0.8232
 5680TIP3    H217005   6.092   2.837   4.954 -2.1116 -2.2274 -1.2199
 5681TIP3   OH217006   1.396   4.901   0.940 -0.1556  0.0431 -0.3829
 5681TIP3    H117007   1.351   4.985   0.953 -0.2168 -0.2168  1.3279
 5681TIP3    H217008   1.328   4.836   0.957  0.3933 -0.3500  0.3247
 5682TIP3   OH217009   4.798   4.746   0.212  0.1345  0.6432  0.0961
 5682TIP3    H117010   4.750   4.814   0.165  0.3620  0.9196  0.2632
 5682TIP3    H217011   4.879   4.788   0.239 -0.6076  0.9350  2.0115
 5683TIP3   OH217012   1.240   4.843   5.746  0.2258  0.5003 -0.2104
 5683TIP3    H117013   1.147   4.839   5.770  0.3633  1.6570  0.6064
 5683TIP3    H217014   1.239   4.871   5.654 -0.2377  0.6232 -0.1748
 5684TIP3   OH217015   2.172   0.055   4.607 -0.4453 -0.3792 -0.0880
 5684TIP3    H117016   2.109   0.106   4.656 -1.0020  0.7823 -1.8989
 5684TIP3    H217017   2.159   0.082   4.516  1.1716 -1.7150 -0.7734
 5685TIP3   OH217018   2.571   3.802   2.816 -0.1606 -0.0412  0.6154
 5685TIP3    H117019   2.619   3.719   2.817  0.3417  0.2496  0.4669
 5685TIP3    H217020   2.541   3.811   2.726  0.0575  0.0989  0.5577
 5686TIP3   OH217021   1.061   6.231   0.225 -0.7701  0.3578 -0.2148
 5686TIP3    H117022   1.047   6.139   0.203 -1.2779  0.4121 -0.1254
 5686TIP3    H217023   1.046   6.277   0.142  1.2203  0.2234 -0.7139
 5687TIP3   OH217024   2.828   5.090   1.641  0.3164 -0.1546  0.4436
 5687TIP3    H117025   2.859   5.178   1.620 -1.4275  0.4555  0.2062
 5687TIP3    H217026   2.873   5.033   1.579  1.0450  0.6431  0.2207
 5688TIP3   OH217027   4.060   2.677   4.479 -0.1249 -0.5346  0.0996
 5688TIP3    H117028   3.993   2.707   4.418  0.3383 -0.8301 -0.5586
 5688TIP3    H217029   4.012   2.626   4.544 -0.5194 -0.9235 -0.4855
 5689TIP3   OH217030   1.776   6.352   0.964  0.2026  0.0512 -0.2998
 5689TIP3    H117031   1.721   6.430   0.957  0.6503  0.3890 -0.1247
 5689TIP3    H217032   1.768   6.310   0.878  0.0427  0.3500 -0.4347
 5690TIP3   OH217033   3.460   6.699   3.598 -0.2266 -1.0580 -0.2693
 5690TIP3    H117034   3.532   6.663   3.546  1.0460  1.5290 -0.4399
 5690TIP3    H217035   3.391   6.718   3.535 -0.0365 -1.1156 -0.4945
 5691TIP3   OH217036   2.630   2.490   5.104 -0.0720  0.0641  0.0756
 5691TIP3    H117037   2.677   2.409   5.120 -1.2233 -0.6829 -0.2096
 5691TIP3    H217038   2.598   2.482   5.014 -1.6649  0.0354  0.6025
 5692TIP3   OH217039   3.367   1.428   3.909  0.2225 -1.0348 -0.3568
 5692TIP3    H117040   3.417   1.364   3.857  1.7102 -0.4578  0.3259
 5692TIP3    H217041   3.376   1.510   3.861  0.4383 -0.7909  0.1055
 5693TIP3   OH217042   6.859   3.337   1.223  0.1528 -0.3647  0.3646
 5693TIP3    H117043   6.764   3.347   1.224  0.1456  0.9000 -2.5667
 5693TIP3    H217044   6.878   3.300   1.136  2.2665 -2.0207  1.4371
 5694TIP3   OH217045   5.016   4.590   0.747 -0.2772 -0.2778 -0.1136
 5694TIP3    H117046   5.034   4.502   0.780  0.9816  0.4697  1.3087
 5694TIP3    H217047   4.970   4.633   0.819 -1.0249  0.1982 -0.8613
 5695TIP3   OH217048   6.197   5.899   0.315  0.8952 -0.1761  0.3337
 5695TIP3    H117049   6.135   5.973   0.316  1.0008 -0.0839  0.0222
 5695TIP3    H217050   6.147   5.828   0.275  1.0492 -0.0495 -0.0872
 5696TIP3   OH217051   3.982   3.453   1.107 -0.2499  0.0772  0.4219
 5696TIP3    H117052   3.968   3.374   1.055 -1.5135  0.4229  0.2065
 5696TIP3    H217053   3.991   3.421   1.197 -1.7331 -0.2496  0.4708
 5697TIP3   OH217054   3.392   0.872   3.128 -0.6466  0.1278 -0.2670
 5697TIP3    H117055   3.459   0.896   3.192 -0.3034 -0.9483 -0.2089
 5697TIP3    H217056   3.440   0.826   3.060 -1.0265  1.1479 -1.2642
 5698TIP3   OH217057   6.579   4.189   0.484  0.4007 -0.1628 -0.3736
 5698TIP3    H117058   6.540   4.276   0.481  0.4797 -0.1359 -0.7444
 5698TIP3    H217059   6.524   4.136   0.426  0.3741 -0.3496 -0.1781
 5699TIP3   OH217060   5.312   4.152   4.942  0.2368 -0.3416  0.4239
 5699TIP3    H117061   5.310   4.203   5.022  0.7475 -0.0363  0.2457
 5699TIP3    H217062   5.401   4.117   4.937  0.0873 -0.7073  0.2054
 5700TIP3   OH217063   3.020   5.969   2.226  0.2427  1.1129 -0.2543
 5700TIP3    H117064   3.094   5.934   2.177  0.6555  0.9848  0.4487
 5700TIP3    H217065   2.982   6.036   2.169  1.7644  2.1970 -0.0512
 5701TIP3   OH217066   2.819   1.216   3.694 -0.5981  0.6898 -0.2907
 5701TIP3    H117067   2.742   1.251   3.739  1.6213  1.4109  3.3695
 5701TIP3    H217068   2.863   1.293   3.660 -0.4548  0.4911 -0.5551
 5702TIP3   OH217069   2.482   0.277   2.639 -0.1990 -0.0795  0.1173
 5702TIP3    H117070   2.536   0.224   2.580  1.9998 -0.3443  2.2432
 5702TIP3    H217071   2.507   0.367   2.619 -0.8519 -0.0406 -0.5953
 5703TIP3   OH217072   6.824   5.697   3.051 -0.2779 -0.5948  0.4443
 5703TIP3    H117073   6.859   5.770   3.102 -1.9555  0.3433  0.3000
 5703TIP3    H217074   6.833   5.725   2.960  0.1894 -1.1028  0.3266
 5704TIP3   OH217075   0.479   4.609   3.396 -0.3735  0.3282 -0.0938
 5704TIP3    H117076   0.513   4.549   3.462  0.8849  1.3782  0.2468
 5704TIP3    H217077   0.450   4.685   3.446 -0.5130  0.6514 -0.6553
 5705TIP3   OH217078   6.414   2.159   3.967 -0.0248 -0.7043 -0.5604
 5705TIP3    H117079   6.337   2.102   3.957 -0.5437 -0.1135 -0.0020
 5705TIP3    H217080   6.422   2.202   3.882 -0.9514 -0.0006 -0.3165
 5706TIP3   OH217081   4.032   5.342   3.488  0.3177 -0.1779 -0.1081
 5706TIP3    H117082   4.120   5.377   3.494 -0.2689  1.3274  0.2102
 5706TIP3    H217083   4.044   5.247   3.486  2.0592  0.0087 -2.6963
 5707TIP3   OH217084   0.711   1.306   0.285 -0.2529  0.2673 -0.1809
 5707TIP3    H117085   0.643   1.297   0.219 -0.1888 -1.3213 -0.0650
 5707TIP3    H217086   0.717   1.219   0.326 -0.3870  1.2049  2.0023
 5708TIP3   OH217087   3.745   6.597   4.150  0.1626  0.5643  0.3267
 5708TIP3    H117088   3.761   6.598   4.245  1.8568  0.1424  0.0936
 5708TIP3    H217089   3.751   6.504   4.127 -1.6104  0.5071 -0.0203
 5709TIP3   OH217090   0.224   1.879   1.528 -0.6447 -0.0441 -0.4883
 5709TIP3    H117091   0.132   1.853   1.523 -1.0678  0.4779  2.4573
 5709TIP3    H217092   0.227   1.938   1.603  2.2636 -0.9169  0.1963
 5710TIP3   OH217093   3.144   0.721   1.376  0.8151  0.2354 -0.2258
 5710TIP3    H117094   3.171   0.734   1.285 -0.8657  1.8732 -0.5436
 5710TIP3    H217095   3.221   0.684   1.419  1.1258 -2.3060 -2.6750
 5711TIP3   OH217096   2.558   3.742   5.278  0.3132  0.1209 -0.7561
 5711TIP3    H117097   2.623   3.677   5.305  0.1752  0.3060  0.0492
 5711TIP3    H217098   2.502   3.753   5.355  0.4873  1.3770 -0.7835
 5712TIP3   OH217099   2.589   0.234   0.855 -0.5765  0.5311  0.5345
 5712TIP3    H117100   2.574   0.279   0.938  1.0848 -0.2248  1.2828
 5712TIP3    H217101   2.673   0.189   0.866 -1.5976 -1.8265 -0.5710
 5713TIP3   OH217102   0.168   0.243   4.405  0.1436  0.0548 -0.3058
 5713TIP3    H117103   0.146   0.193   4.326 -2.1341  0.7409 -0.1704
 5713TIP3    H217104   0.243   0.297   4.380 -0.0144 -0.3603 -1.7254
 5714TIP3   OH217105   4.617   5.500   1.129 -0.2422  0.6934  0.0764
 5714TIP3    H117106   4.647   5.452   1.051  1.5598  1.7343  0.0783
 5714TIP3    H217107   4.690   5.492   1.191 -1.2307  0.7609  1.2819
 5715TIP3   OH217108   2.166   5.622   5.022  0.6307  0.5063 -0.2494
 5715TIP3    H117109   2.232   5.666   4.968  1.7820  1.6071  1.8960
 5715TIP3    H217110   2.118   5.694   5.062 -0.8615 -0.2901 -0.5623
 5716TIP3   OH217111   7.121   1.081   5.581 -0.3193  0.1947  0.3809
 5716TIP3    H117112   7.122   1.011   5.516  1.4226  0.4423  0.0799
 5716TIP3    H217113   7.145   1.037   5.663 -0.9622  0.1518  0.5500
 5717TIP3   OH217114   3.074   2.366   1.461  0.6437 -0.1649  0.0771
 5717TIP3    H117115   3.061   2.331   1.373 -0.8721 -2.9229  1.2707
 5717TIP3    H217116   3.030   2.451   1.460 -0.3409 -0.6536 -1.5107
 5718TIP3   OH217117   0.058   6.498   5.809 -0.0681  0.4386  0.1374
 5718TIP3    H117118   0.009   6.428   5.768  2.6804 -0.9369 -1.0408
 5718TIP3    H217119   0.087   6.461   5.893 -0.7006  1.1193  0.6751
 5719TIP3   OH217120   1.728   6.040   3.020 -0.1775  0.2711 -0.4371
 5719TIP3    H117121   1.633   6.036   3.009 -0.0293 -0.3027 -1.6574
 5719TIP3    H217122   1.754   6.121   2.977  0.0738 -0.5201 -1.8509
 5720TIP3   OH217123   5.717   0.945   2.269  0.4497 -0.0768  0.4358
 5720TIP3    H117124   5.721   0.986   2.355 -0.3046  0.2842  0.3048
 5720TIP3    H217125   5.769   1.002   2.213  0.7420 -0.1820  0.5965
 5721TIP3   OH217126   2.230   5.879   1.423  0.4766  1.2543 -0.2124
 5721TIP3    H117127   2.324   5.897   1.424  0.8273 -0.4045  0.4854
 5721TIP3    H217128   2.194   5.937   1.491  1.1304  1.2352  0.1598
 5722TIP3   OH217129   6.644   5.289   4.988 -0.4268  0.4458 -0.8189
 5722TIP3    H117130   6.727   5.327   5.016  0.1114 -1.9207  1.0934
 5722TIP3    H217131   6.662   5.255   4.900  0.8730 -0.6304 -0.1675
 5723TIP3   OH217132   3.137   2.804   1.400  0.6849 -0.9415  0.1869
 5723TIP3    H117133   3.045   2.793   1.424  0.2862  0.2951 -0.6270
 5723TIP3    H217134   3.184   2.742   1.454 -0.5324 -0.8590  1.3856
 5724TIP3   OH217135   2.347   2.115   4.090  0.1484 -0.1623  0.2663
 5724TIP3    H117136   2.367   2.184   4.028  0.5762  0.3181  0.9242
 5724TIP3    H217137   2.363   2.154   4.176  2.1168 -1.5626  0.6300
 5725TIP3   OH217138   3.905   4.702   0.600  0.4955  0.4539 -0.1479
 5725TIP3    H117139   3.818   4.664   0.593  0.1802  1.1623 -0.1360
 5725TIP3    H217140   3.964   4.627   0.593 -0.1428 -0.2480  1.5427
 5726TIP3   OH217141   5.328   5.328   0.283 -0.2143 -0.0151  0.0928
 5726TIP3    H117142   5.333   5.385   0.206 -0.4450  1.4977  1.1417
 5726TIP3    H217143   5.257   5.267   0.264 -0.9848  1.0233 -0.4699
 5727TIP3   OH217144   1.248   6.725   0.655 -0.7515 -0.0803 -0.9989
 5727TIP3    H117145   1.156   6.709   0.637 -1.0562  0.5737 -0.1082
 5727TIP3    H217146   1.248   6.801   0.713  0.4457  0.9311 -2.2771
 5728TIP3   OH217147   6.532   6.568   1.642  0.2363 -0.0719  0.2601
 5728TIP3    H117148   6.536   6.506   1.715 -0.8482  0.5493  0.8685
 5728TIP3    H217149   6.593   6.533   1.578  0.1690 -1.3946  0.8851
 5729TIP3   OH217150   3.713   6.111   0.892 -0.3800  0.6396  0.5941
 5729TIP3    H117151   3.646   6.052   0.927 -1.4423  1.5475  0.1177
 5729TIP3    H217152   3.788   6.099   0.951 -1.4679  0.7253  2.0490
 5730TIP3   OH217153   3.475   6.270   3.814  0.1590  0.9913  0.1846
 5730TIP3    H117154   3.407   6.334   3.792 -2.1361 -1.1110  0.6193
 5730TIP3    H217155   3.478   6.269   3.909 -0.5828 -0.1757  0.2257
 5731TIP3   OH217156   3.080   0.099   1.471 -0.1830 -0.5565  0.2618
 5731TIP3    H117157   3.067   0.194   1.479 -1.1565 -0.6850  0.2442
 5731TIP3    H217158   3.127   0.075   1.550 -1.9450 -0.4061  1.4091
 5732TIP3   OH217159   1.954   6.307   1.152 -0.2184  1.0883  0.5320
 5732TIP3    H117160   2.007   6.230   1.131 -0.5690  0.1345  2.8787
 5732TIP3    H217161   1.888   6.310   1.082 -0.9643 -1.4984  1.0132
 5733TIP3   OH217162   4.998   1.375   3.278  0.0110 -0.4195 -0.3679
 5733TIP3    H117163   5.058   1.450   3.283  0.2734 -0.6409 -0.1647
 5733TIP3    H217164   5.049   1.302   3.312 -0.5937 -0.4774  0.4531
 5734TIP3   OH217165   2.355   5.571   3.878  0.4040 -0.4063 -0.1190
 5734TIP3    H117166   2.442   5.533   3.881 -0.2958 -2.0738  0.1678
 5734TIP3    H217167   2.296   5.496   3.866 -0.9433  0.7388 -1.0960
 5735TIP3   OH217168   3.320   0.066   5.763  0.3385 -0.0082  0.0994
 5735TIP3    H117169   3.258   0.117   5.815  0.4402  0.9015 -0.6518
 5735TIP3    H217170   3.357   0.003   5.825 -0.1870  0.4711  0.9189
 5736TIP3   OH217171   1.105   3.371   5.169 -0.2313  0.1619  0.1497
 5736TIP3    H117172   1.195   3.364   5.200  0.3069 -0.1221 -1.3786
 5736TIP3    H217173   1.112   3.412   5.083 -1.5952  0.3758  0.1090
 5737TIP3   OH217174   0.414   3.020   0.950 -0.3510 -0.4408  0.0493
 5737TIP3    H117175   0.494   2.974   0.976  0.5703  0.2028 -1.5469
 5737TIP3    H217176   0.439   3.112   0.945 -1.2298 -0.2115 -0.3410
 5738TIP3   OH217177   6.831   3.324   5.191 -0.0717  0.3371  0.1506
 5738TIP3    H117178   6.891   3.263   5.147  0.5582  0.4277  0.8501
 5738TIP3    H217179   6.873   3.340   5.276 -0.4222  1.4442  0.1224
 5739TIP3   OH217180   3.640   2.913   1.643 -0.0744  0.2377 -0.7932
 5739TIP3    H117181   3.648   3.006   1.665  1.9026  0.6450 -2.7982
 5739TIP3    H217182   3.656   2.910   1.548  0.6577 -2.2185 -0.6529
 5740TIP3   OH217183   6.997   6.110   4.609 -0.3638  0.0207  0.2032
 5740TIP3    H117184   7.082   6.148   4.632 -0.4871 -0.0618  0.8179
 5740TIP3    H217185   6.934   6.180   4.625 -0.1469  1.2713 -3.4437
 5741TIP3   OH217186   2.267   0.928   0.329  0.0930 -0.0309  0.1938
 5741TIP3    H117187   2.296   0.870   0.400  0.3016 -0.2660 -0.0799
 5741TIP3    H217188   2.239   0.868   0.260  0.8438  0.1864 -0.3118
 5742TIP3   OH217189   2.566   5.444   1.062 -0.3055  0.2357 -0.1618
 5742TIP3    H117190   2.573   5.349   1.075  1.9360  0.4070  0.3163
 5742TIP3    H217191   2.490   5.455   1.005  0.1060 -1.9411 -1.2219
 5743TIP3   OH217192   0.860   4.196   0.693  0.0095  0.3705 -0.3570
 5743TIP3    H117193   0.893   4.286   0.692  0.6410  0.1459 -0.1388
 5743TIP3    H217194   0.924   4.148   0.745 -0.3676 -0.1917 -0.4074
 5744TIP3   OH217195   4.681   0.413   0.754  0.2175 -0.0059 -0.2383
 5744TIP3    H117196   4.594   0.451   0.744  0.9424  1.4223 -1.5702
 5744TIP3    H217197   4.682   0.376   0.842 -1.3636  0.8995  0.1804
 5745TIP3   OH217198   5.543   4.140   0.821  0.1961  0.8470  0.4523
 5745TIP3    H117199   5.510   4.196   0.890 -0.5799  0.9730 -0.0157
 5745TIP3    H217200   5.568   4.059   0.866  0.0449  1.0629  0.9291
 5746TIP3   OH217201   0.726   2.562   1.360  0.1034 -0.2067 -0.1350
 5746TIP3    H117202   0.743   2.655   1.378 -1.2738 -0.2629  1.8483
 5746TIP3    H217203   0.803   2.517   1.396 -0.1688  0.0671  0.8344
 5747TIP3   OH217204   6.015   3.962   2.713 -0.1952  0.4922  0.5595
 5747TIP3    H117205   5.947   3.910   2.672  0.4269 -0.8998  1.2322
 5747TIP3    H217206   5.968   4.016   2.778 -1.0233  1.9010 -1.1332
 5748TIP3   OH217207   2.074   0.434   1.313  0.3536 -0.1385  0.6502
 5748TIP3    H117208   1.984   0.417   1.340  0.2546 -0.2013  0.2815
 5748TIP3    H217209   2.121   0.450   1.396 -0.3198  1.4544  0.7680
 5749TIP3   OH217210   0.607   5.150   3.403 -0.3108  0.0171 -0.3160
 5749TIP3    H117211   0.633   5.107   3.321 -0.6159  0.1957 -0.5089
 5749TIP3    H217212   0.684   5.201   3.428  0.1688 -0.8660  0.0733
 5750TIP3   OH217213   0.139   0.152   4.667 -0.2831  0.1448  0.0141
 5750TIP3    H117214   0.165   0.179   4.579 -1.4906  0.2457 -0.3344
 5750TIP3    H217215   0.047   0.177   4.673 -0.6323 -1.2333  0.7627
 5751TIP3   OH217216   7.180   2.987   0.319  0.4059  0.2898  0.5416
 5751TIP3    H117217   7.103   3.035   0.350  0.1432 -0.0871  0.4799
 5751TIP3    H217218   7.158   2.895   0.334  0.2725  0.0933 -0.7557
 5752TIP3   OH217219   3.193   0.706   2.310 -0.1690  0.6738  0.2934
 5752TIP3    H117220   3.100   0.710   2.287 -0.1329  1.1025  0.2208
 5752TIP3    H217221   3.194   0.701   2.406 -0.2504  1.2440  0.3250
 5753TIP3   OH217222   3.124   4.170   0.709 -0.2844 -0.3293 -0.0028
 5753TIP3    H117223   3.081   4.255   0.713  1.0311  0.3245  0.5029
 5753TIP3    H217224   3.129   4.141   0.800  0.6200 -0.2595 -0.0286
 5754TIP3   OH217225   2.210   1.054   3.992  0.1058  0.3248 -0.4994
 5754TIP3    H117226   2.305   1.067   3.994  0.2271 -0.4723 -0.5966
 5754TIP3    H217227   2.185   1.076   3.902 -0.0907  2.3100  0.0063
 5755TIP3   OH217228   3.320   3.811   0.144 -0.4255  0.3117  0.0321
 5755TIP3    H117229   3.333   3.898   0.182 -2.8034  0.8705 -0.3167
 5755TIP3    H217230   3.367   3.814   0.061  0.7551  0.7309  0.6946
 5756TIP3   OH217231   2.877   4.959   3.703 -0.6857 -0.4382  0.4546
 5756TIP3    H117232   2.951   4.999   3.659  1.5298 -3.9265  0.6444
 5756TIP3    H217233   2.813   4.943   3.633 -1.2341  2.2876  0.2324
 5757TIP3   OH217234   5.076   0.339   5.890 -0.0589 -0.1066 -0.1616
 5757TIP3    H117235   5.117   0.372   5.810  1.6364  1.0026  1.0858
 5757TIP3    H217236   5.019   0.410   5.919 -0.8244 -0.5845 -0.4769
 5758TIP3   OH217237   1.816   5.105   2.040  0.6314 -0.5066 -0.0564
 5758TIP3    H117238   1.779   5.099   2.128 -0.3379  0.4047 -0.3853
 5758TIP3    H217239   1.750   5.153   1.989  1.1022 -1.1540 -1.3213
 5759TIP3   OH217240   1.679   5.794   4.117 -0.1457  0.5789  0.0699
 5759TIP3    H117241   1.606   5.734   4.104 -0.3004  0.6753  0.4653
 5759TIP3    H217242   1.747   5.741   4.158  0.2877  0.3097 -0.9633
 5760TIP3   OH217243   5.110   3.164   1.607  0.0589 -0.4080 -0.4348
 5760TIP3    H117244   5.152   3.150   1.692  1.8730  1.6285 -0.9017
 5760TIP3    H217245   5.052   3.239   1.620  0.1713 -0.2289 -0.9168
 5761TIP3   OH217246   3.190   6.258   2.173  0.4596 -0.7594 -0.6204
 5761TIP3    H117247   3.173   6.334   2.117 -0.4824  0.3343  1.0847
 5761TIP3    H217248   3.110   6.206   2.167  0.9005 -1.3803 -1.3620
 5762TIP3   OH217249   3.685   3.435   3.799 -0.3343 -0.2296 -0.1523
 5762TIP3    H117250   3.706   3.463   3.709  0.5991 -0.9334 -0.1711
 5762TIP3    H217251   3.613   3.373   3.788  0.1005 -0.6906 -0.4761
 5763TIP3   OH217252   1.576   6.159   5.225 -0.0848  0.3772 -0.1094
 5763TIP3    H117253   1.650   6.219   5.211 -0.4005  0.9760  0.6886
 5763TIP3    H217254   1.507   6.194   5.168  0.0354  0.2084 -0.3595
 5764TIP3   OH217255   5.021   3.412   2.013 -0.2915  0.0466  0.5322
 5764TIP3    H117256   4.996   3.341   2.073  1.4293 -0.4847  0.6545
 5764TIP3    H217257   5.094   3.455   2.056  1.3299 -0.6573 -1.3709
 5765TIP3   OH217258   1.868   2.854   1.871 -0.0096 -0.3814 -0.3015
 5765TIP3    H117259   1.883   2.764   1.843  0.2002 -0.5558  0.3473
 5765TIP3    H217260   1.889   2.854   1.964  0.7046  0.5088 -0.4493
 5766TIP3   OH217261   5.686   5.133   5.710 -0.0538 -0.5069  0.7026
 5766TIP3    H117262   5.752   5.081   5.755  2.2037 -0.2314 -1.9991
 5766TIP3    H217263   5.736   5.189   5.650 -2.6522  1.2952  0.0247
 5767TIP3   OH217264   5.752   5.042   5.362  0.4794 -0.0673  0.4796
 5767TIP3    H117265   5.827   5.038   5.302  0.9958 -0.8114  1.1478
 5767TIP3    H217266   5.715   5.128   5.348  0.3373 -0.3762 -1.2050
 5768TIP3   OH217267   3.501   1.035   0.884 -0.4656 -0.1207  0.0392
 5768TIP3    H117268   3.473   0.974   0.815 -1.9024 -0.1724  0.6119
 5768TIP3    H217269   3.497   0.982   0.964 -2.2799  0.8207  0.6252
 5769TIP3   OH217270   5.553   5.382   0.018  0.4112  0.0632 -0.4301
 5769TIP3    H117271   5.548   5.300   0.068 -0.6497  0.6761  0.4965
 5769TIP3    H217272   5.482   5.376  -0.045  0.4742  0.1786 -0.5124
 5770TIP3   OH217273   1.701   4.824   4.177  0.1816 -0.3578 -0.2624
 5770TIP3    H117274   1.668   4.763   4.243 -2.2064  0.4374 -0.6416
 5770TIP3    H217275   1.661   4.795   4.095 -1.5280  2.0104 -0.3549
 5771TIP3   OH217276   5.040   3.935   4.313  0.1182  0.6858 -0.0236
 5771TIP3    H117277   5.128   3.902   4.327 -0.4712 -0.6530  0.7852
 5771TIP3    H217278   5.035   4.016   4.364  0.7777  0.5955  0.1878
 5772TIP3   OH217279   0.780   2.668   2.079  0.0247 -0.6197  0.1910
 5772TIP3    H117280   0.853   2.713   2.038 -0.0684 -0.2946  0.3843
 5772TIP3    H217281   0.793   2.681   2.173  0.3470 -1.5267  0.2843
 5773TIP3   OH217282   0.794   3.474   0.579 -0.4124  0.4005  0.3811
 5773TIP3    H117283   0.828   3.481   0.668  1.2806 -0.3408 -0.1627
 5773TIP3    H217284   0.743   3.393   0.578  0.7714 -0.3733  0.3457
 5774TIP3   OH217285   6.593   1.666   5.154  0.0921  0.0164 -0.3789
 5774TIP3    H117286   6.574   1.589   5.101  1.0418  0.5860 -1.6092
 5774TIP3    H217287   6.585   1.739   5.093  1.9282  0.6374  0.0575
 5775TIP3   OH217288   3.590   4.233   4.328  0.2472 -0.5497  0.2414
 5775TIP3    H117289   3.666   4.287   4.306  0.8297 -1.6488 -0.5335
 5775TIP3    H217290   3.561   4.198   4.245 -1.1228 -0.1651  0.5352
 5776TIP3   OH217291   5.290   0.006   4.810 -0.2243  0.2016 -0.4401
 5776TIP3    H117292   5.255   0.069   4.747  0.6417  1.3248  0.1490
 5776TIP3    H217293   5.347  -0.051   4.759  1.0991  1.5913 -0.5934
 5777TIP3   OH217294   5.868   0.955   2.514  0.4615 -0.3716  0.2547
 5777TIP3    H117295   5.854   1.050   2.504 -1.8853 -0.7241 -0.4895
 5777TIP3    H217296   5.932   0.948   2.585  1.5191  1.7870 -0.3954
 5778TIP3   OH217297   5.125   2.218   1.841  0.1503 -0.4320 -0.1839
 5778TIP3    H117298   5.210   2.218   1.883 -0.0318  0.7346  0.2114
 5778TIP3    H217299   5.062   2.218   1.913 -0.1635  0.8563 -0.4459
 5779TIP3   OH217300   1.166   2.866   3.229 -0.1042 -0.1336  0.0472
 5779TIP3    H117301   1.125   2.894   3.311  2.5081  0.0169  1.4290
 5779TIP3    H217302   1.224   2.938   3.206  1.9405 -1.6673  0.1272
 5780TIP3   OH217303   4.594   0.497   1.636 -0.0154  0.5428 -0.3309
 5780TIP3    H117304   4.642   0.500   1.553 -1.4756  2.3533 -1.1855
 5780TIP3    H217305   4.646   0.552   1.695  1.3248 -1.1955  0.1904
 5781TIP3   OH217306   5.857   4.492   0.172  0.0516  0.1597 -0.0581
 5781TIP3    H117307   5.940   4.534   0.152 -0.2811  0.5816 -0.5780
 5781TIP3    H217308   5.877   4.398   0.176  1.1895  0.4302  2.9692
 5782TIP3   OH217309   2.929   0.770   4.693  0.0843  0.1579  0.3330
 5782TIP3    H117310   2.965   0.789   4.779  1.1628 -0.8592  0.1243
 5782TIP3    H217311   2.836   0.792   4.701  0.2594  0.5189  1.6087
 5783TIP3   OH217312   6.120   6.547   3.821  0.5850 -0.1597 -0.7458
 5783TIP3    H117313   6.122   6.642   3.814 -1.8577 -0.0383 -0.4504
 5783TIP3    H217314   6.158   6.516   3.738  0.2616  1.0765 -1.3694
 5784TIP3   OH217315   5.059   0.101   4.487 -0.2344  0.3959  0.0531
 5784TIP3    H117316   5.014   0.111   4.571 -0.8078 -2.5448  0.1943
 5784TIP3    H217317   4.994   0.126   4.422 -0.5225  0.5341  0.3921
 5785TIP3   OH217318   3.533   1.785   4.669 -0.0929 -0.2105 -0.1533
 5785TIP3    H117319   3.518   1.716   4.604 -1.5591 -0.6408  0.5875
 5785TIP3    H217320   3.474   1.855   4.643  0.0673  0.0314  0.1306
 5786TIP3   OH217321   4.123   2.803   2.462 -0.3407 -0.7303 -0.2700
 5786TIP3    H117322   4.147   2.763   2.545  0.9210 -2.1692 -1.2770
 5786TIP3    H217323   4.116   2.730   2.401 -0.5175  0.3601 -1.6135
 5787TIP3   OH217324   6.429   0.729   1.598  0.1583 -0.3665  0.0457
 5787TIP3    H117325   6.504   0.786   1.614  1.3087 -1.9310  0.5346
 5787TIP3    H217326   6.432   0.713   1.503 -0.2031  0.4176 -0.1002
 5788TIP3   OH217327   0.629   0.063   3.227  0.3463 -0.5440  0.0115
 5788TIP3    H117328   0.649   0.016   3.308  0.5298  1.4478  1.1865
 5788TIP3    H217329   0.536   0.083   3.233 -0.2388 -2.4515 -1.4723
 5789TIP3   OH217330   4.087   0.672   2.716  0.4181 -0.2058 -0.3331
 5789TIP3    H117331   4.054   0.732   2.649  0.7844  0.2184 -0.1377
 5789TIP3    H217332   4.136   0.606   2.667  0.0218 -0.3432 -0.5483
 5790TIP3   OH217333   5.836   1.888   4.232  0.0209  0.3392 -0.0825
 5790TIP3    H117334   5.865   1.799   4.210 -0.6889  0.5024 -1.8466
 5790TIP3    H217335   5.752   1.877   4.275  0.6410  0.0949  1.0970
 5791TIP3   OH217336   6.295   0.967   4.866  0.1037  0.1662 -0.3672
 5791TIP3    H117337   6.272   0.957   4.959  1.0513  1.2823  0.0079
 5791TIP3    H217338   6.363   0.902   4.852 -0.5907 -0.5497 -0.5032
 5792TIP3   OH217339   4.971   2.076   4.740  0.3166 -0.5632 -0.0150
 5792TIP3    H117340   5.035   2.136   4.702  0.0563 -0.2180  0.0922
 5792TIP3    H217341   4.887   2.108   4.709  0.0319  0.1863  1.4880
 5793TIP3   OH217342   4.612   5.213   2.826  0.2252 -0.5395  0.0123
 5793TIP3    H117343   4.667   5.291   2.816 -1.3607  0.4555 -1.4702
 5793TIP3    H217344   4.675   5.141   2.833  1.7394  0.8103  1.2791
 5794TIP3   OH217345   6.283   5.682   1.916 -0.0109 -0.1448 -0.4748
 5794TIP3    H117346   6.212   5.704   1.976 -1.0814  0.1674 -1.7989
 5794TIP3    H217347   6.337   5.760   1.913 -0.1077 -0.0633 -0.1302
 5795TIP3   OH217348   6.881   0.256   0.666  0.3798  0.1328  0.6402
 5795TIP3    H117349   6.964   0.250   0.713  0.8212  0.6560 -0.0622
 5795TIP3    H217350   6.857   0.348   0.671  0.2250  0.1172  0.1866
 5796TIP3   OH217351   6.648   3.381   0.577  0.0228  0.2542 -0.4930
 5796TIP3    H117352   6.740   3.396   0.600 -0.0987 -1.2231  1.1265
 5796TIP3    H217353   6.599   3.438   0.636 -0.1283  0.5262 -0.8799
 5797TIP3   OH217354   0.668   2.679   4.483  0.0466 -0.0506  0.0707
 5797TIP3    H117355   0.652   2.587   4.459 -0.7985  0.0669  0.1425
 5797TIP3    H217356   0.611   2.694   4.558 -0.0238  0.6160 -0.1124
 5798TIP3   OH217357   5.834   4.742   4.256  0.4836  0.0970 -0.5078
 5798TIP3    H117358   5.749   4.757   4.213 -0.5233  0.7870  1.6138
 5798TIP3    H217359   5.843   4.814   4.317  2.0014 -0.6939  0.2466
 5799TIP3   OH217360   6.715   1.915   1.735 -0.0107  0.5521  0.0995
 5799TIP3    H117361   6.724   1.881   1.646 -0.1358  1.4732 -0.2730
 5799TIP3    H217362   6.732   2.009   1.727 -0.9944  0.8082  0.8806
 5800TIP3   OH217363   6.723   2.232   3.159 -0.5520  0.0297 -0.0716
 5800TIP3    H117364   6.792   2.198   3.102 -2.1734  0.7308 -2.6303
 5800TIP3    H217365   6.661   2.274   3.100 -1.7624  1.9721  2.3620
 5801TIP3   OH217366   2.637   0.584   3.351 -0.0331  0.5584 -0.8101
 5801TIP3    H117367   2.547   0.565   3.376  0.0246  0.6350 -0.5493
 5801TIP3    H217368   2.641   0.561   3.258 -0.5831  1.4534 -1.0712
 5802TIP3   OH217369   6.232   6.144   4.013  0.2199 -0.0606 -0.7996
 5802TIP3    H117370   6.248   6.106   3.927  2.8339 -0.8570 -0.0248
 5802TIP3    H217371   6.143   6.181   4.006 -0.9825 -2.9495 -2.7717
 5803TIP3   OH217372   6.219   3.607   4.457 -0.1689 -0.4743  0.5597
 5803TIP3    H117373   6.290   3.668   4.435 -0.5344 -0.7132 -1.4932
 5803TIP3    H217374   6.254   3.555   4.529  1.2521  0.2589  0.4480
 5804TIP3   OH217375   4.455   3.292   5.868 -0.2173 -0.9691 -0.5167
 5804TIP3    H117376   4.495   3.353   5.807 -0.9119 -1.8301 -1.8849
 5804TIP3    H217377   4.374   3.264   5.825 -0.8159 -1.4972  0.8745
 5805TIP3   OH217378   5.756   5.405   4.315 -0.2038 -0.6736 -0.3452
 5805TIP3    H117379   5.745   5.369   4.228 -2.1562 -0.3915 -0.2634
 5805TIP3    H217380   5.676   5.456   4.331  0.3286 -0.2872  1.3950
 5806TIP3   OH217381   1.018   4.462   4.819  0.0773  0.5456  0.1691
 5806TIP3    H117382   0.927   4.453   4.848  0.3707  0.8450  1.2381
 5806TIP3    H217383   1.067   4.477   4.900  0.8769  1.9210 -0.5399
 5807TIP3   OH217384   3.634   6.552   2.973  0.1893  0.2706  0.0080
 5807TIP3    H117385   3.622   6.492   2.899 -0.3611  1.6520 -1.0735
 5807TIP3    H217386   3.563   6.530   3.033 -0.3431  0.1829 -0.6343
 5808TIP3   OH217387   0.923   1.506   4.330  0.3903  0.5013 -0.4366
 5808TIP3    H117388   0.880   1.425   4.303  1.1774 -0.8546  2.0964
 5808TIP3    H217389   1.002   1.477   4.376  0.9743  2.7363  0.0925
 5809TIP3   OH217390   5.663   5.051   2.528  0.3966 -0.2564  0.3446
 5809TIP3    H117391   5.727   5.120   2.544  1.7145 -1.4790  0.5614
 5809TIP3    H217392   5.712   4.985   2.479 -1.2280 -0.4056 -1.1928
 5810TIP3   OH217393   5.312   2.597   2.981 -0.7080 -0.1441  0.1325
 5810TIP3    H117394   5.310   2.657   2.907 -1.4857 -1.0961 -0.6539
 5810TIP3    H217395   5.319   2.510   2.941 -0.3290 -0.6217  1.2060
 5811TIP3   OH217396   3.465   2.953   3.928 -0.2976  0.0869  0.5569
 5811TIP3    H117397   3.538   2.984   3.874 -0.4064  0.4373  0.6140
 5811TIP3    H217398   3.389   3.001   3.895 -0.3139  0.5202  1.2211
 5812TIP3   OH217399   2.472   6.684   4.034 -0.0202 -0.0964 -0.0960
 5812TIP3    H117400   2.439   6.642   3.954 -1.5337  0.8006  0.0286
 5812TIP3    H217401   2.495   6.773   4.006  3.5182 -0.9593 -0.4478
 5813TIP3   OH217402   3.543   3.553   2.061  0.3370  0.0490 -0.1969
 5813TIP3    H117403   3.620   3.497   2.054  0.4055  0.2088 -0.7340
 5813TIP3    H217404   3.562   3.610   2.136 -0.0826 -1.1693  0.8674
 5814TIP3   OH217405   5.618   3.430   4.059  0.6480 -0.1136  0.1809
 5814TIP3    H117406   5.686   3.374   4.097  0.9462  0.2296  0.1625
 5814TIP3    H217407   5.572   3.466   4.135  0.6769 -0.1181  0.2009
 5815TIP3   OH217408   7.016   1.007   2.983  0.0277 -0.0556  0.3163
 5815TIP3    H117409   7.054   0.935   3.032 -0.7830 -0.9490 -0.3338
 5815TIP3    H217410   7.059   1.002   2.897  0.7469  0.9138  0.5917
 5816TIP3   OH217411   4.773   1.634   3.887  0.5631 -0.4572  0.2852
 5816TIP3    H117412   4.741   1.654   3.975 -1.6238 -1.4188 -0.2364
 5816TIP3    H217413   4.848   1.693   3.875 -0.0526  0.8086  2.1743
 5817TIP3   OH217414   1.511   6.690   2.663  0.4496 -0.7243 -0.7316
 5817TIP3    H117415   1.455   6.704   2.739  3.0765  0.1802  1.2110
 5817TIP3    H217416   1.465   6.732   2.591 -0.2729  2.3259  1.2825
 5818TIP3   OH217417   4.740   5.452   4.548 -0.9305 -0.7526 -0.0145
 5818TIP3    H117418   4.753   5.496   4.632 -1.0635 -2.5391  0.9881
 5818TIP3    H217419   4.819   5.474   4.497 -1.0117  0.6261  0.4371
 5819TIP3   OH217420   6.714   4.023   3.136  0.2807 -0.2086 -0.3629
 5819TIP3    H117421   6.648   3.957   3.114 -0.1812  0.2626 -0.4175
 5819TIP3    H217422   6.669   4.107   3.123  1.4684  0.1878 -2.3512
 5820TIP3   OH217423   6.843   0.946   0.904  0.4417  0.0983 -0.5938
 5820TIP3    H117424   6.936   0.924   0.904  0.4247  0.0211 -0.9285
 5820TIP3    H217425   6.840   1.039   0.881  0.5073  0.4367  0.7252
 5821TIP3   OH217426   1.701   5.198   3.919 -0.2193  0.4238  0.0553
 5821TIP3    H117427   1.624   5.152   3.954  0.5817  0.8216  2.5886
 5821TIP3    H217428   1.667   5.282   3.888 -0.8400  0.6642  1.2990
 5822TIP3   OH217429   2.596   0.690   5.360 -0.2724  0.0261 -0.1567
 5822TIP3    H117430   2.585   0.697   5.454 -0.4051 -0.0403 -0.1668
 5822TIP3    H217431   2.511   0.661   5.328 -0.6144  1.2839 -0.4373
 5823TIP3   OH217432   6.183   1.736   1.884 -0.1054 -0.0735  0.1423
 5823TIP3    H117433   6.231   1.804   1.931 -0.2084  1.4117 -1.8217
 5823TIP3    H217434   6.250   1.675   1.854 -0.0811 -1.3897  2.6052
 5824TIP3   OH217435   1.502   0.737   4.266 -0.1481 -0.5951  0.1619
 5824TIP3    H117436   1.425   0.794   4.256  0.1640 -0.4911 -2.2148
 5824TIP3    H217437   1.471   0.650   4.241  0.1587 -0.8341  0.6097
 5825TIP3   OH217438   2.015   0.990   2.333  0.3317 -0.4268  1.1336
 5825TIP3    H117439   2.050   1.075   2.360  0.1097 -0.0515  0.2724
 5825TIP3    H217440   2.070   0.926   2.378  0.4146  0.1697  1.9043
 5826TIP3   OH217441   0.824   5.567   1.018  0.0419 -0.5903 -0.2775
 5826TIP3    H117442   0.872   5.638   0.975 -0.3353 -0.5768 -0.6861
 5826TIP3    H217443   0.751   5.611   1.062  0.4767 -0.5943  0.4571
 5827TIP3   OH217444   7.060   1.899   3.266  0.1465  0.5699  0.1131
 5827TIP3    H117445   7.104   1.896   3.351  0.8511  1.8224 -0.1774
 5827TIP3    H217446   7.036   1.809   3.248  0.6995  0.1727  1.2748
 5828TIP3   OH217447   3.884   3.640   2.152  0.0524  0.1404  0.3992
 5828TIP3    H117448   3.931   3.721   2.171 -0.0347  0.2315  0.2314
 5828TIP3    H217449   3.801   3.648   2.200 -1.0754  1.2888 -1.6034
 5829TIP3   OH217450   0.058   3.032   4.849  0.2070 -0.1773  0.1430
 5829TIP3    H117451   0.026   3.084   4.775 -2.4935  1.0438  2.0067
 5829TIP3    H217452  -0.007   2.964   4.860 -0.2248  0.5032  2.2023
 5830TIP3   OH217453   6.336   4.143   4.422  0.1619 -0.1377  0.4551
 5830TIP3    H117454   6.377   4.178   4.501 -1.5221 -2.0577  2.3074
 5830TIP3    H217455   6.281   4.215   4.389 -0.2946  0.2330  1.9484
 5831TIP3   OH217456   0.701   0.152   3.548  0.1587  0.9767  0.1798
 5831TIP3    H117457   0.622   0.100   3.539 -0.5539  2.3238 -2.0378
 5831TIP3    H217458   0.772   0.091   3.529 -0.3672 -0.0225  1.2856
 5832TIP3   OH217459   4.261   6.300   4.436  0.5735 -0.0284  0.4943
 5832TIP3    H117460   4.248   6.292   4.531 -1.1802  0.7566  0.3481
 5832TIP3    H217461   4.323   6.373   4.427  1.3920 -0.6353  1.0460
 5833TIP3   OH217462   2.618   2.466   3.762  0.2013  0.1535  0.1598
 5833TIP3    H117463   2.604   2.556   3.734 -0.8478 -0.4817 -1.5449
 5833TIP3    H217464   2.712   2.451   3.754  0.0480  0.2602 -2.3969
 5834TIP3   OH217465   3.574   0.518   3.943  0.2087  0.5207  0.0425
 5834TIP3    H117466   3.481   0.530   3.961  0.5213  0.6745  1.6495
 5834TIP3    H217467   3.595   0.433   3.982  0.5412  0.0215 -1.1864
 5835TIP3   OH217468   6.058   0.505   1.825  0.5711  0.7304  0.0170
 5835TIP3    H117469   6.029   0.518   1.735 -0.0950  0.7694  0.2334
 5835TIP3    H217470   5.989   0.543   1.879  1.1540  1.0669  0.5430
 5836TIP3   OH217471   5.647   4.600   0.066  0.2134  0.3154  0.1378
 5836TIP3    H117472   5.706   4.544   0.117  0.7959 -0.4581 -1.3477
 5836TIP3    H217473   5.666   4.688   0.097  1.0280 -0.0706  0.7773
 5837TIP3   OH217474   0.621   6.413   0.052 -0.0863 -0.0619 -0.4967
 5837TIP3    H117475   0.666   6.382   0.131 -0.8105  1.1333  0.4171
 5837TIP3    H217476   0.655   6.501   0.037 -1.7876  0.7260 -0.0029
 5838TIP3   OH217477   2.798   1.851   3.103  0.0835 -0.1223  0.0490
 5838TIP3    H117478   2.877   1.802   3.080  0.1100 -0.2786  0.4648
 5838TIP3    H217479   2.799   1.927   3.044 -1.1804 -1.7776 -2.2701
 5839TIP3   OH217480   0.487   3.329   1.673 -0.4995 -0.1204 -0.0661
 5839TIP3    H117481   0.538   3.260   1.631 -0.0451  0.3273 -0.2649
 5839TIP3    H217482   0.523   3.410   1.637 -0.8796  0.2269  0.3277
 5840TIP3   OH217483   5.900   0.070   0.323  0.2242  0.0528 -0.3505
 5840TIP3    H117484   5.822   0.125   0.336  1.3998  1.2689  2.3866
 5840TIP3    H217485   5.963   0.126   0.279  0.7541  0.3306  0.7112
 5841TIP3   OH217486   3.434   1.239   2.548  0.5908 -0.0149  0.5506
 5841TIP3    H117487   3.452   1.298   2.621 -1.6004 -0.3211  1.4260
 5841TIP3    H217488   3.496   1.265   2.480  1.0619  1.9134  1.6342
 5842TIP3   OH217489   5.690   2.942   2.071  0.3606  0.7893 -0.1557
 5842TIP3    H117490   5.634   2.935   2.149 -0.3011 -0.3562 -0.7057
 5842TIP3    H217491   5.762   2.998   2.099  1.5264 -1.5925  2.1242
 5843TIP3   OH217492   6.594   2.414   4.951  0.0623  0.0072  0.1855
 5843TIP3    H117493   6.651   2.400   4.876 -0.3525 -0.4628 -0.0479
 5843TIP3    H217494   6.619   2.345   5.013 -0.3465 -0.3019  0.0175
 5844TIP3   OH217495   7.095   4.588   0.063  0.2665 -0.2634  0.4209
 5844TIP3    H117496   7.119   4.681   0.064 -1.2037  0.1410  1.8283
 5844TIP3    H217497   7.050   4.574   0.146 -1.3708 -1.7347 -0.6485
 5845TIP3   OH217498   2.419   4.847   3.520  0.4577 -0.3226  0.1985
 5845TIP3    H117499   2.441   4.756   3.538 -0.4961 -0.6933 -0.4522
 5845TIP3    H217500   2.325   4.854   3.538 -0.1114 -0.1960 -2.4158
 5846TIP3   OH217501   2.638   1.579   2.943  0.1839  0.2376 -0.5375
 5846TIP3    H117502   2.725   1.617   2.935 -0.6984  3.0403  1.5208
 5846TIP3    H217503   2.653   1.491   2.979  2.1498  0.7383 -0.0329
 5847TIP3   OH217504   0.254   0.241   0.123  0.3128 -0.0802  0.3317
 5847TIP3    H117505   0.289   0.310   0.067 -2.0008  0.8748 -0.0291
 5847TIP3    H217506   0.306   0.247   0.204  1.6253  0.5703 -0.5265
 5848TIP3   OH217507   2.833   0.076   2.336 -0.5123 -0.0928  0.1057
 5848TIP3    H117508   2.824   0.143   2.404  1.3367  0.9566 -0.6122
 5848TIP3    H217509   2.769   0.101   2.269 -1.4026 -0.3745  0.8198
 5849TIP3   OH217510   2.093   5.846   0.788 -0.0112  0.2017 -0.0365
 5849TIP3    H117511   2.109   5.777   0.852  0.6975  0.2193 -0.1848
 5849TIP3    H217512   2.118   5.806   0.704  1.6261  1.0315  0.0209
 5850TIP3   OH217513   5.253   5.454   2.135 -0.1661  0.0834 -0.3598
 5850TIP3    H117514   5.186   5.493   2.078 -0.7451 -0.9384 -0.4020
 5850TIP3    H217515   5.318   5.523   2.146 -1.7910  1.5434  0.6592
 5851TIP3   OH217516   5.444   2.741   1.308  0.5597  0.3577 -0.1148
 5851TIP3    H117517   5.538   2.760   1.314  0.8958 -1.1077 -0.3466
 5851TIP3    H217518   5.439   2.646   1.302 -0.9215  0.4523 -0.8301
 5852TIP3   OH217519   0.787   1.762   3.424  0.2562  0.4732 -0.0049
 5852TIP3    H117520   0.878   1.792   3.418  0.8952 -1.5634 -1.5590
 5852TIP3    H217521   0.786   1.704   3.501  0.5947 -0.4386 -0.6729
 5853TIP3   OH217522   0.913   4.190   2.872  0.7697 -0.5934  0.3781
 5853TIP3    H117523   0.932   4.138   2.794  2.4310 -0.9298  0.9654
 5853TIP3    H217524   0.960   4.273   2.858  0.7389 -0.4976  0.8326
 5854TIP3   OH217525   6.912   1.909   5.666  0.1364 -0.1652  0.2466
 5854TIP3    H117526   6.835   1.958   5.695  0.0669  0.0992 -0.3723
 5854TIP3    H217527   6.980   1.975   5.655  0.0744 -0.2194 -0.4847
 5855TIP3   OH217528   6.694   2.994   2.225 -0.1100  0.2645 -0.0144
 5855TIP3    H117529   6.608   3.009   2.264 -0.6888  0.9543 -1.4742
 5855TIP3    H217530   6.741   3.077   2.236 -0.2841  0.4727 -0.7430
 5856TIP3   OH217531   0.262   1.354   5.332 -0.6313  0.1185  0.2748
 5856TIP3    H117532   0.260   1.397   5.418 -0.6207 -2.6484  1.8042
 5856TIP3    H217533   0.184   1.298   5.332 -0.0818 -0.6905 -1.0949
 5857TIP3   OH217534   0.000   3.386   1.093 -0.3791 -0.2495  0.0672
 5857TIP3    H117535  -0.046   3.440   1.029  0.2677 -0.6795 -0.7735
 5857TIP3    H217536   0.080   3.358   1.049  0.8926  0.7557  1.5981
 5858TIP3   OH217537   6.123   2.239   4.283 -0.4669  0.6953  0.0505
 5858TIP3    H117538   6.107   2.191   4.364  0.0698  0.5493  0.0781
 5858TIP3    H217539   6.100   2.178   4.213 -0.5977  0.6988  0.0902
 5859TIP3   OH217540   4.589   6.681   2.923 -0.1315 -0.3099  0.0601
 5859TIP3    H117541   4.570   6.639   2.839  1.7861  1.1739 -1.1926
 5859TIP3    H217542   4.660   6.628   2.960 -0.5632 -0.6007  0.4947
 5860TIP3   OH217543   3.230   3.159   1.860  0.5293 -0.1046 -0.0361
 5860TIP3    H117544   3.204   3.074   1.826 -0.3898 -0.0033  0.3895
 5860TIP3    H217545   3.291   3.138   1.931 -0.1136 -0.4375  0.4284
 5861TIP3   OH217546   4.260   2.500   3.638 -0.5030  0.5689 -0.1926
 5861TIP3    H117547   4.277   2.406   3.630 -0.6549  0.5276 -0.0290
 5861TIP3    H217548   4.275   2.519   3.731 -2.2429  0.3547  0.1576
 5862TIP3   OH217549   4.345   3.979   1.959 -0.5603 -0.8278  0.6782
 5862TIP3    H117550   4.311   3.985   2.048  0.5384 -0.5426  1.0944
 5862TIP3    H217551   4.268   3.960   1.905 -1.4691  0.3749  1.5014
 5863TIP3   OH217552   5.960   2.740   0.974  0.2744 -0.1095 -0.6518
 5863TIP3    H117553   5.993   2.652   0.956  1.5936  0.5213 -1.5053
 5863TIP3    H217554   5.893   2.754   0.907  2.1162  0.5817 -2.4786
 5864TIP3   OH217555   1.735   4.520   1.836  0.3612 -0.3801  0.3674
 5864TIP3    H117556   1.689   4.595   1.801  3.0657  1.0676 -0.3870
 5864TIP3    H217557   1.761   4.546   1.924  2.2526  0.0917 -0.2833
 5865TIP3   OH217558   2.504   0.318   3.885 -0.3105  0.1763 -0.1426
 5865TIP3    H117559   2.463   0.377   3.947 -0.5377  0.4304 -0.5310
 5865TIP3    H217560   2.524   0.239   3.936  0.6813  0.8568  0.5585
 5866TIP3   OH217561   6.062   5.707   2.966 -0.1731 -0.1767 -0.6672
 5866TIP3    H117562   6.014   5.645   3.022 -0.3015 -0.0842 -0.6757
 5866TIP3    H217563   6.142   5.660   2.943  0.1869  0.0283  0.1276
 5867TIP3   OH217564   5.250   3.502   3.723  0.1488 -0.2160 -0.4696
 5867TIP3    H117565   5.333   3.460   3.743  0.8819  1.5970  0.5826
 5867TIP3    H217566   5.219   3.535   3.807 -2.1118 -1.5958 -0.6902
 5868TIP3   OH217567   3.400   3.579   2.439  0.3673  0.2783  0.2325
 5868TIP3    H117568   3.358   3.642   2.379  0.7548 -0.1688 -0.5236
 5868TIP3    H217569   3.327   3.531   2.478  0.0953  0.7811  0.3522
 5869TIP3   OH217570   6.161   1.163   0.845 -0.2377  0.2506 -0.4463
 5869TIP3    H117571   6.207   1.103   0.903 -1.3752 -0.0038  0.2217
 5869TIP3    H217572   6.221   1.237   0.834 -0.0987  0.4425  1.2939
 5870TIP3   OH217573   6.421   5.307   5.164  0.6202  0.3509  0.0354
 5870TIP3    H117574   6.383   5.225   5.196 -0.5850 -0.2557 -2.5970
 5870TIP3    H217575   6.487   5.280   5.101 -0.4202  1.3039 -1.5573
 5871TIP3   OH217576   3.340   6.069   2.373 -0.3108 -0.2111 -0.3131
 5871TIP3    H117577   3.255   6.105   2.346 -0.4639  1.2579  1.8318
 5871TIP3    H217578   3.399   6.087   2.300 -1.5085  0.1344 -1.2144
 5872TIP3   OH217579   3.379   6.195   2.820 -0.2250 -0.6030 -0.5379
 5872TIP3    H117580   3.350   6.108   2.792  0.6624 -1.5764  1.3561
 5872TIP3    H217581   3.442   6.221   2.753 -1.5093 -0.7924 -1.8600
 5873TIP3   OH217582  -0.009   2.598   3.783  0.0958 -0.1340 -0.3609
 5873TIP3    H117583  -0.029   2.565   3.696  1.8567  1.2234 -1.3343
 5873TIP3    H217584   0.046   2.530   3.823  1.2810  0.2929 -1.2367
 5874TIP3   OH217585   3.782   5.719   1.673 -0.0663 -0.1535 -0.3335
 5874TIP3    H117586   3.721   5.685   1.738  0.5456  0.3253  0.5056
 5874TIP3    H217587   3.861   5.740   1.723 -0.5737  2.9907 -0.6824
 5875TIP3   OH217588   4.556   5.773   0.462  0.2926 -0.5000  0.2749
 5875TIP3    H117589   4.636   5.751   0.415  0.5096  2.3075 -0.8534
 5875TIP3    H217590   4.586   5.794   0.551  1.0715  1.6894 -0.4432
 5876TIP3   OH217591   1.872   1.586   5.096  0.0240 -0.0964  0.2810
 5876TIP3    H117592   1.900   1.555   5.010  2.3592  0.1606  0.9014
 5876TIP3    H217593   1.923   1.665   5.113 -1.4552  0.7153  1.3184
 5877TIP3   OH217594   3.078   2.096   4.975 -0.5853 -0.1097 -0.0575
 5877TIP3    H117595   3.057   2.007   4.946 -0.1566 -0.2577  0.0684
 5877TIP3    H217596   3.034   2.153   4.912  1.3270 -0.4177 -1.7916
 5878TIP3   OH217597   4.820   0.834   3.284 -0.6154 -0.1950 -0.2486
 5878TIP3    H117598   4.914   0.822   3.294 -0.9895 -1.6093  3.4029
 5878TIP3    H217599   4.806   0.928   3.289  0.5095 -0.0759  2.3533
 5879TIP3   OH217600   2.114   4.850   4.572  0.4066  0.0587 -0.6062
 5879TIP3    H117601   2.146   4.761   4.584  0.6710  0.3285  0.8612
 5879TIP3    H217602   2.097   4.857   4.478 -1.5945 -2.2105 -0.5040
 5880TIP3   OH217603   0.121   5.377   5.421 -0.1641 -0.1123 -0.3463
 5880TIP3    H117604   0.186   5.371   5.352 -0.3121 -1.0473 -0.4103
 5880TIP3    H217605   0.037   5.385   5.375 -0.1720  0.3471 -0.2631
 5881TIP3   OH217606   4.676   3.529   5.220  0.1816 -0.2973  0.4068
 5881TIP3    H117607   4.665   3.617   5.182  1.6862 -0.2045  0.1254
 5881TIP3    H217608   4.679   3.471   5.144 -1.1887 -0.6584  0.6091
 5882TIP3   OH217609   5.797   5.427   3.021  0.3045 -0.0291  0.2827
 5882TIP3    H117610   5.705   5.451   3.005  0.0222 -0.6853  0.8896
 5882TIP3    H217611   5.832   5.409   2.934 -0.4481 -0.8362  0.1345
 5883TIP3   OH217612   4.264   2.318   4.887 -0.0796  0.2277  0.2359
 5883TIP3    H117613   4.247   2.403   4.927 -0.4087  0.3631 -0.1806
 5883TIP3    H217614   4.285   2.338   4.796 -0.2513 -0.1383  0.1107
 5884TIP3   OH217615   4.554   4.021   0.808  0.0774 -0.0603  0.7728
 5884TIP3    H117616   4.620   3.992   0.745 -0.2022 -0.5860  0.7220
 5884TIP3    H217617   4.599   4.088   0.859  1.2594 -1.6545  1.9255
 5885TIP3   OH217618   1.306   4.482   3.845  0.2006 -0.3683  0.2259
 5885TIP3    H117619   1.346   4.489   3.758  1.5885  0.4829  0.8941
 5885TIP3    H217620   1.254   4.402   3.841  1.3843 -1.1311 -0.9465
 5886TIP3   OH217621   5.941   5.639   4.573  0.3910  0.6062  0.0114
 5886TIP3    H117622   6.003   5.568   4.561 -0.5022 -0.2904  0.5957
 5886TIP3    H217623   5.920   5.668   4.484 -1.6877 -2.0411 -0.4668
 5887TIP3   OH217624   5.343   3.883   0.190 -0.0677 -0.0779 -0.0741
 5887TIP3    H117625   5.416   3.861   0.247 -0.2718  0.2408  0.3197
 5887TIP3    H217626   5.326   3.976   0.207 -1.0184 -0.3150  0.3815
 5888TIP3   OH217627   0.651   4.650   2.706 -0.0166 -0.5676  0.3474
 5888TIP3    H117628   0.712   4.616   2.641  2.6215 -1.4725  3.0327
 5888TIP3    H217629   0.586   4.581   2.717  0.0319 -0.7867 -0.6757
 5889TIP3   OH217630   1.055   5.865   5.436 -0.6342  0.0409  0.3588
 5889TIP3    H117631   1.035   5.773   5.451  1.0592 -0.0933  2.2395
 5889TIP3    H217632   1.053   5.875   5.341 -2.4988 -1.4972  0.1719
 5890TIP3   OH217633   5.526   5.992   5.220 -0.0968  0.1916 -0.2093
 5890TIP3    H117634   5.515   5.900   5.195  1.5601 -0.1868  0.2845
 5890TIP3    H217635   5.531   6.039   5.137 -1.9536  0.0062 -0.4624
 5891TIP3   OH217636   2.671   6.451   2.116 -0.1087 -0.1085 -0.0490
 5891TIP3    H117637   2.585   6.434   2.077 -0.2107  0.3274 -0.0209
 5891TIP3    H217638   2.683   6.382   2.181  1.0375 -2.2185 -2.3733
 5892TIP3   OH217639   1.703   1.953   1.612  0.2301  0.4442  0.3167
 5892TIP3    H117640   1.635   1.987   1.554  1.1714  2.6118  0.4217
 5892TIP3    H217641   1.746   1.885   1.560 -0.0788  1.1266 -0.8624
 5893TIP3   OH217642   3.466   0.363   2.110  0.1002 -0.0400 -0.5248
 5893TIP3    H117643   3.373   0.345   2.095  0.0652 -1.9857  1.4121
 5893TIP3    H217644   3.467   0.427   2.181  0.2591  0.3564 -0.8796
 5894TIP3   OH217645   3.882   4.832   1.348  0.4592 -0.2890  0.3205
 5894TIP3    H117646   3.895   4.827   1.253 -0.7811 -2.6446  0.1833
 5894TIP3    H217647   3.917   4.917   1.373  0.4419  0.5797 -2.3098
 5895TIP3   OH217648   6.622   1.937   5.032 -0.0141  0.1649 -0.1995
 5895TIP3    H117649   6.691   1.874   5.008 -1.6879 -1.4448 -1.0760
 5895TIP3    H217650   6.640   1.958   5.124  1.4734 -0.4020 -0.3233
 5896TIP3   OH217651   3.373   6.058   1.800  0.3277 -0.2060  0.0096
 5896TIP3    H117652   3.378   6.154   1.800  1.0259 -0.2276  1.2664
 5896TIP3    H217653   3.451   6.030   1.847  1.2723 -1.4864 -2.1872
 5897TIP3   OH217654   7.145   1.954   1.932 -0.6641 -0.0012 -0.2242
 5897TIP3    H117655   7.142   1.862   1.904 -1.9357 -0.3885  1.1033
 5897TIP3    H217656   7.223   1.959   1.987  0.4292  0.1821 -1.6990
 5898TIP3   OH217657   3.618   2.877   3.578 -0.4553 -0.1383  0.0747
 5898TIP3    H117658   3.682   2.879   3.507  0.7354 -1.2816  1.0399
 5898TIP3    H217659   3.546   2.932   3.548  0.7175  0.7082 -1.3249
 5899TIP3   OH217660   6.942   6.108   5.851  0.3080  0.1707 -0.3327
 5899TIP3    H117661   6.864   6.055   5.833  0.7593 -1.0137  0.9768
 5899TIP3    H217662   6.925   6.149   5.936  0.8386  0.4252 -0.3408
 5900TIP3   OH217663   5.943   4.213   3.260  0.1134  0.1970 -0.7780
 5900TIP3    H117664   5.956   4.185   3.351 -0.2580  1.8676 -0.1688
 5900TIP3    H217665   5.865   4.166   3.231 -1.1306  1.3620  0.5660
 5901TIP3   OH217666   7.022   4.804   1.519 -0.4852 -0.5321 -0.2078
 5901TIP3    H117667   7.050   4.724   1.564  0.3948 -1.2689 -1.9772
 5901TIP3    H217668   7.060   4.875   1.571 -1.5970 -1.1762  1.6184
 5902TIP3   OH217669   3.956   6.523   1.787  0.2991  0.2203 -0.2152
 5902TIP3    H117670   4.037   6.516   1.736 -0.4525 -1.7402 -1.2699
 5902TIP3    H217671   3.912   6.439   1.773 -1.6863  1.0331  0.7304
 5903TIP3   OH217672   1.173   5.252   2.945  0.0402 -0.1348 -0.1688
 5903TIP3    H117673   1.112   5.278   2.876  0.6660 -0.4101 -0.8363
 5903TIP3    H217674   1.186   5.332   2.997  2.3389  1.1486 -2.4986
 5904TIP3   OH217675   6.525   0.058   1.241  0.6220 -0.4023  0.0593
 5904TIP3    H117676   6.493   0.133   1.191  2.1594 -0.2378 -0.7186
 5904TIP3    H217677   6.562   0.097   1.321  0.7605 -0.4041 -0.0046
 5905TIP3   OH217678   4.632   1.706   1.253 -0.1112  0.6185  0.1999
 5905TIP3    H117679   4.549   1.702   1.301 -0.3459  0.9466 -0.1742
 5905TIP3    H217680   4.627   1.634   1.190 -0.2099  0.7836  0.0198
 5906TIP3   OH217681   0.475  -0.008   2.174 -0.1587 -0.1066 -0.3091
 5906TIP3    H117682   0.436   0.079   2.158 -0.9374 -0.6404 -1.4947
 5906TIP3    H217683   0.550   0.010   2.230  0.5106  1.5327 -1.6078
 5907TIP3   OH217684   4.332   6.508   1.822 -0.0737  0.3420  0.0418
 5907TIP3    H117685   4.268   6.437   1.823 -0.3457  0.5817 -0.1751
 5907TIP3    H217686   4.372   6.505   1.909  0.2662 -0.3898 -0.1308
 5908TIP3   OH217687   2.579   1.296   0.954  0.4768 -0.1999  0.2790
 5908TIP3    H117688   2.653   1.246   0.988  1.1000 -0.3497 -1.2215
 5908TIP3    H217689   2.602   1.315   0.863 -0.6699  1.0459  0.2102
 5909TIP3   OH217690   3.782   4.500   0.209 -1.0196 -0.2693 -0.0607
 5909TIP3    H117691   3.840   4.510   0.284  0.2184 -1.8675 -0.7454
 5909TIP3    H217692   3.702   4.462   0.245 -0.1212 -1.8163  0.3586
 5910TIP3   OH217693   3.580   6.476   1.088  0.0178 -0.2114 -0.3819
 5910TIP3    H117694   3.628   6.457   1.169 -0.7383 -1.8338 -0.2766
 5910TIP3    H217695   3.499   6.426   1.096 -0.0033 -0.5300 -2.2169
 5911TIP3   OH217696   6.142   1.699   2.305 -0.0633 -0.5518  0.3631
 5911TIP3    H117697   6.075   1.746   2.256  1.3759 -0.1213 -1.2639
 5911TIP3    H217698   6.188   1.767   2.354  0.0211 -0.6828  0.4681
 5912TIP3   OH217699   3.257   5.136   2.708  0.0247  0.7808  0.3522
 5912TIP3    H117700   3.163   5.118   2.708  0.2061 -0.2243 -0.3818
 5912TIP3    H217701   3.281   5.140   2.616  1.3465 -2.6478  0.3978
 5913TIP3   OH217702   6.917   0.490   1.090  0.0428  0.0226 -0.5970
 5913TIP3    H117703   6.887   0.400   1.100  1.5026 -0.6153 -1.6618
 5913TIP3    H217704   6.992   0.484   1.031 -0.7907  2.1240 -1.9715
 5914TIP3   OH217705   5.082   1.870   0.220  0.5122 -0.0038 -0.2662
 5914TIP3    H117706   5.109   1.911   0.302 -0.7057 -0.0994  0.1961
 5914TIP3    H217707   5.099   1.936   0.153  2.1252 -0.1537 -0.0549
 5915TIP3   OH217708   4.428   2.120   1.226  0.1641  0.2403  0.3856
 5915TIP3    H117709   4.395   2.052   1.168 -0.7444  1.4861 -0.6275
 5915TIP3    H217710   4.473   2.073   1.296 -0.4396 -1.3798 -0.2764
 5916TIP3   OH217711   3.229   3.683   4.138  0.6827  0.0825  0.2388
 5916TIP3    H117712   3.150   3.732   4.159  1.8545  2.5395 -0.6349
 5916TIP3    H217713   3.199   3.610   4.084 -1.1718 -0.4296  1.8165
 5917TIP3   OH217714   4.507   1.084   0.523  0.1588 -0.1574  0.0923
 5917TIP3    H117715   4.545   1.172   0.527 -0.3126  0.2301 -2.2545
 5917TIP3    H217716   4.567   1.034   0.467 -1.6628 -0.0780 -2.0730
 5918TIP3   OH217717   4.250   3.501   2.198 -0.4280  0.4828  0.2195
 5918TIP3    H117718   4.181   3.543   2.147 -0.6418 -0.2507 -0.0962
 5918TIP3    H217719   4.210   3.483   2.283 -0.3768  0.7751  0.3092
 5919TIP3   OH217720   0.643   1.772   3.143  0.1035 -0.2943 -0.7046
 5919TIP3    H117721   0.575   1.781   3.210 -0.2062  0.9690 -1.1442
 5919TIP3    H217722   0.716   1.730   3.187 -1.3143 -2.6966 -0.4856
 5920TIP3   OH217723   6.321   1.379   0.726 -0.0802 -0.1321  0.0333
 5920TIP3    H117724   6.318   1.348   0.636  1.4111 -1.4009  0.3785
 5920TIP3    H217725   6.401   1.431   0.731  0.2698 -0.7219  0.7952
 5921TIP3   OH217726   3.054   0.958   0.353 -0.7628 -0.2444  0.0337
 5921TIP3    H117727   2.960   0.943   0.352 -0.9737  0.8385  1.0202
 5921TIP3    H217728   3.076   0.966   0.446  0.1445  0.3804 -0.2175
 5922TIP3   OH217729   2.949   1.569   3.320 -0.1242 -0.5472  0.1980
 5922TIP3    H117730   2.897   1.489   3.316 -0.2137 -0.4972  0.3567
 5922TIP3    H217731   2.988   1.576   3.233 -1.6857  0.2912 -0.4788
 5923TIP3   OH217732   6.082   5.581   3.966  0.0726 -0.1729 -0.2933
 5923TIP3    H117733   6.170   5.610   3.992 -0.2504  1.4972 -0.9324
 5923TIP3    H217734   6.026   5.656   3.984 -1.0934 -0.9458 -0.6381
 5924TIP3   OH217735   6.029   3.941   4.356  0.2513 -0.0902 -0.8850
 5924TIP3    H117736   6.000   3.998   4.285  0.1061 -0.2458 -0.9536
 5924TIP3    H217737   6.079   3.998   4.414  1.1256 -0.1431 -1.5592
 5925TIP3   OH217738   5.789   2.509   3.926  0.8956 -0.5083 -0.2274
 5925TIP3    H117739   5.726   2.539   3.861  2.0693  0.4484 -0.9719
 5925TIP3    H217740   5.753   2.536   4.010  0.0437 -0.4897 -0.5928
 5926TIP3   OH217741   5.541   2.172   0.370 -0.1515  0.2680  0.7777
 5926TIP3    H117742   5.513   2.257   0.338  2.2809  1.2608  1.0198
 5926TIP3    H217743   5.487   2.109   0.323 -0.5404  1.8642 -1.0299
 5927TIP3   OH217744   2.272   4.190   5.195 -0.7331 -0.0614  0.1626
 5927TIP3    H117745   2.232   4.177   5.109 -1.2277  2.3031 -0.0268
 5927TIP3    H217746   2.225   4.265   5.232  0.4002 -0.1708  1.9190
 5928TIP3   OH217747   1.178   0.020   0.849 -0.9858  0.4985  0.1544
 5928TIP3    H117748   1.254   0.055   0.802  0.4034 -2.3240  0.0544
 5928TIP3    H217749   1.133  -0.034   0.784 -2.3181  1.0222  0.6063
 5929TIP3   OH217750   4.808   6.651   5.316 -0.3428 -0.2007  0.3498
 5929TIP3    H117751   4.783   6.636   5.407 -0.2136 -3.2396 -0.0039
 5929TIP3    H217752   4.851   6.569   5.289 -0.1950  0.6664 -2.3950
 5930TIP3   OH217753   5.963   6.201   0.558 -0.3588  0.2958  1.0751
 5930TIP3    H117754   6.058   6.188   0.552 -0.5214 -0.7843  0.5016
 5930TIP3    H217755   5.934   6.138   0.624 -0.4899  1.7460  2.4264
 5931TIP3   OH217756   2.039   0.287   2.378  0.5560  0.0206 -0.2035
 5931TIP3    H117757   2.025   0.202   2.338  0.4071  0.8610 -2.0585
 5931TIP3    H217758   2.133   0.304   2.368  0.6039  0.0497  0.2456
 5932TIP3   OH217759   1.645   0.179   5.711  0.5849 -0.4185 -0.2292
 5932TIP3    H117760   1.673   0.129   5.635 -0.1301 -1.9878  0.4846
 5932TIP3    H217761   1.550   0.188   5.700  0.8764  2.3209 -1.1871
 5933TIP3   OH217762   5.307   0.235   2.423 -0.2124  0.4458 -0.2130
 5933TIP3    H117763   5.330   0.328   2.423  1.3368  0.1074 -1.0166
 5933TIP3    H217764   5.234   0.228   2.362 -0.7573  1.2161  0.3370
 5934TIP3   OH217765   3.441   4.083   3.029  0.2016 -0.0338 -0.1822
 5934TIP3    H117766   3.359   4.090   3.077  0.1631 -0.6616 -0.1489
 5934TIP3    H217767   3.507   4.118   3.089 -0.2991  2.6563 -1.0397
 5935TIP3   OH217768   7.096   3.136   1.070  0.4102 -0.3482 -0.0328
 5935TIP3    H117769   7.122   3.227   1.081  1.9175 -0.8109  0.5299
 5935TIP3    H217770   7.083   3.125   0.976 -2.3571  1.0508  0.0777
 5936TIP3   OH217771   6.636   0.518   0.315 -0.9664  0.5208 -0.3650
 5936TIP3    H117772   6.705   0.467   0.273 -0.3555  0.2421  0.9151
 5936TIP3    H217773   6.649   0.607   0.283 -0.5009  0.3220 -0.7427
 5937TIP3   OH217774   1.976   2.164   4.104 -0.1535  0.1618  0.2749
 5937TIP3    H117775   1.954   2.225   4.034 -0.7993 -0.3959 -0.0183
 5937TIP3    H217776   1.914   2.183   4.174  0.5756  0.8097  0.7702
 5938TIP3   OH217777   6.303   0.942   0.611 -0.0250  0.1424 -0.8451
 5938TIP3    H117778   6.384   0.959   0.562 -0.0229 -0.1451 -0.9428
 5938TIP3    H217779   6.332   0.936   0.703 -0.1232  1.3520 -0.7207
 5939TIP3   OH217780   7.042   6.258   4.245 -0.1054 -0.0900 -0.0519
 5939TIP3    H117781   7.045   6.229   4.337 -0.9847  1.9598  0.6793
 5939TIP3    H217782   7.008   6.347   4.249  1.6253  0.7734 -2.2265
 5940TIP3   OH217783   3.935   4.564   1.886 -0.2954  0.5246  0.1900
 5940TIP3    H117784   3.986   4.608   1.953 -1.8500  2.6001  0.1076
 5940TIP3    H217785   3.940   4.471   1.909  1.4847  0.9010  1.5237
 5941TIP3   OH217786   4.345   4.661   1.879  0.4109 -0.1369 -0.0616
 5941TIP3    H117787   4.409   4.590   1.870  0.5788  0.0843 -0.6760
 5941TIP3    H217788   4.382   4.733   1.828  0.0474  0.2573  0.2273
 5942TIP3   OH217789   2.046   1.165   2.841  0.0293 -0.0850 -0.2757
 5942TIP3    H117790   1.959   1.205   2.837 -0.5863 -1.4377 -0.8014
 5942TIP3    H217791   2.106   1.240   2.843 -1.1777  0.9379  2.4263
 5943TIP3   OH217792   5.366   5.499   5.144 -0.4981  0.0366  0.2405
 5943TIP3    H117793   5.394   5.411   5.120  3.0878  1.0588  0.0897
 5943TIP3    H217794   5.333   5.537   5.063 -0.9809 -0.7985  0.0430
 5944TIP3   OH217795   2.124   5.917   4.442  0.0841 -0.0848  0.8907
 5944TIP3    H117796   2.160   5.882   4.524  1.5030  0.6774  0.6345
 5944TIP3    H217797   2.194   5.903   4.378 -0.2321  1.1043  0.2636
 5945TIP3   OH217798   2.419   2.346   1.918  0.5212  0.3197 -0.5105
 5945TIP3    H117799   2.337   2.395   1.925 -0.0405 -0.7661  0.8297
 5945TIP3    H217800   2.465   2.389   1.846 -1.0934  1.1198 -1.1307
 5946TIP3   OH217801   0.905   4.142   5.511  0.1708  0.2161  0.1280
 5946TIP3    H117802   0.957   4.128   5.590 -1.9318 -1.8699  1.2533
 5946TIP3    H217803   0.891   4.054   5.476 -1.7101  0.7841 -0.6706
 5947TIP3   OH217804   2.054   2.739   4.838  0.2341 -0.1204  0.7081
 5947TIP3    H117805   2.116   2.730   4.766 -1.1745  2.6245 -1.0094
 5947TIP3    H217806   2.059   2.831   4.864 -1.4701 -0.3407  2.0275
 5948TIP3   OH217807   0.788   3.113   2.179 -0.2733 -0.2275 -0.6401
 5948TIP3    H117808   0.749   3.036   2.221 -2.3958  0.7709 -0.6234
 5948TIP3    H217809   0.802   3.087   2.088  1.4754 -1.4307 -0.0547
 5949TIP3   OH217810   5.064   3.292   2.399 -0.8077  0.1455  0.0451
 5949TIP3    H117811   5.071   3.217   2.340  0.8126 -0.6454  1.1481
 5949TIP3    H217812   5.008   3.261   2.470  1.1281 -0.6675  1.3082
 5950TIP3   OH217813   3.887   1.018   2.746  0.6941  0.0957  0.6007
 5950TIP3    H117814   3.887   1.113   2.759  2.0215  0.1865  0.0782
 5950TIP3    H217815   3.974   0.999   2.713  0.7768 -1.4413  1.6261
 5951TIP3   OH217816   2.231   5.218   3.425 -0.0901  0.1843 -0.0339
 5951TIP3    H117817   2.315   5.186   3.394 -0.5085 -1.4877  0.4190
 5951TIP3    H217818   2.184   5.245   3.345  1.2020  2.1296 -0.2002
 5952TIP3   OH217819   3.300   2.232   3.770  0.3319  0.0059  0.1407
 5952TIP3    H117820   3.255   2.294   3.827  0.3661 -0.8216  1.0992
 5952TIP3    H217821   3.333   2.286   3.697 -4.0596  0.3895 -1.8795
 5953TIP3   OH217822   1.311   4.557   4.265 -0.2774  0.2989  0.1670
 5953TIP3    H117823   1.293   4.468   4.297 -0.0077 -1.3182 -3.6003
 5953TIP3    H217824   1.235   4.578   4.209 -0.4557  2.6090  1.1844
 5954TIP3   OH217825   1.269   3.919   4.872 -0.9413  0.3530 -0.8654
 5954TIP3    H117826   1.284   3.991   4.933 -1.3572  0.1621 -0.5280
 5954TIP3    H217827   1.285   3.840   4.925 -3.9647  0.0883 -0.1854
 5955TIP3   OH217828   4.090   2.670   5.530  0.0716  0.5837  0.1790
 5955TIP3    H117829   4.158   2.608   5.503  0.1652  1.7365 -2.5145
 5955TIP3    H217830   4.078   2.653   5.624  2.4031 -1.2263  0.2380
 5956TIP3   OH217831   5.861   2.817   1.546  0.0385  0.2696 -0.0325
 5956TIP3    H117832   5.889   2.755   1.613  0.6475 -0.8889 -1.3208
 5956TIP3    H217833   5.779   2.854   1.580  0.4081 -0.1701  1.4047
 5957TIP3   OH217834   4.003   0.252   5.001  0.2939  0.3219 -0.6921
 5957TIP3    H117835   3.938   0.181   5.001 -0.8730  1.3490  0.0189
 5957TIP3    H217836   4.085   0.209   4.976 -0.5092 -1.1463 -0.9454
 5958TIP3   OH217837   4.044   5.875   2.042 -0.1621  0.3072  0.1565
 5958TIP3    H117838   4.139   5.866   2.052 -0.1358 -3.3290 -1.5035
 5958TIP3    H217839   4.008   5.832   2.119 -0.3852 -0.3469 -0.3015
 5959TIP3   OH217840   6.762   4.950   1.854  0.0565  0.2886 -0.7832
 5959TIP3    H117841   6.808   4.874   1.820 -1.8440 -0.8884 -0.8469
 5959TIP3    H217842   6.748   4.931   1.946 -1.3196  0.0703 -1.0204
 5960TIP3   OH217843   1.950   5.517   4.875  0.1590 -0.2200  0.0626
 5960TIP3    H117844   2.032   5.541   4.917  0.3833 -1.9103  0.6659
 5960TIP3    H217845   1.945   5.422   4.884 -0.7266 -0.4286 -2.0444
 5961TIP3   OH217846   2.823   2.829   2.015  0.7993  0.4024 -0.7179
 5961TIP3    H117847   2.743   2.853   1.969 -0.4391 -1.7245  0.2060
 5961TIP3    H217848   2.863   2.913   2.038 -1.7128  1.5678 -0.2512
 5962TIP3   OH217849   3.375   2.766   2.042  0.3908 -0.2844 -0.7405
 5962TIP3    H117850   3.378   2.745   1.949  1.8600 -0.3274 -0.7131
 5962TIP3    H217851   3.454   2.725   2.078  2.0661  3.0769 -0.2348
 5963TIP3   OH217852   5.377   5.611   4.187 -0.0129 -0.1663  0.0874
 5963TIP3    H117853   5.320   5.685   4.166  0.2730  0.2576  0.7665
 5963TIP3    H217854   5.462   5.634   4.151 -0.1532 -0.5952 -0.5286
 5964TIP3   OH217855   2.317   5.246   1.134  0.2609  0.1120 -0.0354
 5964TIP3    H117856   2.410   5.229   1.122  1.1082  3.5823  0.6338
 5964TIP3    H217857   2.290   5.185   1.203  1.6985 -1.6916 -0.9640
 5965TIP3   OH217858   5.311   0.460   3.289  0.2513 -0.0765 -0.3179
 5965TIP3    H117859   5.399   0.492   3.309 -0.3180  1.3552 -0.0037
 5965TIP3    H217860   5.304   0.468   3.194 -0.0859  1.3362 -0.1938
 5966TIP3   OH217861   3.108   4.083   5.852 -0.3617  0.1537  0.0754
 5966TIP3    H117862   3.057   4.002   5.858 -0.2572  0.0216 -0.6912
 5966TIP3    H217863   3.194   4.060   5.888 -0.5781  0.1496  0.5988
 5967TIP3   OH217864   6.106   0.325   0.102 -0.2359  0.0074  0.0417
 5967TIP3    H117865   6.175   0.341   0.167  1.5791  0.8189 -1.9737
 5967TIP3    H217866   6.150   0.277   0.032 -2.6774 -2.9452  0.3320
 5968TIP3   OH217867   2.002   0.971   3.622  0.2067  0.1458 -1.0150
 5968TIP3    H117868   1.959   1.051   3.651  1.3275  0.0290  1.1442
 5968TIP3    H217869   1.979   0.964   3.529 -2.4475  1.2931 -0.5215
 5969TIP3   OH217870   2.146   6.309   5.832  0.4678 -0.1229  0.1410
 5969TIP3    H117871   2.075   6.305   5.896 -0.3510 -1.3287 -0.8036
 5969TIP3    H217872   2.212   6.249   5.866  0.5786  0.1799  0.4714
 5970TIP3   OH217873   2.742   5.658   2.713 -0.1769 -0.3031 -0.3796
 5970TIP3    H117874   2.701   5.610   2.641 -0.4404 -0.3646 -0.1888
 5970TIP3    H217875   2.835   5.641   2.702 -0.0314  1.1419 -1.7722
 5971TIP3   OH217876   5.161   5.677   0.833 -0.1392 -0.2587 -0.0969
 5971TIP3    H117877   5.239   5.733   0.834 -1.2463  1.3696 -0.3325
 5971TIP3    H217878   5.090   5.736   0.858 -1.1485 -1.9813  1.2812
 5972TIP3   OH217879   3.926   3.160   2.715 -0.4019  0.4291  0.4764
 5972TIP3    H117880   3.939   3.177   2.808 -2.6890  1.7941  0.6203
 5972TIP3    H217881   3.861   3.225   2.687  2.4084  2.1743 -2.8282
 5973TIP3   OH217882   6.427   0.233   2.715 -0.0853 -0.5029  0.1845
 5973TIP3    H117883   6.392   0.316   2.683 -2.2459 -0.6772  1.8177
 5973TIP3    H217884   6.506   0.256   2.762 -0.1305  0.5026 -0.2126
 5974TIP3   OH217885   4.385   6.616   3.615 -0.5866  0.4974 -0.0296
 5974TIP3    H117886   4.435   6.551   3.665  1.1243  1.5703 -0.2516
 5974TIP3    H217887   4.317   6.646   3.676 -1.6945 -1.7421 -0.0630
 5975TIP3   OH217888   0.001   6.424   2.873 -0.1377 -0.0031  0.5705
 5975TIP3    H117889  -0.031   6.514   2.880 -0.3389  0.2558 -2.2080
 5975TIP3    H217890   0.085   6.432   2.829  0.5317 -1.1090  1.5961
 5976TIP3   OH217891   3.858   4.292   3.309 -0.0670 -0.4569  0.1447
 5976TIP3    H117892   3.840   4.384   3.286 -1.4182 -0.8692 -0.5356
 5976TIP3    H217893   3.773   4.257   3.336  0.2129 -1.7838 -0.6099
 5977TIP3   OH217894   2.404   6.355   4.364  0.2156 -0.3439 -0.3407
 5977TIP3    H117895   2.321   6.400   4.379  0.5354  0.1913 -0.1480
 5977TIP3    H217896   2.462   6.422   4.329  0.7975 -0.5237  0.2520
 5978TIP3   OH217897   6.605   0.822   0.976  0.7650  0.2196 -0.0093
 5978TIP3    H117898   6.640   0.788   1.058 -0.6500  0.9093  0.9230
 5978TIP3    H217899   6.675   0.877   0.941  0.8765  1.1165  1.5125
 5979TIP3   OH217900   1.599   5.348   3.193 -0.4822 -0.3238  0.3880
 5979TIP3    H117901   1.582   5.433   3.153  0.0114  0.0629  0.9878
 5979TIP3    H217902   1.512   5.307   3.200 -0.9329  0.7381  1.4168
 5980TIP3   OH217903   0.706   0.099   2.345  0.7526 -0.1764  0.4385
 5980TIP3    H117904   0.663   0.184   2.345 -0.1430 -0.6058  0.6556
 5980TIP3    H217905   0.747   0.092   2.431  1.3790  0.3005  0.1764
 5981TIP3   OH217906   4.274   2.607   5.003 -0.1749 -0.1682  0.0169
 5981TIP3    H117907   4.270   2.682   5.064 -1.8035 -0.6367  0.5565
 5981TIP3    H217908   4.345   2.629   4.943 -0.7248  1.9206  0.0392
 5982TIP3   OH217909   3.115   5.427   2.572  0.5111 -1.1152 -0.7059
 5982TIP3    H117910   3.082   5.340   2.595 -0.2659 -1.2152 -2.0402
 5982TIP3    H217911   3.043   5.467   2.523  0.2458  0.9116  1.1942
 5983TIP3   OH217912   4.586   2.629   3.354  0.3954 -0.5353  0.8511
 5983TIP3    H117913   4.638   2.703   3.382  1.9833 -1.6790  1.0874
 5983TIP3    H217914   4.579   2.573   3.431  0.7467 -1.4540  0.2415
 5984TIP3   OH217915   4.870   4.160   3.344 -0.3535 -0.3766 -0.2867
 5984TIP3    H117916   4.813   4.196   3.411  0.6877 -0.5209  0.7067
 5984TIP3    H217917   4.851   4.067   3.342  1.9789 -1.0214  2.2993
 5985TIP3   OH217918   0.802   2.460   4.949 -0.1384 -0.1255 -0.3219
 5985TIP3    H117919   0.720   2.462   4.899  0.3239 -1.7765 -1.2217
 5985TIP3    H217920   0.823   2.552   4.964 -2.2619  0.3386  0.1398
 5986TIP3   OH217921   3.373   4.043   0.272  1.0242  0.3753 -0.6713
 5986TIP3    H117922   3.461   4.064   0.304  1.1546  0.7342 -1.2557
 5986TIP3    H217923   3.324   4.125   0.281 -0.2074 -0.5463  2.6444
 5987TIP3   OH217924   6.106   3.675   4.229  0.3770 -0.5053  0.1648
 5987TIP3    H117925   6.098   3.764   4.265 -1.9400 -0.9778  1.0472
 5987TIP3    H217926   6.129   3.621   4.305  2.0630 -0.6480 -0.4261
 5988TIP3   OH217927   5.936   5.697   0.830  0.3625 -0.4094 -0.0858
 5988TIP3    H117928   5.887   5.745   0.896  1.5553  1.5980 -0.5652
 5988TIP3    H217929   6.023   5.684   0.869  0.9894  0.5429 -1.1024
 5989TIP3   OH217930   3.758   6.632   2.542  0.0531  0.0841 -0.1789
 5989TIP3    H117931   3.706   6.711   2.558 -0.1452  0.2745 -1.6353
 5989TIP3    H217932   3.839   6.647   2.590 -1.1701 -0.2084  2.1394
 5990TIP3   OH217933   1.772   1.740   1.126  0.1139 -0.0710 -0.1898
 5990TIP3    H117934   1.780   1.834   1.144 -2.9789  0.1645  0.5413
 5990TIP3    H217935   1.781   1.733   1.031 -1.1319  1.2542 -0.4550
 5991TIP3   OH217936   2.671   0.792   5.680  0.2652 -0.3579 -0.6890
 5991TIP3    H117937   2.730   0.812   5.608  2.4057 -1.2775  0.7041
 5991TIP3    H217938   2.703   0.845   5.753  0.9024 -2.5612  0.7427
 5992TIP3   OH217939   6.376   4.343   2.239  0.0870 -0.3955  0.5284
 5992TIP3    H117940   6.383   4.414   2.303  2.6401  1.1906 -1.3253
 5992TIP3    H217941   6.412   4.267   2.283  3.7990  1.1475  0.4669
 5993TIP3   OH217942   2.022   5.333   5.128 -0.1117  0.4750 -0.3305
 5993TIP3    H117943   1.987   5.299   5.045 -1.9990  0.6496  0.3393
 5993TIP3    H217944   2.016   5.259   5.188 -0.5704  0.8780  0.1303
 5994TIP3   OH217945   3.134   5.871   0.824 -0.0110 -0.6375  0.1559
 5994TIP3    H117946   3.226   5.886   0.801  0.2644 -2.2874  0.0544
 5994TIP3    H217947   3.093   5.957   0.814  1.6062  0.2537  0.6751
 5995TIP3   OH217948   5.353   1.061   5.800 -0.3168 -0.2759 -0.3204
 5995TIP3    H117949   5.415   0.987   5.798  0.5684  0.4442 -0.5020
 5995TIP3    H217950   5.271   1.024   5.769 -0.3821 -1.6207  1.3308
 5996TIP3   OH217951   1.614   5.580   2.629  0.0733  0.1838 -0.6738
 5996TIP3    H117952   1.545   5.621   2.683  1.1885  1.4990 -0.1914
 5996TIP3    H217953   1.690   5.577   2.687  0.8526  0.1887 -1.6880
 5997TIP3   OH217954   3.010   1.794   2.322  0.3706  0.1355 -0.0514
 5997TIP3    H117955   3.026   1.862   2.387 -1.3806  0.1410  0.4211
 5997TIP3    H217956   3.020   1.838   2.238  0.3851  0.6946  0.2387
 5998TIP3   OH217957   1.084   2.398   2.571  0.8759 -0.6425 -0.6097
 5998TIP3    H117958   1.085   2.493   2.579  0.2415 -0.4951 -2.0735
 5998TIP3    H217959   0.993   2.377   2.550  1.0960 -1.5410 -0.6865
 5999TIP3   OH217960   3.737   5.985   4.076  0.7820 -0.2717  0.3424
 5999TIP3    H117961   3.831   5.996   4.093  0.8323  1.9515 -0.8691
 5999TIP3    H217962   3.731   5.986   3.980 -0.3338 -2.4599  0.3367
 6000TIP3   OH217963   2.123   1.169   3.437 -0.2769 -0.3305 -0.2327
 6000TIP3    H117964   2.138   1.252   3.391 -0.0631 -1.2871 -1.9898
 6000TIP3    H217965   2.206   1.152   3.481 -0.3581  0.4310  0.2441
 6001TIP3   OH217966   5.481   6.298   0.837  0.5301  0.4474  0.4036
 6001TIP3    H117967   5.463   6.207   0.859 -2.6131  0.3890 -1.7801
 6001TIP3    H217968   5.549   6.294   0.770  0.1745 -0.3408  0.0739
 6002TIP3   OH217969   2.620   2.095   2.346 -0.4042  0.0307  0.0523
 6002TIP3    H117970   2.608   2.167   2.284 -3.5265  2.0319  2.6413
 6002TIP3    H217971   2.690   2.125   2.404 -0.5759  0.2509  0.1485
 6003TIP3   OH217972   2.726   5.047   4.596 -0.1223  0.0792 -0.4349
 6003TIP3    H117973   2.818   5.034   4.574  0.0096 -0.2465  0.2791
 6003TIP3    H217974   2.725   5.123   4.654 -0.0482 -1.0792  1.1535
 6004TIP3   OH217975   4.429   1.154   4.706 -0.4001 -0.3982  0.6327
 6004TIP3    H117976   4.479   1.194   4.777 -0.4983 -0.8130  0.9385
 6004TIP3    H217977   4.473   1.070   4.690  1.2220  0.7822 -1.5593
 6005TIP3   OH217978   0.846   0.838   5.303 -1.1661 -0.3085  0.3648
 6005TIP3    H117979   0.912   0.768   5.298 -0.2304  0.6040 -0.4881
 6005TIP3    H217980   0.787   0.819   5.230 -0.2499  0.4019 -0.6022
 6006TIP3   OH217981   3.086   2.643   5.609 -0.5411 -0.6144 -0.3504
 6006TIP3    H117982   3.000   2.636   5.567 -1.5275  0.2476  1.3827
 6006TIP3    H217983   3.086   2.730   5.649  1.1449 -0.6126 -0.2970
 6007TIP3   OH217984   1.388   3.798   1.217  0.3421  0.4727  0.1940
 6007TIP3    H117985   1.299   3.785   1.183  0.5621 -1.1599  0.1858
 6007TIP3    H217986   1.376   3.813   1.311 -0.1325  3.3352 -0.2196
 6008TIP3   OH217987   6.393   3.548   3.546  0.3732  0.0413  0.2250
 6008TIP3    H117988   6.452   3.565   3.619  0.4753  0.6128  0.0201
 6008TIP3    H217989   6.433   3.475   3.499 -0.7677 -1.7552  1.8951
 6009TIP3   OH217990   3.893   5.985   5.564 -0.1598  0.2771  0.2648
 6009TIP3    H117991   3.836   6.056   5.534 -2.6837 -0.0363  3.6964
 6009TIP3    H217992   3.866   5.970   5.655  3.6101 -1.8551  1.2316
 6010TIP3   OH217993   1.068   2.201   0.471 -0.3678  0.4774 -0.4174
 6010TIP3    H117994   1.157   2.167   0.479 -0.0552  1.1705 -0.8749
 6010TIP3    H217995   1.025   2.143   0.408 -0.0067  0.5853 -0.7676
 6011TIP3   OH217996   3.149   2.284   1.794 -0.4613  0.3491 -0.0210
 6011TIP3    H117997   3.065   2.273   1.750  0.2431 -1.2547 -1.0671
 6011TIP3    H217998   3.133   2.255   1.884 -0.9270 -0.3569 -0.3234
 6012TIP3   OH217999   2.280   1.421   2.530  0.2804  0.6072 -0.0765
 6012TIP3    H118000   2.332   1.434   2.451 -0.8680  0.6778 -0.8462
 6012TIP3    H218001   2.249   1.509   2.552  1.9164  0.8638  1.4312
 6013TIP3   OH218002   1.328   1.448   0.772 -0.2494 -0.0823  0.3038
 6013TIP3    H118003   1.419   1.450   0.743 -0.1700 -0.0610  0.5526
 6013TIP3    H218004   1.288   1.379   0.720  0.0960 -0.6162  0.7305
 6014TIP3   OH218005   2.212   5.773   1.180 -0.7711  0.7004 -0.5111
 6014TIP3    H118006   2.164   5.690   1.185  0.4411  0.0497  0.9710
 6014TIP3    H218007   2.194   5.816   1.264 -1.0087  1.7660 -1.0778
 6015TIP3   OH218008   2.762   1.079   1.691  0.3112  0.4304 -0.3140
 6015TIP3    H118009   2.690   1.105   1.749  0.6663 -1.4632  1.0887
 6015TIP3    H218010   2.728   1.005   1.642  0.9287  0.2343 -0.4601
 6016TIP3   OH218011   2.503   6.788   5.606 -0.9107  0.1154  0.1502
 6016TIP3    H118012   2.481   6.865   5.554 -0.1663 -0.1838 -0.6207
 6016TIP3    H218013   2.462   6.715   5.560 -0.4615 -0.1179  0.1131
 6017TIP3   OH218014   4.858   5.558   0.851 -0.0446  0.1433 -0.1250
 6017TIP3    H118015   4.795   5.630   0.857  0.2884  0.3734  0.7696
 6017TIP3    H218016   4.843   5.520   0.765 -1.6053  0.0093  0.1865
 6018TIP3   OH218017   2.651   2.853   1.048 -0.2928  0.4295  0.0692
 6018TIP3    H118018   2.692   2.777   1.006  0.0888  0.5250  0.2656
 6018TIP3    H218019   2.601   2.895   0.977  0.4159  0.6389 -0.3185
 6019TIP3   OH218020   7.193   4.265   0.475 -0.8266  0.2169  0.2710
 6019TIP3    H118021   7.251   4.248   0.401 -0.3899  0.2115  0.6113
 6019TIP3    H218022   7.157   4.180   0.498 -1.0381  0.2326  0.0080
 6020TIP3   OH218023   3.882   0.507   2.884  0.0757 -0.0613  0.2700
 6020TIP3    H118024   3.969   0.519   2.845  0.4006  1.3670  1.3309
 6020TIP3    H218025   3.896   0.445   2.955  0.5821  1.2452  1.3689
 6021TIP3   OH218026   6.330   1.711   0.091 -0.0042 -0.2412  0.0704
 6021TIP3    H118027   6.401   1.686   0.150 -0.0137  0.0162  0.1935
 6021TIP3    H218028   6.259   1.649   0.111  0.7339 -1.5353 -1.1758
 6022TIP3   OH218029   4.567   3.834   3.901 -0.5752  0.2067  0.1360
 6022TIP3    H118030   4.588   3.806   3.990  0.9692 -0.2837 -0.3504
 6022TIP3    H218031   4.609   3.768   3.845 -3.6018 -0.9837 -0.9787
 6023TIP3   OH218032   3.811   4.834   1.867 -0.4578  0.0108 -0.3256
 6023TIP3    H118033   3.748   4.804   1.801 -1.0689 -0.3521  0.3977
 6023TIP3    H218034   3.882   4.770   1.865 -0.4731  0.0042 -0.6327
 6024TIP3   OH218035   2.335   0.490   0.831  0.3436 -0.1262 -0.3041
 6024TIP3    H118036   2.268   0.544   0.873  1.7254  2.0504 -0.7122
 6024TIP3    H218037   2.342   0.413   0.887 -0.8283  0.7162  1.0760
 6025TIP3   OH218038   0.706   6.483   1.682 -0.0447  0.3080 -0.1213
 6025TIP3    H118039   0.650   6.459   1.756  0.0520  1.7638  0.4467
 6025TIP3    H218040   0.752   6.402   1.660 -2.1513 -0.8650 -0.4468
 6026TIP3   OH218041   4.804   4.001   4.150  0.3265  0.2190  0.0946
 6026TIP3    H118042   4.772   3.912   4.165 -1.2719  0.8317  0.5983
 6026TIP3    H218043   4.888   4.005   4.194 -1.1061 -0.0915  3.0931
 6027TIP3   OH218044   3.295   3.220   0.863 -0.5884  0.0610  0.4941
 6027TIP3    H118045   3.238   3.199   0.789 -0.4337  0.5562  0.2294
 6027TIP3    H218046   3.383   3.224   0.825 -0.6378  1.3964  0.4845
 6028TIP3   OH218047   6.660   5.031   0.483  0.1288  0.3325 -0.4258
 6028TIP3    H118048   6.571   5.002   0.502  0.1115  0.0528 -0.9151
 6028TIP3    H218049   6.650   5.114   0.437  0.1611  0.8369  0.4451
 6029TIP3   OH218050   1.212   5.037   1.905 -0.0585  0.3768  0.1526
 6029TIP3    H118051   1.146   5.106   1.903 -0.5378 -0.0851 -1.9722
 6029TIP3    H218052   1.163   4.958   1.929 -0.0959  0.2223 -0.4217
 6030TIP3   OH218053   6.699   5.112   2.374 -0.1466 -0.1334  0.0764
 6030TIP3    H118054   6.717   5.018   2.380 -0.0348 -0.2102 -1.1544
 6030TIP3    H218055   6.778   5.150   2.337 -0.5510  0.2965 -0.3687
 6031TIP3   OH218056   0.576   3.478   3.668  0.1355 -0.5667  0.2264
 6031TIP3    H118057   0.609   3.402   3.620 -3.0845 -1.6506 -0.4661
 6031TIP3    H218058   0.523   3.441   3.739 -0.1989  1.0563  0.8741
 6032TIP3   OH218059   3.324   6.079   0.540 -0.7706  0.1616  0.0568
 6032TIP3    H118060   3.350   6.010   0.601 -2.1348  0.1018  0.6016
 6032TIP3    H218061   3.396   6.142   0.543 -1.1101  0.5132  2.3020
 6033TIP3   OH218062   0.474   5.822   4.103 -0.1656  0.1589  0.1271
 6033TIP3    H118063   0.384   5.789   4.113  1.1703 -5.3458 -2.6721
 6033TIP3    H218064   0.525   5.771   4.165  1.6168 -0.5357 -1.8196
 6034TIP3   OH218065   5.680   3.450   5.096  0.7780 -0.4588 -0.3823
 6034TIP3    H118066   5.682   3.416   5.185  0.9251  0.2679 -0.0935
 6034TIP3    H218067   5.693   3.545   5.107  1.6682 -0.4650 -1.2306
 6035TIP3   OH218068   0.703   5.879   3.700 -0.2070 -0.2728 -0.0930
 6035TIP3    H118069   0.629   5.827   3.670 -0.3234  0.0447 -0.3702
 6035TIP3    H218070   0.780   5.833   3.666 -0.1090 -1.9215  2.1892
 6036TIP3   OH218071   1.317   6.571   3.665  0.3402 -0.5581 -0.6447
 6036TIP3    H118072   1.375   6.540   3.735 -0.5867 -0.0366  0.3738
 6036TIP3    H218073   1.374   6.628   3.612  0.9211 -0.5071  0.0062
 6037TIP3   OH218074   4.913   2.692   4.308  0.0233  0.3561  0.5061
 6037TIP3    H118075   4.826   2.718   4.340 -0.0138 -0.6928  1.3105
 6037TIP3    H218076   4.896   2.663   4.218 -0.1587  1.7164  0.0727
 6038TIP3   OH218077   6.429   4.356   1.665  0.2440  0.2715 -0.3945
 6038TIP3    H118078   6.495   4.310   1.716  1.9759  1.4426 -1.4834
 6038TIP3    H218079   6.475   4.385   1.586 -2.2116 -1.0790 -2.4666
 6039TIP3   OH218080   3.458   1.379   2.023 -0.6120  0.1843 -0.3339
 6039TIP3    H118081   3.419   1.322   2.090  0.4149 -3.0491 -2.2576
 6039TIP3    H218082   3.407   1.460   2.027 -3.2034 -1.3923  1.5879
 6040TIP3   OH218083   3.413   4.680   0.168 -0.2425  0.5653 -0.3591
 6040TIP3    H118084   3.504   4.706   0.156 -0.4309  0.5106 -2.2100
 6040TIP3    H218085   3.364   4.761   0.161 -0.3963  0.4797 -0.2661
 6041TIP3   OH218086   5.465   5.931   2.952  0.6268  0.0757 -0.1816
 6041TIP3    H118087   5.477   5.901   2.862 -1.1146  1.3962 -0.9212
 6041TIP3    H218088   5.429   6.019   2.943  0.5594  0.3003  1.8186
 6042TIP3   OH218089   0.650   5.498   5.330  0.4340  0.3484 -0.1279
 6042TIP3    H118090   0.694   5.425   5.373  1.4283  1.0376  0.0604
 6042TIP3    H218091   0.661   5.482   5.236  2.1190  1.0812 -0.0922
 6043TIP3   OH218092   0.249   5.931   0.737  0.7525  0.4452 -0.1594
 6043TIP3    H118093   0.321   5.960   0.792  1.4924 -0.7481 -0.4478
 6043TIP3    H218094   0.182   5.901   0.799  0.6082  1.2942  0.1053
 6044TIP3   OH218095   2.352   5.413   5.079  0.0076  0.2993  0.8080
 6044TIP3    H118096   2.326   5.339   5.133  0.5314  1.1686  2.2908
 6044TIP3    H218097   2.270   5.462   5.065  0.0182  0.5245  1.5266
 6045TIP3   OH218098   0.068   2.128   5.439  0.3333  0.4392 -0.2874
 6045TIP3    H118099   0.042   2.129   5.347  1.1895  1.4746 -0.5336
 6045TIP3    H218100   0.164   2.119   5.437  0.3342  0.1900  0.5073
 6046TIP3   OH218101   2.928   3.048   3.803  0.0485  0.3242  0.1329
 6046TIP3    H118102   2.961   2.970   3.758  0.0819 -0.2758  1.1716
 6046TIP3    H218103   2.860   3.082   3.744  1.2383  0.5336 -1.1677
 6047TIP3   OH218104   1.631   0.246   3.638  0.3006  0.3034  0.9570
 6047TIP3    H118105   1.538   0.255   3.621  0.3757 -0.7935 -0.1330
 6047TIP3    H218106   1.673   0.262   3.553  0.8675 -2.6062  0.6110
 6048TIP3   OH218107   2.980   0.176   3.079  0.1581 -0.4792  0.5119
 6048TIP3    H118108   2.914   0.224   3.029  1.5699  0.5054 -0.4956
 6048TIP3    H218109   3.028   0.127   3.013  3.0064  1.9698  0.5516
 6049TIP3   OH218110   1.462   5.478   1.452 -0.0223  0.3716 -0.2836
 6049TIP3    H118111   1.473   5.566   1.488  1.6894  0.0491  0.0415
 6049TIP3    H218112   1.460   5.492   1.357 -1.7282  0.9240 -0.2113
 6050TIP3   OH218113   6.412   1.190   1.020 -0.7163  0.2657 -0.0600
 6050TIP3    H118114   6.332   1.221   1.062  0.6004  1.0004  2.0928
 6050TIP3    H218115   6.476   1.260   1.035  0.3133 -0.2288 -1.8387
 6051TIP3   OH218116   1.472   2.938   0.565 -0.4044 -0.1526 -0.3424
 6051TIP3    H118117   1.565   2.916   0.562 -0.4781 -0.5577  0.2286
 6051TIP3    H218118   1.428   2.854   0.582 -0.8709  0.0444 -0.5464
 6052TIP3   OH218119   0.701   3.277   2.385 -0.3926 -0.8703 -0.2567
 6052TIP3    H118120   0.713   3.245   2.295  0.4475 -0.9645 -0.1211
 6052TIP3    H218121   0.738   3.365   2.384 -0.5634 -0.7966 -0.0546
 6053TIP3   OH218122   4.594   1.003   1.234 -0.0721  0.2043 -0.1663
 6053TIP3    H118123   4.533   0.960   1.294  0.0032 -0.2099 -0.3834
 6053TIP3    H218124   4.665   1.034   1.290  1.3898 -2.5766 -0.3064
 6054TIP3   OH218125   6.272   0.344   3.103 -0.2144  0.2539  0.2087
 6054TIP3    H118126   6.278   0.312   3.193 -3.0138  0.1850  0.4533
 6054TIP3    H218127   6.249   0.266   3.052 -1.0818  0.7499 -0.1668
 6055TIP3   OH218128   2.862   2.556   5.461  0.0444 -0.3928 -0.3735
 6055TIP3    H118129   2.879   2.465   5.487 -2.0720 -0.9607 -0.8291
 6055TIP3    H218130   2.767   2.566   5.465  0.1357  1.4586 -1.4731
 6056TIP3   OH218131   0.289   3.472   3.840 -0.3619 -0.3509 -0.4895
 6056TIP3    H118132   0.199   3.475   3.872 -0.4026  1.8334 -0.6296
 6056TIP3    H218133   0.335   3.415   3.901 -1.8264 -1.5016 -0.4151
 6057TIP3   OH218134   0.444   4.653   0.398 -0.3366  0.2847  0.0710
 6057TIP3    H118135   0.443   4.601   0.317 -0.1310  0.3703  0.0127
 6057TIP3    H218136   0.504   4.725   0.379 -0.3813  0.3717  0.2606
 6058TIP3   OH218137   1.079   6.688   1.396  0.6154 -0.2210  0.3022
 6058TIP3    H118138   1.003   6.685   1.338  0.7557 -0.6675  0.1364
 6058TIP3    H218139   1.110   6.598   1.399  0.8424 -0.1309  0.7653
 6059TIP3   OH218140   0.350   5.985   5.274  0.5914  0.0199 -0.0946
 6059TIP3    H118141   0.400   6.062   5.300 -0.9323  0.7381  0.8582
 6059TIP3    H218142   0.286   5.973   5.344  0.7602 -2.1019 -0.2551
 6060TIP3   OH218143   6.199   4.974   1.387  0.2261 -0.5114 -0.4569
 6060TIP3    H118144   6.254   4.902   1.357  2.4994  0.4182  1.1943
 6060TIP3    H218145   6.169   5.016   1.307  1.6035 -1.3262 -1.4527
 6061TIP3   OH218146   0.491   2.103   0.021 -0.0219  0.3179 -0.0441
 6061TIP3    H118147   0.520   2.027   0.072  0.2496  1.0773  0.9751
 6061TIP3    H218148   0.402   2.081  -0.006 -0.0800 -0.2080  0.5464
 6062TIP3   OH218149   3.036   2.517   2.566  0.2364 -0.4999  0.8286
 6062TIP3    H118150   3.074   2.604   2.581 -0.2952 -0.3082  1.0634
 6062TIP3    H218151   3.000   2.492   2.651 -0.5527 -0.4957  0.4956
 6063TIP3   OH218152   2.875   2.800   4.535  0.1521 -0.4428  0.8903
 6063TIP3    H118153   2.850   2.748   4.459 -0.0053 -2.3028  2.1591
 6063TIP3    H218154   2.882   2.890   4.501 -3.1760 -0.6094 -0.6294
 6064TIP3   OH218155   1.780   3.368   2.526  0.0790  0.1880  0.2803
 6064TIP3    H118156   1.729   3.376   2.607 -2.9692 -0.8387 -1.3664
 6064TIP3    H218157   1.727   3.413   2.460  2.0007  0.1869 -1.3565
 6065TIP3   OH218158   6.745   5.791   2.526 -0.4932  0.0180 -0.2857
 6065TIP3    H118159   6.710   5.873   2.562 -0.1044  0.7861 -1.6206
 6065TIP3    H218160   6.814   5.818   2.467 -0.0367 -1.3183 -0.3936
 6066TIP3   OH218161   1.154   4.344   0.543  0.3567 -0.0442  0.4286
 6066TIP3    H118162   1.209   4.268   0.523  1.2193 -0.2996  3.3460
 6066TIP3    H218163   1.194   4.416   0.495  1.2998 -0.8396 -0.0178
 6067TIP3   OH218164   4.040   5.962   0.577  0.0206  0.1409 -0.3329
 6067TIP3    H118165   4.003   5.920   0.499  0.1476  0.5178 -0.6025
 6067TIP3    H218166   3.964   5.988   0.628 -0.0542 -0.5924 -0.0670
 6068TIP3   OH218167   0.743   5.623   1.460  0.2022  0.1071 -0.4169
 6068TIP3    H118168   0.838   5.613   1.450  0.1381 -1.1417  0.0880
 6068TIP3    H218169   0.713   5.650   1.373  1.0657  1.0166 -0.4552
 6069TIP3   OH218170   0.762   5.482   0.034 -0.0024 -0.9251 -0.0576
 6069TIP3    H118171   0.801   5.443   0.112  0.3469 -0.2742  0.1033
 6069TIP3    H218172   0.823   5.551   0.009 -1.2995  0.4828  0.5178
 6070TIP3   OH218173   3.551   2.603   1.066  0.1093 -0.2607 -0.0920
 6070TIP3    H118174   3.470   2.555   1.052 -0.2155  0.1548  0.3188
 6070TIP3    H218175   3.593   2.559   1.140 -0.3360  0.2513  0.4848
 6071TIP3   OH218176   3.346   3.739   0.693 -0.3508 -0.0519 -0.3747
 6071TIP3    H118177   3.426   3.734   0.744  0.1030  0.6886 -0.9779
 6071TIP3    H218178   3.276   3.712   0.753 -0.0180  2.0114  1.0452
 6072TIP3   OH218179   5.853   1.693   0.547 -0.4965 -0.0220 -0.0295
 6072TIP3    H118180   5.919   1.625   0.560 -0.7394 -0.2107  0.2228
 6072TIP3    H218181   5.848   1.739   0.631 -0.8995 -0.1989  0.0451
 6073TIP3   OH218182   5.226   5.138   4.045 -0.2516 -0.1178  0.6832
 6073TIP3    H118183   5.171   5.182   4.111 -0.2900 -0.0779  0.6248
 6073TIP3    H218184   5.167   5.123   3.971 -0.1520  0.0356  0.5737
 6074TIP3   OH218185   3.945   0.802   3.189  0.3498  0.0924 -0.3767
 6074TIP3    H118186   3.922   0.789   3.096 -1.7843  0.2821  0.0685
 6074TIP3    H218187   3.988   0.887   3.192 -0.5511  0.5910 -1.0722
 6075TIP3   OH218188   1.044   4.631   2.290 -0.2540  0.2573 -0.0232
 6075TIP3    H118189   1.013   4.582   2.214  1.2458 -1.6505  0.5138
 6075TIP3    H218190   1.083   4.710   2.253 -0.2690 -0.2546 -1.1899
 6076TIP3   OH218191   0.310   1.564   2.679  0.2032 -0.0269  0.1194
 6076TIP3    H118192   0.386   1.595   2.629  0.6508  0.4673  1.0826
 6076TIP3    H218193   0.336   1.478   2.710  0.6820  0.4446  1.0692
 6077TIP3   OH218194   0.363   2.805   3.401  0.4896 -0.1135  0.0079
 6077TIP3    H118195   0.430   2.813   3.469 -0.7815  0.1429  1.2878
 6077TIP3    H218196   0.315   2.725   3.425  0.9042 -0.8328 -1.4368
 6078TIP3   OH218197   4.407   0.348   3.654 -0.1594 -0.0804 -0.8177
 6078TIP3    H118198   4.364   0.318   3.573 -2.1185 -0.7786  0.4009
 6078TIP3    H218199   4.417   0.443   3.642 -2.3651  0.1876 -1.1088
 6079TIP3   OH218200   6.272   6.418   3.609  0.3156 -0.5141 -0.2218
 6079TIP3    H118201   6.271   6.393   3.516  0.8213 -1.7536  0.0948
 6079TIP3    H218202   6.349   6.474   3.618 -0.0769  0.1133 -0.6629
 6080TIP3   OH218203   5.993   2.740   0.344 -0.7158  0.2164  0.0367
 6080TIP3    H118204   5.977   2.820   0.394  0.6720  0.1231  0.6701
 6080TIP3    H218205   6.022   2.677   0.409  1.8968  0.3101 -0.9389
 6081TIP3   OH218206   5.291   3.155   1.156 -0.1278 -0.2790 -0.4190
 6081TIP3    H118207   5.308   3.119   1.243  0.7370  2.1308  0.5059
 6081TIP3    H218208   5.377   3.156   1.113 -0.1979  0.2741 -0.5580
 6082TIP3   OH218209   3.821   0.522   3.535  0.1485  0.3779 -0.6109
 6082TIP3    H118210   3.915   0.507   3.537  0.2940  1.2906  0.6646
 6082TIP3    H218211   3.786   0.464   3.603 -0.1104  0.6735 -0.4906
 6083TIP3   OH218212   6.215   6.591   0.382 -0.5126 -0.0083  0.3637
 6083TIP3    H118213   6.147   6.601   0.449 -0.6585  0.4354  0.1507
 6083TIP3    H218214   6.296   6.578   0.431 -0.9061 -1.7677  0.6377
 6084TIP3   OH218215   6.625   3.163   5.427 -0.0030 -0.0404 -0.7798
 6084TIP3    H118216   6.705   3.202   5.392 -0.8965  1.7669 -0.9569
 6084TIP3    H218217   6.600   3.097   5.364  0.6791  0.2570 -1.3733
 6085TIP3   OH218218   7.226   4.693   4.720  0.0254  0.5317  0.2010
 6085TIP3    H118219   7.232   4.771   4.665 -0.2004 -0.4001 -1.2180
 6085TIP3    H218220   7.151   4.644   4.684  0.1628 -0.3381  1.0477
 6086TIP3   OH218221   1.401   0.429   0.306  0.1852  0.1483  0.0224
 6086TIP3    H118222   1.464   0.356   0.311  0.2778  0.2763  0.8688
 6086TIP3    H218223   1.319   0.387   0.280  0.3827 -0.1759 -0.0913
 6087TIP3   OH218224   2.071   6.673   4.392 -0.1093  0.1971 -0.3047
 6087TIP3    H118225   2.031   6.614   4.455  1.4707 -0.2229  0.3570
 6087TIP3    H218226   2.121   6.735   4.445  1.3532 -0.2463 -1.1143
 6088TIP3   OH218227   2.877   5.583   3.150  0.3456  0.3269  0.3709
 6088TIP3    H118228   2.906   5.509   3.096  2.6169  0.4621  1.2952
 6088TIP3    H218229   2.843   5.646   3.087 -0.1583 -0.8549 -0.5815
 6089TIP3   OH218230   0.147   3.730   4.017  0.4564  0.2720 -0.5787
 6089TIP3    H118231   0.120   3.674   3.945  0.4600  0.4715 -0.7375
 6089TIP3    H218232   0.232   3.696   4.043  0.4342  0.1704 -0.6386
 6090TIP3   OH218233   7.051   5.472   5.380 -0.5713  0.0040  0.0538
 6090TIP3    H118234   6.994   5.442   5.310  0.1292 -3.7379  0.8198
 6090TIP3    H218235   6.992   5.495   5.452 -1.2749 -2.2920  0.2975
 6091TIP3   OH218236   2.537   6.248   2.894 -0.0793 -0.5474  0.0262
 6091TIP3    H118237   2.488   6.166   2.884 -0.9873 -0.1962  1.2761
 6091TIP3    H218238   2.470   6.316   2.895  0.5775  0.1135  0.0747
 6092TIP3   OH218239   6.255   2.303   0.875 -0.1039 -0.2751  0.0998
 6092TIP3    H118240   6.288   2.214   0.889 -0.6188 -0.8893 -2.2167
 6092TIP3    H218241   6.274   2.321   0.783  1.6484  2.7538  0.9357
 6093TIP3   OH218242   6.501   0.022   1.543 -0.1530 -0.1708 -0.2151
 6093TIP3    H118243   6.425  -0.005   1.595  0.4070 -0.1910  0.6087
 6093TIP3    H218244   6.577  -0.006   1.594  0.4326 -1.5933 -1.7623
 6094TIP3   OH218245   2.245   3.941   5.346  0.0945 -0.2444 -0.4549
 6094TIP3    H118246   2.286   3.879   5.286  0.6111  0.0296 -0.3900
 6094TIP3    H218247   2.228   4.018   5.292 -1.4581 -0.7847 -0.7853
 6095TIP3   OH218248   7.198   1.853   3.996  0.2279 -0.5005 -0.1499
 6095TIP3    H118249   7.221   1.942   3.967  0.1306  0.5102  2.5443
 6095TIP3    H218250   7.106   1.860   4.021  0.5321 -1.0337  1.1577
 6096TIP3   OH218251   5.766   5.847   3.565 -0.1682  0.7280 -0.4902
 6096TIP3    H118252   5.786   5.832   3.473 -0.9643 -0.9803 -0.4193
 6096TIP3    H218253   5.706   5.776   3.589  0.0374  1.1216  1.3555
 6097TIP3   OH218254   2.342   5.892   0.452  0.3381  0.3637 -0.3656
 6097TIP3    H118255   2.376   5.917   0.538  0.7065  0.4508 -0.5381
 6097TIP3    H218256   2.252   5.862   0.470  0.0746  1.3009 -0.0900
 6098TIP3   OH218257   4.293   4.085   0.447  0.1691 -0.1456  0.2686
 6098TIP3    H118258   4.356   4.153   0.470 -1.1092  1.5058 -0.8318
 6098TIP3    H218259   4.344   4.020   0.399  1.5205 -0.2607  1.7948
 6099TIP3   OH218260   6.422   5.705   4.870 -0.0350  0.4132  0.3967
 6099TIP3    H118261   6.408   5.799   4.855  0.8743  0.4790 -0.1666
 6099TIP3    H218262   6.468   5.676   4.791  0.0624 -0.4168  0.7548
 6100TIP3   OH218263   2.920   5.108   2.356 -0.1523 -0.0263 -0.1164
 6100TIP3    H118264   2.910   5.149   2.441  0.4663  0.0881 -0.0948
 6100TIP3    H218265   2.999   5.148   2.319 -0.6129  0.1910 -0.8916
 6101TIP3   OH218266   5.789   4.530   2.022 -0.4088 -0.5031 -0.4943
 6101TIP3    H118267   5.867   4.497   2.066 -1.4214 -0.5020  1.3988
 6101TIP3    H218268   5.717   4.478   2.058 -1.6358  1.4417  0.0375
 6102TIP3   OH218269   0.795   0.292   0.738 -0.7356  0.2549  0.3518
 6102TIP3    H118270   0.770   0.263   0.650 -1.3337  1.4809  0.0993
 6102TIP3    H218271   0.713   0.325   0.776  0.0914  2.6807  0.1765
 6103TIP3   OH218272   4.387   2.480   3.246  0.3241 -0.3521  0.1516
 6103TIP3    H118273   4.409   2.409   3.307  1.4239 -0.2636 -0.1165
 6103TIP3    H218274   4.455   2.546   3.261 -0.0620  0.1717 -0.3707
 6104TIP3   OH218275   1.967   4.085   5.790  0.6430 -0.3197 -0.1722
 6104TIP3    H118276   2.038   4.071   5.727 -0.0747  2.4406 -1.7657
 6104TIP3    H218277   1.939   3.997   5.815  3.9661 -1.5086 -0.1568
 6105TIP3   OH218278   4.589   3.345   4.661 -0.2411  0.0721  0.1553
 6105TIP3    H118279   4.510   3.358   4.609 -0.0615  0.5022 -0.0181
 6105TIP3    H218280   4.561   3.292   4.736 -0.8752  0.9562  0.5565
 6106TIP3   OH218281   4.549   6.207   3.383  0.0107 -0.1685 -0.0403
 6106TIP3    H118282   4.577   6.198   3.474  0.7191  1.6274 -0.0314
 6106TIP3    H218283   4.602   6.145   3.334 -0.8522 -1.6364  0.8298
 6107TIP3   OH218284   3.452   3.194   2.713  0.0338  0.3441 -0.6247
 6107TIP3    H118285   3.511   3.240   2.772 -2.4162  1.1149  1.4120
 6107TIP3    H218286   3.442   3.252   2.638 -0.2613  1.5152  0.2935
 6108TIP3   OH218287   6.211   2.884   4.296  0.3420 -0.0534  0.7028
 6108TIP3    H118288   6.162   2.858   4.374  1.4576  0.4961  1.6137
 6108TIP3    H218289   6.253   2.803   4.266 -0.2890 -0.3170  0.5087
 6109TIP3   OH218290   1.937   1.917   3.818 -0.2434  0.1907 -0.1720
 6109TIP3    H118291   1.956   1.946   3.729 -0.4217 -1.4844 -0.7826
 6109TIP3    H218292   2.009   1.951   3.870  0.6890 -0.1093 -1.2300
 6110TIP3   OH218293   6.946   2.941   0.682  0.1655  0.1330 -0.0457
 6110TIP3    H118294   7.016   2.983   0.732  1.5411  0.9731 -2.4624
 6110TIP3    H218295   6.985   2.859   0.651  0.5162  1.0466 -2.2015
 6111TIP3   OH218296   3.662   2.663   4.261  0.3214  0.1602 -0.3012
 6111TIP3    H118297   3.618   2.674   4.177  0.3749  0.9811 -0.2283
 6111TIP3    H218298   3.592   2.670   4.326  0.4024  0.3618 -0.2366
 6112TIP3   OH218299   1.425   2.514   3.796  0.0406  0.3297 -0.1064
 6112TIP3    H118300   1.366   2.532   3.870  0.7117  2.0995  0.0311
 6112TIP3    H218301   1.380   2.549   3.720  0.8145  1.5625 -0.0208
 6113TIP3   OH218302   1.167   4.781   1.275 -0.3587  0.2096  0.2976
 6113TIP3    H118303   1.176   4.874   1.294  2.7012 -0.1469  1.0843
 6113TIP3    H218304   1.179   4.738   1.359 -0.1803 -0.9657 -0.3064
 6114TIP3   OH218305   2.179   5.357   0.292 -0.2116  0.2711  0.1612
 6114TIP3    H118306   2.200   5.373   0.200 -0.0998 -2.2477 -0.3304
 6114TIP3    H218307   2.253   5.305   0.324 -2.0526 -2.3740  0.4833
 6115TIP3   OH218308   5.666   3.729   1.747  0.3268 -0.3623  0.3834
 6115TIP3    H118309   5.610   3.714   1.823 -0.4452 -0.1770 -0.1429
 6115TIP3    H218310   5.727   3.797   1.775  0.4356 -0.7141  1.0297
 6116TIP3   OH218311   1.331   5.222   1.454 -0.5445 -0.2698 -0.2467
 6116TIP3    H118312   1.290   5.212   1.540  2.1995  1.4609  1.4058
 6116TIP3    H218313   1.372   5.308   1.457  1.4365 -1.0379 -2.4885
 6117TIP3   OH218314   2.493   5.092   1.423  0.1217 -0.1831  0.1417
 6117TIP3    H118315   2.560   5.026   1.407 -0.9397 -1.4255  0.6964
 6117TIP3    H218316   2.502   5.113   1.516  2.5992  2.9286 -0.6298
 6118TIP3   OH218317   6.947   4.786   3.203 -0.5564 -0.0398  0.0091
 6118TIP3    H118318   6.966   4.709   3.258 -2.2806 -0.3960  0.1438
 6118TIP3    H218319   6.973   4.758   3.115  0.1794 -0.2425  0.2758
 6119TIP3   OH218320   6.552   2.759   0.369 -0.5180 -0.4142  0.3268
 6119TIP3    H118321   6.524   2.846   0.341 -0.8124 -1.0545 -1.4386
 6119TIP3    H218322   6.637   2.774   0.410  0.0520  0.5730 -1.1337
 6120TIP3   OH218323   5.848   3.826   1.371 -0.4939 -1.0990 -0.4307
 6120TIP3    H118324   5.909   3.758   1.342 -1.6786 -1.1346 -3.0514
 6120TIP3    H218325   5.761   3.789   1.357 -1.1609  0.6842 -1.3151
 6121TIP3   OH218326   4.653   6.786   3.262 -0.5525 -0.5931 -0.0755
 6121TIP3    H118327   4.714   6.729   3.216 -0.6632  0.3651 -1.4929
 6121TIP3    H218328   4.691   6.797   3.349  0.5689 -1.1143 -0.4823
 6122TIP3   OH218329   2.251   3.250   2.377 -0.1445  0.4303 -0.3613
 6122TIP3    H118330   2.180   3.187   2.394 -0.4855  0.3630 -1.9357
 6122TIP3    H218331   2.331   3.200   2.396 -0.4732  0.1737  0.3976
 6123TIP3   OH218332   1.019   4.006   1.622 -0.6376 -0.3494 -0.4482
 6123TIP3    H118333   1.019   3.934   1.685 -0.8283  0.1569  0.1320
 6123TIP3    H218334   0.972   3.971   1.546 -0.5008 -0.9224 -0.2781
 6124TIP3   OH218335   6.146   2.814   1.785  0.5243  0.1890  0.2017
 6124TIP3    H118336   6.131   2.907   1.802  0.9092  0.6643 -1.8090
 6124TIP3    H218337   6.061   2.773   1.800  0.4511  0.7722  1.5179
 6125TIP3   OH218338   3.326   0.850   2.814  0.3352 -0.8826 -0.4102
 6125TIP3    H118339   3.301   0.905   2.888  0.4592 -2.5620  0.9658
 6125TIP3    H218340   3.418   0.829   2.831  0.9484  0.2727 -2.1123
 6126TIP3   OH218341   3.552   4.812   5.379 -0.2165 -0.6064  0.2822
 6126TIP3    H118342   3.496   4.735   5.388 -1.3271  0.2992  1.1978
 6126TIP3    H218343   3.492   4.886   5.372  0.8521  0.2865  0.2716
 6127TIP3   OH218344   0.476   1.776   2.145  0.0823 -0.0918  0.4665
 6127TIP3    H118345   0.533   1.788   2.221  0.3219  0.0509  0.2651
 6127TIP3    H218346   0.515   1.702   2.098 -1.1484 -1.4486  1.4833
 6128TIP3   OH218347   2.354   3.077   1.821  0.1302 -0.5600  0.6346
 6128TIP3    H118348   2.333   3.016   1.750 -2.4425  1.5261 -0.5868
 6128TIP3    H218349   2.347   3.024   1.900 -0.4496 -2.2020 -0.4456
 6129TIP3   OH218350   3.419   5.292   4.551  0.3260 -0.5277  0.1407
 6129TIP3    H118351   3.504   5.249   4.541  0.7111 -0.3927  2.4662
 6129TIP3    H218352   3.363   5.226   4.592 -0.7054 -0.5604 -1.2117
 6130TIP3   OH218353   5.547   6.125   4.977  0.4591  0.4816  0.6019
 6130TIP3    H118354   5.618   6.062   4.967 -0.8231 -0.8050 -0.9055
 6130TIP3    H218355   5.560   6.188   4.906 -1.7154 -1.6967 -1.9429
 6131TIP3   OH218356   6.952   2.785   1.186 -0.6235 -0.0935  0.7016
 6131TIP3    H118357   7.027   2.845   1.182  0.9927 -2.0812 -1.8774
 6131TIP3    H218358   6.955   2.749   1.275  1.7612 -0.3724  0.5738
 6132TIP3   OH218359   2.446   4.330   3.743 -0.0314  0.3112 -0.3038
 6132TIP3    H118360   2.490   4.316   3.659  1.1369  0.3401  0.2817
 6132TIP3    H218361   2.353   4.322   3.723  0.2720 -0.9425 -1.3762
 6133TIP3   OH218362   2.410   1.685   1.348 -0.1190  0.2679  0.2071
 6133TIP3    H118363   2.361   1.684   1.430 -1.6956  0.2936 -0.6832
 6133TIP3    H218364   2.454   1.770   1.346 -0.8396  0.6551  0.6051
 6134TIP3   OH218365   1.085   6.259   5.640  0.0999 -1.2215  0.1086
 6134TIP3    H118366   1.021   6.202   5.598 -1.6947  1.5278 -1.1811
 6134TIP3    H218367   1.170   6.229   5.607 -0.7864 -2.8444 -0.8123
 6135TIP3   OH218368   0.050   2.120   3.915 -0.3166 -0.2236  0.5665
 6135TIP3    H118369   0.107   2.184   3.956  1.2089 -0.8345 -0.5222
 6135TIP3    H218370   0.034   2.153   3.827  0.2885 -1.1922  0.0731
 6136TIP3   OH218371   4.900   5.681   2.139  0.0324  0.0943  0.5817
 6136TIP3    H118372   4.986   5.704   2.174  1.3885  0.0281 -2.3957
 6136TIP3    H218373   4.878   5.753   2.080 -0.6087 -1.1471 -0.7661
 6137TIP3   OH218374   1.624   6.816   1.800 -0.4551 -0.2325 -0.0434
 6137TIP3    H118375   1.669   6.736   1.773  0.6853 -1.0192  3.5770
 6137TIP3    H218376   1.534   6.789   1.817 -0.2607 -0.5877  0.4430
 6138TIP3   OH218377   2.900   4.486   4.303  0.1916 -0.4320  0.5898
 6138TIP3    H118378   2.968   4.500   4.236  0.1496 -3.3103 -0.1848
 6138TIP3    H218379   2.890   4.572   4.344  2.6045  0.6711 -0.8467
 6139TIP3   OH218380   2.292   4.735   2.626 -0.3181  0.5250  0.6965
 6139TIP3    H118381   2.380   4.773   2.619 -0.7899  1.5471  0.1524
 6139TIP3    H218382   2.296   4.680   2.704  1.5760 -1.5262 -0.7106
 6140TIP3   OH218383   5.252   4.849   3.358  0.5732 -0.1700  0.5892
 6140TIP3    H118384   5.338   4.828   3.396  1.2214  2.4334  0.8035
 6140TIP3    H218385   5.241   4.787   3.287  2.8574 -0.3389  0.2939
 6141TIP3   OH218386   2.831   3.584   4.965 -0.1864 -0.0907  0.0465
 6141TIP3    H118387   2.895   3.653   4.949 -1.0566  0.3792 -1.6263
 6141TIP3    H218388   2.774   3.585   4.887 -2.7660  0.0997  1.8034
 6142TIP3   OH218389   5.757   4.694   2.594  0.0089 -0.1690 -0.3831
 6142TIP3    H118390   5.667   4.685   2.625 -0.4289 -1.6314 -1.9567
 6142TIP3    H218391   5.751   4.748   2.515  0.1607 -2.0011 -1.7232
 6143TIP3   OH218392   2.831   5.173   5.859  0.0056  0.0028 -0.5010
 6143TIP3    H118393   2.745   5.161   5.898  0.4828 -0.8592  0.3401
 6143TIP3    H218394   2.813   5.198   5.768 -1.1231 -0.0135 -0.2948
 6144TIP3   OH218395   5.508   1.695   3.792  0.0409  0.0014  0.0983
 6144TIP3    H118396   5.486   1.788   3.783  0.7887  0.3066  1.2014
 6144TIP3    H218397   5.487   1.674   3.883 -0.7917 -1.1101 -0.3343
 6145TIP3   OH218398   5.318   3.300   4.187  0.0279  0.3678  0.2922
 6145TIP3    H118399   5.235   3.323   4.227  0.9824  2.4906  1.2432
 6145TIP3    H218400   5.351   3.383   4.151  1.0019 -0.7262 -1.4911
 6146TIP3   OH218401   1.091   5.728   2.273 -0.3188 -0.3944  0.0793
 6146TIP3    H118402   1.077   5.644   2.228  0.8613 -2.2444  2.8622
 6146TIP3    H218403   1.185   5.732   2.289 -0.2665  1.7905 -0.4448
 6147TIP3   OH218404   1.745   2.668   0.989  0.0110  0.4709 -0.6114
 6147TIP3    H118405   1.807   2.607   1.028 -1.4338 -0.8984 -0.3390
 6147TIP3    H218406   1.685   2.690   1.060 -1.0189  0.1184 -1.3415
 6148TIP3   OH218407   5.252   2.938   0.931 -0.3182  0.3868 -0.3897
 6148TIP3    H118408   5.238   2.917   1.023 -0.9207  2.3259 -0.0096
 6148TIP3    H218409   5.334   2.894   0.909 -1.1295 -1.7230  0.5006
 6149TIP3   OH218410   2.183   3.832   2.560  0.0111  0.9243 -0.4930
 6149TIP3    H118411   2.277   3.832   2.541  0.1568 -1.6560 -0.0602
 6149TIP3    H218412   2.142   3.821   2.474  0.1839  0.4584 -0.5194
 6150TIP3   OH218413   1.067   1.734   5.114 -0.1018  0.2002 -0.2123
 6150TIP3    H118414   1.148   1.717   5.066 -0.9005 -0.1426 -1.4963
 6150TIP3    H218415   0.997   1.719   5.050 -1.2341 -0.3995  1.0931
 6151TIP3   OH218416   2.257   3.381   0.569 -0.1986 -0.0422 -0.4274
 6151TIP3    H118417   2.248   3.366   0.475 -0.6069 -0.0781 -0.3817
 6151TIP3    H218418   2.177   3.427   0.594 -0.6565 -1.1131  0.1303
 6152TIP3   OH218419   0.303   0.395   5.558  0.2431  0.0395 -0.0690
 6152TIP3    H118420   0.341   0.308   5.557 -1.3768 -0.6987 -0.9728
 6152TIP3    H218421   0.292   0.418   5.465 -0.8302  0.5107  0.1526
 6153TIP3   OH218422   3.881   6.699   1.215  0.6314 -0.1498  0.1411
 6153TIP3    H118423   3.963   6.740   1.187 -1.1997  3.5674 -0.3569
 6153TIP3    H218424   3.859   6.742   1.297 -1.0008 -0.7885  0.0721
 6154TIP3   OH218425   1.134   1.730   4.434 -0.0109  0.1016  0.5941
 6154TIP3    H118426   1.218   1.738   4.478  1.3003  0.1811 -1.7931
 6154TIP3    H218427   1.125   1.637   4.416 -0.5183  0.0751  0.9573
 6155TIP3   OH218428   2.877   5.908   2.792  0.0973 -0.3733  0.2746
 6155TIP3    H118429   2.945   5.841   2.789 -0.6126 -1.2315  1.8739
 6155TIP3    H218430   2.817   5.885   2.722  1.0164 -0.0570 -0.6480
 6156TIP3   OH218431   5.211   3.818   2.154 -0.0536 -0.0866 -0.0765
 6156TIP3    H118432   5.146   3.861   2.099  0.1125 -0.5544 -0.6405
 6156TIP3    H218433   5.252   3.889   2.203 -0.5225  0.2788 -0.2142
 6157TIP3   OH218434   0.644   1.393   2.787  0.0531 -0.1174 -0.2221
 6157TIP3    H118435   0.605   1.342   2.858 -0.2014  0.1934 -0.1366
 6157TIP3    H218436   0.681   1.327   2.728 -1.5976 -0.4978 -0.9125
 6158TIP3   OH218437   6.600   2.023   1.312  0.1707  0.2048 -0.4929
 6158TIP3    H118438   6.531   2.049   1.373 -0.5699  0.4218 -1.4007
 6158TIP3    H218439   6.636   2.105   1.280  1.1044  0.1025  0.2073
 6159TIP3   OH218440   5.388   5.041   4.884 -0.4618  0.0362  0.4586
 6159TIP3    H118441   5.429   4.954   4.881 -1.3112 -0.3977  1.0266
 6159TIP3    H218442   5.294   5.023   4.892 -1.0344  0.9707 -2.7102
 6160TIP3   OH218443   0.961   3.450   0.120  0.0122 -0.3195 -0.5413
 6160TIP3    H118444   1.047   3.461   0.079 -0.4034 -1.3012 -1.7541
 6160TIP3    H218445   0.954   3.523   0.181  2.7401 -1.6011  1.5115
 6161TIP3   OH218446   5.045   6.147   4.138  0.2430 -0.7204  0.9132
 6161TIP3    H118447   5.073   6.200   4.212 -0.7875  0.7177  0.3278
 6161TIP3    H218448   5.101   6.070   4.141 -0.1678 -1.0120  3.5309
 6162TIP3   OH218449   3.195   0.932   5.766  0.2470  0.0380  0.1289
 6162TIP3    H118450   3.160   0.928   5.855  1.4564  0.8116  0.6755
 6162TIP3    H218451   3.194   0.841   5.735  0.9211 -0.4231  1.3925
 6163TIP3   OH218452   0.646   4.799   0.573 -0.3691 -0.0678 -0.5282
 6163TIP3    H118453   0.702   4.867   0.535  0.1478 -0.1618  0.0461
 6163TIP3    H218454   0.573   4.848   0.611 -0.5254  0.0815 -1.0179
 6164TIP3   OH218455   2.501   0.966   2.484 -0.5223  0.2206 -0.0295
 6164TIP3    H118456   2.482   0.929   2.570 -1.2131  1.8960  0.6005
 6164TIP3    H218457   2.596   0.960   2.475 -0.3958  0.4498  1.0722
 6165TIP3   OH218458   2.076   4.052   2.696 -0.4278  0.3797 -0.0064
 6165TIP3    H118459   2.115   3.970   2.667  0.3801  0.9236 -0.5196
 6165TIP3    H218460   2.130   4.079   2.770 -0.5635  0.5485  0.0326
 6166TIP3   OH218461   0.462   4.499   2.233  0.4407 -0.2322  0.4135
 6166TIP3    H118462   0.405   4.507   2.156  2.1824 -1.0313 -1.0221
 6166TIP3    H218463   0.471   4.589   2.264  1.0267  0.3792 -1.3607
 6167TIP3   OH218464   2.669   3.342   1.061  0.5344 -0.4710 -0.2426
 6167TIP3    H118465   2.747   3.322   1.010  0.2905  1.2669 -1.3446
 6167TIP3    H218466   2.596   3.310   1.008  0.3334  0.5531 -0.6043
 6168TIP3   OH218467   3.852   3.593   3.356 -0.7936  0.1164 -0.1087
 6168TIP3    H118468   3.892   3.541   3.426 -0.0416  1.2555  0.3254
 6168TIP3    H218469   3.759   3.573   3.362 -0.5743 -0.8843  0.2922
 6169TIP3   OH218470   3.131   3.366   5.605  0.1304 -0.7191  0.4422
 6169TIP3    H118471   3.168   3.453   5.616  0.7843 -0.4637 -2.6752
 6169TIP3    H218472   3.205   3.312   5.576 -0.9916 -1.2862 -1.5731
 6170TIP3   OH218473   3.327   5.941   4.062 -0.2575 -0.6872 -0.4103
 6170TIP3    H118474   3.268   5.879   4.106 -3.0475  1.3684 -0.9770
 6170TIP3    H218475   3.389   5.967   4.131 -1.2126 -1.4836  0.8089
 6171TIP3   OH218476   5.929   0.670   1.029  0.0716 -0.3132  0.1581
 6171TIP3    H118477   6.009   0.719   1.046  0.6463 -0.3437 -2.0929
 6171TIP3    H218478   5.922   0.609   1.102  1.1358  0.8764  1.2974
 6172TIP3   OH218479   2.900   1.869   4.305 -0.1625 -0.5899 -0.6464
 6172TIP3    H118480   2.981   1.857   4.355 -0.3743 -0.6239 -0.3072
 6172TIP3    H218481   2.894   1.964   4.291 -0.1674 -0.5667 -0.4928
 6173TIP3   OH218482   0.682   5.591   2.618 -0.1728  0.0562 -0.3532
 6173TIP3    H118483   0.650   5.670   2.574 -0.3556  2.0034  2.9572
 6173TIP3    H218484   0.766   5.573   2.576 -0.7948  1.0911 -2.1631
 6174TIP3   OH218485   2.733   0.120   3.999 -0.2396  0.3220  0.9698
 6174TIP3    H118486   2.812   0.173   3.992 -0.9719  1.2427 -1.4797
 6174TIP3    H218487   2.765   0.029   4.002  0.9275  0.7362  1.6977
 6175TIP3   OH218488   6.361   1.999   0.504  0.4673 -0.1573  0.3107
 6175TIP3    H118489   6.451   2.025   0.486  1.1306 -1.0849  2.0055
 6175TIP3    H218490   6.367   1.943   0.582 -1.5580 -0.3466  0.4002
 6176TIP3   OH218491   3.241   5.042   1.417 -0.1183 -0.4040 -0.1290
 6176TIP3    H118492   3.214   5.107   1.353  0.4357 -0.0380 -0.0019
 6176TIP3    H218493   3.333   5.062   1.434 -0.1863 -0.6651  0.5827
 6177TIP3   OH218494   2.740   2.028   2.857  0.0269 -0.4336  0.8670
 6177TIP3    H118495   2.705   2.078   2.930  0.6243 -0.2031  1.0089
 6177TIP3    H218496   2.811   2.083   2.823 -0.6236 -0.2667 -0.2581
 6178TIP3   OH218497   6.053   0.460   1.206 -0.1735  0.1949  0.4884
 6178TIP3    H118498   6.082   0.419   1.124  0.0382  1.9077 -0.3426
 6178TIP3    H218499   6.133   0.486   1.250 -0.3079 -0.1361  0.9363
 6179TIP3   OH218500   0.509   1.195   0.619 -0.0034 -0.3379  0.3337
 6179TIP3    H118501   0.491   1.102   0.633  0.4946 -0.3593  0.8632
 6179TIP3    H218502   0.489   1.209   0.526  1.5328 -1.3745 -0.1933
 6180TIP3   OH218503   7.091   6.674   1.352 -0.3268 -0.0126  0.0371
 6180TIP3    H118504   7.180   6.641   1.366 -0.6860 -1.3647 -0.6681
 6180TIP3    H218505   7.036   6.613   1.401 -0.9856 -0.2961 -1.0232
 6181TIP3   OH218506   5.161   5.980   1.692 -0.7568  0.9107  0.2269
 6181TIP3    H118507   5.112   5.981   1.609  0.7931 -0.3701 -0.7629
 6181TIP3    H218508   5.112   5.922   1.749 -1.1664  0.7888 -0.2469
 6182TIP3   OH218509   4.379   5.258   3.901  0.0305  0.1568 -0.5677
 6182TIP3    H118510   4.436   5.303   3.838 -1.3445  0.0830 -1.9076
 6182TIP3    H218511   4.428   5.179   3.925  1.7574  1.4780  0.5747
 6183TIP3   OH218512   5.443   6.115   4.347  0.2364  0.0175 -0.1599
 6183TIP3    H118513   5.499   6.186   4.313  0.9304 -0.4507 -0.0098
 6183TIP3    H218514   5.440   6.130   4.441  0.5150 -0.2472 -0.1094
 6184TIP3   OH218515   4.395   3.406   0.626 -0.2128  0.3354 -0.0814
 6184TIP3    H118516   4.482   3.399   0.664 -0.9301 -1.3806  1.3764
 6184TIP3    H218517   4.355   3.481   0.671 -0.5649 -0.8332  1.6709
 6185TIP3   OH218518   0.917   0.849   1.209 -0.3464 -0.0002 -0.4508
 6185TIP3    H118519   0.973   0.912   1.254  0.5705 -1.1860  0.1470
 6185TIP3    H218520   0.843   0.900   1.177 -0.7140  1.0142  1.8551
 6186TIP3   OH218521   7.003   4.317   4.628  0.1512 -0.2169  0.5925
 6186TIP3    H118522   6.956   4.254   4.681 -0.5478 -0.8062 -0.6838
 6186TIP3    H218523   7.029   4.268   4.550 -0.4843  1.0753 -0.4697
 6187TIP3   OH218524   2.418   2.308   3.656  0.5862  0.1943 -0.1266
 6187TIP3    H118525   2.482   2.371   3.691  1.4164  0.0368 -1.2901
 6187TIP3    H218526   2.462   2.269   3.581  0.0515 -1.7166  0.4950
 6188TIP3   OH218527   5.246   2.495   0.614 -0.9230 -0.4613  0.6445
 6188TIP3    H118528   5.243   2.506   0.709 -0.5270  1.7595  0.4709
 6188TIP3    H218529   5.178   2.553   0.581  1.2210  1.6258 -0.4998
 6189TIP3   OH218530   4.230   6.394   5.124 -0.5108 -0.3267 -0.3101
 6189TIP3    H118531   4.291   6.452   5.170 -2.0517  0.7962  0.3904
 6189TIP3    H218532   4.286   6.345   5.064  1.3759 -0.8032  1.6828
 6190TIP3   OH218533   2.845   5.184   3.391 -0.0849 -0.5099 -0.2272
 6190TIP3    H118534   2.892   5.114   3.347  1.2566  0.8732 -1.1340
 6190TIP3    H218535   2.753   5.171   3.367  0.5654  0.2175 -3.6349
 6191TIP3   OH218536   2.150   4.385   1.933  0.3989 -0.2416  0.1510
 6191TIP3    H118537   2.162   4.471   1.892 -1.4844 -0.3343 -0.6641
 6191TIP3    H218538   2.159   4.402   2.027  1.2605  0.6086 -0.0725
 6192TIP3   OH218539   2.123   0.776   0.133  0.3107  0.3374  0.0870
 6192TIP3    H118540   2.045   0.760   0.186  0.1815  0.0962 -0.1741
 6192TIP3    H218541   2.093   0.838   0.066 -0.2277 -1.3758 -1.3199
 6193TIP3   OH218542   2.294   4.677   4.129  0.5392  0.3654  0.2082
 6193TIP3    H118543   2.274   4.608   4.066 -0.1162  1.0884 -0.4060
 6193TIP3    H218544   2.213   4.688   4.179  0.1834  1.5325 -0.5528
 6194TIP3   OH218545   7.035   0.696   2.777 -0.2447  0.4986  0.0751
 6194TIP3    H118546   7.058   0.785   2.749  1.8046 -0.5365 -1.7885
 6194TIP3    H218547   7.109   0.668   2.831 -1.2953  0.1959  1.4288
 6195TIP3   OH218548   0.190   3.007   0.763  0.2937  0.2060 -0.2591
 6195TIP3    H118549   0.252   2.984   0.693  1.5150  0.0836  0.8093
 6195TIP3    H218550   0.242   3.000   0.843 -0.8560  1.0918  0.5985
 6196TIP3   OH218551   6.222   5.783   4.305 -0.3579 -0.2373  0.1786
 6196TIP3    H118552   6.252   5.760   4.217  0.8615  0.0507  0.4947
 6196TIP3    H218553   6.271   5.863   4.326 -1.5498  0.3990  0.6488
 6197TIP3   OH218554   3.817   2.313   5.030 -0.0983 -0.0530  0.2167
 6197TIP3    H118555   3.872   2.259   5.086 -0.2173 -0.5812 -0.1642
 6197TIP3    H218556   3.741   2.335   5.083  0.3770  0.5143  0.6792
 6198TIP3   OH218557   3.698   5.690   5.023 -0.3518 -0.1850  0.1548
 6198TIP3    H118558   3.674   5.761   5.082  1.2438 -0.9049  1.7440
 6198TIP3    H218559   3.788   5.669   5.045 -0.5847 -2.3095 -0.6701
 6199TIP3   OH218560   3.785   3.402   2.061  0.2351 -0.3912  0.3825
 6199TIP3    H118561   3.819   3.322   2.100  0.5486  0.0935  1.1376
 6199TIP3    H218562   3.831   3.473   2.107 -0.6944  0.2419  0.3677
 6200TIP3   OH218563   2.847   6.497   5.562  0.0321 -0.8674 -0.1128
 6200TIP3    H118564   2.800   6.522   5.482 -2.6220 -0.5475  1.4359
 6200TIP3    H218565   2.862   6.580   5.608 -0.0153 -1.2065  0.5225
 6201TIP3   OH218566   0.171   1.812   0.252  0.0401  0.2783  0.3438
 6201TIP3    H118567   0.077   1.800   0.239  0.1227  0.5799 -0.6261
 6201TIP3    H218568   0.177   1.873   0.326 -0.4706 -0.9718  1.4726
 6202TIP3   OH218569   5.891   1.050   4.592  0.1039 -0.2738  0.4786
 6202TIP3    H118570   5.923   0.988   4.526 -1.2445 -0.5978  0.1002
 6202TIP3    H218571   5.944   1.032   4.670  0.2951 -1.3240  0.1143
 6203TIP3   OH218572   2.473   1.617   3.868 -0.0745 -0.4496  0.0603
 6203TIP3    H118573   2.527   1.693   3.888  0.9903 -1.5169  1.4031
 6203TIP3    H218574   2.384   1.652   3.860  0.6216  1.1824 -1.1783
 6204TIP3   OH218575   7.023   5.316   3.531  0.1880 -0.0814  0.0984
 6204TIP3    H118576   7.034   5.254   3.459  3.2869  0.0297  0.3559
 6204TIP3    H218577   7.095   5.298   3.591 -1.2489  1.0222  2.3311
 6205TIP3   OH218578   4.456   1.512   5.135  0.0023 -0.1173 -0.0150
 6205TIP3    H118579   4.541   1.479   5.165  0.0431  0.7335  0.8384
 6205TIP3    H218580   4.401   1.513   5.213 -0.5897 -0.0080 -0.4237
 6206TIP3   OH218581   6.404   0.864   2.270  0.3203 -0.2195 -0.0580
 6206TIP3    H118582   6.346   0.932   2.304  1.3024 -0.7807  3.0195
 6206TIP3    H218583   6.399   0.794   2.335  2.8890 -1.1201 -0.7286
 6207TIP3   OH218584   0.222   1.927   3.035 -0.1823  0.1784 -0.3547
 6207TIP3    H118585   0.129   1.904   3.041 -0.1877 -0.1534 -1.4224
 6207TIP3    H218586   0.244   1.913   2.943  0.6629  1.2564 -0.3459
 6208TIP3   OH218587   1.175   5.760   4.124 -0.1564 -0.1201 -0.9396
 6208TIP3    H118588   1.084   5.732   4.120 -0.7692  1.4433  0.5868
 6208TIP3    H218589   1.218   5.693   4.176 -1.6124  1.4906  2.7273
 6209TIP3   OH218590   4.822   5.847   3.524 -0.0005  0.1495  0.0278
 6209TIP3    H118591   4.779   5.825   3.606  1.1582  0.3283  0.7013
 6209TIP3    H218592   4.845   5.762   3.485 -1.8326  0.0085 -0.8527
 6210TIP3   OH218593   5.707   0.689   1.688  0.3909  0.6163  0.5426
 6210TIP3    H118594   5.793   0.728   1.671  0.7975  0.2323  1.6830
 6210TIP3    H218595   5.672   0.739   1.762 -0.2528  0.5830  0.2682
 6211TIP3   OH218596   2.671   2.627   1.537  0.4493  0.9015  0.3788
 6211TIP3    H118597   2.682   2.648   1.444  0.4735  0.2913  0.2417
 6211TIP3    H218598   2.751   2.660   1.578 -0.1532  2.3948  0.4034
 6212TIP3   OH218599   0.203   1.014   5.090  0.5270  0.3181  0.2785
 6212TIP3    H118600   0.265   1.086   5.082 -0.7014  1.3333 -0.6278
 6212TIP3    H218601   0.249   0.948   5.141  2.0942  1.2905  0.1937
 6213TIP3   OH218602   2.231   6.229   3.358  0.2610 -0.2359  0.0763
 6213TIP3    H118603   2.260   6.182   3.280 -0.4944 -1.5824  0.5604
 6213TIP3    H218604   2.237   6.164   3.428 -3.1394 -0.4669  0.3492
 6214TIP3   OH218605   2.181   2.927   3.589 -0.1773 -0.2753  0.3148
 6214TIP3    H118606   2.209   2.839   3.612  0.9046 -0.3655 -1.1971
 6214TIP3    H218607   2.130   2.957   3.664  0.8912 -1.5265  1.5848
 6215TIP3   OH218608   7.216   6.106   3.887 -0.3396 -0.3731 -0.0187
 6215TIP3    H118609   7.202   6.083   3.795  0.2426 -0.5333 -0.0750
 6215TIP3    H218610   7.137   6.077   3.932 -0.5007 -0.5646 -0.4208
 6216TIP3   OH218611   4.192   4.498   5.047 -0.4336 -0.2226  0.2376
 6216TIP3    H118612   4.107   4.459   5.027 -1.5088  0.0162  3.6948
 6216TIP3    H218613   4.183   4.590   5.021  0.0709 -0.8537 -2.5141
 6217TIP3   OH218614   5.372   0.369   4.187 -0.4720  0.2157  0.1173
 6217TIP3    H118615   5.438   0.307   4.156  0.3007  0.5254  1.1032
 6217TIP3    H218616   5.340   0.411   4.107 -0.5066 -0.9437 -0.5004
 6218TIP3   OH218617   2.185   5.030   5.431  0.3625 -0.2301 -0.3786
 6218TIP3    H118618   2.156   4.956   5.484  1.1901  1.0996  2.1025
 6218TIP3    H218619   2.143   5.106   5.472 -2.0249  0.6485 -3.9705
 6219TIP3   OH218620   3.056   4.554   5.036 -0.0127 -0.3462  0.0356
 6219TIP3    H118621   2.997   4.509   4.976  0.5643  2.0627 -2.5528
 6219TIP3    H218622   3.143   4.534   5.003  0.2915  1.6079 -0.4828
 6220TIP3   OH218623   2.190   2.863   1.077  0.4901 -0.2518 -0.0643
 6220TIP3    H118624   2.108   2.893   1.116  0.6769  1.0699 -0.6520
 6220TIP3    H218625   2.180   2.879   0.983  1.2985 -0.3535 -0.1797
 6221TIP3   OH218626   5.062   4.427   1.507  0.3535 -0.2656 -0.0063
 6221TIP3    H118627   4.971   4.449   1.490  0.8973  0.5878 -2.2305
 6221TIP3    H218628   5.086   4.480   1.583 -0.3152  1.5478 -0.9976
 6222TIP3   OH218629   5.719   4.430   3.346 -0.0546  0.3637  0.2139
 6222TIP3    H118630   5.706   4.467   3.433 -1.5241 -2.5722  1.3656
 6222TIP3    H218631   5.814   4.420   3.339  0.2455  2.5333  0.5718
 6223TIP3   OH218632   6.040   3.104   4.612 -0.0484 -0.3026  0.2325
 6223TIP3    H118633   5.969   3.167   4.600 -1.1712 -2.0157 -3.7877
 6223TIP3    H218634   6.119   3.151   4.586 -0.4181  0.3012  0.1832
 6224TIP3   OH218635   1.520   3.471   4.541 -0.6378  0.4121 -0.3595
 6224TIP3    H118636   1.466   3.409   4.590  1.0792 -1.4069 -0.6381
 6224TIP3    H218637   1.561   3.525   4.609 -0.3720 -0.2910  0.0493
 6225TIP3   OH218638   0.181   5.779   4.660  0.2768  0.2144 -0.2257
 6225TIP3    H118639   0.243   5.735   4.602 -0.3939 -1.0140 -0.0626
 6225TIP3    H218640   0.214   5.763   4.748 -0.2699 -0.4906 -0.1353
 6226TIP3   OH218641   4.885   5.078   5.532 -0.2685  0.6790 -0.2087
 6226TIP3    H118642   4.876   5.027   5.613  0.0429 -1.7637 -1.6049
 6226TIP3    H218643   4.826   5.153   5.544 -2.4414 -1.1079  1.2010
 6227TIP3   OH218644  -0.007   1.531   1.207 -0.3995 -0.3086  0.0385
 6227TIP3    H118645  -0.010   1.612   1.156 -0.7159  0.0357  0.5977
 6227TIP3    H218646   0.031   1.467   1.147  0.9093  0.5156 -0.0453
 6228TIP3   OH218647   4.958   3.066   0.987 -0.0360 -0.2389  0.3732
 6228TIP3    H118648   5.035   3.113   0.954 -1.6006  3.1335  1.0670
 6228TIP3    H218649   4.885   3.099   0.934 -1.2251 -2.4730  0.4863
 6229TIP3   OH218650   5.725   2.016   0.504 -0.1193  0.0731 -0.2496
 6229TIP3    H118651   5.681   2.091   0.464 -0.3493  0.6389  1.0027
 6229TIP3    H218652   5.693   1.940   0.456 -1.7337  0.5675 -0.0088
 6230TIP3   OH218653   4.925   4.688   5.017  0.2134 -0.0131  0.1291
 6230TIP3    H118654   4.844   4.636   5.018 -0.0064  0.3169 -0.1508
 6230TIP3    H218655   4.919   4.740   4.936 -0.7512  2.2959  1.5670
 6231TIP3   OH218656   6.650   4.273   2.126 -0.1872 -0.0967 -0.3143
 6231TIP3    H118657   6.672   4.329   2.200  2.6668 -0.1372 -1.0242
 6231TIP3    H218658   6.624   4.190   2.166  0.5683  0.1241  0.6678
 6232TIP3   OH218659   5.794   3.453   1.695 -0.3697 -0.2633  0.0524
 6232TIP3    H118660   5.734   3.386   1.727  1.5668 -0.7806  3.0302
 6232TIP3    H218661   5.738   3.528   1.673 -2.1676 -0.8479  2.3095
 6233TIP3   OH218662   4.855   3.329   5.287  0.1280  0.5593 -0.4431
 6233TIP3    H118663   4.766   3.355   5.261 -1.5847 -1.2943  2.9102
 6233TIP3    H218664   4.860   3.236   5.265  0.7085  0.3218  0.6343
 6234TIP3   OH218665   6.964   1.971   4.033 -0.1898 -0.0952  0.7213
 6234TIP3    H118666   7.010   2.035   4.088 -0.9291  0.2218  0.9793
 6234TIP3    H218667   6.911   1.921   4.095 -1.0431  0.2752  0.2977
 6235TIP3   OH218668   4.800   3.781   0.783 -0.2649  0.2955  0.5857
 6235TIP3    H118669   4.777   3.829   0.863 -1.1971  0.0786  0.4564
 6235TIP3    H218670   4.807   3.849   0.716  3.3927  0.8777  1.3740
 6236TIP3   OH218671   1.745   2.203   1.780  0.1432 -0.3123  0.6478
 6236TIP3    H118672   1.732   2.290   1.742 -0.5385  0.2267  2.0637
 6236TIP3    H218673   1.755   2.145   1.704 -0.3258  0.8570 -0.3313
 6237TIP3   OH218674   5.357   2.351   3.610 -0.3809  0.5752  0.0450
 6237TIP3    H118675   5.306   2.428   3.634  0.0917  1.0624 -0.4820
 6237TIP3    H218676   5.401   2.375   3.528 -2.0382 -1.0530 -1.4282
 6238TIP3   OH218677   6.172   3.339   4.826 -0.3664  0.0404 -0.6253
 6238TIP3    H118678   6.218   3.272   4.877 -0.1007  0.6979  0.0149
 6238TIP3    H218679   6.080   3.313   4.830 -0.4374  0.4340  0.7670
 6239TIP3   OH218680   1.295   2.185   3.084 -0.2171 -0.0922  0.4203
 6239TIP3    H118681   1.362   2.155   3.145 -0.6422  0.1049  0.9920
 6239TIP3    H218682   1.213   2.150   3.119 -0.5059  0.2856  0.1298
 6240TIP3   OH218683   6.933   1.730   1.491  0.1248 -0.0681 -0.5324
 6240TIP3    H118684   6.922   1.636   1.475 -1.6998 -0.9196  4.1298
 6240TIP3    H218685   6.845   1.765   1.488  0.7935  1.6071 -2.2216
 6241TIP3   OH218686   4.251   4.866   0.802  0.2004 -0.3094  0.3837
 6241TIP3    H118687   4.261   4.798   0.736 -0.4073 -2.0266  1.9794
 6241TIP3    H218688   4.177   4.837   0.855  0.0362  1.5247  1.2460
 6242TIP3   OH218689   1.602   0.281   0.701 -0.2893  0.7169 -0.2423
 6242TIP3    H118690   1.628   0.263   0.792  0.2633 -0.8394 -0.6830
 6242TIP3    H218691   1.626   0.372   0.687  4.0382 -0.2206 -0.2252
 6243TIP3   OH218692   4.630   5.815   3.875  0.0028  0.0710  0.2810
 6243TIP3    H118693   4.721   5.830   3.901  0.2061 -0.9898  0.1939
 6243TIP3    H218694   4.585   5.790   3.956  0.2761 -1.5896 -0.0654
 6244TIP3   OH218695   3.428   2.756   0.844  0.0640  0.0819 -0.2071
 6244TIP3    H118696   3.464   2.841   0.819  0.5550 -0.3682 -1.1046
 6244TIP3    H218697   3.501   2.709   0.883  0.4769 -0.7746 -1.8827
 6245TIP3   OH218698   2.595   5.266   4.717  0.0077 -0.5166 -0.1730
 6245TIP3    H118699   2.518   5.217   4.747 -2.3891  2.3056 -1.2441
 6245TIP3    H218700   2.574   5.291   4.628  0.8051  2.8195  0.4523
 6246TIP3   OH218701   5.518   5.924   5.714 -0.4091  0.7292  0.5244
 6246TIP3    H118702   5.472   5.903   5.633 -1.1799 -3.9660  1.9144
 6246TIP3    H218703   5.457   5.979   5.763 -1.3207  0.8265 -0.6822
 6247TIP3   OH218704   5.612   5.506   3.336  0.3075  0.2687  0.4667
 6247TIP3    H118705   5.652   5.428   3.298  0.9133  0.2924  1.0310
 6247TIP3    H218706   5.586   5.559   3.261 -1.1874 -0.9876  0.0481
 6248TIP3   OH218707   4.016   4.448   5.346 -0.2191  0.1874 -0.1984
 6248TIP3    H118708   3.953   4.491   5.287  0.7714 -0.4920 -1.8260
 6248TIP3    H218709   4.032   4.363   5.306  0.3825 -0.3645  1.1692
 6249TIP3   OH218710   6.102   3.472   5.583 -0.0768 -0.0618  0.1920
 6249TIP3    H118711   6.061   3.459   5.669 -0.5038 -1.8888 -0.2319
 6249TIP3    H218712   6.167   3.402   5.577  0.0231  0.1110 -0.9333
 6250TIP3   OH218713   1.445   0.378   2.076  0.2916  0.1889  0.1684
 6250TIP3    H118714   1.375   0.381   2.141  1.3360 -0.3650  1.3499
 6250TIP3    H218715   1.449   0.467   2.042 -1.8344 -0.0675 -0.8786
 6251TIP3   OH218716   4.100   6.095   0.847  0.0445  0.2899  0.4374
 6251TIP3    H118717   4.172   6.037   0.821  1.7687  2.3126  0.4497
 6251TIP3    H218718   4.050   6.045   0.911 -0.1069 -2.1339 -1.4223
 6252TIP3   OH218719   6.175   4.392   2.516  1.0121 -0.1997  0.2688
 6252TIP3    H118720   6.195   4.479   2.551 -3.1699  1.2727 -0.4115
 6252TIP3    H218721   6.140   4.343   2.591  1.5809 -0.6460  0.2476
 6253TIP3   OH218722   3.173   5.359   2.157  0.3674 -0.1308 -0.4877
 6253TIP3    H118723   3.228   5.367   2.235 -1.5690  0.0577  0.9450
 6253TIP3    H218724   3.141   5.269   2.159 -1.6851  0.5437  0.4361
 6254TIP3   OH218725   3.967   4.689   1.649 -0.3967  0.2212 -0.0930
 6254TIP3    H118726   3.875   4.708   1.632 -0.3303  0.7981  0.1510
 6254TIP3    H218727   3.967   4.625   1.719 -0.5934  2.0149  1.6193
 6255TIP3   OH218728   6.678   5.264   0.058  0.6388  0.5556  0.5912
 6255TIP3    H118729   6.687   5.259  -0.037 -2.7845 -0.3962  0.2027
 6255TIP3    H218730   6.658   5.356   0.076  3.0890  1.1460  0.7105
 6256TIP3   OH218731   3.689   3.909   1.507  0.0994  0.1052 -0.4626
 6256TIP3    H118732   3.706   3.822   1.543 -0.6277 -0.1098 -0.6248
 6256TIP3    H218733   3.725   3.906   1.418 -0.4396 -0.2285 -0.6755
 6257TIP3   OH218734   5.118   3.925   3.101  0.0405 -0.8802 -0.0051
 6257TIP3    H118735   5.179   3.980   3.150 -0.5894  0.7952 -1.0238
 6257TIP3    H218736   5.171   3.887   3.031 -0.1863  1.2178 -1.3868
 6258TIP3   OH218737   3.101   6.533   0.353 -0.3545 -1.0842 -0.1257
 6258TIP3    H118738   3.039   6.602   0.327  0.7259 -0.1472 -0.3008
 6258TIP3    H218739   3.186   6.577   0.353  0.3519 -2.4142 -0.1638
 6259TIP3   OH218740   6.928   4.608   5.415  0.4330 -0.2819  0.0290
 6259TIP3    H118741   6.970   4.688   5.447  0.7952 -0.3509 -0.2719
 6259TIP3    H218742   6.850   4.599   5.470  0.8378 -0.1848  0.6332
 6260TIP3   OH218743   3.733   5.361   2.443 -0.4935 -1.2006  0.2980
 6260TIP3    H118744   3.826   5.366   2.420 -1.0921 -1.2079 -2.3216
 6260TIP3    H218745   3.733   5.357   2.539  2.1207  0.8471  0.4978
 6261TIP3   OH218746   5.975   6.236   0.935  0.1027  0.3730 -0.1990
 6261TIP3    H118747   5.962   6.159   0.879 -0.6670 -0.4125  0.9991
 6261TIP3    H218748   6.062   6.224   0.973  1.1657  1.5551 -2.1403
 6262TIP3   OH218749   1.252   0.866   2.294 -0.2836 -0.2995 -0.1570
 6262TIP3    H118750   1.346   0.852   2.299 -0.0084  0.8354 -1.6786
 6262TIP3    H218751   1.236   0.941   2.351 -0.4057 -0.9142  0.6509
 6263TIP3   OH218752   2.349   0.586   0.043  0.1467  0.6232  0.0198
 6263TIP3    H118753   2.282   0.655   0.041  0.2269  0.6912 -0.6230
 6263TIP3    H218754   2.431   0.634   0.056  0.1315  0.5906  0.2347
 6264TIP3   OH218755   3.492   0.593   5.302  0.3563  0.0603  0.3352
 6264TIP3    H118756   3.554   0.533   5.344  1.2988  1.3340  0.8114
 6264TIP3    H218757   3.454   0.643   5.374  0.0831  0.5037 -0.1148
 6265TIP3   OH218758   0.209   3.012   2.553 -0.0470  0.3750  0.4290
 6265TIP3    H118759   0.198   3.083   2.490  0.2195 -0.2505 -0.3273
 6265TIP3    H218760   0.177   2.935   2.508  0.6829 -0.1823  0.8445
 6266TIP3   OH218761   1.697   4.458   3.873  0.0509 -0.5096 -0.4207
 6266TIP3    H118762   1.642   4.380   3.875 -3.1626  1.5786  0.8350
 6266TIP3    H218763   1.679   4.499   3.789 -2.8708  1.6764  1.0940
 6267TIP3   OH218764   4.367   4.793   2.652 -0.0001 -0.0630  0.6078
 6267TIP3    H118765   4.313   4.812   2.575 -0.2121 -2.2813  0.1494
 6267TIP3    H218766   4.384   4.879   2.691 -2.7897  0.8327  0.0759
 6268TIP3   OH218767   4.548   0.179   5.387 -0.0030 -0.4904 -0.1152
 6268TIP3    H118768   4.494   0.107   5.355  0.4679 -0.8076 -0.2034
 6268TIP3    H218769   4.491   0.227   5.447 -0.0150 -1.5112  0.7168
 6269TIP3   OH218770   6.463   4.386   4.162 -0.0348 -0.3348  0.5215
 6269TIP3    H118771   6.495   4.326   4.229 -1.2458 -0.7919  0.7130
 6269TIP3    H218772   6.375   4.410   4.191 -0.8073 -0.9948 -1.1774
 6270TIP3   OH218773   4.627   5.416   3.331  0.3723 -0.1730  0.2716
 6270TIP3    H118774   4.622   5.474   3.255  0.2278  0.6023  0.8601
 6270TIP3    H218775   4.571   5.457   3.396 -0.1392 -1.2500  0.5301
 6271TIP3   OH218776   3.449   4.463  -0.018  0.8710  0.3458 -0.3947
 6271TIP3    H118777   3.430   4.530   0.046  0.7511  0.7343 -0.8310
 6271TIP3    H218778   3.530   4.421   0.013  2.7344  2.7312 -1.6912
 6272TIP3   OH218779   2.743   1.825   1.512  0.4361  0.0556 -0.2780
 6272TIP3    H118780   2.721   1.861   1.426 -0.8681  1.3869  0.5640
 6272TIP3    H218781   2.811   1.883   1.545  1.5026 -0.9134 -0.6821
 6273TIP3   OH218782   6.190   0.096   4.116 -0.2476  0.4000 -0.4973
 6273TIP3    H118783   6.283   0.079   4.130 -0.5089 -0.7279 -0.0242
 6273TIP3    H218784   6.158   0.018   4.071 -0.9471  0.8115 -0.7226
 6274TIP3   OH218785   7.105   1.918   4.291 -0.1930 -0.1874 -0.5292
 6274TIP3    H118786   7.104   1.857   4.365  3.0618  0.0726 -0.1152
 6274TIP3    H218787   7.169   1.881   4.231 -0.0923  1.4844 -1.5035
 6275TIP3   OH218788   7.124   0.399   0.096  0.1960 -0.6165  0.2541
 6275TIP3    H118789   7.105   0.371   0.006  0.1395 -0.7754  0.3151
 6275TIP3    H218790   7.193   0.465   0.086 -2.2890  2.1732 -0.2517
 6276TIP3   OH218791   1.311   3.226   2.305 -0.1969  0.2823  0.2247
 6276TIP3    H118792   1.237   3.185   2.260 -1.3528  1.6144  0.8393
 6276TIP3    H218793   1.282   3.315   2.324  1.4559  0.7451  0.7844
 6277TIP3   OH218794   3.718   1.482   3.816 -0.7539  0.4805 -0.3303
 6277TIP3    H118795   3.662   1.525   3.751 -1.0847 -0.0424 -0.3976
 6277TIP3    H218796   3.678   1.396   3.829 -0.3086  0.3299  0.0734
 6278TIP3   OH218797   6.440   1.852   1.658  0.4414  0.6228  0.1555
 6278TIP3    H118798   6.515   1.890   1.703  2.0391 -0.4873 -1.4700
 6278TIP3    H218799   6.445   1.758   1.676 -0.1021  0.4386 -0.6060
 6279TIP3   OH218800   2.384   6.664   3.366  0.1557 -0.4017  0.0010
 6279TIP3    H118801   2.376   6.688   3.459 -0.2828  0.0847 -0.1565
 6279TIP3    H218802   2.444   6.729   3.330  0.1802 -0.4793 -0.0973
 6280TIP3   OH218803   2.762   2.917   4.190  0.4262 -0.4415 -0.0326
 6280TIP3    H118804   2.727   2.829   4.172  1.0932 -0.4421 -1.4936
 6280TIP3    H218805   2.734   2.969   4.115  0.2502  0.5478  0.7083
 6281TIP3   OH218806   4.974   3.917   2.069  0.2106 -0.4321  0.1898
 6281TIP3    H118807   4.978   3.841   2.011 -1.0707 -0.8373  0.6081
 6281TIP3    H218808   4.926   3.983   2.020 -2.2312 -1.2959  1.2972
 6282TIP3   OH218809   1.379   0.302   2.856 -0.2583  0.2731 -0.2041
 6282TIP3    H118810   1.288   0.321   2.878 -0.2699 -0.4193  0.3598
 6282TIP3    H218811   1.401   0.224   2.907  0.5120  0.1642 -0.6840
 6283TIP3   OH218812   5.287   0.509   2.384  0.7576 -0.6711  0.2262
 6283TIP3    H118813   5.292   0.485   2.291 -3.0669  0.2766 -0.3949
 6283TIP3    H218814   5.335   0.591   2.390  0.8041 -0.5921 -1.0019
 6284TIP3   OH218815   3.015   4.818   5.148 -0.5761 -0.4269  0.3375
 6284TIP3    H118816   3.056   4.743   5.105 -1.1422  0.5710 -2.1156
 6284TIP3    H218817   2.935   4.833   5.098 -0.4756  1.8019  0.7614
 6285TIP3   OH218818   6.984   5.073   5.510  0.2128 -0.1728  0.3431
 6285TIP3    H118819   6.948   5.099   5.425  2.4664 -0.9601 -0.9510
 6285TIP3    H218820   6.938   4.992   5.532 -1.2215  0.6515  0.4995
 6286TIP3   OH218821   4.306   3.893   3.836  0.2994  0.0195 -0.2426
 6286TIP3    H118822   4.312   3.977   3.790  0.1495 -0.1180 -0.5131
 6286TIP3    H218823   4.397   3.872   3.859  0.2404  0.7580  0.7410
 6287TIP3   OH218824   6.801   4.893   0.283 -0.0933  0.1496  0.3628
 6287TIP3    H118825   6.766   4.932   0.363 -1.1797  0.6055 -0.3135
 6287TIP3    H218826   6.874   4.839   0.312 -0.1740  0.6871  1.6052
 6288TIP3   OH218827   3.903   3.906   3.534  0.4364 -0.3443  0.5047
 6288TIP3    H118828   3.909   3.998   3.561  3.0352 -0.4948  0.6992
 6288TIP3    H218829   3.993   3.873   3.541 -0.0574 -2.3646 -1.5279
 6289TIP3   OH218830   3.611   5.849   4.626 -0.4758  0.0049  0.1902
 6289TIP3    H118831   3.555   5.916   4.665 -1.7628  0.0561 -1.6012
 6289TIP3    H218832   3.621   5.876   4.535  2.8817  0.2106  0.4832
 6290TIP3   OH218833   2.610   3.472   3.398  0.4228  0.1535  0.1818
 6290TIP3    H118834   2.612   3.447   3.306 -2.8744  0.7628 -0.1789
 6290TIP3    H218835   2.609   3.568   3.397 -1.5227  0.1802  0.6751
 6291TIP3   OH218836   4.675   3.739   4.156 -0.0286  0.0662 -0.6214
 6291TIP3    H118837   4.608   3.683   4.195  0.1533 -0.4142 -0.9889
 6291TIP3    H218838   4.749   3.681   4.142  1.0541  0.9217  1.2238
 6292TIP3   OH218839   0.837   3.144   4.554  0.2497  0.0851  0.2648
 6292TIP3    H118840   0.801   3.165   4.468  0.6843  0.2719  0.1259
 6292TIP3    H218841   0.897   3.217   4.574 -0.9974  0.8390  1.4106
 6293TIP3   OH218842   5.876   6.659   0.403  0.0688 -0.7063 -0.2796
 6293TIP3    H118843   5.889   6.710   0.324  0.3893 -2.2730 -1.2846
 6293TIP3    H218844   5.848   6.573   0.372 -1.8766 -0.7474  1.4039
 6294TIP3   OH218845   3.864   3.701   3.863 -0.4594  0.0337  0.2006
 6294TIP3    H118846   3.944   3.716   3.812 -0.5481 -1.8615 -0.6124
 6294TIP3    H218847   3.794   3.698   3.798 -1.0032  0.3230  0.7584
 6295TIP3   OH218848   0.205   6.448   4.711 -0.3207  0.6722  0.7062
 6295TIP3    H118849   0.241   6.452   4.800  0.3337 -1.6470  0.6051
 6295TIP3    H218850   0.280   6.427   4.656 -1.0368  0.3098 -0.1527
 6296TIP3   OH218851   1.161  -0.008   0.159 -0.0565 -0.0676 -0.5411
 6296TIP3    H118852   1.198   0.056   0.098 -0.4190 -0.1054 -0.8068
 6296TIP3    H218853   1.075  -0.030   0.121 -0.5563  0.3658  0.3012
 6297TIP3   OH218854   2.226   0.487   5.298 -0.4044 -0.0885 -0.1663
 6297TIP3    H118855   2.158   0.511   5.234  1.3978  0.4609 -1.9818
 6297TIP3    H218856   2.280   0.423   5.252  1.2867  0.7576  0.5935
 6298TIP3   OH218857   1.176   2.844   2.699 -0.2396  0.3807 -0.2817
 6298TIP3    H118858   1.229   2.905   2.646  1.0521 -0.8301 -0.4466
 6298TIP3    H218859   1.240   2.802   2.757 -0.9250 -1.5411 -0.8605
 6299TIP3   OH218860   3.210   6.728   1.792 -0.4009  0.4634 -0.2944
 6299TIP3    H118861   3.162   6.657   1.750  0.4293 -1.4683  1.8082
 6299TIP3    H218862   3.209   6.799   1.728 -0.9153 -1.5573 -2.6715
 6300TIP3   OH218863   4.369   1.682   1.350  0.4991 -0.1352  0.3975
 6300TIP3    H118864   4.383   1.644   1.437 -0.9705 -0.7980  0.3724
 6300TIP3    H218865   4.347   1.607   1.294 -0.1067  0.4686 -0.1919
 6301TIP3   OH218866   1.488   4.715   5.449  0.1620 -0.4746 -0.1850
 6301TIP3    H118867   1.512   4.671   5.531  1.1510 -1.5636 -1.0313
 6301TIP3    H218868   1.516   4.654   5.380 -0.3039  0.5938 -1.3476
 6302TIP3   OH218869   5.370   1.906   3.457 -0.1307 -0.1346  0.5942
 6302TIP3    H118870   5.355   1.964   3.532 -1.2511  1.8766 -1.0999
 6302TIP3    H218871   5.357   1.961   3.380  0.9194 -2.1397 -1.1305
 6303TIP3   OH218872   4.753   3.843   4.857  0.2409 -0.0265  1.0104
 6303TIP3    H118873   4.736   3.754   4.826  0.6784  0.5019 -0.8545
 6303TIP3    H218874   4.847   3.855   4.845  0.0953  0.8691  0.7279
 6304TIP3   OH218875   3.506   0.974   0.140  0.4286 -0.8847 -0.3644
 6304TIP3    H118876   3.528   0.959   0.232  0.9407 -0.0392 -0.3329
 6304TIP3    H218877   3.504   0.887   0.101 -1.3035 -1.3903  0.7591
 6305TIP3   OH218878   0.134   3.153   3.972  0.6234  0.2951 -0.1648
 6305TIP3    H118879   0.039   3.152   3.957  0.7045 -0.2907 -0.6772
 6305TIP3    H218880   0.170   3.104   3.898  1.1734 -1.2490  1.0591
 6306TIP3   OH218881   6.540   3.343   3.901 -0.0647 -0.3543 -0.0449
 6306TIP3    H118882   6.587   3.287   3.962  1.7736  1.0957 -0.0346
 6306TIP3    H218883   6.476   3.390   3.956 -0.8570 -1.5698  0.1190
 6307TIP3   OH218884   4.132   4.801   3.571  0.0145  0.4484 -0.3231
 6307TIP3    H118885   4.197   4.779   3.638  0.6518 -0.9038 -1.3351
 6307TIP3    H218886   4.047   4.791   3.615  0.3798 -1.4594  0.0454
 6308TIP3   OH218887   6.756   5.133   1.474 -0.3308 -0.1212  0.6405
 6308TIP3    H118888   6.840   5.139   1.430 -0.2695  1.1988  0.8985
 6308TIP3    H218889   6.752   5.043   1.505  1.8824  0.2773  2.3491
 6309TIP3   OH218890   1.625   1.011   3.428  0.2926 -0.0161 -0.2758
 6309TIP3    H118891   1.719   1.002   3.415  0.6160  1.0105  1.1312
 6309TIP3    H218892   1.599   0.934   3.477  0.8535  0.7947  1.3559
 6310TIP3   OH218893   3.690   4.817   4.226 -0.6937  0.5490 -0.3546
 6310TIP3    H118894   3.656   4.907   4.226 -1.4123  0.3545  1.8321
 6310TIP3    H218895   3.641   4.772   4.157 -1.7567  1.3715 -0.1623
 6311TIP3   OH218896   1.265   6.503   1.627 -0.4866 -0.2888 -0.3664
 6311TIP3    H118897   1.181   6.517   1.670 -0.5997 -2.4016  0.2157
 6311TIP3    H218898   1.242   6.484   1.536 -0.6777 -0.9112 -0.1987
 6312TIP3   OH218899   6.850   3.627   1.598 -0.2900  1.2180 -0.1910
 6312TIP3    H118900   6.871   3.546   1.552 -1.3864  0.6181  0.3326
 6312TIP3    H218901   6.935   3.658   1.632  0.1859  0.4840 -0.6761
 6313TIP3   OH218902   5.558   2.248   3.764  0.6298 -0.3968 -0.1908
 6313TIP3    H118903   5.494   2.297   3.712  0.7659  1.1808  1.0422
 6313TIP3    H218904   5.630   2.230   3.704  0.5080  0.8246 -0.7326
 6314TIP3   OH218905   5.836   4.542   4.592  0.0498  0.3554 -0.0956
 6314TIP3    H118906   5.783   4.603   4.644  1.3551 -0.1981  2.0006
 6314TIP3    H218907   5.839   4.462   4.644 -0.4188 -1.0682 -2.1159
 6315TIP3   OH218908   3.095   4.162   3.463 -0.8513  0.2806 -0.1177
 6315TIP3    H118909   3.086   4.106   3.540 -2.8017  1.4577  0.5759
 6315TIP3    H218910   3.114   4.248   3.497 -1.6754  0.8082 -0.9227
 6316TIP3   OH218911   2.278   3.128   4.431 -0.2623 -0.5437  0.1271
 6316TIP3    H118912   2.316   3.092   4.351  0.7050 -0.2302  0.4312
 6316TIP3    H218913   2.223   3.201   4.401 -0.0710 -0.5580 -0.2611
 6317TIP3   OH218914   6.066   2.560   4.446  0.0616  0.0945  0.6243
 6317TIP3    H118915   6.112   2.560   4.363 -3.6604  4.1219 -1.8791
 6317TIP3    H218916   6.099   2.638   4.492  0.8801 -1.1537  2.2642
 6318TIP3   OH218917   3.609   0.998   2.698 -0.1380 -0.2525  0.3442
 6318TIP3    H118918   3.694   0.972   2.733 -0.4995 -0.2643  1.2597
 6318TIP3    H218919   3.616   0.985   2.604 -0.0695 -3.1008  0.6539
 6319TIP3   OH218920   5.947   2.014   2.372 -0.0264  0.3262 -0.0006
 6319TIP3    H118921   5.985   1.996   2.286  1.0121 -1.7193  0.8296
 6319TIP3    H218922   5.853   1.998   2.360 -0.1293  1.5091 -1.0711
 6320TIP3   OH218923   4.761   1.341   0.735 -0.2541 -0.4845  0.3329
 6320TIP3    H118924   4.667   1.354   0.748 -0.4767  1.3347 -2.1887
 6320TIP3    H218925   4.770   1.320   0.642  1.8049 -1.3163  0.6527
 6321TIP3   OH218926   6.487   2.190   5.159 -0.4257 -0.1342 -0.4277
 6321TIP3    H118927   6.463   2.124   5.094 -0.0496  0.1099 -0.8287
 6321TIP3    H218928   6.417   2.187   5.224  0.2472 -1.8426  0.2762
 6322TIP3   OH218929   3.396   1.411   1.503  0.5194  0.4991  0.5581
 6322TIP3    H118930   3.437   1.399   1.588  0.0962 -2.0959  0.4758
 6322TIP3    H218931   3.338   1.335   1.492 -1.2579  1.9487 -1.0528
 6323TIP3   OH218932   5.124   2.268   5.282  0.0009  0.5881 -0.3957
 6323TIP3    H118933   5.214   2.235   5.290 -0.8112 -1.3484  2.1355
 6323TIP3    H218934   5.110   2.276   5.188  2.4274 -0.1555 -0.9038
 6324TIP3   OH218935   5.437   2.417   5.105 -0.0686  0.4616  0.4651
 6324TIP3    H118936   5.432   2.352   5.175  2.3931  0.3174  0.5959
 6324TIP3    H218937   5.435   2.366   5.024 -0.6939  0.4408  0.4933
 6325TIP3   OH218938   0.817   2.991   0.288 -0.3564 -0.1738  0.0653
 6325TIP3    H118939   0.815   2.996   0.383  0.9163  0.2862  0.0765
 6325TIP3    H218940   0.841   2.900   0.269 -1.0977 -0.4000  0.1586
 6326TIP3   OH218941   5.905   1.402   2.406 -0.1636  0.1256  0.5705
 6326TIP3    H118942   5.990   1.382   2.444 -0.2703 -1.4292  0.0394
 6326TIP3    H218943   5.849   1.329   2.432 -1.2848  1.0012  0.6999
 6327TIP3   OH218944   4.704   0.269   0.264 -0.4903 -0.0201  0.1168
 6327TIP3    H118945   4.734   0.247   0.353  1.7120  1.4527 -0.1788
 6327TIP3    H218946   4.652   0.348   0.275  0.2738  0.5054  0.0776
 6328TIP3   OH218947   1.137   4.786   1.907 -0.2219 -0.7521 -0.0254
 6328TIP3    H118948   1.174   4.721   1.847 -0.3757 -0.8001 -0.0697
 6328TIP3    H218949   1.111   4.736   1.984  1.8625 -0.3992  0.9579
 6329TIP3   OH218950   3.283   3.561   2.806  0.3358  0.1223  0.2312
 6329TIP3    H118951   3.372   3.528   2.817 -0.0719 -0.7952  0.9248
 6329TIP3    H218952   3.237   3.532   2.885 -0.4778  0.9368  0.0743
 6330TIP3   OH218953   2.691   4.907   1.353  0.4767  0.4744  0.1053
 6330TIP3    H118954   2.736   4.900   1.269  1.3800  0.5048  0.5809
 6330TIP3    H218955   2.761   4.918   1.417 -0.2708  1.7453  0.7235
 6331TIP3   OH218956   2.932   2.775   5.806 -0.2888 -0.4809 -0.8309
 6331TIP3    H118957   2.972   2.862   5.806 -0.6087 -0.3244 -1.4436
 6331TIP3    H218958   2.838   2.792   5.814 -0.2623 -0.8410  0.4850
 6332TIP3   OH218959   1.088   3.243   4.539  0.6032 -0.0798  0.3177
 6332TIP3    H118960   1.090   3.154   4.575 -0.5876 -0.7398 -1.1513
 6332TIP3    H218961   1.108   3.232   4.446  1.7946  1.3670  0.3719
 6333TIP3   OH218962   2.463   4.818   0.666  0.2914  0.2255  0.4802
 6333TIP3    H118963   2.521   4.835   0.592 -1.2651  0.7692 -0.6856
 6333TIP3    H218964   2.521   4.799   0.739  1.9389  1.6559 -0.3910
 6334TIP3   OH218965   1.366   3.255   5.207 -0.5198 -0.4902  0.0148
 6334TIP3    H118966   1.397   3.169   5.177 -0.8435 -0.6893  0.2376
 6334TIP3    H218967   1.443   3.298   5.244 -0.3318 -0.6410 -0.2018
 6335TIP3   OH218968   3.731   5.823   0.527 -0.4035  0.0928  0.0153
 6335TIP3    H118969   3.793   5.827   0.454  0.3966  1.6119  0.7418
 6335TIP3    H218970   3.699   5.912   0.537 -1.6150 -0.3867  0.6059
 6336TIP3   OH218971   2.935   4.762   4.448 -0.0378 -0.1617 -0.1343
 6336TIP3    H118972   2.896   4.751   4.535 -2.7619  0.0047 -1.2439
 6336TIP3    H218973   3.022   4.798   4.465 -0.2092 -0.8035  2.5277
 6337TIP3   OH218974   3.792   1.088   0.681  0.5694  0.2089 -0.4969
 6337TIP3    H118975   3.839   1.079   0.764 -2.1606 -0.7922  1.0682
 6337TIP3    H218976   3.786   1.182   0.667 -1.2599  0.5495  1.9709
 6338TIP3   OH218977   7.009   5.088   3.363 -0.0003 -0.4712  0.2323
 6338TIP3    H118978   6.917   5.065   3.374 -0.0765  0.7383  2.7973
 6338TIP3    H218979   7.023   5.085   3.268 -3.2345  1.4420 -0.4563
 6339TIP3   OH218980   6.612   5.268   0.334 -0.4151  0.0773 -0.0851
 6339TIP3    H118981   6.626   5.230   0.247  0.0491 -0.3965  0.1881
 6339TIP3    H218982   6.524   5.305   0.331 -1.4707 -2.2442  0.0744
 6340TIP3   OH218983   1.607   4.729   0.439 -0.2537  0.3375  0.1949
 6340TIP3    H118984   1.699   4.712   0.457 -0.7675 -1.1235  1.7398
 6340TIP3    H218985   1.590   4.814   0.478  0.3348  0.3955  0.3336
 6341TIP3   OH218986   3.533   5.519   5.202 -0.3264 -0.0978 -0.2461
 6341TIP3    H118987   3.581   5.546   5.123  1.2416 -1.8703  0.0231
 6341TIP3    H218988   3.595   5.533   5.273 -1.3378  0.4477  0.5466
 6342TIP3   OH218989   6.965   3.177   4.944 -1.2212  0.2117 -0.2579
 6342TIP3    H118990   7.052   3.211   4.926 -0.2387 -0.3228  2.8885
 6342TIP3    H218991   6.908   3.221   4.880  1.3306  0.2486 -2.7036
 6343TIP3   OH218992   5.516   0.102   5.840 -0.7794  0.7434 -0.2161
 6343TIP3    H118993   5.449   0.131   5.902  0.5811  1.6890  0.8731
 6343TIP3    H218994   5.580   0.056   5.893 -0.2450  0.3887 -1.1400
 6344TIP3   OH218995   4.606   1.069   1.927 -0.6061 -0.2047 -0.2309
 6344TIP3    H118996   4.605   1.119   2.009  0.8988  2.1779 -1.5567
 6344TIP3    H218997   4.694   1.081   1.893 -1.6422  0.2316 -2.9804
 6345TIP3   OH218998   0.107   1.378   4.484 -0.2064 -0.5073 -0.3809
 6345TIP3    H118999   0.161   1.308   4.446  0.6343 -0.8647  1.3315
 6345TIP3    H219000   0.156   1.458   4.466  1.0582 -0.8376  1.2549
 6346TIP3   OH219001   2.719   2.417   4.045 -0.8016 -0.1788 -0.4358
 6346TIP3    H119002   2.679   2.410   4.131  0.8325 -0.4602  0.3264
 6346TIP3    H219003   2.765   2.501   4.046  0.2585 -0.7410 -0.5668
 6347TIP3   OH219004   4.901   5.253   5.839 -0.2525  0.3276  0.2460
 6347TIP3    H119005   4.990   5.287   5.830  0.0937 -0.5135  0.4165
 6347TIP3    H219006   4.855   5.320   5.889  1.1974 -0.7155  3.1796
 6348TIP3   OH219007   6.348   0.328   2.086  0.6524 -0.3929 -0.5396
 6348TIP3    H119008   6.308   0.329   1.999  0.0447 -2.7417 -0.3460
 6348TIP3    H219009   6.279   0.358   2.144 -0.1529 -2.2085 -0.4913
 6349TIP3   OH219010   1.478   4.988   4.879  0.0718 -0.3667  0.1470
 6349TIP3    H119011   1.535   5.063   4.893 -0.2251 -0.0363 -0.3895
 6349TIP3    H219012   1.479   4.941   4.963  2.5849 -1.4024 -0.3494
 6350TIP3   OH219013   4.896   0.066   0.925 -0.4902  0.1853 -0.2438
 6350TIP3    H119014   4.909  -0.012   0.979  1.2882  0.9032  0.4469
 6350TIP3    H219015   4.905   0.034   0.835  3.1540 -0.0759  0.0493
 6351TIP3   OH219016   1.989   6.437   5.003  0.2826  0.1370  0.1550
 6351TIP3    H119017   1.956   6.428   4.914  0.8057  2.5988 -0.3719
 6351TIP3    H219018   2.080   6.464   4.992  0.6984 -0.6785  1.4682
 6352TIP3   OH219019   6.530   6.274   3.214  0.0235  0.3142  0.0281
 6352TIP3    H119020   6.557   6.270   3.122  1.6548 -0.7439  0.5052
 6352TIP3    H219021   6.572   6.199   3.255 -2.8418 -0.8125  1.1530
 6353TIP3   OH219022   4.164   3.039   1.003 -0.7088  0.0392  0.3775
 6353TIP3    H119023   4.254   3.016   0.982 -0.5999 -0.1334  1.0065
 6353TIP3    H219024   4.156   3.022   1.097 -1.3993  0.0419  0.3262
 6354TIP3   OH219025   2.269   6.629   0.490 -0.1230 -0.3143 -0.7489
 6354TIP3    H119026   2.313   6.584   0.562  0.4190  0.2268 -0.7370
 6354TIP3    H219027   2.334   6.632   0.419 -0.4336 -0.2735 -1.0370
 6355TIP3   OH219028   6.910   0.447   0.232  0.4220  0.1651 -0.0248
 6355TIP3    H119029   6.990   0.452   0.180  0.4112 -0.7867 -0.1520
 6355TIP3    H219030   6.918   0.364   0.280 -1.3027 -0.9136 -1.4427
 6356TIP3   OH219031   1.103   5.474   0.515 -0.0387  0.2476  0.2359
 6356TIP3    H119032   1.063   5.455   0.600 -1.8141 -1.6916 -0.9161
 6356TIP3    H219033   1.196   5.460   0.528 -0.3523 -0.6765  1.7060
 6357TIP3   OH219034   5.820   6.488   2.878 -0.4454 -0.1394 -0.5097
 6357TIP3    H119035   5.812   6.417   2.815 -1.3529  0.0598 -0.6272
 6357TIP3    H219036   5.812   6.568   2.826  2.0935  0.1389 -0.6269
 6358TIP3   OH219037   6.172   6.604   1.284  0.6379 -0.0736  0.5182
 6358TIP3    H119038   6.227   6.634   1.356  0.9722  0.5198  0.0280
 6358TIP3    H219039   6.111   6.676   1.269  0.4218 -0.2890  0.3608
 6359TIP3   OH219040   4.684   2.873   5.615 -0.2365  1.0620 -0.5883
 6359TIP3    H119041   4.643   2.901   5.533 -0.3225  1.5939 -0.3697
 6359TIP3    H219042   4.767   2.833   5.588 -0.7684  0.2184 -1.0137
 6360TIP3   OH219043   3.641   3.747   4.480  1.0178 -0.3404  0.3169
 6360TIP3    H119044   3.559   3.741   4.432  0.2927 -1.8099  1.6615
 6360TIP3    H219045   3.678   3.659   4.475  2.4131  0.2394 -0.0572
 6361TIP3   OH219046   3.130   5.094   2.159 -0.2822 -0.2579 -0.3060
 6361TIP3    H119047   3.059   5.033   2.140 -0.4131 -0.0530 -0.4762
 6361TIP3    H219048   3.209   5.049   2.126 -0.4732 -0.0155 -1.1233
 6362TIP3   OH219049   1.958   4.729   4.849  0.6513  0.1733 -0.1712
 6362TIP3    H119050   1.909   4.799   4.807 -2.4851 -1.6650  0.1527
 6362TIP3    H219051   1.989   4.674   4.777 -2.3048 -1.4389 -0.3328
 6363TIP3   OH219052   0.376   6.760   3.196 -0.0692 -0.3298 -0.4934
 6363TIP3    H119053   0.468   6.759   3.222 -0.2728  2.2194  0.5751
 6363TIP3    H219054   0.350   6.852   3.201 -2.6097 -0.9297 -1.0664
 6364TIP3   OH219055   3.000   3.759   3.157 -0.1070 -0.1408 -0.5316
 6364TIP3    H119056   3.002   3.672   3.196 -0.4049  0.3661  0.6639
 6364TIP3    H219057   3.092   3.787   3.155 -0.1008 -0.1046  0.0029
 6365TIP3   OH219058   2.681   1.283   2.153  0.2440 -0.2037  0.0227
 6365TIP3    H119059   2.747   1.281   2.223  1.8621  0.1472 -1.4281
 6365TIP3    H219060   2.688   1.371   2.116 -1.1570 -0.1150 -0.0805
 6366TIP3   OH219061   6.048   0.300   4.006 -0.0596 -0.1238  0.0249
 6366TIP3    H119062   6.075   0.223   4.056 -0.5083  1.3919  2.8707
 6366TIP3    H219063   6.012   0.359   4.073 -0.9190  2.0260 -2.2039
 6367TIP3   OH219064   0.209   4.333   0.695 -0.5130  0.6562 -0.3423
 6367TIP3    H119065   0.121   4.304   0.669 -0.5870  0.8785 -0.3386
 6367TIP3    H219066   0.223   4.415   0.647 -0.7764  1.2351  0.5566
 6368TIP3   OH219067   2.983   1.949   1.401 -0.2428  0.7302 -0.2434
 6368TIP3    H119068   2.935   2.025   1.368 -0.6929 -0.1936 -1.8720
 6368TIP3    H219069   2.933   1.874   1.368  1.2449 -0.2622 -0.3267
 6369TIP3   OH219070   0.759   4.668   3.710  0.4004  0.2672  0.2037
 6369TIP3    H119071   0.671   4.635   3.726  0.5767  0.0711  0.8329
 6369TIP3    H219072   0.809   4.591   3.683  0.2768  0.4616 -0.5777
 6370TIP3   OH219073   0.447   3.175   0.368 -0.8910 -0.1053 -0.0979
 6370TIP3    H119074   0.488   3.214   0.291  0.9059 -0.1377  0.8015
 6370TIP3    H219075   0.423   3.087   0.340 -0.3202 -0.0969 -0.6493
 6371TIP3   OH219076   2.474   3.914   4.921  0.0174  0.1436  0.4427
 6371TIP3    H119077   2.548   3.875   4.969 -0.9665 -0.1885  1.7656
 6371TIP3    H219078   2.509   3.996   4.886  1.3788 -0.6246 -0.0935
 6372TIP3   OH219079   3.317   2.532   1.307  0.2808  0.6037 -1.0428
 6372TIP3    H119080   3.302   2.442   1.278  0.8712  0.6064 -1.3686
 6372TIP3    H219081   3.270   2.586   1.244 -0.9950  0.4934 -0.2234
 6373TIP3   OH219082   6.525   5.281   4.056 -0.2260 -0.2127 -0.6928
 6373TIP3    H119083   6.483   5.339   4.119  1.0037 -0.7519  0.6774
 6373TIP3    H219084   6.454   5.228   4.021 -0.9163 -0.1120  0.4935
 6374TIP3   OH219085   6.295   5.976   4.828 -0.3049  0.0478 -0.0250
 6374TIP3    H119086   6.259   6.027   4.900  0.5980 -1.1042  1.3095
 6374TIP3    H219087   6.388   6.000   4.826 -0.2431 -0.2266 -0.5416
 6375TIP3   OH219088   1.618   5.544   2.324 -0.0892 -0.7398  0.0870
 6375TIP3    H119089   1.690   5.585   2.277  0.1088 -0.2174  0.8352
 6375TIP3    H219090   1.661   5.483   2.384 -0.0608  1.3252  2.3033
 6376TIP3   OH219091   4.531   2.375   2.142 -0.4222 -0.3511  0.2832
 6376TIP3    H119092   4.458   2.353   2.198  0.7999  0.4113  2.2838
 6376TIP3    H219093   4.536   2.303   2.079 -1.8926 -1.2042  1.0918
 6377TIP3   OH219094   0.808   0.465   5.119  0.3421 -0.3388 -0.2575
 6377TIP3    H119095   0.817   0.456   5.214 -1.9042 -1.9143 -0.1085
 6377TIP3    H219096   0.742   0.533   5.107 -1.0862 -1.7253 -0.5562
 6378TIP3   OH219097   5.856   6.443   1.241  0.1656  0.5014 -0.0673
 6378TIP3    H119098   5.922   6.504   1.207  0.5529  0.4549  0.5867
 6378TIP3    H219099   5.827   6.395   1.164 -1.2104  2.4715 -0.8623
 6379TIP3   OH219100   4.147   6.312   2.513  0.6049 -0.0808  0.0437
 6379TIP3    H119101   4.056   6.301   2.541  0.5265  1.0881  0.2775
 6379TIP3    H219102   4.194   6.337   2.593  0.9455  0.3341 -0.2804
 6380TIP3   OH219103   0.529   3.261   0.898 -0.5213 -0.3532  0.4609
 6380TIP3    H119104   0.541   3.265   0.993 -4.0865  0.9328  0.9991
 6380TIP3    H219105   0.544   3.350   0.868  0.8031 -0.8004 -0.2662
 6381TIP3   OH219106   7.044   1.621   0.542 -0.2651 -0.2916  0.3742
 6381TIP3    H119107   6.997   1.644   0.463 -0.2172 -0.7475  0.2074
 6381TIP3    H219108   7.098   1.546   0.517  0.9101  0.5008  0.4331
 6382TIP3   OH219109   5.796   0.483   0.512  0.5191 -0.3234  0.6831
 6382TIP3    H119110   5.809   0.572   0.477 -0.9861 -0.7044 -1.0013
 6382TIP3    H219111   5.701   0.473   0.518  0.6268 -2.1181 -0.0347
 6383TIP3   OH219112   1.959   6.652   2.625 -0.0651  0.3928  0.4761
 6383TIP3    H119113   1.998   6.701   2.552 -0.5255  0.5806  0.3538
 6383TIP3    H219114   2.003   6.567   2.623  0.1510  0.5093  0.1778
 6384TIP3   OH219115   6.886   2.450   3.022 -0.1046 -0.1088  0.1903
 6384TIP3    H119116   6.814   2.512   3.032  0.0210  0.1638 -0.5732
 6384TIP3    H219117   6.958   2.488   3.073 -0.4536 -0.3175  0.8491
 6385TIP3   OH219118   5.311   3.148   2.637  0.2095 -0.6911  0.3441
 6385TIP3    H119119   5.326   3.072   2.581  2.9967 -0.6504  0.8570
 6385TIP3    H219120   5.399   3.181   2.656 -0.7467  0.6856  2.8403
 6386TIP3   OH219121   6.151   0.792   3.095  0.2706  0.5193 -1.0770
 6386TIP3    H119122   6.202   0.714   3.117  0.6325  1.1813  0.6388
 6386TIP3    H219123   6.216   0.856   3.066 -0.0615  0.1179 -2.8258
 6387TIP3   OH219124   5.371   2.040   5.708  0.0797  0.2115 -0.2590
 6387TIP3    H119125   5.396   2.034   5.800  1.4831 -0.9607 -0.6675
 6387TIP3    H219126   5.287   2.085   5.708 -0.3186 -0.4478  1.6533
 6388TIP3   OH219127   6.173   6.150   4.986  0.3474 -0.0952 -0.1882
 6388TIP3    H119128   6.081   6.142   4.959  0.1143  1.5127  0.0012
 6388TIP3    H219129   6.168   6.158   5.081  0.9361 -2.7992  0.1318
 6389TIP3   OH219130   1.877   4.159   4.568  0.4011  0.6302 -0.0004
 6389TIP3    H119131   1.916   4.221   4.506  0.8494  1.6036  1.2189
 6389TIP3    H219132   1.894   4.197   4.654  2.5907 -2.2262  0.9656
 6390TIP3   OH219133   0.771   5.695   4.638  0.6074 -0.1368 -0.1474
 6390TIP3    H119134   0.771   5.753   4.714  0.6670 -0.0978 -0.1774
 6390TIP3    H219135   0.696   5.637   4.653  1.6088 -1.2475  0.7882
 6391TIP3   OH219136   5.444   6.565   5.866 -0.1642  0.3550  0.0924
 6391TIP3    H119137   5.452   6.507   5.790  0.9487 -0.6524  0.9235
 6391TIP3    H219138   5.504   6.637   5.847 -0.1105  0.2570 -0.1173
 6392TIP3   OH219139   5.883   0.844   0.810  0.1163 -0.1960  0.0238
 6392TIP3    H119140   5.881   0.914   0.875  1.8068 -1.2166  1.2764
 6392TIP3    H219141   5.901   0.765   0.861  1.3350 -1.0759 -1.6403
 6393TIP3   OH219142   4.744   6.477   0.925 -0.2740 -0.8514  0.0263
 6393TIP3    H119143   4.809   6.511   0.864 -0.6225  0.6128  0.4272
 6393TIP3    H219144   4.663   6.475   0.875  0.2165 -3.7630 -0.8273
 6394TIP3   OH219145   5.390   4.285   4.553 -0.2563 -0.3551  0.0490
 6394TIP3    H119146   5.426   4.220   4.493 -0.6696 -0.4110 -0.1445
 6394TIP3    H219147   5.386   4.365   4.502  1.3450  0.1258  0.6416
 6395TIP3   OH219148   5.900   1.566   5.524 -0.3658  0.3670  0.3247
 6395TIP3    H119149   5.913   1.471   5.527 -1.0172  0.1334 -2.0761
 6395TIP3    H219150   5.940   1.593   5.441 -1.0261  2.0581  0.5202
 6396TIP3   OH219151   5.576   3.719   4.521  0.5895 -0.4602  0.3097
 6396TIP3    H119152   5.602   3.808   4.547  1.1883 -0.3361 -0.6803
 6396TIP3    H219153   5.656   3.667   4.529  0.0493 -1.1357  1.7388
 6397TIP3   OH219154   4.583   0.102   0.588  0.1397  0.0683  0.2087
 6397TIP3    H119155   4.609   0.017   0.553  0.7349  0.3483 -0.0518
 6397TIP3    H219156   4.665   0.151   0.597 -0.0698  0.2448  1.3773
 6398TIP3   OH219157   0.088   1.524   5.753  0.6524  0.1492 -0.2947
 6398TIP3    H119158   0.038   1.604   5.738 -1.2759 -1.1681 -1.2953
 6398TIP3    H219159   0.030   1.469   5.806  0.9658 -1.4945 -1.5891
 6399TIP3   OH219160   5.851   0.193   0.685  0.4157 -0.4337  0.2993
 6399TIP3    H119161   5.837   0.283   0.654 -1.1230 -1.1357 -1.2117
 6399TIP3    H219162   5.874   0.203   0.778 -0.3538  1.4907  0.3332
 6400TIP3   OH219163   3.772   4.017   2.706 -0.5241  0.2101 -0.0735
 6400TIP3    H119164   3.789   4.095   2.759 -0.0713  0.7119 -0.9455
 6400TIP3    H219165   3.766   3.946   2.770 -0.6305  0.9039  0.7054
 6401TIP3   OH219166   0.901   4.946   4.483 -0.7417  0.0393 -0.5154
 6401TIP3    H119167   0.942   5.027   4.452 -1.8268  0.4652 -0.8678
 6401TIP3    H219168   0.908   4.886   4.409 -0.1966 -0.1068 -0.3538
 6402TIP3   OH219169   3.822   4.554   3.269  0.5284 -0.4645 -0.3225
 6402TIP3    H119170   3.795   4.570   3.178 -1.8651  0.2481  0.4487
 6402TIP3    H219171   3.860   4.638   3.297 -1.5341  0.3370  0.2179
 6403TIP3   OH219172   4.628   3.082   2.678  0.0896 -0.1974  0.3818
 6403TIP3    H119173   4.673   3.144   2.735 -0.5711 -0.7367  1.5307
 6403TIP3    H219174   4.697   3.021   2.651  0.5166  0.3716  0.1643
 6404TIP3   OH219175   5.229   5.813   4.409 -0.2541 -0.0076  0.1543
 6404TIP3    H119176   5.163   5.853   4.465 -1.6997 -1.4646 -0.4151
 6404TIP3    H219177   5.208   5.845   4.321  1.7033  1.8891  0.2820
 6405TIP3   OH219178   3.985   1.488   4.655 -0.0915  0.6326  0.4630
 6405TIP3    H119179   3.909   1.493   4.713 -0.4252  0.1268  0.0702
 6405TIP3    H219180   4.027   1.574   4.663 -1.0977  1.1633  0.1495
 6406TIP3   OH219181   6.024   1.376   0.296 -0.0048  0.3419  0.4085
 6406TIP3    H119182   6.011   1.283   0.314 -0.5012  0.1509 -0.8789
 6406TIP3    H219183   5.937   1.408   0.273  0.4669  0.7160 -0.9295
 6407TIP3   OH219184   1.015   5.422   2.774  0.1807 -0.2437  0.5537
 6407TIP3    H119185   1.050   5.444   2.688  1.0974  0.3134  1.0503
 6407TIP3    H219186   0.927   5.389   2.757  0.4393 -0.3638 -0.6134
 6408TIP3   OH219187   5.776   6.364   4.910 -0.5469 -0.6520 -0.1301
 6408TIP3    H119188   5.718   6.362   4.834 -1.5052 -1.5339  0.5929
 6408TIP3    H219189   5.832   6.287   4.899 -0.4541 -0.5850 -0.1233
 6409TIP3   OH219190   6.940   0.669   1.997 -0.3105 -0.8466 -0.3331
 6409TIP3    H119191   6.938   0.603   2.066 -1.3762  0.2868  0.7879
 6409TIP3    H219192   6.871   0.644   1.936 -1.4860 -0.1947  0.6912
 6410TIP3   OH219193   0.174   1.545   3.663 -0.2951 -0.1812 -0.5432
 6410TIP3    H119194   0.096   1.568   3.713 -0.4048 -0.7096 -0.4636
 6410TIP3    H219195   0.142   1.487   3.593 -0.0628  0.0892 -0.8783
 6411TIP3   OH219196   1.433   5.496   4.628  0.1086  0.0102  0.4050
 6411TIP3    H119197   1.344   5.465   4.614 -0.3399  1.2063  0.5236
 6411TIP3    H219198   1.457   5.464   4.715  0.6411 -2.2058 -0.4919
 6412TIP3   OH219199   1.979   0.053   5.759  0.1281 -0.1775  0.1482
 6412TIP3    H119200   1.977  -0.035   5.796 -1.1753 -0.6192 -0.8938
 6412TIP3    H219201   1.936   0.044   5.674  0.5928  1.3363 -0.2748
 6413TIP3   OH219202   0.761   5.401   5.077 -0.4477 -0.0352  0.0904
 6413TIP3    H119203   0.794   5.315   5.104  0.0950  0.2097  0.2372
 6413TIP3    H219204   0.709   5.384   4.998 -0.9092 -0.5814  0.5143
 6414TIP3   OH219205   0.202   6.674   0.047  0.3052 -0.3846  0.0798
 6414TIP3    H119206   0.225   6.691  -0.044 -1.2293 -0.1171 -0.2913
 6414TIP3    H219207   0.106   6.666   0.046  0.4115 -2.6369  1.2997
 6415TIP3   OH219208   5.664   2.802   4.988  0.1094 -0.4226 -0.2857
 6415TIP3    H119209   5.682   2.859   4.913  0.3084 -0.6420 -0.4097
 6415TIP3    H219210   5.620   2.726   4.950 -0.5072 -0.1762 -0.0665
 6416TIP3   OH219211   1.099   6.604   2.004 -0.1395 -0.3018  0.4356
 6416TIP3    H119212   1.145   6.685   2.029 -0.7421  0.3603 -0.5461
 6416TIP3    H219213   1.007   6.622   2.024 -0.7460  0.4449 -2.5120
 6417TIP3   OH219214   7.063   5.849   1.050  0.1931  0.6903 -0.2206
 6417TIP3    H119215   7.003   5.777   1.070 -0.2896  0.2431 -2.8298
 6417TIP3    H219216   7.084   5.888   1.135 -2.6835 -0.0066  0.9174
 6418TIP3   OH219217   2.681   3.089   2.030 -0.0828  0.1333  0.8529
 6418TIP3    H119218   2.684   3.052   1.942 -1.4171 -0.2735  0.9588
 6418TIP3    H219219   2.719   3.177   2.021 -0.5371  0.2285 -0.1916
 6419TIP3   OH219220   3.095   2.964   0.899  0.1622 -0.1019  0.2486
 6419TIP3    H119221   3.138   2.883   0.873 -0.5720 -0.1648 -0.8584
 6419TIP3    H219222   3.097   3.018   0.820 -1.7792 -0.1283  0.1295
 6420TIP3   OH219223   0.717   0.660   4.094 -0.2191  0.0301 -0.3661
 6420TIP3    H119224   0.655   0.694   4.029 -0.5876  0.3372  0.1404
 6420TIP3    H219225   0.788   0.622   4.041 -0.4850  0.3204 -0.9482
 6421TIP3   OH219226   4.204   5.382   1.183 -0.0527 -0.3179 -0.2371
 6421TIP3    H119227   4.208   5.322   1.258  1.0627 -0.9702 -0.7939
 6421TIP3    H219228   4.274   5.445   1.200  0.6768 -0.8818 -1.0509
 6422TIP3   OH219229   4.521   1.797   4.321 -0.1410  0.6059  0.4785
 6422TIP3    H119230   4.578   1.828   4.392  0.0051  0.3741  0.4623
 6422TIP3    H219231   4.486   1.714   4.353  0.2175  0.3168  0.1239
 6423TIP3   OH219232   4.131   5.026   3.155 -0.5689  0.5377 -0.3739
 6423TIP3    H119233   4.092   5.087   3.218 -0.7331  0.7535 -0.6776
 6423TIP3    H219234   4.065   4.958   3.143  0.6939 -1.2385  2.0592
 6424TIP3   OH219235   3.157   3.474   3.046 -0.1744  0.2021 -0.1663
 6424TIP3    H119236   3.110   3.485   3.129  1.6443  1.9787  0.7137
 6424TIP3    H219237   3.093   3.434   2.987 -2.3027  1.1174  1.3982
 6425TIP3   OH219238   0.836   4.764   0.838  0.3142  0.3799  0.1811
 6425TIP3    H119239   0.814   4.767   0.931 -0.2726  1.5971  0.0291
 6425TIP3    H219240   0.763   4.718   0.797 -0.7087  2.0665  0.0231
 6426TIP3   OH219241   4.592   4.083   4.281 -0.2954  0.1816  0.4596
 6426TIP3    H119242   4.628   4.161   4.322 -2.7503  1.4621  0.3858
 6426TIP3    H219243   4.660   4.052   4.222  0.7679  2.2249  0.5457
 6427TIP3   OH219244   6.634   3.642   3.352 -0.5326 -0.7829  0.4902
 6427TIP3    H119245   6.622   3.689   3.435  1.8054 -1.0268  1.0313
 6427TIP3    H219246   6.718   3.674   3.318 -0.2892 -2.4449 -0.5735
 6428TIP3   OH219247   3.438   6.306   2.500  0.2918  0.3864 -0.4859
 6428TIP3    H119248   3.447   6.210   2.494 -0.7038  0.1585  1.1070
 6428TIP3    H219249   3.520   6.339   2.464  1.2237 -1.1278  0.1053
 6429TIP3   OH219250   2.267   2.356   2.658 -0.4002  0.1652 -0.1928
 6429TIP3    H119251   2.287   2.423   2.593  1.1395  1.2794  1.3055
 6429TIP3    H219252   2.229   2.284   2.608 -1.5474  1.9004 -1.9510
 6430TIP3   OH219253   6.172   0.375   4.745 -0.2621 -0.1243 -0.0586
 6430TIP3    H119254   6.248   0.319   4.728  1.4401  2.1357 -0.3326
 6430TIP3    H219255   6.151   0.361   4.837  0.0625 -1.2135 -0.1303
 6431TIP3   OH219256   6.005   0.655   4.369  0.0829  0.7394 -0.2769
 6431TIP3    H119257   5.988   0.648   4.463 -0.3219  1.2076 -0.3102
 6431TIP3    H219258   6.101   0.650   4.362  0.1963  1.7271  0.2710
 6432TIP3   OH219259   1.126   5.038   4.069  0.3679  0.4344 -0.0656
 6432TIP3    H119260   1.198   5.047   4.007 -0.1482 -2.2669 -1.2064
 6432TIP3    H219261   1.162   4.987   4.141  0.2589  1.3276  0.6416
 6433TIP3   OH219262   3.598   3.075   1.012  0.5497  0.0213  0.5254
 6433TIP3    H119263   3.645   3.073   0.929 -1.4208 -0.0490 -0.6322
 6433TIP3    H219264   3.646   3.013   1.067 -1.1032 -4.2195 -2.2991
 6434TIP3   OH219265   1.473   6.225   5.002 -0.0850 -0.6644  0.0346
 6434TIP3    H119266   1.523   6.266   4.931 -0.4168  1.5008  0.9696
 6434TIP3    H219267   1.445   6.141   4.966  0.4911 -0.0087 -2.0995
 6435TIP3   OH219268   0.495   0.896   0.664  0.4630  0.7483 -0.1995
 6435TIP3    H119269   0.406   0.878   0.694 -0.0519  1.6788 -1.0918
 6435TIP3    H219270   0.551   0.863   0.734 -0.6204  1.3869  1.0119
 6436TIP3   OH219271   2.276   0.978   3.692  0.0082  0.8908 -0.0646
 6436TIP3    H119272   2.183   0.978   3.669 -0.1650  0.1496  0.6139
 6436TIP3    H219273   2.287   0.901   3.748  1.4308 -0.2404 -1.7783
 6437TIP3   OH219274   6.481   6.004   2.490 -0.2250 -0.4384  0.0575
 6437TIP3    H119275   6.487   5.936   2.423  2.1610  0.1942 -0.5024
 6437TIP3    H219276   6.568   6.044   2.490 -0.5099  0.3813  2.7359
 6438TIP3   OH219277   0.938   0.303   0.068 -0.0109 -0.2833 -0.4975
 6438TIP3    H119278   0.908   0.300  -0.023 -1.8364  0.8475  0.0229
 6438TIP3    H219279   0.870   0.257   0.117 -0.5135  1.5314  0.6104
 6439TIP3   OH219280   5.117   4.362   0.006 -0.2814 -0.3219 -0.4459
 6439TIP3    H119281   5.058   4.379   0.080  0.5814  0.4768  0.0843
 6439TIP3    H219282   5.123   4.445  -0.040  0.7603 -0.2709 -0.2414
 6440TIP3   OH219283   5.004   5.504   4.491  0.1064 -0.6558 -0.0941
 6440TIP3    H119284   5.026   5.556   4.414  0.0808 -1.1390 -0.4379
 6440TIP3    H219285   5.074   5.438   4.496 -0.4086 -1.2285 -0.2792
 6441TIP3   OH219286   5.372   3.017   4.167 -0.1688  0.7472  0.5215
 6441TIP3    H119287   5.297   2.978   4.211 -0.3336  0.6961  0.1982
 6441TIP3    H219288   5.353   3.111   4.166 -0.1463  0.7523  0.5947
 6442TIP3   OH219289   6.068   6.700   5.697 -0.5336  0.1507 -0.1269
 6442TIP3    H119290   6.076   6.709   5.792 -0.4174  0.3227 -0.1527
 6442TIP3    H219291   6.059   6.606   5.683  0.0256  0.0714  0.0123
 6443TIP3   OH219292   0.819   4.072   1.097  0.4437  0.6387 -0.1450
 6443TIP3    H119293   0.726   4.060   1.080  0.4950  1.6396 -1.2802
 6443TIP3    H219294   0.827   4.162   1.128  1.0882  0.7148 -0.5106
 6444TIP3   OH219295   4.522   1.403   5.448 -0.2056 -0.5712  0.0148
 6444TIP3    H119296   4.439   1.451   5.450  0.4799  0.6801 -0.2775
 6444TIP3    H219297   4.517   1.349   5.370 -1.7865 -2.5352  1.3507
 6445TIP3   OH219298   5.327   6.300   4.102  0.1746  0.0629  0.2151
 6445TIP3    H119299   5.386   6.239   4.147 -0.3471 -3.3698 -3.2016
 6445TIP3    H219300   5.296   6.251   4.026 -1.8754  4.0598 -1.8408
 6446TIP3   OH219301   0.745   1.838   0.057  0.6210 -0.6869  0.2796
 6446TIP3    H119302   0.757   1.852  -0.037  0.5332 -0.9437  0.2303
 6446TIP3    H219303   0.834   1.832   0.092  0.6551 -2.0388 -0.0049
 6447TIP3   OH219304   1.359   2.329   2.862 -0.6897 -0.0749  0.2268
 6447TIP3    H119305   1.294   2.399   2.861  0.8070  1.3481  0.0023
 6447TIP3    H219306   1.346   2.285   2.946  0.5900  2.6769  1.9732
 6448TIP3   OH219307   0.255   2.220   2.579 -0.6124 -0.1673  0.0434
 6448TIP3    H119308   0.341   2.207   2.619 -0.4320 -0.0791 -0.3139
 6448TIP3    H219309   0.197   2.239   2.653 -0.4856 -1.0182  0.3754
 6449TIP3   OH219310   2.242   5.327   4.823  0.0057  0.2466  0.1308
 6449TIP3    H119311   2.277   5.345   4.910 -1.5722  2.9270  0.3300
 6449TIP3    H219312   2.297   5.256   4.789  1.5896  0.1107  2.7129
 6450TIP3   OH219313   7.142   2.074   2.496 -0.2585  0.4854 -0.1452
 6450TIP3    H119314   7.185   1.989   2.500  1.3129  1.2268 -0.2626
 6450TIP3    H219315   7.133   2.102   2.587  0.4861  0.7681 -0.1482
 6451TIP3   OH219316   1.188   3.817   3.414  0.3897  0.1151  0.2151
 6451TIP3    H119317   1.132   3.895   3.421  0.2022  0.0663 -0.5613
 6451TIP3    H219318   1.181   3.792   3.322  0.5317 -0.7614  0.4341
 6452TIP3   OH219319   3.361   0.410   2.641  0.1900 -0.2075  0.2293
 6452TIP3    H119320   3.325   0.470   2.707  0.8574  2.4058 -1.6228
 6452TIP3    H219321   3.455   0.411   2.657  0.1575 -1.3736  0.6039
 6453TIP3   OH219322   4.547   4.705   0.536  0.7739  0.2216  0.3186
 6453TIP3    H119323   4.454   4.687   0.542  0.9146 -0.8269 -0.4123
 6453TIP3    H219324   4.552   4.800   0.525 -0.4025  0.0445 -2.5884
 6454TIP3   OH219325   3.489   1.330   0.453 -0.4694  0.1660 -0.1374
 6454TIP3    H119326   3.567   1.355   0.503 -0.7106  1.3875 -0.3523
 6454TIP3    H219327   3.474   1.238   0.477 -0.6616  0.7353  2.1377
 6455TIP3   OH219328   2.088   3.429   2.923 -0.2684  0.2923  0.0232
 6455TIP3    H119329   2.052   3.351   2.881 -0.8293  0.3672  0.3415
 6455TIP3    H219330   2.015   3.491   2.923  0.7252  1.5135 -1.9293
 6456TIP3   OH219331   0.261   0.827   0.781 -0.1199 -0.0549  0.4522
 6456TIP3    H119332   0.282   0.811   0.873 -2.0681  0.6920  1.0668
 6456TIP3    H219333   0.214   0.748   0.753 -1.2065  0.4909  0.6810
 6457TIP3   OH219334   6.746   4.708   2.779 -0.1024  0.0472  0.2794
 6457TIP3    H119335   6.654   4.680   2.783  0.2874 -1.2236  2.5139
 6457TIP3    H219336   6.764   4.740   2.867  1.2988  1.4286 -0.4764
 6458TIP3   OH219337   1.659   2.995   4.027 -0.1812 -0.0618  0.2331
 6458TIP3    H119338   1.637   3.088   4.020  1.6391  0.5683  2.0195
 6458TIP3    H219339   1.754   2.992   4.014  0.0353 -1.4328  1.8575
 6459TIP3   OH219340   0.105   0.699   5.007  0.3811  0.7489  0.1226
 6459TIP3    H119341   0.024   0.688   5.057  1.6885 -1.0169  1.9692
 6459TIP3    H219342   0.102   0.630   4.941  0.7141  0.1817  0.6915
 6460TIP3   OH219343   1.594   4.789   3.643  0.9014  0.3870 -0.6572
 6460TIP3    H119344   1.644   4.828   3.715  0.8486  0.9363 -0.9130
 6460TIP3    H219345   1.537   4.859   3.613 -0.6736 -0.4931  0.1987
 6461TIP3   OH219346   5.023   1.704   1.034  0.1254 -0.1291 -0.5314
 6461TIP3    H119347   4.990   1.672   1.119  1.2148  1.9049  0.7465
 6461TIP3    H219348   5.024   1.627   0.978  0.7454 -1.8924  1.7621
 6462TIP3   OH219349   3.866   6.290   4.223 -0.3849  0.2707  0.1994
 6462TIP3    H119350   3.842   6.319   4.311 -1.0688 -1.9269  0.8081
 6462TIP3    H219351   3.931   6.221   4.237  0.8162  1.0727 -1.1315
 6463TIP3   OH219352   5.160   4.782   3.948  0.2244  0.4540 -0.3457
 6463TIP3    H119353   5.227   4.828   3.898  1.6520 -1.3901 -0.2790
 6463TIP3    H219354   5.105   4.740   3.882  2.8769 -3.0619 -0.6426
 6464TIP3   OH219355   6.844   3.284   0.943 -0.2648  0.6901  0.0734
 6464TIP3    H119356   6.886   3.286   0.857  1.0968 -0.7439  0.6744
 6464TIP3    H219357   6.750   3.289   0.923  0.0322  0.7513 -1.4683
 6465TIP3   OH219358   6.290   3.863   5.717  0.5810  0.1265 -0.4641
 6465TIP3    H119359   6.386   3.867   5.718  0.5997  2.9827 -2.5928
 6465TIP3    H219360   6.271   3.799   5.648  0.9401 -0.2453 -0.2282
 6466TIP3   OH219361   3.756   1.365   3.220  0.8948 -0.1597  0.4904
 6466TIP3    H119362   3.845   1.350   3.250  1.6270 -1.3277 -1.9837
 6466TIP3    H219363   3.744   1.303   3.148 -1.9829 -0.1564  0.8435
 6467TIP3   OH219364   7.107   0.469   1.735  0.5373 -0.0553  0.2152
 6467TIP3    H119365   7.178   0.508   1.786 -1.8315  1.5131  2.6309
 6467TIP3    H219366   7.098   0.381   1.771  1.0361 -0.1485  0.1181
 6468TIP3   OH219367   1.434   1.633   0.542 -0.1820  1.2684  0.0384
 6468TIP3    H119368   1.449   1.538   0.548  0.6193  1.3940  0.1271
 6468TIP3    H219369   1.418   1.649   0.449  3.5197  1.5389 -0.7401
 6469TIP3   OH219370   1.489   0.069   2.961  0.1078 -0.1706  0.0500
 6469TIP3    H119371   1.584   0.056   2.961  0.0697 -0.5107 -0.8397
 6469TIP3    H219372   1.452  -0.017   2.943 -0.3520  0.0479 -0.0857
 6470TIP3   OH219373   6.326   5.083   3.106  0.7117 -0.2800  0.5510
 6470TIP3    H119374   6.381   5.113   3.178  1.7979 -0.8006 -0.0213
 6470TIP3    H219375   6.378   5.101   3.027  0.0790 -0.8370 -0.0118
 6471TIP3   OH219376   0.062   0.472   2.594 -0.2761  0.0682  0.3187
 6471TIP3    H119377   0.118   0.425   2.656 -0.2319 -0.6780 -0.2698
 6471TIP3    H219378   0.071   0.564   2.619  1.1322 -0.0440  0.3262
 6472TIP3   OH219379   2.588   3.130   1.484 -0.3482 -0.5089 -0.1430
 6472TIP3    H119380   2.541   3.051   1.513 -4.0618  0.1515 -3.4135
 6472TIP3    H219381   2.618   3.108   1.396 -1.3578  1.6121 -1.0727
 6473TIP3   OH219382   3.731   3.145   0.761  0.1115 -0.1261  0.0876
 6473TIP3    H119383   3.781   3.172   0.838 -2.3153  1.2246  1.2904
 6473TIP3    H219384   3.717   3.226   0.712  1.1078 -0.8722 -1.5366
 6474TIP3   OH219385   2.712   1.633   0.430  0.1726  0.5417  0.5345
 6474TIP3    H119386   2.635   1.577   0.422 -0.3730  1.3065  0.3091
 6474TIP3    H219387   2.754   1.605   0.512  0.3779 -0.7382  0.0127
 6475TIP3   OH219388   6.828   0.907   0.337  0.4843  0.4385 -0.0499
 6475TIP3    H119389   6.875   0.989   0.320  3.9949 -1.3735 -0.0536
 6475TIP3    H219390   6.883   0.860   0.400  0.8234 -3.4849 -2.8586
 6476TIP3   OH219391   5.649   0.250   4.027  0.2664 -0.1624  0.2661
 6476TIP3    H119392   5.733   0.224   4.065  0.5848 -1.3881 -1.1807
 6476TIP3    H219393   5.594   0.173   4.036 -0.4659  0.3709  0.4664
 6477TIP3   OH219394   4.470   4.887   2.065 -0.2246 -0.0908  0.4094
 6477TIP3    H119395   4.376   4.867   2.069  0.0025 -1.3727 -0.3445
 6477TIP3    H219396   4.476   4.962   2.007 -0.7719 -0.0586  0.3893
 6478TIP3   OH219397   0.730   6.122   4.716  0.4368  0.1722 -0.3081
 6478TIP3    H119398   0.713   6.087   4.803 -0.4857  2.1459  0.3552
 6478TIP3    H219399   0.654   6.097   4.664  0.5236 -0.1574 -0.2751
 6479TIP3   OH219400   2.527   1.832   3.533 -0.2851 -0.3657  0.5819
 6479TIP3    H119401   2.561   1.864   3.450 -0.9266  0.3990  0.6037
 6479TIP3    H219402   2.587   1.867   3.599  0.0749 -0.7593  0.4692
 6480TIP3   OH219403   6.616   1.299   1.338  0.3499 -0.0255  0.6508
 6480TIP3    H119404   6.607   1.355   1.416  0.3904  0.7517  0.1082
 6480TIP3    H219405   6.691   1.335   1.291  0.1586 -0.3197  0.1101
 6481TIP3   OH219406   6.220   1.617   1.498 -0.2182 -0.2917 -0.0464
 6481TIP3    H119407   6.158   1.673   1.450  0.5101  0.8462  0.2913
 6481TIP3    H219408   6.172   1.536   1.514 -1.5200  0.4588 -0.0391
 6482TIP3   OH219409   5.233   2.646   4.813 -0.5445 -0.1678  0.3613
 6482TIP3    H119410   5.194   2.564   4.844  1.3663 -1.6196 -0.8333
 6482TIP3    H219411   5.325   2.641   4.839 -0.1227  1.0295 -0.7641
 6483TIP3   OH219412   5.288   5.209   2.001  0.7344 -0.3577 -0.4868
 6483TIP3    H119413   5.250   5.274   2.059 -1.0373 -2.9462  1.4662
 6483TIP3    H219414   5.380   5.236   1.991  0.2988  1.8946  0.9399
 6484TIP3   OH219415   5.514   1.658   5.476 -0.0095  0.0031  0.3285
 6484TIP3    H119416   5.481   1.744   5.502  0.0074  0.5278 -1.2815
 6484TIP3    H219417   5.446   1.623   5.419  0.1534 -0.9039  0.6816
 6485TIP3   OH219418   3.635   0.383   0.220 -0.4052 -0.3652  0.2818
 6485TIP3    H119419   3.619   0.370   0.126  0.5018  0.5720 -0.0247
 6485TIP3    H219420   3.593   0.466   0.240 -1.0875 -0.8365  0.8554
 6486TIP3   OH219421   0.401   3.109   1.334  0.5165  0.0620  0.0651
 6486TIP3    H119422   0.475   3.131   1.278  1.9939 -1.8641  1.1446
 6486TIP3    H219423   0.408   3.014   1.347 -1.3661  0.0397  1.2964
 6487TIP3   OH219424   3.839   3.933   0.598 -0.7755  0.0757  0.5810
 6487TIP3    H119425   3.879   4.011   0.636 -0.2264  2.6956 -4.5786
 6487TIP3    H219426   3.912   3.871   0.591  0.7095  1.9096 -1.6817
 6488TIP3   OH219427   2.131   0.115   5.182  0.2397  0.3563 -0.2610
 6488TIP3    H119428   2.049   0.165   5.182  0.5244  0.8426  0.3827
 6488TIP3    H219429   2.160   0.116   5.273  0.9355  0.1422 -0.4688
 6489TIP3   OH219430   2.333   5.897   4.261  0.1018  0.4630  0.2402
 6489TIP3    H119431   2.343   5.935   4.173  0.5555 -0.4153 -0.0999
 6489TIP3    H219432   2.351   5.804   4.249  0.4914  0.3860  1.3263
 6490TIP3   OH219433   5.747   6.261   1.073 -0.7192  0.1922 -0.3691
 6490TIP3    H119434   5.826   6.251   1.021 -1.0440  0.1941 -0.8762
 6490TIP3    H219435   5.684   6.200   1.033 -0.5778 -0.7778  0.8397
 6491TIP3   OH219436   3.471   4.713   1.480  0.0027 -0.0945  0.0988
 6491TIP3    H119437   3.544   4.712   1.542  0.8360 -1.5121 -0.8607
 6491TIP3    H219438   3.510   4.735   1.396 -1.2352  2.5910  0.1174
 6492TIP3   OH219439   0.984   2.950   1.497 -0.0729  0.3523 -0.0718
 6492TIP3    H119440   0.971   3.041   1.471 -1.7356  0.1160 -0.2228
 6492TIP3    H219441   1.054   2.918   1.440  0.2195  1.4087 -0.3201
 6493TIP3   OH219442   5.029   2.844   5.075  1.3377 -0.1759  0.2549
 6493TIP3    H119443   5.102   2.904   5.086  1.9455 -1.1733  2.2590
 6493TIP3    H219444   5.057   2.764   5.120 -0.2242 -1.2713 -0.6047
 6494TIP3   OH219445   4.278   0.203   2.955 -0.3797  0.2430  0.4550
 6494TIP3    H119446   4.272   0.167   2.866  3.2609 -0.5159  0.3614
 6494TIP3    H219447   4.245   0.133   3.011 -0.4400 -0.2496 -0.1736
 6495TIP3   OH219448   0.992   0.845   3.156  0.8542 -0.1723  0.2695
 6495TIP3    H119449   0.943   0.891   3.088  0.2357  1.2779  1.6222
 6495TIP3    H219450   1.045   0.914   3.197  1.5248 -1.0970  0.9845
 6496TIP3   OH219451   0.798   6.133   3.645  0.3103 -0.0106 -0.2663
 6496TIP3    H119452   0.776   6.045   3.676 -0.8704 -0.3008 -1.7887
 6496TIP3    H219453   0.783   6.129   3.550  2.8812  1.0666 -0.7990
 6497TIP3   OH219454   6.469   2.111   4.237  0.4029 -0.0113  0.3741
 6497TIP3    H119455   6.500   2.025   4.267 -0.8496 -0.2737  0.9785
 6497TIP3    H219456   6.455   2.099   4.143 -2.6173 -1.4470  0.8918
 6498TIP3   OH219457   3.885   0.169   2.015 -0.1601 -0.0186  0.1974
 6498TIP3    H119458   3.914   0.166   2.106  0.5137  0.5936  0.0136
 6498TIP3    H219459   3.796   0.134   2.017 -0.5136  0.8745  1.2361
 6499TIP3   OH219460   3.478   2.059   2.849  0.0468  0.5300  0.0955
 6499TIP3    H119461   3.405   2.063   2.787  0.3924  1.7243 -0.2536
 6499TIP3    H219462   3.444   2.098   2.929 -0.0739 -0.0522  0.3329
 6500TIP3   OH219463   4.835   6.641   3.092  0.3076  0.5901 -0.0474
 6500TIP3    H119464   4.917   6.675   3.057 -0.2640  2.4421  0.2821
 6500TIP3    H219465   4.860   6.561   3.138  1.1685 -1.7106 -4.0986
 6501TIP3   OH219466   3.332   4.542   1.787  0.0610  0.5258  0.2106
 6501TIP3    H119467   3.312   4.450   1.770  0.8850  0.3412  0.1928
 6501TIP3    H219468   3.288   4.590   1.717  1.2863 -0.0215 -0.9842
 6502TIP3   OH219469   2.389   6.442   0.969 -0.1523 -0.6117 -0.6119
 6502TIP3    H119470   2.300   6.470   0.994 -0.3124 -0.8203 -0.9448
 6502TIP3    H219471   2.441   6.456   1.048 -0.0388  1.4273 -1.0016
 6503TIP3   OH219472   6.618   5.772   1.187  0.9882  0.0037  0.1108
 6503TIP3    H119473   6.551   5.709   1.162 -0.3318  1.4567 -0.1314
 6503TIP3    H219474   6.668   5.787   1.106  1.0211 -0.3584  0.0585
 6504TIP3   OH219475   0.772   1.187   2.986 -0.0504 -0.2499  0.1814
 6504TIP3    H119476   0.851   1.133   2.998  0.5985  0.6098 -0.1272
 6504TIP3    H219477   0.710   1.128   2.943  0.2900 -1.0444  0.7515
 6505TIP3   OH219478   1.633   5.324   4.504 -0.3284 -0.0491 -1.0630
 6505TIP3    H119479   1.588   5.297   4.424  0.0262 -0.2285 -1.2071
 6505TIP3    H219480   1.564   5.361   4.560 -0.4786  0.6253 -1.6862
 6506TIP3   OH219481   6.901   1.180   1.225 -0.0685 -0.4499 -0.0564
 6506TIP3    H119482   6.997   1.177   1.234  0.0448  2.2441  0.4788
 6506TIP3    H219483   6.872   1.094   1.256  2.1027 -0.9381  0.8767
 6507TIP3   OH219484   7.215   4.884   2.871  0.3011  0.5106  0.1138
 6507TIP3    H119485   7.123   4.884   2.845 -0.1948  1.0176  1.7327
 6507TIP3    H219486   7.225   4.802   2.920  0.1776  1.3363  1.5787
 6508TIP3   OH219487   6.516   0.843   1.987  0.5178  0.5085 -0.0598
 6508TIP3    H119488   6.526   0.748   1.975 -1.7885  0.2801 -0.6716
 6508TIP3    H219489   6.463   0.851   2.066  0.1555  1.2569 -0.3713
 6509TIP3   OH219490   2.314   1.618   5.216 -0.0531  0.2098 -0.1004
 6509TIP3    H119491   2.260   1.571   5.280  0.5391  0.0367  0.2857
 6509TIP3    H219492   2.392   1.564   5.207 -1.2897 -1.3015 -3.1489
 6510TIP3   OH219493   0.343   3.797   0.972  0.6310 -0.0531 -0.2289
 6510TIP3    H119494   0.343   3.704   0.993 -0.5775 -0.1243 -0.4431
 6510TIP3    H219495   0.434   3.825   0.983  0.6528 -0.8031  1.8527
 6511TIP3   OH219496   3.291   6.265   5.562  0.4752 -0.2653 -0.5815
 6511TIP3    H119497   3.377   6.269   5.603  0.1270 -0.3723  0.1727
 6511TIP3    H219498   3.247   6.346   5.589  1.0944  0.8563 -2.7375
 6512TIP3   OH219499   2.093   2.268   3.256 -0.2626  0.4346  0.4052
 6512TIP3    H119500   2.175   2.296   3.297 -1.4721  2.7864  1.3641
 6512TIP3    H219501   2.028   2.273   3.325 -1.1006 -2.7179  0.0427
 6513TIP3   OH219502   5.541   6.135   2.086 -0.6335 -0.4497 -0.4666
 6513TIP3    H119503   5.554   6.069   2.018  0.1790 -2.5146  1.5674
 6513TIP3    H219504   5.521   6.216   2.038 -1.4190 -2.0800 -3.0816
 6514TIP3   OH219505   2.662   0.797   3.880  0.0872  0.0620  0.3537
 6514TIP3    H119506   2.717   0.863   3.920 -0.2688 -0.4891  1.8029
 6514TIP3    H219507   2.701   0.713   3.905 -1.0229 -0.3230  0.8792
 6515TIP3   OH219508   4.570   4.162   2.249 -0.3991 -0.0329 -0.2361
 6515TIP3    H119509   4.484   4.202   2.261  0.1480  2.0789 -2.3880
 6515TIP3    H219510   4.566   4.080   2.298 -2.6460  1.2869  2.0380
 6516TIP3   OH219511   0.176   3.765   3.532 -0.3598  0.1922  0.2568
 6516TIP3    H119512   0.205   3.718   3.454 -0.6004 -1.6067  1.1830
 6516TIP3    H219513   0.254   3.809   3.564  0.2809 -0.8564  0.1999
 6517TIP3   OH219514   3.327   6.762   0.573  1.1530  1.0017  0.4083
 6517TIP3    H119515   3.391   6.820   0.614  1.3423  0.2325  1.2387
 6517TIP3    H219516   3.281   6.721   0.646  2.2156 -1.2072 -0.0748
 6518TIP3   OH219517   6.255   3.623   0.593 -0.7344 -0.0824 -0.6543
 6518TIP3    H119518   6.323   3.580   0.645 -0.2256  0.2527 -1.0216
 6518TIP3    H219519   6.257   3.714   0.621 -0.8566 -0.0203 -0.8422
 6519TIP3   OH219520   3.290   2.087   0.731  0.1227 -0.1999  0.1580
 6519TIP3    H119521   3.343   2.012   0.704  1.0912  0.5462 -0.0284
 6519TIP3    H219522   3.274   2.136   0.650 -0.6174 -0.2507  0.2594
 6520TIP3   OH219523   1.366   4.619   1.396  0.5961 -0.3688  0.7254
 6520TIP3    H119524   1.396   4.705   1.365  1.7194 -0.8969  0.2603
 6520TIP3    H219525   1.445   4.565   1.396  0.3433 -0.8415  3.0843
 6521TIP3   OH219526   2.145   4.926   3.594  0.2525 -0.2402 -0.0315
 6521TIP3    H119527   2.069   4.872   3.617  0.3215 -0.0119  0.7599
 6521TIP3    H219528   2.108   5.013   3.578  0.3275 -0.1695  0.1835
 6522TIP3   OH219529   0.359   1.020   2.794  0.5981  0.1850 -0.8429
 6522TIP3    H119530   0.347   0.973   2.712  0.6290  0.8346 -1.2276
 6522TIP3    H219531   0.274   1.012   2.839  1.5731 -3.1777  0.7105
 6523TIP3   OH219532   1.015   4.536   3.034  0.1059  1.0162 -0.0678
 6523TIP3    H119533   0.923   4.564   3.032  0.4504  2.2005 -0.0893
 6523TIP3    H219534   1.012   4.448   3.072 -0.9940  1.2381  0.4061
 6524TIP3   OH219535   5.003   6.338   5.262  0.2832 -0.6925  0.2808
 6524TIP3    H119536   5.019   6.321   5.355  1.8088 -0.8991  0.0027
 6524TIP3    H219537   5.077   6.393   5.235 -0.3773 -0.2696 -0.7170
 6525TIP3   OH219538   7.072   3.506   4.554  0.0712  0.5317  0.1231
 6525TIP3    H119539   7.166   3.492   4.548 -0.0550 -1.2924  1.6699
 6525TIP3    H219540   7.033   3.426   4.520 -0.8667  0.3505  1.5326
 6526TIP3   OH219541   4.533   1.594   4.875 -0.0491  0.2960  0.0881
 6526TIP3    H119542   4.482   1.648   4.814  0.8333  0.8428 -0.1809
 6526TIP3    H219543   4.489   1.607   4.959 -1.0855 -0.2093 -0.3509
 6527TIP3   OH219544   4.052   2.731   0.745 -0.3397  0.0984 -0.1452
 6527TIP3    H119545   4.001   2.788   0.687 -0.5229  0.0621 -0.0239
 6527TIP3    H219546   4.023   2.756   0.833 -0.5281 -0.2796 -0.0980
 6528TIP3   OH219547   2.817   1.597   2.258 -0.1169  0.9255  0.5575
 6528TIP3    H119548   2.748   1.662   2.247  0.3101  1.2088 -0.5624
 6528TIP3    H219549   2.892   1.646   2.290  0.2307  1.0215 -0.3675
 6529TIP3   OH219550   5.150   4.858   5.174 -0.0291 -0.1123 -0.2686
 6529TIP3    H119551   5.243   4.882   5.173 -0.1010  0.3231  1.1238
 6529TIP3    H219552   5.143   4.786   5.112  1.4742 -0.9501  0.4790
 6530TIP3   OH219553   3.446   4.955   3.647  0.6811 -0.5670  0.1083
 6530TIP3    H119554   3.466   4.863   3.631 -2.3131 -1.2384 -0.3742
 6530TIP3    H219555   3.398   4.955   3.730 -2.1610  0.0178 -1.4110
 6531TIP3   OH219556   0.477   1.430   0.737  0.3809 -0.4633 -0.3764
 6531TIP3    H119557   0.496   1.352   0.684  2.1139 -1.0324  0.9660
 6531TIP3    H219558   0.416   1.400   0.804  2.1032 -1.1062  0.9884
 6532TIP3   OH219559   0.881   3.542   1.834 -0.3427 -0.1039  0.1734
 6532TIP3    H119560   0.896   3.449   1.853 -0.9165 -0.2083  0.1336
 6532TIP3    H219561   0.786   3.552   1.839 -0.4650  0.0512 -1.7856
 6533TIP3   OH219562   5.533   4.172   2.038 -0.2728  0.4949  0.2829
 6533TIP3    H119563   5.552   4.263   2.014  0.2277  0.6378  1.1878
 6533TIP3    H219564   5.452   4.177   2.089  0.2795  0.5693  1.1782
 6534TIP3   OH219565   0.159   2.603   5.356 -0.2053 -0.0618  0.1223
 6534TIP3    H119566   0.191   2.637   5.440  0.4223 -1.4437  0.4595
 6534TIP3    H219567   0.065   2.595   5.367  0.0088 -1.4692  1.1833
 6535TIP3   OH219568   6.765   2.162   4.323  0.5993 -0.0702 -0.0449
 6535TIP3    H119569   6.760   2.111   4.242 -1.9667 -0.9660  0.5714
 6535TIP3    H219570   6.801   2.101   4.388 -2.1933 -1.1663  0.6216
 6536TIP3   OH219571   4.968   5.668   1.514 -0.1990  0.1575 -0.4506
 6536TIP3    H119572   4.927   5.592   1.555 -1.8771 -0.1768 -2.5874
 6536TIP3    H219573   5.053   5.675   1.557 -1.2620 -0.9805  2.0316
 6537TIP3   OH219574   1.643   1.575   3.383  0.1030 -0.0147  0.3804
 6537TIP3    H119575   1.700   1.530   3.321  1.1790  1.4989  0.2328
 6537TIP3    H219576   1.676   1.547   3.469 -0.1424 -0.5869  0.2955
 6538TIP3   OH219577   6.198   1.622   0.835  0.0319  0.0946  0.6916
 6538TIP3    H119578   6.290   1.632   0.859 -0.1904  0.2172  1.5075
 6538TIP3    H219579   6.189   1.530   0.812  0.2429 -0.0374  1.1274
 6539TIP3   OH219580   7.090   2.747   0.331  0.2613 -0.5104 -0.5172
 6539TIP3    H119581   7.093   2.701   0.415 -2.2996  1.4605  0.8056
 6539TIP3    H219582   7.015   2.709   0.285  1.4955 -1.4035 -1.8750
 6540TIP3   OH219583   0.288   6.651   5.027 -0.5640 -0.4980  0.4253
 6540TIP3    H119584   0.208   6.672   4.978  1.0133 -0.5368 -2.3940
 6540TIP3    H219585   0.303   6.558   5.010  0.4724 -0.3100  0.2691
 6541TIP3   OH219586   6.889   1.451   2.447  0.5212  0.3699 -0.1776
 6541TIP3    H119587   6.890   1.454   2.351 -0.2758 -1.9684 -0.3380
 6541TIP3    H219588   6.878   1.542   2.474  3.7331  1.4967 -2.1803
 6542TIP3   OH219589   2.603   6.169   3.920 -0.3636 -0.2794 -0.0767
 6542TIP3    H119590   2.566   6.154   4.007 -0.2363  1.9530  0.4206
 6542TIP3    H219591   2.654   6.250   3.929 -0.7223  0.2724 -2.3318
 6543TIP3   OH219592   6.065   2.584   2.535  0.1409 -0.2283  0.6963
 6543TIP3    H119593   6.065   2.488   2.539 -0.4435 -0.2841 -0.3264
 6543TIP3    H219594   5.988   2.606   2.482  0.4025  0.7993  0.7211
 6544TIP3   OH219595   2.670   3.477   5.189  0.3961 -0.0365 -0.2493
 6544TIP3    H119596   2.729   3.499   5.117  1.4168 -1.2359  0.1755
 6544TIP3    H219597   2.724   3.487   5.268  0.8148 -3.3565  0.0189
 6545TIP3   OH219598   6.537   3.441   4.250  0.2038 -0.4128  0.0852
 6545TIP3    H119599   6.619   3.479   4.283  0.2118 -1.2255  1.0388
 6545TIP3    H219600   6.502   3.393   4.324 -2.5028  2.0515  0.5791
 6546TIP3   OH219601   2.520   5.602   4.967  0.2274  0.3205  0.9084
 6546TIP3    H119602   2.462   5.556   5.028 -0.2302 -0.7710 -0.3067
 6546TIP3    H219603   2.592   5.540   4.952  0.6041  0.7965  0.7347
 6547TIP3   OH219604   5.876   2.273   2.754  0.7734 -0.1013  0.1417
 6547TIP3    H119605   5.969   2.271   2.733  0.6524 -1.4180 -0.3990
 6547TIP3    H219606   5.872   2.277   2.849  1.3896 -0.3452  0.1804
 6548TIP3   OH219607   4.900   4.107   1.883 -0.2265 -0.2226  0.2289
 6548TIP3    H119608   4.958   4.138   1.814 -0.7101  0.5177  0.1321
 6548TIP3    H219609   4.919   4.164   1.958  0.0012 -0.7446  0.5722
 6549TIP3   OH219610   6.887   5.636   1.056  0.1028 -0.3290 -0.2949
 6549TIP3    H119611   6.891   5.602   1.145 -1.5755  2.6138  1.0772
 6549TIP3    H219612   6.835   5.572   1.008 -0.7152 -0.9917  1.3933
 6550TIP3   OH219613   0.076   6.767   4.817 -0.5887 -0.0082 -0.0777
 6550TIP3    H119614  -0.010   6.759   4.777 -1.3342  1.2509  1.1702
 6550TIP3    H219615   0.135   6.784   4.744 -1.9006  2.3315 -0.7062
 6551TIP3   OH219616   2.164   4.559   0.081 -0.2409  0.0333 -0.0268
 6551TIP3    H119617   2.190   4.472   0.111 -2.1578  0.3119  2.8473
 6551TIP3    H219618   2.071   4.550   0.059 -0.9547  1.5937  1.9559
 6552TIP3   OH219619   2.847   5.531   0.963 -0.1634  0.5199  0.0914
 6552TIP3    H119620   2.854   5.584   0.883 -0.1819 -0.8548 -0.8717
 6552TIP3    H219621   2.767   5.480   0.950  0.5156 -0.6544  0.3776
 6553TIP3   OH219622   2.802   4.111   2.966  0.2690  0.3889  0.3848
 6553TIP3    H119623   2.809   4.060   3.046  2.1713 -0.4054 -0.2228
 6553TIP3    H219624   2.869   4.179   2.974 -0.1181  0.8491 -0.1596
 6554TIP3   OH219625   1.970   5.115   0.504  0.5173  0.3414 -0.1539
 6554TIP3    H119626   2.051   5.103   0.454  0.3092 -1.3712 -0.1369
 6554TIP3    H219627   1.968   5.040   0.564 -2.0796 -0.8538 -1.5553
 6555TIP3   OH219628   0.768   6.323   3.351  0.1029  0.0657 -0.5587
 6555TIP3    H119629   0.858   6.344   3.377 -0.7679  1.6004  1.4141
 6555TIP3    H219630   0.773   6.233   3.319  1.9570 -0.7286  1.7035
 6556TIP3   OH219631   0.032   5.139   2.156  0.4552  0.5485  0.4116
 6556TIP3    H119632   0.031   5.045   2.170 -1.0122  0.3865 -0.5711
 6556TIP3    H219633  -0.022   5.174   2.227  0.6647  0.6152  0.5391
 6557TIP3   OH219634   1.288   4.250   2.818 -0.4486  0.0887  0.4675
 6557TIP3    H119635   1.223   4.318   2.799 -1.2668 -0.9675 -0.6377
 6557TIP3    H219636   1.371   4.287   2.788 -0.6407  1.1476  1.1851
 6558TIP3   OH219637   6.170   5.852   1.702  0.2446 -0.4365  0.2939
 6558TIP3    H119638   6.188   5.936   1.660 -1.1550  0.6939  1.8251
 6558TIP3    H219639   6.098   5.870   1.762 -0.2668 -2.8132  0.4928
 6559TIP3   OH219640   5.737   3.223   0.348 -0.4613  0.1119  0.1529
 6559TIP3    H119641   5.823   3.261   0.367 -0.9793  0.5636  1.8167
 6559TIP3    H219642   5.675   3.293   0.366 -1.3336 -0.9687  1.6984
 6560TIP3   OH219643   0.772   4.323   3.833  0.1156 -0.3243 -0.4881
 6560TIP3    H119644   0.866   4.337   3.838 -0.0257  0.7483 -0.5567
 6560TIP3    H219645   0.748   4.290   3.920  0.3674  0.6865 -0.0257
 6561TIP3   OH219646   3.298   4.170   3.930  0.0375 -0.5952  0.4555
 6561TIP3    H119647   3.339   4.210   3.853  0.7506 -0.5507  0.8474
 6561TIP3    H219648   3.213   4.214   3.938  0.5821  0.4564  0.5645
 6562TIP3   OH219649   4.059   1.363   1.793  0.1444  0.3329  0.1425
 6562TIP3    H119650   4.138   1.389   1.746  1.1777 -1.8894  0.5112
 6562TIP3    H219651   4.080   1.378   1.886 -0.1065  0.3409  0.1984
 6563TIP3   OH219652   1.644   1.504   2.537 -0.1353 -0.2305 -0.2461
 6563TIP3    H119653   1.645   1.538   2.627  0.5099  2.2484 -1.0856
 6563TIP3    H219654   1.620   1.412   2.546  0.5635 -0.2386  2.5124
 6564TIP3   OH219655   2.442   1.323   3.029 -0.4557 -0.0671 -0.3022
 6564TIP3    H119656   2.482   1.236   3.025 -0.4706 -0.0329 -1.6666
 6564TIP3    H219657   2.355   1.311   2.991 -1.6344 -0.0274  2.1515
 6565TIP3   OH219658   6.073   0.080   2.167  0.5164 -0.3112  0.6155
 6565TIP3    H119659   6.084   0.172   2.192  0.4848 -0.9928  3.4459
 6565TIP3    H219660   6.019   0.084   2.088  2.0515  2.1324 -0.4718
 6566TIP3   OH219661   1.619   1.935   0.196 -0.1471  0.3591 -0.4227
 6566TIP3    H119662   1.606   1.856   0.144 -0.1708  0.2630 -0.2708
 6566TIP3    H219663   1.684   1.910   0.261  1.5923  1.1061 -1.7923
 6567TIP3   OH219664   6.391   6.551   0.564 -0.3426 -0.7611 -0.0812
 6567TIP3    H119665   6.339   6.583   0.638  0.6623  0.1777  0.2364
 6567TIP3    H219666   6.478   6.586   0.579 -0.9064  2.9262 -3.7500
 6568TIP3   OH219667   1.320   4.872   4.483 -0.2389  0.0538 -0.4098
 6568TIP3    H119668   1.371   4.946   4.517 -1.3160  1.1012 -1.0031
 6568TIP3    H219669   1.279   4.834   4.561  1.4072 -0.8049  0.0724
 6569TIP3   OH219670   4.744   3.033   4.924 -0.3162  0.1623 -0.1337
 6569TIP3    H119671   4.739   3.017   4.830  1.3472 -2.7015  0.1498
 6569TIP3    H219672   4.833   3.065   4.938 -0.8831  1.5711  0.3849
 6570TIP3   OH219673   4.136   5.387   1.587 -0.1648  0.2251  0.3517
 6570TIP3    H119674   4.186   5.465   1.611 -0.6333  0.7191 -0.2274
 6570TIP3    H219675   4.201   5.326   1.551  0.0380  0.8291 -0.3280
 6571TIP3   OH219676   0.126   5.483   3.453 -0.1142 -0.2026 -0.0047
 6571TIP3    H119677   0.126   5.401   3.403 -0.0182  0.1239 -0.5506
 6571TIP3    H219678   0.217   5.513   3.451 -0.2087  0.0886 -0.1031
 6572TIP3   OH219679   4.464   3.487   2.908  0.2022 -0.1478 -0.4122
 6572TIP3    H119680   4.513   3.426   2.963  1.7920  0.6948 -0.8191
 6572TIP3    H219681   4.447   3.439   2.827  1.0123 -0.2338 -0.5375
 6573TIP3   OH219682   5.412   0.559   2.839 -0.0457  0.4138  0.8311
 6573TIP3    H119683   5.368   0.479   2.809  0.9009 -0.2191  1.0842
 6573TIP3    H219684   5.409   0.553   2.935 -1.6477  1.6417  0.9060
 6574TIP3   OH219685   1.761   3.192   3.730 -0.2734 -0.1008 -0.0647
 6574TIP3    H119686   1.848   3.158   3.751  0.2214  1.7800  1.1479
 6574TIP3    H219687   1.742   3.158   3.643  2.1625  0.3625 -0.8322
 6575TIP3   OH219688   4.977   4.243   4.944  0.4622 -0.6130  0.0586
 6575TIP3    H119689   4.905   4.215   4.888 -0.5100 -2.0880  1.9476
 6575TIP3    H219690   5.048   4.264   4.883 -0.7820 -1.4355 -1.7409
 6576TIP3   OH219691   4.590   1.781   2.627 -0.3606  0.3195  0.2095
 6576TIP3    H119692   4.589   1.708   2.689 -1.5083  1.0107  1.0531
 6576TIP3    H219693   4.629   1.854   2.676 -1.9799  1.0835  0.4270
 6577TIP3   OH219694   2.761   5.835   2.094  0.1606  0.1165 -0.3547
 6577TIP3    H119695   2.811   5.862   2.017  0.2464 -0.3373 -0.4597
 6577TIP3    H219696   2.814   5.766   2.134  0.4872  0.8598  0.5307
 6578TIP3   OH219697   7.134   3.681   2.720 -0.1714  0.2131 -0.5513
 6578TIP3    H119698   7.204   3.655   2.660  1.3199  1.6382  0.4718
 6578TIP3    H219699   7.071   3.609   2.717  0.1219 -0.0193 -3.3575
 6579TIP3   OH219700   6.903   1.321   1.975  0.3167 -0.1180  0.1938
 6579TIP3    H119701   6.852   1.241   1.986 -0.5755  0.3296 -0.5858
 6579TIP3    H219702   6.982   1.294   1.927 -0.1817 -0.4646 -0.4378
 6580TIP3   OH219703   5.961   0.707   2.934 -0.2270 -0.0647 -0.3075
 6580TIP3    H119704   5.882   0.695   2.987 -0.5106  1.7134 -0.2501
 6580TIP3    H219705   6.024   0.748   2.993  1.0220 -2.0482 -0.1737
 6581TIP3   OH219706   2.843   0.013   5.597 -0.2948 -0.7614  0.1595
 6581TIP3    H119707   2.763   0.018   5.648  0.7394  0.1258  1.8017
 6581TIP3    H219708   2.911  -0.010   5.660  0.9558 -0.2521 -0.9333
 6582TIP3   OH219709   5.072   6.721   0.197  0.1204  0.4341 -0.0566
 6582TIP3    H119710   5.107   6.805   0.167  1.4216  0.8306  2.3203
 6582TIP3    H219711   4.999   6.744   0.253  0.1588 -0.0436  0.1955
 6583TIP3   OH219712   3.215   2.224   5.521  0.2793 -0.1189 -0.3143
 6583TIP3    H119713   3.240   2.131   5.525 -1.6012 -0.6439  0.6484
 6583TIP3    H219714   3.182   2.243   5.609 -0.1609  1.2371 -0.7528
 6584TIP3   OH219715   5.407   1.700   2.992  0.1836 -0.4906 -0.1707
 6584TIP3    H119716   5.470   1.726   2.924 -0.1734  0.0516 -0.2957
 6584TIP3    H219717   5.453   1.715   3.074  0.2320 -0.1219 -0.2627
 6585TIP3   OH219718   6.114   6.781   2.770 -0.0801  0.2524  0.1392
 6585TIP3    H119719   6.158   6.865   2.752 -0.4507  0.0614 -1.9241
 6585TIP3    H219720   6.134   6.727   2.694  1.2045 -2.0536  1.9675
 6586TIP3   OH219721   1.410   6.424   3.864 -0.4358 -0.1605  0.1411
 6586TIP3    H119722   1.334   6.409   3.920 -0.4230  0.1149  0.2340
 6586TIP3    H219723   1.477   6.457   3.923  0.0377 -1.2026  0.2190
 6587TIP3   OH219724   2.565   5.915   1.319  0.3357 -0.6151 -0.4594
 6587TIP3    H119725   2.635   5.890   1.380  1.0419  1.8164 -0.1848
 6587TIP3    H219726   2.559   6.010   1.327 -0.9151 -0.4434 -2.7622
 6588TIP3   OH219727   2.500   1.513   0.654 -0.2369 -0.1455 -0.6285
 6588TIP3    H119728   2.482   1.422   0.678 -0.6284  0.3614  1.1195
 6588TIP3    H219729   2.452   1.527   0.573 -0.6797 -1.3147 -0.5784
 6589TIP3   OH219730   4.162   0.571   5.356  0.2261 -0.3758 -0.0365
 6589TIP3    H119731   4.172   0.575   5.451 -1.8062 -1.0488  0.2531
 6589TIP3    H219732   4.181   0.481   5.333 -1.6644 -0.8529  0.1076
 6590TIP3   OH219733   7.002   1.453   3.524  0.0080 -0.1505  0.3224
 6590TIP3    H119734   6.910   1.433   3.544 -1.0715  1.8317 -2.0297
 6590TIP3    H219735   7.021   1.531   3.576 -0.1938  0.3621 -0.3568
 6591TIP3   OH219736   3.051   4.322   1.554  0.1074 -0.4001 -0.1037
 6591TIP3    H119737   3.101   4.344   1.475  1.4674  2.4314  1.4144
 6591TIP3    H219738   3.118   4.307   1.621 -1.0308  0.2196  1.2220
 6592TIP3   OH219739   1.129   4.867   3.782  0.1287 -0.4075 -0.5969
 6592TIP3    H119740   1.075   4.806   3.731  0.5720 -1.1726 -0.1595
 6592TIP3    H219741   1.166   4.814   3.852 -0.3078  0.5961  0.4204
 6593TIP3   OH219742   2.762   5.921   5.480  0.1455  0.5802  0.3443
 6593TIP3    H119743   2.741   5.869   5.558 -0.4751  1.9747  1.1496
 6593TIP3    H219744   2.850   5.893   5.456 -0.3933 -1.2896  0.3433
 6594TIP3   OH219745   3.546   4.766   0.747  0.6347  0.2778 -0.4628
 6594TIP3    H119746   3.511   4.787   0.661  2.4342  0.1582 -1.2645
 6594TIP3    H219747   3.538   4.671   0.754  1.2483  0.2017 -0.8372
 6595TIP3   OH219748   6.946   3.509   5.463  0.3177  0.0973 -0.1517
 6595TIP3    H119749   7.028   3.466   5.486  0.2554 -0.3668 -0.7659
 6595TIP3    H219750   6.923   3.560   5.541  0.9525 -0.1240  0.1893
 6596TIP3   OH219751   4.457   5.540   1.559  0.0503 -0.1294 -0.3827
 6596TIP3    H119752   4.396   5.596   1.608  0.5961  0.7348 -0.6827
 6596TIP3    H219753   4.479   5.470   1.621 -1.7306 -0.8283 -0.4783
 6597TIP3   OH219754   3.068   5.119   4.231 -0.5707  0.1505 -0.2465
 6597TIP3    H119755   3.118   5.042   4.202  0.2514 -0.1996  1.9198
 6597TIP3    H219756   3.126   5.193   4.210  0.5662 -0.1909  1.4828
 6598TIP3   OH219757   5.057   1.090   2.962  0.1058  0.1008  0.4420
 6598TIP3    H119758   5.056   1.005   2.916  0.5499  0.3306 -0.0029
 6598TIP3    H219759   5.118   1.076   3.035  0.6622  0.2195  0.0050
 6599TIP3   OH219760   5.480   1.782   1.556 -0.0144 -0.2042 -0.1550
 6599TIP3    H119761   5.549   1.848   1.554  0.7307 -0.9694 -2.0674
 6599TIP3    H219762   5.524   1.703   1.589 -0.5409 -0.1527  0.7098
 6600TIP3   OH219763   4.079   5.588   0.248 -0.4862 -0.2131 -0.3876
 6600TIP3    H119764   4.038   5.527   0.309 -1.0336  1.5495  1.0686
 6600TIP3    H219765   4.166   5.605   0.286 -0.6013  0.4310 -0.3968
 6601TIP3   OH219766   7.143   2.210   4.684  0.1930  0.3405  0.0135
 6601TIP3    H119767   7.086   2.279   4.650  0.5187  1.1852  1.0870
 6601TIP3    H219768   7.126   2.210   4.779  0.9385 -0.3643  0.1584
 6602TIP3   OH219769   6.065   3.710   5.833 -0.0441 -0.0133  0.2824
 6602TIP3    H119770   6.145   3.741   5.792  1.4062  0.7921  3.3980
 6602TIP3    H219771   6.091   3.631   5.880 -1.4553 -0.6185  0.0824
 6603TIP3   OH219772   1.310   0.813   0.879 -0.2232 -0.9026 -0.1526
 6603TIP3    H119773   1.258   0.854   0.810  1.2490 -0.1237 -0.8509
 6603TIP3    H219774   1.246   0.784   0.944 -1.5020  0.0982 -0.9211
 6604TIP3   OH219775   6.585   3.762   0.043 -0.1580  0.0470  0.1610
 6604TIP3    H119776   6.541   3.846   0.058  1.2500  0.7323  0.6405
 6604TIP3    H219777   6.642   3.751   0.119  0.0635 -1.0955 -0.1518
 6605TIP3   OH219778   0.822   3.052   2.540  0.4863 -0.0953  0.4818
 6605TIP3    H119779   0.748   3.031   2.598 -0.4942 -0.1877 -0.7498
 6605TIP3    H219780   0.783   3.107   2.472  1.5660 -0.1371 -0.1843
 6606TIP3   OH219781   3.355   0.218   2.396 -0.0128 -0.1165  0.0619
 6606TIP3    H119782   3.320   0.130   2.399 -1.5641  0.4870  0.9822
 6606TIP3    H219783   3.358   0.246   2.488 -1.1742  1.3774 -0.3146
 6607TIP3   OH219784   3.951   1.776   2.401 -0.2639 -0.0749 -0.0105
 6607TIP3    H119785   3.855   1.782   2.404 -0.2439 -0.0416  1.0031
 6607TIP3    H219786   3.976   1.821   2.320 -0.9750  1.6536  0.6829
 6608TIP3   OH219787   2.580   6.216   1.407  0.0614 -0.3685 -0.0339
 6608TIP3    H119788   2.529   6.270   1.346 -0.6707 -1.6217 -0.5688
 6608TIP3    H219789   2.525   6.208   1.484 -0.1058 -0.8571 -0.2004
 6609TIP3   OH219790   2.544   0.647   1.437 -1.1373  0.1279 -0.0005
 6609TIP3    H119791   2.520   0.555   1.450  0.3063 -0.2701 -0.0653
 6609TIP3    H219792   2.579   0.650   1.348  0.7331  0.3139  0.7092
 6610TIP3   OH219793   3.602   6.296   1.728 -0.0255 -0.0052  0.1568
 6610TIP3    H119794   3.648   6.246   1.794  3.7501  2.6545 -0.1365
 6610TIP3    H219795   3.536   6.346   1.777  0.0304 -0.9852  1.2578
 6611TIP3   OH219796   1.643   2.873   4.258  0.0010 -0.6243 -0.0052
 6611TIP3    H119797   1.551   2.856   4.279  0.1866 -0.3742  1.0876
 6611TIP3    H219798   1.640   2.930   4.181 -0.8470  1.5374  1.5304
 6612TIP3   OH219799   6.612   0.562   2.263 -0.2850  0.6064 -0.5757
 6612TIP3    H119800   6.629   0.644   2.310  0.1897 -0.6056  1.4518
 6612TIP3    H219801   6.672   0.499   2.301 -0.6630 -0.7371 -2.0866
 6613TIP3   OH219802   2.656   6.535   0.600  0.2611 -0.3481 -0.1020
 6613TIP3    H119803   2.686   6.473   0.534 -0.8847  0.0423 -1.0340
 6613TIP3    H219804   2.682   6.621   0.566 -0.1500 -0.1553  0.0663
 6614TIP3   OH219805   2.448   4.421   4.865  0.1153  0.0926  0.8043
 6614TIP3    H119806   2.478   4.340   4.823  1.0793  1.0717 -0.4775
 6614TIP3    H219807   2.419   4.393   4.952  0.5702 -1.5992  0.4580
 6615TIP3   OH219808   2.651   5.479   5.765  0.1234  0.4452  0.4311
 6615TIP3    H119809   2.591   5.525   5.823  0.7888 -1.0414  2.4198
 6615TIP3    H219810   2.596   5.449   5.692 -1.9903 -2.1292  2.8708
 6616TIP3   OH219811   4.400   1.453   1.154  0.2610 -0.4471 -0.3686
 6616TIP3    H119812   4.355   1.429   1.072  0.9022 -1.4106 -0.4486
 6616TIP3    H219813   4.493   1.449   1.132  0.4189  1.0923 -0.0745
 6617TIP3   OH219814   6.797   5.628   0.438 -0.0331 -0.1613  0.0444
 6617TIP3    H119815   6.775   5.714   0.403 -1.3468 -0.5610 -0.1678
 6617TIP3    H219816   6.836   5.646   0.524 -0.3799  0.6327  0.0373
 6618TIP3   OH219817   0.686   0.141   4.264 -0.6053  0.5279 -0.4619
 6618TIP3    H119818   0.682   0.236   4.265  3.3526  0.8619 -0.9527
 6618TIP3    H219819   0.735   0.118   4.343 -2.4842 -1.2846  0.2753
 6619TIP3   OH219820   4.620   4.534   3.492  0.3130  0.2771  0.0561
 6619TIP3    H119821   4.664   4.608   3.535  1.0557  0.5331 -1.1113
 6619TIP3    H219822   4.622   4.556   3.399 -1.8501  0.0416 -0.1001
 6620TIP3   OH219823   3.302   3.486   3.604 -0.1865  0.0955 -0.4897
 6620TIP3    H119824   3.283   3.439   3.523 -0.0118 -0.6025 -0.1389
 6620TIP3    H219825   3.240   3.450   3.668  0.6908 -0.4867  0.0660
 6621TIP3   OH219826   0.359   5.580   2.876 -0.1850 -0.1579 -0.0400
 6621TIP3    H119827   0.275   5.608   2.913  0.1984 -0.3864  1.0395
 6621TIP3    H219828   0.378   5.644   2.808 -0.3790  0.9428  0.9177
 6622TIP3   OH219829   6.693   4.439   1.142 -0.0605 -0.1639  0.4138
 6622TIP3    H119830   6.765   4.408   1.197 -0.1922 -1.9717 -0.3796
 6622TIP3    H219831   6.729   4.442   1.054 -0.4649  0.6309  0.2671
 6623TIP3   OH219832   5.460   4.192   1.507 -0.5634  0.5698 -0.1362
 6623TIP3    H119833   5.504   4.275   1.525  2.8554 -1.3084  0.8907
 6623TIP3    H219834   5.410   4.174   1.587 -0.1299  0.9198  0.2182
 6624TIP3   OH219835   2.969   0.642   0.261  0.5537  0.3004  0.1982
 6624TIP3    H119836   2.952   0.721   0.209 -0.1570 -0.2154 -0.3806
 6624TIP3    H219837   2.946   0.667   0.350 -2.4779 -0.0239 -0.3632
 6625TIP3   OH219838   0.177   5.640   2.100 -0.4803 -0.2759 -0.0806
 6625TIP3    H119839   0.153   5.699   2.172  1.7583  0.9141 -0.2130
 6625TIP3    H219840   0.168   5.552   2.137  2.9540  0.3027  2.6216
 6626TIP3   OH219841   3.032   1.983   0.345  0.4142 -0.2833  0.1352
 6626TIP3    H119842   3.003   1.978   0.436  0.8896 -0.5918  0.2709
 6626TIP3    H219843   2.999   1.903   0.304 -1.1335  0.5672 -0.3653
 6627TIP3   OH219844   2.101   5.493   4.615  0.5887 -0.3115 -0.0926
 6627TIP3    H119845   2.146   5.451   4.689  0.5188 -5.8902 -2.7253
 6627TIP3    H219846   2.054   5.566   4.655  2.4193 -1.4207  4.8918
 6628TIP3   OH219847   6.437   3.263   2.055 -0.5335 -0.4539 -0.1283
 6628TIP3    H119848   6.525   3.262   2.018 -1.4594 -0.3484 -2.5295
 6628TIP3    H219849   6.440   3.333   2.120  0.5995  1.1492 -1.7868
 6629TIP3   OH219850   6.007   3.413   3.148  0.1159 -0.7219  0.1720
 6629TIP3    H119851   5.941   3.346   3.128 -2.3300  1.0311  1.7573
 6629TIP3    H219852   6.008   3.417   3.244 -0.2979  1.8594  0.1440
 6630TIP3   OH219853   2.716   3.437   2.255  0.1833  0.2223  0.1935
 6630TIP3    H119854   2.739   3.369   2.192 -1.4593 -0.8734  0.7173
 6630TIP3    H219855   2.787   3.501   2.248  0.2159  0.0018 -2.5388
 6631TIP3   OH219856   2.497   2.317   2.804  0.4693  0.0101  0.7199
 6631TIP3    H119857   2.404   2.311   2.784  0.8137 -0.6213 -0.8857
 6631TIP3    H219858   2.540   2.312   2.718  2.0682 -2.1702  1.5442
 6632TIP3   OH219859   1.815   0.526   3.201 -0.4769 -0.3083 -0.6541
 6632TIP3    H119860   1.736   0.581   3.199 -0.0033  0.4203 -0.0297
 6632TIP3    H219861   1.809   0.472   3.122 -0.8590  0.7993 -1.4051
 6633TIP3   OH219862   0.126   5.709   3.796 -0.3544 -0.4586 -0.5429
 6633TIP3    H119863   0.052   5.689   3.740 -1.0797  2.3321 -0.7440
 6633TIP3    H219864   0.186   5.758   3.739  1.2608 -1.8981 -0.1457
 6634TIP3   OH219865   0.913   4.625   5.131 -0.0965 -0.3359  0.8496
 6634TIP3    H119866   0.834   4.585   5.094 -0.1511  0.3909  0.1531
 6634TIP3    H219867   0.953   4.671   5.058  0.5705 -0.0649  1.3755
 6635TIP3   OH219868   2.378   1.379   1.967 -0.2355  0.0552  0.4116
 6635TIP3    H119869   2.378   1.290   2.002 -0.1146  0.0447  0.3850
 6635TIP3    H219870   2.341   1.371   1.880  1.3483 -0.2412 -0.2806
 6636TIP3   OH219871   6.735   1.376   4.893  0.1997  0.1543 -0.3305
 6636TIP3    H119872   6.797   1.336   4.954  0.1896  1.0024  0.2536
 6636TIP3    H219873   6.789   1.426   4.832  0.4271 -2.6409 -2.6182
 6637TIP3   OH219874   4.172   0.234   2.318 -0.4153 -0.2435  0.5259
 6637TIP3    H119875   4.212   0.200   2.398  0.1839  1.2615  0.9082
 6637TIP3    H219876   4.084   0.195   2.317 -0.7167  0.2748  2.3291
 6638TIP3   OH219877   6.000   0.953   1.406 -0.7962  0.2216  0.3622
 6638TIP3    H119878   5.974   1.044   1.419  0.2048  0.4312  0.9713
 6638TIP3    H219879   6.076   0.941   1.462 -0.2129 -0.6701 -0.5785
 6639TIP3   OH219880   0.419   6.531   2.150  0.5932 -0.2490  0.4747
 6639TIP3    H119881   0.432   6.533   2.245 -1.2408  1.0193  0.7593
 6639TIP3    H219882   0.337   6.578   2.136  0.5917 -0.7777 -1.7210
 6640TIP3   OH219883   0.089   6.088   4.492 -0.0523 -0.3010 -0.1453
 6640TIP3    H119884   0.178   6.067   4.466 -0.4750 -1.2463 -0.9229
 6640TIP3    H219885   0.034   6.048   4.424 -1.0114  2.4433 -1.1292
 6641TIP3   OH219886   7.049   1.807   2.666 -0.7056 -0.6008  0.4237
 6641TIP3    H119887   7.107   1.735   2.693  0.4716 -0.9663 -2.7320
 6641TIP3    H219888   6.968   1.763   2.641 -0.6628 -0.6265  0.3288
 6642TIP3   OH219889   3.905   2.965   0.047  0.8598  0.5695 -0.1525
 6642TIP3    H119890   3.963   3.020  -0.006  0.8152  1.2627  0.5100
 6642TIP3    H219891   3.820   3.009   0.043  0.5655 -0.0194 -0.4719
 6643TIP3   OH219892   1.794   4.723   2.856  0.0343 -0.2131 -0.1038
 6643TIP3    H119893   1.859   4.779   2.899 -0.0804 -1.5240  1.8993
 6643TIP3    H219894   1.719   4.723   2.915 -1.3673  0.2743 -1.7909
 6644TIP3   OH219895   6.485   0.870   4.582  0.2927  0.3811  0.2187
 6644TIP3    H119896   6.474   0.814   4.659 -0.7931  0.2466 -0.0218
 6644TIP3    H219897   6.405   0.922   4.578 -0.1210 -0.3197 -1.3873
 6645TIP3   OH219898   4.663   4.983   3.099  0.8187  0.2639 -0.3223
 6645TIP3    H119899   4.662   5.077   3.120 -1.2639 -0.0526  1.2610
 6645TIP3    H219900   4.672   4.940   3.183  0.5984 -0.9891 -0.9229
 6646TIP3   OH219901   5.585   5.387   2.721 -0.2698  0.5994  0.0978
 6646TIP3    H119902   5.600   5.296   2.747 -0.6284  0.3329 -0.6228
 6646TIP3    H219903   5.669   5.416   2.684 -0.8801 -0.2767 -2.1115
 6647TIP3   OH219904   6.424   0.711   4.843  0.3047  0.1730  0.1200
 6647TIP3    H119905   6.443   0.642   4.907 -2.2509 -1.1174 -0.3939
 6647TIP3    H219906   6.329   0.721   4.846  0.5714  4.6163  1.0553
 6648TIP3   OH219907   2.028   0.220   0.883  0.1827  0.2222 -0.2224
 6648TIP3    H119908   1.949   0.166   0.891  0.5041 -0.0263  2.1230
 6648TIP3    H219909   2.095   0.159   0.852  0.2346 -0.4572  1.1465
 6649TIP3   OH219910   2.683   0.085   4.646  0.7686 -0.3841  0.0143
 6649TIP3    H119911   2.773   0.117   4.660  0.4479  1.3748 -1.5821
 6649TIP3    H219912   2.680   0.063   4.553 -0.2609 -1.2047  0.2249
 6650TIP3   OH219913   5.115   3.398   0.700  0.3855  0.4306 -0.0002
 6650TIP3    H119914   5.163   3.329   0.745 -0.3094  0.9027  1.5171
 6650TIP3    H219915   5.069   3.353   0.629 -0.9120 -0.8831  1.6042
 6651TIP3   OH219916   2.027   1.468   3.720 -0.1223  0.0646  0.0392
 6651TIP3    H119917   2.093   1.453   3.788 -0.1350 -1.4643 -0.2482
 6651TIP3    H219918   2.048   1.554   3.685  2.0679 -0.5662 -0.3908
 6652TIP3   OH219919   3.775   3.276   5.272 -0.1209 -0.0198  1.0848
 6652TIP3    H119920   3.765   3.183   5.248  1.0626 -0.3101  1.6444
 6652TIP3    H219921   3.860   3.280   5.316  0.4370  1.5565 -0.0372
 6653TIP3   OH219922   5.513   2.786   0.879 -0.4789 -0.4840  0.5783
 6653TIP3    H119923   5.600   2.747   0.876 -0.0987  0.3611  0.1490
 6653TIP3    H219924   5.454   2.713   0.898  0.3617 -0.9956  1.2693
 6654TIP3   OH219925   6.712   3.731   4.050  0.6073  0.3005 -0.4140
 6654TIP3    H119926   6.629   3.686   4.034 -0.4019  2.4476 -1.6700
 6654TIP3    H219927   6.691   3.796   4.118  1.0991  1.2216 -1.1311
 6655TIP3   OH219928   4.171   4.575   1.507  0.2524  0.4057  0.6402
 6655TIP3    H119929   4.122   4.613   1.579  0.1950  0.5759  0.5134
 6655TIP3    H219930   4.139   4.622   1.429  0.8534  0.7564  0.5974
 6656TIP3   OH219931   3.344   2.214   5.254 -0.2567  0.4943  0.0518
 6656TIP3    H119932   3.304   2.232   5.339 -0.6274  2.1209 -0.4321
 6656TIP3    H219933   3.277   2.164   5.206 -0.4630  0.5035  0.3257
 6657TIP3   OH219934   3.310   0.426   5.563  0.1616 -0.4031  0.2142
 6657TIP3    H119935   3.302   0.403   5.656  1.5542 -2.3914 -0.1059
 6657TIP3    H219936   3.396   0.395   5.538  0.7377  2.1107 -1.2649
 6658TIP3   OH219937   7.013   4.769   1.257 -0.1296  0.0310 -0.0501
 6658TIP3    H119938   7.001   4.676   1.272 -0.0502  0.1768  0.9969
 6658TIP3    H219939   7.033   4.805   1.343  1.1467  0.8166 -0.6383
 6659TIP3   OH219940   2.257   0.033   3.578 -0.3746 -0.3683  0.5130
 6659TIP3    H119941   2.252  -0.061   3.593  0.3375 -0.5422 -0.2948
 6659TIP3    H219942   2.167   0.059   3.559 -0.5439 -0.9216  0.5488
 6660TIP3   OH219943   6.510   1.121   5.729  0.1009 -0.6343  0.5066
 6660TIP3    H119944   6.583   1.087   5.677  0.6272  0.3565  0.5896
 6660TIP3    H219945   6.433   1.077   5.693  0.6527 -1.1624 -0.0454
 6661TIP3   OH219946   1.357   1.998   2.877  0.2883 -0.0758  0.0859
 6661TIP3    H119947   1.380   2.027   2.965 -0.1466 -0.0864  0.2059
 6661TIP3    H219948   1.389   2.068   2.820  0.0915  0.1880  0.2974
 6662TIP3   OH219949   2.696   1.135   3.442  0.1950 -0.1244 -0.3323
 6662TIP3    H119950   2.694   1.045   3.411  1.3640 -0.2114 -0.1862
 6662TIP3    H219951   2.739   1.130   3.527  1.9949  0.7881 -1.1465
 6663TIP3   OH219952   1.108   0.573   0.413  0.1781  1.0577  0.3631
 6663TIP3    H119953   1.076   0.496   0.460  2.1124  1.1211  1.9310
 6663TIP3    H219954   1.145   0.538   0.332 -1.6465  0.7336 -0.3666
 6664TIP3   OH219955   3.176   3.834   2.562  0.4423  0.6566 -0.1230
 6664TIP3    H119956   3.197   3.863   2.651 -0.6578 -0.0989  0.4073
 6664TIP3    H219957   3.220   3.898   2.505  0.5717  1.5801  0.9702
 6665TIP3   OH219958   5.874   5.567   2.659 -0.0207  0.3108 -0.9199
 6665TIP3    H119959   5.872   5.582   2.565  0.3925  1.1053 -0.8111
 6665TIP3    H219960   5.825   5.641   2.696 -0.4660 -0.1723 -0.5271
 6666TIP3   OH219961   3.173   1.769   1.503  0.1840  0.5430 -0.4654
 6666TIP3    H119962   3.119   1.847   1.487  0.6858  1.1311  0.5450
 6666TIP3    H219963   3.113   1.696   1.496  0.0772  0.8043 -3.4671
 6667TIP3   OH219964   4.230   2.065   3.328 -0.2044  0.0143 -0.1675
 6667TIP3    H119965   4.277   1.984   3.347 -0.0786  0.0540 -0.3060
 6667TIP3    H219966   4.171   2.042   3.255 -0.8624 -0.2015  0.4258
 6668TIP3   OH219967   7.121   4.971   4.654  0.2900  0.2630 -0.6610
 6668TIP3    H119968   7.127   5.051   4.601  2.0666  1.7651  1.5906
 6668TIP3    H219969   7.039   4.931   4.628 -0.6288  2.7694 -1.9708
 6669TIP3   OH219970   4.170   4.297   2.616 -0.5798 -0.2731  0.2117
 6669TIP3    H119971   4.133   4.215   2.585 -0.4226 -0.1395 -0.3535
 6669TIP3    H219972   4.094   4.347   2.648 -0.8365 -0.1755 -0.5290
 6670TIP3   OH219973   6.023   4.228   2.321  0.3748  0.2844 -0.8183
 6670TIP3    H119974   6.098   4.199   2.268  1.8311  2.3294  0.0104
 6670TIP3    H219975   6.048   4.314   2.353 -1.8899  0.5394  0.4589
 6671TIP3   OH219976   1.228   3.845   5.262  0.4679  0.4053 -0.0052
 6671TIP3    H119977   1.237   3.823   5.355  1.8249 -1.3256 -0.5086
 6671TIP3    H219978   1.147   3.897   5.259  0.1093  0.0883  2.0608
 6672TIP3   OH219979   2.142   0.384   3.699 -0.8265 -0.2757  0.7783
 6672TIP3    H119980   2.063   0.331   3.701 -1.9568  1.3239  0.4543
 6672TIP3    H219981   2.214   0.321   3.702 -2.1015 -1.8056  0.2982
 6673TIP3   OH219982   0.908   0.289   4.658 -0.1641 -0.2181  0.3009
 6673TIP3    H119983   0.941   0.256   4.741 -0.5229  0.4573  0.7226
 6673TIP3    H219984   0.934   0.382   4.657 -1.3582  0.1334  0.2939
 6674TIP3   OH219985   1.878   0.838   0.705 -0.1476 -0.0702  0.6612
 6674TIP3    H119986   1.830   0.820   0.786 -0.0390 -1.8158  0.3775
 6674TIP3    H219987   1.827   0.793   0.637  0.5560  0.1533 -0.0279
 6675TIP3   OH219988   2.943   5.287   3.605 -0.3525 -0.5081 -0.2204
 6675TIP3    H119989   2.873   5.255   3.548 -1.8194  1.1943  0.5027
 6675TIP3    H219990   2.897   5.314   3.685  1.1274  0.6984  0.2694
 6676TIP3   OH219991   5.755   1.565   1.378  0.5563  0.4826 -0.0217
 6676TIP3    H119992   5.660   1.566   1.387  0.5737 -0.2727  0.2968
 6676TIP3    H219993   5.771   1.596   1.288 -0.1024 -1.4336 -0.8452
 6677TIP3   OH219994   3.063   4.300   3.976  0.0090 -0.1666 -0.4276
 6677TIP3    H119995   3.048   4.247   4.053  3.9382 -1.9667 -0.6722
 6677TIP3    H219996   3.102   4.381   4.009 -1.4472  0.5398 -0.3747
 6678TIP3   OH219997   0.187   5.578   0.967 -0.8613 -0.1017 -0.0690
 6678TIP3    H119998   0.117   5.600   0.906  1.0488 -0.3848 -2.5269
 6678TIP3    H219999   0.252   5.647   0.955  0.0893 -0.8241  0.7611
 6679TIP3   OH220000   7.109   4.678   3.948  0.1902  0.4996 -0.8804
 6679TIP3    H120001   7.163   4.618   4.000 -0.6968 -0.2190 -0.7658
 6679TIP3    H220002   7.151   4.763   3.959  1.9551 -0.2091 -1.6994
 6680TIP3   OH220003   6.137   1.596   1.109 -0.5329  0.0494 -0.3150
 6680TIP3    H120004   6.167   1.639   1.030 -1.4044 -0.9566 -1.2248
 6680TIP3    H220005   6.175   1.508   1.106  1.0621  0.6111  1.4118
 6681TIP3   OH220006   1.133   1.482   0.424 -0.0709 -0.3879  0.6847
 6681TIP3    H120007   1.119   1.434   0.506  4.0969  0.9094  2.3990
 6681TIP3    H220008   1.102   1.570   0.442  0.7381 -0.1313  0.8356
 6682TIP3   OH220009   6.979   1.510   3.972 -0.0485 -0.1566 -0.2979
 6682TIP3    H120010   7.017   1.497   4.059 -1.7803 -0.0751  0.5178
 6682TIP3    H220011   6.884   1.498   3.985 -0.2622 -1.0988 -2.3697
 6683TIP3   OH220012   4.002   6.377   4.668 -0.1075  0.2060 -0.3348
 6683TIP3    H120013   4.004   6.284   4.692 -0.6200  0.2552 -0.0961
 6683TIP3    H220014   4.035   6.422   4.746 -1.4007  0.3375  0.1535
 6684TIP3   OH220015   1.264   4.678   1.047  0.0650 -0.1037  0.1902
 6684TIP3    H120016   1.194   4.625   1.009  0.9173 -2.2893  1.4764
 6684TIP3    H220017   1.229   4.707   1.131 -0.3905  1.4493 -0.4985
 6685TIP3   OH220018   0.995   2.166   3.653 -0.0169  0.8810 -0.1546
 6685TIP3    H120019   1.060   2.117   3.703 -1.0304 -0.0131  0.3342
 6685TIP3    H220020   0.939   2.206   3.720  0.3773  2.1542 -0.5607
 6686TIP3   OH220021   5.652   1.834   4.748 -0.1180 -0.0745  0.2589
 6686TIP3    H120022   5.704   1.810   4.825 -0.5948 -0.6925  0.3975
 6686TIP3    H220023   5.653   1.929   4.746  3.7467  0.0426 -1.5709
 6687TIP3   OH220024   6.154   3.784   4.688  0.0155 -0.0986 -0.2857
 6687TIP3    H120025   6.243   3.777   4.651  0.6659  0.0445  1.1692
 6687TIP3    H220026   6.161   3.740   4.773 -1.8770 -1.9997 -1.0304
 6688TIP3   OH220027   3.202   6.674   0.822 -0.1663  0.0677  0.6538
 6688TIP3    H120028   3.233   6.688   0.911 -1.9381  0.4567  1.2600
 6688TIP3    H220029   3.150   6.593   0.826 -1.6028  0.9335  0.3893
 6689TIP3   OH220030   5.227   6.343   1.990 -0.2382 -0.0057  0.1900
 6689TIP3    H120031   5.292   6.390   2.042 -0.4193 -0.8865  1.2549
 6689TIP3    H220032   5.256   6.354   1.899  1.8287 -1.0075  0.6849
 6690TIP3   OH220033   4.136   6.521   3.871  0.1944 -0.2070  0.1161
 6690TIP3    H120034   4.087   6.500   3.791  0.0690  0.0296  0.1299
 6690TIP3    H220035   4.069   6.523   3.940  0.6329 -3.0018  0.7199
 6691TIP3   OH220036   2.912   2.149   4.267 -1.1174 -0.3005  0.3452
 6691TIP3    H120037   2.822   2.152   4.236 -0.9911  0.5012  0.0359
 6691TIP3    H220038   2.956   2.220   4.221  0.2474 -2.0828 -1.2855
 6692TIP3   OH220039   4.659   4.034   1.773 -0.5272 -0.1043 -0.2166
 6692TIP3    H120040   4.589   4.056   1.835 -0.2498 -1.6894  0.7311
 6692TIP3    H220041   4.740   4.046   1.822 -0.2023  0.3688 -0.8591
 6693TIP3   OH220042   5.639   4.430   1.240 -0.4287 -0.8392 -0.4364
 6693TIP3    H120043   5.644   4.526   1.234 -3.6292 -0.4922  0.6325
 6693TIP3    H220044   5.729   4.401   1.225  0.4538  2.2287 -2.1007
 6694TIP3   OH220045   6.475   6.718   3.968 -0.1224  0.0550 -0.4141
 6694TIP3    H120046   6.474   6.625   3.946 -1.4613 -0.2035  0.6072
 6694TIP3    H220047   6.453   6.721   4.061 -0.4140  1.4109 -0.5027
 6695TIP3   OH220048   2.841   4.115   5.061  0.6177  1.0975 -0.4729
 6695TIP3    H120049   2.773   4.049   5.077  0.7926  1.1963  0.8059
 6695TIP3    H220050   2.793   4.198   5.055  0.2967  0.8031 -3.0061
 6696TIP3   OH220051   6.970   4.135   1.781  0.1282  0.1038  0.1282
 6696TIP3    H120052   6.941   4.055   1.826  0.0364 -0.2989 -0.6230
 6696TIP3    H220053   6.897   4.158   1.724  0.1127  0.7983  0.4170
 6697TIP3   OH220054   1.884   0.249   4.227  1.3780 -0.0497  0.2589
 6697TIP3    H120055   1.934   0.268   4.148  1.9953 -0.3621  0.5665
 6697TIP3    H220056   1.936   0.183   4.273  0.8288 -0.1619  0.7327
 6698TIP3   OH220057   4.848   2.518   4.855  0.3952  0.1975 -0.1240
 6698TIP3    H120058   4.838   2.549   4.765  1.6219  2.1796  0.3822
 6698TIP3    H220059   4.942   2.511   4.868  0.2289 -0.2151  0.9858
 6699TIP3   OH220060   0.721   2.195   4.911 -0.0525  0.0653 -0.0165
 6699TIP3    H120061   0.749   2.281   4.941  1.2909 -0.9308  1.8283
 6699TIP3    H220062   0.790   2.135   4.941 -1.5022 -1.7985 -0.1702
 6700TIP3   OH220063   6.273   0.425   5.531  0.2337 -0.0696  0.5434
 6700TIP3    H120064   6.361   0.399   5.505  0.7411  2.2838 -0.4066
 6700TIP3    H220065   6.216   0.361   5.488  1.3559  0.3467 -1.7563
 6701TIP3   OH220066   2.312   2.429   5.282 -0.2427 -0.7291  0.0919
 6701TIP3    H120067   2.223   2.464   5.276 -0.3622 -1.1309 -0.5284
 6701TIP3    H220068   2.323   2.376   5.203  1.3711  1.1572 -1.0437
 6702TIP3   OH220069   3.133   1.343   3.372  0.4915  0.2041 -0.2243
 6702TIP3    H120070   3.150   1.326   3.279  2.0696  0.6086 -0.0289
 6702TIP3    H220071   3.067   1.412   3.371 -0.9967 -1.1475 -1.0168
 6703TIP3   OH220072   0.085   1.584   4.978 -0.1190  0.2979 -0.4006
 6703TIP3    H120073   0.016   1.622   5.032  0.4885  0.3767  0.3272
 6703TIP3    H220074   0.073   1.624   4.892 -1.2650 -0.0342 -0.4147
 6704TIP3   OH220075   5.907   2.364   4.587  0.1634  0.3943 -0.2979
 6704TIP3    H120076   5.925   2.278   4.548  2.0532  0.4425  0.3331
 6704TIP3    H220077   5.964   2.424   4.540  0.9888  0.7897  1.1382
 6705TIP3   OH220078   4.047   3.380   4.620 -0.6437 -0.1151 -0.1553
 6705TIP3    H120079   4.077   3.394   4.710  1.4047 -1.0623 -0.6264
 6705TIP3    H220080   4.001   3.296   4.623  0.3921 -0.7019 -0.1658
 6706TIP3   OH220081   4.062   0.754   0.987  0.1218 -0.0495  0.1528
 6706TIP3    H120082   4.070   0.756   0.892 -1.1348  0.9033  0.0424
 6706TIP3    H220083   3.973   0.721   1.003  0.6258 -1.0481  1.0291
 6707TIP3   OH220084   4.734   5.347   2.084 -0.3251  0.0439 -0.1948
 6707TIP3    H120085   4.751   5.254   2.076  0.5141  0.3138 -2.2298
 6707TIP3    H220086   4.666   5.365   2.018  2.6192  1.5060 -3.1548
 6708TIP3   OH220087   4.845   6.377   0.095 -0.6627  0.2535  0.0254
 6708TIP3    H120088   4.938   6.401   0.097 -0.4367 -0.6215  0.9553
 6708TIP3    H220089   4.806   6.437   0.032  0.3302  1.3781  0.4437
 6709TIP3   OH220090   4.145   4.018   5.040 -0.1028 -0.0835 -0.0646
 6709TIP3    H120091   4.217   3.988   4.984  0.3174  1.1856 -0.2514
 6709TIP3    H220092   4.066   3.991   4.995  0.2311 -1.7894  0.3023
 6710TIP3   OH220093   1.971   6.655   3.973  0.6204  0.6769  0.0786
 6710TIP3    H120094   1.901   6.714   4.000  0.0015 -0.1187  0.2466
 6710TIP3    H220095   1.981   6.670   3.879 -1.3584 -0.7880 -0.4486
 6711TIP3   OH220096   5.453   3.863   2.570 -0.1229  0.4367 -0.5059
 6711TIP3    H120097   5.533   3.904   2.535 -0.5782  1.6386 -0.2054
 6711TIP3    H220098   5.449   3.893   2.661  0.7737 -2.2340  0.5158
 6712TIP3   OH220099   2.726   5.757   1.091 -0.1857 -0.4537 -0.1010
 6712TIP3    H120100   2.725   5.661   1.091 -0.4660 -0.4556 -0.3886
 6712TIP3    H220101   2.791   5.780   1.024 -0.4588 -0.4488 -0.3694
 6713TIP3   OH220102   1.491   5.005   3.968  0.1358  0.4443 -0.3902
 6713TIP3    H120103   1.446   4.974   4.047 -0.6801  0.4298 -0.8548
 6713TIP3    H220104   1.564   4.944   3.957  0.8189  0.9963  0.8689
 6714TIP3   OH220105   2.671   2.954   2.250 -0.9486  0.2908 -0.3240
 6714TIP3    H120106   2.670   2.984   2.159  0.0847 -3.1461 -1.6156
 6714TIP3    H220107   2.760   2.970   2.280 -1.2192  1.1802  0.0578
 6715TIP3   OH220108   5.399   1.072   5.049 -0.0129  0.4895  0.1344
 6715TIP3    H120109   5.375   1.056   4.958  1.2673 -1.2521  0.0545
 6715TIP3    H220110   5.482   1.118   5.044  0.1362  0.2531  0.4232
 6716TIP3   OH220111   1.653   0.407   4.926 -0.0456  0.0527  0.3886
 6716TIP3    H120112   1.682   0.434   5.013  1.0045 -0.3668  0.1796
 6716TIP3    H220113   1.718   0.444   4.866 -0.3205 -0.3193 -0.1478
 6717TIP3   OH220114   2.408   0.705   2.575  0.5650  0.1335 -0.6387
 6717TIP3    H120115   2.493   0.672   2.545 -0.3877 -1.1777 -1.9824
 6717TIP3    H220116   2.347   0.633   2.562 -1.0077  1.4262 -0.8148
 6718TIP3   OH220117   7.133   1.347   3.814  0.3712  0.1266 -0.2517
 6718TIP3    H120118   7.062   1.395   3.857  0.0098 -1.2840  0.8012
 6718TIP3    H220119   7.213   1.391   3.843  0.0408  0.2283  0.5280
 6719TIP3   OH220120   7.094   4.622   3.401  0.5334 -0.4063 -0.2879
 6719TIP3    H120121   7.102   4.527   3.411 -0.2288 -0.3950  0.4971
 6719TIP3    H220122   7.053   4.652   3.482  0.5977  0.5745 -0.6040
 6720TIP3   OH220123   4.106   3.417   4.920 -0.0749  0.1454 -0.2822
 6720TIP3    H120124   4.171   3.456   4.978 -1.2866  1.5895  0.1503
 6720TIP3    H220125   4.070   3.344   4.971  0.2486  0.1740 -0.0062
 6721TIP3   OH220126   2.488   6.126   1.806 -0.4444  0.1324 -0.4614
 6721TIP3    H120127   2.502   6.041   1.764  2.5536  0.5978 -0.6433
 6721TIP3    H220128   2.437   6.106   1.884 -0.2466 -1.7751 -0.7578
 6722TIP3   OH220129   2.745   3.338   1.561  0.6593  0.4273 -0.4336
 6722TIP3    H120130   2.824   3.311   1.606  0.5083 -0.6500 -0.7995
 6722TIP3    H220131   2.698   3.257   1.543 -0.4426  1.0361 -0.3903
 6723TIP3   OH220132   5.027   0.759   5.161  0.1969  0.3379  0.5087
 6723TIP3    H120133   4.996   0.687   5.215 -2.6812  0.1367 -1.2026
 6723TIP3    H220134   4.984   0.837   5.196 -0.8969  0.3539 -0.7570
 6724TIP3   OH220135   6.541   6.794   5.509 -0.5704 -0.4000 -0.6537
 6724TIP3    H120136   6.453   6.755   5.509  0.1447 -2.0939 -0.1136
 6724TIP3    H220137   6.592   6.738   5.450  0.0816  0.7832 -1.2469
 6725TIP3   OH220138   3.094   0.066   0.988  0.4976 -0.0114  0.2634
 6725TIP3    H120139   3.010   0.031   1.018 -0.1926  2.0238  0.9101
 6725TIP3    H220140   3.126   0.119   1.061  1.3531  0.8720 -0.6983
 6726TIP3   OH220141   6.194   5.925   1.120 -0.2594 -0.9230  0.1172
 6726TIP3    H120142   6.210   6.010   1.080 -0.2667 -1.0608 -0.1796
 6726TIP3    H220143   6.170   5.945   1.210 -1.1913 -0.5603 -0.2031
 6727TIP3   OH220144   6.993   1.870   3.778 -0.1002  0.2208  0.3584
 6727TIP3    H120145   6.996   1.918   3.861 -0.9285 -0.0154  0.5356
 6727TIP3    H220146   7.007   1.937   3.711  4.7566 -0.0773  0.7176
 6728TIP3   OH220147   5.909   2.651   1.811  0.9255  0.9193  0.2060
 6728TIP3    H120148   5.940   2.571   1.853 -0.4397 -1.5684 -3.0834
 6728TIP3    H220149   5.818   2.632   1.788  0.6437  3.3186 -0.9557
 6729TIP3   OH220150   5.740   1.285   4.767  0.0458  0.2502 -0.1822
 6729TIP3    H120151   5.716   1.239   4.686  0.6225 -1.4824  0.5691
 6729TIP3    H220152   5.804   1.351   4.739  1.1110 -1.0698 -1.0422
 6730TIP3   OH220153   2.551   6.612   1.117  0.5324  0.3484 -0.0476
 6730TIP3    H120154   2.609   6.676   1.159  1.5590 -0.2979 -0.4353
 6730TIP3    H220155   2.592   6.594   1.033 -0.5059  0.2268 -0.5390
 6731TIP3   OH220156   3.097   4.668   0.918  0.0640 -0.5527 -0.1062
 6731TIP3    H120157   3.050   4.675   1.001  0.2771 -0.9538  0.0486
 6731TIP3    H220158   3.188   4.689   0.940  0.1368 -0.7440 -0.2214
 6732TIP3   OH220159   4.755   2.571   1.446 -0.1778  0.3498 -0.0673
 6732TIP3    H120160   4.769   2.490   1.495 -1.1872  0.0164 -0.3219
 6732TIP3    H220161   4.674   2.607   1.481  0.0700  1.0802 -0.2064
 6733TIP3   OH220162   6.826   6.313   4.689 -0.1823 -0.2141 -0.3230
 6733TIP3    H120163   6.862   6.400   4.676  1.1801 -0.5448  0.9508
 6733TIP3    H220164   6.732   6.324   4.678  0.0901  1.1011 -1.6590
 6734TIP3   OH220165   4.852   0.166   4.289 -0.2239 -1.2074 -0.5250
 6734TIP3    H120166   4.758   0.149   4.286 -0.2765 -1.0558  0.2108
 6734TIP3    H220167   4.859   0.261   4.291 -0.1176 -1.2353  1.1636
 6735TIP3   OH220168   6.790   1.827   2.861  0.3593  0.0542  0.1877
 6735TIP3    H120169   6.868   1.849   2.913  0.2484  0.3909  0.2118
 6735TIP3    H220170   6.754   1.750   2.905  0.8077 -0.2474  0.0405
 6736TIP3   OH220171   5.099   5.038   0.961  0.2084 -0.2096  0.3251
 6736TIP3    H120172   5.190   5.060   0.945  0.3591 -1.0329 -0.0323
 6736TIP3    H220173   5.056   5.121   0.977  0.8948  0.2464 -0.1577
 6737TIP3   OH220174   4.476   3.085   2.219 -0.0144 -0.0095 -0.0624
 6737TIP3    H120175   4.510   3.071   2.131 -0.9515 -1.0900 -0.2823
 6737TIP3    H220176   4.466   2.996   2.255  1.4215  0.4428  1.5668
 6738TIP3   OH220177   3.790   6.113   2.480 -1.0894 -0.0342  0.1931
 6738TIP3    H120178   3.741   6.037   2.511  1.3650 -0.4378  3.6902
 6738TIP3    H220179   3.833   6.148   2.558 -0.2318  3.6163 -1.6600
 6739TIP3   OH220180   4.592   3.717   5.412 -0.3230 -0.2756 -0.1458
 6739TIP3    H120181   4.576   3.630   5.376 -0.1562 -0.4724  0.2450
 6739TIP3    H220182   4.674   3.708   5.461  0.7206  0.5718 -1.6611
 6740TIP3   OH220183   5.126   6.653   3.388  0.3176 -0.5091  0.6724
 6740TIP3    H120184   5.157   6.737   3.355 -1.1533 -0.2301 -0.0684
 6740TIP3    H220185   5.120   6.597   3.311 -1.5188 -0.3726  0.6808
 6741TIP3   OH220186   5.397   1.495   0.369  0.1895  0.0039 -0.2690
 6741TIP3    H120187   5.458   1.498   0.442 -1.2776 -0.4959  1.0475
 6741TIP3    H220188   5.433   1.429   0.310  1.6851  0.8115 -0.2972
 6742TIP3   OH220189   2.735   5.434   4.910 -0.0757 -0.3361 -0.3179
 6742TIP3    H120190   2.763   5.362   4.966 -1.9294 -1.4105 -0.6630
 6742TIP3    H220191   2.721   5.393   4.824  1.2300  0.9632 -1.1901
 6743TIP3   OH220192   5.412   0.901   4.582  0.1743 -0.9071  0.5855
 6743TIP3    H120193   5.492   0.894   4.531  0.7272 -0.0666  1.3105
 6743TIP3    H220194   5.342   0.906   4.517  0.9550  1.3945 -0.1545
 6744TIP3   OH220195   2.932   5.383   4.536  0.4561  0.8242 -0.2460
 6744TIP3    H120196   2.943   5.452   4.601  1.0452  0.5835 -0.0843
 6744TIP3    H220197   2.919   5.303   4.586 -0.7754  0.8865 -0.4343
 6745TIP3   OH220198   1.319   1.302   3.124 -0.2663 -0.6671  0.1311
 6745TIP3    H120199   1.351   1.251   3.198  1.5746 -1.3108 -1.0519
 6745TIP3    H220200   1.263   1.241   3.075  0.1295 -0.8602 -0.0812
 6746TIP3   OH220201   2.374   4.412   1.329  0.2306 -0.6127 -0.2230
 6746TIP3    H120202   2.330   4.494   1.352  3.3723  1.0262  0.5242
 6746TIP3    H220203   2.326   4.379   1.253 -1.6579  1.4713 -0.0163
 6747TIP3   OH220204   1.717   6.518   2.785  0.2296 -0.0287  0.1305
 6747TIP3    H120205   1.808   6.545   2.772  0.3568 -0.0550  0.9232
 6747TIP3    H220206   1.669   6.563   2.716  1.0362 -1.1897 -1.2516
 6748TIP3   OH220207   4.633   5.902   5.628  0.1621  0.0592 -0.1132
 6748TIP3    H120208   4.703   5.900   5.693  0.5288 -0.8605 -0.5303
 6748TIP3    H220209   4.562   5.850   5.666  0.7466 -1.3124 -0.8467
 6749TIP3   OH220210   5.216   6.042   5.061 -0.5635  0.5307 -0.0275
 6749TIP3    H120211   5.257   6.128   5.066  3.8717 -1.3871  1.1329
 6749TIP3    H220212   5.136   6.051   5.113  0.8212  3.4314  1.8770
 6750TIP3   OH220213   1.017   4.407   0.281  0.1541  0.4073  0.0501
 6750TIP3    H120214   1.095   4.455   0.308 -0.7339  1.4214  0.9480
 6750TIP3    H220215   0.967   4.395   0.363 -0.9857  0.4831 -0.6096
 6751TIP3   OH220216   0.900   6.673   5.074  0.2612  0.2977 -0.0356
 6751TIP3    H120217   0.814   6.706   5.047  0.5311  0.3167 -0.9008
 6751TIP3    H220218   0.912   6.709   5.162 -0.3995  0.7065 -0.1009
 6752TIP3   OH220219   2.358   2.813   3.233  0.1705 -0.1173 -0.0402
 6752TIP3    H120220   2.269   2.845   3.246  1.2010  2.2382  2.1009
 6752TIP3    H220221   2.401   2.883   3.183  1.6518  0.4412  1.8945
 6753TIP3   OH220222   4.859   5.625   0.143  0.1803  0.1049  0.2638
 6753TIP3    H120223   4.800   5.610   0.069  0.2246 -0.5612  0.3552
 6753TIP3    H220224   4.832   5.709   0.180  1.3472  1.3835 -1.6321
 6754TIP3   OH220225   1.228   5.167   2.271  0.2415  0.2431 -0.2265
 6754TIP3    H120226   1.132   5.159   2.266 -0.0264  1.7184  1.4481
 6754TIP3    H220227   1.248   5.148   2.363  1.5068  0.3729 -0.4651
 6755TIP3   OH220228   4.903   0.951   5.293 -0.3187  0.0594  0.1485
 6755TIP3    H120229   4.933   0.965   5.383  1.9069 -0.9822 -0.3503
 6755TIP3    H220230   4.810   0.970   5.295  0.0341  1.9061  2.2555
 6756TIP3   OH220231   0.566   4.927   3.575 -0.0894  0.4360  0.0334
 6756TIP3    H120232   0.569   5.005   3.520 -1.4675  0.2628 -0.3183
 6756TIP3    H220233   0.477   4.893   3.564  0.2572 -0.7702  0.7566
 6757TIP3   OH220234   6.756   1.408   3.632  0.3814  0.0375 -0.8433
 6757TIP3    H120235   6.772   1.485   3.687  1.2786 -1.2827  0.8365
 6757TIP3    H220236   6.733   1.339   3.694  1.4543 -1.5232 -2.1070
 6758TIP3   OH220237   6.531   3.273   4.792 -0.2491  0.0582  0.1085
 6758TIP3    H120238   6.474   3.218   4.847 -0.5384  0.1671 -0.0808
 6758TIP3    H220239   6.605   3.295   4.849 -1.5185  1.8647  1.1564
 6759TIP3   OH220240   5.409   2.393   0.275  0.4891  0.0902 -0.1402
 6759TIP3    H120241   5.443   2.410   0.187 -1.4500  0.6063 -0.8238
 6759TIP3    H220242   5.414   2.477   0.320 -3.8837  1.4305 -1.7142
 6760TIP3   OH220243   2.269   4.669   4.870  0.1538 -0.1828 -0.4289
 6760TIP3    H120244   2.204   4.683   4.801  0.6275  0.7823 -0.6896
 6760TIP3    H220245   2.331   4.606   4.832 -0.2456 -0.5737 -0.4360
 6761TIP3   OH220246   3.606   3.468   5.400  0.7630 -0.0877 -0.0271
 6761TIP3    H120247   3.547   3.517   5.343 -1.0552 -2.3514 -0.2293
 6761TIP3    H220248   3.671   3.430   5.341  1.0044  0.4413 -0.1098
 6762TIP3   OH220249   2.818   0.733   2.004  0.0588 -0.0650  0.3666
 6762TIP3    H120250   2.905   0.709   1.971  0.9220  3.0257  0.0694
 6762TIP3    H220251   2.800   0.818   1.964 -2.7723 -0.2525  1.0735
 6763TIP3   OH220252   0.961   0.148   3.948 -0.2449 -0.2072 -0.1013
 6763TIP3    H120253   0.994   0.177   3.863 -1.2427  0.8055 -0.1768
 6763TIP3    H220254   0.999   0.210   4.011 -2.3573  1.3663 -0.2573
 6764TIP3   OH220255   5.497   3.560   3.175 -0.1631  0.0587 -0.2545
 6764TIP3    H120256   5.491   3.529   3.265 -0.7068 -0.5243 -0.4764
 6764TIP3    H220257   5.417   3.527   3.134  0.0641  0.3470 -0.9408
 6765TIP3   OH220258   4.156   2.934   4.321  0.0638  0.2109 -0.0147
 6765TIP3    H120259   4.173   3.005   4.384 -1.3331  0.7312 -0.2000
 6765TIP3    H220260   4.120   2.863   4.373  2.0014 -0.6248  0.2636
 6766TIP3   OH220261   1.230   3.270   0.469  0.0067 -0.7205 -0.7327
 6766TIP3    H120262   1.220   3.197   0.530 -0.8726 -0.9153 -1.0867
 6766TIP3    H220263   1.147   3.317   0.475  0.8325  0.6869  0.0241
 6767TIP3   OH220264   6.933   6.355   1.739 -0.0882  0.5268  0.0739
 6767TIP3    H120265   6.950   6.292   1.809 -1.0773  0.9384  0.7054
 6767TIP3    H220266   6.869   6.415   1.777 -0.2333  1.0665 -1.0126
 6768TIP3   OH220267   0.979   0.417   4.920  0.3506  0.3146  0.0087
 6768TIP3    H120268   0.991   0.492   4.862 -0.0371  1.0856  0.8847
 6768TIP3    H220269   0.908   0.444   4.979 -0.8696 -1.3605 -0.6297
 6769TIP3   OH220270   5.484   3.565   0.019 -0.2989  0.1804  0.2688
 6769TIP3    H120271   5.453   3.481  -0.014 -1.9376  1.1535 -0.8526
 6769TIP3    H220272   5.466   3.562   0.113 -2.7369  0.1844 -0.1337
 6770TIP3   OH220273   4.412   5.553   5.253  0.1861  0.0114  0.0918
 6770TIP3    H120274   4.448   5.626   5.304 -0.3837  0.3551  0.0078
 6770TIP3    H220275   4.488   5.498   5.233  0.3651 -0.3562  1.6583
 6771TIP3   OH220276   2.458   1.344   5.773 -0.4390 -0.4084  0.4278
 6771TIP3    H120277   2.425   1.255   5.768 -0.5711 -0.2900 -1.1549
 6771TIP3    H220278   2.553   1.335   5.768 -0.5183 -0.3722 -1.6824
 6772TIP3   OH220279   3.897   5.052   0.852 -0.1380  0.1968 -0.6329
 6772TIP3    H120280   3.842   5.073   0.776 -0.6930 -0.1724 -0.3310
 6772TIP3    H220281   3.866   4.967   0.882 -1.5466  1.3523  1.4573
 6773TIP3   OH220282   5.273   6.474   1.310 -0.3131 -0.2083  0.6616
 6773TIP3    H120283   5.277   6.382   1.335 -0.6453 -0.1175  1.0475
 6773TIP3    H220284   5.291   6.474   1.216 -2.1463 -0.8556  0.2784
 6774TIP3   OH220285   3.953   5.712   3.903 -0.3053 -0.0216  0.6166
 6774TIP3    H120286   3.947   5.755   3.818 -1.1436 -2.3061 -0.5512
 6774TIP3    H220287   4.003   5.773   3.957  0.6030  1.3345 -1.6191
 6775TIP3   OH220288   2.471   3.355   2.050 -0.1596  0.2712  0.0597
 6775TIP3    H120289   2.511   3.268   2.057 -2.8522 -1.1768 -1.1514
 6775TIP3    H220290   2.527   3.402   1.988  0.1326 -1.3961 -1.0101
 6776TIP3   OH220291   6.291   6.483   2.103  0.0250  0.1935 -0.6757
 6776TIP3    H120292   6.223   6.490   2.036 -0.3476  0.7123 -0.2653
 6776TIP3    H220293   6.274   6.399   2.146  3.4207 -2.8001 -4.5002
 6777TIP3   OH220294   4.878   3.743   5.178  1.0046 -0.0491 -0.0499
 6777TIP3    H120295   4.832   3.692   5.243  0.7595 -0.5186 -0.5821
 6777TIP3    H220296   4.830   3.826   5.173  1.8859  0.5794  1.4004
 6778TIP3   OH220297   4.761   4.798   5.381 -0.5141 -0.0281  0.4696
 6778TIP3    H120298   4.810   4.877   5.360 -0.1801  0.0755  1.5772
 6778TIP3    H220299   4.676   4.829   5.412 -0.6901 -0.1432  0.1098
 6779TIP3   OH220300   5.961   4.163   3.534 -0.1122  0.1198 -0.3490
 6779TIP3    H120301   5.891   4.122   3.584  1.2171 -1.2747  0.4686
 6779TIP3    H220302   6.033   4.100   3.537  1.1132  1.3941 -1.3390
 6780TIP3   OH220303   5.922   2.708   4.794 -0.4537  0.1198 -0.0745
 6780TIP3    H120304   5.907   2.614   4.803  1.1324 -0.1388 -0.0132
 6780TIP3    H220305   5.877   2.732   4.713 -1.8490 -0.4471  0.4996
 6781TIP3   OH220306   4.601   0.220   3.286 -0.5128  0.8820 -0.3670
 6781TIP3    H120307   4.537   0.286   3.259 -0.2962  1.2851  0.0853
 6781TIP3    H220308   4.665   0.218   3.215 -0.9088  0.6319 -0.7212
 6782TIP3   OH220309   1.480   2.588   0.876  0.0936 -0.4047 -0.2857
 6782TIP3    H120310   1.571   2.601   0.902 -0.2480 -0.0973  0.8273
 6782TIP3    H220311   1.471   2.493   0.867  0.5164 -0.4371 -0.3864
 6783TIP3   OH220312   6.687   2.992   3.495 -0.1020  0.1840 -1.0575
 6783TIP3    H120313   6.672   3.062   3.559 -0.6416 -0.9112  0.0358
 6783TIP3    H220314   6.640   3.022   3.417 -0.1851  1.1194 -0.6707
 6784TIP3   OH220315   4.024   4.078   2.592 -0.8418  0.1136 -0.0900
 6784TIP3    H120316   3.937   4.049   2.621 -0.4781 -0.0575  0.8591
 6784TIP3    H220317   4.053   4.010   2.531 -0.7975 -0.5479  0.6528
 6785TIP3   OH220318   1.313   0.033   3.807 -0.5941 -0.4136  0.1740
 6785TIP3    H120319   1.343   0.117   3.840  0.1023 -0.8721  0.7509
 6785TIP3    H220320   1.295   0.048   3.714 -0.7514  0.4296  0.3327
 6786TIP3   OH220321   2.221   0.125   4.921  0.0033  0.2608  0.1970
 6786TIP3    H120322   2.161   0.080   4.861  0.0266  0.3723  0.0889
 6786TIP3    H220323   2.187   0.106   5.008 -1.1587  1.6694  0.0868
 6787TIP3   OH220324   4.922   5.245   1.032 -0.2179  0.1936 -0.6536
 6787TIP3    H120325   4.898   5.208   1.117 -1.1015 -0.7035 -1.2748
 6787TIP3    H220326   4.978   5.320   1.054 -0.5182  0.0479  0.7176
 6788TIP3   OH220327   1.801   4.275   2.780 -0.2008 -0.2488 -0.4087
 6788TIP3    H120328   1.818   4.205   2.718  1.1106 -0.2531 -0.0758
 6788TIP3    H220329   1.817   4.356   2.731 -0.7233 -0.2036 -0.5107
 6789TIP3   OH220330   6.687   5.032   4.110  0.0484  0.3887  0.3212
 6789TIP3    H120331   6.644   5.114   4.084 -0.9350 -0.1448  0.2091
 6789TIP3    H220332   6.760   5.022   4.049 -1.6696 -0.3754 -1.7109
 6790TIP3   OH220333   0.372   2.912   0.564 -0.0948  0.4004 -0.4540
 6790TIP3    H120334   0.345   2.927   0.473 -0.7320 -1.2325 -0.5664
 6790TIP3    H220335   0.315   2.842   0.595  1.1199 -0.1181  0.7240
 6791TIP3   OH220336   0.788   2.024   5.394  0.2209  0.3141  0.4709
 6791TIP3    H120337   0.847   1.972   5.340  1.4808  1.7601  0.3653
 6791TIP3    H220338   0.790   1.983   5.480 -0.9767 -1.3853 -0.2542
 6792TIP3   OH220339   3.649   1.229   0.127 -0.5936  0.5488  0.4903
 6792TIP3    H120340   3.574   1.171   0.118 -0.1753 -0.0354  0.7030
 6792TIP3    H220341   3.611   1.315   0.142 -1.2247  0.1425  1.3031
 6793TIP3   OH220342   4.734   0.437   2.866 -0.0293 -0.5260  0.5986
 6793TIP3    H120343   4.672   0.366   2.852  1.3775 -1.2732 -2.4823
 6793TIP3    H220344   4.679   0.515   2.876 -1.5178 -1.6644  1.7427
 6794TIP3   OH220345   2.829   4.855   2.317 -0.1640  0.0776  0.0538
 6794TIP3    H120346   2.850   4.941   2.353 -2.1962  0.7887 -0.3179
 6794TIP3    H220347   2.733   4.852   2.317 -0.1513 -1.7636 -0.9496
 6795TIP3   OH220348   3.156   1.801   4.377 -0.4135  0.2447  0.5848
 6795TIP3    H120349   3.227   1.859   4.352 -1.1826  0.2243 -1.9241
 6795TIP3    H220350   3.194   1.743   4.443  1.9539  0.1177 -0.7813
 6796TIP3   OH220351   5.291   6.668   0.721 -0.4778  0.8294 -0.1483
 6796TIP3    H120352   5.347   6.634   0.652 -1.5240  0.5272 -0.8870
 6796TIP3    H220353   5.294   6.763   0.711  0.2587  0.8414  0.1271
 6797TIP3   OH220354   6.337   3.346   5.301  0.0357 -0.0177  0.2862
 6797TIP3    H120355   6.246   3.341   5.271 -0.0169  1.0290  0.2206
 6797TIP3    H220356   6.376   3.415   5.248  0.4070  0.6974  1.4491
 6798TIP3   OH220357   5.490   5.566   2.025  0.1777  0.4514 -0.1286
 6798TIP3    H120358   5.414   5.625   2.024 -0.2991 -0.1587 -0.5029
 6798TIP3    H220359   5.546   5.600   2.095 -0.7130  0.5626  0.5433
 6799TIP3   OH220360   6.872   3.520   0.683  0.3371 -0.1313 -0.1494
 6799TIP3    H120361   6.949   3.491   0.733  3.0534  2.6699 -2.3159
 6799TIP3    H220362   6.830   3.585   0.740  0.4796 -0.5354  0.4264
 6800TIP3   OH220363   6.780   2.918   0.441 -0.0970  0.2297 -0.1924
 6800TIP3    H120364   6.722   2.966   0.500  0.1359 -0.0457  0.2657
 6800TIP3    H220365   6.807   2.842   0.491 -0.8191 -0.6318 -1.0663
 6801TIP3   OH220366   5.750   2.974   0.274 -0.4257  0.0182  0.1651
 6801TIP3    H120367   5.743   3.059   0.317 -2.1131 -0.6363  1.3370
 6801TIP3    H220368   5.665   2.963   0.230  0.4654 -0.2792 -1.5393
 6802TIP3   OH220369   3.635   3.061   4.402  0.0399  0.8539 -0.0873
 6802TIP3    H120370   3.558   3.065   4.346 -0.0623 -0.3873 -0.0626
 6802TIP3    H220371   3.704   3.105   4.351 -0.3662  0.8545 -0.6449
 6803TIP3   OH220372   7.236   3.863   4.657  0.1481  0.4436 -0.4860
 6803TIP3    H120373   7.206   3.820   4.737  0.1915  0.8561 -0.2463
 6803TIP3    H220374   7.159   3.906   4.622  0.4001  1.3073  0.0043
 6804TIP3   OH220375   6.676   1.818   1.483 -0.7859  1.0422 -0.0406
 6804TIP3    H120376   6.617   1.743   1.471 -0.2424  0.4075  1.1370
 6804TIP3    H220377   6.657   1.875   1.408 -1.3011 -0.2044 -0.8952
 6805TIP3   OH220378   6.222   2.584   1.632  0.4661  0.5698  0.6783
 6805TIP3    H120379   6.184   2.667   1.662 -0.1710  0.3866  0.3857
 6805TIP3    H220380   6.151   2.540   1.587  1.3957  0.8689 -1.1884
 6806TIP3   OH220381   0.426   1.526   0.156 -0.0678 -0.5451 -0.1418
 6806TIP3    H120382   0.344   1.510   0.108  0.8821  0.4685 -2.2205
 6806TIP3    H220383   0.475   1.445   0.147 -0.3209 -0.7198  0.0346
 6807TIP3   OH220384   1.759   0.523   3.831  0.2158 -0.0461  0.1589
 6807TIP3    H120385   1.797   0.605   3.798  0.7164  0.0871  1.0473
 6807TIP3    H220386   1.777   0.459   3.761 -1.5214  0.8889 -1.2460
 6808TIP3   OH220387   0.828   5.818   4.878 -0.6640 -0.1563 -0.3875
 6808TIP3    H120388   0.836   5.906   4.914  0.1417  0.0200 -0.9839
 6808TIP3    H220389   0.824   5.761   4.955  0.9706  0.2244  0.0213
 6809TIP3   OH220390   5.519   4.317   0.627  0.2340  0.8773  0.1938
 6809TIP3    H120391   5.584   4.293   0.561 -0.4272  0.2489 -0.2493
 6809TIP3    H220392   5.534   4.255   0.699  1.9088  2.4819  1.3007
 6810TIP3   OH220393   4.956   1.104   0.498  0.3006 -0.5481 -0.1317
 6810TIP3    H120394   5.001   1.101   0.413 -2.3564 -1.6419 -1.6382
 6810TIP3    H220395   4.959   1.196   0.523  1.3765 -0.2401 -1.2602
 6811TIP3   OH220396   2.051   0.395   1.864  0.1033 -0.0689  0.2727
 6811TIP3    H120397   2.100   0.469   1.900  2.4477 -1.3557 -0.0733
 6811TIP3    H220398   2.059   0.404   1.769  0.9101 -1.0425  0.2322
 6812TIP3   OH220399   2.888   6.098   3.692 -0.0740 -0.2066  0.1357
 6812TIP3    H120400   2.964   6.039   3.686  0.2194  0.2925 -1.7449
 6812TIP3    H220401   2.917   6.168   3.750  0.6546 -0.3825  0.0010
 6813TIP3   OH220402   1.898   0.461   0.879 -0.1949  0.0191 -0.3126
 6813TIP3    H120403   1.934   0.373   0.872 -1.4211 -0.6590  1.4260
 6813TIP3    H220404   1.817   0.458   0.828  0.3983  0.5488 -1.3281
 6814TIP3   OH220405   4.114   4.666   2.041  0.0704 -0.3577 -0.2259
 6814TIP3    H120406   4.129   4.742   2.097 -1.9161  2.0499 -2.6878
 6814TIP3    H220407   4.188   4.666   1.980 -0.6985  0.6809 -1.2181
 6815TIP3   OH220408   3.071   4.659   3.124 -0.3194 -0.3619  0.5605
 6815TIP3    H120409   3.069   4.714   3.203  0.4795  1.3937 -0.5657
 6815TIP3    H220410   3.140   4.596   3.141 -0.0193  0.1220  1.1958
 6816TIP3   OH220411   3.009   1.129   4.407  0.5603 -0.0304 -0.5921
 6816TIP3    H120412   3.037   1.038   4.407  0.4300 -0.1150  1.2122
 6816TIP3    H220413   2.915   1.126   4.386 -0.0520 -0.6230  1.8250
 6817TIP3   OH220414   0.079   5.231   0.042 -0.3956 -0.3084 -0.2611
 6817TIP3    H120415   0.059   5.306  -0.014  0.6225 -0.1954 -0.4876
 6817TIP3    H220416  -0.007   5.191   0.060 -0.7459 -0.3768 -1.9070
 6818TIP3   OH220417   6.538   2.511   5.392  0.1730 -0.2718 -0.1835
 6818TIP3    H120418   6.508   2.555   5.313  0.6288  0.0337 -0.1916
 6818TIP3    H220419   6.462   2.461   5.422  0.1826 -0.8883 -1.1470
 6819TIP3   OH220420   3.753   5.932   5.275 -0.3459 -0.2090  0.1499
 6819TIP3    H120421   3.838   5.899   5.303 -0.4037 -1.1755 -0.7466
 6819TIP3    H220422   3.769   6.023   5.251  0.9296 -0.9062 -1.9168
 6820TIP3   OH220423   3.504   5.705   4.354 -0.0901  0.3414  0.5848
 6820TIP3    H120424   3.473   5.664   4.435  1.3191 -1.8071  0.1239
 6820TIP3    H220425   3.425   5.726   4.306 -0.9202 -1.3224  1.1400
 6821TIP3   OH220426   0.754   0.882   5.562  0.2658  0.6277 -0.3699
 6821TIP3    H120427   0.774   0.855   5.473 -1.6029 -0.7352 -0.4322
 6821TIP3    H220428   0.677   0.938   5.553  0.5263  1.1126  0.3262
 6822TIP3   OH220429   0.976  -0.010   1.657  0.0644  0.0292 -0.2852
 6822TIP3    H120430   0.917   0.011   1.729 -1.5720 -2.6880 -0.6801
 6822TIP3    H220431   0.983   0.071   1.606 -1.2744  1.1145  1.1877
 6823TIP3   OH220432   2.197   4.648   5.158  0.2867 -0.2710  0.1413
 6823TIP3    H120433   2.198   4.742   5.178  1.1667 -0.1249 -0.5847
 6823TIP3    H220434   2.192   4.643   5.063 -1.1832 -0.9800  0.2169
 6824TIP3   OH220435   4.614   3.794   1.023 -0.0550  0.3810 -0.2846
 6824TIP3    H120436   4.548   3.727   1.008  0.7527 -0.1094 -1.9702
 6824TIP3    H220437   4.595   3.861   0.957  1.0477  0.2603 -0.7528
 6825TIP3   OH220438   6.777   6.486   3.862  0.1668 -0.0334  0.5197
 6825TIP3    H120439   6.825   6.410   3.829 -1.6542 -1.1999  0.4662
 6825TIP3    H220440   6.735   6.523   3.784 -0.2091  0.1163  0.7938
 6826TIP3   OH220441   2.779   4.243   1.147  0.2572 -0.1167  0.0322
 6826TIP3    H120442   2.812   4.333   1.145  0.3468 -0.1543 -0.1610
 6826TIP3    H220443   2.819   4.205   1.226  0.3724 -0.0471  0.0078
 6827TIP3   OH220444   6.457   1.179   3.195 -0.2510 -0.0070 -0.2527
 6827TIP3    H120445   6.447   1.110   3.261  1.2852  1.1746  1.3112
 6827TIP3    H220446   6.544   1.164   3.157 -0.5946  0.0923 -1.0925
 6828TIP3   OH220447   6.226   2.687   1.265 -0.0623  0.1827 -0.2292
 6828TIP3    H120448   6.319   2.710   1.260 -0.1053  0.3846 -0.0978
 6828TIP3    H220449   6.181   2.770   1.283 -0.2845  0.1148 -0.4543
 6829TIP3   OH220450   2.146   6.027   1.652  0.3334 -0.2556  0.2050
 6829TIP3    H120451   2.208   6.034   1.725  0.8411  1.6579 -0.3265
 6829TIP3    H220452   2.179   6.091   1.588 -0.7406 -1.0717 -1.2069
 6830TIP3   OH220453   6.278   5.254   5.521 -0.2539  0.0105  0.5163
 6830TIP3    H120454   6.218   5.309   5.472 -1.1339 -0.7297  0.7336
 6830TIP3    H220455   6.232   5.236   5.603  0.7241  0.3204  1.1493
 6831TIP3   OH220456   5.979   2.174   1.154 -0.1728  0.3100 -0.4339
 6831TIP3    H120457   5.974   2.258   1.107  0.7349  1.1240  0.8574
 6831TIP3    H220458   6.071   2.149   1.149 -0.2095  0.0176  0.2268
 6832TIP3   OH220459   1.543   0.165   3.898 -0.6625 -0.7033 -0.1668
 6832TIP3    H120460   1.575   0.169   3.808 -0.4363  1.1578 -0.0396
 6832TIP3    H220461   1.579   0.083   3.932  3.5661  0.8572 -0.2322
 6833TIP3   OH220462   0.165   5.995   5.494 -0.2040 -0.0791 -0.3572
 6833TIP3    H120463   0.161   6.075   5.547 -1.8369 -0.3811  0.0353
 6833TIP3    H220464   0.165   5.925   5.559 -0.5294 -0.4202 -0.7248
 6834TIP3   OH220465   0.147   4.040   0.942 -0.3873 -0.1144  0.0876
 6834TIP3    H120466   0.091   4.115   0.920  0.8215  0.8931  0.3549
 6834TIP3    H220467   0.223   4.049   0.884  0.5497 -0.1712  1.2735
 6835TIP3   OH220468   1.043   6.588   4.279  0.1559 -0.0221  0.2382
 6835TIP3    H120469   1.008   6.502   4.303 -1.0518  0.4136  0.0861
 6835TIP3    H220470   1.138   6.579   4.290 -0.0269 -1.0912  1.1138
 6836TIP3   OH220471   0.428   2.585   2.605  0.1525  0.1778 -0.2793
 6836TIP3    H120472   0.467   2.514   2.554  2.4891 -0.7048  2.4780
 6836TIP3    H220473   0.387   2.542   2.680 -1.3926  1.5585 -0.2630
 6837TIP3   OH220474   5.750   1.828   5.408 -0.7249  0.2676  0.0312
 6837TIP3    H120475   5.679   1.768   5.383 -1.3097  1.2716 -0.8188
 6837TIP3    H220476   5.771   1.805   5.498 -1.0564 -1.0895 -0.2145
 6838TIP3   OH220477   5.803   2.610   5.796  0.4030 -0.0310 -0.0007
 6838TIP3    H120478   5.840   2.695   5.772 -0.7517  0.3575 -0.4986
 6838TIP3    H220479   5.841   2.591   5.882  1.1759  0.6739 -0.1701
 6839TIP3   OH220480  -0.013   0.315   5.472 -0.7057 -0.2683  0.4141
 6839TIP3    H120481   0.044   0.382   5.435  1.2990 -1.7277  0.6446
 6839TIP3    H220482  -0.006   0.327   5.566  0.7270 -1.5387  0.5113
 6840TIP3   OH220483   3.276   5.785   2.440  0.7564  0.1692  0.1814
 6840TIP3    H120484   3.228   5.748   2.366 -2.7366 -0.1018  2.3413
 6840TIP3    H220485   3.286   5.877   2.418  0.0880  0.0328 -0.7709
 6841TIP3   OH220486   1.104   0.297   2.032  0.6783  0.0008 -0.0977
 6841TIP3    H120487   1.124   0.390   2.019  2.8209 -0.5729 -1.3856
 6841TIP3    H220488   1.014   0.287   2.000  0.7954  1.4422 -0.9751
 6842TIP3   OH220489   5.975   6.741   3.022  0.0477 -0.1032 -0.2872
 6842TIP3    H120490   5.886   6.774   3.016 -0.1672 -0.9085 -2.1115
 6842TIP3    H220491   6.010   6.749   2.934  1.1789 -1.4343  0.0017
 6843TIP3   OH220492   5.813   3.067   0.749 -0.2735 -0.3267 -0.0187
 6843TIP3    H120493   5.759   3.050   0.671  0.4396 -0.1544 -0.5670
 6843TIP3    H220494   5.838   3.159   0.740  1.1220 -0.7200 -0.4388
 6844TIP3   OH220495   4.331   4.321   2.277 -0.4455  0.6218 -0.4990
 6844TIP3    H120496   4.367   4.382   2.342  1.3273 -1.6288  0.8094
 6844TIP3    H220497   4.237   4.340   2.275 -0.4020  1.4332  2.0066
 6845TIP3   OH220498   5.735   2.541   1.103 -0.0590 -0.1693  0.2963
 6845TIP3    H120499   5.737   2.549   1.199 -0.1898  1.2515  0.1999
 6845TIP3    H220500   5.780   2.619   1.072 -0.7842 -0.1797 -0.8188
 6846TIP3   OH220501   4.357   1.149   2.606  0.3176 -0.4538 -0.0700
 6846TIP3    H120502   4.374   1.240   2.632 -2.2635  0.2583 -0.6381
 6846TIP3    H220503   4.364   1.099   2.688  0.4957  0.4347  0.4717
 6847TIP3   OH220504   4.126   1.908   1.309 -0.2066  0.1532 -0.3409
 6847TIP3    H120505   4.218   1.894   1.284 -0.1357  1.7971 -1.1491
 6847TIP3    H220506   4.113   1.851   1.384  1.0336 -1.2458 -1.1258
 6848TIP3   OH220507   1.482   4.056   0.850  0.3408  0.3662  0.0284
 6848TIP3    H120508   1.423   3.982   0.840  0.1710  0.4966  0.0680
 6848TIP3    H220509   1.504   4.057   0.943 -1.1776  1.5243  0.4137
 6849TIP3   OH220510   1.294   2.820   4.168  0.1083 -0.1840  0.2790
 6849TIP3    H120511   1.234   2.884   4.130  0.4999  0.3937  0.6072
 6849TIP3    H220512   1.296   2.841   4.262 -1.1320 -1.8231  0.7124
 6850TIP3   OH220513   2.414   3.319   1.732  0.2188 -0.2925  0.0134
 6850TIP3    H120514   2.475   3.307   1.658  1.2891 -3.8299  1.2508
 6850TIP3    H220515   2.405   3.231   1.770 -0.0028  1.3418  4.3097
 6851TIP3   OH220516   2.485   6.150   4.176 -0.2353 -0.1955 -0.0114
 6851TIP3    H120517   2.437   6.083   4.225  0.6826 -0.1845  0.9325
 6851TIP3    H220518   2.481   6.228   4.232  1.7680 -0.4872  0.6218
 6852TIP3   OH220519   0.878   3.266   1.058  0.0798 -0.1147  0.2333
 6852TIP3    H120520   0.892   3.345   1.006  0.4749  0.7690  1.6467
 6852TIP3    H220521   0.934   3.277   1.134  2.1219 -2.9143 -0.6901
 6853TIP3   OH220522   1.770   2.863   0.571  0.4621 -0.0115  0.2986
 6853TIP3    H120523   1.802   2.777   0.543 -0.4182  0.5521 -2.8732
 6853TIP3    H220524   1.843   2.922   0.554 -0.0496  0.3255 -0.8471
 6854TIP3   OH220525   1.561   2.873   0.208  0.4233 -0.2793 -0.0472
 6854TIP3    H120526   1.496   2.809   0.240  0.4534 -0.5787 -0.5697
 6854TIP3    H220527   1.540   2.953   0.256 -0.4101 -0.3389 -0.2863
 6855TIP3   OH220528   4.209   0.187   3.781 -0.3750 -0.4288 -0.0487
 6855TIP3    H120529   4.268   0.260   3.762 -1.3803  0.4948  0.3085
 6855TIP3    H220530   4.253   0.111   3.742  1.5615  0.0274  1.0920
 6856TIP3   OH220531   0.480   6.135   1.173 -0.2915  0.9741 -0.6872
 6856TIP3    H120532   0.575   6.133   1.163 -0.1382 -1.3168  0.6235
 6856TIP3    H220533   0.448   6.063   1.119 -1.2823  1.5809 -0.9296
 6857TIP3   OH220534   0.234   2.079   0.645  0.7532  0.4251 -0.2214
 6857TIP3    H120535   0.208   2.034   0.564 -1.6648  0.4769  0.4256
 6857TIP3    H220536   0.329   2.081   0.642  0.7822 -0.6243 -2.4924
 6858TIP3   OH220537   5.919   5.722   0.253 -0.1032  0.1231 -0.0631
 6858TIP3    H120538   5.908   5.630   0.278 -0.7969 -0.1170 -1.1795
 6858TIP3    H220539   5.970   5.719   0.172 -1.9861  0.5401 -1.3463
 6859TIP3   OH220540   5.462   4.819   2.485 -0.0602 -0.2684 -0.2713
 6859TIP3    H120541   5.459   4.914   2.475  1.5341 -0.3514 -2.2005
 6859TIP3    H220542   5.496   4.806   2.573 -2.1264  0.8706  0.7732
 6860TIP3   OH220543   5.604   0.494   3.376  0.2471 -0.5878  0.0069
 6860TIP3    H120544   5.681   0.499   3.319 -0.1948  0.1876 -0.5297
 6860TIP3    H220545   5.638   0.455   3.457  1.4370  0.6526  0.1525
 6861TIP3   OH220546   1.217   0.053   5.142  0.0343 -0.1164 -0.3127
 6861TIP3    H120547   1.167  -0.015   5.096  2.0614 -0.2562 -2.4840
 6861TIP3    H220548   1.215   0.128   5.083 -1.2618  1.4333  1.5818
 6862TIP3   OH220549   4.717   5.301   5.616  0.1650 -0.1004  0.1104
 6862TIP3    H120550   4.621   5.304   5.622  0.2523  0.7719  1.6813
 6862TIP3    H220551   4.746   5.293   5.707  1.5896 -0.5737 -0.3668
 6863TIP3   OH220552   2.617   6.556   4.947  0.1903  0.2259  0.1058
 6863TIP3    H120553   2.569   6.474   4.934  0.5003  0.1393 -0.5333
 6863TIP3    H220554   2.606   6.576   5.040  0.0345 -0.4904  0.2443
 6864TIP3   OH220555   5.760   2.936   5.863  0.6226 -0.4120  0.3340
 6864TIP3    H120556   5.718   3.020   5.877 -0.3742 -1.1247  1.7915
 6864TIP3    H220557   5.757   2.923   5.768 -0.7316  0.4210  0.2436
 6865TIP3   OH220558   5.756   0.525   2.574 -0.0666  0.0882 -0.3753
 6865TIP3    H120559   5.705   0.518   2.655 -0.3106  2.8063 -0.2123
 6865TIP3    H220560   5.697   0.566   2.512  0.7879 -0.0890 -1.3310
 6866TIP3   OH220561   0.997   5.842   5.140  0.3312  0.3041 -0.4979
 6866TIP3    H120562   0.989   5.921   5.086  1.0024  0.8081  0.1125
 6866TIP3    H220563   0.909   5.805   5.141 -0.8659  2.8585  1.8583
 6867TIP3   OH220564   1.751   4.881   5.137 -0.2192  0.5129  0.0421
 6867TIP3    H120565   1.663   4.846   5.123 -0.1226  0.5999 -0.7951
 6867TIP3    H220566   1.737   4.972   5.163 -0.3507  0.8123 -1.0414
 6868TIP3   OH220567   0.654   6.488   4.555  0.0751 -0.1837 -0.4800
 6868TIP3    H120568   0.664   6.473   4.649 -0.0039 -0.8898 -0.5761
 6868TIP3    H220569   0.693   6.410   4.514 -1.7369 -0.8747 -0.9777
 6869TIP3   OH220570   6.632   0.301   4.411 -0.4913 -0.1200  0.1501
 6869TIP3    H120571   6.668   0.369   4.468 -0.0063 -0.3218  0.0894
 6869TIP3    H220572   6.541   0.326   4.398 -0.3498  0.4433  0.2413
 6870TIP3   OH220573   0.711   2.004   2.281 -0.0346  0.6042  0.7984
 6870TIP3    H120574   0.689   1.913   2.304 -1.0029 -0.3832 -3.2653
 6870TIP3    H220575   0.807   2.003   2.271 -0.0899 -0.1652  0.2250
 6871TIP3   OH220576   1.600   0.934   4.035  0.1802 -0.5889 -0.0746
 6871TIP3    H120577   1.682   0.936   3.986  0.1487  1.7642 -0.1388
 6871TIP3    H220578   1.622   0.969   4.121 -0.7644  0.3512 -0.1827
 6872TIP3   OH220579   0.614   6.671   1.330 -0.0300  0.0510 -0.2811
 6872TIP3    H120580   0.627   6.758   1.367 -0.2299  0.6439 -1.5629
 6872TIP3    H220581   0.561   6.625   1.395  2.6288 -0.1899  1.8870
 6873TIP3   OH220582   2.030   1.649   4.030 -0.5626  0.0087 -0.0436
 6873TIP3    H120583   1.955   1.701   4.056 -1.0009 -0.7064  0.1543
 6873TIP3    H220584   2.101   1.713   4.017 -0.1463  0.3939  3.3551
 6874TIP3   OH220585   5.470   6.628   0.490  0.2351 -0.3241  0.0838
 6874TIP3    H120586   5.508   6.673   0.415  0.3010  0.3528  0.5157
 6874TIP3    H220587   5.404   6.569   0.452 -0.3694  0.6725 -0.4342
 6875TIP3   OH220588   3.104   0.493   3.781  0.0568 -0.2478  0.2926
 6875TIP3    H120589   3.070   0.579   3.803  1.3688  1.1335 -2.5724
 6875TIP3    H220590   3.027   0.436   3.778 -0.9988  1.1189  0.9337
 6876TIP3   OH220591   4.260   4.584   2.361 -0.7219 -0.1180 -0.3215
 6876TIP3    H120592   4.189   4.595   2.424  0.1139  0.0413  0.6213
 6876TIP3    H220593   4.246   4.654   2.297 -0.6665  0.7446  0.5897
 6877TIP3   OH220594   4.813   1.419   5.090 -0.0171  0.3452  0.5529
 6877TIP3    H120595   4.896   1.452   5.056 -0.3201 -1.7816 -2.6283
 6877TIP3    H220596   4.838   1.343   5.142  0.0547 -0.7851 -1.0718
 6878TIP3   OH220597   5.770   0.294   4.773  0.4337  0.5979 -0.5041
 6878TIP3    H120598   5.766   0.295   4.677  1.2720  0.6271 -0.5457
 6878TIP3    H220599   5.678   0.292   4.801  0.1554 -1.5811 -1.3396
 6879TIP3   OH220600   5.860   3.987   1.076  0.2523  0.4451  0.3070
 6879TIP3    H120601   5.908   4.032   1.146  0.2419  1.2052 -0.1611
 6879TIP3    H220602   5.926   3.931   1.035  0.3019  0.1296  0.8021
 6880TIP3   OH220603   4.984   1.295   1.307  0.2309 -0.3344  0.3751
 6880TIP3    H120604   5.008   1.233   1.375 -0.3220  0.0948  0.9761
 6880TIP3    H220605   5.068   1.323   1.269  0.7178  0.9597  2.2721
 6881TIP3   OH220606   1.954   3.582   0.346 -0.4891 -0.2002 -0.4747
 6881TIP3    H120607   1.905   3.549   0.270 -1.8907 -3.9144  1.7427
 6881TIP3    H220608   1.888   3.617   0.405  0.1194 -0.5510  0.4501
 6882TIP3   OH220609   1.313   1.340   2.685  0.6554  0.0562 -0.5629
 6882TIP3    H120610   1.347   1.396   2.754  0.6624 -2.3076  1.4716
 6882TIP3    H220611   1.218   1.341   2.698  0.5906  0.2073 -1.0304
 6883TIP3   OH220612   2.370   3.418   1.085  0.1565  0.0177 -0.0387
 6883TIP3    H120613   2.398   3.469   1.008 -1.4268  1.6175  0.3854
 6883TIP3    H220614   2.330   3.339   1.048  2.4042 -0.9070 -0.7141
 6884TIP3   OH220615   1.352   0.727   5.377 -0.5722  0.5881 -0.4939
 6884TIP3    H120616   1.320   0.638   5.393 -1.5212  0.9187 -0.4713
 6884TIP3    H220617   1.340   0.772   5.461 -2.0596  1.2942 -1.0396
 6885TIP3   OH220618   5.252   1.701   4.994  0.5566 -0.0023  0.5004
 6885TIP3    H120619   5.218   1.757   4.925  2.9085 -0.7365 -1.3839
 6885TIP3    H220620   5.347   1.707   4.986  0.9246 -0.9291  3.0369
 6886TIP3   OH220621   6.195   5.537   1.200  0.0270 -0.1906 -0.4274
 6886TIP3    H120622   6.208   5.610   1.261 -0.6309  0.7863 -1.4105
 6886TIP3    H220623   6.197   5.459   1.255  0.7527  0.5669  0.6594
 6887TIP3   OH220624   1.033   2.042   4.709  0.2297  0.3705  0.1119
 6887TIP3    H120625   1.125   2.047   4.736  0.3707 -0.6237 -0.1355
 6887TIP3    H220626   0.983   2.057   4.789  0.6169  0.6647  0.2978
 6888TIP3   OH220627   2.146   4.289   3.412 -0.5063 -0.1315 -0.3703
 6888TIP3    H120628   2.172   4.197   3.404  0.5405  0.2135 -1.3440
 6888TIP3    H220629   2.208   4.335   3.355 -1.5451  1.0804 -0.5455
 6889TIP3   OH220630   1.302   3.277   0.208  0.0114 -0.1332 -0.2545
 6889TIP3    H120631   1.267   3.291   0.296  0.1088 -0.8979 -0.0837
 6889TIP3    H220632   1.266   3.192   0.181  0.4228 -0.1629 -0.7332
 6890TIP3   OH220633   5.109   0.255   1.281  0.1103  0.0754  0.4789
 6890TIP3    H120634   5.042   0.292   1.224 -0.7669  0.8929  1.9762
 6890TIP3    H220635   5.169   0.327   1.299 -0.3188  0.1790  1.5652
 6891TIP3   OH220636   1.539   2.710   5.344 -0.6296  0.0342  0.2715
 6891TIP3    H120637   1.535   2.623   5.385  1.2988 -0.2897 -0.1111
 6891TIP3    H220638   1.612   2.703   5.282 -0.8523  1.7504 -0.2157
 6892TIP3   OH220639   0.069   0.081   2.787  0.7055 -0.3974  0.9480
 6892TIP3    H120640   0.024  -0.003   2.799  0.3678 -0.4934 -0.7379
 6892TIP3    H220641   0.026   0.120   2.710  1.5849  0.8299  1.0541
 6893TIP3   OH220642   1.786   1.347   4.007  0.0486 -0.0315  0.0984
 6893TIP3    H120643   1.692   1.335   4.020  0.1514  0.3601  1.3737
 6893TIP3    H220644   1.792   1.413   3.938 -0.5725 -1.3816 -1.3012
 6894TIP3   OH220645   6.165   5.527   2.686  0.3054 -0.0921  0.3388
 6894TIP3    H120646   6.071   5.536   2.701  0.4264 -0.8107  1.6459
 6894TIP3    H220647   6.187   5.599   2.627 -0.8540  0.8013  0.9551
 6895TIP3   OH220648   3.976   5.123   4.121 -0.3300  0.3012 -0.3027
 6895TIP3    H120649   3.997   5.066   4.195 -0.2106  0.5022 -0.1823
 6895TIP3    H220650   3.953   5.207   4.161  2.3200  1.2373 -0.5884
 6896TIP3   OH220651   0.299   4.968   1.235 -0.3370 -0.1463 -0.1559
 6896TIP3    H120652   0.340   5.048   1.269 -0.2482 -0.6351  0.9468
 6896TIP3    H220653   0.371   4.904   1.231 -0.7166 -0.6354  0.5651
 6897TIP3   OH220654   2.739   6.211   3.087 -0.6693  0.2465 -0.1230
 6897TIP3    H120655   2.739   6.123   3.126 -1.2005  0.7162  0.9849
 6897TIP3    H220656   2.711   6.197   2.997  1.5906 -1.0133 -0.7275
 6898TIP3   OH220657   6.348   1.929   3.341 -0.2296 -0.0273 -0.0717
 6898TIP3    H120658   6.437   1.962   3.327  0.0773 -1.3822 -1.5830
 6898TIP3    H220659   6.358   1.861   3.408 -0.2188  0.2193  0.1768
 6899TIP3   OH220660   4.828   6.612   2.762 -0.0482 -0.2520 -0.3065
 6899TIP3    H120661   4.788   6.525   2.759 -1.0452  0.0653  1.7526
 6899TIP3    H220662   4.802   6.653   2.680 -1.4665 -1.1252 -0.3312
 6900TIP3   OH220663   1.980   2.464   3.636  0.4087 -0.1017  0.4641
 6900TIP3    H120664   2.065   2.454   3.678  0.3730 -1.2554  0.2850
 6900TIP3    H220665   1.970   2.559   3.626  2.5445  0.0289 -1.2591
 6901TIP3   OH220666   1.620   0.818   3.653 -0.2662  0.5030  0.2616
 6901TIP3    H120667   1.580   0.732   3.669  2.4417 -0.6704  1.3807
 6901TIP3    H220668   1.679   0.831   3.728  0.1630  2.8941 -0.4092
 6902TIP3   OH220669   6.110   5.134   4.592 -0.2594 -0.4317 -0.0299
 6902TIP3    H120670   6.029   5.166   4.552 -0.4465 -0.6482  0.1719
 6902TIP3    H220671   6.099   5.152   4.685  0.8326  1.5150 -0.2330
 6903TIP3   OH220672   6.237   5.133   3.502 -0.0602  0.0546  0.0159
 6903TIP3    H120673   6.323   5.151   3.463 -0.0723  0.1409  0.0292
 6903TIP3    H220674   6.178   5.195   3.459  0.0951  0.7893  0.8431
 6904TIP3   OH220675   3.672   0.214   3.442  0.3651  0.0715 -0.0172
 6904TIP3    H120676   3.616   0.142   3.470  1.1002  0.1095  1.6703
 6904TIP3    H220677   3.681   0.269   3.520  1.6340  0.7950 -0.6387
 6905TIP3   OH220678   0.041   0.464   3.710  0.0041  0.1238  0.4446
 6905TIP3    H120679   0.104   0.501   3.649 -1.3549  0.8034 -0.6253
 6905TIP3    H220680  -0.025   0.422   3.655 -2.1807  2.2210  1.2301
 6906TIP3   OH220681   7.153   1.644   5.208  0.2821 -0.7746 -0.5632
 6906TIP3    H120682   7.195   1.651   5.294  1.5990  0.1814 -1.2329
 6906TIP3    H220683   7.065   1.678   5.221  1.2166  1.6353 -0.0560
 6907TIP3   OH220684   6.787   3.011   1.396 -0.1666 -0.1813 -0.0281
 6907TIP3    H120685   6.739   3.030   1.315 -2.0553 -0.8613  0.8761
 6907TIP3    H220686   6.875   2.986   1.367 -0.8313 -0.5032 -1.8626
 6908TIP3   OH220687   6.455   3.868   2.426 -0.1174 -0.0588  0.4273
 6908TIP3    H120688   6.419   3.784   2.400 -2.9871  1.2379 -0.2176
 6908TIP3    H220689   6.475   3.858   2.519 -1.7359 -1.0902  0.7128
 6909TIP3   OH220690   3.008   5.722   2.588  0.4767 -0.0440 -0.6308
 6909TIP3    H120691   2.968   5.674   2.516 -1.7004  0.3885  0.1923
 6909TIP3    H220692   3.096   5.744   2.558  0.0311 -0.8782 -2.6639
 6910TIP3   OH220693   6.164   0.350   0.987  0.1367 -0.0789  0.3550
 6910TIP3    H120694   6.174   0.270   0.935  1.8879  0.4694 -0.2151
 6910TIP3    H220695   6.168   0.421   0.924  0.7956  0.5328  1.0655
 6911TIP3   OH220696   2.725   6.559   0.199  0.0802  0.3544  0.4165
 6911TIP3    H120697   2.799   6.533   0.144  0.6213  0.3572  1.1202
 6911TIP3    H220698   2.714   6.486   0.260 -0.5350  0.3356  0.2878
 6912TIP3   OH220699   1.402   2.487   4.371 -0.0982  0.7210 -0.0661
 6912TIP3    H120700   1.399   2.443   4.286  1.2823 -0.7979  0.6280
 6912TIP3    H220701   1.316   2.468   4.410 -0.1037 -0.0275 -0.4267
 6913TIP3   OH220702   1.591   0.621   0.262 -0.1462 -0.0427 -0.2295
 6913TIP3    H120703   1.541   0.674   0.200 -1.6166  0.3509  1.2172
 6913TIP3    H220704   1.528   0.558   0.296  0.2400  0.5805  1.7909
 6914TIP3   OH220705   6.843   4.941   4.638 -0.0695  0.1162 -0.2379
 6914TIP3    H120706   6.845   4.979   4.550  2.2843  0.1883 -0.2233
 6914TIP3    H220707   6.750   4.924   4.655 -0.5929  0.0394 -2.7504
 6915TIP3   OH220708   1.208   2.341   3.503 -0.0534  0.0781  0.2482
 6915TIP3    H120709   1.135   2.306   3.452 -1.0188  1.2663  0.7434
 6915TIP3    H220710   1.278   2.278   3.492 -0.2627  0.2100 -2.4284
 6916TIP3   OH220711   2.791   1.792   2.022  0.1978 -0.4861  0.2205
 6916TIP3    H120712   2.830   1.819   1.939 -1.2449 -0.7051 -0.5542
 6916TIP3    H220713   2.819   1.701   2.032 -0.8933 -0.9714 -0.8502
 6917TIP3   OH220714   1.572   0.210   0.288 -0.7840  0.2230 -0.4253
 6917TIP3    H120715   1.494   0.161   0.314 -1.0405 -0.0731 -1.6773
 6917TIP3    H220716   1.620   0.150   0.231 -0.2033  0.8013 -0.5526
 6918TIP3   OH220717   2.471   4.969   4.505 -0.3780 -0.5195 -0.1893
 6918TIP3    H120718   2.466   4.881   4.467  0.1812 -0.8562  0.5030
 6918TIP3    H220719   2.559   4.974   4.542 -0.9101 -0.2036  1.0739
 6919TIP3   OH220720   0.321   3.848   0.711  0.2882  0.3587  0.3728
 6919TIP3    H120721   0.362   3.934   0.711 -0.9522  0.9862  1.6755
 6919TIP3    H220722   0.317   3.823   0.803 -0.4261 -0.5666  0.1087
 6920TIP3   OH220723   2.019   6.369   5.599  0.2020  0.0923  0.1534
 6920TIP3    H120724   2.037   6.302   5.665 -0.9823 -0.6519 -0.2604
 6920TIP3    H220725   1.970   6.436   5.647  0.4637  0.1670  0.3213
 6921TIP3   OH220726   1.020   0.689   4.922  0.6317 -0.2027 -0.5561
 6921TIP3    H120727   1.072   0.769   4.928  0.3064  0.0117 -0.5456
 6921TIP3    H220728   1.009   0.660   5.013  0.5786 -0.1475 -0.5453
 6922TIP3   OH220729   3.839   1.344   0.320  0.1233  0.0924 -0.1522
 6922TIP3    H120730   3.789   1.300   0.252 -0.1735  1.6497 -0.9746
 6922TIP3    H220731   3.924   1.298   0.320 -1.2853 -2.8251  1.5266
 6923TIP3   OH220732   0.322   4.000   3.196 -0.1423  0.9231 -0.0760
 6923TIP3    H120733   0.277   4.038   3.271  1.3211  0.0530  1.3270
 6923TIP3    H220734   0.386   4.066   3.170  0.1475  0.7586  0.2131
 6924TIP3   OH220735   1.585   2.472   5.468  0.1130  0.5518  0.9938
 6924TIP3    H120736   1.586   2.447   5.560 -1.0697  1.0667  1.1627
 6924TIP3    H220737   1.590   2.389   5.420  1.4058  0.3175  1.4986
 6925TIP3   OH220738   3.090   1.833   4.933  0.0140  0.8009 -0.1605
 6925TIP3    H120739   3.073   1.781   4.854 -1.0157  0.6506  0.1516
 6925TIP3    H220740   3.182   1.814   4.954  0.1192  0.3680 -0.9707
 6926TIP3   OH220741   0.019   4.924   4.006 -0.5144 -0.3673 -0.6100
 6926TIP3    H120742   0.077   4.977   3.952  0.0265  1.1251  1.2952
 6926TIP3    H220743   0.051   4.937   4.095 -2.1908 -1.6056  0.2322
 6927TIP3   OH220744   4.770   1.993   2.739  0.3144  0.6175  0.3912
 6927TIP3    H120745   4.846   1.975   2.683 -0.2205 -1.5081  0.2608
 6927TIP3    H220746   4.807   1.999   2.828  0.7843  0.9331  0.1819
 6928TIP3   OH220747   6.486   1.460   4.737  0.2508 -0.0586  0.0887
 6928TIP3    H120748   6.573   1.429   4.712 -0.3196 -1.4006 -0.2939
 6928TIP3    H220749   6.442   1.383   4.773 -0.6665  0.6832  0.5982
 6929TIP3   OH220750   3.978   0.890   4.021  0.6362  0.2003  0.1079
 6929TIP3    H120751   3.911   0.823   4.007  1.0112 -0.3773  0.9855
 6929TIP3    H220752   4.039   0.880   3.948  0.5033 -0.1752  0.0475
 6930TIP3   OH220753   0.530   3.526   0.823  0.1791 -0.3156 -0.3458
 6930TIP3    H120754   0.496   3.520   0.734  0.6089  1.4390 -0.6641
 6930TIP3    H220755   0.560   3.617   0.832  0.2567 -0.4736  1.5441
 6931TIP3   OH220756   7.180   4.208   0.819  0.0108 -0.3865 -0.4455
 6931TIP3    H120757   7.205   4.298   0.841  0.0274 -0.6156  0.5384
 6931TIP3    H220758   7.088   4.202   0.844 -0.0490 -0.5784 -0.7124
 6932TIP3   OH220759   5.637   4.550   3.664 -0.4820 -1.0192 -0.2339
 6932TIP3    H120760   5.603   4.548   3.754  0.5350  1.2500  0.2633
 6932TIP3    H220761   5.729   4.526   3.673 -0.0867  0.3224 -0.4623
 6933TIP3   OH220762   2.619   1.592   4.244  0.3482 -0.3693  0.5473
 6933TIP3    H120763   2.587   1.655   4.179 -1.6151 -1.0791  0.7544
 6933TIP3    H220764   2.712   1.581   4.224  0.2287  0.9278 -0.8668
 6934TIP3   OH220765   6.295   2.246   2.493  0.5764  0.1163 -0.7916
 6934TIP3    H120766   6.389   2.244   2.512  0.6970 -0.4188 -1.4066
 6934TIP3    H220767   6.291   2.254   2.398 -0.0021  0.1301 -0.7660
 6935TIP3   OH220768   6.572   4.676   5.796  0.0082  0.4735  0.0805
 6935TIP3    H120769   6.602   4.594   5.835  0.9783  0.7335 -0.0838
 6935TIP3    H220770   6.494   4.700   5.846 -1.1936 -1.3218 -0.8560
 6936TIP3   OH220771   5.083   5.186   1.392  0.4622  0.3458  0.0731
 6936TIP3    H120772   5.019   5.132   1.346  1.7029 -1.1870  0.0754
 6936TIP3    H220773   5.136   5.225   1.322  0.9089 -0.1546  0.1301
 6937TIP3   OH220774   4.907   5.562   3.202  0.4227  0.9052  0.1918
 6937TIP3    H120775   4.922   5.656   3.213  3.1480  0.5753 -0.0899
 6937TIP3    H220776   4.956   5.539   3.124 -0.8933 -0.6494 -0.2340
 6938TIP3   OH220777   3.754  -0.001   2.452  0.4385  0.5790 -0.2988
 6938TIP3    H120778   3.692  -0.073   2.439 -0.2278  1.0555  0.2193
 6938TIP3    H220779   3.710   0.075   2.415  0.5906  0.9785  0.3355
 6939TIP3   OH220780   5.825   4.861   0.632  0.4486  0.0790 -0.1634
 6939TIP3    H120781   5.784   4.893   0.713 -0.8284 -1.0264 -0.3375
 6939TIP3    H220782   5.804   4.768   0.630  0.7857  0.0162 -1.5815
 6940TIP3   OH220783   2.576   2.699   1.267 -0.2729  0.5673  0.1419
 6940TIP3    H120784   2.619   2.739   1.192  0.3702 -1.3226 -0.5535
 6940TIP3    H220785   2.495   2.749   1.278  1.1740  3.0221  0.3386
 6941TIP3   OH220786   0.250   2.280   2.092 -0.2757  0.0741  0.1864
 6941TIP3    H120787   0.243   2.201   2.146 -0.6409  0.8651  1.3468
 6941TIP3    H220788   0.163   2.289   2.052 -0.5599  0.4133  0.8515
 6942TIP3   OH220789   3.004   4.616   2.288  0.0488  0.5802  0.5355
 6942TIP3    H120790   2.957   4.699   2.298  0.6169  0.9855 -0.0898
 6942TIP3    H220791   3.058   4.628   2.209 -1.2782 -1.0539 -0.6957
 6943TIP3   OH220792   0.311   6.001   2.786 -0.2062  0.8466  0.3629
 6943TIP3    H120793   0.349   5.982   2.872 -0.9252  0.2287  0.5585
 6943TIP3    H220794   0.228   5.952   2.786 -1.8063  3.3991  0.5803
 6944TIP3   OH220795   1.345   5.553   3.440 -0.3874  0.1147 -0.3028
 6944TIP3    H120796   1.435   5.579   3.457 -0.7821  1.3585  0.0208
 6944TIP3    H220797   1.315   5.613   3.371 -1.2074  0.2562  0.1647
 6945TIP3   OH220798   1.430   6.231   3.433 -0.5301 -0.1325 -0.3502
 6945TIP3    H120799   1.486   6.267   3.364 -1.4326 -0.3925 -1.2366
 6945TIP3    H220800   1.368   6.302   3.453 -1.2812 -0.5982 -0.9579
 6946TIP3   OH220801   6.165   1.915   5.488  0.1152 -0.2121 -0.0582
 6946TIP3    H120802   6.156   1.831   5.534  0.3113 -0.3885 -0.3408
 6946TIP3    H220803   6.162   1.980   5.558 -0.7288 -0.4093  0.0956
 6947TIP3   OH220804   1.384   4.724   0.231  0.3593  0.2945  0.2347
 6947TIP3    H120805   1.408   4.760   0.317  0.0538  0.5312  0.2241
 6947TIP3    H220806   1.460   4.741   0.176  0.3687  0.5789  0.3336
 6948TIP3   OH220807   6.403   0.661   2.464 -0.0602 -0.0488 -0.2710
 6948TIP3    H120808   6.431   0.572   2.441 -1.9530 -1.3352  1.9362
 6948TIP3    H220809   6.437   0.674   2.552 -1.4539  0.6116  0.1958
 6949TIP3   OH220810   5.173   0.533   5.032  0.1572 -0.2522  0.1789
 6949TIP3    H120811   5.198   0.602   4.970  0.4337 -0.0021  0.5674
 6949TIP3    H220812   5.122   0.579   5.099 -2.3616 -0.8967 -1.1501
 6950TIP3   OH220813   5.906   3.339   5.762  0.3124  0.3342  0.0530
 6950TIP3    H120814   5.869   3.427   5.771  0.9571  0.4167  2.3593
 6950TIP3    H220815   5.908   3.304   5.851 -1.1975 -2.5905 -0.9047
 6951TIP3   OH220816   5.551   5.653   0.577  0.4451  0.4572 -0.0029
 6951TIP3    H120817   5.566   5.741   0.613 -1.8509  0.5254  0.9256
 6951TIP3    H220818   5.457   5.639   0.585  0.1329 -0.6255 -3.5952
 6952TIP3   OH220819   1.881   4.916   0.690 -0.5903 -0.3977 -0.0322
 6952TIP3    H120820   1.798   4.901   0.737  0.4709  0.5944  2.3666
 6952TIP3    H220821   1.926   4.832   0.693 -0.7253 -0.4595  0.3926
 6953TIP3   OH220822   1.816   0.144   4.896 -0.3955  0.0459 -0.3566
 6953TIP3    H120823   1.853   0.194   4.824 -0.5508 -1.0400 -1.2066
 6953TIP3    H220824   1.722   0.161   4.891 -0.2499  1.3778  0.7094
 6954TIP3   OH220825   4.744   1.726   4.793 -0.2941  0.2782 -0.2427
 6954TIP3    H120826   4.676   1.673   4.835  0.0673  0.3688  0.4708
 6954TIP3    H220827   4.750   1.804   4.847  0.2490  0.3533 -0.4079
 6955TIP3   OH220828   0.713   1.595   5.624  0.6842 -0.0440 -0.2586
 6955TIP3    H120829   0.628   1.562   5.653  1.8761 -3.4001 -0.1413
 6955TIP3    H220830   0.703   1.612   5.531 -0.2331  0.0981 -0.1387
 6956TIP3   OH220831   1.059   5.845   1.532  0.0522  0.1208 -0.1111
 6956TIP3    H120832   1.052   5.764   1.583 -1.6269 -0.4207 -1.0848
 6956TIP3    H220833   0.984   5.897   1.560 -0.7021 -0.0404 -1.6808
 6957TIP3   OH220834   6.207   3.214   5.815 -0.9779  0.0191 -0.1947
 6957TIP3    H120835   6.166   3.130   5.792 -1.5812  0.4954 -0.9259
 6957TIP3    H220836   6.251   3.242   5.734 -0.4210  0.2063  0.1675
 6958TIP3   OH220837   5.900   1.234   0.846  0.3772  0.3998  0.3235
 6958TIP3    H120838   5.855   1.150   0.848  0.7803  0.1899  1.1593
 6958TIP3    H220839   5.992   1.212   0.859  0.7434  0.8288 -1.2730
 6959TIP3   OH220840   1.733   3.854   1.239 -0.2518 -0.1487  0.2737
 6959TIP3    H120841   1.788   3.932   1.244  1.3114 -1.1782 -0.1842
 6959TIP3    H220842   1.662   3.878   1.179 -0.0141  1.0414  0.4544
 6960TIP3   OH220843   5.546   1.477   0.610  0.4160 -0.1668  0.2206
 6960TIP3    H120844   5.631   1.443   0.583  0.1390 -2.3606  1.7669
 6960TIP3    H220845   5.566   1.554   0.662  1.3014  0.4375 -0.9767
 6961TIP3   OH220846   6.049   4.812   5.813 -0.4530 -0.5261  0.0460
 6961TIP3    H120847   6.119   4.794   5.751  0.4956  1.8595  0.3223
 6961TIP3    H220848   6.037   4.730   5.861  0.8535 -1.5279 -1.2645
 6962TIP3   OH220849   4.089   1.017   4.926 -0.5003 -0.0988  0.2349
 6962TIP3    H120850   4.099   0.949   4.860  0.9617  0.3355 -0.0248
 6962TIP3    H220851   4.086   1.099   4.877 -1.3089  0.0991  0.5998
 6963TIP3   OH220852   5.624   5.291   5.265  0.6496  0.3222 -0.0317
 6963TIP3    H120853   5.633   5.247   5.180 -0.5720 -0.7607  0.3566
 6963TIP3    H220854   5.530   5.293   5.281  0.8932 -0.7885  1.9274
 6964TIP3   OH220855   5.912   0.205   3.346 -0.1538 -0.6830  0.3466
 6964TIP3    H120856   5.934   0.138   3.282 -1.2975 -0.1116 -0.6935
 6964TIP3    H220857   5.997   0.236   3.379  0.4551 -0.9770 -0.9078
 6965TIP3   OH220858   1.032   2.207   1.169 -0.4752  0.4059 -0.2534
 6965TIP3    H120859   0.998   2.193   1.257  1.8287  1.4248  0.8925
 6965TIP3    H220860   1.068   2.122   1.143  0.0885  0.4362  0.4030
 6966TIP3   OH220861   2.177   1.442   3.321  0.1637  0.3131  0.9971
 6966TIP3    H120862   2.246   1.475   3.264  0.3439  0.3337  1.2253
 6966TIP3    H220863   2.194   1.485   3.406 -0.2833  0.5239  0.9816
 6967TIP3   OH220864   5.819   4.806   1.906 -0.4025  0.0989 -0.5114
 6967TIP3    H120865   5.771   4.729   1.937 -1.1863  0.5304 -0.6118
 6967TIP3    H220866   5.911   4.779   1.905 -0.3235  0.0264  2.0825
 6968TIP3   OH220867   6.940   3.657   5.225  0.0696 -0.0723  0.5193
 6968TIP3    H120868   6.900   3.617   5.302  0.5290 -2.2765 -0.3097
 6968TIP3    H220869   6.869   3.666   5.162  0.1350 -0.4143  0.3959
 6969TIP3   OH220870   5.835   5.838   5.491  0.3419 -0.1274  0.1938
 6969TIP3    H120871   5.833   5.776   5.564 -0.5114  1.3928  1.5171
 6969TIP3    H220872   5.831   5.924   5.532 -0.0965  0.7832 -1.6500
 6970TIP3   OH220873   4.868   4.854   3.865 -0.5251 -0.3724 -0.7946
 6970TIP3    H120874   4.821   4.937   3.853  0.7013  0.4301 -0.1826
 6970TIP3    H220875   4.957   4.872   3.834  0.5594 -0.5596  1.9348
 6971TIP3   OH220876   4.177   6.773   3.844  0.1895 -0.2184 -0.3411
 6971TIP3    H120877   4.174   6.679   3.859  1.9159 -0.0652  1.4262
 6971TIP3    H220878   4.129   6.811   3.917 -0.5661  0.2881 -1.0835
 6972TIP3   OH220879   3.707   6.111   0.519 -0.4225  0.3326  0.0454
 6972TIP3    H120880   3.640   6.156   0.571 -0.3463  0.3703  0.1115
 6972TIP3    H220881   3.768   6.181   0.495 -0.6209  0.3705 -0.3514
 6973TIP3   OH220882   4.724   2.621   2.662 -0.2544 -0.1103  0.2650
 6973TIP3    H120883   4.648   2.580   2.704 -0.7908  2.0214  1.5696
 6973TIP3    H220884   4.793   2.617   2.728  0.3763 -0.8662 -0.4267
 6974TIP3   OH220885   6.322   5.095   4.017  0.8801  0.1075  0.4755
 6974TIP3    H120886   6.241   5.062   3.979  0.2632  1.2322  0.7562
 6974TIP3    H220887   6.294   5.145   4.094  1.9264 -0.3088  1.1609
 6975TIP3   OH220888   0.975   3.417   4.874  0.5006  0.2940  0.1592
 6975TIP3    H120889   0.997   3.326   4.891  1.0376  0.2199 -0.8232
 6975TIP3    H220890   0.939   3.417   4.785  4.5245  1.5638 -1.6942
 6976TIP3   OH220891   0.799   4.978   1.483 -0.1878  0.1439  0.4587
 6976TIP3    H120892   0.854   5.046   1.521 -0.1051 -0.6169  1.7632
 6976TIP3    H220893   0.760   5.019   1.406  0.7844  1.2725  0.5338
 6977TIP3   OH220894   1.638   1.749   5.407  0.3303 -0.1155 -1.0448
 6977TIP3    H120895   1.718   1.791   5.376  1.1755 -0.0061  1.1392
 6977TIP3    H220896   1.664   1.704   5.487 -1.9660  0.6684  0.2237
 6978TIP3   OH220897   6.810   0.818   3.820 -0.3413  0.6023  0.2908
 6978TIP3    H120898   6.869   0.887   3.792  1.3192 -0.2840  1.4447
 6978TIP3    H220899   6.829   0.744   3.763  0.0801  0.1294  1.0334
 6979TIP3   OH220900   2.191   0.171   4.344  0.5948 -0.6702 -0.4550
 6979TIP3    H120901   2.250   0.096   4.342  0.6358 -0.7543  1.9005
 6979TIP3    H220902   2.154   0.175   4.255  0.2571 -3.7249 -0.5350
 6980TIP3   OH220903   1.380   0.343   5.256 -0.2708 -0.6232 -0.3248
 6980TIP3    H120904   1.383   0.308   5.168 -0.0713 -0.8097 -0.2430
 6980TIP3    H220905   1.471   0.352   5.283 -0.3292 -2.0235  0.4381
 6981TIP3   OH220906   2.475   3.776   3.945 -0.1754  0.5477 -0.4100
 6981TIP3    H120907   2.452   3.703   3.887 -0.4567  0.9350 -0.7931
 6981TIP3    H220908   2.407   3.775   4.012 -0.5190  0.8151 -0.7469
 6982TIP3   OH220909   1.833   2.317   2.644  0.2566  0.3580  0.2857
 6982TIP3    H120910   1.888   2.366   2.705  0.2062 -0.0420  0.6585
 6982TIP3    H220911   1.754   2.370   2.634  1.3110  1.6884 -1.4223
 6983TIP3   OH220912   5.654   3.361   2.289  0.4127  0.5940  0.1812
 6983TIP3    H120913   5.569   3.328   2.319 -0.1881  0.9057 -1.1393
 6983TIP3    H220914   5.717   3.296   2.320 -0.0257  1.2983  2.8762
 6984TIP3   OH220915   2.282   1.535   5.914 -0.0534 -0.1720 -0.0225
 6984TIP3    H120916   2.331   1.605   5.871 -2.1826  0.6207 -1.3217
 6984TIP3    H220917   2.298   1.458   5.859  0.9617 -0.3339  0.4707
 6985TIP3   OH220918   1.686   4.168   2.024 -0.0891  0.4879 -0.6127
 6985TIP3    H120919   1.730   4.134   2.101 -1.7428  1.6194  0.9189
 6985TIP3    H220920   1.757   4.192   1.964  1.2065 -1.2947  0.1329
 6986TIP3   OH220921   3.493   1.280   1.050 -0.0410 -0.1126 -0.4461
 6986TIP3    H120922   3.404   1.303   1.077 -0.2894  0.5126 -1.6943
 6986TIP3    H220923   3.482   1.206   0.991  0.2124  0.2227 -0.9264
 6987TIP3   OH220924   0.784   3.634   1.544 -0.7865  0.6082 -0.4744
 6987TIP3    H120925   0.805   3.653   1.635  0.2968 -1.1931 -0.2851
 6987TIP3    H220926   0.695   3.599   1.546  0.0488 -1.6627  0.3051
 6988TIP3   OH220927   1.875   4.654   0.839 -0.1152 -0.0531  0.9472
 6988TIP3    H120928   1.790   4.621   0.868  0.9158 -1.6717  2.2853
 6988TIP3    H220929   1.911   4.583   0.785  0.1664  0.8521 -0.0825
 6989TIP3   OH220930   2.855   5.502   2.154  0.5461 -0.1467  0.1778
 6989TIP3    H120931   2.770   5.524   2.193  0.6463 -0.5656  0.6573
 6989TIP3    H220932   2.840   5.419   2.110  1.2870 -1.6064  2.4653
 6990TIP3   OH220933   2.230   2.783   5.095 -0.1758 -0.0838 -0.4890
 6990TIP3    H120934   2.263   2.829   5.018  0.3961  0.2346 -0.0578
 6990TIP3    H220935   2.308   2.757   5.143 -0.5172 -0.7511 -0.2844
 6991TIP3   OH220936   4.317   0.092   0.964  0.1093  0.4996  0.2357
 6991TIP3    H120937   4.346   0.136   0.884 -1.7314  2.0753  0.3528
 6991TIP3    H220938   4.250   0.150   1.001 -2.5826 -2.4068  0.3764
 6992TIP3   OH220939   4.248   4.576   1.151 -0.4280 -0.0357 -0.2425
 6992TIP3    H120940   4.313   4.611   1.091  1.7602 -1.0878  1.3679
 6992TIP3    H220941   4.237   4.484   1.124  0.9243 -0.6544  1.1209
 6993TIP3   OH220942   1.160   0.663   3.992 -0.6074  0.7392  0.3377
 6993TIP3    H120943   1.148   0.758   3.981  1.0732  0.8339 -1.2897
 6993TIP3    H220944   1.075   0.625   3.970 -1.1889  1.8366  0.5938
 6994TIP3   OH220945   1.723   4.400   3.024  0.5430 -0.3343  0.4402
 6994TIP3    H120946   1.645   4.444   2.992  0.9023  0.1311  0.1916
 6994TIP3    H220947   1.694   4.355   3.104  0.1916  0.4506  0.7651
 6995TIP3   OH220948   3.388   2.353   3.298  0.1416  0.0535 -0.1636
 6995TIP3    H120949   3.391   2.438   3.342 -0.8730 -0.0087  0.0330
 6995TIP3    H220950   3.416   2.291   3.366 -1.5069 -0.0536  0.4686
 6996TIP3   OH220951   6.915   5.492   1.623  0.0157  0.6995  0.1361
 6996TIP3    H120952   6.874   5.406   1.634  2.3017 -0.7116 -1.5653
 6996TIP3    H220953   6.843   5.549   1.597 -1.1045 -1.4305 -1.8131
 6997TIP3   OH220954   5.136   5.423   5.808 -0.1588  0.1928  0.1842
 6997TIP3    H120955   5.123   5.517   5.792 -0.8178  0.0226 -0.2888
 6997TIP3    H220956   5.217   5.402   5.763 -1.2092  0.0441 -1.7301
 6998TIP3   OH220957   5.783   4.936   1.472 -0.5983 -0.6240  0.2590
 6998TIP3    H120958   5.846   4.898   1.533  0.2556 -0.8182 -0.7012
 6998TIP3    H220959   5.824   5.018   1.443 -0.0377 -1.4622 -1.4922
 6999TIP3   OH220960   2.030   2.727   1.474 -0.0393  0.5505 -0.4166
 6999TIP3    H120961   2.076   2.646   1.493 -2.0956 -0.7811 -0.7927
 6999TIP3    H220962   2.036   2.778   1.554  1.0379 -0.0877 -0.0790
 7000TIP3   OH220963   5.744   2.764   3.442 -0.2407 -0.3057  0.0634
 7000TIP3    H120964   5.670   2.800   3.393 -0.7856 -0.9488  0.4058
 7000TIP3    H220965   5.761   2.679   3.401 -1.5329 -1.4446  1.7736
 7001TIP3   OH220966   4.953   6.306   2.120 -0.3088 -0.0178  0.1983
 7001TIP3    H120967   5.049   6.309   2.126 -0.3708  1.9807  0.6541
 7001TIP3    H220968   4.935   6.309   2.026  0.0664  0.5831  0.1402
 7002TIP3   OH220969   5.760   1.452   0.312  0.6586  0.5464 -0.2241
 7002TIP3    H120970   5.684   1.403   0.280  2.1930 -0.9317 -1.8331
 7002TIP3    H220971   5.765   1.431   0.405  0.1550 -0.8191 -0.4808
 7003TIP3   OH220972   2.681   1.730   2.612 -0.3964  0.7522  0.2601
 7003TIP3    H120973   2.626   1.771   2.678 -0.3350 -1.1168  1.5447
 7003TIP3    H220974   2.635   1.747   2.529 -1.7809  1.0412  1.0520
 7004TIP3   OH220975   5.950   6.742   1.138 -0.3502 -0.1113  0.2141
 7004TIP3    H120976   5.909   6.807   1.080 -1.2823 -1.4106 -0.6285
 7004TIP3    H220977   6.001   6.686   1.079  1.5618  0.6301  1.0905
 7005TIP3   OH220978   6.269   2.055   3.099 -0.3650  0.3082 -0.2251
 7005TIP3    H120979   6.302   2.002   3.026  0.8940  0.0105  0.5482
 7005TIP3    H220980   6.287   2.003   3.177 -1.6309  0.6615  0.3351
 7006TIP3   OH220981   4.952   2.794   1.093  0.0694  0.5638 -0.1330
 7006TIP3    H120982   5.047   2.800   1.102 -0.0242  0.4844  1.1603
 7006TIP3    H220983   4.928   2.870   1.041  1.1605 -1.2805 -3.6800
 7007TIP3   OH220984   2.241   5.614   2.406 -0.2694  0.2101 -0.1454
 7007TIP3    H120985   2.271   5.645   2.321 -0.4098 -0.6709 -0.5233
 7007TIP3    H220986   2.147   5.632   2.406 -0.1043  1.1093  0.2249
 7008TIP3   OH220987   3.352   1.682   3.757  0.2690 -0.4658 -0.5169
 7008TIP3    H120988   3.374   1.776   3.755 -0.7611 -0.1884  0.3527
 7008TIP3    H220989   3.424   1.640   3.711  1.3647  0.6440  0.1078
 7009TIP3   OH220990   1.233   3.070   0.656 -0.3672 -0.1179 -0.3681
 7009TIP3    H120991   1.176   3.010   0.704 -2.1060  1.0042 -0.9302
 7009TIP3    H220992   1.309   3.018   0.632 -0.1769 -1.1333  2.1844
 7010TIP3   OH220993   5.765   5.468   3.950  0.5394  0.5730  0.2925
 7010TIP3    H120994   5.740   5.560   3.961  1.9922  0.7889  2.4736
 7010TIP3    H220995   5.860   5.468   3.957  0.6220 -1.0261 -0.4131
 7011TIP3   OH220996   4.340   6.677   1.312 -0.1508  0.1239  0.4806
 7011TIP3    H120997   4.257   6.713   1.279 -1.0363 -0.8520  1.5358
 7011TIP3    H220998   4.350   6.716   1.398 -0.7869 -1.5845  1.3677
 7012TIP3   OH220999   2.241   1.943   4.889  0.0806 -0.1824  0.0362
 7012TIP3    H121000   2.318   1.903   4.847  0.4011 -0.8337  1.1968
 7012TIP3    H221001   2.206   1.874   4.945 -0.2139  0.7167  0.9943
 7013TIP3   OH221002   0.243   6.489   2.786 -0.2476  0.8592 -0.2287
 7013TIP3    H121003   0.220   6.566   2.734  1.7638  2.1579  0.6636
 7013TIP3    H221004   0.312   6.446   2.736 -0.8259  0.0450 -0.3453
 7014TIP3   OH221005   4.167   1.384   1.025  0.3142 -0.1699 -0.7988
 7014TIP3    H121006   4.162   1.414   0.934 -1.8854 -0.6169 -0.8762
 7014TIP3    H221007   4.138   1.458   1.077  1.5946  0.0944 -0.4176
 7015TIP3   OH221008   2.949   3.103   4.742  0.1528  0.1718 -0.6176
 7015TIP3    H121009   2.944   3.132   4.833  0.9000  0.5355 -0.6898
 7015TIP3    H221010   2.977   3.012   4.747  1.6536  0.6121 -0.5193
 7016TIP3   OH221011   6.294   6.211   2.541  0.3061  0.3896 -0.6608
 7016TIP3    H121012   6.284   6.129   2.494 -0.1078  0.8399 -1.3893
 7016TIP3    H221013   6.367   6.255   2.498 -1.1699  1.5836 -2.1260
 7017TIP3   OH221014   4.367   0.332   5.536  0.2660  0.1323  0.0244
 7017TIP3    H121015   4.400   0.421   5.544 -1.9211  1.0005  0.1243
 7017TIP3    H221016   4.277   0.337   5.569  0.0027 -2.0485 -0.2375
 7018TIP3   OH221017   2.451   5.626   5.860 -0.3967 -1.0971 -0.0280
 7018TIP3    H121018   2.474   5.719   5.853 -1.6280 -0.5368  2.2550
 7018TIP3    H221019   2.366   5.619   5.816  0.3945 -1.4933 -1.5340
 7019TIP3   OH221020   3.699   5.410   0.130 -0.2681  0.0984 -0.2294
 7019TIP3    H121021   3.719   5.497   0.165  0.0250  0.5111 -1.3626
 7019TIP3    H221022   3.651   5.366   0.200  0.0061  0.9958  0.5477
 7020TIP3   OH221023   4.310   1.603   5.344 -0.1274  0.6175 -0.2439
 7020TIP3    H121024   4.220   1.581   5.319 -0.3064  1.6087 -0.5342
 7020TIP3    H221025   4.302   1.683   5.396  0.5906  0.7463 -0.3188
 7021TIP3   OH221026   6.254   1.310   5.706  0.1952  0.3794 -0.4909
 7021TIP3    H121027   6.313   1.246   5.745  1.1155  1.0276 -0.7759
 7021TIP3    H221028   6.312   1.372   5.662 -0.7068  1.0147 -0.8153
 7022TIP3   OH221029   5.552   5.729   5.149 -0.7131  0.1355  0.0691
 7022TIP3    H121030   5.629   5.691   5.190 -0.0359  1.5908  0.2077
 7022TIP3    H221031   5.497   5.654   5.126  1.1490 -1.0004 -0.8740
 7023TIP3   OH221032   5.906   1.960   1.002 -0.2042  0.2782 -0.4892
 7023TIP3    H121033   5.892   2.004   0.918 -1.1452  0.9150 -0.0204
 7023TIP3    H221034   5.937   2.029   1.060 -2.4489  0.5585  0.4662
 7024TIP3   OH221035   1.400   4.554   1.961  0.7450  0.3990 -0.1082
 7024TIP3    H121036   1.371   4.463   1.962 -0.4830  0.7814  0.5845
 7024TIP3    H221037   1.383   4.584   1.872 -2.0748  0.9182  0.5283
 7025TIP3   OH221038   3.707   5.691   3.751 -0.4961 -0.1759 -0.5810
 7025TIP3    H121039   3.726   5.601   3.726 -0.4920 -0.8149  1.5500
 7025TIP3    H221040   3.611   5.696   3.753 -0.4972 -0.1015 -0.7469
 7026TIP3   OH221041   2.572   0.414   1.098  0.5981 -0.4565 -0.3398
 7026TIP3    H121042   2.643   0.443   1.041  0.8126  0.9965  0.6194
 7026TIP3    H221043   2.549   0.491   1.150  0.1230 -1.5995  1.2388
 7027TIP3   OH221044   3.349   5.507   0.342 -0.8649  0.1245  0.0106
 7027TIP3    H121045   3.267   5.554   0.325  0.0843  0.6634 -4.5417
 7027TIP3    H221046   3.410   5.575   0.372 -1.0729  0.6262 -0.6665
 7028TIP3   OH221047   5.447   0.639   3.589 -0.4494 -0.2536  0.6640
 7028TIP3    H121048   5.495   0.583   3.528 -1.1534 -0.4761  0.2980
 7028TIP3    H221049   5.374   0.584   3.618 -0.9201  0.3400  0.6148
 7029TIP3   OH221050   6.465   0.360   2.436  0.2138 -0.6014  0.2794
 7029TIP3    H121051   6.481   0.266   2.444 -0.7602 -0.9622 -1.3529
 7029TIP3    H221052   6.543   0.395   2.393  0.4822 -0.7094  0.6829
 7030TIP3   OH221053   4.108   0.406   0.324 -0.4139 -0.3981 -0.1347
 7030TIP3    H121054   4.048   0.400   0.250  0.0830  1.3043 -0.6988
 7030TIP3    H221055   4.051   0.411   0.401 -0.9485 -3.7616 -0.1546
 7031TIP3   OH221056   6.274   5.074   5.198  0.1264  0.6008  0.4243
 7031TIP3    H121057   6.207   5.065   5.266 -0.2430 -0.8898 -0.1105
 7031TIP3    H221058   6.353   5.036   5.236  0.7684  2.4641  1.0998
 7032TIP3   OH221059   6.707   6.346   1.972  0.1866  0.1274  0.1608
 7032TIP3    H121060   6.784   6.373   2.022 -0.1077  1.5255 -0.0993
 7032TIP3    H221061   6.649   6.423   1.973 -0.2675 -0.1526 -1.4792
 7033TIP3   OH221062   4.007   1.073   3.176 -0.2711  0.1594 -0.0538
 7033TIP3    H121063   4.005   1.164   3.145 -0.5376  0.1713 -0.0080
 7033TIP3    H221064   4.031   1.080   3.268 -0.0495  0.1646 -0.1104
 7034TIP3   OH221065   5.497   6.496   2.383 -0.3419  0.4404  0.5595
 7034TIP3    H121066   5.500   6.490   2.288  1.6563 -0.3235  0.6206
 7034TIP3    H221067   5.542   6.578   2.403 -0.9147  0.6904  0.8559
 7035TIP3   OH221068   3.882   0.486   0.159  0.1480  0.4006 -0.7092
 7035TIP3    H121069   3.806   0.441   0.196  1.3539 -1.8303 -0.7335
 7035TIP3    H221070   3.874   0.471   0.065  1.5255 -1.5788 -0.5875
 7036TIP3   OH221071   1.816   3.456   0.147 -0.2551  0.1346  0.5302
 7036TIP3    H121072   1.794   3.377   0.196 -0.9475 -0.4070 -0.6121
 7036TIP3    H221073   1.733   3.482   0.106  0.7061 -0.7497 -2.1952
 7037TIP3   OH221074   0.274   4.940   5.148  0.6435  0.3974 -0.0185
 7037TIP3    H121075   0.305   4.885   5.076  1.8996  0.8731  0.1344
 7037TIP3    H221076   0.202   4.890   5.187  0.2811 -0.0993 -1.2640
 7038TIP3   OH221077   3.660   5.859   2.534  0.6020 -0.3878 -0.4134
 7038TIP3    H121078   3.657   5.818   2.448  2.5119  1.4256 -1.4253
 7038TIP3    H221079   3.748   5.840   2.567  0.3486  0.0554  0.5778
 7039TIP3   OH221080   7.039   4.326   2.528 -0.4504  0.0782  0.5795
 7039TIP3    H121081   7.018   4.284   2.445  0.4555 -0.3184  0.5369
 7039TIP3    H221082   7.017   4.418   2.514 -1.2758 -0.1580  0.2547
 7040TIP3   OH221083   3.692   4.656   4.576 -0.1651  0.4145  0.2914
 7040TIP3    H121084   3.666   4.748   4.585 -1.1061  0.2081 -0.1844
 7040TIP3    H221085   3.736   4.651   4.491 -0.0304  0.4373  0.3589
 7041TIP3   OH221086   1.385   5.802   3.928 -0.5461 -0.2379  0.1771
 7041TIP3    H121087   1.346   5.881   3.891  0.8552  0.1831 -0.4759
 7041TIP3    H221088   1.317   5.767   3.986 -1.0228  1.6929  0.8666
 7042TIP3   OH221089   0.637   0.163   5.410 -0.9429  0.1541 -0.0062
 7042TIP3    H121090   0.632   0.258   5.402  0.6559  0.1432 -1.5855
 7042TIP3    H221091   0.727   0.141   5.388 -1.3417 -1.7572  0.0727
 7043TIP3   OH221092   0.935   2.044   0.256 -0.1080  0.4562 -0.2258
 7043TIP3    H121093   0.876   2.078   0.189 -1.2159 -0.1667  0.4028
 7043TIP3    H221094   1.001   1.996   0.206 -1.1552 -0.3679 -0.8734
 7044TIP3   OH221095   4.543   1.806   0.074 -0.2147  0.1752  0.3553
 7044TIP3    H121096   4.534   1.834   0.165 -2.2352  0.6081  0.0786
 7044TIP3    H221097   4.477   1.738   0.063  0.3223 -0.2022 -0.6816
 7045TIP3   OH221098   0.239   3.169   4.606 -0.0798  0.0176 -0.2191
 7045TIP3    H121099   0.195   3.199   4.527 -0.8721 -1.4176 -0.3416
 7045TIP3    H221100   0.280   3.086   4.582  0.4011 -0.0141  0.6452
 7046TIP3   OH221101   3.123   0.503   0.654 -0.0396  0.0806 -0.4866
 7046TIP3    H121102   3.108   0.416   0.691  0.5624  0.6485  1.1962
 7046TIP3    H221103   3.168   0.487   0.572  0.2728 -1.1933 -0.0941
 7047TIP3   OH221104   3.686   5.690   0.236 -0.0455  0.7711 -0.3756
 7047TIP3    H121105   3.695   5.733   0.151  1.4995 -0.2574 -0.7615
 7047TIP3    H221106   3.602   5.721   0.269 -1.7492 -0.4405 -3.2227
 7048TIP3   OH221107   5.146   0.207   5.147 -0.3874  0.0722 -0.4052
 7048TIP3    H121108   5.085   0.169   5.210 -1.5596  0.4170 -1.3034
 7048TIP3    H221109   5.207   0.257   5.201 -0.8794 -0.2983  0.5174
 7049TIP3   OH221110   0.567   0.385   0.212 -0.1207 -0.4597 -0.6437
 7049TIP3    H121111   0.583   0.472   0.249  0.6424 -0.9123  0.1329
 7049TIP3    H221112   0.507   0.344   0.274 -0.4019 -0.5223 -0.9571
 7050TIP3   OH221113   2.511   5.250   3.592  0.1061 -0.3782 -0.2328
 7050TIP3    H121114   2.582   5.283   3.648 -1.1783  0.7767  0.7731
 7050TIP3    H221115   2.442   5.315   3.600 -1.9808 -2.5385  0.5984
 7051TIP3   OH221116   6.970   3.741   4.500 -0.4289  0.1848  0.6785
 7051TIP3    H121117   7.012   3.659   4.524  2.7438  1.5872  0.3703
 7051TIP3    H221118   6.931   3.725   4.414  2.4152 -0.3779 -0.6127
 7052TIP3   OH221119   6.070   4.692   0.923  0.1175 -0.1414  0.0489
 7052TIP3    H121120   6.036   4.619   0.975  0.2492 -1.0420 -1.0981
 7052TIP3    H221121   6.084   4.656   0.836  1.7446  0.8428 -0.1378
 7053TIP3   OH221122   0.359   2.395   2.796 -0.0424 -0.0076 -0.0595
 7053TIP3    H121123   0.401   2.309   2.801  0.9387  0.4774  0.4168
 7053TIP3    H221124   0.326   2.411   2.885 -1.7047 -0.5900 -0.5408
 7054TIP3   OH221125   4.283   2.980   5.856 -0.2474  0.3664 -0.0439
 7054TIP3    H121126   4.268   2.886   5.859 -0.7719  0.4467  2.6872
 7054TIP3    H221127   4.208   3.018   5.902  0.5804  2.0216  0.0368
 7055TIP3   OH221128   4.982   3.177   4.950  0.3344  0.7853  0.3842
 7055TIP3    H121129   5.000   3.260   4.906  0.2201  0.1365 -0.9356
 7055TIP3    H221130   5.047   3.171   5.019 -0.6534  2.7225  1.5760
 7056TIP3   OH221131   4.851   4.141   0.324  0.1365 -0.1856 -0.3717
 7056TIP3    H121132   4.798   4.066   0.349 -1.0158  0.3328 -1.2048
 7056TIP3    H221133   4.828   4.209   0.389 -0.0086 -0.0538 -0.5600
 7057TIP3   OH221134   4.546   0.367   2.422  0.4059  0.5049 -0.2399
 7057TIP3    H121135   4.561   0.329   2.335 -0.2845 -0.9549  0.2466
 7057TIP3    H221136   4.613   0.435   2.430  1.8084 -0.7124 -1.1076
 7058TIP3   OH221137   4.993   2.532   0.116  0.4406 -0.2270 -0.0065
 7058TIP3    H121138   4.937   2.601   0.152 -0.3726 -0.6179 -0.4912
 7058TIP3    H221139   4.986   2.460   0.178  0.3449 -0.3036 -0.1061
 7059TIP3   OH221140   2.435   1.231   3.413 -0.0194  0.3166 -0.4744
 7059TIP3    H121141   2.527   1.204   3.417  0.5201  2.1102  0.0172
 7059TIP3    H221142   2.403   1.192   3.331  0.9336 -0.9791 -0.2768
 7060TIP3   OH221143   4.542   3.225   0.796 -0.0140 -0.6521 -0.2294
 7060TIP3    H121144   4.521   3.241   0.888 -0.0455 -1.6453 -0.0525
 7060TIP3    H221145   4.459   3.239   0.750  0.1213  0.3713 -0.1922
 7061TIP3   OH221146   7.065   0.872   5.411 -0.7407  0.2348  0.0278
 7061TIP3    H121147   7.023   0.910   5.333  0.5056 -0.3545 -0.9723
 7061TIP3    H221148   7.035   0.782   5.412 -0.2700  0.0687 -0.1582
 7062TIP3   OH221149   5.639   2.056   5.363  0.0172 -0.4382 -0.0831
 7062TIP3    H121150   5.706   2.115   5.329  0.1388 -1.3719 -1.5564
 7062TIP3    H221151   5.685   1.973   5.376  0.1670  0.0441  3.2129
 7063TIP3   OH221152   6.343   1.258   4.820 -0.1103 -0.0091 -0.1297
 7063TIP3    H121153   6.364   1.165   4.828 -0.5583 -0.0584  0.6056
 7063TIP3    H221154   6.261   1.259   4.771  0.3313  0.0497 -0.8760
 7064TIP3   OH221155   4.316   1.162   5.909 -0.1845  0.5359 -0.4646
 7064TIP3    H121156   4.390   1.132   5.856  0.2224  0.6566  0.0274
 7064TIP3    H221157   4.239   1.128   5.863  0.1847  0.1795 -0.8362
 7065TIP3   OH221158   6.260   1.088   2.392 -0.0767  0.3159 -0.1153
 7065TIP3    H121159   6.194   1.141   2.437  0.3118  0.8387 -0.1489
 7065TIP3    H221160   6.309   1.047   2.463 -0.3246  0.0679 -0.0870
 7066TIP3   OH221161   3.705   0.547   5.733  0.0656 -0.1069  0.1155
 7066TIP3    H121162   3.785   0.583   5.694  1.1580 -2.2387  0.2873
 7066TIP3    H221163   3.727   0.534   5.825 -0.8058  0.1551  0.3676
 7067TIP3   OH221164   3.785   3.188   1.276  0.0182  0.0066  0.0100
 7067TIP3    H121165   3.869   3.216   1.311  0.1546  0.6027 -0.7617
 7067TIP3    H221166   3.723   3.255   1.306 -0.4335 -1.1223  1.6665
 7068TIP3   OH221167   1.380   4.317   1.005  0.1800  0.5762  0.6908
 7068TIP3    H121168   1.422   4.403   1.011  0.6103  0.3555  0.8766
 7068TIP3    H221169   1.451   4.258   0.980 -0.1510  0.3048  0.4031
 7069TIP3   OH221170   3.241   0.602   2.816  0.5386  0.1644 -0.1233
 7069TIP3    H121171   3.261   0.568   2.904 -1.3449  0.1737  0.3479
 7069TIP3    H221172   3.268   0.694   2.819 -0.1973  0.3657  0.7145
 7070TIP3   OH221173   6.786   5.013   4.367 -0.0207  0.1117  0.0736
 7070TIP3    H121174   6.753   4.989   4.280  0.2059 -1.1476  0.3112
 7070TIP3    H221175   6.872   5.051   4.351  0.2430 -0.5938 -0.2248
 7071TIP3   OH221176   1.048   2.690   5.182  0.1908  0.2349 -0.0336
 7071TIP3    H121177   0.993   2.655   5.252  1.2602  0.5825  0.9995
 7071TIP3    H221178   0.987   2.705   5.109 -1.0110  0.2706  0.9548
 7072TIP3   OH221179   3.222   3.481   4.821 -0.1602  0.2102  0.4224
 7072TIP3    H121180   3.273   3.432   4.757 -1.1357 -1.9280  1.1758
 7072TIP3    H221181   3.206   3.566   4.780 -0.8284 -1.0950 -2.2553
 7073TIP3   OH221182   0.280   5.317   3.975 -0.3423 -0.1982  0.3334
 7073TIP3    H121183   0.313   5.406   3.990 -0.2850 -0.3864  1.4013
 7073TIP3    H221184   0.344   5.260   4.016  0.7787 -0.9097 -2.2300
 7074TIP3   OH221185   1.188   4.062   2.596 -0.3744  0.1985 -0.7595
 7074TIP3    H121186   1.205   4.117   2.672  0.7956 -1.9506  0.6656
 7074TIP3    H221187   1.226   4.110   2.522  1.4617  0.8917  0.5585
 7075TIP3   OH221188   6.259   0.466   4.053 -0.3933  0.0174  0.1426
 7075TIP3    H121189   6.237   0.558   4.061 -1.1994  0.0370 -1.8665
 7075TIP3    H221190   6.174   0.421   4.046 -0.0222 -0.9145  1.2601
 7076TIP3   OH221191   4.351   6.612   2.136  0.4051 -0.2234  0.2511
 7076TIP3    H121192   4.268   6.574   2.108 -1.2738  1.2373  2.8256
 7076TIP3    H221193   4.393   6.543   2.188 -0.1271 -0.3223  0.5526
 7077TIP3   OH221194   4.342   0.313   0.423  0.0326 -0.0942 -0.2213
 7077TIP3    H121195   4.409   0.381   0.420  0.5748 -0.6307 -0.5233
 7077TIP3    H221196   4.281   0.336   0.354 -0.6404  0.9360  0.6809
 7078TIP3   OH221197   6.376   6.180   0.612  0.6174  0.0378 -0.1445
 7078TIP3    H121198   6.314   6.230   0.559  0.7659  1.1845  0.7476
 7078TIP3    H221199   6.329   6.099   0.633  0.0851  0.1246 -0.9408
 7079TIP3   OH221200   2.875   0.762   3.033 -0.1971  0.4203 -0.5859
 7079TIP3    H121201   2.834   0.683   2.996 -1.5915  1.4492 -1.3168
 7079TIP3    H221202   2.943   0.728   3.091 -2.7632 -1.4624  1.5993
 7080TIP3   OH221203   4.246   2.770   5.227 -0.1221 -0.4976  0.1081
 7080TIP3    H121204   4.261   2.801   5.316 -0.7251  0.1909 -0.0233
 7080TIP3    H221205   4.153   2.788   5.210 -0.2856 -1.5895 -0.2804
 7081TIP3   OH221206   6.813   1.584   5.763 -0.0886 -0.0673 -0.5127
 7081TIP3    H121207   6.848   1.647   5.700 -0.4078  0.8315  0.1756
 7081TIP3    H221208   6.791   1.637   5.840 -2.0585 -0.7260 -0.5555
 7082TIP3   OH221209   0.990   3.324   4.185  0.1096  0.6148 -0.5068
 7082TIP3    H121210   1.012   3.388   4.253 -0.7880 -0.4500  0.8641
 7082TIP3    H221211   1.033   3.243   4.214 -0.7727 -0.0054 -0.8704
 7083TIP3   OH221212   3.006   4.505   2.637 -0.8414 -0.3939  0.1883
 7083TIP3    H121213   2.969   4.515   2.724  1.6912 -1.1516  1.4440
 7083TIP3    H221214   3.040   4.591   2.614 -0.6914 -0.4108  0.3491
 7084TIP3   OH221215   5.688   0.488   1.492  0.1202 -0.2286 -0.3930
 7084TIP3    H121216   5.712   0.562   1.548 -0.3704 -0.7690  0.5548
 7084TIP3    H221217   5.606   0.456   1.529 -0.2942 -0.5153 -1.5243
 7085TIP3   OH221218   2.757   2.993   5.398 -0.0333 -0.2838 -0.1050
 7085TIP3    H121219   2.778   2.994   5.304 -1.0861  1.6396 -0.3761
 7085TIP3    H221220   2.748   2.900   5.420  1.5042 -0.8471 -1.5830
 7086TIP3   OH221221   3.976   5.936   1.392  0.1518 -0.1296 -0.1129
 7086TIP3    H121222   3.982   5.855   1.443 -0.1469  1.4242  2.5643
 7086TIP3    H221223   3.883   5.942   1.368  0.6368 -1.9293 -2.8717
 7087TIP3   OH221224   2.511   3.454   0.645  0.2940 -0.1698 -0.1441
 7087TIP3    H121225   2.425   3.412   0.640 -0.1554  0.5078  1.2659
 7087TIP3    H221226   2.567   3.401   0.589 -0.3346 -2.4679  1.2505
 7088TIP3   OH221227   2.904   0.302   3.774  0.2457 -0.3074  0.2205
 7088TIP3    H121228   2.930   0.297   3.866 -0.1211  1.9364  0.5227
 7088TIP3    H221229   2.811   0.328   3.778 -0.3304 -2.0598 -0.8154
 7089TIP3   OH221230   5.574   3.254   2.629 -0.6322  0.0288  0.1554
 7089TIP3    H121231   5.532   3.339   2.615  0.0571  0.2723 -0.4728
 7089TIP3    H221232   5.643   3.250   2.563  0.0221 -0.5757  0.8606
 7090TIP3   OH221233   6.220   4.133   5.701 -0.0180 -0.1095 -0.0603
 7090TIP3    H121234   6.244   4.041   5.687  3.9999  0.8369 -0.5401
 7090TIP3    H221235   6.171   4.133   5.783  0.6618 -2.5674  0.4159
 7091TIP3   OH221236   6.870   0.661   4.214 -0.5048 -0.2047 -0.2274
 7091TIP3    H121237   6.911   0.728   4.159  1.3021 -0.3983  0.8076
 7091TIP3    H221238   6.817   0.711   4.276  0.8290  0.3107  0.5348
 7092TIP3   OH221239   1.845   6.751   3.070  0.0532 -0.1542 -0.4516
 7092TIP3    H121240   1.890   6.744   3.155 -0.7182 -1.9295 -0.1398
 7092TIP3    H221241   1.914   6.739   3.005  1.2704  4.3309 -0.3221
 7093TIP3   OH221242   5.548   1.776   5.800 -0.5525  0.0910 -0.3405
 7093TIP3    H121243   5.630   1.757   5.754  0.1892 -0.8804  1.3106
 7093TIP3    H221244   5.533   1.869   5.785  0.3569  0.0857 -1.4179
 7094TIP3   OH221245   0.811   3.687   3.047 -0.2321  0.0639  0.1427
 7094TIP3    H121246   0.754   3.716   2.976 -0.4558 -1.1412 -0.2070
 7094TIP3    H221247   0.895   3.671   3.004  0.2957  1.4870  0.5886
 7095TIP3   OH221248   4.599   6.005   1.605  0.0657  0.3018 -0.1421
 7095TIP3    H121249   4.644   5.968   1.530 -2.2459  1.0161 -1.9993
 7095TIP3    H221250   4.669   6.044   1.658  1.8073 -0.4755 -1.7488
 7096TIP3   OH221251   2.930   6.121   4.546  0.0093  0.3795  0.1529
 7096TIP3    H121252   2.869   6.184   4.508  0.3228  1.3445  1.1966
 7096TIP3    H221253   2.996   6.174   4.590  1.0244 -0.6604 -0.0359
 7097TIP3   OH221254   1.622   5.464   0.437 -0.0582  0.1462 -0.0715
 7097TIP3    H121255   1.708   5.445   0.399 -1.2375 -1.6256 -2.0657
 7097TIP3    H221256   1.603   5.553   0.410  0.4464 -0.0393 -1.0962
 7098TIP3   OH221257   3.312   3.018   1.065 -0.6664 -0.0171  0.0197
 7098TIP3    H121258   3.402   3.049   1.059  0.0138 -1.4583  1.8893
 7098TIP3    H221259   3.263   3.074   1.005  1.2356  1.6591 -0.0507
 7099TIP3   OH221260   5.458   2.661   2.437 -0.0629  0.8282  0.1189
 7099TIP3    H121261   5.411   2.699   2.363 -1.8599 -3.2725 -1.1285
 7099TIP3    H221262   5.398   2.671   2.511 -0.2668  0.9202 -0.0590
 7100TIP3   OH221263   1.282   3.292   2.962 -0.1174  0.0382  0.5932
 7100TIP3    H121264   1.338   3.320   2.890 -0.1276  0.2477  0.6662
 7100TIP3    H221265   1.327   3.322   3.041 -0.7415  0.9613  0.6222
 7101TIP3   OH221266   1.945   1.151   4.952  0.3195  0.5701  0.1312
 7101TIP3    H121267   1.898   1.170   4.871  0.8823 -0.0438 -0.3551
 7101TIP3    H221268   1.981   1.235   4.980  2.4026  0.3699 -1.7365
 7102TIP3   OH221269   1.136   5.258   0.198  0.0633  0.5336 -0.6345
 7102TIP3    H121270   1.058   5.205   0.183 -0.2154  0.7505  0.0013
 7102TIP3    H221271   1.208   5.196   0.197 -0.0426  0.4000 -1.7854
 7103TIP3   OH221272   4.093   6.094   1.611 -0.1370 -0.4921  0.0756
 7103TIP3    H121273   4.186   6.080   1.596 -0.2096 -1.1440  0.1759
 7103TIP3    H221274   4.050   6.044   1.541 -0.4059  0.1573 -0.2306
 7104TIP3   OH221275   0.844   4.876   3.226 -0.8304  0.0206  0.2868
 7104TIP3    H121276   0.797   4.793   3.216 -2.6193  0.9512  0.5076
 7104TIP3    H221277   0.776   4.943   3.215  0.1503  1.4125  2.2191
 7105TIP3   OH221278   6.721   3.000   0.938 -0.0147 -0.0406  0.0750
 7105TIP3    H121279   6.730   3.044   0.854 -0.7639  1.2495  0.6199
 7105TIP3    H221280   6.760   2.914   0.926  1.2174  0.6538 -1.1551
 7106TIP3   OH221281   2.031   5.887   0.035 -0.2593  0.2116 -0.0552
 7106TIP3    H121282   1.969   5.830   0.081 -0.0163 -0.5851 -0.7052
 7106TIP3    H221283   2.095   5.911   0.102 -1.2665  1.0823  0.6396
 7107TIP3   OH221284   6.380   0.116   4.449  0.0379 -0.0020 -0.5923
 7107TIP3    H121285   6.457   0.082   4.404 -0.8380 -1.1048 -1.3103
 7107TIP3    H221286   6.353   0.192   4.397  0.6973  0.4804 -0.2547
 7108TIP3   OH221287   1.411   3.241   1.347  0.7575 -0.4832 -0.1070
 7108TIP3    H121288   1.469   3.307   1.308  0.9509 -0.4594  0.2231
 7108TIP3    H221289   1.392   3.181   1.275  2.4476 -1.3752  0.1547
 7109TIP3   OH221290   3.221   5.672   1.041 -0.5811  0.1787  0.0326
 7109TIP3    H121291   3.196   5.729   0.968  0.4430  0.8849  0.2041
 7109TIP3    H221292   3.168   5.701   1.115 -1.9034 -0.7949 -0.5085
 7110TIP3   OH221293   6.353   1.247   0.463 -0.3222 -0.4915 -0.6508
 7110TIP3    H121294   6.436   1.226   0.421 -0.8241  0.4357 -2.1583
 7110TIP3    H221295   6.323   1.326   0.420 -0.9183  0.4830  1.4234
 7111TIP3   OH221296   4.400   0.884   1.402 -0.8586 -0.0129  0.0801
 7111TIP3    H121297   4.348   0.895   1.481 -2.4094 -0.9175 -0.7783
 7111TIP3    H221298   4.338   0.895   1.330  0.6713  1.6276 -1.0687
 7112TIP3   OH221299   2.344   3.106   0.106  0.0627  0.1491  0.1803
 7112TIP3    H121300   2.287   3.116   0.030 -1.1432 -1.9803  0.7232
 7112TIP3    H221301   2.302   3.039   0.159  2.1259 -0.1673  1.5461
 7113TIP3   OH221302   7.153   3.731   4.203  0.4174 -1.0976  0.2902
 7113TIP3    H121303   7.214   3.697   4.138  1.4354  0.8012  0.1870
 7113TIP3    H221304   7.207   3.787   4.259 -1.0700 -0.0335  0.7096
 7114TIP3   OH221305   6.842   2.542   5.372 -0.3438 -0.1881  0.1737
 7114TIP3    H121306   6.821   2.622   5.421  1.9200  0.6655 -0.1021
 7114TIP3    H221307   6.758   2.508   5.344 -1.4223  1.8659  0.7109
 7115TIP3   OH221308   6.146   2.320   2.751  0.1324 -0.4149 -0.0326
 7115TIP3    H121309   6.174   2.328   2.842 -1.2065 -2.9385  0.6836
 7115TIP3    H221310   6.227   2.320   2.700  0.8790  1.8410  1.0011
 7116TIP3   OH221311   7.199   3.892   2.358 -0.2346  0.2014 -0.2047
 7116TIP3    H121312   7.206   3.985   2.339 -3.0265  0.7736  1.0032
 7116TIP3    H221313   7.150   3.857   2.283 -3.0205  0.6597  1.2573
 7117TIP3   OH221314   3.962   5.410   0.423 -0.2465  0.5582  0.1804
 7117TIP3    H121315   3.925   5.326   0.395 -0.2603  0.7336 -0.3364
 7117TIP3    H221316   3.980   5.398   0.516 -0.9529  0.2348  0.2838
 7118TIP3   OH221317   4.439   0.207   2.611 -0.0212 -0.1385 -0.4457
 7118TIP3    H121318   4.467   0.271   2.545 -1.9105 -0.0216 -1.2029
 7118TIP3    H221319   4.372   0.155   2.567 -0.1102 -1.1901  0.8711
 7119TIP3   OH221320   2.135   4.901   0.497 -0.5362 -0.1651 -0.2240
 7119TIP3    H121321   2.154   4.855   0.579 -1.4310 -0.3750 -0.1207
 7119TIP3    H221322   2.128   4.831   0.432  0.2531  0.0087 -0.4978
 7120TIP3   OH221323   6.962   3.404   1.479  0.1574 -0.4318 -0.1003
 7120TIP3    H121324   7.047   3.362   1.463 -0.7530 -1.6544 -2.1697
 7120TIP3    H221325   6.911   3.386   1.400 -1.8071  0.8728  0.7882
 7121TIP3   OH221326   0.410   1.814   4.900 -0.1557  0.1054 -0.1076
 7121TIP3    H121327   0.330   1.851   4.862 -0.2664 -0.1559 -0.1285
 7121TIP3    H221328   0.447   1.760   4.830 -0.4544 -0.5211  0.2089
 7122TIP3   OH221329   0.702   6.699   1.913 -0.0307  0.4927 -0.1106
 7122TIP3    H121330   0.652   6.627   1.874  0.3070  0.5201 -0.6022
 7122TIP3    H221331   0.774   6.713   1.852  2.0089 -1.1819  1.7329
 7123TIP3   OH221332   2.118   2.035   2.210  0.5383  0.3484  0.1959
 7123TIP3    H121333   2.144   1.955   2.257 -1.4813 -1.4180 -1.5080
 7123TIP3    H221334   2.076   2.089   2.277  1.6450 -0.1269  1.3206
 7124TIP3   OH221335   0.937   1.911   4.492  0.2686  0.1898 -0.2127
 7124TIP3    H121336   0.980   1.826   4.498 -0.3785 -0.0428  1.7825
 7124TIP3    H221337   0.964   1.958   4.571 -2.7619  0.1476  0.9970
 7125TIP3   OH221338   1.687   2.262   4.565  0.0404 -0.0971  0.0712
 7125TIP3    H121339   1.742   2.340   4.560  1.3624 -1.0731 -1.5014
 7125TIP3    H221340   1.744   2.194   4.599 -0.8124 -0.6274  0.4700
 7126TIP3   OH221341   5.926   5.591   4.289 -0.1633 -0.0843 -0.2522
 7126TIP3    H121342   6.009   5.555   4.257 -0.3874  0.9545 -2.1894
 7126TIP3    H221343   5.864   5.519   4.281  0.4225 -0.7439  0.8148
 7127TIP3   OH221344   3.997   4.701   0.040  0.0277  0.1839 -0.7556
 7127TIP3    H121345   4.052   4.778   0.053 -1.9133  1.8656 -2.0092
 7127TIP3    H221346   3.996   4.658   0.126 -1.0582  3.1401  0.8748
 7128TIP3   OH221347   0.247   1.625   3.133 -0.2643 -0.0533 -0.3627
 7128TIP3    H121348   0.163   1.654   3.098 -0.3322  0.3174  0.1030
 7128TIP3    H221349   0.309   1.692   3.105  0.1333 -0.9557 -1.7946
 7129TIP3   OH221350   4.939   6.536   4.829  0.8680 -0.0416  0.0067
 7129TIP3    H121351   5.020   6.543   4.779  1.0462 -0.3433  0.2510
 7129TIP3    H221352   4.965   6.551   4.920  0.5295  0.6069  0.0079
 7130TIP3   OH221353   2.554   3.599   0.977 -0.1901 -0.1732 -0.2645
 7130TIP3    H121354   2.587   3.527   1.031 -0.1363 -0.5095 -0.7396
 7130TIP3    H221355   2.557   3.676   1.035  0.9416 -0.2936 -0.1312
 7131TIP3   OH221356   0.238   2.972   1.143  0.6287  0.2843  0.3221
 7131TIP3    H121357   0.310   2.989   1.083  0.8487  1.3603  0.8564
 7131TIP3    H221358   0.265   3.014   1.225  0.6168 -1.6852  1.3912
 7132TIP3   OH221359   1.849   5.534   3.225  0.0006 -0.2235 -0.1498
 7132TIP3    H121360   1.754   5.538   3.219 -0.0963 -0.5113  1.0487
 7132TIP3    H221361   1.878   5.507   3.138 -1.1075 -1.7032 -0.0818
 7133TIP3   OH221362   2.072   5.660   1.421 -0.0602  0.1329  0.2050
 7133TIP3    H121363   2.141   5.598   1.442 -0.9277 -1.0900 -0.4691
 7133TIP3    H221364   2.114   5.746   1.429  1.4331 -0.5622  0.1255
 7134TIP3   OH221365   6.734   6.730   1.339 -0.3507 -0.4557 -0.4086
 7134TIP3    H121366   6.830   6.731   1.329 -0.3952 -1.5581 -1.1145
 7134TIP3    H221367   6.717   6.796   1.406  0.8517  0.1831 -0.6851
 7135TIP3   OH221368   6.530   1.464   3.834 -0.5617  0.7178  0.0056
 7135TIP3    H121369   6.483   1.435   3.912  1.6118 -1.1564  0.7431
 7135TIP3    H221370   6.505   1.401   3.766 -0.0972  0.4499  0.0743
 7136TIP3   OH221371   4.201   2.402   2.559 -0.0409  0.2983  0.5365
 7136TIP3    H121372   4.112   2.436   2.571  0.7368  2.2260  1.2806
 7136TIP3    H221373   4.203   2.321   2.611 -0.7837  1.3119  2.2442
 7137TIP3   OH221374   6.719   6.809   3.896 -0.3323 -0.1646  0.4158
 7137TIP3    H121375   6.633   6.768   3.895  1.0137 -3.2345 -0.8481
 7137TIP3    H221376   6.763   6.772   3.973  1.0322 -1.4631 -0.9242
 7138TIP3   OH221377   6.523   6.545   1.934  0.1523  0.1955 -0.0470
 7138TIP3    H121378   6.453   6.507   1.986  0.4277  1.2788  1.1556
 7138TIP3    H221379   6.491   6.632   1.910 -0.1928 -0.4658 -2.1745
 7139TIP3   OH221380   6.184   0.125   0.437 -0.3410  0.0932 -0.3912
 7139TIP3    H121381   6.139   0.061   0.491 -0.4702  0.4401 -0.0782
 7139TIP3    H221382   6.130   0.204   0.443 -0.4169  0.0997 -1.1281
 7140TIP3   OH221383   6.048   0.387   0.433 -0.3939 -0.1755  0.2388
 7140TIP3    H121384   6.058   0.406   0.340 -1.2188 -1.3159 -0.1141
 7140TIP3    H221385   5.962   0.422   0.456 -0.4591 -0.4480  0.4197
 7141TIP3   OH221386   5.730   2.335   0.919  0.5708  0.2126  0.1137
 7141TIP3    H121387   5.738   2.422   0.958 -2.3024  0.9052 -0.6071
 7141TIP3    H221388   5.658   2.343   0.856  0.8910 -2.4416 -0.7215
 7142TIP3   OH221389   5.252   2.090   3.644 -0.8597 -0.0100  0.2830
 7142TIP3    H121390   5.269   2.184   3.644 -0.4390  0.0343 -2.7873
 7142TIP3    H221391   5.252   2.065   3.736  1.8427  2.4958  1.1110
 7143TIP3   OH221392   2.914   2.240   0.291  0.2163  0.2286  0.6257
 7143TIP3    H121393   2.971   2.171   0.325 -0.1715 -0.0508  0.7212
 7143TIP3    H221394   2.835   2.193   0.262  0.3248  0.5202 -0.1690
 7144TIP3   OH221395   4.645   2.469   1.756  0.2594 -0.4404 -0.9033
 7144TIP3    H121396   4.731   2.429   1.757  0.2521 -0.4516 -0.7357
 7144TIP3    H221397   4.659   2.558   1.790 -0.1690 -1.2042  1.4809
 7145TIP3   OH221398   1.292   3.417   5.589 -0.7281  0.3975  0.2891
 7145TIP3    H121399   1.359   3.415   5.522 -0.2784  0.9811  0.7115
 7145TIP3    H221400   1.260   3.327   5.594 -0.4094  0.2461 -0.3425
 7146TIP3   OH221401   4.330   5.605   3.203  0.1032 -0.1501  0.0527
 7146TIP3    H121402   4.378   5.650   3.272 -0.2327 -1.5725  1.2780
 7146TIP3    H221403   4.398   5.570   3.145  0.6024 -1.6181  1.4339
 7147TIP3   OH221404   5.824   2.108   0.779 -0.6324  0.0224 -0.1511
 7147TIP3    H121405   5.809   2.195   0.815 -0.0566  0.3337 -0.6350
 7147TIP3    H221406   5.749   2.092   0.722 -1.2856 -0.2574  0.7613
 7148TIP3   OH221407   4.602   2.044   4.693  0.3502  0.2338 -0.1508
 7148TIP3    H121408   4.512   2.049   4.660 -0.1078  0.1924  1.0471
 7148TIP3    H221409   4.650   2.107   4.639 -0.2145 -0.3285 -1.3502
 7149TIP3   OH221410   2.932   0.231   4.570 -0.1939  0.1441 -0.1331
 7149TIP3    H121411   2.946   0.291   4.497  3.3491 -1.6974 -1.1883
 7149TIP3    H221412   2.986   0.266   4.641 -0.1258 -0.4181  0.0973
 7150TIP3   OH221413   1.981   3.710   4.806 -0.5962  0.3064  0.1168
 7150TIP3    H121414   2.074   3.712   4.828 -0.2143 -0.4665 -1.3231
 7150TIP3    H221415   1.941   3.660   4.878  0.0932  0.5653  0.6992
 7151TIP3   OH221416   0.413   4.999   2.006  0.1647  0.3432  0.4044
 7151TIP3    H121417   0.421   5.023   2.099  0.0670  2.1742 -0.0057
 7151TIP3    H221418   0.403   4.904   2.006  0.3553  0.2836  2.2554
 7152TIP3   OH221419   3.359   1.248   4.308  0.1828  0.2358 -0.0845
 7152TIP3    H121420   3.339   1.208   4.223 -0.0168 -0.1538  0.1416
 7152TIP3    H221421   3.328   1.184   4.372  2.3591 -0.5383  0.3046
 7153TIP3   OH221422   4.805   3.430   3.848  0.3588  0.3544 -0.6793
 7153TIP3    H121423   4.783   3.507   3.795  0.5349 -0.7793 -2.4837
 7153TIP3    H221424   4.770   3.451   3.935  2.2506  3.3592 -0.4831
 7154TIP3   OH221425   3.979   2.823   0.995 -0.0773 -0.3370 -0.1582
 7154TIP3    H121426   4.045   2.892   0.985  0.0774 -0.2165  1.4867
 7154TIP3    H221427   4.014   2.767   1.063 -0.7560 -1.4125 -0.6780
 7155TIP3   OH221428   5.173   5.776   2.217  0.3581 -0.1125 -0.4846
 7155TIP3    H121429   5.150   5.796   2.126 -1.2954  2.0447  0.3191
 7155TIP3    H221430   5.264   5.805   2.226  1.0915 -1.8322 -1.8143
 7156TIP3   OH221431   3.891   4.162   5.507  0.3215 -0.1128 -0.3279
 7156TIP3    H121432   3.894   4.140   5.414  1.0790  1.2129 -0.6528
 7156TIP3    H221433   3.855   4.085   5.549 -0.1278 -0.7019 -1.7360
 7157TIP3   OH221434   1.248   5.997   0.647 -0.3968  0.2370  0.1266
 7157TIP3    H121435   1.291   6.061   0.703 -0.3934 -0.3668  0.8328
 7157TIP3    H221436   1.265   5.913   0.690  0.9554 -0.4222 -1.6177
 7158TIP3   OH221437   0.903   3.476   0.837  0.0022  0.1804 -0.3940
 7158TIP3    H121438   0.997   3.476   0.820  0.1180 -0.5371  0.1692
 7158TIP3    H221439   0.877   3.568   0.831  0.5631  0.2804 -1.4624
 7159TIP3   OH221440   6.996   0.745   3.512 -0.0857 -0.5090  0.0748
 7159TIP3    H121441   7.058   0.817   3.503  0.1955 -0.8713 -0.9827
 7159TIP3    H221442   6.998   0.701   3.427  0.4448 -2.3410  1.0058
 7160TIP3   OH221443   2.730   5.307   2.507  0.1447  0.1695  0.2710
 7160TIP3    H121444   2.730   5.223   2.554  0.8992 -0.0755 -0.1449
 7160TIP3    H221445   2.691   5.287   2.422  0.8204  0.1034 -0.0353
 7161TIP3   OH221446   0.675   6.348   3.032 -0.7680 -0.2003 -0.6521
 7161TIP3    H121447   0.598   6.402   3.051  0.0888  1.6870 -2.1344
 7161TIP3    H221448   0.744   6.384   3.088 -0.5919 -0.8983 -0.4090
 7162TIP3   OH221449   5.104   4.265   2.358  0.0640 -0.5195 -0.6905
 7162TIP3    H121450   5.010   4.257   2.342 -0.2598 -0.9149  1.1727
 7162TIP3    H221451   5.127   4.187   2.409  0.9639  0.5154  0.5692
 7163TIP3   OH221452   6.854   4.046   0.809 -0.1435 -0.2008 -0.0155
 7163TIP3    H121453   6.931   4.029   0.863  1.4155  0.3024 -1.9405
 7163TIP3    H221454   6.780   4.042   0.870  1.4349 -0.2012  2.0074
 7164TIP3   OH221455   1.080   1.963   2.832 -0.8700 -0.1024 -0.2821
 7164TIP3    H121456   1.156   2.021   2.839  0.3051 -1.6457  0.6683
 7164TIP3    H221457   1.083   1.930   2.742  1.4048 -2.3527  0.4894
 7165TIP3   OH221458   3.105   0.771   5.215 -0.4157 -0.1563 -0.3317
 7165TIP3    H121459   3.142   0.708   5.276 -0.8983 -2.9793 -2.7623
 7165TIP3    H221460   3.012   0.773   5.236 -0.0630  1.7146  1.3158
 7166TIP3   OH221461   1.778   6.136   3.389 -0.4188 -0.5317 -0.4411
 7166TIP3    H121462   1.870   6.116   3.402  0.6795  1.5464 -3.5927
 7166TIP3    H221463   1.750   6.177   3.471  2.3973  1.5356 -0.3774
 7167TIP3   OH221464   1.565   5.957   4.543  0.1219  0.3801 -0.6436
 7167TIP3    H121465   1.471   5.971   4.546  0.3261  1.7640  0.3503
 7167TIP3    H221466   1.576   5.862   4.533 -1.3628  0.3597 -2.7250
 7168TIP3   OH221467   4.258   0.668   4.059  0.2113 -0.7076  0.2906
 7168TIP3    H121468   4.266   0.715   4.142 -0.5807  0.0948 -0.0731
 7168TIP3    H221469   4.285   0.731   3.993 -0.2375 -0.9737 -0.1525
 7169TIP3   OH221470   0.677   2.271   0.819  0.5383 -0.2341  0.4193
 7169TIP3    H121471   0.617   2.286   0.746 -0.7312  0.2970  1.5269
 7169TIP3    H221472   0.745   2.337   0.809 -1.1799  1.7686  1.2920
 7170TIP3   OH221473   2.628   2.815   0.704 -0.1855  0.3825 -0.5059
 7170TIP3    H121474   2.537   2.803   0.732 -0.4350  0.8398 -1.0875
 7170TIP3    H221475   2.660   2.887   0.759 -0.1348  0.1430 -0.2188
 7171TIP3   OH221476   1.693   4.558   3.423 -0.5664 -0.0930 -0.2692
 7171TIP3    H121477   1.610   4.581   3.464 -1.1122  0.3754 -1.6029
 7171TIP3    H221478   1.674   4.480   3.371 -0.1199 -0.1182 -0.3998
 7172TIP3   OH221479   0.553   6.687   5.071 -0.8924 -0.0172 -0.2662
 7172TIP3    H121480   0.587   6.708   5.158  1.2137  1.3681 -1.3247
 7172TIP3    H221481   0.459   6.699   5.078 -0.7668  0.0761  1.8053
 7173TIP3   OH221482   1.839   5.772   0.547  0.0911 -0.0170  0.7428
 7173TIP3    H121483   1.748   5.744   0.536  0.3007 -1.3499  2.0542
 7173TIP3    H221484   1.843   5.809   0.635  0.8927 -0.3226  0.8457
 7174TIP3   OH221485   4.751  -0.032   2.838  0.8940  0.1936 -0.1086
 7174TIP3    H121486   4.774   0.053   2.876 -0.9378  0.5744  0.2369
 7174TIP3    H221487   4.747  -0.016   2.743 -0.0500  0.6681  0.0017
 7175TIP3   OH221488   4.842   4.194   5.694  0.2641 -0.3637 -0.8932
 7175TIP3    H121489   4.771   4.134   5.672  0.0071 -0.0247 -1.0068
 7175TIP3    H221490   4.922   4.143   5.682  0.0665 -0.5786 -1.3269
 7176TIP3   OH221491   0.217   3.007   3.753  0.1510 -0.1397 -0.3053
 7176TIP3    H121492   0.146   2.968   3.703 -0.2650  0.5199 -0.2425
 7176TIP3    H221493   0.275   2.934   3.773  0.6975 -0.3210 -2.3374
 7177TIP3   OH221494   1.614   3.720   3.890  0.5510 -0.1424  0.1119
 7177TIP3    H121495   1.533   3.668   3.898 -0.3577  0.8830 -1.7309
 7177TIP3    H221496   1.683   3.655   3.878 -0.4853 -1.0242 -1.6155
 7178TIP3   OH221497   3.758   4.711   5.150 -0.4674 -0.2452  0.0306
 7178TIP3    H121498   3.696   4.665   5.206 -1.5312  0.9612 -0.1182
 7178TIP3    H221499   3.758   4.661   5.068 -3.2086  1.1034 -0.9056
 7179TIP3   OH221500   1.201   3.857   2.862 -0.0529  0.0121 -0.7963
 7179TIP3    H121501   1.265   3.906   2.810 -0.1461 -0.5808 -1.4666
 7179TIP3    H221502   1.222   3.882   2.953  1.9017 -1.0549 -0.8952
 7180TIP3   OH221503   3.006   2.781   1.105  0.0245  0.6079 -0.0558
 7180TIP3    H121504   3.076   2.751   1.163 -0.0091  0.9988  0.1949
 7180TIP3    H221505   3.051   2.827   1.034  0.0627  0.1838 -0.3056
 7181TIP3   OH221506   3.796   0.267   4.296 -0.1386 -0.1160  0.3789
 7181TIP3    H121507   3.737   0.282   4.371 -0.2652  1.2365  0.0445
 7181TIP3    H221508   3.877   0.311   4.320  0.4770 -1.2599  0.4776
 7182TIP3   OH221509   0.010   5.160   2.448  0.2411  0.5878 -0.6846
 7182TIP3    H121510   0.090   5.176   2.498  1.3584 -1.8447 -1.5226
 7182TIP3    H221511  -0.023   5.077   2.480 -0.1974  0.0134 -2.4667
 7183TIP3   OH221512   6.221   4.072   2.195  0.0846 -0.1428 -0.1879
 7183TIP3    H121513   6.311   4.102   2.209  0.1182  1.7799 -3.4699
 7183TIP3    H221514   6.210   4.000   2.257  3.9275 -0.5849  0.2286
 7184TIP3   OH221515   4.721   4.875   0.844  0.0950 -0.5587  0.4589
 7184TIP3    H121516   4.736   4.970   0.847  0.3899 -0.4186 -2.3974
 7184TIP3    H221517   4.626   4.866   0.846 -0.0343  0.0064 -1.4351
 7185TIP3   OH221518   3.540   6.242   0.703 -0.2305 -0.7350 -0.6888
 7185TIP3    H121519   3.536   6.331   0.737 -2.2642 -1.1619  0.3269
 7185TIP3    H221520   3.595   6.195   0.766 -0.3604 -0.5386 -0.4255
 7186TIP3   OH221521   3.216   3.044   1.322  0.2185 -0.1655 -0.1332
 7186TIP3    H121522   3.252   3.019   1.237 -2.5324  1.0620 -1.7781
 7186TIP3    H221523   3.184   2.961   1.360  1.4895 -0.7196 -0.2277
 7187TIP3   OH221524   4.105   3.989   1.808 -0.6262  0.2911 -0.2414
 7187TIP3    H121525   4.010   3.997   1.802 -0.3979  2.4248 -2.9856
 7187TIP3    H221526   4.138   4.066   1.763  2.4371 -0.5783  0.3237
 7188TIP3   OH221527   4.467   5.578   4.717 -0.4467 -0.0410 -0.8634
 7188TIP3    H121528   4.506   5.496   4.688 -1.9798 -0.6183 -1.4343
 7188TIP3    H221529   4.494   5.587   4.808 -0.6019 -1.4041 -0.6635
 7189TIP3   OH221530   6.659   1.166   5.126 -0.1841 -0.2286  0.0524
 7189TIP3    H121531   6.672   1.212   5.209  1.2688  0.3507 -0.4573
 7189TIP3    H221532   6.615   1.229   5.070  1.4139  0.4500 -0.5051
 7190TIP3   OH221533   5.810   1.885   5.666 -0.2605 -0.6365 -0.7226
 7190TIP3    H121534   5.817   1.973   5.629 -0.2300 -0.2445  0.1713
 7190TIP3    H221535   5.887   1.877   5.722 -0.0385 -1.4008 -1.1361
 7191TIP3   OH221536   5.582   3.775   0.744 -0.3712  0.0527  0.1062
 7191TIP3    H121537   5.657   3.785   0.685  1.1011 -2.6545  1.3341
 7191TIP3    H221538   5.604   3.828   0.820 -0.8082  1.0369 -0.4280
 7192TIP3   OH221539   0.206   2.797   2.038  0.4607 -0.5204 -0.2110
 7192TIP3    H121540   0.207   2.703   2.056  0.9836 -0.9313 -2.1701
 7192TIP3    H221541   0.115   2.823   2.052  0.2533 -1.3784  0.0775
 7193TIP3   OH221542   0.141   6.611   1.403  0.3446 -0.8743 -0.1168
 7193TIP3    H121543   0.220   6.659   1.378  0.1924 -0.1963  0.6498
 7193TIP3    H221544   0.173   6.527   1.438  0.6840 -0.8462 -0.3654
 7194TIP3   OH221545   5.921   5.101   4.264  0.1910  0.2521  0.6217
 7194TIP3    H121546   5.885   5.069   4.347  0.6356  1.2168  1.2071
 7194TIP3    H221547   5.845   5.126   4.212 -0.1390 -1.2143  0.3587
 7195TIP3   OH221548   4.374   3.848   1.688 -0.6533 -0.8083 -0.6259
 7195TIP3    H121549   4.370   3.943   1.695 -1.2692 -0.8837  0.2187
 7195TIP3    H221550   4.437   3.822   1.755 -0.8804 -1.0343 -0.5010
 7196TIP3   OH221551   1.352   0.846   5.128  0.2287 -0.0704 -0.0128
 7196TIP3    H121552   1.439   0.867   5.094  0.1178  2.7257  1.1439
 7196TIP3    H221553   1.368   0.786   5.201  1.0500 -0.5464 -0.5743
 7197TIP3   OH221554   6.220   6.281   0.389  0.6733  0.2847 -0.2792
 7197TIP3    H121555   6.263   6.367   0.382  0.8957  0.4633  2.2472
 7197TIP3    H221556   6.140   6.290   0.337  0.7031  2.0520 -0.0888
 7198TIP3   OH221557   2.595   3.038   3.320  0.7249 -0.4225  0.1118
 7198TIP3    H121558   2.650   2.968   3.356 -0.5375 -2.0725 -0.9629
 7198TIP3    H221559   2.617   3.039   3.226  1.3882  1.3041  0.2579
 7199TIP3   OH221560   3.810   6.688   4.416  0.2093 -0.6098  0.0266
 7199TIP3    H121561   3.879   6.754   4.414  0.7849 -1.2117 -0.7080
 7199TIP3    H221562   3.730   6.738   4.432  0.9111 -0.0109  1.9904
 7200TIP3   OH221563   1.468   6.765   5.283 -0.1214 -0.8922  0.0177
 7200TIP3    H121564   1.375   6.779   5.267 -0.5952 -3.1801  0.4004
 7200TIP3    H221565   1.483   6.674   5.259  1.3246 -1.5223  2.9083
 7201TIP3   OH221566   1.715   6.667   2.286  0.1138  0.0742 -0.5076
 7201TIP3    H121567   1.732   6.745   2.340  1.6474 -0.6447  0.1169
 7201TIP3    H221568   1.689   6.600   2.349 -1.9065  0.2173 -1.1180
 7202TIP3   OH221569   1.969   3.783   1.698  0.3511 -0.1688  0.7742
 7202TIP3    H121570   2.053   3.796   1.744 -0.6836 -1.3912  3.2199
 7202TIP3    H221571   1.992   3.732   1.620  2.1352  1.4705  0.1414
 7203TIP3   OH221572   6.968   5.116   1.892 -0.2101 -0.2768 -0.6258
 7203TIP3    H121573   6.890   5.060   1.886  0.0493 -0.6862 -0.2373
 7203TIP3    H221574   6.937   5.194   1.938 -0.2068 -0.7938  0.2727
 7204TIP3   OH221575   4.918   0.720   4.480  0.0846 -0.4661 -0.0090
 7204TIP3    H121576   5.002   0.735   4.522  0.9491 -0.9680 -1.4942
 7204TIP3    H221577   4.892   0.632   4.509  1.3788 -1.4181 -1.5902
 7205TIP3   OH221578   4.430   2.240   3.391 -0.0925 -0.2357  0.2985
 7205TIP3    H121579   4.359   2.185   3.360  2.2871 -2.0525 -2.5057
 7205TIP3    H221580   4.468   2.190   3.464 -1.1700  0.4124  1.3460
 7206TIP3   OH221581   5.400   4.908   3.852 -0.2018 -0.0536 -0.1884
 7206TIP3    H121582   5.467   4.865   3.799 -0.9251 -0.3829 -0.8632
 7206TIP3    H221583   5.375   4.985   3.802 -1.0155 -0.4598 -0.4271
 7207TIP3   OH221584   3.038   3.207   4.000  0.4691  0.2152  0.0471
 7207TIP3    H121585   3.072   3.152   4.071  0.5549 -0.7407 -0.7175
 7207TIP3    H221586   2.986   3.147   3.947 -0.0299  1.0416 -0.4103
 7208TIP3   OH221587   6.266   6.654   5.492  0.2456 -0.2773  0.0865
 7208TIP3    H121588   6.202   6.618   5.553  0.2566  1.1237  0.9780
 7208TIP3    H221589   6.217   6.667   5.411 -0.1994 -0.6457  0.2938
 7209TIP3   OH221590   4.403   0.036   5.599  0.5186 -0.3178 -0.0220
 7209TIP3    H121591   4.313   0.017   5.571  0.0936  0.8729  0.4676
 7209TIP3    H221592   4.455   0.028   5.519 -0.3732  1.1217 -0.7917
 7210TIP3   OH221593   5.117   1.106   1.428  0.2555 -0.2713 -0.0850
 7210TIP3    H121594   5.061   1.035   1.396  0.9031  0.1998 -2.5124
 7210TIP3    H221595   5.206   1.078   1.405  0.6571  0.6546  0.3045
 7211TIP3   OH221596   1.580   2.986   1.780 -0.1065 -0.1407 -0.9550
 7211TIP3    H121597   1.502   2.966   1.730  0.0376 -2.7156 -0.2954
 7211TIP3    H221598   1.631   2.905   1.779  0.1363 -0.2509  2.8536
 7212TIP3   OH221599   7.133   4.912   2.503 -0.2778 -0.5018 -0.1291
 7212TIP3    H121600   7.044   4.920   2.470 -0.3955 -2.8245 -0.5592
 7212TIP3    H221601   7.124   4.911   2.598 -0.6464 -0.3342 -0.1602
 7213TIP3   OH221602   5.163   5.068   5.677  0.0269 -0.1320  0.1999
 7213TIP3    H121603   5.257   5.053   5.681 -0.2062 -1.8296  0.0933
 7213TIP3    H221604   5.131   5.041   5.763 -0.1234  2.8664  1.2181
 7214TIP3   OH221605   5.396   1.676   4.042 -0.1183 -0.1777  0.0898
 7214TIP3    H121606   5.340   1.722   4.104 -0.1055  2.2393 -1.5416
 7214TIP3    H221607   5.354   1.591   4.029 -1.2687  0.0989  1.7507
 7215TIP3   OH221608   3.748   2.010   1.881 -0.2376 -0.8178  0.2030
 7215TIP3    H121609   3.708   1.925   1.865  0.9177 -1.8095  2.1220
 7215TIP3    H221610   3.739   2.023   1.976 -1.2535  1.6955 -0.1519
 7216TIP3   OH221611   0.431   3.656   3.092 -0.6227  0.0377  0.1092
 7216TIP3    H121612   0.497   3.587   3.095  0.9725  1.4082 -1.7181
 7216TIP3    H221613   0.354   3.613   3.055  0.6423 -0.6169 -1.9288
 7217TIP3   OH221614   0.303   2.113   2.324 -0.7278  0.2065 -0.6649
 7217TIP3    H121615   0.251   2.096   2.403  1.1211 -2.1248  0.1655
 7217TIP3    H221616   0.382   2.156   2.356 -1.0199  1.5161 -1.6102
 7218TIP3   OH221617   6.722   2.043   2.725 -0.4614  0.3722  0.1417
 7218TIP3    H121618   6.735   2.055   2.631  0.9810  1.2086  0.4193
 7218TIP3    H221619   6.780   1.970   2.748  0.7387  1.4494  0.6897
 7219TIP3   OH221620   6.002   1.662   5.294 -0.0849  0.4780  0.3279
 7219TIP3    H121621   6.079   1.716   5.275 -0.2308  0.2565 -0.9897
 7219TIP3    H221622   5.928   1.720   5.278 -0.2950 -0.4131 -2.4703
 7220TIP3   OH221623   4.186   1.895   5.633 -0.0010  0.4939 -0.5868
 7220TIP3    H121624   4.217   1.898   5.542 -1.9055  1.8581 -1.2499
 7220TIP3    H221625   4.209   1.980   5.669 -2.5741  1.4733 -1.0374
 7221TIP3   OH221626   5.248   1.796   4.214  0.5542 -0.0318  0.1063
 7221TIP3    H121627   5.156   1.798   4.188  0.5914 -0.3625 -0.0669
 7221TIP3    H221628   5.253   1.852   4.291 -0.2179 -1.7598  1.4693
 7222TIP3   OH221629   6.121   4.397   5.603  0.1012 -0.4378 -0.1224
 7222TIP3    H121630   6.063   4.373   5.531 -1.4770 -1.9785  1.5542
 7222TIP3    H221631   6.150   4.313   5.639  1.8614  0.3060  0.2961
 7223TIP3   OH221632   5.634   0.858   1.074 -0.4538  0.4939  0.4808
 7223TIP3    H121633   5.654   0.851   1.167 -0.0434 -0.5439  0.3301
 7223TIP3    H221634   5.592   0.775   1.053 -3.6329  1.9538  0.4439
 7224TIP3   OH221635   1.071   4.111   3.388  0.1812  0.0290  0.1999
 7224TIP3    H121636   0.992   4.060   3.374  0.9179 -0.5130 -2.4747
 7224TIP3    H221637   1.062   4.145   3.477 -2.9396 -0.1427  0.0433
 7225TIP3   OH221638   5.387   5.131   2.550  0.2032 -0.0314  0.0954
 7225TIP3    H121639   5.421   5.176   2.473  1.8181 -2.6359 -0.8603
 7225TIP3    H221640   5.466   5.104   2.598 -0.7363 -0.4406  1.4491
 7226TIP3   OH221641   1.269   5.402   3.941 -0.3708  0.2668 -0.5073
 7226TIP3    H121642   1.285   5.367   4.029  0.4194  1.9293  0.0451
 7226TIP3    H221643   1.283   5.327   3.883  0.2179 -0.5928  0.6956
 7227TIP3   OH221644   6.499   1.405   5.048  0.1875 -0.2811  0.3277
 7227TIP3    H121645   6.571   1.425   4.989  1.0241 -1.8647  0.7518
 7227TIP3    H221646   6.447   1.339   5.000  0.1144 -0.5785  0.8104
 7228TIP3   OH221647   4.877   5.236   1.750  0.2501  0.3615 -0.4489
 7228TIP3    H121648   4.912   5.171   1.812 -0.3942  0.2230 -0.2186
 7228TIP3    H221649   4.794   5.263   1.789  0.2670  0.9460 -0.8073
 7229TIP3   OH221650   6.196   3.783   3.104 -0.9173 -0.0601 -0.1428
 7229TIP3    H121651   6.184   3.706   3.048  0.2835  0.4711 -1.1926
 7229TIP3    H221652   6.216   3.854   3.042 -2.8433  1.3286  0.7209
 7230TIP3   OH221653   1.094   1.133   1.973 -0.6563 -0.0563 -0.4751
 7230TIP3    H121654   1.045   1.211   2.000 -2.8283 -1.5775  0.1451
 7230TIP3    H221655   1.165   1.168   1.918 -1.3760  2.3710  0.0285
 7231TIP3   OH221656   0.920   4.167   4.047 -0.0675 -0.6195 -0.7623
 7231TIP3    H121657   0.953   4.165   4.136  2.1835  1.7459 -1.3966
 7231TIP3    H221658   0.866   4.088   4.038 -2.1430  0.1001  3.2613
 7232TIP3   OH221659   6.099   4.649   4.849  0.5277  0.0047 -0.1251
 7232TIP3    H121660   6.048   4.610   4.777 -0.1501  0.8282 -0.1165
 7232TIP3    H221661   6.123   4.736   4.816  1.1249 -0.0199  0.2397
 7233TIP3   OH221662   3.628   6.792   5.315  0.3481 -0.1245 -0.1027
 7233TIP3    H121663   3.567   6.800   5.242  0.0550  2.6174  0.3177
 7233TIP3    H221664   3.582   6.737   5.379 -1.8150  1.9184  0.2372
 7234TIP3   OH221665   5.144   6.464   5.670  0.3455 -0.2246 -0.3704
 7234TIP3    H121666   5.105   6.399   5.612  0.2551 -1.7819  1.3301
 7234TIP3    H221667   5.237   6.440   5.674  0.7586  1.1016 -1.3966
 7235TIP3   OH221668   2.624   0.782   0.851 -0.3221  0.4942 -0.6752
 7235TIP3    H121669   2.545   0.837   0.847 -1.8910 -1.3211  1.8939
 7235TIP3    H221670   2.624   0.748   0.940  1.8018 -1.8768 -1.4759
 7236TIP3   OH221671   2.683   3.338   3.873 -0.4851 -0.3736  0.2855
 7236TIP3    H121672   2.719   3.369   3.790 -0.4660 -0.9968  0.0560
 7236TIP3    H221673   2.722   3.395   3.939  0.1614 -0.4159 -0.0568
 7237TIP3   OH221674   3.206   4.580   3.416 -1.4590 -0.1055 -0.3957
 7237TIP3    H121675   3.284   4.527   3.398 -1.1039  0.7639 -1.5498
 7237TIP3    H221676   3.233   4.670   3.398 -1.6915  0.7018  2.6108
 7238TIP3   OH221677   1.180   2.629   1.589 -0.0005 -0.5540 -0.1805
 7238TIP3    H121678   1.125   2.559   1.554 -0.8643 -1.0253  1.9619
 7238TIP3    H221679   1.123   2.676   1.650  0.4109  2.3503 -1.8477
 7239TIP3   OH221680   3.606   1.959   0.021  0.0964  0.1873 -0.0426
 7239TIP3    H121681   3.511   1.952   0.020  0.1145 -0.0730 -0.9294
 7239TIP3    H221682   3.625   2.044  -0.018  0.2219  0.3890  0.4488
 7240TIP3   OH221683   1.653   4.133   3.209 -0.3828 -0.7231  0.0511
 7240TIP3    H121684   1.623   4.129   3.300  1.3060 -0.2089  0.6618
 7240TIP3    H221685   1.739   4.174   3.214 -0.9167  0.7640 -1.9536
 7241TIP3   OH221686   0.436   2.252   5.611 -0.6736 -0.4808  0.0230
 7241TIP3    H121687   0.422   2.327   5.669  0.2356  0.3473 -0.8089
 7241TIP3    H221688   0.490   2.192   5.663  1.1608  0.7872 -0.3548
 7242TIP3   OH221689   1.507   2.196   1.940  0.1551  0.4964 -0.1979
 7242TIP3    H121690   1.548   2.174   1.856  0.8287  0.4301  0.1471
 7242TIP3    H221691   1.513   2.116   1.992  0.4174  0.7595  0.1835
 7243TIP3   OH221692   1.600   5.680   4.505  0.3001  0.4676 -0.3212
 7243TIP3    H121693   1.558   5.623   4.569  1.2431 -0.0760 -0.1604
 7243TIP3    H221694   1.689   5.690   4.537  1.1889 -0.8430 -2.1706
 7244TIP3   OH221695   3.197   6.480   1.999 -0.0177  0.6299  0.1991
 7244TIP3    H121696   3.201   6.550   2.064 -1.6640 -0.3670  1.4393
 7244TIP3    H221697   3.141   6.515   1.930  0.9490  1.3266 -0.2610
 7245TIP3   OH221698   3.168   3.524   1.523 -0.1355 -0.2222  0.0513
 7245TIP3    H121699   3.216   3.457   1.474 -0.1442 -0.0319 -0.2212
 7245TIP3    H221700   3.076   3.512   1.496 -0.2584 -0.6190  0.6095
 7246TIP3   OH221701   3.810   6.660   3.326 -0.1309 -0.3086  0.5310
 7246TIP3    H121702   3.897   6.629   3.350  0.0094 -0.8590 -0.5964
 7246TIP3    H221703   3.751   6.614   3.386  0.2763 -0.8164  0.5528
 7247TIP3   OH221704   5.884   4.843   2.852  0.4565  0.0150 -0.0077
 7247TIP3    H121705   5.855   4.803   2.770 -0.7732  0.4604  0.1896
 7247TIP3    H221706   5.829   4.802   2.919 -0.2638  1.4389  0.2948
 7248TIP3   OH221707   6.479   6.036   3.560  0.0461 -0.5610 -0.2862
 7248TIP3    H121708   6.424   5.968   3.521  0.8002 -1.4605  0.1940
 7248TIP3    H221709   6.568   6.014   3.533  0.3077  0.2368 -0.1207
 7249TIP3   OH221710   4.846   1.476   2.489  0.1327  0.0163 -0.0061
 7249TIP3    H121711   4.933   1.475   2.448 -0.9951 -1.2242 -2.5461
 7249TIP3    H221712   4.823   1.384   2.498 -0.9100  0.3367  0.7542
 7250TIP3   OH221713   4.844   4.994   5.788  0.9513 -0.6110  0.4917
 7250TIP3    H121714   4.899   4.941   5.845 -1.2870 -1.9870  1.4799
 7250TIP3    H221715   4.881   5.082   5.794  2.1916 -1.2060  2.1816
 7251TIP3   OH221716   4.768   6.319   5.050 -0.0498  0.1552 -0.2043
 7251TIP3    H121717   4.853   6.307   5.093 -0.0678  0.1859 -0.1598
 7251TIP3    H221718   4.759   6.244   4.992  0.9066  1.1555 -1.7329
 7252TIP3   OH221719   0.700   3.036   4.768 -0.1892  0.3474 -0.4041
 7252TIP3    H121720   0.730   3.080   4.688  0.1178  1.2080  0.1710
 7252TIP3    H221721   0.736   2.948   4.761  0.6655  0.7093 -0.7574
 7253TIP3   OH221722   0.044   4.512   1.035  0.1681  0.7410  0.1217
 7253TIP3    H121723   0.109   4.576   1.007  0.5710 -0.6645 -2.4184
 7253TIP3    H221724   0.095   4.437   1.065 -0.3011  0.6998  0.8443
 7254TIP3   OH221725   0.501   5.390   2.720 -0.0552  0.2637 -0.1323
 7254TIP3    H121726   0.555   5.459   2.682  2.7489  0.5047  3.6944
 7254TIP3    H221727   0.439   5.436   2.776  1.3353 -0.0986  1.8432
 7255TIP3   OH221728   6.602   6.143   2.224  0.0826  0.1288 -0.3474
 7255TIP3    H121729   6.527   6.099   2.183  1.0936 -0.2308 -1.8659
 7255TIP3    H221730   6.564   6.220   2.266 -1.3083 -0.6941 -0.0209
 7256TIP3   OH221731   4.722   6.507   3.979  0.1762  0.2732  0.1704
 7256TIP3    H121732   4.808   6.466   3.987 -0.0896 -0.5743 -1.0348
 7256TIP3    H221733   4.662   6.434   3.963 -0.3765  1.0580 -1.5907
 7257TIP3   OH221734   0.140   1.958   2.142  0.9008 -0.3185  0.3222
 7257TIP3    H121735   0.091   1.888   2.185  0.4934  0.6074  1.4312
 7257TIP3    H221736   0.195   1.995   2.211  0.9546  0.5710 -0.1780
 7258TIP3   OH221737   5.491   3.295   4.418 -0.5346 -0.1651  0.2791
 7258TIP3    H121738   5.421   3.291   4.353 -1.2648 -2.6347  1.0872
 7258TIP3    H221739   5.570   3.310   4.367 -1.4088  0.8080 -0.8527
 7259TIP3   OH221740   0.194   0.778   3.301  0.0392 -0.0924 -0.5283
 7259TIP3    H121741   0.099   0.776   3.291 -0.0297 -0.3156  0.1596
 7259TIP3    H221742   0.224   0.834   3.229 -0.8476  2.5122  0.9836
 7260TIP3   OH221743   1.894   2.994   4.677  0.0339 -0.7673 -0.0967
 7260TIP3    H121744   1.891   2.899   4.669  1.5091 -0.8740  0.2970
 7260TIP3    H221745   1.915   3.010   4.769 -0.8966 -0.0245  0.0087
 7261TIP3   OH221746   1.724   5.124   2.293 -0.3309 -0.2166  0.4821
 7261TIP3    H121747   1.705   5.171   2.374 -0.2263  0.2608  0.2382
 7261TIP3    H221748   1.640   5.087   2.266 -0.5134  0.2216  0.4413
 7262TIP3   OH221749   1.999   4.916   4.307 -0.5672  0.3850  0.1123
 7262TIP3    H121750   2.016   4.936   4.215 -0.3113 -0.5610 -0.0615
 7262TIP3    H221751   1.992   4.821   4.310  0.3515  0.3181  1.2177
 7263TIP3   OH221752   3.899   4.885   5.716  0.2517 -0.1463  0.1597
 7263TIP3    H121753   3.992   4.888   5.740 -0.2895 -1.6137  2.8771
 7263TIP3    H221754   3.857   4.945   5.777 -0.6170  0.6941 -1.2093
 7264TIP3   OH221755   0.160   4.551   5.602  0.2570  0.3041  0.4271
 7264TIP3    H121756   0.075   4.593   5.608 -0.0316  0.0452 -1.3549
 7264TIP3    H221757   0.218   4.607   5.653 -0.6397  1.4116  0.2609
 7265TIP3   OH221758   2.521   0.575   3.746  0.0352  0.6369  0.0643
 7265TIP3    H121759   2.553   0.500   3.796 -1.1733 -0.7847 -1.2386
 7265TIP3    H221760   2.571   0.649   3.781  1.2807 -0.7494  1.3648
 7266TIP3   OH221761   6.070   1.771   2.759 -0.1351  0.3680  0.1072
 7266TIP3    H121762   6.090   1.822   2.680  0.0574  0.4282  0.1943
 7266TIP3    H221763   5.998   1.819   2.800 -0.4294  0.1751 -0.1849
 7267TIP3   OH221764   0.276   1.162   2.170 -0.6007  0.1768 -0.2802
 7267TIP3    H121765   0.285   1.084   2.115 -1.4345 -0.0759 -0.0676
 7267TIP3    H221766   0.184   1.162   2.197 -0.2364  0.3678  1.0112
 7268TIP3   OH221767   0.279   2.494   0.137 -0.2969 -0.1015  0.0657
 7268TIP3    H121768   0.218   2.501   0.063 -0.7099 -0.5237  0.3632
 7268TIP3    H221769   0.239   2.546   0.206 -1.3838 -2.0131  0.9529
 7269TIP3   OH221770   1.944   5.819   5.894  0.3644 -0.3823 -0.0413
 7269TIP3    H121771   2.002   5.813   5.819  1.9633  0.2245  1.0893
 7269TIP3    H221772   1.933   5.913   5.909  0.9846 -0.4717  1.1270
 7270TIP3   OH221773   2.996   6.278   0.338  0.2273  0.7978 -0.1592
 7270TIP3    H121774   3.027   6.249   0.252  0.4139  1.8673 -0.4715
 7270TIP3    H221775   3.034   6.365   0.349  1.4683  0.0905  1.6808
 7271TIP3   OH221776   2.736   5.767   5.726  0.5109  0.0767 -0.1809
 7271TIP3    H121777   2.710   5.675   5.721  1.4658 -0.4068  2.3164
 7271TIP3    H221778   2.831   5.765   5.730  0.5026  1.0381  1.3520
 7272TIP3   OH221779   6.559   5.065   1.239  0.1439  0.3664 -0.5603
 7272TIP3    H121780   6.560   4.971   1.220  1.0339  0.4087 -0.7804
 7272TIP3    H221781   6.602   5.072   1.324  2.5291  0.7888 -1.7297
 7273TIP3   OH221782   1.124   2.023   1.567 -0.8998  0.7597 -0.4151
 7273TIP3    H121783   1.093   2.089   1.629  1.2841  1.1622  0.3395
 7273TIP3    H221784   1.205   2.060   1.532 -0.4505 -0.8449 -1.1448
 7274TIP3   OH221785   1.063   5.577   3.876  0.4429  0.8311 -0.4270
 7274TIP3    H121786   1.100   5.629   3.805 -1.3433 -0.0630 -2.1414
 7274TIP3    H221787   1.136   5.527   3.910  1.2927  0.9408 -1.9930
 7275TIP3   OH221788   0.219   6.135   2.137 -0.3701 -0.0560 -0.2141
 7275TIP3    H121789   0.180   6.070   2.078  1.4353 -2.0014  0.6239
 7275TIP3    H221790   0.243   6.208   2.079 -1.7827 -0.4206 -1.3073
 7276TIP3   OH221791   5.034   1.460   4.399 -0.3398  0.4144  0.3775
 7276TIP3    H121792   4.983   1.485   4.476  0.1588  2.1819  0.1745
 7276TIP3    H221793   5.063   1.543   4.362  0.8276 -0.4748 -0.7679
 7277TIP3   OH221794   4.043   4.231   5.204  0.2828  0.3916  0.2338
 7277TIP3    H121795   3.951   4.234   5.178  0.1854 -0.7669  0.4148
 7277TIP3    H221796   4.073   4.144   5.178  1.1622  0.5370  0.7226
 7278TIP3   OH221797   2.813   0.131   5.334 -0.0626 -0.2101 -0.0850
 7278TIP3    H121798   2.901   0.163   5.314 -0.6678  1.5844 -0.0694
 7278TIP3    H221799   2.817   0.107   5.427  0.0352  1.3906  0.3593
 7279TIP3   OH221800   6.800   0.734   2.602  0.1749  0.0640 -0.1934
 7279TIP3    H121801   6.837   0.690   2.679 -2.2676 -0.8544  0.5636
 7279TIP3    H221802   6.738   0.798   2.638  0.4782  1.0840 -1.3931
 7280TIP3   OH221803   0.554   2.461   4.812  0.0101 -0.3273 -0.4674
 7280TIP3    H121804   0.513   2.545   4.793 -2.6755 -1.0602  1.4691
 7280TIP3    H221805   0.557   2.417   4.727  0.9198  1.4508 -1.4071
 7281TIP3   OH221806   7.007   2.624   5.761 -0.3690  0.1667  0.2703
 7281TIP3    H121807   6.985   2.620   5.668 -0.1033  1.4273  0.1318
 7281TIP3    H221808   6.936   2.578   5.805 -0.9803  0.3708 -0.4887
 7282TIP3   OH221809   1.839   5.537   5.716  0.1257  0.0772 -0.3322
 7282TIP3    H121810   1.782   5.587   5.774 -0.2667 -0.2291 -0.4491
 7282TIP3    H221811   1.853   5.595   5.641  0.0810  0.2084 -0.2403
 7283TIP3   OH221812   6.355   2.530   1.869 -0.1297  0.4561  0.0939
 7283TIP3    H121813   6.321   2.578   1.793  1.3762  1.2185 -0.1468
 7283TIP3    H221814   6.358   2.595   1.939  1.5488  0.6612 -0.1219
 7284TIP3   OH221815   1.839   3.463   4.614 -0.6112  0.5848  0.2252
 7284TIP3    H121816   1.874   3.474   4.702 -0.2008 -3.0799  0.6581
 7284TIP3    H221817   1.784   3.385   4.619  0.2738 -0.4050 -2.9610
 7285TIP3   OH221818   3.860   4.178   4.775  0.1543  0.0455 -0.5185
 7285TIP3    H121819   3.812   4.146   4.698  1.3217  0.9692 -1.6741
 7285TIP3    H221820   3.856   4.273   4.768 -2.8529  0.3619  2.5927
 7286TIP3   OH221821   4.691   2.843   0.432 -0.0351  0.2399  0.3158
 7286TIP3    H121822   4.633   2.769   0.448 -1.2029  1.2096  0.7713
 7286TIP3    H221823   4.724   2.867   0.519  1.2077 -0.4109  0.0400
 7287TIP3   OH221824   3.351   6.440   3.050  0.1740 -0.1552 -0.1488
 7287TIP3    H121825   3.341   6.363   2.995 -0.5312 -0.0550 -0.1657
 7287TIP3    H221826   3.283   6.432   3.117  0.2814  0.3025  0.0243
 7288TIP3   OH221827   6.136   2.004   1.536 -0.2130  0.3925  0.8270
 7288TIP3    H121828   6.056   2.044   1.501  0.0401  0.7494  0.6493
 7288TIP3    H221829   6.109   1.917   1.563  0.0446 -0.8160 -2.3976
 7289TIP3   OH221830   5.895   4.940   0.318  0.2193 -0.9848  0.2889
 7289TIP3    H121831   5.873   4.897   0.400  2.5374 -0.5899  1.2076
 7289TIP3    H221832   5.867   5.031   0.330  1.7254 -0.6076  1.2298
 7290TIP3   OH221833   1.338   3.341   3.844 -0.1734 -0.3020  0.1263
 7290TIP3    H121834   1.368   3.432   3.838 -0.9599 -0.0922 -0.7408
 7290TIP3    H221835   1.244   3.347   3.856 -0.2445 -1.0053 -0.0387
 7291TIP3   OH221836   5.029   2.025   2.196 -0.1312  0.6117 -0.5674
 7291TIP3    H121837   5.063   2.009   2.108 -1.6570  1.0439 -1.2528
 7291TIP3    H221838   4.956   1.963   2.206 -0.1347  0.7363  0.3056
 7292TIP3   OH221839   3.805   1.557   5.465  0.3546 -0.1525  0.1021
 7292TIP3    H121840   3.875   1.522   5.410 -0.4718  0.8091 -1.6221
 7292TIP3    H221841   3.847   1.628   5.513  0.5050  0.6906 -1.2280
 7293TIP3   OH221842   1.150   6.425   1.360  0.4660 -0.5268 -0.0533
 7293TIP3    H121843   1.183   6.438   1.271 -0.0114 -1.1858 -0.3288
 7293TIP3    H221844   1.185   6.340   1.387  0.3645 -0.4645  0.2799
 7294TIP3   OH221845   2.362   6.029   3.539  0.5231  1.1888 -0.3156
 7294TIP3    H121846   2.357   6.059   3.630 -0.0589  0.4446 -0.0889
 7294TIP3    H221847   2.455   6.036   3.516  0.5478  2.1913  0.0443
 7295TIP3   OH221848   5.542   5.921   4.181  0.0976 -0.0175  0.1517
 7295TIP3    H121849   5.511   5.985   4.246 -0.4669 -1.8685  1.8272
 7295TIP3    H221850   5.578   5.850   4.234 -1.2723 -2.0693 -1.5025
 7296TIP3   OH221851   3.019   2.875   0.371  0.3165 -0.1695 -0.0621
 7296TIP3    H121852   2.933   2.884   0.329  0.7311  2.2263 -0.5340
 7296TIP3    H221853   2.999   2.838   0.457 -1.2961  0.9306  0.0868
 7297TIP3   OH221854   3.529   3.800   0.435 -0.1844  0.2736  0.0882
 7297TIP3    H121855   3.611   3.835   0.399 -0.3818  1.4677  0.7682
 7297TIP3    H221856   3.553   3.770   0.522 -0.4333  0.4361  0.2105
 7298TIP3   OH221857   3.251   6.388   0.579 -0.1820 -0.3106 -1.1970
 7298TIP3    H121858   3.300   6.398   0.497  0.8378 -2.3170 -0.9091
 7298TIP3    H221859   3.162   6.414   0.557  0.6231  1.9153 -2.1721
 7299TIP3   OH221860   4.619   2.066   3.597 -0.4517 -0.2206 -0.3041
 7299TIP3    H121861   4.682   2.044   3.528 -1.3310 -2.4974 -0.4610
 7299TIP3    H221862   4.660   2.035   3.678 -0.1226  0.9693 -0.0037
 7300TIP3   OH221863   4.905   3.959   0.999 -0.1717 -0.0319 -0.4170
 7300TIP3    H121864   4.859   4.014   1.063 -1.4161  0.0198 -1.3171
 7300TIP3    H221865   4.977   3.921   1.048  1.3275  3.0979  0.0494
 7301TIP3   OH221866   1.924   5.883   0.295  0.0689 -0.2398  0.4476
 7301TIP3    H121867   1.933   5.837   0.379  2.0896 -1.0616 -0.1423
 7301TIP3    H221868   1.965   5.968   0.309  0.2930 -0.3287  0.3396
 7302TIP3   OH221869   3.036   1.055   5.552  0.9254  0.2957  0.2999
 7302TIP3    H121870   3.076   1.058   5.639  2.9392  1.6778 -0.5895
 7302TIP3    H221871   3.104   1.088   5.493 -0.7540  0.4544 -1.6718
 7303TIP3   OH221872   5.359   0.395   0.049  0.1002 -0.0115  0.3265
 7303TIP3    H121873   5.293   0.465   0.049 -1.9194 -1.7887  1.6585
 7303TIP3    H221874   5.339   0.344  -0.029  0.2400 -0.2820  0.4691
 7304TIP3   OH221875   0.153   6.676   0.512  0.1867  0.4187  0.2571
 7304TIP3    H121876   0.143   6.626   0.592 -0.6750  0.5725  0.2485
 7304TIP3    H221877   0.089   6.639   0.451  0.7687  0.3573 -0.3363
 7305TIP3   OH221878   5.867   0.745   3.448 -0.1595  0.4572  0.4036
 7305TIP3    H121879   5.934   0.688   3.413 -0.1759  1.2069 -0.9114
 7305TIP3    H221880   5.821   0.692   3.513 -1.0416 -1.4958 -1.6969
 7306TIP3   OH221881   6.998   5.656   1.395  0.6623  0.2477  0.5081
 7306TIP3    H121882   7.046   5.579   1.366  0.9255  0.9647 -1.0678
 7306TIP3    H221883   6.910   5.624   1.413  1.1204 -0.6575  1.1953
 7307TIP3   OH221884   5.441   2.784   0.407  0.3801 -0.6447 -0.1640
 7307TIP3    H121885   5.442   2.744   0.320 -0.5184 -1.5091  0.1982
 7307TIP3    H221886   5.365   2.842   0.406  1.8111  1.2892 -0.7572
 7308TIP3   OH221887   1.477   1.484   3.748 -0.1823 -0.3435 -0.1407
 7308TIP3    H121888   1.486   1.577   3.725  0.3709 -0.7441 -1.6227
 7308TIP3    H221889   1.567   1.452   3.754 -0.3528 -0.6068  1.1987
 7309TIP3   OH221890   1.469   4.826   5.101 -0.1898 -0.1200  0.0616
 7309TIP3    H121891   1.388   4.867   5.131 -0.3810 -0.2228 -0.3140
 7309TIP3    H221892   1.462   4.735   5.130  0.1385  0.0486  0.7043
 7310TIP3   OH221893   5.166   4.660   1.054 -0.4061  0.5600 -0.4640
 7310TIP3    H121894   5.093   4.683   0.996 -1.6589 -3.3182 -0.7205
 7310TIP3    H221895   5.148   4.706   1.136 -1.8110  1.5563 -1.3054
 7311TIP3   OH221896   6.651   4.624   4.869 -0.1175 -0.2000  0.1203
 7311TIP3    H121897   6.672   4.708   4.909 -1.5915  0.6493 -0.7920
 7311TIP3    H221898   6.586   4.585   4.927  1.9784 -1.6967  1.6202
 7312TIP3   OH221899   2.678   4.891   0.493 -0.0744  0.7142  0.0328
 7312TIP3    H121900   2.685   4.796   0.499 -0.5420  0.7519  1.8954
 7312TIP3    H221901   2.739   4.916   0.424 -0.3937 -0.9828 -0.8881
 7313TIP3   OH221902   5.783   1.992   0.180  0.0739  0.4953 -0.0642
 7313TIP3    H121903   5.797   1.902   0.150  0.6122 -0.0522  1.6617
 7313TIP3    H221904   5.815   1.991   0.271 -1.2269  2.0641  0.4498
 7314TIP3   OH221905   3.988   5.164   2.262 -0.3172 -0.0599 -0.1341
 7314TIP3    H121906   4.011   5.256   2.270 -0.6637  0.0159  0.0346
 7314TIP3    H221907   4.007   5.142   2.171 -1.0195  0.4058 -0.4022
 7315TIP3   OH221908   0.296   0.348   0.901  0.3188  0.0866  0.1776
 7315TIP3    H121909   0.348   0.288   0.848  1.1511  0.4495  0.5795
 7315TIP3    H221910   0.288   0.305   0.986  1.5675  0.8651  0.7123
 7316TIP3   OH221911   1.271   0.546   4.713  0.0993  0.1821 -0.3710
 7316TIP3    H121912   1.289   0.535   4.806  1.1107  1.4027 -0.3897
 7316TIP3    H221913   1.321   0.477   4.670 -0.0077 -0.1057 -0.0324
 7317TIP3   OH221914   7.162   6.669   5.174 -0.0446  0.3819 -0.8186
 7317TIP3    H121915   7.146   6.581   5.141  2.2444  0.2321 -1.7363
 7317TIP3    H221916   7.076   6.700   5.203 -0.6308 -2.7825  1.2580
 7318TIP3   OH221917   3.298   4.315   5.062  0.0320 -0.0801  0.0342
 7318TIP3    H121918   3.345   4.366   4.997  0.1838 -0.5761 -0.2509
 7318TIP3    H221919   3.240   4.258   5.011 -0.0976 -0.2288  0.3435
 7319TIP3   OH221920   4.818   0.440   1.425 -0.2796 -0.6498  0.4170
 7319TIP3    H121921   4.867   0.368   1.466 -0.5044 -1.3527 -0.5157
 7319TIP3    H221922   4.884   0.506   1.405 -0.0986 -0.4942  1.4683
 7320TIP3   OH221923   0.491   2.616   4.111 -0.2883  0.1273  1.0244
 7320TIP3    H121924   0.486   2.546   4.175  0.4757  0.9572  2.0288
 7320TIP3    H221925   0.530   2.576   4.034  0.5857 -0.4580  1.7486
 7321TIP3   OH221926   1.382   4.967   0.475  0.6798 -0.0848 -0.0900
 7321TIP3    H121927   1.406   5.036   0.413 -0.1061  0.4642  0.1802
 7321TIP3    H221928   1.411   5.001   0.560  0.2069 -0.0347  0.0556
 7322TIP3   OH221929   0.498   1.787   1.535  0.4851  0.1125  0.0420
 7322TIP3    H121930   0.413   1.778   1.492  0.5412 -1.2266  0.1786
 7322TIP3    H221931   0.497   1.876   1.571 -0.7631  0.1967 -0.1468
 7323TIP3   OH221932   3.716   0.416   5.381 -0.1066 -0.0771  0.2270
 7323TIP3    H121933   3.751   0.504   5.375 -1.0284  0.2947  0.0930
 7323TIP3    H221934   3.779   0.361   5.336  0.5636  0.4888  0.4690
 7324TIP3   OH221935   4.784   6.077   0.529  0.1186 -0.2536  0.4418
 7324TIP3    H121936   4.852   6.101   0.591 -0.2189  0.1137  0.6748
 7324TIP3    H221937   4.749   6.161   0.498  0.6898 -0.4158 -0.7007
 7325TIP3   OH221938   3.960   3.622   4.805  0.1442 -0.5108 -0.0486
 7325TIP3    H121939   3.959   3.542   4.858 -0.1129 -2.2827 -2.5373
 7325TIP3    H221940   4.053   3.643   4.795  0.1848 -0.0023  1.2658
 7326TIP3   OH221941   1.260   3.924   3.660 -0.5178  0.4309  0.2509
 7326TIP3    H121942   1.225   3.882   3.738 -0.4067  0.4160  0.2923
 7326TIP3    H221943   1.230   3.869   3.587 -0.7586  0.5359  0.2691
 7327TIP3   OH221944   4.604   2.097   5.357 -0.0561  0.6958 -0.3069
 7327TIP3    H121945   4.544   2.055   5.295  0.5624 -0.6034 -0.0675
 7327TIP3    H221946   4.567   2.078   5.443  0.5942  0.0090 -0.1646
 7328TIP3   OH221947   0.460   5.135   4.098 -0.0580  0.6805 -0.0241
 7328TIP3    H121948   0.525   5.092   4.154  0.3097  0.5329 -0.5595
 7328TIP3    H221949   0.492   5.122   4.009 -0.6803  0.8471 -0.2798
 7329TIP3   OH221950   6.607   3.769   5.437  0.5041  0.2864 -0.5364
 7329TIP3    H121951   6.691   3.786   5.479  0.4747 -0.7205 -0.0434
 7329TIP3    H221952   6.584   3.680   5.465 -0.3441  0.2565 -1.2984
 7330TIP3   OH221953   7.073   5.522   3.340  0.4426  0.6070  0.3032
 7330TIP3    H121954   7.065   5.470   3.420 -1.2355 -0.4617 -0.4959
 7330TIP3    H221955   7.167   5.534   3.328  0.7374  0.4456  2.1943
 7331TIP3   OH221956   6.900   0.896   2.127  0.2259  0.6541 -0.1578
 7331TIP3    H121957   6.878   0.868   2.216  0.4568 -0.1640 -0.3427
 7331TIP3    H221958   6.910   0.814   2.079  0.7692  1.0777 -0.7785
 7332TIP3   OH221959   1.313   2.665   1.087 -0.5162 -0.6275 -0.5023
 7332TIP3    H121960   1.267   2.581   1.079 -0.7915 -0.5524  0.2239
 7332TIP3    H221961   1.375   2.666   1.013  1.6392 -2.8305  1.1089
 7333TIP3   OH221962   7.002   5.695   5.036  0.0920 -0.2087  0.0146
 7333TIP3    H121963   6.920   5.743   5.045  0.7736  0.9158  0.4095
 7333TIP3    H221964   7.040   5.728   4.954 -0.6404 -2.0142 -1.1353
 7334TIP3   OH221965   5.176   1.009   2.452 -0.3614  0.0876 -0.4591
 7334TIP3    H121966   5.133   0.923   2.449 -0.9560  0.4023 -1.2401
 7334TIP3    H221967   5.170   1.042   2.362 -1.1424  1.4371  0.0719
 7335TIP3   OH221968   0.376   1.229   5.111  0.1218 -0.1567 -0.0303
 7335TIP3    H121969   0.468   1.220   5.138  0.0574 -0.2634  0.1558
 7335TIP3    H221970   0.334   1.274   5.184 -0.5236 -2.3806  1.0697
 7336TIP3   OH221971   0.379   1.216   0.379  0.0896  0.0462  0.0611
 7336TIP3    H121972   0.307   1.180   0.430  1.1875 -1.0595  0.8846
 7336TIP3    H221973   0.347   1.302   0.350 -1.6889 -0.5910  0.0499
 7337TIP3   OH221974   3.197   1.643   5.158  0.6827 -0.0877  0.0125
 7337TIP3    H121975   3.223   1.594   5.236 -3.5718 -1.7440  0.6560
 7337TIP3    H221976   3.215   1.585   5.085  0.9031 -0.2349  0.1842
 7338TIP3   OH221977   0.026   0.764   0.552 -0.7224  0.0702  0.1040
 7338TIP3    H121978   0.022   0.856   0.526 -0.4184 -0.0145 -0.2530
 7338TIP3    H221979  -0.045   0.722   0.503 -1.1695  0.1984  0.6333
 7339TIP3   OH221980   4.925   3.704   0.013  0.1569  0.7274  1.5803
 7339TIP3    H121981   5.017   3.695   0.039  1.2515 -1.0694 -2.2088
 7339TIP3    H221982   4.925   3.776  -0.049 -0.2801 -1.1860 -0.7670
 7340TIP3   OH221983   0.170   3.856   0.387  0.1031 -0.0034 -0.4946
 7340TIP3    H121984   0.113   3.788   0.423 -2.2060  1.5966 -0.9137
 7340TIP3    H221985   0.171   3.925   0.453  2.9670 -0.5957  0.2338
 7341TIP3   OH221986   0.027   2.447   0.929  0.1707 -0.3718  0.4121
 7341TIP3    H121987   0.081   2.469   1.005  1.4853  0.2161 -0.6484
 7341TIP3    H221988   0.049   2.356   0.909  2.9882  0.6196 -1.6588
 7342TIP3   OH221989   3.980   6.765   0.347  0.2403 -0.3755  0.2824
 7342TIP3    H121990   3.966   6.768   0.253  1.3929 -1.2853  0.0494
 7342TIP3    H221991   3.910   6.818   0.384 -0.3461 -0.1693 -1.0706
 7343TIP3   OH221992   6.333   4.524   3.181  0.6732 -0.1625  0.1008
 7343TIP3    H121993   6.377   4.542   3.264  0.7090  0.3844 -0.0295
 7343TIP3    H221994   6.304   4.433   3.188  1.1629 -0.2957  0.4866
 7344TIP3   OH221995   0.520   4.690   0.837 -0.6942  0.0738  0.1317
 7344TIP3    H121996   0.516   4.781   0.808  0.1023 -0.0311 -0.3503
 7344TIP3    H221997   0.456   4.685   0.908 -1.7675  0.6562 -0.7466
 7345TIP3   OH221998   6.064   2.968   4.842  0.4518 -0.4629  1.0819
 7345TIP3    H121999   6.072   3.016   4.760 -1.0772 -0.3240  0.9775
 7345TIP3    H222000   6.002   2.897   4.823 -1.3264  0.5984  2.5057
 7346TIP3   OH222001   3.912   4.683   2.994  0.6543 -0.2085 -0.3856
 7346TIP3    H122002   3.998   4.713   2.966  0.8214 -0.0253  0.2971
 7346TIP3    H222003   3.867   4.659   2.913  1.5134 -0.7582 -0.7137
 7347TIP3   OH222004   5.934   6.480   0.785 -0.0260  0.3190  0.1084
 7347TIP3    H122005   5.848   6.491   0.826 -0.3266  0.9357 -0.6414
 7347TIP3    H222006   5.970   6.401   0.825 -1.3426 -0.5026 -0.2471
 7348TIP3   OH222007   1.955   3.224   2.792 -0.5027 -0.2614  0.2468
 7348TIP3    H122008   1.988   3.143   2.752 -0.5969  0.3676 -1.1524
 7348TIP3    H222009   1.874   3.243   2.745 -0.1138  1.0291  0.0628
 7349TIP3   OH222010   3.391   3.763   3.444  0.3952  0.1994 -0.0277
 7349TIP3    H122011   3.387   3.684   3.391  0.8655  0.1879 -0.0521
 7349TIP3    H222012   3.479   3.797   3.429  0.0944  0.8920 -0.2514
 7350TIP3   OH222013   0.339   2.922   4.827 -0.4364 -0.1736  0.2812
 7350TIP3    H122014   0.299   2.869   4.896 -1.2442  1.0302  0.7633
 7350TIP3    H222015   0.264   2.960   4.780  0.1242 -0.0220 -0.5038
 7351TIP3   OH222016   1.355   0.563   1.666 -0.5745  0.0257 -0.4390
 7351TIP3    H122017   1.285   0.615   1.625 -0.3904 -0.1685 -1.0003
 7351TIP3    H222018   1.339   0.474   1.636 -0.6172 -0.1742  0.1600
 7352TIP3   OH222019   3.338   5.237   1.721  0.5126  0.4134  0.3198
 7352TIP3    H122020   3.262   5.186   1.750  0.4053 -0.5667 -1.5284
 7352TIP3    H222021   3.410   5.173   1.718  1.1902  1.1166  1.0913
 7353TIP3   OH222022   4.265   0.460   4.248  0.1176 -0.4083  0.2223
 7353TIP3    H122023   4.266   0.531   4.184  0.1250 -2.0967 -1.7590
 7353TIP3    H222024   4.333   0.400   4.218 -0.9323 -1.9896  0.8997
 7354TIP3   OH222025   4.712   2.220   2.577 -0.0321  0.1793 -0.4719
 7354TIP3    H122026   4.628   2.182   2.599 -0.0356  0.1198 -0.5945
 7354TIP3    H222027   4.776   2.154   2.604 -0.0976 -0.6783 -2.2903
 7355TIP3   OH222028   4.543   2.006   1.429 -0.0506  0.1109 -0.0734
 7355TIP3    H122029   4.629   1.979   1.395 -0.1457  2.0466 -2.0192
 7355TIP3    H222030   4.538   1.964   1.516  3.7287  1.5244  1.0408
 7356TIP3   OH222031   0.777   2.039   2.633 -0.1208 -0.3451  0.0906
 7356TIP3    H122032   0.812   1.952   2.611 -0.5087 -0.3558 -0.5181
 7356TIP3    H222033   0.774   2.040   2.729  1.2877 -0.4375  0.1667
 7357TIP3   OH222034   5.234   5.850   0.281 -0.3644 -0.3540  0.0236
 7357TIP3    H122035   5.205   5.931   0.238 -0.5439 -0.3963  0.0646
 7357TIP3    H222036   5.170   5.836   0.351  1.8588  1.6750  2.6897
 7358TIP3   OH222037   6.618   0.586   2.975 -0.6602  0.8566  1.2593
 7358TIP3    H122038   6.697   0.626   2.938 -0.9870 -0.0020 -0.4697
 7358TIP3    H222039   6.647   0.547   3.057  1.0127 -0.3158  0.1925
 7359TIP3   OH222040   0.058   6.631   2.294  0.0617  0.3468  0.4328
 7359TIP3    H122041   0.065   6.537   2.274  1.6973  0.3474  0.8362
 7359TIP3    H222042   0.101   6.674   2.220 -0.2659  0.7593  0.4796
 7360TIP3   OH222043   6.117   4.003   1.955  0.2657  0.2497 -0.5060
 7360TIP3    H122044   6.117   4.017   2.049 -1.4003 -1.1580 -0.2437
 7360TIP3    H222045   6.068   4.077   1.920 -2.3416 -1.0485  0.1557
 7361TIP3   OH222046   2.331   3.406   3.337  0.0982 -0.5558  0.7153
 7361TIP3    H122047   2.415   3.440   3.306 -0.2385 -1.0563 -0.8682
 7361TIP3    H222048   2.354   3.334   3.396  0.8465 -2.1291 -1.3754
 7362TIP3   OH222049   5.426   6.355   1.119  0.3039 -0.5727  0.0594
 7362TIP3    H122050   5.405   6.267   1.150  2.0140 -0.7761  0.7805
 7362TIP3    H222051   5.443   6.343   1.025 -2.4087 -0.4142 -0.5289
 7363TIP3   OH222052   3.275   2.415   2.124  0.0600  0.2176  0.0157
 7363TIP3    H122053   3.345   2.437   2.062  0.7420  0.4518  0.8448
 7363TIP3    H222054   3.309   2.443   2.209 -1.2736  0.8546  0.3665
 7364TIP3   OH222055   5.375   1.784   0.370 -0.1555  0.3754  0.5793
 7364TIP3    H122056   5.433   1.711   0.389 -0.5800 -0.2917 -0.6071
 7364TIP3    H222057   5.392   1.847   0.441  1.4632 -0.1103  0.6699
 7365TIP3   OH222058   4.443   1.267   2.118 -0.1519  0.0028  0.2134
 7365TIP3    H122059   4.423   1.341   2.175 -1.6941  0.6104 -1.0312
 7365TIP3    H222060   4.500   1.304   2.051  0.4808 -0.3602  0.5494
 7366TIP3   OH222061   1.114   1.674   1.022  0.0040  0.0509 -0.2474
 7366TIP3    H122062   1.200   1.650   1.057 -0.9865 -1.4684  1.3342
 7366TIP3    H222063   1.055   1.608   1.058 -2.1032  2.0138  0.1034
 7367TIP3   OH222064   3.073   1.012   0.633  0.1735 -0.6196 -0.0696
 7367TIP3    H122065   3.025   1.095   0.632  0.6939 -0.3188 -0.2006
 7367TIP3    H222066   3.074   0.987   0.726 -0.2511 -0.6417 -0.0667
 7368TIP3   OH222067   4.992   4.367   4.043  0.1730  0.0975 -0.4311
 7368TIP3    H122068   4.967   4.440   3.986 -1.5493  0.6172  0.9187
 7368TIP3    H222069   4.917   4.308   4.039  0.1819 -0.0304  1.0069
 7369TIP3   OH222070   5.748   6.159   5.322 -0.2245 -0.2729  0.5182
 7369TIP3    H122071   5.664   6.113   5.329  0.2069 -1.1038  0.3884
 7369TIP3    H222072   5.813   6.089   5.311  0.3334  0.4240 -0.8977
 7370TIP3   OH222073   6.716   0.917   5.493 -0.2970  0.0527  0.3711
 7370TIP3    H122074   6.743   0.893   5.581 -0.8324 -0.9032  0.2905
 7370TIP3    H222075   6.750   1.006   5.481 -0.8574  0.4978  1.8132
 7371TIP3   OH222076   3.482   1.551   4.502 -0.0544  0.1798 -0.0762
 7371TIP3    H122077   3.390   1.550   4.478 -0.1374 -1.4764  0.2039
 7371TIP3    H222078   3.523   1.484   4.447  0.7112 -0.0609  0.7431
 7372TIP3   OH222079   0.214   4.945   0.022 -0.1934 -0.6697 -0.0412
 7372TIP3    H122080   0.144   4.887   0.051  0.6719 -1.6337  0.1782
 7372TIP3    H222081   0.231   4.918  -0.068 -0.1644 -0.3730 -0.1254
 7373TIP3   OH222082   6.219   4.396   3.571  0.4028  0.5641  0.0773
 7373TIP3    H122083   6.281   4.326   3.554  0.5365  0.9099 -0.9086
 7373TIP3    H222084   6.192   4.383   3.662  0.4396 -0.7470 -0.0844
 7374TIP3   OH222085   1.578   4.650   4.341 -0.4024  0.3707 -0.2435
 7374TIP3    H122086   1.487   4.621   4.341  0.1570 -1.7616 -2.6300
 7374TIP3    H222087   1.621   4.596   4.406 -0.4451 -0.1420 -0.6393
 7375TIP3   OH222088   4.816   0.417   3.959 -0.1773  0.2867 -0.1089
 7375TIP3    H122089   4.752   0.456   4.018  0.2760  0.5963  0.1940
 7375TIP3    H222090   4.899   0.457   3.985  0.1333 -0.0864 -0.5095
 7376TIP3   OH222091   2.726   0.196   2.124  0.0454  0.3390 -0.1885
 7376TIP3    H122092   2.747   0.287   2.144 -0.3883  0.6678 -1.1699
 7376TIP3    H222093   2.805   0.161   2.083  0.9811 -0.3710  2.0369
 7377TIP3   OH222094   2.278   2.770   5.539 -0.7497  0.4332  0.0404
 7377TIP3    H122095   2.220   2.756   5.464  1.7159  0.8731 -2.1004
 7377TIP3    H222096   2.221   2.761   5.615 -2.9961 -2.2998 -1.7455
 7378TIP3   OH222097   6.455   5.856   2.273 -0.1611  0.2468 -0.4748
 7378TIP3    H122098   6.527   5.836   2.213 -0.7549  0.4372 -1.2627
 7378TIP3    H222099   6.413   5.771   2.288  0.7357 -0.0147  0.6760
 7379TIP3   OH222100   3.183   3.548   5.134 -0.2671  0.5160  0.2235
 7379TIP3    H122101   3.136   3.480   5.183 -0.7215  1.1922  0.7481
 7379TIP3    H222102   3.142   3.630   5.162  1.6891  1.2122  1.2643
 7380TIP3   OH222103   4.623   0.141   4.818  0.0484 -0.0953  0.5735
 7380TIP3    H122104   4.528   0.127   4.819  0.3050 -2.2877 -0.3283
 7380TIP3    H222105   4.652   0.115   4.905 -0.1195  0.1156  0.6931
 7381TIP3   OH222106   2.047   5.121   1.598  0.8731  0.5471 -0.1006
 7381TIP3    H122107   2.103   5.121   1.675  0.5814  0.9426  0.1131
 7381TIP3    H222108   2.016   5.211   1.590  1.7004  0.7554 -1.2744
 7382TIP3   OH222109   4.699   3.576   1.193 -0.3198 -0.3585 -0.0310
 7382TIP3    H122110   4.682   3.661   1.152 -1.0942 -0.4834  0.0252
 7382TIP3    H222111   4.640   3.573   1.268 -0.9860 -1.3400 -0.5745
 7383TIP3   OH222112   0.961   4.761   4.673  0.6244  0.5043 -0.6086
 7383TIP3    H122113   0.993   4.683   4.627  0.2751 -0.0919  0.1233
 7383TIP3    H222114   0.962   4.830   4.607  1.1079 -0.0782 -1.2319
 7384TIP3   OH222115   1.968   2.006   3.511  0.3468  0.2750  0.5349
 7384TIP3    H122116   1.949   2.091   3.471  0.7804 -0.0852 -0.4939
 7384TIP3    H222117   2.052   1.981   3.472 -0.0652 -0.8864  0.3641
 7385TIP3   OH222118   4.011   4.736   0.872 -0.1821  0.1334 -0.3325
 7385TIP3    H122119   4.000   4.641   0.875 -1.4725  0.2992  1.0499
 7385TIP3    H222120   3.929   4.769   0.835  0.0933  0.7350 -0.4220
 7386TIP3   OH222121   3.505   4.044   3.562  0.5016  0.2083  0.9426
 7386TIP3    H122122   3.503   3.948   3.558 -1.5672  0.2379 -0.1584
 7386TIP3    H222123   3.436   4.067   3.625 -0.2801  0.9859 -0.1554
 7387TIP3   OH222124   4.432   3.456   2.421  0.3749 -0.5059 -0.1833
 7387TIP3    H122125   4.524   3.483   2.417  0.5890 -0.9340  1.3129
 7387TIP3    H222126   4.385   3.538   2.439  0.5337 -0.4017 -0.2331
 7388TIP3   OH222127   6.845   4.700   0.744  0.1462  0.0345 -0.3348
 7388TIP3    H122128   6.924   4.650   0.763  1.0615  1.6587  0.3665
 7388TIP3    H222129   6.873   4.791   0.748 -1.4788  0.6243 -1.4476
 7389TIP3   OH222130   5.075   0.174   2.295 -0.0008  0.9910 -0.1687
 7389TIP3    H122131   5.004   0.237   2.282  0.4250  1.5457  0.1857
 7389TIP3    H222132   5.033   0.088   2.283 -0.2587  1.3570 -2.3038
 7390TIP3   OH222133   4.681   6.631   1.294  0.1278 -0.0337  0.2347
 7390TIP3    H122134   4.594   6.606   1.325  0.2820 -0.9223  0.0006
 7390TIP3    H222135   4.684   6.726   1.303 -1.2964  0.1548 -0.8560
 7391TIP3   OH222136   2.396   6.502   0.692  0.7069 -0.5905  0.1714
 7391TIP3    H122137   2.486   6.532   0.703 -0.6521  3.4623  2.0686
 7391TIP3    H222138   2.368   6.479   0.781 -0.4008 -0.9139 -0.2479
 7392TIP3   OH222139   5.872   4.536   1.768 -0.3362  0.2082  0.1309
 7392TIP3    H122140   5.958   4.574   1.786 -1.5246  2.5265  1.4964
 7392TIP3    H222141   5.836   4.518   1.855 -0.4587 -2.7925 -0.4444
 7393TIP3   OH222142   6.212   2.886   0.608  0.0725 -0.3758  0.2159
 7393TIP3    H122143   6.256   2.967   0.635 -0.4170 -0.4665  1.3696
 7393TIP3    H222144   6.272   2.846   0.546  2.3811 -1.2099  2.7675
 7394TIP3   OH222145   3.298   4.302   1.674 -0.0261 -0.0249  0.3452
 7394TIP3    H122146   3.366   4.328   1.612  0.5752 -1.0306  0.5606
 7394TIP3    H222147   3.325   4.216   1.705 -1.3759 -0.4136  0.4970
 7395TIP3   OH222148   2.815   3.992   0.462 -0.0737  0.2137  0.3888
 7395TIP3    H122149   2.835   3.903   0.433  0.6163 -0.1623  1.8863
 7395TIP3    H222150   2.899   4.037   0.464 -0.1464  0.3410  1.3333
 7396TIP3   OH222151   3.716   1.019   4.917  0.1499  0.9710  0.1047
 7396TIP3    H122152   3.754   0.969   4.844 -0.8380 -1.6626  1.2538
 7396TIP3    H222153   3.752   0.976   4.995 -1.1272  1.7866  1.1694
 7397TIP3   OH222154   2.009   5.957   2.955  0.4947  0.0825  0.1730
 7397TIP3    H122155   1.915   5.968   2.973  0.8037  1.1090  1.2501
 7397TIP3    H222156   2.020   5.862   2.943 -0.7923  0.0149 -0.6721
 7398TIP3   OH222157   1.057   6.656   0.150  0.2576 -0.1270  0.3103
 7398TIP3    H122158   1.098   6.738   0.176  0.2221 -0.0048 -0.0100
 7398TIP3    H222159   1.062   6.600   0.228  2.1127 -0.5453 -0.0823
 7399TIP3   OH222160   6.807   5.731  -0.010 -0.7866  0.1835  0.4496
 7399TIP3    H122161   6.777   5.737   0.081 -3.4921 -2.1215 -0.1464
 7399TIP3    H222162   6.739   5.774  -0.061  0.8590  1.7447 -0.5722
 7400TIP3   OH222163   6.573   5.641   3.757  0.4021  0.0909 -0.3340
 7400TIP3    H122164   6.516   5.612   3.686 -1.3375 -0.7630  1.3162
 7400TIP3    H222165   6.609   5.561   3.794  0.5502  0.4458  0.3136
 7401TIP3   OH222166   2.629   5.901   3.783  0.3242  0.0814 -0.4793
 7401TIP3    H122167   2.627   5.895   3.687  3.1086  0.8768 -0.6538
 7401TIP3    H222168   2.619   5.995   3.801 -0.0530 -0.0525  0.0123
 7402TIP3   OH222169   6.173   4.354   1.609  0.0452 -0.2558  0.6462
 7402TIP3    H122170   6.263   4.354   1.642 -0.6617 -1.2050  2.6875
 7402TIP3    H222171   6.163   4.440   1.568  2.1898 -0.5177 -0.6025
 7403TIP3   OH222172   1.479   3.609   1.055  0.3682 -0.3479  0.1476
 7403TIP3    H122173   1.456   3.653   0.973 -0.4358 -2.0765 -0.6042
 7403TIP3    H222174   1.453   3.670   1.124 -0.7559  0.3240 -0.8455
 7404TIP3   OH222175   0.873   2.293   3.870  0.4242  0.1435 -0.4564
 7404TIP3    H122176   0.913   2.227   3.927 -1.8510 -0.0224  1.0976
 7404TIP3    H222177   0.934   2.367   3.873 -0.2372  0.7966  3.6298
 7405TIP3   OH222178   4.017   1.511   0.528  0.3165 -0.5809  0.1487
 7405TIP3    H122179   4.064   1.584   0.488 -0.5146 -0.2056 -0.1463
 7405TIP3    H222180   4.080   1.438   0.524  0.8246 -0.1283 -0.3788
 7406TIP3   OH222181   6.253   5.473   5.323  0.3802 -0.5833  0.0345
 7406TIP3    H122182   6.303   5.506   5.398 -0.7480 -1.3790  1.1738
 7406TIP3    H222183   6.316   5.420   5.274  0.5626 -2.0125  1.7332
 7407TIP3   OH222184   0.254   6.670   5.310  0.1713 -0.6051  0.0809
 7407TIP3    H122185   0.335   6.722   5.310  0.2531 -0.7322  0.3014
 7407TIP3    H222186   0.225   6.672   5.219 -0.9570  1.6023  0.4076
 7408TIP3   OH222187   3.889   2.167   0.952  0.0906 -0.2351  0.0632
 7408TIP3    H122188   3.949   2.204   1.017  0.2765  0.6794 -0.6158
 7408TIP3    H222189   3.827   2.238   0.933  2.1898  0.8953 -3.4688
 7409TIP3   OH222190   6.495   4.798   4.695  0.1129 -0.0548  0.0434
 7409TIP3    H122191   6.517   4.741   4.769  0.9130 -1.9289 -1.5764
 7409TIP3    H222192   6.403   4.822   4.711 -0.2742 -1.8250  0.7752
 7410TIP3   OH222193   6.668   3.196   3.710  0.7164  0.2555 -0.1163
 7410TIP3    H122194   6.735   3.162   3.769  0.6367  0.6132  0.1831
 7410TIP3    H222195   6.627   3.267   3.759  2.7786  2.7362 -1.7706
 7411TIP3   OH222196   6.733   6.089   1.645 -0.5888  0.2207  0.0779
 7411TIP3    H122197   6.816   6.092   1.691  0.1315 -0.4053 -1.1281
 7411TIP3    H222198   6.751   6.038   1.566 -2.6757 -1.8993  0.8822
 7412TIP3   OH222199   5.022   4.545   4.671 -0.0678 -0.3001  0.8088
 7412TIP3    H122200   5.070   4.465   4.691 -0.3926 -0.1745  2.1497
 7412TIP3    H222201   4.943   4.541   4.725 -0.9209  0.1451 -0.3493
 7413TIP3   OH222202   6.943   6.641   3.040 -0.5274  0.1068  0.0754
 7413TIP3    H122203   6.943   6.685   2.955 -0.7837  0.9758  0.5084
 7413TIP3    H222204   6.876   6.687   3.091  0.7708  0.7280  1.2947
 7414TIP3   OH222205   0.516   4.439   4.345  0.4062 -0.5800  0.2060
 7414TIP3    H122206   0.447   4.382   4.310  0.0945  0.2337 -0.5654
 7414TIP3    H222207   0.488   4.457   4.435 -0.0759 -0.7522  0.0988
 7415TIP3   OH222208   5.779   0.535   4.906 -0.0606 -0.8562 -0.4776
 7415TIP3    H122209   5.822   0.476   4.845  0.3284 -1.2349  0.1519
 7415TIP3    H222210   5.692   0.549   4.869 -0.2593 -2.0627 -0.4885
 7416TIP3   OH222211   5.697   6.790   3.337  0.1267  0.3319 -0.0802
 7416TIP3    H122212   5.719   6.705   3.375 -1.2556  0.1549  0.3773
 7416TIP3    H222213   5.721   6.782   3.245 -0.0624 -0.5871 -0.0596
 7417TIP3   OH222214   2.232   5.315   3.138 -0.2687  0.4029 -0.1994
 7417TIP3    H122215   2.205   5.379   3.203 -1.4394  0.4801 -0.7308
 7417TIP3    H222216   2.299   5.359   3.086  1.2555  0.0710  1.4006
 7418TIP3   OH222217   4.493   4.827   5.424 -0.2416  0.5633  0.1588
 7418TIP3    H122218   4.427   4.780   5.374 -1.3103  1.1393  0.9630
 7418TIP3    H222219   4.445   4.860   5.501  0.8686  1.4188  0.5132
 7419TIP3   OH222220   4.754   5.100   3.802 -0.0217 -0.1015 -0.1062
 7419TIP3    H122221   4.721   5.146   3.724  1.7113 -2.2883 -2.2858
 7419TIP3    H222222   4.808   5.165   3.847  1.6345  0.3905 -2.5863
 7420TIP3   OH222223   0.473   3.469   4.332  0.0345 -0.0465  0.5845
 7420TIP3    H122224   0.497   3.386   4.372  1.7430 -0.1763 -0.5747
 7420TIP3    H222225   0.548   3.526   4.348 -0.6085  0.8975  0.3419
 7421TIP3   OH222226   1.080   2.950   5.382 -0.3699  0.2518  0.3465
 7421TIP3    H122227   1.171   2.952   5.352 -0.0556 -2.0569  0.9912
 7421TIP3    H222228   1.079   2.886   5.452 -2.1368  1.6767  1.7367
 7422TIP3   OH222229   2.933   6.376   0.681  0.2119 -0.3616 -0.2080
 7422TIP3    H122230   2.863   6.326   0.723  0.3202 -1.2796 -1.0766
 7422TIP3    H222231   3.001   6.383   0.749  0.4268 -1.8965 -0.2176
 7423TIP3   OH222232   7.060   5.035   4.365 -0.0279  0.3681  0.1443
 7423TIP3    H122233   7.126   5.087   4.320 -0.5316  0.0951 -0.9415
 7423TIP3    H222234   7.076   4.945   4.335 -0.7451  0.2703  0.0475
 7424TIP3   OH222235   5.098   0.948   0.702 -1.0567  0.1603  0.5281
 7424TIP3    H122236   5.115   1.036   0.736 -0.6600  0.9370 -1.5361
 7424TIP3    H222237   5.078   0.962   0.609  0.6058 -2.0567 -0.2287
 7425TIP3   OH222238   4.773   3.286   2.154  0.0944  0.4002  0.3334
 7425TIP3    H122239   4.770   3.281   2.249 -0.7950 -1.3696  0.2435
 7425TIP3    H222240   4.686   3.316   2.128 -0.1774 -0.6033  0.0325
 7426TIP3   OH222241   5.071   1.747   2.747  0.0893  0.6068  0.1063
 7426TIP3    H122242   5.004   1.680   2.761  1.5787 -0.9997 -0.0339
 7426TIP3    H222243   5.053   1.814   2.813  0.1510 -1.2755  2.1642
 7427TIP3   OH222244   2.657   0.848   4.566  0.3735  0.0190 -0.1585
 7427TIP3    H122245   2.590   0.904   4.604 -1.6802 -1.1904 -1.7565
 7427TIP3    H222246   2.622   0.759   4.575  0.9775 -0.5270 -2.4592
 7428TIP3   OH222247   6.650   5.488   1.866  0.5526 -0.5636  0.3550
 7428TIP3    H122248   6.668   5.424   1.797  2.0519 -0.9600  1.0620
 7428TIP3    H222249   6.646   5.435   1.946 -1.3576 -0.1399  0.5838
 7429TIP3   OH222250   2.995   6.091   2.473  0.2251  0.2186 -0.1119
 7429TIP3    H122251   3.002   6.034   2.396 -0.4981  1.0299 -0.8046
 7429TIP3    H222252   2.947   6.039   2.537  2.1879 -1.0585  0.4110
 7430TIP3   OH222253   0.328   3.631   2.758  0.0267 -0.4976  0.1392
 7430TIP3    H122254   0.290   3.697   2.815  1.7329  0.3309  0.3542
 7430TIP3    H222255   0.300   3.656   2.670 -1.2840 -0.8780  0.4164
 7431TIP3   OH222256   6.532   2.948   5.304  0.0897  0.1217 -0.2216
 7431TIP3    H122257   6.452   2.996   5.281 -0.6239 -1.0282 -0.2127
 7431TIP3    H222258   6.535   2.876   5.241  0.0241 -1.0003  1.0273
 7432TIP3   OH222259   5.023   1.038   0.237  0.1737  0.0761 -0.0802
 7432TIP3    H122260   5.013   0.944   0.220  0.3629 -0.0685  0.5748
 7432TIP3    H222261   5.112   1.058   0.210  0.7983 -0.3527  1.5450
 7433TIP3   OH222262   0.882   0.428   2.574  0.7539  0.4959 -0.0718
 7433TIP3    H122263   0.850   0.411   2.485  1.8393  0.1999 -0.4143
 7433TIP3    H222264   0.807   0.468   2.619 -0.1616 -0.3679 -0.7896
 7434TIP3   OH222265   5.013   3.536   5.018  0.4226 -0.4710  0.7519
 7434TIP3    H122266   4.971   3.619   5.039 -0.4443 -1.1547  1.7849
 7434TIP3    H222267   5.027   3.493   5.102  0.5101 -1.5445  0.2098
 7435TIP3   OH222268   2.983   0.694   3.962  0.1434  0.3578  0.1333
 7435TIP3    H122269   3.051   0.743   4.008  1.0321 -1.4443  0.8459
 7435TIP3    H222270   2.952   0.630   4.026  0.0573 -0.9489 -1.1639
 7436TIP3   OH222271   1.361   6.007   4.827 -0.3489 -0.2778  0.1086
 7436TIP3    H122272   1.313   5.949   4.886 -2.1807  0.9715 -0.0767
 7436TIP3    H222273   1.342   5.972   4.739  1.1954 -1.2625  0.1099
 7437TIP3   OH222274   0.842   0.887   1.879 -0.2575 -0.0495 -0.2453
 7437TIP3    H122275   0.877   0.935   1.804  1.2544  0.4244  0.7263
 7437TIP3    H222276   0.799   0.811   1.841 -2.7292  1.9736 -1.8536
 7438TIP3   OH222277   1.405   2.327   0.869  0.0840  0.2644  0.3674
 7438TIP3    H122278   1.435   2.268   0.939  1.0904 -0.2644 -0.4820
 7438TIP3    H222279   1.343   2.274   0.819  0.1709  0.2910  0.2325
 7439TIP3   OH222280   1.082   0.912   3.999 -0.1233 -0.1493  0.1868
 7439TIP3    H122281   1.076   0.983   4.063 -0.3135 -0.6197  0.6963
 7439TIP3    H222282   1.027   0.941   3.926  0.1314  0.4093  0.2052
 7440TIP3   OH222283   0.938   1.545   1.170  0.6322 -0.0791 -0.3145
 7440TIP3    H122284   0.938   1.541   1.266  1.3760  0.9902 -0.2421
 7440TIP3    H222285   0.849   1.522   1.145 -0.0999  1.3989  0.7587
 7441TIP3   OH222286   3.908   3.052   3.841  0.1795 -0.4404 -0.0179
 7441TIP3    H122287   3.857   2.988   3.891  0.8063 -0.8569  0.0982
 7441TIP3    H222288   3.861   3.060   3.758  0.6941 -1.8862 -0.4776
 7442TIP3   OH222289   3.928   1.867   0.333  0.0061  0.2368 -0.2278
 7442TIP3    H122290   4.022   1.882   0.329  0.0148  0.3747  0.3952
 7442TIP3    H222291   3.910   1.854   0.426 -0.7549  1.3173 -0.2009
 7443TIP3   OH222292   3.686   5.953   1.404  0.7110 -0.2699  0.0073
 7443TIP3    H122293   3.690   5.872   1.456 -1.7557  1.0486  2.5797
 7443TIP3    H222294   3.605   5.945   1.354  0.1864  0.7217  0.6491
 7444TIP3   OH222295   2.442   0.245   2.180  0.5695 -0.0508 -0.0113
 7444TIP3    H122296   2.526   0.221   2.141  0.3664  0.7576 -1.0155
 7444TIP3    H222297   2.386   0.267   2.105  0.0555  1.2445  0.7137
 7445TIP3   OH222298   5.536   5.229   0.798  0.2674  0.0629 -0.0504
 7445TIP3    H122299   5.614   5.174   0.796 -0.5050 -1.0680  0.4149
 7445TIP3    H222300   5.513   5.241   0.706  0.2542 -0.6820 -0.1505
 7446TIP3   OH222301   4.051   6.174   2.998  0.6218  0.2145 -0.5890
 7446TIP3    H122302   4.115   6.240   3.026  0.5522 -0.2892  0.8233
 7446TIP3    H222303   3.985   6.175   3.067 -0.7813  0.5259 -1.8814
 7447TIP3   OH222304   3.628   5.554   1.820 -0.0041 -0.4842 -0.4497
 7447TIP3    H122305   3.598   5.520   1.904  0.9124  0.4087  0.2646
 7447TIP3    H222306   3.614   5.482   1.759 -0.4297 -1.2455  0.5180
 7448TIP3   OH222307   3.390   1.050   1.709 -0.2192  0.0448  0.2156
 7448TIP3    H122308   3.333   1.121   1.740 -1.0900  0.2848 -1.7640
 7448TIP3    H222309   3.464   1.050   1.770 -1.5381  0.8096  1.8994
 7449TIP3   OH222310   5.090   6.227   3.013 -0.1544  0.3521  0.0693
 7449TIP3    H122311   5.078   6.207   3.106 -0.6019  1.0686  0.1708
 7449TIP3    H222312   5.010   6.194   2.971 -0.3709  0.8533  0.0764
 7450TIP3   OH222313   4.284   6.503   0.366 -0.0199 -0.0991  0.4910
 7450TIP3    H122314   4.206   6.473   0.320 -0.8590 -0.5644  2.1500
 7450TIP3    H222315   4.263   6.493   0.459  0.8630  2.5842  1.0761
 7451TIP3   OH222316   1.190   0.198   5.374  0.4217 -0.2545 -0.1566
 7451TIP3    H122317   1.250   0.267   5.344  1.1396 -0.5694  0.5205
 7451TIP3    H222318   1.173   0.145   5.297 -0.0219  0.5889 -0.6531
 7452TIP3   OH222319   4.517   4.450   1.831  0.6423 -0.4999 -0.8839
 7452TIP3    H122320   4.609   4.473   1.828  0.9083 -1.2840  0.4781
 7452TIP3    H222321   4.511   4.381   1.897 -1.0482  0.1385 -0.3087
 7453TIP3   OH222322   6.632   3.976   5.225  0.4091 -0.3784 -0.1939
 7453TIP3    H122323   6.540   3.965   5.201 -0.1090 -0.2753  1.6219
 7453TIP3    H222324   6.648   3.908   5.291  1.1459  0.6712  0.7472
 7454TIP3   OH222325   5.452   5.917   4.739  0.1416 -0.5400 -0.1774
 7454TIP3    H122326   5.511   5.969   4.794 -0.1722 -0.9458  0.5600
 7454TIP3    H222327   5.414   5.981   4.679 -0.3042  0.1179  0.7730
 7455TIP3   OH222328   3.272   5.287   0.547 -0.3483 -0.2717 -0.5962
 7455TIP3    H122329   3.311   5.370   0.519 -0.5455  0.0892  0.1868
 7455TIP3    H222330   3.241   5.304   0.635  4.3517 -2.6047  1.8891
 7456TIP3   OH222331   6.171   6.243   2.220  0.2939 -0.2270  0.1959
 7456TIP3    H122332   6.205   6.156   2.240 -0.1137 -0.5504 -0.4560
 7456TIP3    H222333   6.081   6.227   2.190  1.1607  0.0641 -2.8708
 7457TIP3   OH222334   1.441   4.190   1.752  0.0967  0.3607 -0.1257
 7457TIP3    H122335   1.372   4.231   1.804 -0.9534  0.3587 -1.4793
 7457TIP3    H222336   1.410   4.194   1.662  1.6242 -0.1401 -0.7143
 7458TIP3   OH222337   1.221   6.661   5.594  0.3032 -0.4138 -0.1405
 7458TIP3    H122338   1.229   6.663   5.689  2.4215  2.4287 -0.2452
 7458TIP3    H222339   1.175   6.742   5.572 -2.5218 -2.2271 -1.5021
 7459TIP3   OH222340   1.778   6.094   4.687 -0.1090 -0.1437 -0.6459
 7459TIP3    H122341   1.700   6.040   4.674 -1.6738  1.4106  1.5777
 7459TIP3    H222342   1.844   6.033   4.722 -1.4853 -0.8608  0.7982
 7460TIP3   OH222343   2.598   2.252   2.111 -0.6117  0.1027 -0.0464
 7460TIP3    H122344   2.596   2.167   2.069 -0.8377 -0.3656  0.8763
 7460TIP3    H222345   2.581   2.315   2.041 -2.4697 -0.7425 -0.4133
 7461TIP3   OH222346   2.497   4.460   5.712 -0.4473  0.3821  0.3148
 7461TIP3    H122347   2.453   4.496   5.636 -1.2808  0.9941  1.0644
 7461TIP3    H222348   2.509   4.367   5.692  0.5378  0.7660 -1.0935
 7462TIP3   OH222349   3.122   1.669   1.055  0.2775 -0.5921  0.2240
 7462TIP3    H122350   3.092   1.672   1.146 -2.0231  1.3622 -0.5015
 7462TIP3    H222351   3.203   1.720   1.056 -0.7365  1.0819  0.8847
 7463TIP3   OH222352   0.767   4.633   3.329  0.4436  0.0390  0.3237
 7463TIP3    H122353   0.765   4.711   3.386  1.1990 -0.5517  1.1870
 7463TIP3    H222354   0.675   4.609   3.319  0.2155  0.9038  0.2324
 7464TIP3   OH222355   5.235   6.568   0.365 -0.5482  0.3206 -0.0185
 7464TIP3    H122356   5.163   6.598   0.309 -1.0289 -0.7176  0.0303
 7464TIP3    H222357   5.274   6.495   0.317 -0.6505 -0.2641  0.7723
 7465TIP3   OH222358   6.731   0.182   3.673  0.6193  0.0780 -0.4502
 7465TIP3    H122359   6.732   0.251   3.740 -1.4880  1.7812 -2.0234
 7465TIP3    H222360   6.645   0.141   3.682  0.8029 -0.5113 -1.2954
 7466TIP3   OH222361   6.937   3.144   1.676 -0.1548 -0.2979  0.3309
 7466TIP3    H122362   6.901   3.065   1.637 -1.2904  0.2084  0.3042
 7466TIP3    H222363   6.910   3.215   1.618  1.7002  0.0414 -0.1994
 7467TIP3   OH222364   6.814   6.600   2.406 -0.0496 -0.2426 -0.1587
 7467TIP3    H122365   6.861   6.560   2.478 -0.6289 -1.2915 -0.3433
 7467TIP3    H222366   6.740   6.644   2.447  0.8288  1.0648  0.0892
 7468TIP3   OH222367   4.621   4.205   4.993  0.2370 -0.1229  0.0142
 7468TIP3    H122368   4.654   4.276   4.939  0.2759 -0.8514 -0.9509
 7468TIP3    H222369   4.590   4.247   5.073 -0.6713  1.0924 -0.9404
 7469TIP3   OH222370   3.879   1.294   5.736  0.1788 -0.1045 -0.1809
 7469TIP3    H122371   3.948   1.329   5.679  1.5024 -1.5801  0.4428
 7469TIP3    H222372   3.813   1.364   5.739  2.9529  2.7418  1.5177
 7470TIP3   OH222373   0.592   0.668   2.158  0.2821 -0.6960  0.2058
 7470TIP3    H122374   0.630   0.745   2.200 -1.0031  0.1973 -0.2083
 7470TIP3    H222375   0.498   0.687   2.153  0.0379 -1.9693 -0.5876
 7471TIP3   OH222376   4.251   2.213   4.270 -0.1756 -0.0882 -0.0764
 7471TIP3    H122377   4.238   2.161   4.349 -0.4901 -0.7008 -0.5260
 7471TIP3    H222378   4.171   2.200   4.219 -0.5147  1.2962  0.0500
 7472TIP3   OH222379   7.003   5.349   0.094  0.0629  0.3625 -0.0212
 7472TIP3    H122380   6.935   5.358   0.161  1.9444  0.2878  1.9917
 7472TIP3    H222381   7.074   5.406   0.124  0.6566  1.0101 -2.4333
 7473TIP3   OH222382   1.850   3.365   1.913 -0.6454 -0.4765  0.3075
 7473TIP3    H122383   1.879   3.456   1.918 -0.4347 -0.4208 -1.2587
 7473TIP3    H222384   1.930   3.316   1.891 -1.3215 -0.5184 -2.5282
 7474TIP3   OH222385   5.280   0.203   1.734 -0.3454 -0.0134  0.5370
 7474TIP3    H122386   5.339   0.208   1.808  0.2053  2.2187  0.0311
 7474TIP3    H222387   5.205   0.152   1.766  0.8141 -0.9535  1.8901
 7475TIP3   OH222388   6.327   3.579   2.865 -0.0530 -0.1939  0.3441
 7475TIP3    H122389   6.233   3.581   2.884 -0.0443 -2.3430  0.8785
 7475TIP3    H222390   6.368   3.588   2.951  0.1335 -2.0761  0.4940
 7476TIP3   OH222391   4.284   1.285   3.161 -0.4980 -0.2855 -0.1964
 7476TIP3    H122392   4.360   1.231   3.141 -1.1609 -1.1890 -0.3632
 7476TIP3    H222393   4.250   1.250   3.243 -0.3628  0.5265  0.2103
 7477TIP3   OH222394   6.459   0.057   5.337  0.2334 -0.0342 -0.4865
 7477TIP3    H122395   6.494   0.143   5.361  2.1321 -0.7142 -0.6292
 7477TIP3    H222396   6.392   0.039   5.403  1.4226  0.5791  0.9543
 7478TIP3   OH222397   5.481   2.745   4.135  0.0134 -0.5510  0.6914
 7478TIP3    H122398   5.490   2.840   4.145  0.2808 -0.3844 -0.8272
 7478TIP3    H222399   5.505   2.728   4.044 -0.1891 -2.0647  0.8869
 7479TIP3   OH222400   4.068   1.943   3.095 -0.6629  0.2657 -0.1206
 7479TIP3    H122401   4.032   1.865   3.137 -1.7345  0.6327 -0.3387
 7479TIP3    H222402   3.999   1.973   3.036  1.0567 -0.6582 -2.7820
 7480TIP3   OH222403   1.550   4.077   5.530  0.0273 -0.5251 -0.1497
 7480TIP3    H122404   1.579   4.032   5.609 -0.3177 -0.9146 -0.2379
 7480TIP3    H222405   1.615   4.145   5.515  1.0837 -1.5699 -0.5198
 7481TIP3   OH222406   4.247   1.333   5.098  0.7874  0.1039  0.0831
 7481TIP3    H122407   4.303   1.407   5.076  1.7409  0.4087  3.0186
 7481TIP3    H222408   4.297   1.256   5.073  0.6977  0.4088 -1.0650
 7482TIP3   OH222409   7.183   4.248   3.901 -0.0908 -0.4151 -0.2056
 7482TIP3    H122410   7.129   4.252   3.980  0.1807  1.1038 -0.0620
 7482TIP3    H222411   7.129   4.201   3.837 -1.7586  1.3361 -0.1816
 7483TIP3   OH222412   3.400   2.663   2.788 -0.2168  0.0545 -0.0261
 7483TIP3    H122413   3.449   2.670   2.706 -1.6513  0.5933 -0.8855
 7483TIP3    H222414   3.412   2.748   2.830  1.2201 -0.5165  0.7623
 7484TIP3   OH222415   4.304   1.936   5.396  0.1879  0.4252 -0.3447
 7484TIP3    H122416   4.359   1.930   5.318  0.2193  0.8805 -0.3592
 7484TIP3    H222417   4.365   1.960   5.466 -0.0935  1.5495 -0.4814
 7485TIP3   OH222418   7.168   4.023   5.679 -0.0549 -0.2480  0.1085
 7485TIP3    H122419   7.095   4.066   5.633 -0.2573 -1.4532 -0.7462
 7485TIP3    H222420   7.140   3.932   5.689  0.3673 -0.2126  1.8877
 7486TIP3   OH222421   5.914   6.400   2.605 -0.3288  0.6391  0.0962
 7486TIP3    H122422   5.982   6.466   2.617  0.7281 -0.7079  2.1954
 7486TIP3    H222423   5.954   6.318   2.634 -2.3199 -0.5180 -0.1936
 7487TIP3   OH222424   0.667   4.155   2.108  0.1600 -0.0973 -0.3491
 7487TIP3    H122425   0.585   4.165   2.157  0.4456  2.3167 -0.2229
 7487TIP3    H222426   0.728   4.214   2.152  1.7666 -1.2627 -0.9171
 7488TIP3   OH222427   2.491   5.090   3.368 -0.5685  0.7833  0.2516
 7488TIP3    H122428   2.500   5.128   3.455  1.7358 -0.4750  0.6428
 7488TIP3    H222429   2.453   5.003   3.384 -0.1528  0.5550  0.0093
 7489TIP3   OH222430   5.371   2.824   2.822  0.2248 -0.0814 -0.0482
 7489TIP3    H122431   5.311   2.899   2.821 -1.4996 -1.3827  1.1334
 7489TIP3    H222432   5.348   2.774   2.743  1.4396  0.6173 -0.8888
 7490TIP3   OH222433   6.064   6.214   3.261  0.4357 -0.8679 -0.3356
 7490TIP3    H122434   5.974   6.240   3.279  0.8552  0.0477  0.4906
 7490TIP3    H222435   6.055   6.130   3.215 -0.9490  0.5462 -2.8855
 7491TIP3   OH222436   6.146   1.523   0.098 -0.1674 -0.7584 -0.4808
 7491TIP3    H122437   6.090   1.463   0.147 -1.0968  1.0772  0.8160
 7491TIP3    H222438   6.117   1.514   0.007 -1.8746 -0.6376  0.0107
 7492TIP3   OH222439   0.683   5.983   2.616 -0.1120 -0.0106 -0.0481
 7492TIP3    H122440   0.631   6.063   2.604  1.8832  1.4067  0.3884
 7492TIP3    H222441   0.694   5.975   2.710  0.3776 -0.3525 -0.1289
 7493TIP3   OH222442   1.967   2.375   1.852 -0.0904 -0.0242 -0.1222
 7493TIP3    H122443   1.938   2.345   1.938  0.1554 -0.5062 -0.2033
 7493TIP3    H222444   1.968   2.296   1.798  0.8807  0.0596 -0.2558
 7494TIP3   OH222445   5.777   3.396   0.981 -0.3848  0.5136  0.0971
 7494TIP3    H122446   5.722   3.376   0.905 -1.7508  0.0539  1.1720
 7494TIP3    H222447   5.732   3.468   1.025  1.5350  2.2751 -0.6619
 7495TIP3   OH222448   6.437   0.944   5.118  0.1860  0.2236 -0.1574
 7495TIP3    H122449   6.481   0.860   5.104  0.4721  0.2860  0.3670
 7495TIP3    H222450   6.505   1.009   5.102  0.6072  0.2988  1.7413
 7496TIP3   OH222451   4.676   5.944   4.369  0.0103  0.0252  0.3210
 7496TIP3    H122452   4.643   6.032   4.388 -0.8296 -0.5055  1.4799
 7496TIP3    H222453   4.738   5.926   4.440  2.5765  0.8124 -1.5488
 7497TIP3   OH222454   3.340   2.241   1.551  0.0100 -0.7451 -0.2527
 7497TIP3    H122455   3.331   2.193   1.633  2.0798  0.4038  0.7339
 7497TIP3    H222456   3.256   2.285   1.539 -1.4249 -3.3143 -0.4296
 7498TIP3   OH222457   0.886   3.831   1.810  0.4080 -0.4576  0.1210
 7498TIP3    H122458   0.860   3.870   1.894 -1.1700  0.8407 -0.9234
 7498TIP3    H222459   0.903   3.739   1.831  1.1303  0.0591  2.0520
 7499TIP3   OH222460   6.495   2.775   3.731  0.2541 -0.6804  0.0693
 7499TIP3    H122461   6.476   2.758   3.638 -0.2240  1.0658 -0.1788
 7499TIP3    H222462   6.516   2.689   3.767 -1.0692 -1.6218 -1.3093
 7500TIP3   OH222463   3.816   4.415   4.377  0.1440 -0.4452 -0.3373
 7500TIP3    H122464   3.852   4.503   4.364 -0.5611 -0.2167 -0.8230
 7500TIP3    H222465   3.893   4.358   4.379  0.7104  0.3116  1.3403
 7501TIP3   OH222466   4.789   5.525   3.981 -0.0815  0.1438 -0.2080
 7501TIP3    H122467   4.770   5.433   3.964  0.2407  0.4190 -2.2281
 7501TIP3    H222468   4.725   5.550   4.048  0.7364 -1.8712  1.4260
 7502TIP3   OH222469   5.355   0.213   2.811 -0.3237 -0.4324  0.2314
 7502TIP3    H122470   5.395   0.171   2.734  0.4576  2.1543 -0.8892
 7502TIP3    H222471   5.263   0.222   2.788 -0.3315 -0.7832  0.1210
 7503TIP3   OH222472   2.123   4.266   5.517  0.2995  0.0317  0.9437
 7503TIP3    H122473   2.033   4.244   5.544  0.3682  1.2192  2.3019
 7503TIP3    H222474   2.113   4.348   5.469  0.2028 -1.9905 -2.8150
 7504TIP3   OH222475   3.726   3.790   4.732 -0.4955  0.8609  0.1501
 7504TIP3    H122476   3.693   3.779   4.643 -0.2140  0.5716  0.0796
 7504TIP3    H222477   3.757   3.703   4.758  0.3422  1.1457  0.1536
 7505TIP3   OH222478   2.684   0.846   3.400  0.2669  1.0397  0.5560
 7505TIP3    H122479   2.633   0.838   3.481  1.8913  0.5770  1.5780
 7505TIP3    H222480   2.708   0.756   3.377 -1.4573  0.9805 -1.3697
 7506TIP3   OH222481   1.896   2.801   3.098 -0.0659 -0.1553 -0.0274
 7506TIP3    H122482   1.929   2.886   3.069 -1.0339  0.2427  0.0144
 7506TIP3    H222483   1.943   2.738   3.045  0.6869  0.4019 -0.0414
 7507TIP3   OH222484   6.500   5.998   1.459  0.0585  0.2069  0.2587
 7507TIP3    H122485   6.595   5.988   1.455  0.1139  0.1714  1.3161
 7507TIP3    H222486   6.466   5.910   1.446  0.1919  0.1303  0.4239
 7508TIP3   OH222487   2.515   1.018   4.686 -0.2315 -0.2210 -0.2998
 7508TIP3    H122488   2.455   1.070   4.632 -0.1626  0.5666  0.3577
 7508TIP3    H222489   2.504   1.053   4.775  0.6689 -0.5534 -0.0428
 7509TIP3   OH222490   6.739   3.365   4.933  1.2670 -0.1435  0.6456
 7509TIP3    H122491   6.806   3.423   4.897  0.5759  0.5044  0.3577
 7509TIP3    H222492   6.770   3.344   5.021  2.1062 -0.2926  0.3139
 7510TIP3   OH222493   1.107   2.821   0.738  0.2266 -0.4894 -0.0312
 7510TIP3    H122494   1.034   2.796   0.683 -0.3111 -1.7394  1.1891
 7510TIP3    H222495   1.069   2.831   0.826  1.6743 -2.3962  0.8832
 7511TIP3   OH222496   1.187   3.484   0.814  0.0089  0.3535  0.3212
 7511TIP3    H122497   1.215   3.519   0.730  0.2485 -0.2007  0.1672
 7511TIP3    H222498   1.259   3.504   0.874  0.2151 -0.0028  0.1973
 7512TIP3   OH222499   1.985   1.952   2.601 -0.1147 -0.0822 -0.2773
 7512TIP3    H122500   1.925   2.006   2.549  0.2435  0.8271  0.2265
 7512TIP3    H222501   1.936   1.930   2.680  0.0033  0.1734 -0.1296
 7513TIP3   OH222502   0.409   4.194   1.251  0.3930 -0.6656  0.1318
 7513TIP3    H122503   0.442   4.263   1.194  2.5990 -2.3632 -0.8071
 7513TIP3    H222504   0.424   4.226   1.340  0.5454  0.4025 -0.2632
 7514TIP3   OH222505   1.686   3.894   5.116 -0.0114 -0.4655  0.5303
 7514TIP3    H122506   1.738   3.945   5.054 -1.2594 -1.3654 -1.3456
 7514TIP3    H222507   1.624   3.957   5.153 -0.8115 -0.3535 -0.9404
 7515TIP3   OH222508   3.895   6.294   0.095 -0.0702 -0.1283  0.2762
 7515TIP3    H122509   3.802   6.300   0.072 -0.3760  0.2175  1.4830
 7515TIP3    H222510   3.940   6.343   0.027 -0.6909 -0.9269 -0.7327
 7516TIP3   OH222511   4.101   3.183   5.717 -0.4682  0.1363  0.5386
 7516TIP3    H122512   4.065   3.165   5.804  0.7562 -1.5786  0.7426
 7516TIP3    H222513   4.128   3.097   5.684 -0.5107  0.8101 -1.3726
 7517TIP3   OH222514   6.924   1.393   1.540 -0.1382  0.3421 -0.3199
 7517TIP3    H122515   6.856   1.414   1.604 -1.2221 -0.0792 -1.2970
 7517TIP3    H222516   6.941   1.300   1.552  0.2164  0.4279 -0.1350
 7518TIP3   OH222517   3.521   6.249   4.438  0.3615 -0.3343 -0.2705
 7518TIP3    H122518   3.585   6.263   4.508  1.8807 -1.0557 -1.4568
 7518TIP3    H222519   3.511   6.335   4.397  0.0704 -0.0827  0.3212
 7519TIP3   OH222520   2.387   1.570   3.125 -0.5171 -0.1817 -0.3173
 7519TIP3    H122521   2.389   1.486   3.079 -1.8417  0.2005 -1.1421
 7519TIP3    H222522   2.459   1.565   3.188  1.2399 -0.8215 -2.2632
 7520TIP3   OH222523   0.560   4.057   5.327 -0.0709  0.3470  0.1953
 7520TIP3    H122524   0.564   4.146   5.362  1.9793  0.8979 -1.2255
 7520TIP3    H222525   0.646   4.044   5.286 -0.9234 -1.6662 -1.0904
 7521TIP3   OH222526   0.372   5.230   1.274 -0.3664  0.9225 -0.4762
 7521TIP3    H122527   0.417   5.271   1.347 -0.2442  1.9310 -1.0976
 7521TIP3    H222528   0.292   5.280   1.263 -1.5050 -0.6063  0.3580
 7522TIP3   OH222529   1.316   6.512   0.407 -0.0581  0.5606 -0.1655
 7522TIP3    H122530   1.262   6.484   0.481 -0.1851  0.9256 -0.1194
 7522TIP3    H222531   1.289   6.602   0.390 -1.8484 -0.2647 -2.2723
 7523TIP3   OH222532   2.390   6.519   3.833 -0.5832 -0.6315  0.1436
 7523TIP3    H122533   2.368   6.491   3.744 -1.0845 -0.4480  0.2063
 7523TIP3    H222534   2.370   6.443   3.887 -0.6383 -0.6152  0.1461
 7524TIP3   OH222535   0.427   0.568   2.795  0.1096 -0.0587  0.3669
 7524TIP3    H122536   0.518   0.598   2.788  0.6484 -0.4472  3.9026
 7524TIP3    H222537   0.434   0.472   2.796 -0.6525 -0.1805 -1.6521
 7525TIP3   OH222538   5.181   0.913   1.702  0.2908 -0.2254 -0.0282
 7525TIP3    H122539   5.127   0.835   1.685 -2.1481  1.4054 -0.2604
 7525TIP3    H222540   5.216   0.936   1.616 -2.8787  1.5585 -0.9903
 7526TIP3   OH222541   5.184   1.707   3.419  0.1029  0.0127 -0.1185
 7526TIP3    H122542   5.252   1.769   3.446 -0.8866  1.7250 -1.3881
 7526TIP3    H222543   5.153   1.669   3.501  1.1638  0.7304  0.6529
 7527TIP3   OH222544   0.818   3.084   0.836  0.3090  0.1656  0.2146
 7527TIP3    H122545   0.844   3.172   0.865 -2.2473  0.5670  1.6378
 7527TIP3    H222546   0.764   3.100   0.758  0.4392 -0.2024  0.0501
 7528TIP3   OH222547   1.875   2.764   3.683 -0.3468  0.0456 -0.0371
 7528TIP3    H122548   1.862   2.835   3.746  0.5530 -1.2897  1.7145
 7528TIP3    H222549   1.790   2.721   3.678 -0.7080  0.7824 -0.5946
 7529TIP3   OH222550   2.474   4.633   1.876 -0.1783 -0.5185  0.4409
 7529TIP3    H122551   2.379   4.640   1.870 -0.3678 -2.3469  0.7152
 7529TIP3    H222552   2.490   4.541   1.895  1.8137 -1.0494 -3.0080
 7530TIP3   OH222553   1.393   2.483   2.219  0.6585 -0.3792 -0.1172
 7530TIP3    H122554   1.388   2.577   2.197 -0.1713 -0.4280 -0.1712
 7530TIP3    H222555   1.459   2.449   2.160  1.1642  0.2230  0.0826
 7531TIP3   OH222556   4.549   0.290   1.454 -0.1677  0.2389  0.7774
 7531TIP3    H122557   4.638   0.259   1.465 -0.7606 -1.7755  0.3256
 7531TIP3    H222558   4.530   0.340   1.533  1.0511 -0.0526  1.2686
 7532TIP3   OH222559   3.596   3.362   1.023  0.8530 -0.2660  0.0746
 7532TIP3    H122560   3.607   3.269   1.003  2.3431  0.0813 -0.8244
 7532TIP3    H222561   3.585   3.364   1.118 -1.6618 -1.5386 -0.1024
 7533TIP3   OH222562   6.359   1.375   4.462  0.2279  0.1435 -0.0312
 7533TIP3    H122563   6.278   1.326   4.477  0.5189 -0.4708 -0.4060
 7533TIP3    H222564   6.418   1.344   4.531  0.8624 -1.0794 -1.0823
 7534TIP3   OH222565   4.090   1.404   5.604 -0.1381 -0.0151  0.2336
 7534TIP3    H122566   4.069   1.420   5.511 -0.1356 -0.4552  0.1573
 7534TIP3    H222567   4.140   1.482   5.630 -0.7302  0.4383  0.0577
 7535TIP3   OH222568   5.683   2.462   4.714  0.3253  0.1667  0.2710
 7535TIP3    H122569   5.614   2.411   4.672 -0.7644  0.0999  2.0440
 7535TIP3    H222570   5.764   2.423   4.681 -0.4785 -1.6883  0.3383
 7536TIP3   OH222571   2.296   0.241   1.922  0.3900 -0.1829 -0.4079
 7536TIP3    H122572   2.360   0.311   1.910  0.9844 -0.3976  1.1821
 7536TIP3    H222573   2.215   0.275   1.883  1.5024 -0.0375 -2.7350
 7537TIP3   OH222574   2.409   3.589   3.721 -0.0077  0.8463  0.1259
 7537TIP3    H122575   2.454   3.507   3.702  0.9533  1.4801 -0.4209
 7537TIP3    H222576   2.347   3.599   3.649  1.3270  1.6001 -0.9834
 7538TIP3   OH222577   5.709   4.017   1.557  0.1496 -0.1840  0.2612
 7538TIP3    H122578   5.666   4.069   1.490 -0.8069 -0.5466  0.5719
 7538TIP3    H222579   5.750   3.945   1.510 -0.6894 -0.5514  0.0648
 7539TIP3   OH222580   1.073   6.791   4.475  0.1471 -0.2334 -0.4721
 7539TIP3    H122581   1.029   6.779   4.559 -1.1523  0.2742 -1.0500
 7539TIP3    H222582   1.082   6.702   4.439 -0.2585 -0.3606 -0.2625
 7540TIP3   OH222583   6.330   6.699   3.354  0.7501  0.0041 -0.5419
 7540TIP3    H122584   6.272   6.623   3.361 -0.4343  0.8853 -0.5297
 7540TIP3    H222585   6.416   6.662   3.334  0.7055 -1.4945  1.6903
 7541TIP3   OH222586   6.633   1.879   2.433 -0.2550  0.2564 -0.4233
 7541TIP3    H122587   6.654   1.972   2.448  1.5704 -0.2277  0.3433
 7541TIP3    H222588   6.543   1.869   2.465 -0.4519  1.7480 -0.4546
 7542TIP3   OH222589   0.062   5.952   1.968 -0.0574  0.3963 -0.4116
 7542TIP3    H122590   0.131   5.897   1.929 -0.1888 -0.3945  0.4423
 7542TIP3    H222591  -0.011   5.892   1.982  0.4739  0.2627  2.3563
 7543TIP3   OH222592   1.522   5.360   4.091 -0.2250  0.1702 -0.2037
 7543TIP3    H122593   1.612   5.373   4.119 -0.0983 -0.1251 -0.4794
 7543TIP3    H222594   1.517   5.402   4.005 -0.6471  1.1876  0.3035
 7544TIP3   OH222595   3.957   0.598   5.659  0.6905 -0.1488  0.0122
 7544TIP3    H122596   4.008   0.517   5.668  2.1609  0.7356 -0.1349
 7544TIP3    H222597   4.002   0.661   5.716 -0.6437  0.4876  0.3996
 7545TIP3   OH222598   0.702   1.780   1.759  0.3561 -0.2299  0.2880
 7545TIP3    H122599   0.762   1.723   1.710 -0.3089 -1.0150  0.3723
 7545TIP3    H222600   0.626   1.725   1.778  0.3064  0.2580  1.6204
 7546TIP3   OH222601   6.278   6.164   3.744  0.3946 -0.1968 -0.5740
 7546TIP3    H122602   6.363   6.153   3.702  0.5642  1.3744 -0.6965
 7546TIP3    H222603   6.239   6.240   3.701 -0.6633 -0.3099  0.1356
 7547TIP3   OH222604   5.045   3.364   3.979 -0.6626 -0.4675  0.0859
 7547TIP3    H122605   5.014   3.329   4.063  0.5864 -0.1228  0.7107
 7547TIP3    H222606   4.967   3.363   3.923 -1.2984 -1.6195  0.9372
 7548TIP3   OH222607   0.961   5.139   2.265 -0.1418  0.0752 -0.5927
 7548TIP3    H122608   0.935   5.128   2.356  1.1894 -0.1233 -0.2129
 7548TIP3    H222609   0.892   5.097   2.215 -1.7669  1.6244  0.2158
 7549TIP3   OH222610   0.562   1.735   5.420  0.4281  0.1534  0.2501
 7549TIP3    H122611   0.500   1.767   5.485 -0.4734  1.0302 -1.0142
 7549TIP3    H222612   0.571   1.806   5.357  0.2086 -1.1868 -1.3568
 7550TIP3   OH222613   0.857   1.293   5.418 -0.6870 -0.2627 -0.1423
 7550TIP3    H122614   0.927   1.309   5.481  0.0425 -2.0410 -0.4534
 7550TIP3    H222615   0.792   1.242   5.466 -0.2504 -1.3989 -0.7366
 7551TIP3   OH222616   0.978   6.658   0.721 -0.1370  0.2893  0.0751
 7551TIP3    H122617   0.948   6.688   0.807 -0.6822 -0.9599  0.3408
 7551TIP3    H222618   0.905   6.679   0.662 -0.6487 -0.7544  0.3176
 7552TIP3   OH222619   5.813   1.473   3.654 -0.1494  0.5804 -0.0572
 7552TIP3    H122620   5.843   1.452   3.743 -0.2338  2.1904  0.3920
 7552TIP3    H222621   5.880   1.436   3.597 -0.2971 -0.8372  0.6449
 7553TIP3   OH222622   0.286   0.015   2.997  0.5713 -0.6426 -0.1060
 7553TIP3    H122623   0.232   0.040   2.923  1.0780  0.0648 -0.2365
 7553TIP3    H222624   0.354  -0.041   2.960  1.0224 -0.0178 -0.2356
 7554TIP3   OH222625   5.515   2.071   4.088 -0.0869  0.8573  0.0212
 7554TIP3    H122626   5.555   2.154   4.062  0.8299 -0.0405 -1.5817
 7554TIP3    H222627   5.565   2.044   4.165  1.4260  0.5441 -1.0072
 7555TIP3   OH222628   4.539   6.279   0.081  0.0902  0.6169 -0.0867
 7555TIP3    H122629   4.465   6.237   0.038  0.4349  0.8301 -0.9137
 7555TIP3    H222630   4.568   6.346   0.019  1.2060  0.2922  0.0564
 7556TIP3   OH222631   3.949   4.123   0.895  0.1167 -0.4264 -0.9124
 7556TIP3    H122632   4.011   4.153   0.828  1.6823 -0.9581  0.2652
 7556TIP3    H222633   3.931   4.032   0.872  0.6114 -0.5927 -0.6401
 7557TIP3   OH222634   0.361   1.873   5.602  0.0625 -0.2796 -0.1204
 7557TIP3    H122635   0.425   1.939   5.627 -0.7587 -0.1324  1.8150
 7557TIP3    H222636   0.279   1.922   5.592 -0.9610 -1.0718  3.0628
 7558TIP3   OH222637   4.402   2.932   4.101 -0.1476  0.6241 -0.0273
 7558TIP3    H122638   4.307   2.927   4.093  0.0125 -1.1032 -1.3534
 7558TIP3    H222639   4.432   2.963   4.015  0.6300 -2.0335 -0.8186
 7559TIP3   OH222640   5.162   1.722   3.116 -0.2167 -0.3023 -0.3222
 7559TIP3    H122641   5.179   1.680   3.200  1.3410  0.1243 -0.3997
 7559TIP3    H222642   5.243   1.713   3.067 -1.3400 -1.2895 -2.1546
 7560TIP3   OH222643   4.508   0.279   2.132  0.5007  0.4548 -0.0089
 7560TIP3    H122644   4.518   0.339   2.058 -0.7703  1.6854  0.7464
 7560TIP3    H222645   4.428   0.309   2.176  1.2954 -0.1223  1.9450
 7561TIP3   OH222646   0.946   2.743   1.174  1.0834  0.6052 -0.3437
 7561TIP3    H122647   0.931   2.797   1.097  0.5597 -0.3234 -0.9166
 7561TIP3    H222648   1.026   2.694   1.154  0.4010 -0.3910 -0.7712
 7562TIP3   OH222649   4.991   1.590   4.900 -0.0671  0.0321 -0.2131
 7562TIP3    H122650   4.911   1.642   4.898  0.1038  0.2996 -0.3051
 7562TIP3    H222651   5.058   1.652   4.930 -0.3793 -0.8624  2.6726
 7563TIP3   OH222652   6.615   1.517   2.203 -0.7041 -0.6631  0.2747
 7563TIP3    H122653   6.623   1.455   2.130 -2.1714  0.7402 -1.1647
 7563TIP3    H222654   6.531   1.496   2.243 -0.6981 -0.3012  0.4805
 7564TIP3   OH222655   3.420   4.560   1.111 -0.3844  0.2768 -0.4790
 7564TIP3    H122656   3.395   4.651   1.096 -3.0662  0.1046  2.0373
 7564TIP3    H222657   3.502   4.566   1.161 -1.3892  1.4364  1.1286
 7565TIP3   OH222658   1.084   0.425   5.805 -0.7105 -0.0976  0.0624
 7565TIP3    H122659   1.154   0.475   5.763 -2.2581  2.5191  0.3773
 7565TIP3    H222660   1.079   0.344   5.755  2.6013 -0.4899  0.1470
 7566TIP3   OH222661   4.011   0.349   3.665  0.4267 -0.0180  0.2950
 7566TIP3    H122662   4.086   0.312   3.713 -1.0096 -0.6024  2.2230
 7566TIP3    H222663   3.986   0.426   3.715  0.6186  1.0520 -1.1887
 7567TIP3   OH222664   5.870   4.172   0.628 -0.2415 -0.4367 -0.0903
 7567TIP3    H122665   5.928   4.124   0.568  0.2578 -1.4864  1.1872
 7567TIP3    H222666   5.904   4.261   0.628  0.1819 -0.5858 -0.8362
 7568TIP3   OH222667   1.566   4.053   2.979  0.3470  0.0926 -0.5393
 7568TIP3    H122668   1.609   4.090   3.056 -0.0345  0.5313 -0.5312
 7568TIP3    H222669   1.478   4.090   2.981  0.3386  0.1152 -1.1912
 7569TIP3   OH222670   5.491   0.896   4.842 -0.3857 -0.1272 -0.6123
 7569TIP3    H122671   5.586   0.909   4.838 -0.3010 -0.2890  0.6611
 7569TIP3    H222672   5.466   0.883   4.750  0.6514  0.9957 -1.1000
 7570TIP3   OH222673   5.091   1.873   5.681  0.0018  0.4436  0.3258
 7570TIP3    H122674   5.081   1.965   5.659 -1.5810  0.0225 -0.8648
 7570TIP3    H222675   5.162   1.842   5.625  0.2727  0.8402  0.4471
 7571TIP3   OH222676   2.235   5.724   5.502 -0.0847 -0.4178 -0.1162
 7571TIP3    H122677   2.278   5.705   5.418  1.0535  0.3280  0.2704
 7571TIP3    H222678   2.274   5.806   5.531 -1.8248  0.3086  0.2736
 7572TIP3   OH222679   3.676   2.289   1.699  0.2638 -0.4352 -0.0538
 7572TIP3    H122680   3.642   2.325   1.617 -0.6980  0.8284  0.8434
 7572TIP3    H222681   3.640   2.347   1.767  0.3161 -1.9389  1.3303
 7573TIP3   OH222682   1.595   4.818   0.094  0.4918  0.4080  0.0218
 7573TIP3    H122683   1.574   4.882   0.025  1.8148  1.4342  0.5355
 7573TIP3    H222684   1.690   4.815   0.095  0.4555 -0.9385  0.6245
 7574TIP3   OH222685   5.123   2.330   3.912  0.3212  0.3839 -0.2585
 7574TIP3    H122686   5.175   2.252   3.933 -1.0899 -0.4050  0.4240
 7574TIP3    H222687   5.188   2.399   3.903  1.5747 -0.7503 -0.3454
 7575TIP3   OH222688   2.425   2.758   4.453  0.1454 -0.2057 -0.2755
 7575TIP3    H122689   2.470   2.823   4.399  1.3152 -0.5436  0.2760
 7575TIP3    H222690   2.334   2.789   4.456  0.7330  1.5682  0.2175
 7576TIP3   OH222691   3.348   5.418   2.414 -0.2793  0.3127 -0.3300
 7576TIP3    H122692   3.287   5.442   2.484 -0.0692 -0.4938  0.1467
 7576TIP3    H222693   3.395   5.499   2.395 -1.1024  0.8077 -0.3143
 7577TIP3   OH222694   4.279   1.174   4.260  0.1779  0.2770 -0.3473
 7577TIP3    H122695   4.307   1.265   4.247 -0.9658  0.6915 -0.1007
 7577TIP3    H222696   4.268   1.166   4.355  1.5084 -0.5216 -0.2473
 7578TIP3   OH222697   6.751   2.440   1.695  0.2341 -0.5220  0.2093
 7578TIP3    H122698   6.674   2.454   1.640  0.8918 -1.7402 -1.0876
 7578TIP3    H222699   6.806   2.379   1.644  2.1731  0.5179  0.9563
 7579TIP3   OH222700   3.502   0.152   1.746  0.2710  0.5807  0.3148
 7579TIP3    H122701   3.417   0.109   1.738  0.3948  0.4092 -0.0855
 7579TIP3    H222702   3.507   0.178   1.838 -0.3183  0.8067  0.2864
 7580TIP3   OH222703   0.778   6.526   5.727 -0.0872 -0.3178 -0.0129
 7580TIP3    H122704   0.825   6.516   5.644 -1.3874 -0.3317 -0.7642
 7580TIP3    H222705   0.841   6.496   5.793  1.6359  1.3619 -0.7825
 7581TIP3   OH222706   5.447   2.316   4.860 -0.5745 -0.2684  0.2889
 7581TIP3    H122707   5.409   2.375   4.795  0.7707 -0.2047 -0.4801
 7581TIP3    H222708   5.530   2.288   4.821  1.1113  1.0817  2.6360
 7582TIP3   OH222709   4.693   6.152   2.200 -0.6035 -0.4309 -0.3406
 7582TIP3    H122710   4.693   6.057   2.195  0.8143 -0.4612 -0.0561
 7582TIP3    H222711   4.782   6.178   2.177 -0.8825  0.8128 -0.1129
 7583TIP3   OH222712   2.406   5.033   2.460 -0.0851  0.1759 -0.4662
 7583TIP3    H122713   2.350   4.979   2.516 -0.9493  0.7111 -0.7911
 7583TIP3    H222714   2.365   5.119   2.461  2.5465  1.5704  1.9259
 7584TIP3   OH222715   4.652   0.830   3.560 -0.4321  0.0307 -0.0342
 7584TIP3    H122716   4.639   0.856   3.651  0.6518 -2.1118  0.7992
 7584TIP3    H222717   4.738   0.790   3.558 -1.6503 -2.8257 -1.2631
 7585TIP3   OH222718   5.836   3.568   2.761  0.0996  0.6457 -0.3248
 7585TIP3    H122719   5.785   3.618   2.697 -2.0421 -0.8294  0.1373
 7585TIP3    H222720   5.771   3.520   2.812  1.9375 -1.2045  0.4361
 7586TIP3   OH222721   0.582   5.053   5.588 -0.4437  0.3919 -0.1979
 7586TIP3    H122722   0.662   5.052   5.536 -0.2081  0.5182  0.1525
 7586TIP3    H222723   0.557   5.145   5.593  0.0550  0.4976  0.6765
 7587TIP3   OH222724   6.134   6.069   1.919 -0.0285  0.6104 -0.0423
 7587TIP3    H122725   6.046   6.038   1.898 -0.2705  0.2718  1.3544
 7587TIP3    H222726   6.170   6.002   1.978  1.2904  0.5902 -0.8154
 7588TIP3   OH222727   3.948   0.206   4.651  0.0476 -0.1026  0.2189
 7588TIP3    H122728   3.898   0.283   4.678  1.1412 -0.1254  2.5365
 7588TIP3    H222729   3.896   0.132   4.681  0.6864 -0.1534  1.2642
 7589TIP3   OH222730   3.922   2.183   0.176 -0.5560 -0.0433  0.3772
 7589TIP3    H122731   3.894   2.092   0.184  1.0043 -0.6213 -0.2649
 7589TIP3    H222732   3.871   2.217   0.102 -0.8406 -0.5275  0.3461
 7590TIP3   OH222733   1.200   1.668   5.860  0.2899 -0.0441 -0.1626
 7590TIP3    H122734   1.120   1.643   5.813 -1.4536  1.7724  1.5796
 7590TIP3    H222735   1.207   1.762   5.846  0.6501  0.2541  1.7273
 7591TIP3   OH222736   7.138   0.597   4.304 -0.0589 -0.0703  0.6427
 7591TIP3    H122737   7.090   0.588   4.222  1.5862 -1.9473 -0.2173
 7591TIP3    H222738   7.084   0.655   4.358 -1.7794  0.2528 -1.3006
 7592TIP3   OH222739   6.730   2.708   0.600  0.3668  0.4889 -0.1593
 7592TIP3    H122740   6.731   2.614   0.583  0.4116  0.5435 -0.4704
 7592TIP3    H222741   6.654   2.722   0.656 -0.2150  0.4003 -0.9093
 7593TIP3   OH222742   3.869   0.032   0.316  0.2872  0.8199  0.4811
 7593TIP3    H122743   3.947   0.041   0.262 -0.4627 -1.3033 -1.0704
 7593TIP3    H222744   3.903   0.033   0.406  2.2301 -0.8367 -0.1490
 7594TIP3   OH222745   1.674   6.147   0.268 -0.4749 -0.7280 -0.1909
 7594TIP3    H122746   1.675   6.154   0.173  0.7449  0.8361 -0.1118
 7594TIP3    H222747   1.704   6.233   0.298 -1.6074 -0.9216  1.6268
 7595TIP3   OH222748   2.134   4.987   2.305  0.0134  0.2342 -0.7708
 7595TIP3    H122749   2.066   4.994   2.372  0.1198 -0.8594 -0.5172
 7595TIP3    H222750   2.136   4.893   2.284  1.5451  0.2154 -0.6515
 7596TIP3   OH222751   7.090   2.489   3.567  0.8100  0.3040 -0.6352
 7596TIP3    H122752   7.093   2.418   3.503 -0.7806 -0.0999 -0.2964
 7596TIP3    H222753   7.068   2.567   3.515 -2.2807 -0.3267 -0.4360
 7597TIP3   OH222754   2.475   0.563   4.070  0.0029  0.0378  0.3128
 7597TIP3    H122755   2.381   0.551   4.081 -0.2815 -0.3668 -1.9595
 7597TIP3    H222756   2.508   0.578   4.158 -1.9795 -1.2306  1.3565
 7598TIP3   OH222757   6.791   3.833   2.536 -0.1448  0.3595  0.4598
 7598TIP3    H122758   6.759   3.743   2.524 -0.9942  0.9789 -2.6863
 7598TIP3    H222759   6.825   3.834   2.625  0.3795 -3.2300  0.4357
 7599TIP3   OH222760   4.001   5.828   3.376  0.2572 -1.2808  0.5182
 7599TIP3    H122761   4.085   5.861   3.345 -0.0019  2.0704  2.7778
 7599TIP3    H222762   3.986   5.875   3.458 -3.6489 -1.9794  0.4114
 7600TIP3   OH222763   6.567   1.849   5.830  0.3470 -0.2341 -0.1507
 7600TIP3    H122764   6.655   1.867   5.862 -0.4553 -0.4873  2.4604
 7600TIP3    H222765   6.510   1.905   5.883 -1.4283 -3.6259  1.9430
 7601TIP3   OH222766   3.032   2.746   4.972 -0.3356  0.0963 -0.0191
 7601TIP3    H122767   3.096   2.809   5.004 -0.0514  0.1459 -0.6512
 7601TIP3    H222768   2.960   2.749   5.035  0.5891 -0.4699  1.1031
 7602TIP3   OH222769   1.708   0.727   0.499 -0.2344 -0.0357  0.0457
 7602TIP3    H122770   1.730   0.634   0.501  0.1035  0.0431  0.0094
 7602TIP3    H222771   1.681   0.743   0.408  3.1288  0.6694 -0.9495
 7603TIP3   OH222772   5.214   0.701   4.241  0.0929  0.3016 -0.0119
 7603TIP3    H122773   5.271   0.700   4.164 -0.0006  1.7460 -0.1270
 7603TIP3    H222774   5.234   0.784   4.285  1.5005 -1.3228  2.5944
 7604TIP3   OH222775   1.157   3.046   3.995  0.3935  0.3058 -0.2620
 7604TIP3    H122776   1.166   3.140   3.978  1.7074  0.4244  0.8378
 7604TIP3    H222777   1.231   3.007   3.948  0.5941 -0.0179  0.3166
 7605TIP3   OH222778   0.461   5.130   5.123 -0.0104  0.1922  0.1191
 7605TIP3    H122779   0.467   5.167   5.211  0.3446 -0.6384  0.4575
 7605TIP3    H222780   0.400   5.056   5.132  1.3361 -0.9656  0.0636
 7606TIP3   OH222781   5.101   6.238   0.447  0.2004 -0.2104 -0.6148
 7606TIP3    H122782   5.019   6.219   0.492  0.1017 -0.1909 -0.7843
 7606TIP3    H222783   5.118   6.330   0.468  1.7893 -1.0039  1.9690
 7607TIP3   OH222784   5.527   2.571   1.991  0.5759  0.0464 -0.3721
 7607TIP3    H122785   5.506   2.593   2.082 -1.0987  1.4189 -1.0266
 7607TIP3    H222786   5.448   2.529   1.958  0.3923  1.3705 -1.7251
 7608TIP3   OH222787   0.577   0.075   0.020  0.0478  0.4946  0.8694
 7608TIP3    H122788   0.654   0.076   0.077 -0.3634 -0.6268  1.4776
 7608TIP3    H222789   0.558  -0.018   0.006 -0.2673  0.7524 -0.5727
 7609TIP3   OH222790   5.591   1.559   1.642 -0.0755  0.0111  0.3240
 7609TIP3    H122791   5.648   1.482   1.650 -1.9806 -1.6237 -0.9089
 7609TIP3    H222792   5.523   1.546   1.707 -1.1157 -0.0276 -0.7423
 7610TIP3   OH222793   6.501   1.945   5.583 -0.2827 -0.0940  0.4844
 7610TIP3    H122794   6.555   1.911   5.511  0.4916  1.3359  0.3616
 7610TIP3    H222795   6.547   1.915   5.662 -0.9981 -1.4532  0.4085
 7611TIP3   OH222796   0.666   0.725   1.539  0.1136 -0.3418 -0.7673
 7611TIP3    H122797   0.629   0.740   1.625  0.1354  1.9585 -1.1128
 7611TIP3    H222798   0.591   0.700   1.485 -0.3730  0.7957 -0.6497
 7612TIP3   OH222799   6.643   1.421   0.575 -0.1038 -0.3934  0.0891
 7612TIP3    H122800   6.613   1.334   0.603 -0.1903 -0.0699  1.0393
 7612TIP3    H222801   6.732   1.407   0.543  0.0765 -0.7504  0.7277
 7613TIP3   OH222802   6.856   3.077   3.911 -0.0005  0.5852 -0.0153
 7613TIP3    H122803   6.947   3.084   3.881  0.8858  0.3444  2.3853
 7613TIP3    H222804   6.832   2.986   3.895 -0.0987  0.8386 -1.3605
 7614TIP3   OH222805   3.211   6.496   5.731  0.2760  0.0109 -0.0316
 7614TIP3    H122806   3.144   6.480   5.798  0.9509  3.4802  1.6679
 7614TIP3    H222807   3.166   6.547   5.664  1.1651  2.8278  1.3734
 7615TIP3   OH222808   2.576   0.215   0.582  0.3405 -0.1233  0.0242
 7615TIP3    H122809   2.583   0.216   0.678 -1.0521 -1.8253  0.1913
 7615TIP3    H222810   2.500   0.269   0.563  0.4592 -0.0028 -0.1110
 7616TIP3   OH222811   1.011   3.434   2.069  0.4528 -0.0850  0.5159
 7616TIP3    H122812   1.098   3.406   2.041  1.5580  2.2183  1.3394
 7616TIP3    H222813   1.014   3.530   2.062 -1.4292  0.1529  2.1560
 7617TIP3   OH222814   3.029   1.567   3.049  0.5302  0.5666 -0.5707
 7617TIP3    H122815   2.953   1.580   2.993 -0.5247 -0.1352  0.6602
 7617TIP3    H222816   3.061   1.479   3.026  1.1611  0.9577 -1.2657
 7618TIP3   OH222817   5.547   4.883   1.595  0.4562  0.2553  0.7970
 7618TIP3    H122818   5.636   4.888   1.560 -0.0417  1.9297 -0.3498
 7618TIP3    H222819   5.497   4.838   1.527 -0.1824  2.1006 -0.0161
 7619TIP3   OH222820   2.822   1.328   3.307 -0.3725 -0.1547 -0.0346
 7619TIP3    H122821   2.800   1.305   3.217  1.8764 -0.4418 -0.5536
 7619TIP3    H222822   2.800   1.250   3.358 -0.9032 -0.2752 -0.4330
 7620TIP3   OH222823   1.123   1.165   4.335  0.2020  0.2502  0.1304
 7620TIP3    H122824   1.042   1.118   4.354  0.2143 -0.6095 -1.7418
 7620TIP3    H222825   1.189   1.124   4.391 -0.1575 -0.7619 -0.1763
 7621TIP3   OH222826   2.989   1.018   2.094 -0.0684  0.2224  0.5766
 7621TIP3    H122827   2.900   1.050   2.104  0.2751  1.3042  0.4204
 7621TIP3    H222828   3.018   0.999   2.183 -0.7370 -0.9752  0.5475
 7622TIP3   OH222829   5.314   6.190   1.439  0.0916  0.1105  0.2653
 7622TIP3    H122830   5.357   6.125   1.383 -0.5163 -0.7972  0.8205
 7622TIP3    H222831   5.221   6.167   1.436 -0.1097  0.8272  0.6478
 7623TIP3   OH222832   0.400   3.411   2.613 -0.2631  0.2100 -0.4780
 7623TIP3    H122833   0.442   3.453   2.538 -1.5903  0.3833 -1.1510
 7623TIP3    H222834   0.361   3.484   2.662 -0.2367  0.0071 -0.1567
 7624TIP3   OH222835   1.874   2.603   1.720 -0.1430 -0.3905  0.2227
 7624TIP3    H122836   1.939   2.534   1.720  0.2180 -0.0553  0.1746
 7624TIP3    H222837   1.793   2.561   1.689  0.1291 -0.7298 -0.0308
 7625TIP3   OH222838   6.692   6.357   1.509 -0.1827  0.3522  0.6137
 7625TIP3    H122839   6.657   6.303   1.438 -1.1578  0.4300  1.0224
 7625TIP3    H222840   6.705   6.295   1.581 -1.0301  0.6027  0.9896
 7626TIP3   OH222841   6.928   5.205   0.668  0.0732 -0.2022  0.3123
 7626TIP3    H122842   6.980   5.266   0.721 -0.6970  1.9830 -1.3029
 7626TIP3    H222843   6.837   5.231   0.685 -0.2130  0.0557 -1.4465
 7627TIP3   OH222844   3.774   0.075   0.044  0.2247  0.1003  0.3877
 7627TIP3    H122845   3.793  -0.017   0.025  0.3499  0.3372 -0.7268
 7627TIP3    H222846   3.723   0.073   0.125 -0.0361 -0.9711  0.2127
 7628TIP3   OH222847   6.460   6.510   5.745 -0.5128 -0.8990  0.4441
 7628TIP3    H122848   6.419   6.543   5.665  1.0886 -1.8234 -0.8281
 7628TIP3    H222849   6.533   6.570   5.761  0.9145 -2.3130 -0.4817
 7629TIP3   OH222850   0.824   1.388   4.020 -0.1464 -0.4084 -0.0333
 7629TIP3    H122851   0.746   1.363   3.970 -0.3697 -0.7784  0.4880
 7629TIP3    H222852   0.802   1.368   4.111 -0.2901  1.6091  0.4174
 7630TIP3   OH222853   6.179   3.350   3.974 -0.1765  0.4347  0.0571
 7630TIP3    H122854   6.159   3.300   3.895 -0.7711  0.2964  0.2881
 7630TIP3    H222855   6.229   3.289   4.028 -1.6803 -0.2613  0.7294
 7631TIP3   OH222856   0.425   2.256   0.233  1.3057 -0.1033  0.1918
 7631TIP3    H122857   0.460   2.222   0.151 -1.0666 -0.5238 -0.7319
 7631TIP3    H222858   0.380   2.337   0.209 -0.7099 -0.9921  0.7463
 7632TIP3   OH222859   0.865   0.039   1.898 -0.1011 -0.4689  0.3104
 7632TIP3    H122860   0.905  -0.019   1.962  1.3322  1.1510  0.9747
 7632TIP3    H222861   0.776   0.004   1.885  0.2680 -1.9972  1.6366
 7633TIP3   OH222862   7.173   0.440   2.351 -0.1065 -0.0837 -0.2209
 7633TIP3    H122863   7.179   0.465   2.443 -0.2133  0.4045 -0.3482
 7633TIP3    H222864   7.109   0.500   2.313  0.6720  0.3583 -0.8415
 7634TIP3   OH222865   2.850   0.858   5.488  0.7375 -0.5003  0.0546
 7634TIP3    H122866   2.876   0.837   5.398 -1.7565  1.8874 -1.3868
 7634TIP3    H222867   2.895   0.940   5.507  0.1449 -0.2607  0.4373
 7635TIP3   OH222868   1.026   2.407   1.524  0.0425  0.1355  0.1272
 7635TIP3    H122869   0.992   2.324   1.489  0.5196 -0.1572  0.3480
 7635TIP3    H222870   0.998   2.408   1.615 -1.8368  1.2404 -0.3991
 7636TIP3   OH222871   5.980   0.702   1.604 -0.1399  0.4798  0.1913
 7636TIP3    H122872   6.009   0.715   1.513 -0.5802  0.2631  0.0131
 7636TIP3    H222873   6.051   0.737   1.657  1.7634 -2.5545 -0.1227
 7637TIP3   OH222874   3.478   1.029   3.876  0.0771  0.2369  0.5818
 7637TIP3    H122875   3.551   1.026   3.938 -0.0390 -0.7825  0.6938
 7637TIP3    H222876   3.483   0.945   3.830  0.3831  1.1093 -1.0541
 7638TIP3   OH222877   0.598   6.205   2.353 -0.4435  0.3213 -0.1423
 7638TIP3    H122878   0.683   6.167   2.373 -1.0998 -0.8121  0.5424
 7638TIP3    H222879   0.547   6.196   2.433 -1.0486  1.5059 -0.3604
 7639TIP3   OH222880   2.047   1.324   5.682 -0.6020 -0.0527 -0.3252
 7639TIP3    H122881   2.129   1.364   5.654 -0.3283 -0.8299 -0.6739
 7639TIP3    H222882   2.061   1.302   5.774 -0.3887 -0.2416 -0.4012
 7640TIP3   OH222883   1.929   2.956   3.993 -0.2854 -0.5794  0.0922
 7640TIP3    H122884   1.954   2.948   4.085 -2.3831  0.1632  0.7775
 7640TIP3    H222885   1.995   3.013   3.954 -0.8422  1.2950  1.7912
 7641TIP3   OH222886   2.486   5.122   5.829  0.5255  0.0683 -0.7583
 7641TIP3    H122887   2.439   5.180   5.769 -0.2117  0.1373 -0.1182
 7641TIP3    H222888   2.445   5.136   5.914 -0.0795 -1.8261 -0.6911
 7642TIP3   OH222889   2.825   3.329   2.012  0.3823  0.3551 -0.3393
 7642TIP3    H122890   2.830   3.308   1.919  2.4685 -0.9142 -0.0027
 7642TIP3    H222891   2.895   3.393   2.026  0.6008 -0.0456  0.4668
 7643TIP3   OH222892   1.641   2.678   3.549  0.2057 -0.2107 -0.7051
 7643TIP3    H122893   1.710   2.670   3.483  0.7883 -1.6915  0.0301
 7643TIP3    H222894   1.573   2.616   3.522  0.0044 -0.1090 -0.4456
 7644TIP3   OH222895   4.041   4.137   3.924  0.2653 -0.2891 -0.7006
 7644TIP3    H122896   4.070   4.117   4.013  0.0488  1.6298 -0.1563
 7644TIP3    H222897   3.954   4.098   3.918 -0.0553  0.2480  0.2203
 7645TIP3   OH222898   5.011   6.612   5.089 -0.0623 -0.4973  0.2817
 7645TIP3    H122899   5.057   6.696   5.102 -0.0159 -0.3908 -0.4893
 7645TIP3    H222900   5.059   6.550   5.144 -1.4193  0.3927  2.5917
 7646TIP3   OH222901   2.535   2.771   4.704 -0.7812 -0.1985 -0.0089
 7646TIP3    H122902   2.617   2.821   4.700  0.0975 -1.6444 -1.0698
 7646TIP3    H222903   2.497   2.778   4.616  0.1885 -2.6124 -0.7179
 7647TIP3   OH222904   5.839   3.904   0.747  0.5253 -0.5050 -0.4077
 7647TIP3    H122905   5.874   3.989   0.721  0.0606 -0.8316 -2.2786
 7647TIP3    H222906   5.886   3.882   0.827  1.1780  1.1673 -0.2859
 7648TIP3   OH222907   6.474   3.548   0.764  0.0125 -0.0743  0.3959
 7648TIP3    H122908   6.539   3.615   0.785 -1.8532  1.5393  1.4005
 7648TIP3    H222909   6.396   3.574   0.815 -1.9667 -0.9249 -2.0070
 7649TIP3   OH222910   6.514   5.778   4.565  0.4783 -0.0529 -0.6411
 7649TIP3    H122911   6.546   5.698   4.524 -0.2487  0.3458 -2.0576
 7649TIP3    H222912   6.524   5.845   4.497 -1.2649  0.5334 -0.3583
 7650TIP3   OH222913   1.129   4.876   2.196  0.3924  0.3430 -0.1722
 7650TIP3    H122914   1.040   4.888   2.161  0.4065  1.7026  0.2037
 7650TIP3    H222915   1.157   4.964   2.221  1.7792 -0.0959 -0.0979
 7651TIP3   OH222916   7.076   5.680   5.827 -0.2045  0.0459 -0.0201
 7651TIP3    H122917   7.044   5.730   5.751 -0.5542  0.0107  0.1025
 7651TIP3    H222918   7.166   5.710   5.839 -0.0427 -0.1779 -0.6498
 7652TIP3   OH222919   6.535   5.173   5.458  0.0927 -0.2171 -0.7137
 7652TIP3    H122920   6.448   5.210   5.474 -0.0928 -0.7905 -0.3814
 7652TIP3    H222921   6.590   5.250   5.443 -0.1480  0.2628  0.6539
 7653TIP3   OH222922   4.692   3.546   2.502  0.2599  0.1984  0.1141
 7653TIP3    H122923   4.749   3.511   2.570  0.3549  1.1926  0.5582
 7653TIP3    H222924   4.653   3.624   2.541 -0.6598  0.0751 -0.5286
 7654TIP3   OH222925   3.779   6.698   1.881  0.3556  0.4112  0.0578
 7654TIP3    H122926   3.834   6.620   1.872 -0.3019  0.1331 -2.2909
 7654TIP3    H222927   3.810   6.757   1.813 -0.8125  1.1613  0.1566
 7655TIP3   OH222928   5.155   5.913   1.179 -0.1663 -0.0015 -0.6580
 7655TIP3    H122929   5.182   5.824   1.156 -0.6346 -0.2174 -0.3925
 7655TIP3    H222930   5.064   5.904   1.207  0.5558  0.0710  2.0825
 7656TIP3   OH222931   1.412   2.317   0.449 -0.4137 -0.2935  0.0739
 7656TIP3    H122932   1.380   2.242   0.499 -1.2489  0.7947  1.2250
 7656TIP3    H222933   1.366   2.312   0.366 -1.4944 -0.3144  0.6578
 7657TIP3   OH222934   6.368   2.543   0.990 -0.3971 -0.1490 -0.6751
 7657TIP3    H122935   6.344   2.453   0.970 -1.7066 -0.7336  2.9422
 7657TIP3    H222936   6.287   2.593   0.984 -0.6096 -0.1304  1.6096
 7658TIP3   OH222937   1.590   2.223   5.378 -0.2533  0.3492  0.0476
 7658TIP3    H122938   1.643   2.190   5.450 -0.1691  0.9903  0.2785
 7658TIP3    H222939   1.644   2.209   5.300 -1.3103 -2.6771 -0.2781
 7659TIP3   OH222940   3.904   2.208   2.450  0.3986  0.3826 -0.1754
 7659TIP3    H122941   3.838   2.252   2.503 -1.0099 -1.8754  0.0473
 7659TIP3    H222942   3.875   2.223   2.360  1.7691  2.6146 -0.3404
 7660TIP3   OH222943   0.093   4.557   4.125 -0.6499  0.7968  0.0023
 7660TIP3    H122944   0.187   4.555   4.106 -0.5303 -2.0317  0.5640
 7660TIP3    H222945   0.062   4.469   4.105 -2.7145  0.9342  2.1469
 7661TIP3   OH222946   0.514   1.274   0.090 -0.1246  0.3778  0.2704
 7661TIP3    H122947   0.581   1.250   0.026  0.2061  0.5325  0.5514
 7661TIP3    H222948   0.455   1.199   0.093  0.3370  0.0139  0.4070
 7662TIP3   OH222949   6.506   4.676   0.326  0.1605 -0.0891  0.2121
 7662TIP3    H122950   6.451   4.751   0.345  0.9828  0.6120 -0.1039
 7662TIP3    H222951   6.529   4.685   0.233 -1.2217 -1.7377 -0.3379
 7663TIP3   OH222952   2.187   2.638   2.197 -0.0839 -0.4351  0.7065
 7663TIP3    H122953   2.263   2.582   2.213 -0.4659 -1.1150  0.1905
 7663TIP3    H222954   2.193   2.706   2.264  1.5260  0.1047  0.0726
 7664TIP3   OH222955   6.779   2.718   4.685 -0.0898 -0.0547 -0.0023
 7664TIP3    H122956   6.823   2.792   4.727  0.5803 -0.7302  0.5215
 7664TIP3    H222957   6.808   2.641   4.735 -2.0614 -0.5200  0.5057
 7665TIP3   OH222958   5.242   1.833   3.868 -0.2015 -0.3276  0.0841
 7665TIP3    H122959   5.151   1.805   3.876 -0.1295 -0.3141  1.0261
 7665TIP3    H222960   5.293   1.761   3.907  0.2304 -0.5430 -0.8386
 7666TIP3   OH222961   3.672   6.033   1.781 -0.3649 -0.0364  0.8624
 7666TIP3    H122962   3.752   6.079   1.755 -0.6512  0.7210  1.2641
 7666TIP3    H222963   3.636   5.999   1.699 -0.9872  1.8558  0.2787
 7667TIP3   OH222964   3.195   6.575   1.098 -0.1225  0.4032 -0.1517
 7667TIP3    H122965   3.132   6.634   1.139 -0.5845  0.7331 -1.3021
 7667TIP3    H222966   3.239   6.532   1.172  0.1422  2.0787  0.7133
 7668TIP3   OH222967   2.646   2.305   0.770  0.5710 -0.3468  0.1924
 7668TIP3    H122968   2.629   2.246   0.697  0.5853 -0.6274  0.4120
 7668TIP3    H222969   2.574   2.289   0.831 -0.2562  0.9578 -0.4163
 7669TIP3   OH222970   2.637   6.173   3.640  0.2392 -0.0383 -0.4850
 7669TIP3    H122971   2.728   6.143   3.637  0.3433  0.0172  1.1858
 7669TIP3    H222972   2.618   6.182   3.734 -0.9588  1.5621 -0.8436
 7670TIP3   OH222973   2.678   3.751   4.473  0.4772  0.1045 -0.4168
 7670TIP3    H122974   2.645   3.815   4.410  0.8184  0.1724 -0.5263
 7670TIP3    H222975   2.720   3.804   4.541  1.2585 -0.0175 -0.7881
 7671TIP3   OH222976   6.925   2.529   2.128  0.1624  0.1857 -0.4096
 7671TIP3    H122977   7.004   2.567   2.166 -0.0546 -0.3759  0.6326
 7671TIP3    H222978   6.862   2.528   2.200 -0.7449  0.4461 -1.1756
 7672TIP3   OH222979   0.700   6.635   4.168  0.2867  0.3466 -0.3108
 7672TIP3    H122980   0.692   6.558   4.224 -0.7683  0.6995  0.0527
 7672TIP3    H222981   0.775   6.616   4.112 -0.3315 -1.2401 -0.6644
 7673TIP3   OH222982   4.437   1.627   3.475 -0.6163 -0.0066  0.3135
 7673TIP3    H122983   4.359   1.577   3.500 -0.3357 -0.8353 -0.4222
 7673TIP3    H222984   4.468   1.666   3.557 -0.4480 -1.6100  1.0393
 7674TIP3   OH222985   3.629   1.901   4.183  0.0356 -0.5269  0.4537
 7674TIP3    H122986   3.670   1.901   4.096 -1.5968 -0.1225 -0.3718
 7674TIP3    H222987   3.595   1.812   4.193 -0.2516 -0.4217  0.4271
 7675TIP3   OH222988   2.554   0.629   2.225  0.6859  0.3151 -0.7130
 7675TIP3    H122989   2.482   0.572   2.198 -1.1296  1.5396  1.1933
 7675TIP3    H222990   2.547   0.633   2.321  1.6321  2.5433 -0.6652
 7676TIP3   OH222991   6.194   4.101   3.961 -0.2996  0.5493  0.2065
 7676TIP3    H122992   6.126   4.150   3.915 -1.4599 -0.4846  0.7730
 7676TIP3    H222993   6.219   4.031   3.900  1.1390  1.5866 -0.4765
 7677TIP3   OH222994   4.086   6.126   4.258 -0.0029  0.1048  0.3268
 7677TIP3    H122995   4.168   6.171   4.237  0.7067 -1.3568 -0.1691
 7677TIP3    H222996   4.101   6.089   4.345  0.4486 -1.4027 -0.3649
 7678TIP3   OH222997   4.266   1.578   2.009 -0.1096  0.2465  0.1411
 7678TIP3    H122998   4.255   1.483   2.000  0.0770  0.3142 -0.9544
 7678TIP3    H222999   4.179   1.610   2.033 -0.1083 -0.2242  0.8001
 7679TIP3   OH223000   5.158   6.041   5.641  0.2248 -0.0533 -0.6153
 7679TIP3    H123001   5.198   5.968   5.596 -1.3954 -0.2227 -1.8867
 7679TIP3    H223002   5.231   6.095   5.670  1.4122 -1.6288 -0.5587
 7680TIP3   OH223003   7.119   3.226   5.228 -0.1879 -0.2385  0.2759
 7680TIP3    H123004   7.202   3.185   5.203  0.1482  0.7975 -0.3174
 7680TIP3    H223005   7.141   3.317   5.247 -1.4257  0.4438 -1.3654
 7681TIP3   OH223006   2.813   4.915   1.117  0.2344  0.1637  0.4623
 7681TIP3    H123007   2.898   4.879   1.140 -0.1260 -1.4168 -0.5898
 7681TIP3    H223008   2.833   5.001   1.080  1.2892  0.1852  1.0347
 7682TIP3   OH223009   1.850   4.941   1.147 -0.0298 -0.2216  0.6513
 7682TIP3    H123010   1.896   5.024   1.159 -1.7579  0.8564  0.2070
 7682TIP3    H223011   1.816   4.920   1.234 -0.5578  0.1598  0.5451
 7683TIP3   OH223012   5.401   6.020   1.247 -0.5443  0.1520  0.4900
 7683TIP3    H123013   5.326   5.960   1.244 -0.1201 -0.3831  0.3091
 7683TIP3    H223014   5.454   5.996   1.171 -0.0826  0.3797  0.7319
 7684TIP3   OH223015   0.028   3.582   3.640 -0.0128 -0.0085 -0.2067
 7684TIP3    H123016  -0.035   3.647   3.609 -0.9645 -0.5645  0.4867
 7684TIP3    H223017   0.107   3.599   3.589 -0.8702  0.4132 -1.4533
 7685TIP3   OH223018   1.591   2.736   2.846  0.1243 -0.6398 -0.0443
 7685TIP3    H123019   1.630   2.697   2.768  1.3631 -0.7562  0.6099
 7685TIP3    H223020   1.624   2.826   2.846 -0.4841 -0.4151 -0.0574
 7686TIP3   OH223021   5.441   5.148   5.616 -0.1604 -0.1379  0.0214
 7686TIP3    H123022   5.529   5.129   5.648 -0.1432  0.5756  0.4367
 7686TIP3    H223023   5.445   5.132   5.522  0.3038 -0.4856  0.0993
 7687TIP3   OH223024   6.512   3.631   3.085 -0.1799  0.7166 -0.3859
 7687TIP3    H123025   6.547   3.548   3.051  0.0176  1.0097 -0.9100
 7687TIP3    H223026   6.569   3.654   3.158 -1.2416 -0.4689  0.8889
 7688TIP3   OH223027   3.979   1.878   0.639 -0.4783 -0.3430  0.2489
 7688TIP3    H123028   3.998   1.971   0.628 -0.1262 -0.6130 -1.8129
 7688TIP3    H223029   3.958   1.869   0.732  0.8661  1.5303  0.8072
 7689TIP3   OH223030   6.314   3.616   5.144 -0.0843 -0.0364 -0.3312
 7689TIP3    H123031   6.305   3.689   5.205  1.1716 -1.1154  1.2476
 7689TIP3    H223032   6.409   3.611   5.128 -0.3626 -0.0184 -2.0947
 7690TIP3   OH223033   1.579   1.270   0.434 -0.2510  0.1348 -0.2432
 7690TIP3    H123034   1.650   1.210   0.414  0.8986  0.9226  1.2951
 7690TIP3    H223035   1.499   1.218   0.424  0.6378 -1.2407 -0.3143
 7691TIP3   OH223036   5.735   2.348   2.227  0.1422  0.2136  0.2754
 7691TIP3    H123037   5.670   2.299   2.278  0.1720  0.2249  0.3241
 7691TIP3    H223038   5.684   2.413   2.179 -0.2404 -1.3727 -1.6624
 7692TIP3   OH223039   5.751   1.140   3.244  0.4552  0.0216 -0.2398
 7692TIP3    H123040   5.841   1.170   3.256 -0.3073  1.9616  1.2702
 7692TIP3    H223041   5.714   1.199   3.178 -0.0091 -0.0103 -0.0170
 7693TIP3   OH223042   1.760   1.361   4.775  0.1295 -0.8793 -0.6623
 7693TIP3    H123043   1.682   1.399   4.736 -0.2077 -0.2530  0.5874
 7693TIP3    H223044   1.823   1.433   4.776  0.5381 -1.2198 -1.1129
 7694TIP3   OH223045   2.933   0.110   1.887  0.3688 -0.5931  0.2514
 7694TIP3    H123046   2.880   0.064   1.823  0.9082  0.1042 -0.7165
 7694TIP3    H223047   2.989   0.042   1.925 -0.3397 -1.1026  0.4021
 7695TIP3   OH223048   2.429   3.061   0.436 -0.3320 -0.0698 -0.8188
 7695TIP3    H123049   2.448   3.148   0.400 -1.9400 -0.1884 -2.1008
 7695TIP3    H223050   2.508   3.037   0.484  0.1942  2.0560 -0.5041
 7696TIP3   OH223051   3.019   1.125   1.588  0.6260 -0.7411 -0.0377
 7696TIP3    H123052   2.927   1.119   1.615  0.4356  0.7040 -0.2618
 7696TIP3    H223053   3.068   1.081   1.657 -0.1596 -0.5435  0.6578
 7697TIP3   OH223054   1.108   5.955   0.178  0.1107 -0.4257 -0.3372
 7697TIP3    H123055   1.196   5.922   0.160  0.1876 -0.4901  0.1328
 7697TIP3    H223056   1.086   5.919   0.264 -1.0831 -1.8224 -1.1908
 7698TIP3   OH223057   0.877   3.491   1.325  0.2963 -0.3595 -0.2636
 7698TIP3    H123058   0.875   3.556   1.395  2.6714  1.9564 -2.1008
 7698TIP3    H223059   0.798   3.508   1.273  0.1353  0.0385  0.1116
 7699TIP3   OH223060   2.537   1.899   0.407  0.1044  0.0386 -0.0643
 7699TIP3    H123061   2.600   1.827   0.412  0.3545  0.3198  1.2334
 7699TIP3    H223062   2.480   1.876   0.334  0.4664 -1.2443  0.0300
 7700TIP3   OH223063   0.322   5.367   1.975 -0.4932  0.1483  0.3544
 7700TIP3    H123064   0.409   5.372   2.012  0.1557  0.5675 -1.1384
 7700TIP3    H223065   0.264   5.354   2.050  0.8535 -0.3083  1.3445
 7701TIP3   OH223066   3.344   6.377   1.805  0.5622  0.0436  0.5650
 7701TIP3    H123067   3.300   6.382   1.720  2.1941  1.0177 -0.2851
 7701TIP3    H223068   3.278   6.408   1.868 -0.7265 -0.8430 -0.3014
 7702TIP3   OH223069   2.161   3.621   2.720  0.7428  0.0971 -0.0939
 7702TIP3    H123070   2.157   3.694   2.658  0.1032  1.1578  1.1714
 7702TIP3    H223071   2.148   3.543   2.665 -1.1874  1.0972 -1.1322
 7703TIP3   OH223072   0.731   2.833   3.929  0.2353 -0.0280  0.2810
 7703TIP3    H123073   0.706   2.742   3.910  1.2896 -0.2497 -0.0775
 7703TIP3    H223074   0.722   2.841   4.024 -0.5458 -0.2881  0.2391
 7704TIP3   OH223075   0.358   4.037   2.164 -0.2980 -0.6687  0.7480
 7704TIP3    H123076   0.360   3.958   2.110  0.3887 -0.4212  0.3995
 7704TIP3    H223077   0.302   4.098   2.116  0.4216 -0.4004  0.2384
 7705TIP3   OH223078   5.495   0.856   3.396 -0.2518  0.3476 -0.7658
 7705TIP3    H123079   5.458   0.781   3.443 -0.8693  0.0835 -1.6370
 7705TIP3    H223080   5.586   0.861   3.426 -0.3042 -0.5322 -0.4245
 7706TIP3   OH223081   0.447   2.736   0.225  0.0968  0.3800  0.1112
 7706TIP3    H123082   0.383   2.680   0.270  0.4895  0.5158  0.8622
 7706TIP3    H223083   0.445   2.818   0.274  0.9392  0.3380  0.2338
 7707TIP3   OH223084   6.742   2.101   5.767 -0.4850  0.4140  0.0521
 7707TIP3    H123085   6.649   2.122   5.778 -0.4938  0.5287 -0.2307
 7707TIP3    H223086   6.772   2.163   5.700 -1.4351 -2.9591 -3.9071
 7708TIP3   OH223087   1.110   3.234   1.824 -0.0085 -0.4727 -0.4974
 7708TIP3    H123088   1.186   3.269   1.870 -0.0061 -1.1340  0.0192
 7708TIP3    H223089   1.140   3.223   1.734 -0.1289  1.1897 -0.7810
 7709TIP3   OH223090   2.825   0.526   4.564  0.1171  0.4929  0.3548
 7709TIP3    H123091   2.889   0.589   4.597  2.7482 -2.0141  0.4536
 7709TIP3    H223092   2.780   0.494   4.642  0.9772  0.0303  0.6719
 7710TIP3   OH223093   1.262   6.352   4.127 -0.2603 -0.5661  0.6394
 7710TIP3    H123094   1.349   6.323   4.154  0.0299 -0.2313  0.0814
 7710TIP3    H223095   1.222   6.386   4.207  0.1176 -0.7283  0.8994
 7711TIP3   OH223096   0.009  -0.026   2.519  0.1755 -0.2477 -0.1573
 7711TIP3    H123097   0.102  -0.018   2.502  0.5520  0.8184  1.9809
 7711TIP3    H223098  -0.027   0.060   2.499 -0.1745 -0.3758 -0.0953
 7712TIP3   OH223099   6.074   1.403   4.996 -0.1232 -0.6244  0.1192
 7712TIP3    H123100   6.112   1.411   4.908 -1.7394  0.3235 -0.5376
 7712TIP3    H223101   5.993   1.353   4.982  0.5307 -2.1162  1.3873
 7713TIP3   OH223102   0.961   1.372   0.615 -0.3080 -0.0471 -0.0710
 7713TIP3    H123103   0.951   1.348   0.707 -0.2180 -1.0269 -0.2973
 7713TIP3    H223104   0.884   1.425   0.595 -1.0928 -1.0346  0.2122
 7714TIP3   OH223105   1.675   6.758   5.487  0.2063 -0.2673 -0.5381
 7714TIP3    H123106   1.617   6.783   5.416  1.2758  0.4271 -1.1866
 7714TIP3    H223107   1.663   6.827   5.553  3.0918  2.1383 -2.2878
 7715TIP3   OH223108   4.081   2.436   5.137  0.2162 -0.4849 -0.6539
 7715TIP3    H123109   3.997   2.419   5.093  0.5560 -1.0569 -1.0995
 7715TIP3    H223110   4.117   2.512   5.091  0.5538 -1.0608 -1.3638
 7716TIP3   OH223111   1.346   2.434   5.880 -0.0403 -0.3227 -0.6241
 7716TIP3    H123112   1.408   2.481   5.936 -0.8587  0.0671 -0.0264
 7716TIP3    H223113   1.402   2.385   5.819  0.9048 -1.5765  1.1636
 7717TIP3   OH223114   3.797   3.790   2.851 -0.0860  0.0901 -0.1793
 7717TIP3    H123115   3.829   3.714   2.899 -0.5082 -0.0301 -0.0824
 7717TIP3    H223116   3.704   3.797   2.875 -0.3508 -0.0803 -1.0987
 7718TIP3   OH223117   4.615   1.157   1.494  0.2035 -0.3121 -0.3968
 7718TIP3    H123118   4.676   1.155   1.568  1.1751  1.5737 -1.0655
 7718TIP3    H223119   4.545   1.215   1.523  0.9329  1.0011 -1.1345
 7719TIP3   OH223120   0.327   6.269   3.655  0.1587  0.1674  0.0559
 7719TIP3    H123121   0.376   6.341   3.695  1.4069 -0.7252  0.1921
 7719TIP3    H223122   0.302   6.214   3.729 -0.3855  0.2032 -0.0953
 7720TIP3   OH223123   4.138   2.722   4.070  0.4233 -0.1078  0.0654
 7720TIP3    H123124   4.089   2.659   4.122 -1.4587  1.0136 -0.2761
 7720TIP3    H223125   4.089   2.804   4.078  2.7563  1.3575  0.4876
 7721TIP3   OH223126   7.079   6.408   1.234  0.4180  0.7603  0.4928
 7721TIP3    H123127   7.060   6.479   1.173 -0.0182  1.0500  0.9622
 7721TIP3    H223128   6.993   6.380   1.266  0.3661 -1.4864 -1.3471
 7722TIP3   OH223129   4.275   5.386   1.908  0.1956  0.5914  0.1557
 7722TIP3    H123130   4.344   5.327   1.878  0.5867  0.6963  0.8169
 7722TIP3    H223131   4.321   5.468   1.926 -0.0798  0.6245  0.7165
 7723TIP3   OH223132   6.455   1.717   2.016 -0.4316  0.5114  0.5666
 7723TIP3    H123133   6.494   1.803   2.028  1.4745 -0.1994 -0.0953
 7723TIP3    H223134   6.452   1.679   2.104 -1.8724  1.4297  0.9594
 7724TIP3   OH223135   1.002   2.175   3.379  0.1261  0.2853  0.0983
 7724TIP3    H123136   0.945   2.251   3.365  0.2842  0.3245 -0.3377
 7724TIP3    H223137   0.988   2.151   3.471 -0.0968  0.7003  0.1733
 7725TIP3   OH223138   1.412   3.217   3.400  0.1911 -0.4228  0.1903
 7725TIP3    H123139   1.435   3.139   3.349  1.5400 -0.4207  0.7500
 7725TIP3    H223140   1.380   3.183   3.483  0.7764 -0.3922  0.4333
 7726TIP3   OH223141   6.244   5.709   4.569 -0.2598 -0.0853 -0.0722
 7726TIP3    H123142   6.222   5.727   4.478  2.6343 -0.6584 -0.9863
 7726TIP3    H223143   6.340   5.716   4.573 -0.2857  0.1059  2.9764
 7727TIP3   OH223144   0.228   6.720   2.100 -0.5079 -0.3796 -0.0855
 7727TIP3    H123145   0.267   6.806   2.111  2.5394 -1.7138  0.4943
 7727TIP3    H223146   0.227   6.706   2.005 -2.2290  0.7179 -0.2778
 7728TIP3   OH223147   7.028   1.700   0.992  0.2204  0.3073  0.2318
 7728TIP3    H123148   7.010   1.753   0.914  1.0912  1.1994  0.6107
 7728TIP3    H223149   7.081   1.627   0.959 -0.3355  0.0794 -0.1757
 7729TIP3   OH223150   0.156   1.605   4.076  0.1256 -0.1450  0.0817
 7729TIP3    H123151   0.251   1.601   4.088  0.5821  2.3221 -1.8668
 7729TIP3    H223152   0.134   1.697   4.088 -1.7478 -0.3904 -1.0630
 7730TIP3   OH223153   1.125   4.245   1.638  0.0485  0.0029  0.5146
 7730TIP3    H123154   1.195   4.260   1.574 -2.0336  0.1251 -1.9341
 7730TIP3    H223155   1.115   4.150   1.640  0.2845 -0.0134  0.8459
 7731TIP3   OH223156   7.189   4.014   0.589 -0.5532 -0.2825  0.0383
 7731TIP3    H123157   7.159   3.932   0.630  0.5781 -1.5090 -1.4669
 7731TIP3    H223158   7.207   4.072   0.663  0.3295 -2.0100  1.2566
 7732TIP3   OH223159   1.746   6.757   4.883  0.5842  0.1634  0.0976
 7732TIP3    H123160   1.652   6.763   4.862  0.2507 -0.0753  1.3822
 7732TIP3    H223161   1.784   6.708   4.810 -0.7577 -1.9388  0.7059
 7733TIP3   OH223162   5.254   1.872   2.321  0.2803  0.3649 -0.6957
 7733TIP3    H123163   5.230   1.865   2.228 -1.4700  1.0367 -0.3382
 7733TIP3    H223164   5.241   1.965   2.342 -2.4882 -0.2867  0.9535
 7734TIP3   OH223165   3.284   3.296   1.397 -0.1115  0.4256 -0.2799
 7734TIP3    H123166   3.281   3.324   1.306  1.7219 -1.3698 -0.9624
 7734TIP3    H223167   3.270   3.201   1.394  1.9029  0.0161  1.0713
 7735TIP3   OH223168   3.280   4.847   3.326  0.0491 -0.1402 -0.3386
 7735TIP3    H123169   3.372   4.822   3.324 -0.3061 -1.4702 -0.9714
 7735TIP3    H223170   3.265   4.892   3.243  0.6129  2.0507  0.6704
 7736TIP3   OH223171   4.618   5.744   1.486  0.1476 -0.6582  0.0176
 7736TIP3    H123172   4.585   5.657   1.506 -0.1192 -1.3544 -2.9758
 7736TIP3    H223173   4.540   5.799   1.477  0.2320 -0.4748  0.3905
 7737TIP3   OH223174   3.765   0.793   1.790  0.2115 -0.2199  0.5290
 7737TIP3    H123175   3.773   0.709   1.744  1.0891  0.8280 -1.3558
 7737TIP3    H223176   3.849   0.805   1.833  1.1454  0.8962 -1.4776
 7738TIP3   OH223177   6.445   0.658   0.527 -0.0357 -0.4596  0.4851
 7738TIP3    H123178   6.433   0.703   0.444 -2.1558  0.5058  1.2429
 7738TIP3    H223179   6.522   0.700   0.566  2.4244 -2.4327 -1.8262
 7739TIP3   OH223180   2.475   2.817   4.049  0.1278 -0.7283  0.0367
 7739TIP3    H123181   2.411   2.748   4.066 -0.7259  0.4437  2.1278
 7739TIP3    H223182   2.479   2.824   3.954 -0.2828 -3.1356 -0.2022
 7740TIP3   OH223183   1.928   4.335   5.186  0.3154  0.3083  0.0353
 7740TIP3    H123184   1.907   4.391   5.111  1.2326 -0.4043 -0.7688
 7740TIP3    H223185   1.955   4.396   5.255 -1.2831  1.0307  0.0785
 7741TIP3   OH223186   5.662   1.495   5.648  0.7782  0.1459  0.1073
 7741TIP3    H123187   5.587   1.524   5.596  0.0603 -1.2922  0.2871
 7741TIP3    H223188   5.738   1.516   5.594  0.1037 -0.4939 -1.1618
 7742TIP3   OH223189   6.224   1.185   1.508  0.0217 -0.1586  0.3469
 7742TIP3    H123190   6.211   1.111   1.568  1.7320  0.5384  1.6700
 7742TIP3    H223191   6.308   1.166   1.465 -1.2337 -0.7291 -2.0609
 7743TIP3   OH223192   1.415   6.805   4.995 -0.0719  0.0146 -0.0076
 7743TIP3    H123193   1.435   6.714   5.014 -0.1172 -0.3354 -1.4875
 7743TIP3    H223194   1.330   6.821   5.037 -0.8342 -1.1193 -1.0519
 7744TIP3   OH223195   2.773   0.874   2.451 -0.3070 -0.0193  0.4055
 7744TIP3    H123196   2.835   0.938   2.485 -0.0901  0.3434 -0.6408
 7744TIP3    H223197   2.827   0.812   2.402 -0.5050 -1.0627  1.4352
 7745TIP3   OH223198   4.551   4.499   0.796 -0.3214 -0.1452 -0.3289
 7745TIP3    H123199   4.489   4.427   0.782  0.2479 -0.8998  0.8303
 7745TIP3    H223200   4.557   4.542   0.711 -2.3174 -0.1302 -0.5070
 7746TIP3   OH223201   4.173   4.063   4.157  0.2254 -0.1242  0.1348
 7746TIP3    H123202   4.234   4.009   4.207  0.8222  1.7772  1.5616
 7746TIP3    H223203   4.229   4.120   4.104 -0.3725  0.0320 -0.3474
 7747TIP3   OH223204   5.814   2.849   1.171 -0.0071 -0.2600 -0.6360
 7747TIP3    H123205   5.780   2.920   1.117  1.4311  0.7369 -0.3014
 7747TIP3    H223206   5.862   2.793   1.111  0.4816  0.1197 -0.6010
 7748TIP3   OH223207   6.244   3.645   2.481  0.5091  0.3317 -0.1920
 7748TIP3    H123208   6.240   3.739   2.499  1.7357  0.3064  0.3390
 7748TIP3    H223209   6.155   3.614   2.492  0.3203  1.2108  0.9338
 7749TIP3   OH223210   5.029   2.957   3.385 -0.1579  0.5201 -0.3852
 7749TIP3    H123211   4.972   2.889   3.350 -1.4219  2.0685 -1.4427
 7749TIP3    H223212   4.988   2.983   3.468 -0.4838  0.9701 -0.6815
 7750TIP3   OH223213   5.877   1.715   0.117 -0.0968  0.0126 -0.0985
 7750TIP3    H123214   5.841   1.627   0.116 -0.3704  0.1124  0.5723
 7750TIP3    H223215   5.941   1.715   0.188 -0.8509  0.6364  0.6080
 7751TIP3   OH223216   0.551   3.401   3.119 -0.1193 -0.1127 -0.5749
 7751TIP3    H123217   0.623   3.365   3.171 -1.1128 -0.8193  0.3451
 7751TIP3    H223218   0.585   3.402   3.029  0.6115 -1.6197 -0.3554
 7752TIP3   OH223219   2.487   2.782   2.144  0.1482  0.6534  0.1184
 7752TIP3    H123220   2.433   2.762   2.220  0.1430 -1.5164 -0.3778
 7752TIP3    H223221   2.565   2.824   2.180 -0.7521  1.5511  1.0800
 7753TIP3   OH223222   1.595   5.693   3.454  0.0476  0.2567  0.0686
 7753TIP3    H123223   1.590   5.787   3.473  1.3762  0.5009 -0.6698
 7753TIP3    H223224   1.684   5.681   3.421 -0.5854 -1.0254 -1.2096
 7754TIP3   OH223225   0.490   4.799   4.711  0.2522  0.4123  0.1035
 7754TIP3    H123226   0.559   4.821   4.773 -0.4594  0.5790  0.8519
 7754TIP3    H223227   0.469   4.882   4.667 -2.2422  1.3484  2.7353
 7755TIP3   OH223228   4.808   0.123   5.853 -0.1564 -0.6925  0.7683
 7755TIP3    H123229   4.885   0.119   5.910  0.9088 -0.0528 -0.5780
 7755TIP3    H223230   4.820   0.050   5.792  0.9993  1.1331 -1.3444
 7756TIP3   OH223231   0.769   6.035   0.052 -0.2204  0.5437 -0.0028
 7756TIP3    H123232   0.849   6.019   0.003 -0.8041  0.7323 -1.0405
 7756TIP3    H223233   0.796   6.031   0.144  1.0713  1.1002 -0.3401
 7757TIP3   OH223234   0.788   2.961   0.561 -0.2704  0.1264  0.1932
 7757TIP3    H123235   0.732   3.000   0.628  2.1296  1.2608  1.6676
 7757TIP3    H223236   0.777   2.867   0.572 -2.5903  0.2879 -0.2696
 7758TIP3   OH223237   4.379   4.398   1.615  0.0901 -0.7471 -0.0655
 7758TIP3    H123238   4.432   4.446   1.679  1.0403  0.7396 -1.8585
 7758TIP3    H223239   4.320   4.464   1.578 -1.3388 -1.8556  0.1452
 7759TIP3   OH223240   4.352   0.441   4.827  0.2785  0.1118 -0.0357
 7759TIP3    H123241   4.265   0.478   4.811  0.1276  0.3326  1.1730
 7759TIP3    H223242   4.338   0.346   4.828  0.3181  0.0756 -1.2150
 7760TIP3   OH223243   2.366   3.452   2.933 -0.4926 -0.6366 -0.2225
 7760TIP3    H123244   2.407   3.470   2.848 -2.1957 -0.3212 -1.0224
 7760TIP3    H223245   2.273   3.442   2.913 -0.7050 -2.3895  1.3712
 7761TIP3   OH223246   3.305   4.958   3.880  0.3483  0.3480  0.4726
 7761TIP3    H123247   3.283   4.952   3.973 -0.8581  1.1757  0.2768
 7761TIP3    H223248   3.250   5.030   3.848  1.7690  0.9927 -0.5904
 7762TIP3   OH223249   0.977   1.279   5.712  0.8964 -0.6342  0.6546
 7762TIP3    H123250   0.991   1.194   5.754  2.5667 -0.8489 -0.2642
 7762TIP3    H223251   1.046   1.335   5.747  1.6101 -0.4955 -0.8750
 7763TIP3   OH223252   2.538   3.714   0.533  0.2560  0.2820 -0.3777
 7763TIP3    H123253   2.558   3.682   0.445 -2.6402 -1.8104 -0.4209
 7763TIP3    H223254   2.535   3.634   0.586 -1.2794  1.1414  0.8711
 7764TIP3   OH223255   2.427   0.130   1.125  0.8843  0.4210  0.2829
 7764TIP3    H123256   2.391   0.204   1.076 -1.8612 -0.1690  1.2684
 7764TIP3    H223257   2.416   0.154   1.217  1.1703 -0.6610  0.6079
 7765TIP3   OH223258   0.298   5.791   0.507  0.0927 -0.6837 -0.0944
 7765TIP3    H123259   0.326   5.704   0.535 -0.1176 -1.0827 -1.0591
 7765TIP3    H223260   0.274   5.836   0.588  1.0379 -1.2169  0.4986
 7766TIP3   OH223261   2.978   3.297   4.513 -0.1879 -0.2183  0.7049
 7766TIP3    H123262   2.965   3.229   4.579 -2.0778 -1.7880 -1.1137
 7766TIP3    H223263   2.892   3.340   4.506  0.4299  1.0191  0.4059
 7767TIP3   OH223264   2.712   2.519   4.610  0.1260 -0.1625 -0.6329
 7767TIP3    H123265   2.716   2.597   4.665  1.3105 -0.3473 -0.4244
 7767TIP3    H223266   2.745   2.548   4.525  1.3461 -0.5943 -0.3309
 7768TIP3   OH223267   0.450   4.539   2.993 -0.0612  0.7375  0.3320
 7768TIP3    H123268   0.421   4.466   2.938  0.8741  1.0808 -0.6472
 7768TIP3    H223269   0.372   4.593   3.003 -0.2510  0.6844 -0.6983
 7769TIP3   OH223270   6.232   3.772   1.152  0.0019 -0.2291  0.4440
 7769TIP3    H123271   6.177   3.741   1.224 -2.3630  0.5042 -0.9365
 7769TIP3    H223272   6.251   3.863   1.174 -0.1535 -0.2029  0.4728
 7770TIP3   OH223273   5.825   6.286   1.474  0.1575 -0.9223  0.3909
 7770TIP3    H123274   5.746   6.249   1.436 -0.4314 -0.5661  1.2491
 7770TIP3    H223275   5.864   6.338   1.404 -1.5912  0.7855  0.6104
 7771TIP3   OH223276   0.154   2.434   3.918  0.1988 -0.5279  0.1179
 7771TIP3    H123277   0.168   2.441   4.012 -0.8753 -2.0982  0.4163
 7771TIP3    H223278   0.239   2.405   3.883  0.4528 -0.4318  0.6541
 7772TIP3   OH223279   4.507   3.529   3.907 -1.1450 -0.0075  0.2730
 7772TIP3    H123280   4.555   3.469   3.964 -2.0627  0.7158  1.8735
 7772TIP3    H223281   4.574   3.569   3.851 -0.0639 -0.0175  1.5322
 7773TIP3   OH223282   0.735   5.985   5.339  0.1673  0.4435 -0.0141
 7773TIP3    H123283   0.679   5.919   5.297  0.5273 -0.2789  0.6273
 7773TIP3    H223284   0.771   5.941   5.416 -0.3063  1.6869  0.9521
 7774TIP3   OH223285   1.353   0.153   1.484  0.2230 -0.8911  0.2530
 7774TIP3    H123286   1.346   0.195   1.399  1.5714  1.3374  1.1533
 7774TIP3    H223287   1.262   0.133   1.508 -0.2692 -0.4560 -1.1723
 7775TIP3   OH223288   6.099   0.880   1.156 -0.2692 -0.0141  0.2465
 7775TIP3    H123289   6.189   0.914   1.157 -0.1894 -0.1970 -0.2521
 7775TIP3    H223290   6.068   0.892   1.246  0.5573 -0.7382  0.6473
 7776TIP3   OH223291   1.889   1.834   0.058  0.1951  0.1346 -0.0496
 7776TIP3    H123292   1.824   1.905   0.060 -3.0159 -2.5343 -0.0117
 7776TIP3    H223293   1.952   1.857   0.125 -2.0566  1.8528  1.6369
 7777TIP3   OH223294   6.241   4.662   2.587  0.0982 -0.1265  0.6214
 7777TIP3    H123295   6.314   4.710   2.626 -0.7088  1.9943 -0.2984
 7777TIP3    H223296   6.167   4.679   2.646 -0.2112 -0.1944  0.2583
 7778TIP3   OH223297   6.886   5.154   5.253  0.2143  0.0519  0.3098
 7778TIP3    H123298   6.818   5.208   5.294 -0.3272 -0.3513 -0.0542
 7778TIP3    H223299   6.860   5.146   5.162  0.9529  0.2031  0.0759
 7779TIP3   OH223300   5.524   5.168   1.733 -0.4870 -0.0445 -0.3333
 7779TIP3    H123301   5.481   5.087   1.763 -0.5287 -1.2041 -3.1580
 7779TIP3    H223302   5.469   5.198   1.661  0.7480  1.2734 -0.7652
 7780TIP3   OH223303   0.845   6.206   2.765  0.0326  0.3328  0.0511
 7780TIP3    H123304   0.764   6.201   2.816  0.1990  0.3468  0.3240
 7780TIP3    H223305   0.845   6.294   2.729 -0.7734 -0.1370 -1.1461
 7781TIP3   OH223306   0.851   4.921   4.203  0.7263 -0.5718 -0.0843
 7781TIP3    H123307   0.937   4.882   4.191  0.0172 -2.6859  1.1146
 7781TIP3    H223308   0.809   4.913   4.117  1.2536 -0.8178 -0.3213
 7782TIP3   OH223309   6.048   0.487   0.690 -0.0001  0.9438  0.0614
 7782TIP3    H123310   6.058   0.580   0.670  0.1544  1.0761  0.7245
 7782TIP3    H223311   6.071   0.442   0.609 -0.8165  1.5071 -0.5057
 7783TIP3   OH223312   6.476   5.382   2.598  0.2232 -0.1718  0.3921
 7783TIP3    H123313   6.520   5.299   2.614 -0.8959 -0.7536  0.5343
 7783TIP3    H223314   6.436   5.405   2.682  1.7027  1.2503  0.7485
 7784TIP3   OH223315   3.446   3.579   5.221 -0.0347 -0.3997 -0.1062
 7784TIP3    H123316   3.366   3.534   5.195 -0.3347 -0.1892  0.4440
 7784TIP3    H223317   3.461   3.643   5.151 -0.1146 -0.7178 -0.4189
 7785TIP3   OH223318   2.169   4.000   3.392 -0.6071 -0.0515 -0.8256
 7785TIP3    H123319   2.255   3.974   3.358 -1.5464 -1.6448 -2.1745
 7785TIP3    H223320   2.155   3.945   3.469  0.5647  1.9705  0.9436
 7786TIP3   OH223321   1.775   2.805   1.528  0.0571  0.1290  0.1824
 7786TIP3    H123322   1.855   2.792   1.477  0.1084  1.0307  0.0126
 7786TIP3    H223323   1.785   2.748   1.604  1.0690  0.5491  0.3834
 7787TIP3   OH223324   3.559   5.532   2.108  0.0798  0.4043  0.2384
 7787TIP3    H123325   3.504   5.455   2.118 -0.0378  0.4074 -0.3637
 7787TIP3    H223326   3.649   5.498   2.109  0.1787  0.5456  2.7416
 7788TIP3   OH223327   0.652   3.495   0.328  0.1100 -0.1473  0.0796
 7788TIP3    H123328   0.741   3.467   0.309  0.2141  0.1500  0.1205
 7788TIP3    H223329   0.645   3.491   0.423  0.1395  0.0039  0.0887
 7789TIP3   OH223330   4.336   3.285   3.269 -0.2990 -0.1572 -0.5361
 7789TIP3    H123331   4.429   3.303   3.266 -0.3148  0.0410  0.0835
 7789TIP3    H223332   4.323   3.213   3.207  0.0680  0.6326 -1.5458
 7790TIP3   OH223333   4.092   1.772   4.927 -0.3032 -0.7213  0.4352
 7790TIP3    H123334   4.081   1.849   4.984  1.6893  0.3826 -0.5576
 7790TIP3    H223335   4.050   1.797   4.845 -1.3680 -1.4981  0.7301
 7791TIP3   OH223336   3.416   5.846   3.452  0.4563  0.8691 -0.7070
 7791TIP3    H123337   3.405   5.890   3.537 -0.2604 -0.9232  0.1607
 7791TIP3    H223338   3.503   5.875   3.423  1.0011  1.0473  0.9422
 7792TIP3   OH223339   6.550   3.854   5.789  0.1996 -0.4020  0.4560
 7792TIP3    H123340   6.526   3.777   5.840  1.6466 -0.0073  1.7998
 7792TIP3    H223341   6.646   3.857   5.793  0.2414  0.7714 -0.6350
 7793TIP3   OH223342   2.274   2.891   0.279  0.0466 -0.6258  0.2410
 7793TIP3    H123343   2.328   2.948   0.333  1.1551  0.4934 -1.9153
 7793TIP3    H223344   2.321   2.808   0.276  0.0545 -0.6451  0.8348
 7794TIP3   OH223345   4.442   0.332   1.196 -0.0988  0.0188  0.3646
 7794TIP3    H123346   4.361   0.280   1.193 -1.2381  1.4209  3.3203
 7794TIP3    H223347   4.479   0.314   1.282  0.8192  2.1658  0.4712
 7795TIP3   OH223348   6.837   3.717   3.170 -0.1764  0.1382 -0.3989
 7795TIP3    H123349   6.870   3.793   3.123  1.6214  0.6895  1.6219
 7795TIP3    H223350   6.904   3.649   3.156  0.2834  0.2488  1.1247
 7796TIP3   OH223351   6.913   5.264   5.689  0.3819  0.2700 -0.5149
 7796TIP3    H123352   6.950   5.203   5.626 -0.7838 -0.3972 -0.5839
 7796TIP3    H223353   6.943   5.232   5.774  0.3637  0.0319 -0.5988
 7797TIP3   OH223354   4.001   6.474   2.828  0.3181 -0.1745  0.8508
 7797TIP3    H123355   4.009   6.567   2.806  1.2866 -0.5233 -0.3891
 7797TIP3    H223356   3.975   6.473   2.920 -1.2516  1.3398  0.4909
 7798TIP3   OH223357   6.325   5.570   0.701 -0.0424  0.5503 -0.1299
 7798TIP3    H123358   6.419   5.575   0.720  0.8910 -2.1729 -3.1682
 7798TIP3    H223359   6.283   5.603   0.780  3.4347  0.3488  2.0081
 7799TIP3   OH223360   4.464   4.650   1.002 -0.0221 -0.0162 -0.2676
 7799TIP3    H123361   4.554   4.670   1.027 -0.2890 -0.7477  1.3965
 7799TIP3    H223362   4.473   4.597   0.922  1.0305 -0.1520 -0.0760
 7800TIP3   OH223363   3.696   5.180   5.800 -0.2946 -0.3339  0.9515
 7800TIP3    H123364   3.615   5.132   5.784 -0.0097 -1.1452  1.8033
 7800TIP3    H223365   3.745   5.124   5.862  1.7574 -0.8045 -0.9549
 7801TIP3   OH223366   6.571   2.434   0.766 -0.4473  0.3442 -0.0005
 7801TIP3    H123367   6.631   2.426   0.840 -0.6987 -0.5640  0.1243
 7801TIP3    H223368   6.493   2.385   0.793 -0.8931  0.7505 -0.5161
 7802TIP3   OH223369   5.068   3.810   1.212 -0.2241 -0.1143  0.1920
 7802TIP3    H123370   5.013   3.742   1.250  0.6063 -1.7385 -1.3531
 7802TIP3    H223371   5.157   3.773   1.215  0.3629  1.2383  0.0165
 7803TIP3   OH223372   5.005   1.199   3.698 -1.0998  0.3143 -0.1061
 7803TIP3    H123373   5.002   1.117   3.648 -1.8013  1.5280 -2.1741
 7803TIP3    H223374   4.934   1.251   3.662 -0.6428  1.8774  1.1472
 7804TIP3   OH223375   0.783   1.945   4.243  0.1635 -0.4522  0.3110
 7804TIP3    H123376   0.790   1.855   4.212 -1.1538 -0.7843  0.9185
 7804TIP3    H223377   0.807   1.941   4.335 -0.4058 -0.2819  0.4729
 7805TIP3   OH223378   5.283   2.981   3.665 -0.4473 -0.1336  0.2319
 7805TIP3    H123379   5.228   3.044   3.712 -0.2684 -1.0577  1.7707
 7805TIP3    H223380   5.362   3.030   3.644 -0.7848  0.4805  0.3572
 7806TIP3   OH223381   3.452   0.932   5.175 -0.5698 -0.0222  0.0458
 7806TIP3    H123382   3.469   0.958   5.084  3.1224 -0.2192  0.5296
 7806TIP3    H223383   3.420   0.842   5.168 -0.4754  0.0120 -1.0981
 7807TIP3   OH223384   5.275   6.775   1.135 -0.0459  0.4604  0.2999
 7807TIP3    H123385   5.193   6.724   1.137 -1.2247  2.2862  1.4829
 7807TIP3    H223386   5.298   6.787   1.227  0.5958  1.4309  0.0283
 7808TIP3   OH223387   5.430   6.559   2.105 -0.5878  0.6631  0.3455
 7808TIP3    H123388   5.474   6.588   2.026 -1.6890  1.2854 -0.0656
 7808TIP3    H223389   5.393   6.639   2.143 -1.4533  0.1638  0.5989
 7809TIP3   OH223390   1.826   5.705   4.683 -0.3221 -0.6913  0.1217
 7809TIP3    H123391   1.870   5.773   4.735 -0.8878 -0.4066  0.2397
 7809TIP3    H223392   1.855   5.623   4.723 -0.2419 -0.4942  0.4811
 7810TIP3   OH223393   4.814   4.919   2.287  0.1750  0.5633  0.6002
 7810TIP3    H123394   4.892   4.940   2.338  1.1401 -1.0750 -0.1359
 7810TIP3    H223395   4.789   4.832   2.315  0.9876 -0.5853 -1.9095
 7811TIP3   OH223396   4.649   4.197   0.979 -0.2956 -0.2322 -0.3451
 7811TIP3    H123397   4.706   4.177   1.053  2.3424  1.9314 -1.6296
 7811TIP3    H223398   4.584   4.257   1.015  0.0022 -0.4217  0.5497
 7812TIP3   OH223399   0.122   4.260   1.187  0.3208  0.4348  0.2062
 7812TIP3    H123400   0.217   4.252   1.198  0.2567 -0.1943  0.3722
 7812TIP3    H223401   0.092   4.299   1.269  0.3920  0.2372  0.3286
 7813TIP3   OH223402   0.270   2.785   5.068 -0.7911  0.2056  0.1284
 7813TIP3    H123403   0.258   2.744   5.153 -2.8055 -0.1818 -0.2872
 7813TIP3    H223404   0.262   2.879   5.085 -0.9911  0.1408  0.3857
 7814TIP3   OH223405   6.811   1.679   3.686 -0.0797 -0.3035 -0.0587
 7814TIP3    H123406   6.894   1.708   3.724  0.2951 -0.4667 -0.7262
 7814TIP3    H223407   6.792   1.743   3.618 -1.9136  1.3037  1.8323
 7815TIP3   OH223408   0.575   5.328   3.087 -0.0584 -0.5719 -0.0443
 7815TIP3    H123409   0.500   5.381   3.114 -0.8118 -2.0889  0.9482
 7815TIP3    H223410   0.540   5.268   3.022  0.3835 -1.0494  0.1545
 7816TIP3   OH223411   5.947   3.702   4.471 -0.6766 -0.3772 -0.4381
 7816TIP3    H123412   6.030   3.706   4.517 -0.8861 -1.6693  0.0922
 7816TIP3    H223413   5.957   3.764   4.398  0.5760 -0.1923 -0.1307
 7817TIP3   OH223414   2.658   5.756   1.610 -0.4294 -0.0585 -0.0750
 7817TIP3    H123415   2.651   5.672   1.564  0.8755 -0.2189 -0.0275
 7817TIP3    H223416   2.752   5.776   1.608 -0.5325  0.6268  1.3025
 7818TIP3   OH223417   0.836   2.195   4.584  0.0106  0.6186  0.5831
 7818TIP3    H123418   0.906   2.184   4.649 -0.0679  1.9372  0.9082
 7818TIP3    H223419   0.863   2.140   4.510  0.7006  0.0448  1.2526
 7819TIP3   OH223420   6.517   5.589   0.974  0.3051 -0.2540 -0.1098
 7819TIP3    H123421   6.451   5.522   0.958  0.7062 -0.8072  0.4968
 7819TIP3    H223422   6.601   5.543   0.968  0.5612  0.0463  0.9987
 7820TIP3   OH223423   1.536   5.178   4.285  0.7305 -0.3459 -0.0456
 7820TIP3    H123424   1.512   5.242   4.218  1.4821 -0.7132 -0.6855
 7820TIP3    H223425   1.477   5.104   4.270  2.0899 -1.1980 -1.5381
 7821TIP3   OH223426   4.979   3.459   0.173 -0.1311  0.2599 -0.7322
 7821TIP3    H123427   4.951   3.531   0.116 -1.3539  0.7180  0.3951
 7821TIP3    H223428   4.993   3.385   0.114 -1.9622  0.5496 -1.5899
 7822TIP3   OH223429   0.366   6.281   0.012 -0.3467  0.5175  0.3435
 7822TIP3    H123430   0.358   6.196   0.055 -1.2923  0.0603 -0.6945
 7822TIP3    H223431   0.456   6.308   0.029  0.6161 -1.6250 -0.9838
 7823TIP3   OH223432   4.700   1.383   2.039 -0.9529 -0.1978 -0.1506
 7823TIP3    H123433   4.790   1.359   2.016 -0.9606 -1.0808  0.6887
 7823TIP3    H223434   4.708   1.428   2.123 -1.4311 -1.7580  0.7770
 7824TIP3   OH223435   2.850   2.241   3.906 -0.2292  0.1649 -0.6745
 7824TIP3    H123436   2.801   2.312   3.947 -0.9082 -0.6417 -0.0642
 7824TIP3    H223437   2.883   2.279   3.824 -1.1912  0.9595 -0.7141
 7825TIP3   OH223438   0.952   0.978   1.650  0.1328  0.2979  0.3433
 7825TIP3    H123439   1.010   1.053   1.634 -1.0383  1.3850  0.9452
 7825TIP3    H223440   0.886   0.985   1.582  1.1049 -1.4006 -0.8283
 7826TIP3   OH223441   3.381   3.324   1.692  0.0440 -0.1652  0.3528
 7826TIP3    H123442   3.357   3.302   1.602  0.2384 -0.8873  0.4680
 7826TIP3    H223443   3.331   3.262   1.746  0.3985 -0.1501  0.7070
 7827TIP3   OH223444   4.892   1.306   1.049  0.2823 -0.4752  0.3741
 7827TIP3    H123445   4.949   1.289   1.124 -0.8385 -0.1194  1.3292
 7827TIP3    H223446   4.897   1.226   0.997 -0.3935 -1.4962  1.8132
 7828TIP3   OH223447   2.070   4.991   0.881 -0.8014 -0.4729 -0.3409
 7828TIP3    H123448   2.092   4.919   0.940  0.4621 -1.5193 -1.9764
 7828TIP3    H223449   2.028   4.948   0.806 -3.7739  0.9731  0.3488
 7829TIP3   OH223450   2.503   3.381   5.428 -0.1607 -0.2403  0.3891
 7829TIP3    H123451   2.539   3.302   5.469  1.0458  0.1893  0.1767
 7829TIP3    H223452   2.514   3.366   5.334  0.6971  0.4574  0.3689
 7830TIP3   OH223453   0.020   0.576   2.933 -0.4947  0.0762 -0.5059
 7830TIP3    H123454   0.097   0.631   2.950 -0.3854 -0.7979  2.2277
 7830TIP3    H223455   0.057   0.495   2.898 -0.3058  0.1990 -0.5944
 7831TIP3   OH223456   6.091   0.753   0.601 -0.4355  0.2953 -0.0181
 7831TIP3    H123457   6.023   0.787   0.660 -1.1330  1.0341 -1.2214
 7831TIP3    H223458   6.161   0.818   0.606 -0.1842 -0.0091  0.5301
 7832TIP3   OH223459   2.758   3.004   5.110  0.4316  0.4086 -0.4059
 7832TIP3    H123460   2.681   3.060   5.119  0.6907  0.4993  1.8193
 7832TIP3    H223461   2.722   2.915   5.112  0.2760  0.4529 -0.9488
 7833TIP3   OH223462   3.058   3.772   0.230 -0.0555  0.0033 -0.0572
 7833TIP3    H123463   3.123   3.771   0.301  0.3442 -0.7311 -0.4256
 7833TIP3    H223464   3.109   3.766   0.150 -0.5964 -4.4712 -0.3076
 7834TIP3   OH223465   0.984   2.671   3.860 -0.2940 -0.3613  0.1294
 7834TIP3    H123466   0.963   2.747   3.804  2.1701 -1.1611 -2.1089
 7834TIP3    H223467   0.979   2.596   3.801  1.3537 -1.4056  1.2207
 7835TIP3   OH223468   2.705   2.107   4.912 -0.4171  0.0060 -0.1851
 7835TIP3    H123469   2.696   2.017   4.881 -1.2849  0.7103 -2.1936
 7835TIP3    H223470   2.777   2.143   4.860  1.0277  0.0493  1.7643
 7836TIP3   OH223471   1.610   0.984   0.234  0.1977 -0.4968 -0.2305
 7836TIP3    H123472   1.557   0.906   0.250  2.1876 -1.7438  0.6576
 7836TIP3    H223473   1.658   0.964   0.154  0.7382 -0.2014  0.0181
 7837TIP3   OH223474   1.250   2.650   4.741  0.2571  0.0514 -1.0627
 7837TIP3    H123475   1.186   2.581   4.726  0.4887 -0.6621  0.9555
 7837TIP3    H223476   1.293   2.626   4.823  2.3913  1.0541 -1.7938
 7838TIP3   OH223477   0.522   6.326   5.130  0.1558  0.3008 -0.2739
 7838TIP3    H123478   0.573   6.401   5.162  0.6886 -0.2989  0.3199
 7838TIP3    H223479   0.498   6.278   5.209  0.2174 -0.4056 -0.6754
 7839TIP3   OH223480   2.448   0.891   4.202  0.0055 -0.1310 -0.2005
 7839TIP3    H123481   2.541   0.877   4.221 -0.0247  0.6788  0.5800
 7839TIP3    H223482   2.402   0.831   4.260  0.0038  0.3538  0.3024
 7840TIP3   OH223483   2.393   5.306   0.057  0.2531 -0.0329 -0.1004
 7840TIP3    H123484   2.444   5.230   0.087  0.1741  0.2865  0.8602
 7840TIP3    H223485   2.427   5.323  -0.031  2.4083  0.6511  0.7953
 7841TIP3   OH223486   4.921   4.993   3.259 -0.6880  0.0608  0.0080
 7841TIP3    H123487   5.005   5.009   3.301 -0.9350  0.7999  0.2301
 7841TIP3    H223488   4.937   5.007   3.166 -0.6055  0.3613  0.0678
 7842TIP3   OH223489   4.987   2.097   0.647 -0.1796 -0.1124  0.2665
 7842TIP3    H123490   4.912   2.064   0.696  1.2221 -1.0567  1.8408
 7842TIP3    H223491   4.993   2.189   0.672 -2.3239  0.7386 -1.9004
 7843TIP3   OH223492   3.546   4.520   5.435 -0.5256 -0.2580  0.2614
 7843TIP3    H123493   3.612   4.492   5.499 -0.6805  0.7790  0.8974
 7843TIP3    H223494   3.520   4.440   5.390  0.8074 -0.7625  0.3411
 7844TIP3   OH223495   1.143   0.330   3.409 -0.1537  0.1402 -0.2638
 7844TIP3    H123496   1.205   0.376   3.465  0.2161 -0.2669 -0.3330
 7844TIP3    H223497   1.195   0.263   3.365 -0.5990 -0.0647 -0.4902
 7845TIP3   OH223498   4.888   5.940   1.270 -0.2096  0.7889  0.1916
 7845TIP3    H123499   4.810   5.990   1.295  0.2675  1.4501  0.3914
 7845TIP3    H223500   4.865   5.902   1.185 -0.8838  0.6653  0.4181
 7846TIP3   OH223501   2.600   6.477   5.692 -0.3153 -0.0457 -0.4853
 7846TIP3    H123502   2.686   6.458   5.653 -0.0422  0.3890 -0.1142
 7846TIP3    H223503   2.597   6.424   5.772 -0.7651 -0.7357 -0.9529
 7847TIP3   OH223504   4.677   4.544   0.347 -0.1998 -0.3296  0.0326
 7847TIP3    H123505   4.645   4.593   0.423  2.6230 -0.3165  1.3661
 7847TIP3    H223506   4.723   4.608   0.294  0.7330 -0.9403  0.0867
 7848TIP3   OH223507   0.081   6.308   5.129 -0.1987 -0.4222  0.2927
 7848TIP3    H123508   0.021   6.330   5.201  0.7388  0.1726  0.9181
 7848TIP3    H223509   0.091   6.213   5.136 -0.2595 -0.3944  0.8485
 7849TIP3   OH223510   0.948   0.987   2.425 -0.0552 -0.6196  0.0980
 7849TIP3    H123511   0.969   0.954   2.337  0.5575  0.7731 -0.3110
 7849TIP3    H223512   0.935   0.908   2.478 -0.3753 -1.4836 -1.2245
 7850TIP3   OH223513   4.496   3.328   2.688 -0.6382 -0.0925  0.1630
 7850TIP3    H123514   4.485   3.383   2.610  1.3580 -0.6394 -0.5569
 7850TIP3    H223515   4.549   3.254   2.658  1.0166  0.1795  2.2342
 7851TIP3   OH223516   3.234   3.241   5.022  0.2379  0.5334 -0.1636
 7851TIP3    H123517   3.214   3.334   5.011  1.5218  0.6808 -1.7902
 7851TIP3    H223518   3.167   3.208   5.081 -0.6175  2.3551 -0.0538
 7852TIP3   OH223519   2.427   6.311   5.059 -0.1301 -0.2138  0.0370
 7852TIP3    H123520   2.340   6.296   5.096 -0.9333  2.8780 -0.3258
 7852TIP3    H223521   2.487   6.286   5.129 -1.3693 -0.7778  0.9405
 7853TIP3   OH223522   6.718   3.272   1.952  0.3309  0.3073  0.3768
 7853TIP3    H123523   6.704   3.196   1.895 -1.9562  1.8051 -1.2394
 7853TIP3    H223524   6.755   3.338   1.894 -0.7881  1.4343  0.8953
 7854TIP3   OH223525   6.650   2.913   4.947 -0.4014  0.5015  0.4130
 7854TIP3    H123526   6.707   2.937   5.019  0.7072 -1.9895  0.4432
 7854TIP3    H223527   6.617   2.826   4.970 -1.0815  0.2228 -1.4457
 7855TIP3   OH223528   5.051   6.608   2.170  0.1172 -0.6877  0.1280
 7855TIP3    H123529   5.069   6.552   2.245  0.3737  0.4738  0.9478
 7855TIP3    H223530   5.134   6.651   2.151 -0.1107 -0.4727 -0.4129
 7856TIP3   OH223531   5.229   4.038   4.639 -0.5794 -0.1170  0.1106
 7856TIP3    H123532   5.318   4.020   4.668 -1.2491 -0.3411  2.2148
 7856TIP3    H223533   5.227   4.132   4.622 -0.1958  0.0551  1.0043
 7857TIP3   OH223534   6.407   4.209   3.471 -0.1155 -0.0372 -0.4784
 7857TIP3    H123535   6.374   4.122   3.449  1.1049 -0.3453 -1.1806
 7857TIP3    H223536   6.502   4.199   3.475 -0.0303  1.0175  0.5908
 7858TIP3   OH223537   5.682   3.023   4.460  0.3723 -0.0986 -0.3913
 7858TIP3    H123538   5.691   3.110   4.421  1.8400  0.3316  0.8130
 7858TIP3    H223539   5.753   2.972   4.420  0.1999 -0.4221 -0.2827
 7859TIP3   OH223540   5.865   1.448   3.299 -0.3580  0.2190 -0.1186
 7859TIP3    H123541   5.896   1.375   3.352 -1.0734  0.9409  1.3706
 7859TIP3    H223542   5.852   1.519   3.362 -1.2240  1.1258 -1.2761
 7860TIP3   OH223543   2.070   3.680   2.051 -0.1874  0.1172 -0.1310
 7860TIP3    H123544   2.116   3.714   1.975  0.6907  0.3070  0.4733
 7860TIP3    H223545   2.128   3.613   2.087 -1.3260 -1.1589 -0.5683
 7861TIP3   OH223546   4.281   5.785   1.393  0.1820 -0.0068  0.3232
 7861TIP3    H123547   4.309   5.707   1.345  0.2927  0.8708 -1.1193
 7861TIP3    H223548   4.328   5.857   1.351 -1.7550  1.1291 -0.0501
 7862TIP3   OH223549   3.224   6.179   4.018 -0.5062 -0.1119 -0.2678
 7862TIP3    H123550   3.258   6.091   4.037 -2.4087 -0.5968  1.2886
 7862TIP3    H223551   3.286   6.238   4.062  1.2958 -0.5572 -2.0870
 7863TIP3   OH223552   2.062   1.488   1.376  0.2057 -0.9745 -0.5022
 7863TIP3    H123553   1.973   1.523   1.371  0.9244  0.9246 -0.8813
 7863TIP3    H223554   2.072   1.460   1.467 -0.4623 -0.2513 -0.1977
 7864TIP3   OH223555   3.557   2.421   4.560  0.0818 -0.0134  0.0543
 7864TIP3    H123556   3.558   2.445   4.467 -1.2723 -2.1067 -0.5684
 7864TIP3    H223557   3.650   2.413   4.583  0.4446  0.5643 -1.0976
 7865TIP3   OH223558   5.163   3.452   1.547  0.2070 -0.1040  0.0043
 7865TIP3    H123559   5.070   3.447   1.523  0.1814 -1.3674  0.2953
 7865TIP3    H223560   5.196   3.528   1.499 -0.5810 -0.6346 -1.4418
 7866TIP3   OH223561   1.444   4.563   3.575  0.2770  0.3013 -0.5876
 7866TIP3    H123562   1.369   4.606   3.533  1.1941  0.6519 -1.9578
 7866TIP3    H223563   1.501   4.636   3.602 -0.3817  0.0880  1.5195
 7867TIP3   OH223564   3.707   6.309   3.995 -0.0158 -0.3977 -0.2981
 7867TIP3    H123565   3.771   6.294   4.064  0.6475  0.1245 -0.7910
 7867TIP3    H223566   3.746   6.271   3.916 -0.7279 -0.9176 -0.4122
 7868TIP3   OH223567   5.453   5.735   3.743 -0.3473 -0.5125  0.3229
 7868TIP3    H123568   5.459   5.673   3.670 -0.8995 -0.7531  0.4678
 7868TIP3    H223569   5.373   5.708   3.790 -1.6412  1.4251 -0.6445
 7869TIP3   OH223570   4.788   6.205   3.084  0.3227 -0.3038  0.5864
 7869TIP3    H123571   4.796   6.163   2.998  1.5596  1.2443 -0.1273
 7869TIP3    H223572   4.766   6.135   3.144  2.0768 -1.9394 -0.5565
 7870TIP3   OH223573   6.579   4.436   3.703 -0.3792  0.0103 -0.2759
 7870TIP3    H123574   6.513   4.382   3.746 -0.7820 -0.6349 -1.6582
 7870TIP3    H223575   6.657   4.425   3.758 -0.2073 -2.6634 -0.9057
 7871TIP3   OH223576   6.739   6.114   0.008  0.1271  0.3248  0.1680
 7871TIP3    H123577   6.780   6.149   0.086  0.2188 -0.8037  0.6418
 7871TIP3    H223578   6.809   6.069  -0.039  0.4113  2.1872 -1.3373
 7872TIP3   OH223579   3.586   4.745   3.960 -0.5908  0.2154 -0.3740
 7872TIP3    H123580   3.556   4.721   3.873 -0.0205 -2.2126  0.0250
 7872TIP3    H223581   3.661   4.687   3.976  0.1512  1.5359  1.2151
 7873TIP3   OH223582   0.632   3.035   0.057  0.0666  0.9083 -0.3008
 7873TIP3    H123583   0.630   3.103   0.123 -2.0420 -0.7013  1.4522
 7873TIP3    H223584   0.680   2.963   0.098  1.1220  0.8182 -1.6162
 7874TIP3   OH223585   1.421   5.676   2.814 -0.4163  0.4415 -0.1394
 7874TIP3    H123586   1.387   5.612   2.876 -0.3525  0.3159 -0.2349
 7874TIP3    H223587   1.344   5.705   2.765 -0.1758 -0.9784 -1.4133
 7875TIP3   OH223588   5.456   6.385   4.846 -0.5947  0.0273 -0.0877
 7875TIP3    H123589   5.423   6.473   4.824 -2.4495 -0.3716  0.8229
 7875TIP3    H223590   5.416   6.328   4.781 -0.9675 -0.3581  0.4711
 7876TIP3   OH223591   5.696   0.695   3.707  0.0057  0.1567  0.3694
 7876TIP3    H123592   5.685   0.725   3.797  0.7157 -2.6602  1.5318
 7876TIP3    H223593   5.611   0.658   3.683  0.1974 -0.3651  0.4623
 7877TIP3   OH223594   1.568   0.426   4.591 -0.0044  0.3583 -0.5932
 7877TIP3    H123595   1.654   0.393   4.618 -1.1907 -2.0818  0.4956
 7877TIP3    H223596   1.566   0.413   4.496 -0.0943 -2.0482 -0.3128
 7878TIP3   OH223597   0.801   4.090   3.091  0.2765  0.3277  0.2724
 7878TIP3    H123598   0.836   4.126   3.010  1.9463  0.2622  0.9165
 7878TIP3    H223599   0.813   4.160   3.155 -0.4302  0.1559  0.5976
 7879TIP3   OH223600   4.717   2.751   1.728  0.3618  0.0926  0.1642
 7879TIP3    H123601   4.703   2.733   1.635  1.5071  0.4650 -0.1034
 7879TIP3    H223602   4.657   2.823   1.748  0.4155  0.3062 -0.4151
 7880TIP3   OH223603   6.312   6.390   1.561 -0.0713 -0.5694 -1.1161
 7880TIP3    H123604   6.349   6.369   1.646  2.2667 -0.0741 -1.9272
 7880TIP3    H223605   6.305   6.486   1.560  2.3130 -0.3223 -2.2880
 7881TIP3   OH223606   4.337   5.707   5.632  0.1907  0.1780 -0.2095
 7881TIP3    H123607   4.347   5.787   5.684  0.8178  0.5385 -0.8692
 7881TIP3    H223608   4.304   5.737   5.548  1.0977 -0.1763 -0.6996
 7882TIP3   OH223609   5.734   0.874   5.070 -0.2397  0.0656 -0.3885
 7882TIP3    H123610   5.744   0.866   5.165 -1.3566  2.5072  0.0134
 7882TIP3    H223611   5.640   0.884   5.056 -0.0066  0.8089 -1.6190
 7883TIP3   OH223612   1.893   5.453   2.478 -0.1842  0.0100 -0.4998
 7883TIP3    H123613   1.907   5.522   2.413  0.4866 -0.0571 -0.4350
 7883TIP3    H223614   1.945   5.379   2.446  1.6317  0.5583  1.0034
 7884TIP3   OH223615   2.471   5.266   0.443 -0.4095  0.8597  0.5983
 7884TIP3    H123616   2.502   5.227   0.525 -1.4908 -0.2353  0.5173
 7884TIP3    H223617   2.429   5.193   0.396 -3.5654  2.2873  0.9414
 7885TIP3   OH223618   2.670   2.727   2.695 -0.2691 -0.5936  0.2325
 7885TIP3    H123619   2.658   2.669   2.620 -0.9282 -1.1376  0.7531
 7885TIP3    H223620   2.614   2.690   2.764 -0.5690  0.5542  0.6271
 7886TIP3   OH223621   5.262   0.401   5.674  0.0599  0.4864  0.0391
 7886TIP3    H123622   5.345   0.409   5.628 -0.6262  0.4409 -1.2276
 7886TIP3    H223623   5.210   0.341   5.621  0.1389 -1.6960  2.1959
 7887TIP3   OH223624   0.175   0.082   3.519  0.0488 -0.1613 -0.0829
 7887TIP3    H123625   0.216   0.021   3.457  0.6936  0.0874  0.0914
 7887TIP3    H223626   0.204   0.053   3.605  1.4157  1.1305 -0.0645
 7888TIP3   OH223627   0.971   3.882   5.460 -0.2555 -0.5579  0.0134
 7888TIP3    H123628   1.005   3.809   5.512  0.0626 -1.2007 -1.0604
 7888TIP3    H223629   0.885   3.851   5.430 -0.7773  0.1165  0.7654
 7889TIP3   OH223630   6.519   4.101   2.304 -0.2138  0.0227  0.3682
 7889TIP3    H123631   6.496   4.016   2.339  0.9747 -0.4261  0.1233
 7889TIP3    H223632   6.560   4.148   2.377  0.7667 -0.3043  0.0518
 7890TIP3   OH223633   6.712   6.406   2.789  0.9271  0.8061 -0.0998
 7890TIP3    H123634   6.796   6.442   2.759  0.5300  0.9604 -1.0880
 7890TIP3    H223635   6.657   6.483   2.804  0.7179  0.6827 -0.2257
 7891TIP3   OH223636   0.349   5.193   1.003  0.0687 -0.3289 -0.2333
 7891TIP3    H123637   0.444   5.184   1.011 -0.0729 -1.2078  0.7007
 7891TIP3    H223638   0.317   5.196   1.093 -0.8956 -1.5494 -0.4951
 7892TIP3   OH223639   3.732   1.264   2.043  0.0938  0.2500 -0.0713
 7892TIP3    H123640   3.656   1.314   2.012 -0.5989 -0.4632  0.4204
 7892TIP3    H223641   3.722   1.178   2.003  1.1230  0.4089 -0.6909
 7893TIP3   OH223642   4.478   0.492   2.702  0.1423  0.2597  0.3945
 7893TIP3    H123643   4.430   0.410   2.692  1.0385 -0.2322  0.0567
 7893TIP3    H223644   4.435   0.552   2.641 -1.6686  0.6064  1.8934
 7894TIP3   OH223645   4.139   1.726   3.894  0.2968  0.1511  0.4402
 7894TIP3    H123646   4.116   1.763   3.980  0.3167  1.3338 -0.0390
 7894TIP3    H223647   4.091   1.781   3.832  1.3986  0.2094 -0.3777
 7895TIP3   OH223648   2.569   4.899   2.066  0.4885 -0.1525 -0.5189
 7895TIP3    H123649   2.603   4.965   2.006 -0.6678 -0.5681 -1.6733
 7895TIP3    H223650   2.537   4.829   2.009  1.9761 -1.9121  0.6675
 7896TIP3   OH223651   0.011   5.769   3.485 -0.3065 -0.2205 -0.2099
 7896TIP3    H123652  -0.023   5.680   3.487 -0.9400 -0.0282 -1.5699
 7896TIP3    H223653   0.058   5.775   3.402 -0.4493  0.7729 -0.2297
 7897TIP3   OH223654   1.786   4.516   2.395  0.0238 -0.2925  0.3186
 7897TIP3    H123655   1.737   4.564   2.461 -0.9646  0.8922 -1.2110
 7897TIP3    H223656   1.876   4.514   2.429  0.8983  5.2422 -0.6539
 7898TIP3   OH223657   4.448   2.113   2.529  0.2343 -0.3853  0.0940
 7898TIP3    H123658   4.394   2.146   2.600 -0.4185  1.2226 -1.0953
 7898TIP3    H223659   4.430   2.019   2.526 -1.7386 -0.0431  0.3706
 7899TIP3   OH223660   3.511   0.110   0.847  0.3257  0.2363  0.2019
 7899TIP3    H123661   3.485   0.018   0.845 -1.4479  0.7131 -1.0766
 7899TIP3    H223662   3.549   0.123   0.934  0.6512 -1.6873  0.3865
 7900TIP3   OH223663   3.284   2.779   3.607  0.1827  0.1311 -0.0031
 7900TIP3    H123664   3.289   2.747   3.697 -1.8331  0.5490  0.3049
 7900TIP3    H223665   3.323   2.710   3.555 -1.8576 -1.8146  0.8785
 7901TIP3   OH223666   4.034   5.649   0.785  0.5429 -0.3055 -0.0523
 7901TIP3    H123667   4.065   5.734   0.754 -1.0520  0.5355  0.5689
 7901TIP3    H223668   3.998   5.667   0.872 -0.8148 -1.3881 -0.3628
 7902TIP3   OH223669   1.431   1.895   1.736 -0.2031 -0.5997  0.5028
 7902TIP3    H123670   1.416   1.849   1.654  0.4393 -0.0640  0.0747
 7902TIP3    H223671   1.526   1.908   1.739 -0.1852 -0.8719  1.4721
 7903TIP3   OH223672   5.462   2.431   2.811  0.2873  0.2335  0.1404
 7903TIP3    H123673   5.533   2.492   2.795  0.2362  0.0333 -0.9550
 7903TIP3    H223674   5.505   2.350   2.837  0.4363  0.2568 -0.0354
 7904TIP3   OH223675   1.525   2.162   2.359 -0.0529 -0.0208 -0.0425
 7904TIP3    H123676   1.480   2.247   2.356  0.5713  0.3198  0.0839
 7904TIP3    H223677   1.462   2.103   2.398 -0.4836  0.3971 -0.0947
 7905TIP3   OH223678   6.739   6.596   5.416  0.0904 -0.2287 -0.3433
 7905TIP3    H123679   6.740   6.599   5.321  0.1020 -1.8678 -0.4126
 7905TIP3    H223680   6.817   6.547   5.440  0.7094  1.1356  0.5823
 7906TIP3   OH223681   5.665   2.609   2.798 -0.4670  0.2670 -0.3114
 7906TIP3    H123682   5.658   2.702   2.781  1.2952  0.2138 -1.6464
 7906TIP3    H223683   5.730   2.602   2.868  1.0713  0.0033 -1.7021
 7907TIP3   OH223684   4.343   4.783   1.332  0.3443  0.6539 -0.2582
 7907TIP3    H123685   4.296   4.718   1.279 -0.6451 -0.2702  1.6454
 7907TIP3    H223686   4.427   4.742   1.352 -0.0878  0.1414  0.5412
 7908TIP3   OH223687   1.514   2.986   3.266 -0.1804  0.0495  0.2581
 7908TIP3    H123688   1.558   2.949   3.342 -0.8440 -1.8533 -0.2222
 7908TIP3    H223689   1.508   2.913   3.204 -1.2965  1.0611 -0.8780
 7909TIP3   OH223690   2.410   3.640   4.470  0.1803 -0.1564  0.0627
 7909TIP3    H123691   2.506   3.642   4.472  0.1530  0.3366  1.2626
 7909TIP3    H223692   2.383   3.692   4.545 -1.0439  0.0531 -0.5035
 7910TIP3   OH223693   6.246   6.090   1.593 -0.1215  0.8558 -0.1703
 7910TIP3    H123694   6.285   6.160   1.644  0.4924 -0.6204  1.4761
 7910TIP3    H223695   6.319   6.052   1.544  0.1433 -0.4068  1.1274
 7911TIP3   OH223696   5.024   6.106   1.890  0.1690  0.6884 -1.0591
 7911TIP3    H123697   5.042   6.200   1.900  1.9144  0.3971 -1.1635
 7911TIP3    H223698   5.091   6.074   1.830 -0.7967 -0.5259 -1.5439
 7912TIP3   OH223699   0.467   1.481   5.740  0.5681 -0.1611  0.0351
 7912TIP3    H123700   0.417   1.460   5.819 -0.0409  0.2300 -0.2391
 7912TIP3    H223701   0.517   1.401   5.721  1.5178  0.0854  1.3965
 7913TIP3   OH223702   6.652   0.862   1.763 -0.3172  0.5032  0.0612
 7913TIP3    H123703   6.614   0.860   1.851 -2.3161 -0.1184 -0.7578
 7913TIP3    H223704   6.704   0.783   1.757 -0.8573  0.1124  0.4211
 7914TIP3   OH223705  -0.015   6.748   4.254 -0.4265 -0.0809 -0.0856
 7914TIP3    H123706   0.048   6.816   4.232 -0.3575  0.2390  1.0378
 7914TIP3    H223707   0.023   6.704   4.331 -0.9012 -0.8001 -0.2456
 7915TIP3   OH223708   0.722   4.547   1.503 -0.3514 -0.1689 -0.4894
 7915TIP3    H123709   0.794   4.492   1.536  0.0332  0.7760  0.3101
 7915TIP3    H223710   0.644   4.493   1.515 -0.2129  0.0350  1.8790
 7916TIP3   OH223711   1.433   0.700   3.304  0.6813  0.3119 -0.1640
 7916TIP3    H123712   1.451   0.780   3.254  0.0091  0.4112 -0.2477
 7916TIP3    H223713   1.363   0.656   3.257  0.7270 -0.1006  0.1416
 7917TIP3   OH223714   1.417   4.894   4.216  0.0733  0.5089  0.1864
 7917TIP3    H123715   1.400   4.803   4.192 -0.4386  0.3742  0.9908
 7917TIP3    H223716   1.395   4.898   4.309  0.0900  1.4563  0.1587
 7918TIP3   OH223717   3.954   6.202   5.103 -0.5595  0.1881  0.6985
 7918TIP3    H123718   4.045   6.230   5.109 -0.0821 -0.6637 -1.5891
 7918TIP3    H223719   3.914   6.263   5.042 -0.3463 -1.9407 -1.7359
 7919TIP3   OH223720   5.437   4.718   5.670  0.5072 -0.1004 -0.6868
 7919TIP3    H123721   5.398   4.771   5.601  0.3656  1.5005  0.5634
 7919TIP3    H223722   5.379   4.728   5.745  2.7577  1.7310  0.9883
 7920TIP3   OH223723   6.746   6.552   4.480 -0.1928 -0.8532 -0.1937
 7920TIP3    H123724   6.742   6.581   4.571 -1.3897 -3.2853  0.6323
 7920TIP3    H223725   6.839   6.560   4.456 -0.0725  1.0149  0.7700
 7921TIP3   OH223726   3.418   1.139   5.710  0.3076  0.0872 -0.2007
 7921TIP3    H123727   3.334   1.096   5.696  0.9442 -1.4158  0.3535
 7921TIP3    H223728   3.416   1.167   5.801  0.7437 -0.8033  0.0994
 7922TIP3   OH223729   3.352   3.173   5.575 -0.5015 -0.1113 -0.0470
 7922TIP3    H123730   3.436   3.162   5.530  0.1554  0.0690  1.1082
 7922TIP3    H223731   3.353   3.107   5.645 -0.0375  1.7522  1.7993
 7923TIP3   OH223732   4.982   6.563   0.532  0.1437 -0.2483  0.3171
 7923TIP3    H123733   5.077   6.574   0.523  0.1715  0.3586  1.1915
 7923TIP3    H223734   4.945   6.633   0.478  0.2257  0.3812  1.0623
 7924TIP3   OH223735   0.690   3.304   5.874  0.6019 -0.0680  0.3402
 7924TIP3    H123736   0.736   3.222   5.861  0.4037  0.0112 -0.9812
 7924TIP3    H223737   0.758   3.366   5.901  0.7724 -0.6134  1.1948
 7925TIP3   OH223738   0.358   2.240   3.842 -0.2387  0.4380 -0.0243
 7925TIP3    H123739   0.335   2.181   3.770  1.0227  1.9347 -1.7497
 7925TIP3    H223740   0.451   2.258   3.830 -0.1838  1.3763  1.5123
 7926TIP3   OH223741   3.924   1.899   0.902  0.1691 -0.3878  0.1951
 7926TIP3    H123742   3.839   1.855   0.892 -0.1045  0.4946 -1.9153
 7926TIP3    H223743   3.902   1.984   0.938 -0.3222  1.0316 -3.0864
 7927TIP3   OH223744   2.552   2.592   0.916  0.0394  0.0177  0.4005
 7927TIP3    H123745   2.639   2.589   0.956  0.0633  1.3333  0.4868
 7927TIP3    H223746   2.499   2.533   0.969  0.6679 -0.1392  0.8679
 7928TIP3   OH223747   5.333   1.738   2.645  0.5986  0.3571 -0.6524
 7928TIP3    H123748   5.245   1.727   2.681 -0.9430  1.3706 -3.6834
 7928TIP3    H223749   5.358   1.828   2.668  0.4624  0.3469 -0.4682
 7929TIP3   OH223750   2.588   5.348   5.234  0.5199  0.0783 -0.0917
 7929TIP3    H123751   2.519   5.371   5.172  0.6229  0.7317  0.0309
 7929TIP3    H223752   2.581   5.253   5.243  1.0809 -0.1596 -1.7948
 7930TIP3   OH223753   4.432   2.979   0.933 -0.1848 -0.5753  0.2718
 7930TIP3    H123754   4.453   2.958   0.842  1.7646 -2.3315  1.0481
 7930TIP3    H223755   4.481   3.059   0.952  0.2205 -0.7782  0.0783
 7931TIP3   OH223756   3.298   3.026   3.724 -0.3301  0.1272 -0.3682
 7931TIP3    H123757   3.240   3.084   3.674 -2.2411 -1.3553  0.0026
 7931TIP3    H223758   3.307   2.948   3.668 -2.3031 -1.4624  1.3554
 7932TIP3   OH223759   0.406   6.761   0.233  0.2775 -0.5016 -0.2978
 7932TIP3    H123760   0.481   6.787   0.179  0.4543 -1.0511 -0.3218
 7932TIP3    H223761   0.349   6.712   0.173 -1.2106  1.7581 -0.8819
 7933TIP3   OH223762   2.874   5.012   5.287  0.1482 -0.2706  0.0156
 7933TIP3    H123763   2.923   4.938   5.251 -0.1794 -1.2806  1.5269
 7933TIP3    H223764   2.911   5.025   5.374 -0.8179  0.3677  0.3468
 7934TIP3   OH223765   4.344   1.885   1.098 -0.0157 -0.3507  0.0209
 7934TIP3    H123766   4.373   1.798   1.126  1.4280 -0.3280 -1.2931
 7934TIP3    H223767   4.291   1.869   1.020  0.4458 -0.0381 -0.3585
 7935TIP3   OH223768   3.781   5.525   4.007  0.8624  0.0666  0.3671
 7935TIP3    H123769   3.845   5.567   3.950 -2.6650  1.5973 -2.9193
 7935TIP3    H223770   3.761   5.591   4.073 -0.1992  1.2986 -1.1019
 7936TIP3   OH223771   2.126   3.014   3.339  0.5461  0.2119 -0.2466
 7936TIP3    H123772   2.155   2.978   3.423  1.5506  0.7353 -0.3511
 7936TIP3    H223773   2.030   3.014   3.345  0.5839 -0.3095  0.6560
 7937TIP3   OH223774   1.544   5.534   5.457 -0.2611 -0.0135  0.1342
 7937TIP3    H123775   1.580   5.481   5.529 -1.5555 -0.9890  0.0978
 7937TIP3    H223776   1.606   5.523   5.386  0.0707 -0.5734  0.5003
 7938TIP3   OH223777   2.613   4.334   3.492  0.0996 -0.2242 -0.0417
 7938TIP3    H123778   2.696   4.296   3.519 -0.3408 -1.4454 -0.3011
 7938TIP3    H223779   2.608   4.316   3.398 -0.7358 -0.7599  0.0898
 7939TIP3   OH223780   1.311   0.298   3.968 -0.1549 -0.0927 -0.1599
 7939TIP3    H123781   1.296   0.349   3.888  0.4853  2.5868  1.2877
 7939TIP3    H223782   1.398   0.260   3.956  0.4111  1.1966 -0.3441
 7940TIP3   OH223783   6.454   0.716   2.732 -0.4769  0.1122  0.0692
 7940TIP3    H123784   6.506   0.796   2.722  2.1211 -1.1908  2.0807
 7940TIP3    H223785   6.480   0.681   2.817  0.8971 -4.4641 -1.9231
 7941TIP3   OH223786   6.668   1.377   5.308 -0.2307 -0.2838 -0.1902
 7941TIP3    H123787   6.680   1.411   5.219  1.0031 -0.4525 -0.0959
 7941TIP3    H223788   6.725   1.431   5.362  0.1026 -1.1068  0.2910
 7942TIP3   OH223789   1.744   2.231   5.150  0.0328 -0.1030 -0.5023
 7942TIP3    H123790   1.780   2.318   5.136  2.4994 -0.7911  1.0072
 7942TIP3    H223791   1.741   2.192   5.062 -1.0182  1.3920 -1.1834
 7943TIP3   OH223792   1.323   6.796   1.661 -0.3444 -0.0494  0.8647
 7943TIP3    H123793   1.241   6.844   1.668 -0.3296  0.2331 -0.6031
 7943TIP3    H223794   1.296   6.704   1.655 -0.5726  0.0511  0.2567
 7944TIP3   OH223795   5.774   5.664   5.303  0.7651 -0.8307 -0.4445
 7944TIP3    H123796   5.788   5.721   5.379 -0.4840 -1.5081  0.3283
 7944TIP3    H223797   5.860   5.622   5.289  1.6912  1.1550 -1.0164
 7945TIP3   OH223798   0.905   3.802   1.130 -0.7574 -0.2311 -0.3059
 7945TIP3    H123799   0.816   3.767   1.120 -1.1281  0.9712 -1.6006
 7945TIP3    H223800   0.895   3.897   1.119  0.4470  0.1314  1.3576
 7946TIP3   OH223801   5.532   4.446   5.710 -0.2368 -0.3705 -0.1870
 7946TIP3    H123802   5.501   4.536   5.701 -0.0654 -0.1170  1.4989
 7946TIP3    H223803   5.543   4.433   5.804  2.3298 -1.2858 -0.5245
 7947TIP3   OH223804   0.879   6.198   2.480  0.1399 -0.4974  0.1907
 7947TIP3    H123805   0.874   6.164   2.570  0.3041 -3.0219 -0.6741
 7947TIP3    H223806   0.907   6.123   2.428 -0.0369  0.8852 -2.0029
 7948TIP3   OH223807   6.110   4.656   3.665 -0.2727  0.3315  0.1619
 7948TIP3    H123808   6.188   4.651   3.720 -0.0173 -0.1294 -0.2434
 7948TIP3    H223809   6.123   4.735   3.612 -0.8118  1.1388  1.1955
 7949TIP3   OH223810   1.559   4.162   5.006  0.1097  0.0514 -0.1078
 7949TIP3    H123811   1.468   4.161   5.037 -0.3405  1.3465 -1.2695
 7949TIP3    H223812   1.560   4.100   4.933  0.1449  0.1209 -0.1654
 7950TIP3   OH223813   1.799   0.467   0.548  0.1538  0.6663  0.3024
 7950TIP3    H123814   1.887   0.479   0.585  0.6583  1.9665 -1.1806
 7950TIP3    H223815   1.793   0.373   0.531  1.4124  0.5997  0.1263
 7951TIP3   OH223816   2.324   1.654   4.793 -0.0171  0.2969  0.0449
 7951TIP3    H123817   2.342   1.587   4.726  0.6170  1.3599 -0.8699
 7951TIP3    H223818   2.386   1.724   4.774 -0.0120  0.7461  1.6006
 7952TIP3   OH223819   1.426   1.403   4.456 -0.2489  0.5166  0.0923
 7952TIP3    H123820   1.465   1.377   4.540 -0.5539  0.7083  0.2990
 7952TIP3    H223821   1.488   1.374   4.390  0.1126  0.5850  0.4008
 7953TIP3   OH223822   4.411   0.753   0.398  0.2540  0.0831 -0.5919
 7953TIP3    H123823   4.489   0.792   0.361  1.2522  0.9559  2.1796
 7953TIP3    H223824   4.434   0.734   0.489 -1.6938 -2.7832 -0.5724
 7954TIP3   OH223825   3.047   5.968   3.313  0.6482  0.4635  0.1525
 7954TIP3    H123826   3.015   5.967   3.223  0.1997 -1.8391  0.2830
 7954TIP3    H223827   2.972   5.997   3.365  0.4180  0.2562 -0.0605
 7955TIP3   OH223828   5.488   5.861   2.680 -0.6132  0.3401  0.1774
 7955TIP3    H123829   5.439   5.935   2.645 -0.7382 -0.2371 -0.8802
 7955TIP3    H223830   5.460   5.786   2.629  0.2343 -0.2805  0.5852
 7956TIP3   OH223831   1.354   4.219   5.832 -0.1764  0.4227 -0.1656
 7956TIP3    H123832   1.387   4.272   5.760 -0.7485  0.4159 -0.4380
 7956TIP3    H223833   1.269   4.187   5.801 -0.8416  1.1434  0.8577
 7957TIP3   OH223834   5.487   1.865   5.139  0.3329 -0.1132 -0.7084
 7957TIP3    H123835   5.409   1.886   5.191  0.3727  2.1271 -1.4530
 7957TIP3    H223836   5.549   1.934   5.161  1.1777 -0.4357 -2.0129
 7958TIP3   OH223837   6.488   0.909   4.269  0.0788 -0.1564 -0.1461
 7958TIP3    H123838   6.557   0.852   4.234  1.5381  1.3119  0.1968
 7958TIP3    H223839   6.465   0.869   4.353  2.5763  0.7648  1.0955
 7959TIP3   OH223840   1.048   4.564   0.890  0.4253  0.3459 -0.1478
 7959TIP3    H123841   1.035   4.537   0.799  0.7447 -0.1130 -0.0653
 7959TIP3    H223842   1.008   4.650   0.896 -0.1871  0.0972 -0.5561
 7960TIP3   OH223843   1.008   1.452   1.952  0.0039 -0.5882 -0.2386
 7960TIP3    H123844   1.066   1.431   2.025 -2.0216  0.2043  1.7052
 7960TIP3    H223845   1.023   1.545   1.935 -0.2918 -0.5174 -0.1127
 7961TIP3   OH223846   3.719   4.893   0.351  0.2625 -0.1454  0.0337
 7961TIP3    H123847   3.727   4.819   0.291  2.1779 -0.4746  0.6328
 7961TIP3    H223848   3.790   4.881   0.414 -1.7384  0.1193  2.4866
 7962TIP3   OH223849   5.422   3.454   5.649 -0.0443  0.3791 -0.4190
 7962TIP3    H123850   5.433   3.516   5.578 -1.1666 -1.1144 -1.9766
 7962TIP3    H223851   5.401   3.371   5.606  1.8935 -1.2627  1.5339
 7963TIP3   OH223852   4.555   2.248   1.887 -0.0473 -0.2328  0.2229
 7963TIP3    H123853   4.529   2.184   1.820  2.7720 -0.9726 -0.2825
 7963TIP3    H223854   4.573   2.328   1.837 -3.1370  0.9557  0.8052
 7964TIP3   OH223855   5.936   2.574   3.143 -0.1236 -0.3268  0.2299
 7964TIP3    H123856   5.901   2.583   3.232 -1.0961  0.3714 -0.2004
 7964TIP3    H223857   5.958   2.663   3.117 -1.8303 -0.1937 -0.9787
 7965TIP3   OH223858   3.510   3.371   5.724 -0.1630  0.0142 -0.4061
 7965TIP3    H123859   3.471   3.362   5.637 -2.3893  0.8328  0.4206
 7965TIP3    H223860   3.547   3.459   5.725 -0.0855 -0.0175 -0.5607
 7966TIP3   OH223861   1.609   0.726   5.047  0.1871  1.0295 -0.0594
 7966TIP3    H123862   1.673   0.712   5.116  0.3205 -1.6443 -0.6293
 7966TIP3    H223863   1.658   0.769   4.977  1.6375 -1.5404 -0.7422
 7967TIP3   OH223864   5.746   4.095   5.626  0.1515 -0.0496 -0.1936
 7967TIP3    H123865   5.704   4.129   5.705  1.2749 -0.3463  0.5558
 7967TIP3    H223866   5.732   4.163   5.560 -3.1090 -0.9323 -0.5582
 7968TIP3   OH223867   1.617   3.211   2.888 -1.2575 -0.2154  0.0427
 7968TIP3    H123868   1.596   3.207   2.981 -3.2682 -1.3101 -0.3918
 7968TIP3    H223869   1.643   3.302   2.873  0.0155 -0.2332  1.8085
 7969TIP3   OH223870   2.706   0.579   2.883 -0.2171  0.0820 -0.2153
 7969TIP3    H123871   2.721   0.511   2.818  1.8708 -0.0299  0.3055
 7969TIP3    H223872   2.669   0.532   2.958  3.4103 -1.0717  1.0564
 7970TIP3   OH223873   1.493   3.495   5.381 -0.1674 -0.0002 -0.1559
 7970TIP3    H123874   1.575   3.468   5.340  0.1544  1.0766 -0.2547
 7970TIP3    H223875   1.467   3.573   5.333 -0.0552  0.9935  1.3068
 7971TIP3   OH223876   3.510   2.111   5.581 -0.0207  0.2258 -0.2611
 7971TIP3    H123877   3.430   2.084   5.537 -1.0901  1.2345  0.9725
 7971TIP3    H223878   3.488   2.195   5.622  2.3265  1.6326 -1.6612
 7972TIP3   OH223879   7.050   5.271   0.429  0.6533  0.1920 -0.6041
 7972TIP3    H123880   7.010   5.228   0.505  2.2302  0.8761  0.6744
 7972TIP3    H223881   6.986   5.337   0.402  0.5062  0.6885  0.8491
 7973TIP3   OH223882   3.666   2.521   5.168  0.0900 -0.3195 -0.1591
 7973TIP3    H123883   3.572   2.534   5.183  0.1579 -0.9738  0.9351
 7973TIP3    H223884   3.686   2.575   5.092 -0.7294  1.4857  0.8544
 7974TIP3   OH223885   6.091   6.628   2.531  0.2027  0.2804  0.5467
 7974TIP3    H123886   6.092   6.643   2.436  0.2969 -1.8318  0.1542
 7974TIP3    H223887   6.164   6.567   2.546 -1.1719 -1.1894  1.6042
 7975TIP3   OH223888   1.381   0.973   3.878 -0.3725  0.1927 -0.0513
 7975TIP3    H123889   1.404   0.880   3.885 -0.4208  0.1829 -0.0194
 7975TIP3    H223890   1.427   1.015   3.951 -0.9603  0.0749  0.4033
 7976TIP3   OH223891   3.159   5.691   0.250  0.7578 -0.3916 -0.3222
 7976TIP3    H123892   3.126   5.729   0.331  1.0437 -0.7769 -0.0210
 7976TIP3    H223893   3.203   5.763   0.205 -0.0999  0.0226 -0.5208
 7977TIP3   OH223894   0.026   5.228   4.247  0.5674 -0.1579  0.2517
 7977TIP3    H123895   0.071   5.293   4.193 -0.3048  0.4679  0.2438
 7977TIP3    H223896   0.095   5.190   4.301  1.4473 -0.7533 -1.2337
 7978TIP3   OH223897   3.461   3.073   0.275 -0.5358 -0.0676  0.2202
 7978TIP3    H123898   3.487   3.149   0.326  0.1410 -0.1366 -0.0113
 7978TIP3    H223899   3.384   3.039   0.320  0.2842 -0.3805  1.4644
 7979TIP3   OH223900   2.839   5.325   5.334 -0.2231 -0.3249 -0.1828
 7979TIP3    H123901   2.751   5.348   5.306 -0.9063 -0.9343  1.3862
 7979TIP3    H223902   2.872   5.267   5.265 -0.2333  1.4979 -1.8142
 7980TIP3   OH223903   4.944   3.738   3.772 -0.2181 -0.1186 -0.4589
 7980TIP3    H123904   4.849   3.732   3.761 -0.4743  0.9435  0.9670
 7980TIP3    H223905   4.966   3.825   3.737 -0.3212  1.1187  2.3140
 7981TIP3   OH223906   4.662   0.047   1.097  0.3919 -0.4271 -0.0722
 7981TIP3    H123907   4.575   0.028   1.131  0.3388  0.1067  0.1055
 7981TIP3    H223908   4.682  -0.027   1.039 -0.5456 -0.1382 -0.7936
 7982TIP3   OH223909   0.032   3.476   2.904 -0.3261 -0.1087  0.0528
 7982TIP3    H123910   0.085   3.550   2.873  1.5239 -1.1160  0.6684
 7982TIP3    H223911   0.048   3.407   2.840  0.5630 -1.0044  1.2251
 7983TIP3   OH223912   0.170   3.120   5.092  0.1902  0.1343  0.1373
 7983TIP3    H123913   0.132   3.111   5.005 -0.6323  0.2763  0.4640
 7983TIP3    H223914   0.242   3.181   5.082 -0.5823  0.9992 -0.2504
 7984TIP3   OH223915   3.909   2.161   5.230  0.2005 -0.0854  0.1928
 7984TIP3    H123916   3.933   2.069   5.247  1.0860 -0.0535 -0.8067
 7984TIP3    H223917   3.822   2.170   5.268  0.8736 -0.8109  2.0385
 7985TIP3   OH223918   0.080   3.914   0.104 -0.6899 -0.6502 -0.1203
 7985TIP3    H123919  -0.016   3.915   0.104 -0.6930 -0.6991  0.1744
 7985TIP3    H223920   0.103   3.887   0.193 -0.3820  1.8385  0.6329
 7986TIP3   OH223921   4.261   1.049   5.537  0.8763  0.0982  0.0935
 7986TIP3    H123922   4.198   1.099   5.590  1.1649 -0.4103  0.9452
 7986TIP3    H223923   4.238   1.069   5.447 -1.0117 -0.6618  0.3618
 7987TIP3   OH223924   0.295   5.520   0.629 -0.5755 -0.0439  0.7374
 7987TIP3    H123925   0.327   5.434   0.658  0.4877  0.4975  1.2447
 7987TIP3    H223926   0.210   5.502   0.588 -0.1228 -1.4080  0.3359
 7988TIP3   OH223927   3.080   1.051   2.368 -0.1477  0.3139  0.2060
 7988TIP3    H123928   3.100   0.975   2.423 -0.3546 -0.8234 -1.2404
 7988TIP3    H223929   3.013   1.099   2.417  1.3504  0.6305  2.0388
 7989TIP3   OH223930   6.794   2.214   2.219 -0.3057 -0.6796  0.7218
 7989TIP3    H123931   6.747   2.269   2.156 -1.6612 -1.8056  0.7021
 7989TIP3    H223932   6.875   2.190   2.175 -1.7759 -2.4847 -1.1596
 7990TIP3   OH223933   7.129   6.101   4.964  0.4745  0.0569  0.6526
 7990TIP3    H123934   7.183   6.023   4.971  0.1009 -0.1076  1.8029
 7990TIP3    H223935   7.175   6.157   4.901  1.5809 -0.3989  1.0492
 7991TIP3   OH223936   5.425   4.900   5.168  0.5188 -0.1005 -0.1691
 7991TIP3    H123937   5.495   4.863   5.222 -1.0036 -1.3831  1.0140
 7991TIP3    H223938   5.471   4.952   5.102  2.5436 -0.3163  0.9857
 7992TIP3   OH223939   6.755   3.117   4.362  0.4839  0.5808 -0.3089
 7992TIP3    H123940   6.831   3.166   4.391  1.6104 -1.9163  1.2929
 7992TIP3    H223941   6.703   3.104   4.441 -0.0847 -0.2781 -0.8041
 7993TIP3   OH223942   0.765   5.272   2.749  0.5713  0.2450  0.2388
 7993TIP3    H123943   0.673   5.299   2.748  0.6533  0.5542  0.7599
 7993TIP3    H223944   0.764   5.185   2.788  0.2887 -0.6353 -1.5913
 7994TIP3   OH223945   4.564   6.766   2.090 -0.5310 -0.5574 -0.3261
 7994TIP3    H123946   4.632   6.717   2.135 -1.1047 -2.0103 -0.9742
 7994TIP3    H223947   4.484   6.715   2.103 -1.1766  0.2614 -0.9322
 7995TIP3   OH223948   4.897   5.174   2.940  0.3734  0.7498 -0.2873
 7995TIP3    H123949   4.981   5.141   2.971  1.0430  2.1724 -0.4874
 7995TIP3    H223950   4.907   5.270   2.943 -0.9852  0.9338 -1.0054
 7996TIP3   OH223951   1.595   0.436   4.038  0.0442 -0.0973 -0.5527
 7996TIP3    H123952   1.604   0.342   4.052  0.2093  0.1571  1.3567
 7996TIP3    H223953   1.654   0.455   3.966 -0.6534 -1.5799 -1.5655
 7997TIP3   OH223954   6.906   3.976   5.160 -0.0622  0.5103 -0.4334
 7997TIP3    H123955   6.819   4.013   5.176 -0.2974  0.3497 -1.2917
 7997TIP3    H223956   6.915   3.906   5.225  0.1002  1.5687  0.7402
 7998TIP3   OH223957   0.434   5.985   0.380  0.1377 -0.1095  0.1915
 7998TIP3    H123958   0.483   6.011   0.459  0.4688  2.0065 -0.6512
 7998TIP3    H223959   0.395   5.901   0.403  1.6250 -0.3649  2.0070
 7999TIP3   OH223960   5.099   0.243   0.519  0.4245  0.2106  0.5739
 7999TIP3    H123961   5.150   0.309   0.565  0.5638  1.1479 -0.8874
 7999TIP3    H223962   5.164   0.184   0.480  0.3202 -0.1370  0.9145
 8000TIP3   OH223963   0.474   2.714   4.698 -0.3027  0.2286  0.0941
 8000TIP3    H123964   0.443   2.756   4.778  0.1121  1.3637 -0.3235
 8000TIP3    H223965   0.412   2.740   4.630 -0.6202 -0.6797  0.0218
 8001TIP3   OH223966   1.317   6.739   3.116 -0.7006 -0.7216  0.2670
 8001TIP3    H123967   1.293   6.678   3.186 -1.2118 -0.0556  0.6860
 8001TIP3    H223968   1.407   6.716   3.094  0.0064 -0.0450  2.1521
 8002TIP3   OH223969   5.463   2.155   2.167  0.1159 -0.3781  0.6126
 8002TIP3    H123970   5.462   2.175   2.073 -4.3493 -0.0453  0.5492
 8002TIP3    H223971   5.528   2.085   2.175  1.9133  0.7207 -2.3369
 8003TIP3   OH223972   5.764   0.864   3.215  0.7263  0.2340  0.5805
 8003TIP3    H123973   5.796   0.818   3.293  1.6316  0.0764  0.1293
 8003TIP3    H223974   5.782   0.956   3.233 -0.1827  0.3347  1.0614
 8004TIP3   OH223975   1.858   2.472   4.520  0.1323  0.4051  0.5261
 8004TIP3    H123976   1.940   2.505   4.483 -0.6482 -0.3741 -2.1859
 8004TIP3    H223977   1.796   2.475   4.446 -1.7233 -0.9196  1.9253
 8005TIP3   OH223978   2.781   1.890   0.892 -0.6610 -0.0287 -0.0013
 8005TIP3    H123979   2.854   1.862   0.837 -0.6438 -1.0202  0.5012
 8005TIP3    H223980   2.798   1.849   0.977 -1.3044  0.5092  0.3972
 8006TIP3   OH223981   4.140   6.579   1.105 -0.2505 -0.3042 -0.1154
 8006TIP3    H123982   4.104   6.551   1.021  0.7307 -1.2404 -0.2440
 8006TIP3    H223983   4.219   6.627   1.082 -2.1485  3.2483  0.0539
 8007TIP3   OH223984   0.679   1.225   2.123 -0.1277 -0.9883  0.1592
 8007TIP3    H123985   0.681   1.285   2.048  1.3623 -1.3530 -0.1240
 8007TIP3    H223986   0.609   1.259   2.179 -0.9000 -0.3877 -1.1242
 8008TIP3   OH223987   1.688   5.157   4.838 -0.0168 -0.8261  0.1585
 8008TIP3    H123988   1.777   5.153   4.873 -0.6592 -1.9697  1.7618
 8008TIP3    H223989   1.667   5.250   4.841  1.2551 -0.4766 -0.6571
 8009TIP3   OH223990   4.681   2.118   2.301 -0.2781 -0.2269 -0.0891
 8009TIP3    H123991   4.681   2.178   2.375 -0.3412 -0.1647 -0.1399
 8009TIP3    H223992   4.590   2.088   2.294 -0.7793  1.4963 -1.5517
 8010TIP3   OH223993   1.957   5.580   5.282 -0.0960 -0.0761 -0.1519
 8010TIP3    H123994   1.919   5.651   5.230  0.3580 -0.6454 -1.3123
 8010TIP3    H223995   1.995   5.521   5.217 -0.2340 -1.2502  0.7967
 8011TIP3   OH223996   3.937   0.096   0.983 -0.3197  0.3676 -0.0954
 8011TIP3    H123997   3.904   0.092   0.893 -0.7777  2.8769 -0.1167
 8011TIP3    H223998   3.858   0.099   1.037 -0.0546 -1.8252  0.5007
 8012TIP3   OH223999   6.378   1.068   1.919 -0.1195  0.2516  0.4895
 8012TIP3    H124000   6.305   1.100   1.971 -2.6476 -1.5412 -1.6680
 8012TIP3    H224001   6.415   0.996   1.970 -2.7107 -1.6554 -0.1620
 8013TIP3   OH224002   1.594   1.506   1.062 -0.4857  0.1588 -0.1068
 8013TIP3    H124003   1.499   1.509   1.053 -0.3786  0.9676 -1.2130
 8013TIP3    H224004   1.620   1.596   1.083  0.0627  0.0237 -0.1685
 8014TIP3   OH224005   1.313   3.589   3.519  0.0064  0.2949 -0.5684
 8014TIP3    H124006   1.271   3.673   3.498  1.2251  0.5202 -2.3226
 8014TIP3    H224007   1.406   3.609   3.518  0.2624 -0.7373  0.7439
 8015TIP3   OH224008   1.169   4.108   4.644 -0.4118  0.2568 -0.2783
 8015TIP3    H124009   1.175   4.045   4.572 -0.6109  1.2681 -1.2135
 8015TIP3    H224010   1.186   4.057   4.722  0.8876 -0.6793 -1.1316
 8016TIP3   OH224011   5.507   1.375   2.406 -0.4773 -0.4175 -0.7205
 8016TIP3    H124012   5.504   1.408   2.496 -0.1966 -0.7974 -0.5722
 8016TIP3    H224013   5.438   1.425   2.361  1.5515  2.2391 -1.1519
 8017TIP3   OH224014   0.838   2.826   4.658  0.5330 -0.0450  0.3505
 8017TIP3    H124015   0.774   2.774   4.609  0.9344 -1.5455  1.3620
 8017TIP3    H224016   0.914   2.831   4.601  1.1000 -2.0169  0.8802
 8018TIP3   OH224017   7.006   2.365   1.925 -0.0768  0.1886  0.1533
 8018TIP3    H124018   7.072   2.410   1.874  0.0896 -1.5858 -1.3034
 8018TIP3    H224019   6.973   2.431   1.986  1.4451  1.7040 -0.5956
 8019TIP3   OH224020   7.040   3.380   0.285 -0.2535 -0.0777  0.2609
 8019TIP3    H124021   7.106   3.346   0.225 -0.3966 -0.0073  0.0629
 8019TIP3    H224022   7.000   3.302   0.323  0.0999 -0.1206  0.5562
 8020TIP3   OH224023   7.011   3.121   4.172  0.2940  0.0289  0.0249
 8020TIP3    H124024   7.068   3.054   4.133 -0.3527  0.6917 -2.1860
 8020TIP3    H224025   6.932   3.119   4.119  0.0782  2.2520  0.1793
 8021TIP3   OH224026   1.540   0.460   2.381  0.2233 -0.5077  0.5740
 8021TIP3    H124027   1.622   0.424   2.347 -0.7366 -2.3076  0.0217
 8021TIP3    H224028   1.531   0.545   2.338  2.3283  0.2453  1.5247
 8022TIP3   OH224029   4.036   4.147   0.630 -0.5680  0.3312 -0.4866
 8022TIP3    H124030   4.098   4.086   0.591 -0.9417  0.1111 -0.7326
 8022TIP3    H224031   4.066   4.233   0.601 -2.2820  0.0624 -3.3813
 8023TIP3   OH224032   0.275   6.077   3.850 -0.9453  0.3948  0.0600
 8023TIP3    H124033   0.191   6.080   3.896 -0.8956 -0.3348  0.2080
 8023TIP3    H224034   0.268   6.002   3.791  0.7047 -1.7130  2.3304
 8024TIP3   OH224035   1.900   1.391   1.106 -0.1325  0.5256  0.6042
 8024TIP3    H124036   1.978   1.390   1.051  0.2549 -0.2815  1.1551
 8024TIP3    H224037   1.856   1.473   1.083 -0.1134  0.1016 -1.0850
 8025TIP3   OH224038   1.369   5.290   5.106 -0.2522 -0.2737 -0.4637
 8025TIP3    H124039   1.283   5.260   5.078 -0.8353 -0.6557  1.6030
 8025TIP3    H224040   1.393   5.232   5.178  1.3413  0.3984 -0.4084
 8026TIP3   OH224041   6.084   2.027   4.100 -0.4493 -0.2360 -0.0639
 8026TIP3    H124042   6.025   2.050   4.027 -1.0486 -0.5511  0.3139
 8026TIP3    H224043   6.035   1.963   4.151 -0.0632  0.0438  0.6696
 8027TIP3   OH224044   5.904   6.131   4.843 -0.8335  0.2850  0.4259
 8027TIP3    H124045   5.974   6.118   4.779 -1.3618 -0.0101 -0.1029
 8027TIP3    H224046   5.836   6.069   4.817 -0.5237 -0.8144  2.0810
 8028TIP3   OH224047   6.342   2.432   5.127  0.7551  0.4683  0.5102
 8028TIP3    H124048   6.300   2.444   5.042 -1.0620 -0.8958  1.1454
 8028TIP3    H224049   6.420   2.379   5.109 -0.7017 -1.5532 -0.1088
 8029TIP3   OH224050   5.297   6.239   1.703 -0.5964 -0.4689 -0.1989
 8029TIP3    H124051   5.254   6.154   1.701 -0.5724 -0.4809 -0.1959
 8029TIP3    H224052   5.336   6.248   1.616 -0.4043 -0.5610 -0.1243
 8030TIP3   OH224053   6.903   6.642   4.049  0.9379  0.7303 -0.3484
 8030TIP3    H124054   6.987   6.602   4.072  0.6359  0.4901  0.3778
 8030TIP3    H224055   6.868   6.588   3.978  0.0920 -0.9387  1.2393
 8031TIP3   OH224056   6.788   6.319   5.604 -0.3042 -0.2075 -0.7449
 8031TIP3    H124057   6.714   6.307   5.543 -0.8636  1.2083 -0.3784
 8031TIP3    H224058   6.866   6.303   5.550 -0.7736  1.3027 -1.9376
 8032TIP3   OH224059   6.868   2.190   0.147  0.2394  0.3252 -0.4171
 8032TIP3    H124060   6.824   2.271   0.122  0.0954  0.1825 -0.6417
 8032TIP3    H224061   6.961   2.208   0.136  0.1750  0.2306 -1.1932
 8033TIP3   OH224062   3.053   5.034   3.508  0.1505 -0.1796  0.2270
 8033TIP3    H124063   3.024   5.125   3.506 -0.7079 -0.4408 -1.8573
 8033TIP3    H224064   3.137   5.034   3.462 -0.2259 -0.5402 -0.4769
 8034TIP3   OH224065   5.919   6.065   3.643  0.3832  0.1260 -0.2746
 8034TIP3    H124066   5.989   6.043   3.582 -0.1045 -0.2290 -0.7141
 8034TIP3    H224067   5.865   5.986   3.649  0.1043  0.3423  0.1744
 8035TIP3   OH224068   6.248   2.100   1.143 -0.1451  0.1084  0.0334
 8035TIP3    H124069   6.292   2.069   1.064 -0.4367  0.8527 -0.4332
 8035TIP3    H224070   6.282   2.044   1.213  1.7692  0.8307 -0.2650
 8036TIP3   OH224071   1.593   1.288   4.281  0.1926 -0.0673  0.2247
 8036TIP3    H124072   1.614   1.197   4.300 -0.2223 -0.2551 -0.2177
 8036TIP3    H224073   1.548   1.286   4.197  1.8286  0.7330 -0.7263
 8037TIP3   OH224074   3.582   5.813   5.707  0.0697  0.0093  0.0689
 8037TIP3    H124075   3.535   5.775   5.782 -0.6112  1.8440  0.6380
 8037TIP3    H224076   3.674   5.814   5.734  0.1429 -1.3900 -0.0600
 8038TIP3   OH224077   2.674   6.170   5.228 -0.0517 -0.8611  0.2958
 8038TIP3    H124078   2.765   6.175   5.257  0.3239  0.7147 -1.0187
 8038TIP3    H224079   2.679   6.150   5.135 -1.0333 -0.4960  0.1496
 8039TIP3   OH224080   0.598   3.220   1.167  0.1164  0.0967 -0.2682
 8039TIP3    H124081   0.618   3.314   1.169 -0.8089  0.2885  0.5324
 8039TIP3    H224082   0.682   3.178   1.152  0.6083  1.0371 -0.2072
 8040TIP3   OH224083   6.464   2.794   1.541  0.4318  0.4574  0.1794
 8040TIP3    H124084   6.416   2.877   1.553 -1.6038 -0.4931 -0.7851
 8040TIP3    H224085   6.482   2.792   1.447 -1.8629 -1.3067 -0.3042
 8041TIP3   OH224086   7.134   3.741   4.892  0.4010 -0.0713 -0.1832
 8041TIP3    H124087   7.092   3.657   4.909  1.2842  0.0362  3.3463
 8041TIP3    H224088   7.204   3.746   4.957  1.4680  2.6718 -1.4045
 8042TIP3   OH224089   5.956   4.337   5.387 -0.5256 -0.4838  0.3904
 8042TIP3    H124090   5.869   4.317   5.420 -0.8204 -1.7730 -1.0905
 8042TIP3    H224091   5.949   4.427   5.355 -0.4422  0.5198  2.9644
 8043TIP3   OH224092   0.009   6.502   5.410 -0.2697 -0.4727 -0.1080
 8043TIP3    H124093   0.039   6.587   5.380  0.3196  0.1550  2.1330
 8043TIP3    H224094   0.088   6.455   5.435 -0.8094  0.3478  3.6733
 8044TIP3   OH224095   4.016   1.577   2.990  0.6246  0.0926 -0.2912
 8044TIP3    H124096   3.977   1.599   2.906 -1.4571 -0.0720  0.5692
 8044TIP3    H224097   3.973   1.636   3.053  1.0757 -0.7630  0.8561
 8045TIP3   OH224098   6.368   1.789   1.139 -0.0944  0.3698 -0.2455
 8045TIP3    H124099   6.380   1.730   1.214  0.6723 -1.4440 -1.7267
 8045TIP3    H224100   6.400   1.873   1.170  0.5456 -0.4171  1.3620
 8046TIP3   OH224101   0.744   2.348   3.132  0.1722 -0.2554  0.1890
 8046TIP3    H124102   0.728   2.362   3.039 -0.1913 -0.4101  0.2269
 8046TIP3    H224103   0.686   2.276   3.156 -1.1163  0.9918  0.9526
 8047TIP3   OH224104   4.833   1.138   2.675 -0.2755  0.0293 -0.4006
 8047TIP3    H124105   4.901   1.196   2.709  0.1159 -0.2721 -0.6619
 8047TIP3    H224106   4.754   1.163   2.723 -0.7038  2.4217 -2.1822
 8048TIP3   OH224107   2.724   0.342   1.638  0.1624  0.1576 -0.3752
 8048TIP3    H124108   2.733   0.428   1.680 -0.8695  1.0084 -1.7931
 8048TIP3    H224109   2.809   0.326   1.597  0.1917  0.7827 -0.5717
 8049TIP3   OH224110   4.439   0.605   5.561  0.1279  0.0296  0.2380
 8049TIP3    H124111   4.354   0.638   5.591  0.2485  2.0636 -1.4212
 8049TIP3    H224112   4.497   0.681   5.568  1.5611 -1.0266  0.2796
 8050TIP3   OH224113   3.061   3.717   1.278 -0.7027  0.1323  0.2340
 8050TIP3    H124114   3.079   3.659   1.352  0.3250 -0.4294 -0.4289
 8050TIP3    H224115   3.039   3.657   1.207  2.4919  0.3255 -1.0832
 8051TIP3   OH224116   2.871   0.719   2.673  0.7683 -0.1518 -0.0093
 8051TIP3    H124117   2.840   0.666   2.746 -1.4480  1.4754  0.3623
 8051TIP3    H224118   2.800   0.715   2.609  1.1356  1.2250 -0.5428
 8052TIP3   OH224119   4.947   2.027   3.641 -0.7208  0.8446  0.0534
 8052TIP3    H124120   4.890   2.004   3.568 -0.6384 -0.9144  0.5013
 8052TIP3    H224121   5.034   2.037   3.601 -0.0161 -3.1849  0.1987
 8053TIP3   OH224122   5.487   4.908   0.666  0.3095  0.3688  0.5202
 8053TIP3    H124123   5.422   4.978   0.661 -1.1395 -0.9966 -1.0176
 8053TIP3    H224124   5.438   4.832   0.698  0.8295 -0.9429 -1.5499
 8054TIP3   OH224125   5.465   0.237   4.428  0.0036 -0.3340  0.1249
 8054TIP3    H124126   5.427   0.292   4.359 -1.7944  0.0127  1.3150
 8054TIP3    H224127   5.415   0.259   4.507  2.4508 -0.2056  1.7418
 8055TIP3   OH224128   2.981   6.622   2.622  0.6702 -0.1736 -0.0219
 8055TIP3    H124129   2.892   6.595   2.599  0.7373 -2.0559  1.6444
 8055TIP3    H224130   3.023   6.542   2.653  2.9237  0.7034 -0.6411
 8056TIP3   OH224131   4.986   5.720   5.603  0.5316  0.5287  0.6967
 8056TIP3    H124132   4.923   5.670   5.655 -1.3532  1.7212 -0.3103
 8056TIP3    H224133   4.968   5.694   5.513  2.1360  0.2305  0.4363
 8057TIP3   OH224134   0.039   3.474   5.485  0.5631 -0.3068  0.1498
 8057TIP3    H124135   0.001   3.409   5.544 -0.2730  0.1804  0.1606
 8057TIP3    H224136   0.106   3.425   5.436 -0.2198 -1.2527 -0.0217
 8058TIP3   OH224137   0.041   1.805   2.411 -0.4925  0.3338 -0.0847
 8058TIP3    H124138  -0.012   1.758   2.476  0.3251 -0.1852  0.2192
 8058TIP3    H224139   0.090   1.737   2.366 -0.0851  0.8087 -0.3686
 8059TIP3   OH224140   7.059   2.657   0.612  0.0507 -0.4574 -0.3181
 8059TIP3    H124141   6.997   2.585   0.627 -2.9210  1.9073 -0.3114
 8059TIP3    H224142   7.098   2.672   0.698 -0.5792 -0.9822  0.0761
 8060TIP3   OH224143   5.303   4.062   2.787  0.1324 -0.1378  0.4868
 8060TIP3    H124144   5.353   4.007   2.848  0.6818  0.6148  0.7281
 8060TIP3    H224145   5.339   4.150   2.798 -2.2273  0.7621  1.7291
 8061TIP3   OH224146   5.402   5.726   1.436 -0.1871 -0.7105  0.2653
 8061TIP3    H124147   5.410   5.651   1.378 -2.0973 -1.2919  0.6975
 8061TIP3    H224148   5.486   5.772   1.427  0.4348 -2.0345 -1.1632
 8062TIP3   OH224149   1.930   1.220   1.893  0.1950  0.7360 -0.5002
 8062TIP3    H124150   1.962   1.256   1.977 -0.5080 -0.0876  0.1363
 8062TIP3    H224151   1.838   1.200   1.909  0.1001  0.4042 -1.4221
 8063TIP3   OH224152   5.559   5.711   0.304 -0.3867  0.0185  0.7116
 8063TIP3    H124153   5.499   5.647   0.267 -0.1950 -0.4068  1.1234
 8063TIP3    H224154   5.557   5.694   0.398 -0.8287  1.0505  0.8918
 8064TIP3   OH224155   0.515   3.319   3.944  0.1606  0.6642 -0.1167
 8064TIP3    H124156   0.509   3.256   4.016  3.4288  1.6581  1.2237
 8064TIP3    H224157   0.572   3.276   3.880 -1.0450  0.6262 -1.1973
 8065TIP3   OH224158   5.438   1.469   2.691 -0.1771  0.1422 -0.5658
 8065TIP3    H124159   5.525   1.461   2.731 -0.9323  0.6226  1.2862
 8065TIP3    H224160   5.416   1.562   2.700 -0.5664  0.1872 -1.7857
 8066TIP3   OH224161   2.983   4.040   4.604  0.3298 -0.8143 -0.1807
 8066TIP3    H124162   3.057   4.101   4.610 -0.1870 -0.1464 -0.5031
 8066TIP3    H224163   2.976   4.020   4.511 -0.4365 -0.1853 -0.2694
 8067TIP3   OH224164   1.569   0.127   2.519  0.1675  0.6194 -0.4389
 8067TIP3    H124165   1.583   0.040   2.557  0.7458  0.8215 -0.1731
 8067TIP3    H224166   1.582   0.187   2.593  2.1403  1.0834 -1.0962
 8068TIP3   OH224167   3.747   3.884   2.433  0.6826  0.7842 -0.4703
 8068TIP3    H124168   3.836   3.874   2.402  0.8578  0.5229  0.1007
 8068TIP3    H224169   3.754   3.936   2.513  0.1357  2.3578 -1.3968
 8069TIP3   OH224170   5.389   3.256   2.326 -0.0490 -0.2600 -0.1637
 8069TIP3    H124171   5.386   3.227   2.235  0.5533  0.1827 -0.3355
 8069TIP3    H224172   5.328   3.199   2.372  1.0276 -1.7390 -0.5063
 8070TIP3   OH224173   2.697   2.095   0.189 -0.1351  0.0045  0.1259
 8070TIP3    H124174   2.602   2.085   0.194 -0.2034 -0.0886 -1.0322
 8070TIP3    H224175   2.722   2.044   0.111  1.0868 -1.5062  1.4158
 8071TIP3   OH224176   1.760   1.451   2.168  0.1879  0.6016  0.4844
 8071TIP3    H124177   1.672   1.418   2.188  0.0903  0.1529 -0.6667
 8071TIP3    H224178   1.770   1.526   2.227 -1.5570  1.5815 -0.3732
 8072TIP3   OH224179   1.406   5.057   1.736  0.1971 -0.6492 -0.3702
 8072TIP3    H124180   1.433   5.141   1.771 -0.6750 -0.9351  1.0418
 8072TIP3    H224181   1.324   5.037   1.780  0.1079 -1.9874 -1.0817
 8073TIP3   OH224182   6.173   0.737   5.768 -0.0542  0.3503  0.4942
 8073TIP3    H124183   6.158   0.771   5.857  1.1353  1.0530  0.4453
 8073TIP3    H224184   6.086   0.735   5.729 -0.6780 -0.5193  1.8563
 8074TIP3   OH224185   2.288   3.706   0.886 -0.1925  0.4688 -0.0188
 8074TIP3    H124186   2.383   3.690   0.886 -0.1430  0.4594 -2.3493
 8074TIP3    H224187   2.250   3.621   0.906  0.2601  0.7182  2.1505
 8075TIP3   OH224188   2.837   4.291   0.685  0.4737 -0.2137 -0.2440
 8075TIP3    H124189   2.757   4.328   0.648 -0.0928  0.6092  1.6497
 8075TIP3    H224190   2.906   4.319   0.626 -0.4640  0.2610 -1.1514
 8076TIP3   OH224191   4.768   4.012   0.633  0.4284  0.5465  0.1420
 8076TIP3    H124192   4.744   4.013   0.540 -3.0426 -0.6849  0.8891
 8076TIP3    H224193   4.850   4.061   0.637  0.3431  1.2376 -3.4532
 8077TIP3   OH224194   5.644   1.651   5.101 -0.2879  0.4845  0.2023
 8077TIP3    H124195   5.588   1.729   5.104 -1.4243 -0.2866 -0.1615
 8077TIP3    H224196   5.592   1.583   5.144 -0.6725 -0.8515 -2.1761
 8078TIP3   OH224197   1.534   3.079   0.960 -0.0482  0.1125  0.5844
 8078TIP3    H124198   1.504   3.117   0.878  0.0896  0.8737  0.8859
 8078TIP3    H224199   1.585   3.002   0.933  2.8855  2.1623 -0.2848
 8079TIP3   OH224200   2.144   5.925   5.275  0.0807  0.3439  0.4079
 8079TIP3    H124201   2.155   5.830   5.281  3.3476  0.5699 -0.2471
 8079TIP3    H224202   2.206   5.952   5.207 -3.0724  2.6521 -1.8382
 8080TIP3   OH224203   0.728   4.582   0.195 -0.6288 -0.0148 -0.1322
 8080TIP3    H124204   0.798   4.563   0.257 -0.9081 -0.7019 -0.0230
 8080TIP3    H224205   0.768   4.568   0.109 -0.0473  1.5737 -0.1576
 8081TIP3   OH224206   2.705   3.866   5.080  0.4149 -0.0709  0.1943
 8081TIP3    H124207   2.633   3.842   5.138  0.6970 -0.1978  0.4881
 8081TIP3    H224208   2.763   3.790   5.079  0.5166  0.0072 -0.0894
 8082TIP3   OH224209   6.324   1.959   4.599  0.1174 -0.7634 -0.2687
 8082TIP3    H124210   6.336   1.873   4.639 -0.1127  0.4064  2.5312
 8082TIP3    H224211   6.399   2.010   4.628 -0.1202  0.2032 -1.2729
 8083TIP3   OH224212   2.100   2.505   5.823  0.0167  0.4004  0.1170
 8083TIP3    H124213   2.193   2.507   5.803 -0.0402  1.9844 -0.1285
 8083TIP3    H224214   2.057   2.531   5.742 -0.7444 -1.4343 -0.1227
 8084TIP3   OH224215   3.142   5.067   0.431  0.0961  0.1602 -0.0946
 8084TIP3    H124216   3.085   5.122   0.377  0.4054 -0.2583 -0.8733
 8084TIP3    H224217   3.210   5.126   0.462 -0.1697  0.4387 -0.0442
 8085TIP3   OH224218   0.904   3.453   4.613  0.3836  0.4359 -0.1880
 8085TIP3    H124219   0.956   3.474   4.535 -1.0044 -0.4198 -1.4002
 8085TIP3    H224220   0.839   3.523   4.618 -0.0449  0.0491 -0.2892
 8086TIP3   OH224221   3.777   0.538   1.626  0.1611 -0.6568  0.7386
 8086TIP3    H124222   3.820   0.513   1.708  0.9540 -0.2364  0.4556
 8086TIP3    H224223   3.838   0.509   1.558  0.2545  0.4109  0.3500
 8087TIP3   OH224224   1.876   2.130   0.540 -0.0896  0.2899  0.5170
 8087TIP3    H124225   1.880   2.226   0.531  0.1370  0.2203 -0.1547
 8087TIP3    H224226   1.964   2.105   0.569  0.1336  0.1954 -0.2261
 8088TIP3   OH224227   3.587   6.475   5.007  0.4860  0.2866  0.4200
 8088TIP3    H124228   3.528   6.547   5.027  0.5424  0.4029  0.1685
 8088TIP3    H224229   3.661   6.517   4.962  0.0803 -0.0478 -0.5910
 8089TIP3   OH224230   4.012   5.096   4.793  0.4905 -0.2068  0.2293
 8089TIP3    H124231   4.071   5.023   4.815  0.9964 -0.3589 -1.4587
 8089TIP3    H224232   4.071   5.171   4.782  0.4437 -0.3932 -1.6253
 8090TIP3   OH224233   1.855   0.825   3.790 -0.2004 -0.1576 -0.2273
 8090TIP3    H124234   1.884   0.815   3.880  0.4262  1.3310 -0.2370
 8090TIP3    H224235   1.928   0.868   3.746 -1.0285  0.3730 -1.1249
 8091TIP3   OH224236   4.723   1.840   4.513  0.1695  0.1292  0.7877
 8091TIP3    H124237   4.789   1.773   4.530  1.2342  1.0242  0.3261
 8091TIP3    H224238   4.684   1.858   4.598  1.1512  0.2137  1.2295
 8092TIP3   OH224239   3.628   1.590   5.145 -0.0543 -0.3071  0.1185
 8092TIP3    H124240   3.563   1.652   5.112  0.1990  0.3730  0.8612
 8092TIP3    H224241   3.577   1.513   5.170 -0.6029  0.2783  0.8383
 8093TIP3   OH224242   2.634   5.886   3.517  0.5886  0.0429  0.4392
 8093TIP3    H124243   2.599   5.799   3.501 -0.5263 -0.0478  2.8804
 8093TIP3    H224244   2.704   5.897   3.452  1.3923 -3.0305  0.6400
 8094TIP3   OH224245   2.007   4.701   1.237 -0.2442 -0.7124 -0.5540
 8094TIP3    H124246   2.093   4.738   1.215 -1.5168  1.8960 -1.6332
 8094TIP3    H224247   1.952   4.726   1.163 -1.5903 -3.9326 -0.8014
 8095TIP3   OH224248   6.831   4.770   1.073  0.2969  0.2530 -0.3693
 8095TIP3    H124249   6.885   4.774   0.994  0.3589 -2.3270 -0.5515
 8095TIP3    H224250   6.889   4.802   1.143  1.2273 -0.1116 -0.9451
 8096TIP3   OH224251   4.188   2.650   3.430  0.5830 -0.2163  0.0957
 8096TIP3    H124252   4.200   2.618   3.519  1.3445  0.4604  0.2448
 8096TIP3    H224253   4.245   2.595   3.376 -0.9823 -1.6065 -0.2095
 8097TIP3   OH224254   6.395   5.087   4.872 -0.0389 -0.4563 -0.3389
 8097TIP3    H124255   6.451   5.078   4.795  1.1532  0.1675  0.4372
 8097TIP3    H224256   6.409   5.005   4.921 -0.7785 -0.8426 -0.7517
 8098TIP3   OH224257   0.340   1.110   1.799  0.9490  0.6858  0.0273
 8098TIP3    H124258   0.427   1.073   1.783  0.2359 -0.2603 -1.9740
 8098TIP3    H224259   0.287   1.037   1.830 -0.1877  0.1485 -2.8965
 8099TIP3   OH224260   2.064   3.013   2.410  0.7676 -0.3467  0.0154
 8099TIP3    H124261   2.125   2.942   2.391 -0.7094 -1.2499 -1.6596
 8099TIP3    H224262   2.007   3.016   2.333 -2.3146 -0.6408  2.1324
 8100TIP3   OH224263   5.942   5.641   5.875 -0.0164 -0.1135 -0.7135
 8100TIP3    H124264   5.997   5.719   5.867  2.0061 -1.4589 -0.7426
 8100TIP3    H224265   5.892   5.639   5.793 -0.7117  1.5496 -0.3675
 8101TIP3   OH224266   0.450   6.271   1.598 -0.3779  0.0674  0.1372
 8101TIP3    H124267   0.526   6.256   1.541  0.7951  1.4088  1.2928
 8101TIP3    H224268   0.462   6.209   1.670 -1.2038 -0.7611 -0.4144
 8102TIP3   OH224269   5.659   6.484   5.383  0.3965  0.1156 -0.7412
 8102TIP3    H124270   5.705   6.406   5.352  0.3380 -0.2342  0.0177
 8102TIP3    H224271   5.720   6.556   5.368  1.3455 -0.3811  0.5109
 8103TIP3   OH224272   4.393   6.276   3.186  0.0948 -0.3406  0.6344
 8103TIP3    H124273   4.460   6.275   3.255  3.1254  2.0462 -1.9761
 8103TIP3    H224274   4.442   6.290   3.105 -3.5729  1.0840 -1.5840
 8104TIP3   OH224275   1.324   6.472   2.937  0.5419  0.0702  0.1367
 8104TIP3    H124276   1.353   6.408   3.001  0.0912  0.1126  0.3820
 8104TIP3    H224277   1.299   6.549   2.989  0.1840  0.1086 -0.0883
 8105TIP3   OH224278   1.700   3.140   5.558 -0.3005  0.1665  0.1233
 8105TIP3    H124279   1.701   3.149   5.462 -2.8567 -1.2887 -0.1155
 8105TIP3    H224280   1.769   3.201   5.588  1.0122  0.2052 -2.6275
 8106TIP3   OH224281   3.765   0.212   1.138 -0.5302 -0.1670 -0.3262
 8106TIP3    H124282   3.812   0.291   1.163 -0.4603 -0.1477 -0.5124
 8106TIP3    H224283   3.745   0.168   1.220 -0.3937 -0.0553 -0.2334
 8107TIP3   OH224284   4.678   2.753   5.028 -0.0457  0.5184  0.3419
 8107TIP3    H124285   4.738   2.827   5.018 -0.3521  0.5471 -1.7392
 8107TIP3    H224286   4.732   2.676   5.011 -0.2945  0.4677 -0.2601
 8108TIP3   OH224287   1.591   1.094   5.629 -0.1991  0.1211 -0.3749
 8108TIP3    H124288   1.666   1.154   5.623 -0.1357 -0.0078 -0.9117
 8108TIP3    H224289   1.594   1.062   5.719 -1.2464  2.2067  0.4846
 8109TIP3   OH224290   0.292   0.773   1.779  0.1262 -0.1330  0.0514
 8109TIP3    H124291   0.248   0.787   1.862 -3.0886 -1.0578 -1.3214
 8109TIP3    H224292   0.248   0.833   1.718  1.5450 -0.3428 -1.2474
 8110TIP3   OH224293   1.854   5.673   1.633  0.0868 -0.0801 -0.2761
 8110TIP3    H124294   1.906   5.707   1.559  0.8782  1.3239  0.8852
 8110TIP3    H224295   1.908   5.691   1.710 -0.0147 -2.9154  0.5546
 8111TIP3   OH224296   1.028   2.383   0.160 -0.5453 -0.1827  0.0017
 8111TIP3    H124297   0.966   2.365   0.231 -1.0094  0.1221 -0.3249
 8111TIP3    H224298   1.019   2.308   0.101  0.4816 -0.8869  0.6891
 8112TIP3   OH224299   2.257   5.283   1.478  0.0811  0.5571 -0.3803
 8112TIP3    H124300   2.336   5.232   1.460  0.3083  0.8890 -0.3246
 8112TIP3    H224301   2.186   5.218   1.479  0.2599  0.3462 -1.0655
 8113TIP3   OH224302   5.841   3.014   0.003  0.0012  0.4247 -0.4144
 8113TIP3    H124303   5.794   2.967   0.072  0.3117  0.4879 -0.1600
 8113TIP3    H224304   5.865   2.946  -0.060  1.2297  0.0958  0.3903
 8114TIP3   OH224305   4.454   3.148   3.943 -0.0350 -0.4465 -0.1322
 8114TIP3    H124306   4.368   3.168   3.981 -0.8795 -0.8164 -1.7835
 8114TIP3    H224307   4.450   3.184   3.855  1.6440 -0.2037 -0.1354
 8115TIP3   OH224308   1.802   0.242   1.277  0.6851  0.3329 -0.2090
 8115TIP3    H124309   1.878   0.212   1.228 -0.8461 -2.2148 -1.2356
 8115TIP3    H224310   1.749   0.290   1.213 -0.1361 -0.8367 -0.4311
 8116TIP3   OH224311   0.911   4.339   5.816 -0.0029 -0.0248  0.5320
 8116TIP3    H124312   0.833   4.284   5.806 -0.1410  0.5949 -2.6920
 8116TIP3    H224313   0.984   4.284   5.791  0.2153  0.3417  0.3496
 8117TIP3   OH224314   5.863   0.121   0.955  0.3419 -0.0688  0.0444
 8117TIP3    H124315   5.929   0.054   0.972  0.0366 -0.9439 -1.9514
 8117TIP3    H224316   5.806   0.118   1.033  0.4413 -2.0185  0.0907
 8118TIP3   OH224317   0.994   6.285   1.912  0.0144 -0.3041  0.0028
 8118TIP3    H124318   0.976   6.209   1.967 -2.5601 -0.1023 -0.3952
 8118TIP3    H224319   0.967   6.257   1.824  1.5116  0.2577 -0.6690
 8119TIP3   OH224320   1.618   2.432   5.733  1.0564 -0.6419 -0.0359
 8119TIP3    H124321   1.647   2.515   5.771  1.7950 -0.7258 -0.4071
 8119TIP3    H224322   1.652   2.365   5.792  1.0059 -0.7092 -0.0828
 8120TIP3   OH224323   6.686   4.495   1.945  0.5815 -0.1056  0.0979
 8120TIP3    H124324   6.667   4.434   1.873  0.3500 -0.8210  0.7504
 8120TIP3    H224325   6.659   4.448   2.023  1.2846  0.4752  0.6998
 8121TIP3   OH224326   1.934   2.396   1.468  0.2051 -0.1055 -0.3798
 8121TIP3    H124327   1.841   2.408   1.447 -0.0809  2.0027  1.6360
 8121TIP3    H224328   1.976   2.380   1.383 -1.8262 -0.0383 -1.4716
 8122TIP3   OH224329   3.514   4.989   1.821  0.8718  0.2660 -0.0708
 8122TIP3    H124330   3.596   4.982   1.772  1.3327  1.1741  0.5391
 8122TIP3    H224331   3.540   5.018   1.908 -0.0434 -0.1306  0.3492
 8123TIP3   OH224332   6.553   0.088   2.426  0.0247 -0.2386 -0.0810
 8123TIP3    H124333   6.557  -0.007   2.421 -1.1378 -0.2804 -0.6016
 8123TIP3    H224334   6.565   0.117   2.335  1.4489  0.1825  0.2137
 8124TIP3   OH224335   6.565   3.276   0.913  0.2919  0.0479 -0.1737
 8124TIP3    H124336   6.506   3.284   0.987 -0.1729  0.1033 -0.5496
 8124TIP3    H224337   6.547   3.352   0.858  1.2882  0.5120  0.1126
 8125TIP3   OH224338   6.473   1.025   0.002  0.1163 -0.6300  0.1848
 8125TIP3    H124339   6.413   1.052   0.071 -0.3229 -1.3521  0.0954
 8125TIP3    H224340   6.541   0.976   0.048  1.2523  1.1005  0.4296
 8126TIP3   OH224341   6.661   2.125   3.648 -0.0894  0.0452  0.0565
 8126TIP3    H124342   6.671   2.220   3.656 -0.1453  0.1194 -0.6998
 8126TIP3    H224343   6.712   2.090   3.721  0.3180  0.6388  0.0673
 8127TIP3   OH224344   1.818   4.927   4.702 -0.6256 -0.3017 -0.0115
 8127TIP3    H124345   1.763   5.005   4.706  0.2009  0.2491  0.9874
 8127TIP3    H224346   1.794   4.885   4.619 -4.6414 -1.6512  1.5443
 8128TIP3   OH224347   1.414   1.436   1.972  0.4746  0.2490  0.3333
 8128TIP3    H124348   1.432   1.413   2.063 -0.9544 -0.5321  0.4544
 8128TIP3    H224349   1.383   1.527   1.977 -1.6347 -0.4346  0.9621
 8129TIP3   OH224350   1.795   2.256   4.298  0.0200  0.1238  0.3631
 8129TIP3    H124351   1.754   2.342   4.303 -0.3369 -0.0718  1.0042
 8129TIP3    H224352   1.787   2.220   4.387 -0.0122 -0.6456  0.0622
 8130TIP3   OH224353   4.390   1.024   2.886  0.0884  0.4730  0.1551
 8130TIP3    H124354   4.438   0.946   2.913 -0.0602  0.4649  0.3996
 8130TIP3    H224355   4.301   1.009   2.918 -0.0526  0.5330 -0.2036
 8131TIP3   OH224356   4.556   4.478   2.430 -0.3634  0.2470 -0.4360
 8131TIP3    H124357   4.491   4.537   2.469  1.0967  1.0653  0.8815
 8131TIP3    H224358   4.613   4.453   2.504 -0.5854 -2.4033 -1.0584
 8132TIP3   OH224359   5.502   3.239   4.693 -0.0795  0.4025 -0.0718
 8132TIP3    H124360   5.461   3.153   4.695 -1.2863  0.9814  1.4831
 8132TIP3    H224361   5.504   3.262   4.600  0.2607 -1.2830 -0.5068
 8133TIP3   OH224362   6.629   6.081   3.885 -0.2141 -0.5487 -0.1630
 8133TIP3    H124363   6.603   6.142   3.816  0.5808  0.2022  0.2019
 8133TIP3    H224364   6.674   6.010   3.838 -0.8358 -0.7046 -0.5442
 8134TIP3   OH224365   0.226   2.723   1.277 -0.7249  0.2055 -0.1419
 8134TIP3    H124366   0.253   2.797   1.222  0.2179 -0.9238 -1.2451
 8134TIP3    H224367   0.209   2.652   1.216 -0.7523 -0.7660  0.9523
 8135TIP3   OH224368   5.706   4.903   0.100 -0.0139 -0.0606 -0.3595
 8135TIP3    H124369   5.791   4.918   0.142 -0.7138  0.3094  0.9738
 8135TIP3    H224370   5.657   4.984   0.115 -0.8647 -0.5463 -0.4587
 8136TIP3   OH224371   0.685   3.643   4.667 -0.1774  0.7020 -0.2038
 8136TIP3    H124372   0.622   3.574   4.689  1.3627 -0.4048  1.0251
 8136TIP3    H224373   0.690   3.697   4.746  1.2609  0.0557  0.1770
 8137TIP3   OH224374   0.498   0.592   1.367  0.0909 -0.3294  0.0110
 8137TIP3    H124375   0.435   0.584   1.295  0.3475  0.3882 -0.2998
 8137TIP3    H224376   0.557   0.518   1.354  0.9894  0.5820 -1.3894
 8138TIP3   OH224377   3.670   2.081   3.181 -0.5519  0.0007  0.0457
 8138TIP3    H124378   3.597   2.020   3.193 -1.4962  1.1071  0.0350
 8138TIP3    H224379   3.637   2.146   3.120  0.4458  0.5362  0.0624
 8139TIP3   OH224380   0.692   0.718   5.102  0.5028 -0.5946  0.3593
 8139TIP3    H124381   0.734   0.789   5.054  1.6652 -1.2896  0.3297
 8139TIP3    H224382   0.611   0.701   5.053  1.3022 -0.7839 -0.9379
 8140TIP3   OH224383   6.066   5.307   3.362  0.2739 -0.0779  0.4464
 8140TIP3    H124384   6.096   5.381   3.309  0.4972  0.2768  1.0633
 8140TIP3    H224385   6.020   5.346   3.435  0.7402 -0.5247  0.9936
 8141TIP3   OH224386   6.477   4.248   4.627  0.2529  0.0993  0.1329
 8141TIP3    H124387   6.536   4.320   4.650 -0.1558  0.6511 -0.5202
 8141TIP3    H224388   6.461   4.203   4.710  1.5795 -0.0602  0.3305
 8142TIP3   OH224389   6.082   4.574   4.292  0.1323  0.3746 -0.7466
 8142TIP3    H124390   6.063   4.616   4.376 -0.3516  1.0441 -1.1814
 8142TIP3    H224391   6.003   4.586   4.240  0.4945  0.1348 -1.3716
 8143TIP3   OH224392   6.671   3.178   4.085  0.4551  0.2662 -0.1589
 8143TIP3    H124393   6.735   3.130   4.032 -0.5736 -1.3471  0.0056
 8143TIP3    H224394   6.701   3.166   4.175  0.5922  0.5417 -0.1675
 8144TIP3   OH224395   3.532   1.541   3.589  0.2980  0.4103  0.0496
 8144TIP3    H124396   3.520   1.450   3.619 -0.6805  0.6726  0.5211
 8144TIP3    H224397   3.493   1.542   3.502 -1.1371  0.7167  0.6608
 8145TIP3   OH224398   3.433   5.834   2.679  0.2174 -0.7261 -0.2211
 8145TIP3    H124399   3.397   5.785   2.605 -0.3662 -0.3701 -0.1771
 8145TIP3    H224400   3.519   5.864   2.647  0.2626 -1.1431 -0.5073
 8146TIP3   OH224401   2.728   0.173   5.037 -0.7294  0.3744 -0.2539
 8146TIP3    H124402   2.638   0.140   5.036 -0.4596 -0.4904  1.1265
 8146TIP3    H224403   2.762   0.147   5.123  0.0600  2.8195  0.2613
 8147TIP3   OH224404   5.045   5.946   4.589  0.2293 -0.2333 -0.0952
 8147TIP3    H124405   4.979   6.001   4.547  0.8016  0.7488  0.2536
 8147TIP3    H224406   5.097   6.007   4.642  0.6255 -1.1757  0.6332
 8148TIP3   OH224407   1.644   0.036   0.959 -0.3540  0.9167  0.1574
 8148TIP3    H124408   1.653  -0.016   1.039 -1.1265  0.7937  0.1729
 8148TIP3    H224409   1.639   0.127   0.990 -1.1100  0.8362  0.2905
 8149TIP3   OH224410   3.409   2.527   4.082  0.4248 -0.3079 -0.2477
 8149TIP3    H124411   3.328   2.570   4.054  0.1266 -0.7280 -0.0344
 8149TIP3    H224412   3.479   2.584   4.050  0.0220  1.0633  1.2180
 8150TIP3   OH224413   2.233   6.125   3.105 -1.0699  0.4167 -0.2318
 8150TIP3    H124414   2.234   6.198   3.043  1.2923 -0.3604 -1.2265
 8150TIP3    H224415   2.179   6.059   3.063  1.4019 -0.5395 -2.1547
 8151TIP3   OH224416   5.440   1.966   0.859  0.2112 -0.3570 -0.2345
 8151TIP3    H124417   5.348   1.971   0.885  0.2733  0.5227 -0.1378
 8151TIP3    H224418   5.486   1.941   0.939  0.0119 -1.3089 -0.4040
 8152TIP3   OH224419   0.368   0.009   1.696  0.3084 -0.3141 -0.1267
 8152TIP3    H124420   0.340   0.100   1.693  1.8507  0.1882  0.1023
 8152TIP3    H224421   0.313  -0.030   1.765 -1.2127  0.1032 -1.0494
 8153TIP3   OH224422   1.711   2.196   4.869  0.4488  0.5292 -0.3024
 8153TIP3    H124423   1.798   2.186   4.831 -0.1898 -0.9042 -1.5114
 8153TIP3    H224424   1.676   2.276   4.829  0.3815 -0.1197 -1.5852
 8154TIP3   OH224425   1.111   5.472   2.528 -0.6583 -0.1530 -0.4783
 8154TIP3    H124426   1.202   5.453   2.551 -0.3933  0.9938 -0.5570
 8154TIP3    H224427   1.116   5.518   2.444 -1.2742  0.3563 -0.2451
 8155TIP3   OH224428   2.205   4.262   5.853 -0.5971  0.0837  0.5234
 8155TIP3    H124429   2.145   4.189   5.838  0.4235 -0.4400 -1.4069
 8155TIP3    H224430   2.148   4.338   5.866 -1.7686 -0.2729 -1.8866
 8156TIP3   OH224431   6.401   4.956   0.515 -0.0495  0.1526 -0.1135
 8156TIP3    H124432   6.376   4.885   0.574 -0.6993  1.2262  0.9599
 8156TIP3    H224433   6.326   4.967   0.457  0.7226 -1.1260 -1.4064
 8157TIP3   OH224434   3.584   1.901   0.362 -0.3210 -0.1378 -0.1964
 8157TIP3    H124435   3.582   1.991   0.395  0.2195  0.7083 -2.3031
 8157TIP3    H224436   3.495   1.868   0.378 -0.8361  1.1276 -0.2754
 8158TIP3   OH224437   3.945   2.274   5.608  0.1518  0.8760  0.3009
 8158TIP3    H124438   3.883   2.334   5.567 -0.4970 -0.2615 -0.4184
 8158TIP3    H224439   3.995   2.237   5.535 -0.0987 -0.1596  0.6433
 8159TIP3   OH224440   6.586   4.539   2.309 -0.0747 -0.4901  0.8552
 8159TIP3    H124441   6.554   4.491   2.385 -1.3513 -0.8497  0.1156
 8159TIP3    H224442   6.514   4.598   2.285 -0.2641 -1.3616 -0.8854
 8160TIP3   OH224443   0.167   0.630   5.647  0.0088 -0.1257  0.0534
 8160TIP3    H124444   0.192   0.539   5.636 -0.6029 -0.4186  0.9523
 8160TIP3    H224445   0.082   0.627   5.691 -0.6437  0.8621 -1.0760
 8161TIP3   OH224446   5.210   2.247   2.165 -0.4971  0.4709 -0.0567
 8161TIP3    H124447   5.162   2.174   2.203  0.0790 -0.3841 -0.9189
 8161TIP3    H224448   5.301   2.217   2.162 -0.3355  1.0092 -0.9010
 8162TIP3   OH224449   4.832   4.241   2.309  0.3374 -0.0610  0.2530
 8162TIP3    H124450   4.739   4.232   2.293  0.2434  0.3727  0.5357
 8162TIP3    H224451   4.867   4.285   2.232  0.3011 -0.1921  0.1628
 8163TIP3   OH224452   5.035   5.045   1.890  0.4374  0.0142  0.0556
 8163TIP3    H124453   5.121   5.087   1.886  0.7255 -0.4507  0.9766
 8163TIP3    H224454   5.055   4.951   1.892 -0.0694 -0.0872  0.5385
 8164TIP3   OH224455   6.942   3.120   0.348  0.0116 -0.0225 -0.1697
 8164TIP3    H124456   6.897   3.051   0.396 -0.7727  1.0579  0.6862
 8164TIP3    H224457   6.880   3.147   0.280  0.5229 -0.4945 -0.8467
 8165TIP3   OH224458   3.607   5.232   0.325 -0.0032 -0.3198 -0.2320
 8165TIP3    H124459   3.622   5.292   0.398 -1.6437  0.7523 -0.7272
 8165TIP3    H224460   3.694   5.197   0.304  0.5252 -0.5875  2.1432
 8166TIP3   OH224461   0.433   3.837   1.702  0.2267 -0.6289 -0.6704
 8166TIP3    H124462   0.462   3.914   1.751  1.1252 -1.2729 -0.1477
 8166TIP3    H224463   0.369   3.871   1.639 -1.2850  0.1775  1.1927
 8167TIP3   OH224464   3.437   2.643   4.401  0.0026 -0.5270  0.2685
 8167TIP3    H124465   3.358   2.639   4.348  0.5260  1.6572 -0.7618
 8167TIP3    H224466   3.405   2.656   4.491 -0.8104  0.2430 -0.1233
 8168TIP3   OH224467   5.349   4.420   3.392 -0.0969  0.6073  0.1196
 8168TIP3    H124468   5.300   4.477   3.451  0.4734  1.2853 -0.0583
 8168TIP3    H224469   5.298   4.339   3.390 -1.5653  1.4971 -0.5320
 8169TIP3   OH224470   5.018   0.837   2.869  1.3820  0.7770  0.1473
 8169TIP3    H124471   5.073   0.813   2.793 -2.2416 -2.6641 -1.7540
 8169TIP3    H224472   5.038   0.770   2.934 -0.5372 -0.6936 -0.6774
 8170TIP3   OH224473   7.018   0.106   1.413  0.0757 -0.0148 -0.0305
 8170TIP3    H124474   7.089   0.171   1.415  2.5757 -2.4970 -1.1730
 8170TIP3    H224475   7.051   0.034   1.467 -0.1530 -2.5039 -2.9623
 8171TIP3   OH224476   1.174   2.797   0.406 -0.4473 -0.0908 -0.5699
 8171TIP3    H124477   1.218   2.761   0.483  1.5691 -1.3161 -2.1833
 8171TIP3    H224478   1.123   2.723   0.371 -0.8351  0.2724 -0.7760
 8172TIP3   OH224479   2.299   1.878   5.203  0.0521 -0.7618 -0.2594
 8172TIP3    H124480   2.310   1.783   5.202 -1.5191 -1.0527  1.8220
 8172TIP3    H224481   2.310   1.902   5.295  1.3715  1.2459 -0.8745
 8173TIP3   OH224482   0.539   0.677   1.798  0.3506  0.1305  0.1480
 8173TIP3    H124483   0.526   0.584   1.776  1.8259 -0.6351  2.1920
 8173TIP3    H224484   0.453   0.717   1.787 -0.0216 -1.1153 -2.1961
 8174TIP3   OH224485   0.796   4.179   3.539 -0.0635  0.1017 -0.3141
 8174TIP3    H124486   0.833   4.092   3.553  1.2384  0.6433 -0.2445
 8174TIP3    H224487   0.731   4.189   3.610  1.2136 -0.0462  0.9165
 8175TIP3   OH224488   5.253   2.485   2.015  0.3991 -0.5614 -0.4452
 8175TIP3    H124489   5.234   2.402   2.059 -0.7116  0.0979  0.3901
 8175TIP3    H224490   5.167   2.526   2.004  1.0747  1.5481  1.3619
 8176TIP3   OH224491   2.559   4.419   0.333 -0.5298 -0.3848 -0.8831
 8176TIP3    H124492   2.590   4.336   0.370  0.8822  0.7203  0.5799
 8176TIP3    H224493   2.556   4.404   0.239 -0.1925 -2.0549 -0.6603
 8177TIP3   OH224494   5.691   5.103   4.737 -0.5559 -0.0480  0.5236
 8177TIP3    H124495   5.603   5.069   4.726  0.0846 -1.8007  0.5094
 8177TIP3    H224496   5.706   5.157   4.659 -0.7129 -1.8306 -0.7867
 8178TIP3   OH224497   5.521   2.952   0.150 -0.4451  0.6194  0.5267
 8178TIP3    H124498   5.432   2.957   0.187 -0.7027  1.4378 -0.1691
 8178TIP3    H224499   5.514   2.886   0.082 -0.2881  0.0234  1.0854
 8179TIP3   OH224500   2.256   2.164   0.393  0.1630 -0.2648  0.1265
 8179TIP3    H124501   2.244   2.257   0.412  2.2815  0.1166 -0.1365
 8179TIP3    H224502   2.195   2.119   0.451 -0.7421  1.2795  0.4125
 8180TIP3   OH224503   5.104   2.423   4.899 -0.3074  0.2148 -0.4482
 8180TIP3    H124504   5.089   2.352   4.961 -3.4490  1.3932  0.3345
 8180TIP3    H224505   5.134   2.380   4.820 -1.2263 -1.9015  0.2890
 8181TIP3   OH224506   1.736   6.740   4.405  0.1637  0.5517  0.1948
 8181TIP3    H124507   1.641   6.728   4.403  0.2398 -0.2447 -2.3536
 8181TIP3    H224508   1.771   6.652   4.412  0.7428  0.8204  0.7618
 8182TIP3   OH224509   7.063   6.644   1.746 -0.0040  0.0403 -0.6990
 8182TIP3    H124510   6.976   6.613   1.772 -0.0106 -0.0251 -0.8012
 8182TIP3    H224511   7.050   6.733   1.716  0.3062  0.9153  1.5161
 8183TIP3   OH224512   3.191   6.159   3.749 -0.0158 -0.1618 -0.0901
 8183TIP3    H124513   3.191   6.135   3.841  1.3195  0.0369 -0.0221
 8183TIP3    H224514   3.174   6.253   3.749 -0.4938 -0.2474 -0.0769
 8184TIP3   OH224515   0.483   0.943   1.194 -0.3283  0.3639 -0.3038
 8184TIP3    H124516   0.504   1.021   1.244  0.0230  0.1901 -0.1813
 8184TIP3    H224517   0.567   0.911   1.163 -0.2668 -1.0078  1.1777
 8185TIP3   OH224518   1.557   6.584   4.043  0.0575 -0.5662  0.5459
 8185TIP3    H124519   1.600   6.669   4.031  0.1570 -0.5668  0.8979
 8185TIP3    H224520   1.624   6.527   4.080  0.2871 -1.0972 -0.6523
 8186TIP3   OH224521   5.924   1.133   3.860  0.2205  0.0363  0.1860
 8186TIP3    H124522   5.936   1.060   3.800 -0.7405  0.9061 -1.1143
 8186TIP3    H224523   5.833   1.159   3.849  0.6607  1.7402  0.2427
 8187TIP3   OH224524   3.036   3.040   2.102  0.4617  0.3451 -0.1261
 8187TIP3    H124525   3.129   3.019   2.109  0.5424  0.3841 -0.9646
 8187TIP3    H224526   3.032   3.109   2.036 -0.3034 -0.7323 -1.2433
 8188TIP3   OH224527   5.744   1.741   2.374 -0.1416 -0.2413 -0.2011
 8188TIP3    H124528   5.799   1.700   2.441  0.3619 -2.6520 -1.9394
 8188TIP3    H224529   5.655   1.713   2.396 -0.1577  0.0809  0.1691
 8189TIP3   OH224530   6.730   1.697   1.041  0.2962  0.6428  0.3725
 8189TIP3    H124531   6.810   1.703   0.989  0.7727  0.8276  1.1223
 8189TIP3    H224532   6.716   1.602   1.051  1.7018  0.5855  2.1718
 8190TIP3   OH224533   0.555   1.782   3.745 -0.6692 -0.7205 -0.0214
 8190TIP3    H124534   0.499   1.712   3.711  1.4059 -1.1856 -2.8987
 8190TIP3    H224535   0.600   1.743   3.819 -1.8720 -1.3388  0.4081
 8191TIP3   OH224536   6.592   1.145   3.821 -0.0071 -0.1165 -0.0622
 8191TIP3    H124537   6.573   1.143   3.727  0.4941 -0.1406 -0.1660
 8191TIP3    H224538   6.539   1.074   3.858  0.4526 -0.6744 -0.4547
 8192TIP3   OH224539   6.282   4.755   3.001 -0.2582 -0.3518  0.0243
 8192TIP3    H124540   6.192   4.732   2.979 -0.3345  0.1815 -0.2171
 8192TIP3    H224541   6.320   4.673   3.033 -0.4233 -0.9076 -1.1776
 8193TIP3   OH224542   4.460   6.044   0.332 -0.3424  0.1834  0.5031
 8193TIP3    H124543   4.460   5.949   0.322  0.7728  0.3595 -1.8431
 8193TIP3    H224544   4.548   6.071   0.307 -0.8728  1.8938  0.3295
 8194TIP3   OH224545   4.036   0.593   5.095 -0.4165 -0.4366  0.0804
 8194TIP3    H124546   3.958   0.539   5.112  0.2276 -1.9722 -1.5019
 8194TIP3    H224547   4.083   0.594   5.178 -2.3508  1.0274  1.2652
 8195TIP3   OH224548   0.717   0.762   5.813 -0.3674  0.2422  0.2195
 8195TIP3    H124549   0.710   0.803   5.728  0.8203  0.1279  0.0553
 8195TIP3    H224550   0.776   0.687   5.799 -0.4874 -0.0197  1.0475
 8196TIP3   OH224551   0.457   1.503   3.372 -0.1315 -0.2154  0.8046
 8196TIP3    H124552   0.528   1.498   3.309 -0.7980  1.4963 -0.1210
 8196TIP3    H224553   0.389   1.445   3.337  0.6889 -1.7227  1.6061
 8197TIP3   OH224554   1.082   3.554   2.479 -0.3431 -0.0570 -0.1921
 8197TIP3    H124555   0.987   3.547   2.469 -0.5750  0.7318  1.1296
 8197TIP3    H224556   1.118   3.514   2.400 -1.7696 -0.4616 -0.6677
 8198TIP3   OH224557   5.819   3.842   2.573 -0.6630 -0.3425  0.7057
 8198TIP3    H124558   5.793   3.760   2.530  1.0748  0.1846 -1.5455
 8198TIP3    H224559   5.758   3.907   2.537  0.1068 -0.0923 -0.1875
 8199TIP3   OH224560   4.241   4.887   4.701 -0.2631  0.0540  0.1647
 8199TIP3    H124561   4.213   4.913   4.789  0.7796  0.7365  0.3055
 8199TIP3    H224562   4.159   4.874   4.653 -0.9499  3.8038  0.0090
 8200TIP3   OH224563   0.004   4.344   1.845 -0.2028  0.0449  0.0417
 8200TIP3    H124564  -0.006   4.426   1.893  1.1674  0.6969 -0.7397
 8200TIP3    H224565   0.048   4.368   1.764  0.2917 -1.4741 -0.1764
 8201TIP3   OH224566   2.531   2.131   1.270 -0.1366  0.0639  0.1471
 8201TIP3    H124567   2.484   2.115   1.351 -1.5933 -0.8013 -0.8236
 8201TIP3    H224568   2.491   2.211   1.234  1.0153  0.8808  0.6148
 8202TIP3   OH224569   1.512   4.589   0.932 -0.7286 -0.2860  0.2996
 8202TIP3    H124570   1.506   4.615   0.841 -0.9337 -1.8501 -0.1606
 8202TIP3    H224571   1.451   4.646   0.978  0.4529  1.5215 -0.2698
 8203TIP3   OH224572   2.100   6.583   4.699  0.6517  0.0163 -0.2803
 8203TIP3    H124573   2.137   6.663   4.664 -1.2179  1.1348  0.1694
 8203TIP3    H224574   2.163   6.555   4.766  2.9811 -0.7778 -2.6185
 8204TIP3   OH224575   0.910   4.456   3.586 -0.3406  0.1926 -0.2914
 8204TIP3    H124576   0.998   4.438   3.556 -0.7737 -1.5449 -0.6516
 8204TIP3    H224577   0.872   4.369   3.602 -2.4085  0.8355 -1.3969
 8205TIP3   OH224578   5.504   3.687   3.668 -0.2642  0.6547  0.3309
 8205TIP3    H124579   5.497   3.782   3.658 -0.8287  0.6670  0.8380
 8205TIP3    H224580   5.462   3.668   3.752 -1.7346 -0.2396 -0.5714
 8206TIP3   OH224581   0.917   4.620   4.128  0.2581  0.2497 -0.2763
 8206TIP3    H124582   0.904   4.588   4.217  0.8750 -2.1430 -0.9563
 8206TIP3    H224583   0.843   4.586   4.078  1.4076 -1.0273 -1.2234
 8207TIP3   OH224584   6.366   4.863   2.737  0.2471 -0.3830 -0.3474
 8207TIP3    H124585   6.381   4.949   2.777  0.9124 -0.5022 -0.3224
 8207TIP3    H224586   6.331   4.809   2.808 -0.4437 -0.0603 -0.4354
 8208TIP3   OH224587   0.189   3.059   5.377  0.6876 -0.0377  0.1454
 8208TIP3    H124588   0.267   3.003   5.385  1.1358  0.4492 -0.6239
 8208TIP3    H224589   0.183   3.077   5.283  0.3188  0.8793  0.3344
 8209TIP3   OH224590   6.599   6.245   0.446  0.2310  0.1302  0.1286
 8209TIP3    H124591   6.570   6.232   0.355 -0.6354  3.1344 -0.1432
 8209TIP3    H224592   6.518   6.247   0.497  0.7296 -1.8284  1.0851
 8210TIP3   OH224593   5.039   0.516   0.341 -0.0519 -0.8996 -0.5399
 8210TIP3    H124594   5.039   0.430   0.381 -3.5384 -0.0523  1.6633
 8210TIP3    H224595   5.091   0.571   0.400  1.0484 -1.1233 -1.2518
 8211TIP3   OH224596   1.188   6.387   4.688  0.6704 -0.2060 -0.0094
 8211TIP3    H124597   1.123   6.317   4.689  0.4771 -0.0325  1.2598
 8211TIP3    H224598   1.247   6.365   4.615  0.5474 -1.6205  0.2979
 8212TIP3   OH224599   5.840   6.686   2.684 -0.1855 -0.1014  0.4794
 8212TIP3    H124600   5.799   6.771   2.702  0.3930  0.1003  0.9031
 8212TIP3    H224601   5.926   6.709   2.648 -1.5908 -0.4586 -3.5442
 8213TIP3   OH224602   0.744   6.419   3.913  0.1735  0.6989  0.1998
 8213TIP3    H124603   0.785   6.338   3.945 -0.4884  0.6767  1.0466
 8213TIP3    H224604   0.809   6.487   3.928 -0.5265  0.8985  2.8168
 8214TIP3   OH224605   6.879   0.232   0.407  0.0159 -0.3602  0.5434
 8214TIP3    H124606   6.867   0.231   0.502 -1.2669 -0.8204  0.4001
 8214TIP3    H224607   6.808   0.177   0.373  0.2134  0.1132 -0.7082
 8215TIP3   OH224608   0.456   2.965   5.375 -0.4537 -0.3672 -0.5150
 8215TIP3    H124609   0.503   2.882   5.378  0.0553 -0.0652  0.2087
 8215TIP3    H224610   0.468   2.996   5.286 -1.0748 -1.3033 -0.9421
 8216TIP3   OH224611   6.451   2.751   5.861  0.0570  0.0498  0.2298
 8216TIP3    H124612   6.440   2.657   5.867  1.1705 -0.0693  0.6652
 8216TIP3    H224613   6.546   2.764   5.856 -0.0658  1.1613  0.4172
 8217TIP3   OH224614   5.181   5.554   2.543  0.2437 -0.0461  0.6695
 8217TIP3    H124615   5.242   5.557   2.617 -1.4286  0.1189  2.1111
 8217TIP3    H224616   5.170   5.646   2.518  0.3041 -0.0454  0.6445
 8218TIP3   OH224617   1.278   4.271   4.314 -0.0142 -0.7287 -0.2848
 8218TIP3    H124618   1.226   4.192   4.327 -2.3260  0.8813  1.1725
 8218TIP3    H224619   1.247   4.307   4.231 -0.4792 -0.3535  0.0391
 8219TIP3   OH224620   6.447   2.864   0.958  0.4275  0.4915  0.4117
 8219TIP3    H124621   6.504   2.920   1.012  0.6958  1.4686 -0.8560
 8219TIP3    H224622   6.468   2.775   0.986  0.4933  0.9658  1.9796
 8220TIP3   OH224623   0.261   0.264   3.759 -0.3028 -0.1887 -0.2230
 8220TIP3    H124624   0.274   0.178   3.799  1.8390 -1.2243 -2.8301
 8220TIP3    H224625   0.168   0.283   3.773 -0.7709 -2.7735  0.6971
 8221TIP3   OH224626   4.292   2.674   3.860 -0.1171 -0.6978  0.0905
 8221TIP3    H124627   4.251   2.697   3.777 -0.5757 -0.3848  0.3968
 8221TIP3    H224628   4.231   2.707   3.927  0.9328  0.3833  0.5683
 8222TIP3   OH224629   2.291   1.389   3.882 -0.2495  0.7444  0.5104
 8222TIP3    H124630   2.365   1.443   3.909  0.1788  0.9209 -0.9124
 8222TIP3    H224631   2.326   1.334   3.812 -1.3176  0.4108  0.2204
 8223TIP3   OH224632   1.755   3.931   3.856  0.5167 -0.1679  0.2882
 8223TIP3    H124633   1.821   3.883   3.805  0.7852  0.9754 -0.4808
 8223TIP3    H224634   1.695   3.863   3.888  0.7763 -1.0067 -0.9261
 8224TIP3   OH224635   6.922   4.089   2.358  0.5846 -0.1790 -0.5744
 8224TIP3    H124636   6.936   3.997   2.381  0.9068 -0.2930 -1.1878
 8224TIP3    H224637   6.944   4.093   2.265  1.6312  0.7354 -0.3037
 8225TIP3   OH224638   4.021   3.168   0.538 -0.2463  0.0145 -0.0899
 8225TIP3    H124639   4.085   3.183   0.608 -2.1564 -0.1444  1.8081
 8225TIP3    H224640   3.977   3.253   0.528 -1.3251 -0.4783  0.3420
 8226TIP3   OH224641   3.641   1.957   5.322  0.0914 -0.2732 -0.8055
 8226TIP3    H124642   3.689   1.933   5.401  1.7975  0.3796 -1.5916
 8226TIP3    H224643   3.635   2.052   5.325 -2.4460 -0.3885 -0.0502
 8227TIP3   OH224644   3.341   3.839   1.387 -0.0899  0.7310 -0.2533
 8227TIP3    H124645   3.258   3.789   1.387 -0.8053  1.8672 -1.2881
 8227TIP3    H224646   3.355   3.860   1.295 -0.3474  3.2773  0.2312
 8228TIP3   OH224647   4.130   0.060   0.186  0.2572  0.2420 -0.2453
 8228TIP3    H124648   4.122  -0.016   0.129  0.1682  0.1718 -0.1399
 8228TIP3    H224649   4.194   0.034   0.252  0.6651  0.4657 -0.5419
 8229TIP3   OH224650   6.943   4.361   1.612  0.3063 -0.0389 -0.9355
 8229TIP3    H124651   6.862   4.312   1.596 -0.8248  1.2672  0.4847
 8229TIP3    H224652   6.997   4.302   1.665 -0.4050 -0.3068 -0.5014
 8230TIP3   OH224653   3.806   1.272   4.886  0.1793 -0.1959 -0.3648
 8230TIP3    H124654   3.748   1.314   4.823 -2.1326 -0.3151  1.5632
 8230TIP3    H224655   3.775   1.182   4.891 -0.1460 -0.0199  1.4106
 8231TIP3   OH224656   3.553   6.101   3.408 -0.3067 -0.4974  0.8516
 8231TIP3    H124657   3.471   6.134   3.445  0.2417 -0.8094  2.4395
 8231TIP3    H224658   3.546   6.117   3.314 -1.7630  0.3747  1.0881
 8232TIP3   OH224659   1.154   2.690   2.401 -0.3161  0.0052  0.2654
 8232TIP3    H124660   1.234   2.662   2.445 -0.2202 -0.7964 -0.3836
 8232TIP3    H224661   1.125   2.767   2.449  0.8294  0.2887  0.5185
 8233TIP3   OH224662   0.290   3.460   3.563 -0.4530  0.1357  0.3750
 8233TIP3    H124663   0.296   3.462   3.659 -1.6984 -1.9142  0.5707
 8233TIP3    H224664   0.322   3.373   3.540  1.9188  1.3578 -1.3346
 8234TIP3   OH224665   2.592   0.951   5.407 -0.0988 -0.6381 -0.5947
 8234TIP3    H124666   2.649   0.954   5.484 -1.3476 -1.2494  0.3825
 8234TIP3    H224667   2.595   0.859   5.379 -1.8096 -1.0381  0.4273
 8235TIP3   OH224668   3.739   6.189   5.458 -0.1302  0.2049  0.0060
 8235TIP3    H124669   3.736   6.237   5.375 -0.0816 -1.2147 -0.8520
 8235TIP3    H224670   3.672   6.231   5.513 -0.0397  1.2772 -0.6693
 8236TIP3   OH224671   1.346   6.103   1.971  0.1424  0.1593  0.0214
 8236TIP3    H124672   1.369   6.171   1.908 -0.8651  1.1587  0.6994
 8236TIP3    H224673   1.397   6.125   2.049  1.0567 -0.8255 -0.2756
 8237TIP3   OH224674   5.003   3.559   2.404 -0.3274  0.3660 -0.3037
 8237TIP3    H124675   5.023   3.466   2.405 -2.2753 -0.1220  2.1795
 8237TIP3    H224676   4.915   3.564   2.367 -0.4660  1.1526  0.1128
 8238TIP3   OH224677   3.180   6.148   3.026  0.2589 -0.2590  0.1498
 8238TIP3    H124678   3.224   6.156   2.941  1.5959  1.7000  0.9854
 8238TIP3    H224679   3.188   6.055   3.047  0.8068 -0.5983 -1.3819
 8239TIP3   OH224680   6.966   2.054   5.364 -0.2226  0.2700 -0.2593
 8239TIP3    H124681   7.041   2.035   5.308  0.1035  1.0867 -0.1290
 8239TIP3    H224682   7.005   2.076   5.449 -0.6607 -0.1413  0.0529
 8240TIP3   OH224683   7.105   6.241   0.229 -0.5438 -0.5135  0.8481
 8240TIP3    H124684   7.199   6.220   0.231 -0.4717 -0.3629 -0.1181
 8240TIP3    H224685   7.084   6.243   0.135 -1.6459 -1.1232  1.0662
 8241TIP3   OH224686   0.249   2.942   0.326 -0.0683  0.0219  0.5269
 8241TIP3    H124687   0.163   2.983   0.339 -0.0545 -0.0125  0.7244
 8241TIP3    H224688   0.270   2.960   0.234 -0.6917 -0.7549  0.2221
 8242TIP3   OH224689   1.641   4.573   5.292 -0.0805 -0.5160 -0.2462
 8242TIP3    H124690   1.630   4.596   5.199 -1.0754 -0.2815 -0.0790
 8242TIP3    H224691   1.637   4.477   5.293  0.4844 -0.5474 -0.5062
 8243TIP3   OH224692   5.952   5.940   4.377 -0.3081  0.2216  0.5604
 8243TIP3    H124693   5.996   5.887   4.311  0.2013  0.8184  0.4165
 8243TIP3    H224694   5.967   6.031   4.351 -0.3484  0.4625  1.3278
 8244TIP3   OH224695   1.126   1.475   4.096  0.2850 -0.0565 -0.3621
 8244TIP3    H124696   1.066   1.412   4.056 -1.4331  1.5033 -0.3790
 8244TIP3    H224697   1.133   1.447   4.187  1.1268 -1.3939 -0.8235
 8245TIP3   OH224698   1.650   6.603   1.020  0.0971 -0.1786 -0.5434
 8245TIP3    H124699   1.736   6.646   1.020 -0.3426  1.2702 -5.3082
 8245TIP3    H224700   1.592   6.665   1.065  0.9894  0.1874  0.1421
 8246TIP3   OH224701   1.554   4.852   3.342 -0.2906  0.1399 -0.4177
 8246TIP3    H124702   1.570   4.936   3.387  1.6744 -0.0520 -0.6667
 8246TIP3    H224703   1.479   4.815   3.388  0.6196  0.6941  1.6967
 8247TIP3   OH224704   1.729   3.174   0.192 -0.1937  0.2996 -0.4606
 8247TIP3    H124705   1.733   3.179   0.097 -0.8049  2.0322 -0.4363
 8247TIP3    H224706   1.650   3.122   0.210  0.8676 -1.5276 -0.8640
 8248TIP3   OH224707   5.117   4.075   5.357 -0.7839  0.3176 -0.3932
 8248TIP3    H124708   5.059   4.132   5.307 -0.3694  0.9799 -0.1320
 8248TIP3    H224709   5.123   3.994   5.305 -2.1064  0.1515 -0.3094
 8249TIP3   OH224710   1.546   5.243   0.293 -0.7291 -0.3411  0.4026
 8249TIP3    H124711   1.581   5.291   0.368 -0.6037 -0.4748  0.4304
 8249TIP3    H224712   1.610   5.174   0.277 -0.7823 -0.3433  0.2035
 8250TIP3   OH224713   5.896   1.009   1.025  0.4192 -0.3546  0.0463
 8250TIP3    H124714   5.826   0.958   1.066  1.0616 -1.8449 -0.6181
 8250TIP3    H224715   5.977   0.974   1.064  1.0282 -1.5607 -2.0965
 8251TIP3   OH224716   1.400   2.719   4.515  0.4066 -0.8319 -0.0830
 8251TIP3    H124717   1.396   2.632   4.474  0.0516 -1.1905  0.6777
 8251TIP3    H224718   1.359   2.706   4.601 -0.8385  0.4002 -0.4723
 8252TIP3   OH224719   5.912   1.542   4.720  0.2758  0.5833  0.8382
 8252TIP3    H124720   5.909   1.599   4.797 -2.2143  3.1429 -0.9737
 8252TIP3    H224721   5.908   1.601   4.645 -1.2387 -1.9185 -1.2354
 8253TIP3   OH224722   4.842   1.278   4.616  0.6506  0.2304 -0.5227
 8253TIP3    H124723   4.770   1.269   4.553  0.4029  1.6743 -0.4746
 8253TIP3    H224724   4.852   1.373   4.628  1.3126  0.0054  0.9169
 8254TIP3   OH224725   4.592   5.582   3.555  0.5440 -0.2825 -0.2868
 8254TIP3    H124726   4.676   5.619   3.582  0.6167  0.0067 -0.8953
 8254TIP3    H224727   4.543   5.573   3.637  1.0676 -0.2050  0.0410
 8255TIP3   OH224728   0.026   5.380   3.882 -1.2039 -0.0086  0.6971
 8255TIP3    H124729   0.018   5.302   3.828 -2.2008 -0.1789  1.0672
 8255TIP3    H224730   0.115   5.376   3.918 -1.2256 -0.9322  0.6560
 8256TIP3   OH224731   2.422   1.067   0.887  0.7057 -0.2730 -0.6176
 8256TIP3    H124732   2.479   1.129   0.932  1.3150 -1.0233 -0.3325
 8256TIP3    H224733   2.366   1.030   0.956 -0.2061  0.5220 -0.9069
 8257TIP3   OH224734   6.885   3.832   5.493 -0.2361 -0.0529 -0.0701
 8257TIP3    H124735   6.952   3.786   5.443 -0.1931  0.6124 -0.6401
 8257TIP3    H224736   6.896   3.924   5.470 -1.7750  0.0138 -0.7055
 8258TIP3   OH224737   1.841   4.147   0.579  0.1098 -0.7157 -0.5257
 8258TIP3    H124738   1.779   4.077   0.599 -1.2492  0.4652 -0.4120
 8258TIP3    H224739   1.899   4.149   0.656 -0.7747 -0.7420  0.1647
 8259TIP3   OH224740   6.387   2.147   5.423 -0.8255 -0.4860  0.2376
 8259TIP3    H124741   6.415   2.101   5.501 -0.6779 -0.1745  0.3712
 8259TIP3    H224742   6.377   2.238   5.451  0.4370 -0.1337 -0.3948
 8260TIP3   OH224743   4.700   5.516   2.296  0.0974  0.2722 -0.1947
 8260TIP3    H124744   4.774   5.573   2.275  2.4311 -1.6866  2.0474
 8260TIP3    H224745   4.713   5.439   2.240 -0.2467 -0.0879  0.2174
 8261TIP3   OH224746   4.092   5.340   0.946  0.0343  0.1000  0.4229
 8261TIP3    H124747   4.107   5.252   0.912 -1.3140  0.9632 -2.8005
 8261TIP3    H224748   4.152   5.348   1.020 -0.1482 -3.6396  1.1788
 8262TIP3   OH224749   4.375   0.761   5.316 -0.2417  0.6266 -0.0705
 8262TIP3    H124750   4.353   0.783   5.225 -1.9569  0.7514  0.3470
 8262TIP3    H224751   4.321   0.685   5.336  2.2655 -1.2608 -0.0322
 8263TIP3   OH224752   6.639   0.745   4.048  0.4308  0.3576 -0.0589
 8263TIP3    H124753   6.684   0.692   4.115 -0.2615 -0.7162 -0.4112
 8263TIP3    H224754   6.706   0.760   3.981  0.9987  1.0393  0.6410
 8264TIP3   OH224755   3.579   4.506   3.087  0.0627 -0.5685  0.6351
 8264TIP3    H124756   3.653   4.450   3.065 -0.0569 -0.4003 -0.2258
 8264TIP3    H224757   3.542   4.532   3.002  0.8752  1.8327  0.9467
 8265TIP3   OH224758   3.440   4.809   0.499  0.2084  0.0008  0.6464
 8265TIP3    H124759   3.388   4.886   0.520  1.1414  0.1964  2.4566
 8265TIP3    H224760   3.511   4.841   0.444  0.0273  0.2404  0.5514
 8266TIP3   OH224761   3.124   5.677   3.425  0.3586  0.0838 -0.1548
 8266TIP3    H124762   3.180   5.710   3.495 -0.9609 -0.4322  1.1928
 8266TIP3    H224763   3.089   5.756   3.383 -1.8273  0.5514  2.2706
 8267TIP3   OH224764   0.289   6.379   4.968 -0.2132  0.0407  0.1353
 8267TIP3    H124765   0.234   6.359   5.044  0.1431  0.5826  0.5478
 8267TIP3    H224766   0.373   6.337   4.988 -0.3516 -0.4514 -0.3105
 8268TIP3   OH224767   4.596   0.582   4.277 -0.4968 -0.0350 -0.4099
 8268TIP3    H124768   4.578   0.498   4.318 -0.9239 -0.4704 -1.4455
 8268TIP3    H224769   4.511   0.624   4.268 -0.5140 -0.2535 -1.4469
 8269TIP3   OH224770   0.453   4.313   1.829  0.0341  0.2128 -0.1673
 8269TIP3    H124771   0.444   4.306   1.734  1.7914 -2.4058 -0.2299
 8269TIP3    H224772   0.456   4.408   1.845  0.3274  0.7345 -2.7860
 8270TIP3   OH224773   1.962   4.518   1.649 -0.4409 -0.0120  0.1602
 8270TIP3    H124774   1.918   4.520   1.735  0.0262  0.7898  0.3940
 8270TIP3    H224775   1.921   4.589   1.600  0.8682  1.0432  0.5342
 8271TIP3   OH224776   2.096   0.238   3.073 -0.1424 -0.1933  0.1367
 8271TIP3    H124777   2.077   0.173   3.141 -0.5109 -0.7748 -0.5017
 8271TIP3    H224778   2.192   0.244   3.073 -0.1311 -0.2910  0.6040
 8272TIP3   OH224779   2.897   4.081   1.357  0.0137  0.0327  0.2358
 8272TIP3    H124780   2.958   4.062   1.428  0.3549  0.0113 -0.0626
 8272TIP3    H224781   2.879   3.995   1.318  0.0447  0.0802  0.1187
 8273TIP3   OH224782   2.100   6.351   2.296  0.2776  0.5601 -0.4000
 8273TIP3    H124783   2.005   6.340   2.286  0.3926  1.2625 -2.8412
 8273TIP3    H224784   2.135   6.336   2.208  2.4605  0.2258  0.4680
 8274TIP3   OH224785   2.336   5.303   5.670  0.4260  0.0245 -0.3630
 8274TIP3    H124786   2.245   5.333   5.668  0.1110 -0.9361 -0.8257
 8274TIP3    H224787   2.380   5.355   5.602  0.0834  0.0471 -0.5706
 8275TIP3   OH224788   4.825   1.603   1.516  0.0133  0.3517  0.0454
 8275TIP3    H124789   4.866   1.590   1.431 -1.3778  0.8613 -0.7291
 8275TIP3    H224790   4.731   1.590   1.500 -0.4220  1.8193  1.1858
 8276TIP3   OH224791   6.264   3.139   3.721  0.3062 -0.1119 -0.1200
 8276TIP3    H124792   6.245   3.061   3.669 -0.8248 -0.1564  0.3167
 8276TIP3    H224793   6.322   3.108   3.791 -0.2429 -0.6019  0.1262
 8277TIP3   OH224794   3.917   4.080   4.213 -0.9503 -0.1981 -0.3671
 8277TIP3    H124795   4.006   4.071   4.181 -1.9871 -1.6873 -3.1694
 8277TIP3    H224796   3.918   4.039   4.300  0.9404 -0.6471 -0.5651
 8278TIP3   OH224797   0.830   6.707   2.351 -0.1350 -0.1282  0.7692
 8278TIP3    H124798   0.864   6.748   2.271 -0.7361  1.0251  1.0836
 8278TIP3    H224799   0.851   6.614   2.341  2.2159  0.3803  0.5177
 8279TIP3   OH224800   6.622   0.397   5.234  0.2864 -0.2778  0.1553
 8279TIP3    H124801   6.658   0.439   5.312 -1.2612  0.7433  0.3766
 8279TIP3    H224802   6.689   0.407   5.167  0.8305  0.6122  0.8256
 8280TIP3   OH224803   6.029   3.985   0.495  0.6042  0.2693  0.0379
 8280TIP3    H124804   6.089   3.957   0.564  0.4573 -1.3312 -0.4626
 8280TIP3    H224805   6.070   3.955   0.414  0.2203  1.1548 -0.4980
 8281TIP3   OH224806   3.325   0.621   3.935 -0.3090  0.3689  0.1783
 8281TIP3    H124807   3.310   0.709   3.970  1.7588  0.8374 -0.0030
 8281TIP3    H224808   3.284   0.621   3.849 -0.2376  1.2063  0.1399
 8282TIP3   OH224809   4.161   5.099   0.835  0.9640 -0.0455 -0.4336
 8282TIP3    H124810   4.204   5.014   0.828 -0.5891 -0.8349 -0.7307
 8282TIP3    H224811   4.068   5.079   0.839  0.5865  1.6283 -0.0539
 8283TIP3   OH224812   7.099   4.410   5.356 -0.1783  0.1695  0.2856
 8283TIP3    H124813   7.170   4.435   5.296 -0.4503 -2.0166 -1.0765
 8283TIP3    H224814   7.045   4.488   5.363  0.9149  1.0651 -0.8341
 8284TIP3   OH224815   6.092   1.007   5.111  0.2042 -0.3127 -0.4869
 8284TIP3    H124816   6.057   1.031   5.024  0.8834  0.5823 -0.5240
 8284TIP3    H224817   6.031   1.047   5.173 -0.9533 -1.9331 -0.5142
 8285TIP3   OH224818   4.792   2.230   4.617 -0.0648  0.1426  0.0812
 8285TIP3    H124819   4.799   2.207   4.524 -1.8326  0.7102 -0.2262
 8285TIP3    H224820   4.811   2.324   4.619 -2.3731  0.6718 -0.1054
 8286TIP3   OH224821   2.920   2.014   0.590 -0.1323  0.3010 -0.3303
 8286TIP3    H124822   2.961   2.048   0.669 -0.2118 -0.4811  0.0554
 8286TIP3    H224823   2.826   2.024   0.605 -0.1483  0.1418 -0.3224
 8287TIP3   OH224824   0.398   2.733   1.811  0.0023 -0.0865 -0.5664
 8287TIP3    H124825   0.357   2.787   1.744  0.8044  0.0541 -0.9665
 8287TIP3    H224826   0.335   2.731   1.883 -0.8216 -0.1513 -1.2814
 8288TIP3   OH224827   3.662   4.912   2.789  0.2797 -0.3150 -0.2274
 8288TIP3    H124828   3.666   4.932   2.882  0.4741 -1.5403  0.0546
 8288TIP3    H224829   3.723   4.838   2.779 -1.6946 -1.9405 -0.8205
 8289TIP3   OH224830   4.903   0.502   0.087  0.3499 -0.1117 -0.3904
 8289TIP3    H124831   4.976   0.541   0.038  0.2710  0.7496  0.1427
 8289TIP3    H224832   4.939   0.489   0.175 -0.6052  1.8784  0.3451
 8290TIP3   OH224833   2.760   6.724   2.076 -0.4579  0.0240 -0.0753
 8290TIP3    H124834   2.832   6.766   2.124 -1.1736  2.7131 -1.1459
 8290TIP3    H224835   2.743   6.643   2.124  1.5308  0.5885  1.7478
 8291TIP3   OH224836   3.586   1.596   4.189 -0.1088  0.1709  0.1245
 8291TIP3    H124837   3.505   1.568   4.146  0.1091 -0.4588  0.1148
 8291TIP3    H224838   3.608   1.524   4.249 -1.7217  2.0354  3.1718
 8292TIP3   OH224839   0.949   5.447   1.953  0.0343  0.5706  0.2049
 8292TIP3    H124840   0.920   5.468   1.865 -0.8986  0.7882  0.5523
 8292TIP3    H224841   1.001   5.367   1.943 -1.2718 -0.2500 -0.3557
 8293TIP3   OH224842   2.963   1.469   3.686 -0.3827  0.8597  0.3883
 8293TIP3    H124843   2.886   1.515   3.719  0.1641  0.9350  1.6549
 8293TIP3    H224844   3.035   1.499   3.743  0.1887 -0.7075  0.5495
 8294TIP3   OH224845   7.143   5.838   4.815 -0.1889 -0.5477 -0.3953
 8294TIP3    H124846   7.192   5.822   4.734 -0.6973 -1.7243 -0.4889
 8294TIP3    H224847   7.051   5.836   4.789 -0.3341  0.2277  0.0239
 8295TIP3   OH224848   0.813   3.306   3.187 -0.1207  0.2191 -0.1139
 8295TIP3    H124849   0.816   3.241   3.117 -0.5236  1.5397 -1.4208
 8295TIP3    H224850   0.881   3.278   3.249  0.3867 -0.8836 -1.1276
 8296TIP3   OH224851   3.672   4.302   2.317 -0.3842 -0.8307  0.6277
 8296TIP3    H124852   3.606   4.308   2.248  1.0139 -0.8882 -0.7744
 8296TIP3    H224853   3.745   4.354   2.284 -0.3780  0.8339  2.9892
 8297TIP3   OH224854   0.995   6.506   5.552 -0.2202 -0.1125 -0.3923
 8297TIP3    H124855   1.017   6.416   5.574 -0.9216 -0.0866  0.4886
 8297TIP3    H224856   1.076   6.555   5.564 -0.1006 -0.4496  0.1799
 8298TIP3   OH224857   5.798   2.484   3.381 -0.2940  0.1067 -0.0942
 8298TIP3    H124858   5.763   2.465   3.468  1.0052  0.1093  0.4573
 8298TIP3    H224859   5.855   2.409   3.361 -0.5902  0.1012 -0.9515
 8299TIP3   OH224860   6.445   3.518   0.129 -0.7787  0.0508 -0.1424
 8299TIP3    H124861   6.478   3.607   0.114 -1.5866  0.5634  1.0086
 8299TIP3    H224862   6.497   3.486   0.203  0.3037 -0.8956 -1.2627
 8300TIP3   OH224863   4.848   0.873   4.212  0.2791 -0.1292  0.1306
 8300TIP3    H124864   4.876   0.823   4.288 -1.8510 -0.4159  0.7778
 8300TIP3    H224865   4.863   0.815   4.138  0.4705 -0.6207  0.5537
 8301TIP3   OH224866   1.083   5.323   1.326 -0.7624 -0.0040 -0.0093
 8301TIP3    H124867   1.015   5.286   1.270  0.0789  1.8209 -2.3966
 8301TIP3    H224868   1.165   5.303   1.281  0.2027 -0.5279  1.8544
 8302TIP3   OH224869   4.508   6.341   1.961  0.2864 -0.0823  0.4288
 8302TIP3    H124870   4.502   6.246   1.951  0.8939 -0.2698  1.6622
 8302TIP3    H224871   4.544   6.353   2.049  1.0248  1.2783 -0.0463
 8303TIP3   OH224872   4.418   0.273   4.095  0.6323 -0.3457  0.6626
 8303TIP3    H124873   4.481   0.201   4.101  0.4280 -0.4395  1.9319
 8303TIP3    H224874   4.333   0.229   4.081  0.6668 -0.2858  0.2548
 8304TIP3   OH224875   6.267   5.699   5.787  0.0700  0.4362  1.0915
 8304TIP3    H124876   6.258   5.696   5.692 -1.4467 -0.2539  1.2324
 8304TIP3    H224877   6.231   5.784   5.812  1.5277  1.1257  0.9892
 8305TIP3   OH224878   0.281   2.989   4.178 -0.4200  0.4103  0.0258
 8305TIP3    H124879   0.235   2.906   4.167  1.6998 -0.5613 -2.8581
 8305TIP3    H224880   0.242   3.047   4.113  1.3448 -0.0172 -1.5199
 8306TIP3   OH224881   3.254   4.453   4.464  0.1273  0.0039 -0.1295
 8306TIP3    H124882   3.347   4.445   4.486  0.2713  1.3219 -0.1964
 8306TIP3    H224883   3.229   4.539   4.498 -1.4865 -0.9694  1.3152
 8307TIP3   OH224884   2.335   2.238   5.788  0.3912 -0.2856  0.2859
 8307TIP3    H124885   2.339   2.334   5.788  1.3440 -0.3124  0.8806
 8307TIP3    H224886   2.356   2.214   5.698  0.3383  0.0621  0.1775
 8308TIP3   OH224887   3.934   1.728   3.208 -0.2026  0.1119 -0.1585
 8308TIP3    H124888   3.976   1.650   3.245 -0.2556  1.1989  2.4765
 8308TIP3    H224889   3.841   1.718   3.230 -0.8681 -0.7177 -3.0256
 8309TIP3   OH224890   3.214   5.964   2.780 -0.5496  0.0957 -0.8724
 8309TIP3    H124891   3.291   5.913   2.758  0.0803  0.8426 -0.4618
 8309TIP3    H224892   3.142   5.901   2.780  0.3356 -0.9631  0.4739
 8310TIP3   OH224893   7.236   5.885   2.759  0.1430 -0.2186  0.1899
 8310TIP3    H124894   7.210   5.831   2.684 -1.0912 -1.5361  1.5090
 8310TIP3    H224895   7.154   5.915   2.798  0.7893  2.1882 -0.1253
 8311TIP3   OH224896   2.070   1.464   1.649  0.0883  0.0853 -0.2011
 8311TIP3    H124897   1.984   1.426   1.631 -0.1755  0.3733  0.4127
 8311TIP3    H224898   2.057   1.515   1.729  1.1992 -1.1238  0.7910
 8312TIP3   OH224899   3.507   3.976   4.709  0.2346  0.1232  0.8382
 8312TIP3    H124900   3.511   4.018   4.794  1.0154 -1.5619  1.6937
 8312TIP3    H224901   3.546   3.890   4.723 -1.2451 -0.8962 -0.7960
 8313TIP3   OH224902   2.391   1.231   3.672 -0.4562  0.0894 -0.3942
 8313TIP3    H124903   2.416   1.240   3.580  1.3177 -1.6663 -0.1369
 8313TIP3    H224904   2.336   1.153   3.675  0.3403 -0.4643  0.1652
 8314TIP3   OH224905   2.742   6.232   1.825  0.2290  0.1392 -0.1249
 8314TIP3    H124906   2.758   6.246   1.731 -0.4459  0.7686 -0.1565
 8314TIP3    H224907   2.651   6.202   1.829  0.5811 -0.9129  0.2502
 8315TIP3   OH224908   2.098   6.498   4.165 -0.1678 -0.4471 -0.6863
 8315TIP3    H124909   2.079   6.563   4.097 -1.6965  0.1869  0.2673
 8315TIP3    H224910   2.110   6.550   4.244 -0.0065 -1.2485 -0.1748
 8316TIP3   OH224911   1.614   0.331   2.707  0.3347  0.3263  0.3958
 8316TIP3    H124912   1.528   0.317   2.746 -0.3601 -2.7035 -1.9065
 8316TIP3    H224913   1.613   0.423   2.680 -2.3960  0.2754  0.0222
 8317TIP3   OH224914   3.287   1.516   5.385  0.0025 -0.0603 -0.5057
 8317TIP3    H124915   3.284   1.422   5.403  1.0014 -0.1011 -0.4832
 8317TIP3    H224916   3.377   1.541   5.407  0.4005  0.4735 -2.5111
 8318TIP3   OH224917   7.111   1.531   1.757  0.4091 -0.6536  0.4398
 8318TIP3    H124918   7.056   1.483   1.695  1.8397  2.6147 -3.9044
 8318TIP3    H224919   7.058   1.608   1.780  0.7404 -0.7589  1.6087
 8319TIP3   OH224920   0.147   4.421   0.076 -0.3163 -0.6666  0.4140
 8319TIP3    H124921   0.152   4.331   0.043 -0.9810 -0.8227  0.7243
 8319TIP3    H224922   0.056   4.446   0.062 -0.0677  0.0663  0.0706
 8320TIP3   OH224923   2.556   2.491   5.373 -0.1112  0.1874  0.1396
 8320TIP3    H124924   2.463   2.469   5.364  0.5012 -2.9445  0.4004
 8320TIP3    H224925   2.593   2.479   5.285  0.5473 -1.5635  0.6218
 8321TIP3   OH224926   3.613   2.194   4.206 -0.6881  0.2387 -0.0581
 8321TIP3    H124927   3.641   2.103   4.216  0.2274  0.4897 -0.2287
 8321TIP3    H224928   3.588   2.201   4.114  1.1351  0.6295 -0.5812
 8322TIP3   OH224929   0.838   4.756   1.131  0.1190  0.0354 -0.2454
 8322TIP3    H124930   0.905   4.687   1.134  1.1669  0.9951 -1.0022
 8322TIP3    H224931   0.879   4.831   1.173 -0.9405  0.2986  0.3713
 8323TIP3   OH224932   5.451   3.977   1.357  0.4847 -0.2665  0.2687
 8323TIP3    H124933   5.369   3.996   1.311  1.6641 -0.0405 -1.8707
 8323TIP3    H224934   5.457   4.044   1.425 -1.2685 -0.5392  0.7520
 8324TIP3   OH224935   2.059   5.129   0.126 -0.2777  0.4882 -0.3590
 8324TIP3    H124936   2.151   5.125   0.102  0.3063 -0.0669  1.7388
 8324TIP3    H224937   2.055   5.193   0.197 -1.0765 -1.1118  1.1227
 8325TIP3   OH224938   6.926   5.332   2.080  0.0876 -0.3053 -0.0316
 8325TIP3    H124939   6.833   5.316   2.092  0.0890 -0.1007  0.2551
 8325TIP3    H224940   6.964   5.322   2.167 -0.2382  3.5048  0.7390
 8326TIP3   OH224941   4.511   4.172   2.562 -0.2446  0.4006 -0.0794
 8326TIP3    H124942   4.540   4.092   2.519 -1.3233 -0.2523  0.3560
 8326TIP3    H224943   4.581   4.235   2.546  0.6969 -0.6670 -0.3038
 8327TIP3   OH224944   2.991   4.692   1.186  0.2132 -0.5489 -0.5965
 8327TIP3    H124945   3.064   4.723   1.240  0.2892 -1.4441 -0.1756
 8327TIP3    H224946   2.983   4.599   1.206  0.9671 -1.1955 -2.9373
 8328TIP3   OH224947   6.762   4.965   3.318 -0.3307  0.1518  0.2477
 8328TIP3    H124948   6.825   4.896   3.295 -0.0522 -0.2794  2.1795
 8328TIP3    H224949   6.679   4.933   3.282  0.3743  0.4558 -1.8237
 8329TIP3   OH224950   4.522   1.500   4.352  0.1696 -0.0860  0.3193
 8329TIP3    H124951   4.487   1.493   4.440 -1.7881  0.1286 -0.3969
 8329TIP3    H224952   4.564   1.416   4.335 -1.1763 -0.8745  0.7675
 8330TIP3   OH224953   2.156   0.485   4.871  0.2679 -0.2803 -0.5423
 8330TIP3    H124954   2.187   0.540   4.799 -0.8415  1.5300  0.2777
 8330TIP3    H224955   2.231   0.430   4.894  0.7126 -0.7899 -2.9142
 8331TIP3   OH224956   3.390   5.200   2.928 -0.4300  0.1311  0.2861
 8331TIP3    H124957   3.350   5.175   2.845 -0.9422 -2.2930  1.1836
 8331TIP3    H224958   3.324   5.256   2.970 -1.0104 -0.2422 -0.1112
 8332TIP3   OH224959   5.571   0.945   0.205  0.0045 -0.1618  0.2702
 8332TIP3    H124960   5.607   0.994   0.279 -2.2129  1.0373  0.6473
 8332TIP3    H224961   5.615   0.981   0.128 -1.7270  2.7999  0.5032
 8333TIP3   OH224962   3.106   4.012   1.523 -0.2672  0.5536 -0.6443
 8333TIP3    H124963   3.170   4.025   1.453 -1.1783  1.9524 -1.2812
 8333TIP3    H224964   3.140   3.938   1.574  1.6702  1.0365 -1.1348
 8334TIP3   OH224965   7.105   5.539   2.686  0.5158  0.2355  0.5030
 8334TIP3    H124966   7.082   5.547   2.594  2.0672  0.7227  0.1249
 8334TIP3    H224967   7.034   5.585   2.732  0.7457  1.7970 -0.5942
 8335TIP3   OH224968   6.857   0.880   1.266 -0.3744 -0.5621 -0.2583
 8335TIP3    H124969   6.803   0.801   1.267 -1.0071 -0.1365  0.4936
 8335TIP3    H224970   6.885   0.889   1.175  0.0960 -1.9026 -0.2701
 8336TIP3   OH224971   0.682   2.228   1.701  0.0444  0.0461  0.7218
 8336TIP3    H124972   0.642   2.309   1.670 -0.2989  0.4031  2.0377
 8336TIP3    H224973   0.609   2.167   1.710  0.5638 -1.3567 -2.7665
 8337TIP3   OH224974   6.932   5.680   0.669 -0.2864 -0.2952 -0.4330
 8337TIP3    H124975   6.992   5.612   0.699 -0.5332 -1.3163 -2.1414
 8337TIP3    H224976   6.985   5.760   0.668 -0.1802 -0.2328  2.2770
 8338TIP3   OH224977   4.498   3.049   3.472  0.2150 -0.0427 -0.1723
 8338TIP3    H124978   4.506   3.131   3.424  0.7929  0.1677  0.2652
 8338TIP3    H224979   4.429   3.000   3.427  0.4321  0.3411 -0.9196
 8339TIP3   OH224980   1.585   2.429   2.608  0.4973  0.3039 -0.0927
 8339TIP3    H124981   1.541   2.448   2.691  1.4980  0.5886  0.3913
 8339TIP3    H224982   1.520   2.383   2.556  0.3394 -1.2868  1.4285
 8340TIP3   OH224983   3.256   5.596   3.725  0.3389  0.5683 -0.5365
 8340TIP3    H124984   3.247   5.522   3.785  0.1036  0.6813 -0.4303
 8340TIP3    H224985   3.292   5.666   3.778  1.5145  0.2346 -0.8739
 8341TIP3   OH224986   0.650   5.852   1.879  0.0024 -0.3615 -0.1172
 8341TIP3    H124987   0.686   5.771   1.916 -0.2399 -1.5060 -2.2614
 8341TIP3    H224988   0.555   5.838   1.878  0.0862 -1.3951 -3.2255
 8342TIP3   OH224989   3.651   0.037   2.089 -0.4118  0.8311 -0.4713
 8342TIP3    H124990   3.641   0.097   2.163 -2.5184 -1.4391  1.2367
 8342TIP3    H224991   3.714  -0.028   2.120 -0.9797  0.0969 -0.8469
 8343TIP3   OH224992   0.991   5.420   2.236 -0.3463 -0.0601 -0.4471
 8343TIP3    H124993   0.949   5.413   2.150  0.4913  0.3218 -0.9090
 8343TIP3    H224994   1.030   5.334   2.250  1.0790  0.3978 -1.3218
 8344TIP3   OH224995   4.125   4.731   2.852 -0.3514  0.5347  0.0786
 8344TIP3    H124996   4.174   4.809   2.877  2.5935 -1.3996  0.7773
 8344TIP3    H224997   4.138   4.724   2.757 -0.2263  0.6218  0.0891
 8345TIP3   OH224998   3.639   1.363   4.370  0.3564  0.0491 -0.2528
 8345TIP3    H124999   3.577   1.290   4.364  1.2644 -0.6657 -1.2651
 8345TIP3    H225000   3.714   1.335   4.319  1.5425  0.8898  0.9554
 8346TIP3   OH225001   5.859   0.794   5.288  0.1127 -0.0774 -0.0712
 8346TIP3    H125002   5.801   0.772   5.361  0.1489 -1.9387 -0.5725
 8346TIP3    H225003   5.947   0.776   5.321  0.3056  0.9801  0.0570
 8347TIP3   OH225004   0.510   0.756   4.288 -0.0521 -0.0598  0.2017
 8347TIP3    H125005   0.598   0.730   4.259  0.3984  0.9347  0.6126
 8347TIP3    H225006   0.450   0.712   4.228  0.7209 -0.8362 -0.0240
 8348TIP3   OH225007   5.945   1.014   3.459 -0.1689  0.8349  0.3719
 8348TIP3    H125008   5.907   1.033   3.545  1.1954  0.4188  1.0820
 8348TIP3    H225009   5.917   0.924   3.440  1.6835 -0.0609  1.6140
 8349TIP3   OH225010   6.825   5.500   3.644 -0.4624  0.0721 -0.1980
 8349TIP3    H125011   6.840   5.415   3.603 -3.3043  0.5724 -2.6298
 8349TIP3    H225012   6.768   5.481   3.718 -1.8417 -0.1640 -1.2630
 8350TIP3   OH225013   3.580   2.243   1.431  0.0903  0.0478 -0.2002
 8350TIP3    H125014   3.487   2.257   1.449  0.0739  0.0841 -0.3138
 8350TIP3    H225015   3.602   2.163   1.479  0.1705  0.4268  0.4056
 8351TIP3   OH225016   2.188   5.743   3.127 -0.3143  0.0940 -0.3971
 8351TIP3    H125017   2.134   5.802   3.179 -1.4619  0.4848 -1.9685
 8351TIP3    H225018   2.132   5.717   3.053  0.7987 -1.4873 -0.7426
 8352TIP3   OH225019   3.763   0.389   4.708  0.6183 -0.2205 -0.6275
 8352TIP3    H125020   3.738   0.471   4.750  0.4043 -0.7433  0.2975
 8352TIP3    H225021   3.752   0.405   4.614  0.5226  0.7791 -0.4525
 8353TIP3   OH225022   2.945   1.304   5.315  0.0502  0.2746 -0.2882
 8353TIP3    H125023   2.942   1.213   5.287  0.7148  0.4172 -0.8486
 8353TIP3    H225024   2.927   1.354   5.236  0.3546  0.6428 -0.1257
 8354TIP3   OH225025   3.706   6.369   5.223  0.5727  0.1667 -0.2579
 8354TIP3    H125026   3.652   6.384   5.145  0.0489 -1.1304 -0.1716
 8354TIP3    H225027   3.665   6.422   5.291 -0.8842 -1.1129 -0.0881
 8355TIP3   OH225028   0.996   4.689   5.731  0.0081 -0.8763 -0.5043
 8355TIP3    H125029   0.920   4.644   5.696 -2.8739  2.8304  0.3254
 8355TIP3    H225030   0.990   4.675   5.826  1.8518 -2.4371 -0.5450
 8356TIP3   OH225031   1.076   4.739   3.239  0.0552  0.5107  0.3949
 8356TIP3    H125032   1.066   4.684   3.161 -1.1732  0.0159  0.8622
 8356TIP3    H225033   1.009   4.807   3.229  1.8114  2.2307 -0.3690
 8357TIP3   OH225034   0.320   4.670   5.055 -0.1683  0.6226 -0.0401
 8357TIP3    H125035   0.248   4.709   5.005 -0.5353 -0.3661 -0.3095
 8357TIP3    H225036   0.351   4.597   5.001  0.6656  0.6807  0.3359
 8358TIP3   OH225037   1.173   2.329   4.465 -0.3488 -0.3714 -0.3172
 8358TIP3    H125038   1.140   2.247   4.428 -0.6244 -0.2445 -0.3582
 8358TIP3    H225039   1.225   2.303   4.540  0.1363 -0.6272 -0.7370
 8359TIP3   OH225040   1.715   3.841   2.479  0.2636 -0.0733 -0.4633
 8359TIP3    H125041   1.730   3.858   2.386 -0.4567 -1.0382 -0.7710
 8359TIP3    H225042   1.671   3.756   2.481  0.4989 -0.1812  0.7784
 8360TIP3   OH225043   0.918   1.779   5.347  0.3286  0.1568  0.4610
 8360TIP3    H125044   0.983   1.755   5.281  0.1613  2.3411 -0.5838
 8360TIP3    H225045   0.849   1.713   5.338 -0.4739  1.2662 -2.7624
 8361TIP3   OH225046   3.989   1.094   2.086 -0.7785 -0.6438 -0.0704
 8361TIP3    H125047   3.953   1.182   2.086 -1.5317 -0.9358 -1.3472
 8361TIP3    H225048   4.084   1.106   2.086 -0.8551  0.2017 -1.7438
 8362TIP3   OH225049   5.153   2.002   0.432 -0.3314 -0.4654  0.1953
 8362TIP3    H125050   5.117   1.992   0.520 -2.4575  1.1914 -0.4032
 8362TIP3    H225051   5.170   2.095   0.423  0.8065 -0.7462 -0.8495
 8363TIP3   OH225052   4.490   1.737   2.067  0.0543 -0.2585  0.0208
 8363TIP3    H125053   4.486   1.784   2.150 -1.8429  0.1012 -0.2099
 8363TIP3    H225054   4.409   1.686   2.064  0.6977 -1.2797 -1.0391
 8364TIP3   OH225055   6.827   5.403   0.298  0.3264  0.1966  0.5192
 8364TIP3    H125056   6.813   5.491   0.331  0.1954  1.0317 -1.5762
 8364TIP3    H225057   6.746   5.357   0.319 -0.6145  1.3208 -0.4778
 8365TIP3   OH225058   3.352   3.268   3.066 -0.5640  0.3867 -0.2000
 8365TIP3    H125059   3.283   3.329   3.040 -1.2500  0.1578  0.9854
 8365TIP3    H225060   3.344   3.262   3.162  0.7369 -0.0836 -0.0991
 8366TIP3   OH225061   6.447   3.085   2.279 -0.0452  0.3680  0.0675
 8366TIP3    H125062   6.430   3.130   2.362 -3.6687  0.7192 -0.7241
 8366TIP3    H225063   6.493   3.149   2.225  0.5291  0.8340  1.0841
 8367TIP3   OH225064   3.692   4.924   4.512 -0.0488 -0.3783  0.2400
 8367TIP3    H125065   3.708   4.972   4.593  0.9358 -0.5933  0.1866
 8367TIP3    H225066   3.676   4.991   4.446 -0.7000 -0.1985  0.5770
 8368TIP3   OH225067   3.993   1.496   1.419 -0.1778  0.2643  0.1104
 8368TIP3    H125068   3.979   1.576   1.470 -1.0811  0.3636 -0.2780
 8368TIP3    H225069   4.034   1.526   1.338 -1.1952  0.4405 -0.3548
 8369TIP3   OH225070   1.776   1.155   0.717 -0.0664  0.3150  0.4869
 8369TIP3    H125071   1.835   1.107   0.776 -0.1195 -0.4680 -0.0786
 8369TIP3    H225072   1.812   1.139   0.629 -1.2129 -0.3261  0.1094
 8370TIP3   OH225073   7.075   5.810   2.111  0.5785  0.3014 -0.0381
 8370TIP3    H125074   7.016   5.870   2.158  1.1769  0.8470  0.0260
 8370TIP3    H225075   7.017   5.759   2.055  0.1214  1.3740 -0.5677
 8371TIP3   OH225076   1.232   4.921   5.208  0.1275  0.2637  0.4822
 8371TIP3    H125077   1.170   4.873   5.263  1.0396 -0.6676  0.7329
 8371TIP3    H225078   1.181   4.949   5.132 -0.8624  0.5101  1.2253
 8372TIP3   OH225079   1.327   1.115   5.272  0.2504  0.0879 -0.0076
 8372TIP3    H125080   1.309   1.049   5.205  0.4961  0.7639 -0.7547
 8372TIP3    H225081   1.249   1.171   5.271  0.7962  0.8702 -0.6772
 8373TIP3   OH225082   2.487   6.057   3.198 -0.0151  0.2646  0.0639
 8373TIP3    H125083   2.404   6.091   3.163 -0.4289 -0.0741  0.6885
 8373TIP3    H225084   2.523   6.130   3.248  0.4060  0.6355 -0.7607
 8374TIP3   OH225085   5.102   6.080   0.230 -0.3625 -0.5561 -0.1682
 8374TIP3    H125086   5.104   6.136   0.152 -2.9016 -0.5049 -0.2968
 8374TIP3    H225087   5.108   6.140   0.303  0.7769 -0.4897 -0.3056
 8375TIP3   OH225088   1.658   4.790   5.676  0.2156 -0.2558 -0.4310
 8375TIP3    H125089   1.682   4.803   5.584  1.9081  0.7851  0.1254
 8375TIP3    H225090   1.647   4.879   5.710  0.6103 -0.6085  0.6242
 8376TIP3   OH225091   3.864   0.793   2.920  0.3158  0.2591 -0.3625
 8376TIP3    H125092   3.882   0.714   2.870 -0.4749 -0.4812  0.4792
 8376TIP3    H225093   3.888   0.865   2.862  2.1740 -0.6020 -0.7244
 8377TIP3   OH225094   5.671   1.311   1.698  0.2298  0.4174 -0.3884
 8377TIP3    H125095   5.758   1.285   1.730  0.0506 -0.1037 -0.3162
 8377TIP3    H225096   5.612   1.290   1.770 -0.1518 -0.5712 -0.9771
 8378TIP3   OH225097   3.276   1.689   3.107  0.3268  0.0795  0.2553
 8378TIP3    H125098   3.195   1.643   3.084  0.3807 -0.1165  0.4575
 8378TIP3    H225099   3.323   1.698   3.024  0.3365 -0.2684  0.2245
 8379TIP3   OH225100   5.736   5.133   0.448 -0.7383 -0.0479  0.2990
 8379TIP3    H125101   5.717   5.083   0.528  1.4733 -0.9647  0.3313
 8379TIP3    H225102   5.732   5.225   0.475 -1.8830 -0.2818  0.9784
 8380TIP3   OH225103   3.456   1.903   3.232 -0.5611 -0.0011  0.4069
 8380TIP3    H125104   3.433   1.873   3.144 -1.7650  0.0142  0.7075
 8380TIP3    H225105   3.397   1.856   3.290 -1.0088  1.3344  1.0659
 8381TIP3   OH225106   0.915   6.613   4.018 -0.5008 -0.3144 -0.4902
 8381TIP3    H125107   0.974   6.607   4.092  0.7307  0.9292 -1.3079
 8381TIP3    H225108   0.910   6.707   3.999 -4.0777 -0.1203  0.5371
 8382TIP3   OH225109   6.359   0.356   4.294  0.2654 -0.3189  0.9801
 8382TIP3    H125110   6.363   0.452   4.291  0.5702 -0.3459  0.2174
 8382TIP3    H225111   6.289   0.334   4.232  0.5191 -0.6086  0.7977
 8383TIP3   OH225112   4.211   2.944   0.063 -0.0556  0.8653 -0.0173
 8383TIP3    H125113   4.199   2.878  -0.005 -0.5182  0.0582  0.8213
 8383TIP3    H225114   4.129   2.942   0.112  1.0085 -0.0656  1.8315
 8384TIP3   OH225115   0.839   6.528   2.105  0.4661  0.3483 -0.2067
 8384TIP3    H125116   0.758   6.575   2.089  0.9759  2.2467  2.2810
 8384TIP3    H225117   0.818   6.436   2.087 -2.6168  0.5833  1.6684
 8385TIP3   OH225118   0.665   5.276   4.429  0.2165  0.3548 -0.6708
 8385TIP3    H125119   0.694   5.244   4.344 -1.7970 -0.1054 -1.2361
 8385TIP3    H225120   0.682   5.205   4.490 -0.5074 -0.2427 -1.1555
 8386TIP3   OH225121   6.865   4.533   3.861 -0.5870 -0.6228 -0.6281
 8386TIP3    H125122   6.939   4.579   3.902 -1.1087 -0.0638 -0.2985
 8386TIP3    H225123   6.792   4.548   3.920 -1.1990 -0.3423 -1.4455
 8387TIP3   OH225124   0.238   6.285   1.926 -0.1489  0.4013  0.3660
 8387TIP3    H125125   0.204   6.367   1.890  1.1793  0.3002 -1.2382
 8387TIP3    H225126   0.208   6.218   1.865  1.2967  0.0947 -0.0610
 8388TIP3   OH225127   5.639   0.494   5.168 -0.2033 -0.2445  0.0035
 8388TIP3    H125128   5.665   0.484   5.259 -1.2074 -1.5934  0.1872
 8388TIP3    H225129   5.713   0.461   5.118  0.0744 -0.1532  0.3502
 8389TIP3   OH225130   1.873   5.948   3.791 -0.2447  0.3689  0.4483
 8389TIP3    H125131   1.785   5.947   3.830 -0.4323  3.3477  0.3138
 8389TIP3    H225132   1.925   6.002   3.850  1.4831 -1.1263  0.3742
 8390TIP3   OH225133   0.343   2.482   5.773 -0.7669  0.4484  0.0279
 8390TIP3    H125134   0.272   2.436   5.817 -1.0819  1.7007  0.8936
 8390TIP3    H225135   0.301   2.559   5.734 -0.3320 -0.1377 -1.7224
 8391TIP3   OH225136   1.916   0.700   2.918  0.0344  0.7991 -0.2658
 8391TIP3    H125137   1.944   0.710   2.827 -0.9111 -2.6643 -1.0656
 8391TIP3    H225138   1.855   0.773   2.932  0.0458  1.3089 -2.4792
 8392TIP3   OH225139   3.958   1.172   0.895 -0.1402 -0.5541  0.1323
 8392TIP3    H125140   3.938   1.256   0.854 -0.4412  0.5067  2.2833
 8392TIP3    H225141   4.054   1.168   0.895 -0.1325 -0.5661 -0.6055
 8393TIP3   OH225142   6.681   6.549   0.282  0.0112 -0.0721 -0.1370
 8393TIP3    H125143   6.729   6.467   0.295  0.3785 -0.1517 -1.7964
 8393TIP3    H225144   6.652   6.574   0.370  1.2230 -1.1655  0.6091
 8394TIP3   OH225145   1.502   5.314   1.777  0.0130 -0.8553  0.1149
 8394TIP3    H125146   1.569   5.345   1.716  0.3881  0.7463  1.2493
 8394TIP3    H225147   1.539   5.331   1.864 -1.3225 -1.1708  0.7780
 8395TIP3   OH225148   2.657   5.713   4.737  0.2195  0.4554 -0.5638
 8395TIP3    H125149   2.700   5.650   4.794 -1.7374 -1.3003 -0.9181
 8395TIP3    H225150   2.729   5.761   4.695  1.7142  0.2139  1.6033
 8396TIP3   OH225151   5.887   2.642   5.462  0.2034  0.0699  0.2851
 8396TIP3    H125152   5.975   2.638   5.498  0.6696  2.1828 -0.5019
 8396TIP3    H225153   5.900   2.668   5.370 -1.2002 -0.4517 -0.0875
 8397TIP3   OH225154   0.265   2.660   0.658  0.1725 -0.2328  0.0140
 8397TIP3    H125155   0.247   2.666   0.752  1.4628 -0.6517  0.3052
 8397TIP3    H225156   0.273   2.566   0.641 -0.6034 -0.1940 -0.6411
 8398TIP3   OH225157   3.541   2.803   0.122  0.1173 -0.0134 -0.3424
 8398TIP3    H125158   3.575   2.810   0.211  0.4819 -0.5690 -0.4311
 8398TIP3    H225159   3.447   2.821   0.131  0.3902  1.4071 -0.0837
 8399TIP3   OH225160   5.565   1.289   4.988  0.5794 -0.5014 -0.0797
 8399TIP3    H125161   5.648   1.306   4.944  0.2156 -2.3702 -1.5970
 8399TIP3    H225162   5.499   1.303   4.921 -0.2618 -0.2691  0.7745
 8400TIP3   OH225163   5.882   0.416   5.785  0.0494  0.2696 -0.1102
 8400TIP3    H125164   5.914   0.343   5.731 -1.1681 -1.4236  1.3138
 8400TIP3    H225165   5.791   0.427   5.757  0.2050  1.2394 -0.2686
 8401TIP3   OH225166   0.828   2.291   2.537  0.2149  0.2120 -1.1203
 8401TIP3    H125167   0.812   2.210   2.585 -1.7660  2.1297  1.7823
 8401TIP3    H225168   0.745   2.309   2.492 -0.4999  2.0254  0.7425
 8402TIP3   OH225169   6.467   2.275   1.932  0.4776 -0.1819 -0.5941
 8402TIP3    H125170   6.424   2.317   1.857  3.9815  2.1668 -1.5078
 8402TIP3    H225171   6.433   2.322   2.008 -0.2475  0.0559 -1.0546
 8403TIP3   OH225172   4.895   0.139   4.732 -0.4134 -0.2436  0.2400
 8403TIP3    H125173   4.809   0.142   4.773 -0.4454  0.7996  0.1247
 8403TIP3    H225174   4.952   0.188   4.791 -0.4829  1.3599 -0.9732
 8404TIP3   OH225175   2.030   4.132   4.242 -0.2115 -0.2492 -0.1737
 8404TIP3    H125176   2.006   4.129   4.149  0.1514  0.5672 -0.2992
 8404TIP3    H225177   1.998   4.049   4.277 -0.4225 -0.5350 -1.0112
 8405TIP3   OH225178   3.200   4.824   2.924  0.1202  0.3691 -0.4960
 8405TIP3    H125179   3.292   4.832   2.951  0.3779  0.1237 -1.2649
 8405TIP3    H225180   3.165   4.753   2.978  0.8497 -0.6773 -1.3485
 8406TIP3   OH225181   4.373   2.167   3.989 -0.3934  0.4284  0.4143
 8406TIP3    H125182   4.379   2.093   4.049 -0.5698 -0.1723 -0.2895
 8406TIP3    H225183   4.293   2.150   3.938  0.4693  0.1836 -0.9198
 8407TIP3   OH225184   3.912   5.537   5.739 -0.4657 -0.7449  0.3804
 8407TIP3    H125185   4.006   5.549   5.729 -0.6755  0.7553 -0.0714
 8407TIP3    H225186   3.891   5.463   5.682  0.4986 -1.4527  0.9073
 8408TIP3   OH225187   6.693   5.763   2.162  0.0107 -0.7452 -0.0743
 8408TIP3    H125188   6.726   5.733   2.077 -0.1373 -0.2839 -0.3027
 8408TIP3    H225189   6.618   5.707   2.180 -0.2252 -0.5638 -0.4647
 8409TIP3   OH225190   1.157   2.340   3.953  0.2246 -0.0712  0.0920
 8409TIP3    H125191   1.170   2.289   4.032  1.9026  0.3684  0.1206
 8409TIP3    H225192   1.172   2.431   3.979 -0.6604  0.2435 -0.4248
 8410TIP3   OH225193   5.070   1.381   0.553  0.0898  0.3205  0.3959
 8410TIP3    H125194   5.026   1.422   0.627 -0.2061  2.4609 -0.8645
 8410TIP3    H225195   5.104   1.455   0.502 -2.4487 -0.7713 -3.2725
 8411TIP3   OH225196   2.542   6.055   4.704 -0.7593  0.0425 -0.1273
 8411TIP3    H125197   2.533   5.975   4.755  1.4522  0.5971  1.2748
 8411TIP3    H225198   2.476   6.048   4.636 -0.7988 -2.8340  0.1048
 8412TIP3   OH225199   4.585   3.510   1.446  0.1433  0.0361 -0.4456
 8412TIP3    H125200   4.611   3.599   1.469 -0.3679 -0.2387  1.4053
 8412TIP3    H225201   4.627   3.455   1.512 -0.9954 -0.9089 -0.4770
 8413TIP3   OH225202   0.555   5.654   0.114  0.4825 -0.1472 -0.0929
 8413TIP3    H125203   0.636   5.605   0.101  1.1095  1.0410 -0.8611
 8413TIP3    H225204   0.562   5.728   0.054 -1.3212 -0.1851 -0.3988
 8414TIP3   OH225205   1.867   5.648   1.178 -0.1678  0.3229 -0.3421
 8414TIP3    H125206   1.881   5.622   1.087  0.7396  0.6492 -0.3121
 8414TIP3    H225207   1.933   5.599   1.227 -0.7573  0.0226  0.1662
 8415TIP3   OH225208   4.059   1.076   5.733 -0.2982 -0.3181 -0.2774
 8415TIP3    H125209   4.011   1.152   5.766 -1.1003 -0.6684 -0.6223
 8415TIP3    H225210   4.005   1.042   5.662  0.2095 -1.0291 -0.3371
 8416TIP3   OH225211   0.914   2.414   3.418  0.1996 -0.7305  0.0114
 8416TIP3    H125212   0.819   2.403   3.425  0.2822 -1.4973  0.0104
 8416TIP3    H225213   0.928   2.445   3.329 -0.2076  1.3543  0.6226
 8417TIP3   OH225214   5.600   4.161   5.235 -0.3390  0.0401  0.2585
 8417TIP3    H125215   5.574   4.089   5.293  0.3598  0.3975  1.0295
 8417TIP3    H225216   5.517   4.201   5.208 -0.6912 -0.4562  0.5983
 8418TIP3   OH225217   0.031   5.170   5.591  0.1819  0.4787 -0.2000
 8418TIP3    H125218   0.044   5.254   5.548 -1.4675  1.8683  1.8414
 8418TIP3    H225219  -0.054   5.140   5.559 -0.2985  0.7334  0.8042
 8419TIP3   OH225220   6.575   4.478   1.464  0.0982 -0.5225 -0.4553
 8419TIP3    H125221   6.618   4.561   1.485  1.2843 -0.9631 -1.0062
 8419TIP3    H225222   6.582   4.471   1.369 -1.1971 -0.6295 -0.5567
 8420TIP3   OH225223   1.833   5.831   0.851  0.4551  0.2945 -0.4884
 8420TIP3    H125224   1.843   5.736   0.854 -1.3939 -0.0094 -1.7628
 8420TIP3    H225225   1.922   5.865   0.846  1.1316 -1.4206 -0.7183
 8421TIP3   OH225226   2.867   4.821   5.696 -0.3959 -0.5206 -0.3639
 8421TIP3    H125227   2.816   4.901   5.684 -1.0288 -0.9230 -0.3860
 8421TIP3    H225228   2.802   4.753   5.713  0.2657 -0.5343  2.6423
 8422TIP3   OH225229   6.493   2.940   0.060 -0.1494 -0.0141  0.3928
 8422TIP3    H125230   6.421   2.904   0.009 -0.2477 -1.2012  1.3260
 8422TIP3    H225231   6.450   2.977   0.138  0.3524 -2.6191  2.0111
 8423TIP3   OH225232   6.272   2.182   3.423 -0.4596  0.2189  0.2568
 8423TIP3    H125233   6.276   2.093   3.386  0.6734  1.5595 -3.3412
 8423TIP3    H225234   6.358   2.219   3.404 -1.1511  2.3347  0.9530
 8424TIP3   OH225235   2.713   1.284   0.706  0.3494 -0.0737 -0.1811
 8424TIP3    H125236   2.694   1.193   0.684  2.7287 -0.7629  0.3863
 8424TIP3    H225237   2.727   1.326   0.621  0.8444 -0.6293 -0.3797
 8425TIP3   OH225238   1.767   0.433   0.105 -0.3131  0.2141  0.1380
 8425TIP3    H125239   1.691   0.409   0.158 -1.3881 -1.4775 -1.9717
 8425TIP3    H225240   1.732   0.495   0.041  0.3837  0.4197 -0.0430
 8426TIP3   OH225241   6.138   4.972   4.991 -0.3400  0.4084  0.2252
 8426TIP3    H125242   6.175   5.026   4.921  1.1725  1.2699  1.5825
 8426TIP3    H225243   6.201   4.982   5.063  0.2686 -3.5027  0.4769
 8427TIP3   OH225244   1.637   4.198   3.823 -0.3266  0.0203  0.2376
 8427TIP3    H125245   1.667   4.109   3.809  1.0193  0.2655  1.3290
 8427TIP3    H225246   1.554   4.204   3.775 -0.6925 -1.9559  0.5561
 8428TIP3   OH225247   6.512   3.804   0.457 -0.6878 -0.0678 -0.0862
 8428TIP3    H125248   6.576   3.780   0.389  0.8353  2.3339  0.3802
 8428TIP3    H225249   6.428   3.772   0.423  0.2624 -0.3937 -2.3187
 8429TIP3   OH225250   6.053   6.647   0.606  0.3197  0.2914  0.3956
 8429TIP3    H125251   5.973   6.655   0.555 -0.7060  2.3052  2.1599
 8429TIP3    H225252   6.031   6.586   0.676  0.1753  1.0876  1.0649
 8430TIP3   OH225253   2.320   5.608   0.101 -0.6682  0.1311  0.1557
 8430TIP3    H125254   2.379   5.639   0.170 -1.1681  1.7177 -0.0843
 8430TIP3    H225255   2.364   5.531   0.064  1.6712  1.7036 -0.5691
 8431TIP3   OH225256   1.844   0.761   2.064  0.6179  0.6137 -0.2555
 8431TIP3    H125257   1.772   0.740   2.123  0.3053  0.6891 -0.6070
 8431TIP3    H225258   1.921   0.720   2.104  0.0302 -1.2482 -0.9129
 8432TIP3   OH225259   6.333   5.023   4.328 -0.0149 -0.6045 -0.3863
 8432TIP3    H125260   6.268   4.958   4.353  1.4825 -1.9987 -0.0013
 8432TIP3    H225261   6.344   5.012   4.233  0.2565 -0.9289 -0.3167
 8433TIP3   OH225262   6.889   4.965   2.155 -0.1450  0.7958  0.3169
 8433TIP3    H125263   6.902   4.876   2.187 -2.1803  0.6219  0.7884
 8433TIP3    H225264   6.955   4.975   2.086  0.5187 -0.8473  0.6581
 8434TIP3   OH225265   5.046   6.253   0.792  1.0863  0.0651  0.1137
 8434TIP3    H125266   5.044   6.207   0.876  1.8718  0.5325  0.4039
 8434TIP3    H225267   5.133   6.293   0.789 -0.2223  3.3246  0.9041
 8435TIP3   OH225268   3.063   0.369   0.189 -0.9311 -0.4185  0.0820
 8435TIP3    H125269   3.025   0.446   0.146  0.1991 -0.4284 -0.9990
 8435TIP3    H225270   3.141   0.350   0.138 -0.4636 -1.4842  1.1584
 8436TIP3   OH225271   5.860   3.881   1.880 -0.2932 -0.1077 -0.0175
 8436TIP3    H125272   5.817   3.903   1.962 -0.3852 -0.6717  0.0909
 8436TIP3    H225273   5.951   3.910   1.892 -0.8166  1.8938 -0.5777
 8437TIP3   OH225274   6.129   0.566   2.706  0.3583 -0.5740  0.4602
 8437TIP3    H125275   6.118   0.595   2.797  0.5692 -0.1341  0.3486
 8437TIP3    H225276   6.215   0.600   2.681 -0.2931  0.5403 -0.3597
 8438TIP3   OH225277   5.294   3.855   3.793 -0.5244  0.4050  0.3723
 8438TIP3    H125278   5.323   3.939   3.829 -2.2559  1.2214 -0.0559
 8438TIP3    H225279   5.220   3.829   3.847  0.2228 -1.0867  0.7532
 8439TIP3   OH225280   1.228   4.223   0.135 -0.3653 -0.7425 -0.0667
 8439TIP3    H125281   1.172   4.249   0.209  0.4141 -0.0557  0.2941
 8439TIP3    H225282   1.296   4.170   0.176 -1.0906 -2.1339 -0.5938
 8440TIP3   OH225283   7.109   3.163   2.317  0.4281  0.4807 -0.3578
 8440TIP3    H125284   7.027   3.193   2.278  0.3417 -0.2793 -0.7768
 8440TIP3    H225285   7.092   3.163   2.411 -0.7688 -1.6265 -0.5197
 8441TIP3   OH225286   1.532   4.658   4.013  0.3991 -0.3686 -0.3972
 8441TIP3    H125287   1.581   4.657   3.931  0.2488 -1.8201 -0.4817
 8441TIP3    H225288   1.453   4.607   3.995 -1.5043  2.3425 -0.4346
 8442TIP3   OH225289   4.323   5.626   0.365 -0.2762  0.7182  0.0090
 8442TIP3    H125290   4.333   5.634   0.271 -0.6341  1.1309  0.0021
 8442TIP3    H225291   4.394   5.679   0.401  0.0230  0.3416 -0.0277
 8443TIP3   OH225292   6.078   3.860   2.374  0.1999  0.4186  0.3495
 8443TIP3    H125293   5.999   3.856   2.320 -0.7225 -3.1468  1.6775
 8443TIP3    H225294   6.046   3.883   2.461  0.9865  1.3525  0.3969
 8444TIP3   OH225295  -0.019   3.740   5.765 -0.0370  0.0386 -0.5930
 8444TIP3    H125296   0.008   3.653   5.794  2.5409  0.8166 -0.4084
 8444TIP3    H225297   0.016   3.799   5.831 -0.8621  1.3070 -1.2517
 8445TIP3   OH225298   5.492   2.090   4.529  0.1685 -0.4308 -0.3852
 8445TIP3    H125299   5.554   2.156   4.499 -0.0580  0.5763  1.2535
 8445TIP3    H225300   5.443   2.133   4.598  0.0519 -2.3353  0.7793
 8446TIP3   OH225301   6.531   5.382   1.197 -0.3911 -0.4586 -0.0592
 8446TIP3    H125302   6.500   5.308   1.144 -2.1994  0.6923 -0.6722
 8446TIP3    H225303   6.455   5.409   1.247  0.2347  1.0248  0.1260
 8447TIP3   OH225304   6.086   2.157   1.861 -0.3525  0.9439 -0.3090
 8447TIP3    H125305   6.045   2.072   1.844  0.7752  0.4285 -0.5254
 8447TIP3    H225306   6.060   2.179   1.951  0.2476 -0.1683  0.1536
 8448TIP3   OH225307   6.856   0.091   5.818 -0.2934  0.5732 -0.0348
 8448TIP3    H125308   6.777   0.092   5.872 -0.0494  1.5188  0.3318
 8448TIP3    H225309   6.855   0.176   5.773  0.1714  0.3210 -0.5372
 8449TIP3   OH225310   2.698   5.350   0.768  0.0159  0.0201 -0.5939
 8449TIP3    H125311   2.635   5.422   0.769  1.0536  1.1398 -3.6346
 8449TIP3    H225312   2.656   5.281   0.716  1.0176  0.5780 -2.2156
 8450TIP3   OH225313   0.890   3.078   1.941  0.5986 -0.0717  0.2636
 8450TIP3    H125314   0.863   3.001   1.890 -0.2677 -0.7363  1.6759
 8450TIP3    H225315   0.968   3.110   1.895  0.1248 -0.8997 -1.2109
 8451TIP3   OH225316   1.590   5.650   3.753  0.1908  0.3069 -0.0984
 8451TIP3    H125317   1.513   5.690   3.793  0.5391 -0.6615  1.6456
 8451TIP3    H225318   1.596   5.691   3.667 -1.1756  1.7767  0.4483
 8452TIP3   OH225319   6.898   5.079   4.920 -0.4301  0.1370  0.3348
 8452TIP3    H125320   6.834   5.122   4.863 -1.6835  0.0416  1.5996
 8452TIP3    H225321   6.927   5.002   4.872 -1.5358  0.0027 -0.1320
 8453TIP3   OH225322   2.126   6.730   1.961 -0.3132  0.3514 -0.3801
 8453TIP3    H125323   2.068   6.801   1.934 -0.4844 -0.0238 -1.0085
 8453TIP3    H225324   2.081   6.690   2.036 -0.0876  1.0565  0.1508
 8454TIP3   OH225325   2.424   0.899   0.691  0.1889 -0.1743 -0.2560
 8454TIP3    H125326   2.412   0.968   0.757  0.4845  0.5709 -0.9663
 8454TIP3    H225327   2.336   0.868   0.671  0.0498  0.0552 -0.0022
 8455TIP3   OH225328   0.688   0.262   4.921 -0.1401 -0.1614  0.2273
 8455TIP3    H125329   0.682   0.324   4.848  1.2994  0.8533  0.9059
 8455TIP3    H225330   0.677   0.316   4.999 -0.4322 -1.0250  0.7933
 8456TIP3   OH225331   5.068   0.309   3.550  0.5777 -0.2117 -0.1504
 8456TIP3    H125332   5.124   0.249   3.502  0.5587 -0.0138 -0.4252
 8456TIP3    H225333   4.982   0.301   3.507  0.3340 -0.6876  0.4158
 8457TIP3   OH225334   4.285   2.880   4.682 -0.1867  0.3395  0.1156
 8457TIP3    H125335   4.330   2.870   4.598  0.2682 -1.6792  0.5469
 8457TIP3    H225336   4.341   2.834   4.745 -0.9572  1.0535  1.3721
 8458TIP3   OH225337   3.087   4.344   2.322 -0.1508  0.2894 -0.1125
 8458TIP3    H125338   3.000   4.318   2.352  0.2564 -0.5702  0.3738
 8458TIP3    H225339   3.080   4.439   2.308 -1.4605  0.0764 -1.1484
 8459TIP3   OH225340   0.613   4.730   2.297 -0.0965 -0.6579 -0.0214
 8459TIP3    H125341   0.662   4.807   2.326 -2.2924  1.2179 -0.9557
 8459TIP3    H225342   0.551   4.713   2.368  0.4536 -1.6565  0.2310
 8460TIP3   OH225343   5.233   1.164   4.126  0.3215  0.3814 -0.1740
 8460TIP3    H125344   5.188   1.159   4.210  1.9485 -3.1698  0.6865
 8460TIP3    H225345   5.166   1.142   4.062 -0.5670  1.5173  0.3404
 8461TIP3   OH225346   0.712   6.640   0.352  0.4008 -0.3068  0.1173
 8461TIP3    H125347   0.779   6.581   0.388 -0.8491 -0.6085  2.0714
 8461TIP3    H225348   0.679   6.594   0.275  1.1721 -1.0079  0.1930
 8462TIP3   OH225349   2.827   4.896   2.952 -0.0521 -0.1277  0.1974
 8462TIP3    H125350   2.825   4.801   2.959 -1.4636 -0.3562 -2.0724
 8462TIP3    H225351   2.801   4.928   3.038 -0.3558 -1.8116  0.7615
 8463TIP3   OH225352   5.870   1.983   3.935  0.2155 -0.0635 -0.0156
 8463TIP3    H125353   5.853   1.890   3.924 -0.6103  0.0308  0.3881
 8463TIP3    H225354   5.811   2.010   4.005  0.4771  0.7551 -0.1007
 8464TIP3   OH225355   1.970   2.955   2.710 -0.3584 -0.0521 -0.0087
 8464TIP3    H125356   2.007   2.935   2.624 -1.4765  0.9614 -0.7516
 8464TIP3    H225357   2.026   2.908   2.772 -0.0511 -1.5118 -1.3357
 8465TIP3   OH225358   1.183   3.401   2.692 -0.1058 -0.2284 -0.5503
 8465TIP3    H125359   1.267   3.362   2.670  0.5345  1.3951 -1.1046
 8465TIP3    H225360   1.175   3.476   2.633 -1.4414  0.2953  0.2538
 8466TIP3   OH225361   5.112   0.505   5.380 -0.5401  0.1703  0.2373
 8466TIP3    H125362   5.123   0.418   5.419 -2.1420  0.1383  0.6732
 8466TIP3    H225363   5.018   0.512   5.363 -0.6791  2.3349  1.4727
 8467TIP3   OH225364   5.613   3.457   0.391  0.1182  0.6339  0.1020
 8467TIP3    H125365   5.523   3.461   0.360 -0.5620  0.9046  1.9966
 8467TIP3    H225366   5.636   3.549   0.407  0.9010  0.6060 -0.7577
 8468TIP3   OH225367   5.375   0.789   2.340  0.3653 -0.1347  0.8570
 8468TIP3    H125368   5.416   0.820   2.259 -0.3754 -1.8334 -0.2236
 8468TIP3    H225369   5.356   0.869   2.389  0.5737  0.9683 -0.7615
 8469TIP3   OH225370   1.524   6.159   3.699 -0.3300  0.1915 -0.0181
 8469TIP3    H125371   1.494   6.189   3.613  1.6644  0.5548 -0.6303
 8469TIP3    H225372   1.529   6.238   3.752 -0.0874  0.1939 -0.0427
 8470TIP3   OH225373   2.345   6.438   3.561  0.1443  0.3393  0.3054
 8470TIP3    H125374   2.401   6.464   3.487 -0.8482  0.1437 -0.5416
 8470TIP3    H225375   2.352   6.343   3.563 -0.6429  0.2660 -0.2082
 8471TIP3   OH225376   2.222   6.627   5.240  0.1243 -0.2292 -0.5175
 8471TIP3    H125377   2.133   6.658   5.223 -0.8645 -2.4541  0.1164
 8471TIP3    H225378   2.210   6.537   5.272  2.6512 -0.8818 -1.1359
 8472TIP3   OH225379   1.965   1.678   3.325 -0.6077  0.7643 -0.0510
 8472TIP3    H125380   2.041   1.692   3.268 -1.2274  2.8635 -0.4397
 8472TIP3    H225381   1.999   1.691   3.414 -0.1591 -0.0398 -0.1005
 8473TIP3   OH225382   0.420   3.500   2.010  0.7311 -0.1200 -0.2299
 8473TIP3    H125383   0.385   3.589   2.011  1.1143  0.0336 -0.5379
 8473TIP3    H225384   0.477   3.497   1.933  1.8278 -0.2091  0.5747
 8474TIP3   OH225385   2.098   5.393   1.850  0.4101  0.0457 -0.1050
 8474TIP3    H125386   2.036   5.380   1.778  0.8359 -0.0054 -0.4694
 8474TIP3    H225387   2.045   5.429   1.921 -0.2334 -0.9429 -0.0594
 8475TIP3   OH225388   5.184   0.796   5.732  0.3617  0.2984  0.4602
 8475TIP3    H125389   5.099   0.765   5.762  0.2039 -0.4623 -0.7015
 8475TIP3    H225390   5.246   0.731   5.765  0.2657 -0.1670 -0.2557
 8476TIP3   OH225391   3.606   1.880   1.086  0.4014 -0.1798  0.1063
 8476TIP3    H125392   3.561   1.961   1.061  0.9670  0.4109  0.8950
 8476TIP3    H225393   3.536   1.820   1.111  0.0192  0.5929  0.9569
 8477TIP3   OH225394   6.316   3.379   1.490  0.2110 -0.1628  0.4225
 8477TIP3    H125395   6.344   3.435   1.563  0.0598  0.2946  0.1319
 8477TIP3    H225396   6.230   3.413   1.465  1.7038  2.0112 -2.2699
 8478TIP3   OH225397   3.452   5.513   1.071  0.4042 -0.2327 -0.4667
 8478TIP3    H125398   3.368   5.556   1.051  1.1910  2.6764  1.6912
 8478TIP3    H225399   3.498   5.509   0.987 -1.2741 -0.4811 -1.4188
 8479TIP3   OH225400   0.306   6.466   3.253 -0.1407  0.4576 -0.9061
 8479TIP3    H125401   0.342   6.552   3.275 -0.3784  0.8931 -2.1222
 8479TIP3    H225402   0.211   6.479   3.256 -0.4033 -0.9727  3.4440
 8480TIP3   OH225403   5.971   5.129   3.162  0.3053 -0.1800 -0.0223
 8480TIP3    H125404   6.010   5.215   3.178 -0.5508 -0.1372  2.2424
 8480TIP3    H225405   6.028   5.067   3.207 -0.6849 -0.4248  0.9331
 8481TIP3   OH225406   1.056   2.836   4.487  0.1596  0.8592 -0.2017
 8481TIP3    H125407   1.063   2.746   4.454 -1.8094  0.4371  0.4096
 8481TIP3    H225408   1.015   2.885   4.416 -0.7696  0.7601  0.2489
 8482TIP3   OH225409   4.481   5.914   1.263  0.1471 -0.4864 -0.2749
 8482TIP3    H125410   4.544   5.986   1.260  0.7711 -0.9761  0.4945
 8482TIP3    H225411   4.428   5.924   1.184  0.4082  0.6421 -0.3162
 8483TIP3   OH225412   4.175   5.599   2.399  0.4801 -0.1321 -0.4073
 8483TIP3    H125413   4.176   5.587   2.494  0.1837  1.7026 -0.1230
 8483TIP3    H225414   4.267   5.603   2.374  0.5632  0.3786 -0.0357
 8484TIP3   OH225415   1.157   4.861   1.589 -0.4913 -0.4315  0.2397
 8484TIP3    H125416   1.088   4.803   1.558 -0.1483  0.4977 -2.5713
 8484TIP3    H225417   1.112   4.943   1.609 -0.3433  0.0140 -1.1142
 8485TIP3   OH225418   3.169   0.695   0.002  0.2763  0.3918 -0.1626
 8485TIP3    H125419   3.166   0.790  -0.012  0.7613  0.4967  0.3953
 8485TIP3    H225420   3.140   0.683   0.093  0.6719  0.0484 -0.0796
 8486TIP3   OH225421   4.014   1.249   1.543 -0.9531  0.3048  0.1357
 8486TIP3    H125422   4.005   1.338   1.511 -1.1262  0.7143  1.2754
 8486TIP3    H225423   4.044   1.259   1.634 -2.7143 -0.7371  0.8866
 8487TIP3   OH225424   0.732   6.262   5.541 -0.2542  0.0018 -0.5251
 8487TIP3    H125425   0.747   6.293   5.452  1.6179  1.6812  0.3074
 8487TIP3    H225426   0.812   6.215   5.565 -1.0962 -1.2400 -0.0138
 8488TIP3   OH225427   5.789   3.330   5.327  0.0341 -0.3814  0.3737
 8488TIP3    H125428   5.861   3.393   5.337 -1.6621  1.6000  0.8132
 8488TIP3    H225429   5.743   3.334   5.411 -2.0867  0.4269 -0.7485
 8489TIP3   OH225430   0.036   4.754   0.731  0.2256 -0.0787  0.5461
 8489TIP3    H125431   0.019   4.789   0.819 -1.4899  0.4133  0.0528
 8489TIP3    H225432   0.051   4.832   0.677 -0.6541 -0.2580  0.0264
 8490TIP3   OH225433   2.764   2.878   0.264 -0.6725 -0.3252 -0.1746
 8490TIP3    H125434   2.682   2.929   0.264 -0.8277 -0.5070 -2.0469
 8490TIP3    H225435   2.743   2.800   0.212  0.6940 -0.3499 -0.7210
 8491TIP3   OH225436   4.826   3.443   2.955  0.8729  0.2649  0.2993
 8491TIP3    H125437   4.917   3.424   2.978  1.0539  1.6631  0.8805
 8491TIP3    H225438   4.797   3.506   3.021 -0.3863  0.1492 -0.1153
 8492TIP3   OH225439   0.814   3.970   2.337  0.0194  0.1244  0.0198
 8492TIP3    H125440   0.896   3.928   2.362  1.7392  1.8804 -2.2015
 8492TIP3    H225441   0.825   4.061   2.363 -1.0567  0.4812 -0.7153
 8493TIP3   OH225442   2.624   5.274   3.209 -0.1487  0.1042  1.0153
 8493TIP3    H125443   2.548   5.254   3.264 -2.4199  1.3828 -1.4232
 8493TIP3    H225444   2.640   5.367   3.224  0.3949  0.0373  0.8488
 8494TIP3   OH225445   1.191   0.906   4.926 -0.3919  0.2938  0.0437
 8494TIP3    H125446   1.233   0.981   4.883  2.1831 -1.3310 -0.4908
 8494TIP3    H225447   1.236   0.898   5.010 -1.3374 -0.0953  0.5331
 8495TIP3   OH225448   4.338   4.496   3.525  0.2390 -0.2144  0.0195
 8495TIP3    H125449   4.326   4.552   3.602  1.6362  0.9357 -0.5448
 8495TIP3    H225450   4.432   4.499   3.509  0.0006 -0.6646 -1.5566
 8496TIP3   OH225451   2.534   1.873   2.785 -0.1127 -0.5441 -0.3215
 8496TIP3    H125452   2.500   1.871   2.875  1.6420 -1.8133  0.3716
 8496TIP3    H225453   2.617   1.921   2.792 -0.0306 -0.5306 -1.3026
 8497TIP3   OH225454   3.404   5.045   1.049 -0.4015 -0.0611 -0.0846
 8497TIP3    H125455   3.411   5.044   1.145 -1.7706 -1.5516  0.0554
 8497TIP3    H225456   3.480   5.094   1.019 -0.7749  1.8202  1.8283
 8498TIP3   OH225457   6.182   3.168   2.085 -0.5084  0.0556 -0.2811
 8498TIP3    H125458   6.271   3.202   2.074 -0.4039 -0.4707 -1.2296
 8498TIP3    H225459   6.165   3.174   2.179 -0.2813  2.1504 -0.3328
 8499TIP3   OH225460   3.454   3.752   2.660  0.1513 -0.1129  0.3166
 8499TIP3    H125461   3.428   3.675   2.710 -0.6460  0.3030  0.5575
 8499TIP3    H225462   3.423   3.735   2.571 -0.6410  0.2210  0.5221
 8500TIP3   OH225463   5.340   6.043   2.520  0.0735 -0.7290 -0.1286
 8500TIP3    H125464   5.319   6.114   2.582 -0.7019 -0.9881 -0.0805
 8500TIP3    H225465   5.405   6.081   2.462 -0.4480  0.0923 -0.2039
 8501TIP3   OH225466   3.584   0.324   5.601  0.3976 -0.0284 -0.5789
 8501TIP3    H125467   3.617   0.353   5.516 -2.0627  0.8239 -1.3299
 8501TIP3    H225468   3.613   0.392   5.662  1.0151  0.0782 -0.9809
 8502TIP3   OH225469   2.243   0.122   0.533  0.0418 -0.2564  0.4241
 8502TIP3    H125470   2.244   0.084   0.622  1.0484  0.8066  0.8858
 8502TIP3    H225471   2.188   0.062   0.483  0.3296 -1.4787  1.5065
 8503TIP3   OH225472   3.270   3.283   0.183  0.4474  0.3630 -0.1403
 8503TIP3    H125473   3.276   3.225   0.107 -0.4851 -0.6727  0.5419
 8503TIP3    H225474   3.242   3.367   0.147  1.4441  0.3047 -1.1078
 8504TIP3   OH225475   6.784   4.688   5.177 -0.5829 -0.1000 -0.3626
 8504TIP3    H125476   6.870   4.657   5.204 -0.6839 -0.3548 -0.3265
 8504TIP3    H225477   6.723   4.649   5.240 -0.4840  2.4274  1.4415
 8505TIP3   OH225478   3.066   1.829   2.697 -0.3641  0.9131 -0.2634
 8505TIP3    H125479   3.075   1.917   2.660  2.9024  0.2473 -1.4327
 8505TIP3    H225480   3.154   1.808   2.730 -1.5205 -1.2059  1.7614
 8506TIP3   OH225481   7.023   3.479   3.073  0.0654 -0.1613 -0.3932
 8506TIP3    H125482   7.078   3.530   3.132  0.7641 -1.9434  0.5700
 8506TIP3    H225483   7.084   3.442   3.010 -0.2531 -0.7940 -0.3334
 8507TIP3   OH225484   6.454   4.400   2.496  0.2747 -0.0662 -0.1810
 8507TIP3    H125485   6.359   4.404   2.486  0.2863  0.9047 -0.0019
 8507TIP3    H225486   6.469   4.410   2.590  0.5545 -0.3755 -0.1882
 8508TIP3   OH225487   5.436   1.710   4.561 -0.0224  0.3246  0.4388
 8508TIP3    H125488   5.447   1.618   4.582 -0.0202  0.4054  0.7955
 8508TIP3    H225489   5.503   1.755   4.613 -0.0439  0.5294  0.2911
 8509TIP3   OH225490   1.784   0.678   5.258  0.2822 -0.4361  0.1119
 8509TIP3    H125491   1.802   0.605   5.317 -2.4569 -0.1106  1.5171
 8509TIP3    H225492   1.753   0.748   5.316 -1.5244  0.2640 -1.6092
 8510TIP3   OH225493   7.058   5.265   2.775  0.0326  0.1489  0.0236
 8510TIP3    H125494   7.059   5.348   2.727 -1.0998  0.6620  0.8337
 8510TIP3    H225495   7.150   5.243   2.787  0.3442  0.5949 -1.3722
 8511TIP3   OH225496   3.857   3.265   4.024  0.6914 -0.6566 -0.3023
 8511TIP3    H125497   3.815   3.228   4.102  0.6538  0.6424  0.3192
 8511TIP3    H225498   3.875   3.189   3.968  2.5406 -1.9255  1.8220
 8512TIP3   OH225499   4.929   4.420   3.594 -0.1852  0.0346 -0.1528
 8512TIP3    H125500   4.844   4.376   3.584  0.3897 -0.8486 -1.4586
 8512TIP3    H225501   4.913   4.510   3.565 -0.5267 -0.2963 -1.0155
 8513TIP3   OH225502   0.438   5.410   2.331 -0.1801 -0.0242  0.0124
 8513TIP3    H125503   0.509   5.366   2.378 -1.5001 -1.3987  0.8147
 8513TIP3    H225504   0.417   5.485   2.386  0.2494  0.0524  0.0809
 8514TIP3   OH225505   6.046   2.292   5.412 -0.3102 -0.0794  0.6602
 8514TIP3    H125506   5.986   2.295   5.486  0.1493  0.0102  1.0310
 8514TIP3    H225507   6.122   2.342   5.440  0.2718 -0.8473  0.4916
 8515TIP3   OH225508   3.004   3.364   2.308 -0.0393 -0.4322  0.1853
 8515TIP3    H125509   2.984   3.447   2.265  0.0552  0.3437  1.5823
 8515TIP3    H225510   3.088   3.338   2.270 -0.4798 -0.3416 -0.8863
 8516TIP3   OH225511   1.635   1.249   3.288  0.3774  0.3059 -0.0412
 8516TIP3    H125512   1.626   1.169   3.340  1.1465  0.1031 -0.2095
 8516TIP3    H225513   1.715   1.290   3.321 -0.8450  1.8611  1.1744
 8517TIP3   OH225514   2.156   0.715   5.755  0.0962  0.3801  0.1986
 8517TIP3    H125515   2.181   0.662   5.830 -0.8081  0.7174  0.7525
 8517TIP3    H225516   2.107   0.655   5.698 -0.1850  0.4033  0.4151
 8518TIP3   OH225517   5.260   2.042   4.419 -0.3443  0.0876  0.3582
 8518TIP3    H125518   5.347   2.049   4.458  0.0356 -0.2690 -0.3992
 8518TIP3    H225519   5.204   2.097   4.474 -0.1990 -1.6892  2.4299
 8519TIP3   OH225520   1.710   5.574   4.984  0.0081 -0.7185 -0.0429
 8519TIP3    H125521   1.684   5.659   4.947 -1.6781 -1.6382 -1.1191
 8519TIP3    H225522   1.803   5.565   4.961 -0.3912 -0.1925 -2.0542
 8520TIP3   OH225523   0.914   5.298   1.025 -0.1740  0.1421  0.2285
 8520TIP3    H125524   1.000   5.304   0.985 -0.4049  1.1109 -0.1554
 8520TIP3    H225525   0.879   5.387   1.020 -0.6239  0.0723  1.6694
 8521TIP3   OH225526   5.096   2.899   2.027 -0.0382  0.5615  0.2484
 8521TIP3    H125527   5.005   2.926   2.021 -0.7408 -0.4128  4.0609
 8521TIP3    H225528   5.095   2.805   2.008  0.7569  1.0251 -2.5777
 8522TIP3   OH225529   7.014   0.671   0.378  0.7105  0.4002  0.0624
 8522TIP3    H125530   6.946   0.614   0.341  1.0274  0.3354 -0.4348
 8522TIP3    H225531   6.976   0.704   0.459  0.5318 -0.5460  0.3770
 8523TIP3   OH225532   7.018   2.076   0.992 -0.2449 -0.3809  0.0490
 8523TIP3    H125533   7.103   2.092   0.950  0.5825 -3.5862  0.2966
 8523TIP3    H225534   6.968   2.028   0.927 -0.3558 -2.0172  1.2928
 8524TIP3   OH225535   6.786   3.575   2.125  0.3465 -0.3252  0.3145
 8524TIP3    H125536   6.754   3.503   2.179 -0.7880 -0.4159 -0.4435
 8524TIP3    H225537   6.748   3.654   2.163  0.8684 -0.2055  0.6068
 8525TIP3   OH225538   6.601   6.558   3.311  0.4098 -0.8465  0.2555
 8525TIP3    H125539   6.697   6.557   3.309  0.4257  0.4117 -1.3855
 8525TIP3    H225540   6.576   6.466   3.301  1.4054 -1.4370  2.5158
 8526TIP3   OH225541   3.977   5.412   2.401  0.0573  0.0341 -0.5165
 8526TIP3    H125542   4.021   5.341   2.448  0.1812 -1.1544 -2.3223
 8526TIP3    H225543   4.048   5.472   2.377  0.0268  0.5111  0.5386
 8527TIP3   OH225544   4.177   5.269   5.038  0.2000  0.2779  0.2458
 8527TIP3    H125545   4.131   5.339   4.991  0.6178 -0.4167 -1.2854
 8527TIP3    H225546   4.189   5.303   5.126  0.2200  2.0765 -0.3990
 8528TIP3   OH225547   6.252   4.259   0.530 -0.0441  0.2162  0.1434
 8528TIP3    H125548   6.319   4.327   0.531  2.0504 -1.6985  1.8551
 8528TIP3    H225549   6.228   4.246   0.622 -0.5532 -1.1719 -0.1461
 8529TIP3   OH225550   3.250   6.471   1.564  0.0125  0.0506 -0.0723
 8529TIP3    H125551   3.163   6.511   1.574 -0.0789 -0.1266 -0.1565
 8529TIP3    H225552   3.255   6.448   1.472  0.7797  1.5095 -0.4160
 8530TIP3   OH225553   7.208   2.786   5.684 -0.1174  0.5268 -0.8723
 8530TIP3    H125554   7.209   2.828   5.770 -1.4912  0.7724 -0.9538
 8530TIP3    H225555   7.129   2.733   5.685  1.1222 -1.4084 -1.1009
 8531TIP3   OH225556   2.798   5.097   0.870  0.0251  0.1962 -0.3602
 8531TIP3    H125557   2.785   5.140   0.785 -0.2371  0.4670 -0.1841
 8531TIP3    H225558   2.839   5.164   0.925 -0.0235  0.0963 -0.2021
 8532TIP3   OH225559   3.055   4.602   4.071 -0.5417  0.4289 -0.2281
 8532TIP3    H125560   3.007   4.683   4.054 -0.1180  1.0054  1.1606
 8532TIP3    H225561   3.146   4.630   4.086 -0.6679 -0.0761  1.8228
 8533TIP3   OH225562   3.542   3.475   2.858  0.0309 -0.0598  0.5859
 8533TIP3    H125563   3.619   3.460   2.804 -1.1824 -4.0346 -0.4224
 8533TIP3    H225564   3.573   3.466   2.948  1.1220  0.8751  0.3173
 8534TIP3   OH225565   2.012   1.043   5.273  0.1014  0.1309 -0.2772
 8534TIP3    H125566   2.077   1.031   5.342  1.0270  0.1476 -1.1173
 8534TIP3    H225567   2.057   1.015   5.193 -0.8200  0.4643 -0.9302
 8535TIP3   OH225568   6.921   1.291   5.720  0.2203  0.0955  0.5541
 8535TIP3    H125569   6.954   1.228   5.785 -0.2836 -1.4570 -0.6240
 8535TIP3    H225570   6.952   1.376   5.751  1.9483 -0.8487  1.5779
 8536TIP3   OH225571   5.378   6.336   3.733 -0.3130  0.2939 -0.2561
 8536TIP3    H125572   5.426   6.259   3.762 -0.0293  0.4479 -0.3078
 8536TIP3    H225573   5.421   6.409   3.778 -0.2975  0.4665 -0.5452
 8537TIP3   OH225574   2.871   2.449   2.783 -0.1357  0.1904  0.2656
 8537TIP3    H125575   2.870   2.498   2.866 -1.1097 -0.0208  0.3931
 8537TIP3    H225576   2.791   2.476   2.738  0.3605  0.2613 -0.5899
 8538TIP3   OH225577   1.885   4.979   2.477  0.2982 -0.3410 -0.8612
 8538TIP3    H125578   1.850   5.004   2.392 -0.5658  0.4835 -0.2886
 8538TIP3    H225579   1.816   4.925   2.516  1.2769 -1.9362 -1.2343
 8539TIP3   OH225580   2.053   4.511   5.793 -0.2692  0.4887 -0.2554
 8539TIP3    H125581   2.001   4.513   5.713  0.1288 -0.1108 -0.5429
 8539TIP3    H225582   1.993   4.538   5.862 -1.2962 -1.2733 -0.4067
 8540TIP3   OH225583   4.706   4.278   3.529 -0.4926 -0.3067 -0.2580
 8540TIP3    H125584   4.631   4.222   3.546 -0.9693  0.6859  1.0036
 8540TIP3    H225585   4.668   4.364   3.509  0.2691 -0.0784 -0.7697
 8541TIP3   OH225586   5.295   6.157   3.508 -0.3215  0.0202 -0.1458
 8541TIP3    H125587   5.348   6.095   3.559 -0.1853 -0.2854 -0.6511
 8541TIP3    H225588   5.279   6.230   3.568 -1.8788 -1.2050  1.0172
 8542TIP3   OH225589   4.812   4.691   1.552 -0.1732  0.1637 -0.0585
 8542TIP3    H125590   4.827   4.652   1.638  1.3868 -1.3195 -0.9378
 8542TIP3    H225591   4.855   4.776   1.556 -0.3640  0.2255  0.7150
 8543TIP3   OH225592   3.712   4.528   0.566  0.9102  0.0577 -0.2901
 8543TIP3    H125593   3.635   4.555   0.517  0.4551  0.4690  0.6282
 8543TIP3    H225594   3.677   4.482   0.642  1.5724  0.1865  0.0991
 8544TIP3   OH225595   5.550   6.766   0.783  0.5414 -0.7263  0.0236
 8544TIP3    H125596   5.486   6.837   0.782 -0.7607 -1.7908 -2.4420
 8544TIP3    H225597   5.511   6.699   0.839  1.0414 -0.1637  1.0816
 8545TIP3   OH225598   3.688   4.119   4.570 -0.0484  0.1175  0.1077
 8545TIP3    H125599   3.659   4.144   4.482 -0.0341 -0.8668 -0.1868
 8545TIP3    H225600   3.615   4.071   4.607  0.1591  0.0437  0.4240
 8546TIP3   OH225601   6.968   5.179   3.057 -0.3406 -0.0613 -0.3042
 8546TIP3    H125602   7.031   5.200   2.988  1.0496 -2.4442  0.1426
 8546TIP3    H225603   6.950   5.263   3.100  0.2669  1.1365 -2.2948
 8547TIP3   OH225604   6.878   2.255   2.808  0.4154  0.1309  0.1010
 8547TIP3    H125605   6.848   2.316   2.875 -1.9197 -0.1577 -0.5730
 8547TIP3    H225606   6.807   2.190   2.801  2.4425 -2.2209  0.2301
 8548TIP3   OH225607   4.792   1.975   3.408  0.2510 -0.4847 -0.2422
 8548TIP3    H125608   4.785   2.057   3.361 -0.9024 -0.2613  0.2703
 8548TIP3    H225609   4.813   1.910   3.341  2.1957  0.3541 -0.5017
 8549TIP3   OH225610   5.678   6.464   4.654 -0.0877  0.3615  0.4108
 8549TIP3    H125611   5.725   6.535   4.609  0.7881 -0.8448 -0.6579
 8549TIP3    H225612   5.608   6.508   4.701  0.8569  2.0113  0.3524
 8550TIP3   OH225613   1.304   2.731   5.747  0.3176 -0.1151  0.7948
 8550TIP3    H125614   1.384   2.737   5.694 -1.2007  1.1444 -1.4825
 8550TIP3    H225615   1.289   2.637   5.757  0.0077 -0.4658 -2.1674
 8551TIP3   OH225616   5.096   2.327   2.799  0.7415  0.0650  0.4908
 8551TIP3    H125617   5.170   2.284   2.841  1.1411 -0.7348 -0.9546
 8551TIP3    H225618   5.026   2.263   2.802  1.1054 -0.4426 -0.9811
 8552TIP3   OH225619   6.920   6.055   4.136 -0.2517 -0.1810 -0.1251
 8552TIP3    H125620   6.827   6.077   4.133  0.0963  1.2800 -1.7244
 8552TIP3    H225621   6.962   6.133   4.175  0.2750 -1.0530  1.1287
 8553TIP3   OH225622   2.627   4.629   5.120 -0.8477 -0.0646 -0.5612
 8553TIP3    H125623   2.580   4.698   5.073  0.4957  1.2942 -0.0021
 8553TIP3    H225624   2.687   4.593   5.055  0.2036  1.0407 -0.2588
 8554TIP3   OH225625   5.003   3.738   4.597  0.7241  0.6936 -0.2738
 8554TIP3    H125626   4.928   3.783   4.559 -2.0594 -2.3873  1.0260
 8554TIP3    H225627   5.018   3.783   4.681 -0.8139  0.3626  0.2069
 8555TIP3   OH225628   1.455   1.468   5.743  0.0057 -0.4048  0.7518
 8555TIP3    H125629   1.377   1.415   5.725 -0.4234  0.8595 -1.5332
 8555TIP3    H225630   1.527   1.405   5.745 -0.6324 -1.2389 -0.7006
 8556TIP3   OH225631   0.224   4.530   4.793 -0.6314  0.2682  0.0147
 8556TIP3    H125632   0.205   4.440   4.769 -0.2528  0.4329 -0.9541
 8556TIP3    H225633   0.144   4.578   4.773 -0.5114  0.3057 -0.3841
 8557TIP3   OH225634   3.967   5.882   4.754 -0.2494  0.1179 -0.4566
 8557TIP3    H125635   4.058   5.903   4.732 -0.0897  0.2456  0.2950
 8557TIP3    H225636   3.939   5.822   4.684  0.5134 -0.1821 -0.5220
 8558TIP3   OH225637   2.300   3.100   3.143 -0.0630  0.1376 -0.1544
 8558TIP3    H125638   2.245   3.061   3.211  0.6235  0.6686  0.7326
 8558TIP3    H225639   2.337   3.178   3.184  1.8965 -0.5701 -0.4401
 8559TIP3   OH225640   0.526   3.685   5.151 -0.1183 -0.4137  0.4315
 8559TIP3    H125641   0.566   3.626   5.086 -1.1588 -1.6614  0.8706
 8559TIP3    H225642   0.508   3.765   5.102 -0.4426 -1.1530 -0.7148
 8560TIP3   OH225643   2.543   5.513   5.479 -0.1674 -0.4162  0.0926
 8560TIP3    H125644   2.559   5.476   5.392 -0.8607 -0.7660  0.1068
 8560TIP3    H225645   2.536   5.607   5.464  2.4960 -0.1459  0.1770
 8561TIP3   OH225646   3.715   1.510   5.794 -0.1988  0.1593  0.0208
 8561TIP3    H125647   3.651   1.537   5.729 -0.7857  0.9262  0.8953
 8561TIP3    H225648   3.749   1.592   5.830 -0.5798 -0.2249  1.3346
 8562TIP3   OH225649   2.428   4.541   5.474  0.5473  0.1427 -0.2203
 8562TIP3    H125650   2.413   4.477   5.405  1.0459  0.3692 -0.5432
 8562TIP3    H225651   2.419   4.626   5.431 -0.7504  0.3090  0.3417
 8563TIP3   OH225652   5.846   3.989   3.699 -0.8035  0.0610  0.0646
 8563TIP3    H125653   5.758   3.966   3.729 -0.4379  1.8484  2.9520
 8563TIP3    H225654   5.903   3.927   3.743 -0.5150  0.0515 -0.3258
 8564TIP3   OH225655   5.005   1.700   2.121  0.1108  0.1214  0.1477
 8564TIP3    H125656   4.979   1.734   2.036 -0.2830  0.5790  0.4413
 8564TIP3    H225657   4.967   1.762   2.184 -0.2776 -0.6476  0.6805
 8565TIP3   OH225658   4.362   6.133   2.829  0.2972 -0.3202 -0.5232
 8565TIP3    H125659   4.435   6.149   2.889 -0.3348  1.0828 -0.0614
 8565TIP3    H225660   4.288   6.114   2.886 -0.3938  1.3548 -0.7752
 8566TIP3   OH225661   2.077   5.121   4.656  0.1214 -0.1888 -0.5173
 8566TIP3    H125662   2.099   5.035   4.621  0.4144 -0.5913  0.6019
 8566TIP3    H225663   1.984   5.133   4.635  0.3819 -0.2294 -1.7498
 8567TIP3   OH225664   6.443   5.481   5.712  0.0790  0.3980 -0.3330
 8567TIP3    H125665   6.423   5.546   5.779 -0.5918  0.5948 -0.7039
 8567TIP3    H225666   6.459   5.532   5.633  2.4774  0.2613  0.0055
 8568TIP3   OH225667   6.729   1.967   5.290  0.5328 -0.3803  0.3109
 8568TIP3    H125668   6.816   2.001   5.308  0.6691 -0.0405 -0.8837
 8568TIP3    H225669   6.719   1.892   5.348  1.5058 -0.2406  0.6616
 8569TIP3   OH225670   1.613   3.104   5.807  0.3282 -0.2656 -0.0604
 8569TIP3    H125671   1.688   3.138   5.856 -0.7748  1.8865  0.2371
 8569TIP3    H225672   1.629   3.130   5.716  0.8622 -1.5673 -0.3738
 8570TIP3   OH225673   2.191   0.620   4.615 -0.0199 -0.2893 -0.3418
 8570TIP3    H125674   2.205   0.549   4.552 -0.3864 -0.0466 -0.6949
 8570TIP3    H225675   2.120   0.673   4.578  1.3092  1.1937 -0.9115
 8571TIP3   OH225676   2.031   2.437   5.311 -0.2024  0.0125 -0.2274
 8571TIP3    H125677   1.996   2.464   5.226 -1.1008 -0.1715  0.0767
 8571TIP3    H225678   2.024   2.341   5.311 -0.6195  0.0396  0.2268
 8572TIP3   OH225679   5.032   5.486   1.082  0.3363 -0.2171  0.2624
 8572TIP3    H125680   4.970   5.528   1.022  0.5531  1.7489  1.3413
 8572TIP3    H225681   5.108   5.545   1.084 -0.1699  0.5396  3.3994
 8573TIP3   OH225682   0.431   4.078   0.197  0.4684  0.2337  0.0613
 8573TIP3    H125683   0.433   4.002   0.256  0.7014  0.1511 -0.0492
 8573TIP3    H225684   0.518   4.079   0.158  0.0014 -0.3026 -1.0224
 8574TIP3   OH225685   3.967   1.990   2.613 -0.1805 -0.1604 -0.2995
 8574TIP3    H125686   3.945   1.916   2.557  1.2601 -0.8301 -0.0320
 8574TIP3    H225687   3.948   2.067   2.560  0.0695 -0.7626 -1.2842
 8575TIP3   OH225688   3.384   5.567   4.576 -0.7232 -0.1221  0.1537
 8575TIP3    H125689   3.415   5.590   4.663 -1.3212  0.5802  0.1933
 8575TIP3    H225690   3.395   5.472   4.570  5.1346  0.3054 -1.3361
 8576TIP3   OH225691   6.931   0.604   1.599 -0.6022  0.4660  0.3835
 8576TIP3    H125692   7.009   0.555   1.626 -1.5058 -2.4668 -1.8286
 8576TIP3    H225693   6.857   0.549   1.627 -1.7297  1.2500 -0.9169
 8577TIP3   OH225694   1.474   6.716   1.240  0.2345 -0.7109 -0.1433
 8577TIP3    H125695   1.551   6.733   1.294  0.1208 -2.3953  0.5952
 8577TIP3    H225696   1.405   6.769   1.281  0.7217 -0.0435 -0.1607
 8578TIP3   OH225697   4.346   1.379   0.654  0.3303  0.6189 -0.1000
 8578TIP3    H125698   4.418   1.417   0.705 -0.5187  1.2364  0.6523
 8578TIP3    H225699   4.300   1.323   0.716 -0.9326  1.6636 -0.0742
 8579TIP3   OH225700   1.423   1.709   1.500  1.1445  0.1387 -0.0465
 8579TIP3    H125701   1.367   1.644   1.457  0.6682  0.4290  0.1313
 8579TIP3    H225702   1.502   1.660   1.523  1.4839  0.0204 -1.4027
 8580TIP3   OH225703   4.268   3.363   1.188 -0.6347 -0.4670 -0.1412
 8580TIP3    H125704   4.306   3.290   1.237  2.3224  0.9599 -0.1066
 8580TIP3    H225705   4.257   3.433   1.253  0.7410  0.5363 -0.9454
 8581TIP3   OH225706   3.517   0.465   2.902  0.0183 -0.3854 -0.2205
 8581TIP3    H125707   3.431   0.447   2.942  0.0645  0.2686  0.1892
 8581TIP3    H225708   3.578   0.409   2.950 -0.1205 -0.5362 -0.2213
 8582TIP3   OH225709   6.740   1.112   3.378 -0.0861 -0.1577  0.2782
 8582TIP3    H125710   6.767   1.025   3.407  3.8330  0.5866 -0.5294
 8582TIP3    H225711   6.737   1.105   3.282  0.2793  0.5723  0.2069
 8583TIP3   OH225712   0.679   4.025   4.291  0.5709 -0.8086  0.1525
 8583TIP3    H125713   0.725   4.099   4.331  0.9887 -1.4177  0.8110
 8583TIP3    H225714   0.732   4.002   4.215  0.2089 -0.1616 -0.3035
 8584TIP3   OH225715   0.298   3.418   3.202  0.3285 -0.8381  0.1489
 8584TIP3    H125716   0.249   3.335   3.201  1.3398 -1.4538 -0.2093
 8584TIP3    H225717   0.388   3.392   3.183  0.1812  0.6515 -3.3511
 8585TIP3   OH225718   0.879   5.690   4.229 -0.3334 -0.4918 -0.2605
 8585TIP3    H125719   0.865   5.697   4.134 -1.0992  0.3474 -0.1066
 8585TIP3    H225720   0.790   5.693   4.266 -0.0902 -1.4686  0.4608
 8586TIP3   OH225721   0.031   6.573   3.164  0.3661  0.2341  0.4779
 8586TIP3    H125722  -0.060   6.588   3.142 -0.4481 -0.8513  2.7417
 8586TIP3    H225723   0.078   6.646   3.125 -1.4820  0.9131 -0.5882
 8587TIP3   OH225724   0.279   4.762   1.912 -0.4358 -0.6072 -0.1553
 8587TIP3    H125725   0.327   4.755   1.829 -0.9017  1.4850 -0.6564
 8587TIP3    H225726   0.187   4.752   1.887 -0.4682 -2.2866  0.4845
 8588TIP3   OH225727   0.593   5.797   2.446 -0.2278  0.4387 -0.0206
 8588TIP3    H125728   0.662   5.791   2.379  0.2646  0.3460  0.4829
 8588TIP3    H225729   0.621   5.870   2.503 -1.1949  1.2307 -0.5263
 8589TIP3   OH225730   2.630   4.027   2.178  0.6646 -0.7642  0.3034
 8589TIP3    H125731   2.692   4.090   2.141  0.0195 -1.3410 -1.8948
 8589TIP3    H225732   2.661   3.942   2.146  1.1840 -1.5624  2.7444
 8590TIP3   OH225733   6.980   1.778   1.785 -0.5867 -0.0885  0.2021
 8590TIP3    H125734   6.918   1.810   1.850  0.1417 -0.5951  1.1680
 8590TIP3    H225735   6.937   1.795   1.701 -0.6793  2.4627  0.6849
 8591TIP3   OH225736   6.494   2.524   1.597 -0.6569  0.5241  0.1418
 8591TIP3    H125737   6.494   2.511   1.692 -1.6113  1.5074  0.2941
 8591TIP3    H225738   6.443   2.604   1.584 -2.2613 -0.6820 -1.3516
 8592TIP3   OH225739   0.137   4.609   3.257 -0.0275 -0.4050 -0.3179
 8592TIP3    H125740   0.155   4.702   3.240 -0.4967 -0.7773 -3.5339
 8592TIP3    H225741   0.060   4.610   3.313  1.6957  1.0716  2.2661
 8593TIP3   OH225742   5.291   5.785   4.943 -0.6366 -0.1445  0.0384
 8593TIP3    H125743   5.259   5.851   5.004  1.1324 -0.1398  1.0162
 8593TIP3    H225744   5.335   5.835   4.874 -0.1450 -0.2516  0.2699
 8594TIP3   OH225745   2.700   6.565   0.887 -0.3607 -0.4463 -0.2102
 8594TIP3    H125746   2.660   6.593   0.805  1.2372 -3.0417 -2.0279
 8594TIP3    H225747   2.790   6.598   0.882 -0.2108 -0.7571  0.4201
 8595TIP3   OH225748   5.564   6.680   4.810  0.5731  0.6633  0.0856
 8595TIP3    H125749   5.497   6.748   4.808  0.0804  0.3172  2.3610
 8595TIP3    H225750   5.577   6.661   4.903  1.9330 -1.1457 -0.4090
 8596TIP3   OH225751   1.214   6.721   2.759  0.3560  0.0811  0.5886
 8596TIP3    H125752   1.119   6.728   2.771  0.3931 -0.3537  1.2059
 8596TIP3    H225753   1.232   6.627   2.766  0.5609 -0.1102 -1.7771
 8597TIP3   OH225754   7.012   6.290   5.428 -0.1038 -0.6751 -0.4931
 8597TIP3    H125755   6.972   6.280   5.341  0.0804 -2.1226 -0.4374
 8597TIP3    H225756   7.084   6.351   5.415 -0.9768  0.2756 -1.0419
 8598TIP3   OH225757   5.346   0.045   5.066  0.0684  0.2132 -0.1437
 8598TIP3    H125758   5.311  -0.004   4.992  0.7421  1.5746 -1.4317
 8598TIP3    H225759   5.275   0.106   5.089  0.4432  0.9144 -0.7831
 8599TIP3   OH225760   2.276   1.137   1.411  0.1016 -0.1741 -0.0038
 8599TIP3    H125761   2.306   1.048   1.394 -0.4189 -0.3164 -0.1644
 8599TIP3    H225762   2.353   1.192   1.391  0.3470 -0.5608 -0.1361
 8600TIP3   OH225763   1.947   1.813   5.712 -0.0921  0.3954 -0.0335
 8600TIP3    H125764   2.042   1.825   5.716 -0.0534  0.9242 -1.7148
 8600TIP3    H225765   1.932   1.727   5.751  1.3247 -0.6627 -1.6473
 8601TIP3   OH225766   3.221   0.858   1.677  0.1775  0.5457  0.0732
 8601TIP3    H125767   3.278   0.933   1.665  0.3803  0.5141  0.8098
 8601TIP3    H225768   3.157   0.886   1.743  0.0050  0.2134  0.0516
 8602TIP3   OH225769   3.814   2.274   3.674 -0.0443 -0.0458  0.2202
 8602TIP3    H125770   3.878   2.345   3.673 -1.2964  1.1205 -0.9022
 8602TIP3    H225771   3.779   2.272   3.585 -0.3315 -1.8424  0.3247
 8603TIP3   OH225772   3.340   0.417   1.382 -0.0439  0.2774  0.3415
 8603TIP3    H125773   3.434   0.400   1.388  0.1493  0.8871 -0.6627
 8603TIP3    H225774   3.318   0.461   1.464  0.3305 -0.7741  1.0286
 8604TIP3   OH225775   1.381   1.242   5.590 -0.0290 -0.0044  0.1873
 8604TIP3    H125776   1.353   1.194   5.512  0.8380 -0.0841 -0.0822
 8604TIP3    H225777   1.468   1.209   5.609  0.8115  1.8261 -0.3081
 8605TIP3   OH225778   6.404   4.068   4.139 -0.2894  0.4416 -0.4281
 8605TIP3    H125779   6.320   4.065   4.093 -0.0625  2.4331 -1.1053
 8605TIP3    H225780   6.381   4.077   4.231 -0.8049  0.2237 -0.5321
 8606TIP3   OH225781   3.162   1.720   4.121  0.5780 -0.4163 -0.5006
 8606TIP3    H125782   3.151   1.760   4.207 -0.2248 -0.0200 -0.7715
 8606TIP3    H225783   3.224   1.648   4.135  1.8830  0.7663  0.0487
 8607TIP3   OH225784   0.924   0.530   3.924 -0.5153 -0.3684 -0.2991
 8607TIP3    H125785   0.872   0.482   3.859  0.8134 -1.5195 -0.5468
 8607TIP3    H225786   0.960   0.462   3.981  1.9261  0.2360 -1.0334
 8608TIP3   OH225787   3.605   0.926   4.456  0.2713  0.0616  0.1657
 8608TIP3    H125788   3.664   0.910   4.529  0.7288  0.0358 -0.2017
 8608TIP3    H225789   3.529   0.971   4.494  0.6861  0.4091  0.5840
 8609TIP3   OH225790   6.691   5.142   1.023 -0.1062 -0.4394 -0.3580
 8609TIP3    H125791   6.640   5.107   1.096 -1.0984 -0.8113 -1.2225
 8609TIP3    H225792   6.661   5.094   0.947 -2.0892  2.7532 -1.7668
 8610TIP3   OH225793   2.959   5.955   3.060 -0.1199  0.5583  0.5184
 8610TIP3    H125794   2.915   5.920   2.983 -0.7944  0.8155  0.7878
 8610TIP3    H225795   2.974   6.047   3.040 -2.8872  1.3867  1.8037
 8611TIP3   OH225796   6.702   3.387   2.299 -0.2742  0.3819  0.2829
 8611TIP3    H125797   6.607   3.377   2.310 -0.0693 -2.4222  0.2146
 8611TIP3    H225798   6.737   3.299   2.314  2.3748  1.4181  0.6565
 8612TIP3   OH225799   2.939   3.355   0.623  0.4728 -0.3369 -0.1596
 8612TIP3    H125800   2.873   3.418   0.595  0.5946  0.5157  1.3472
 8612TIP3    H225801   2.984   3.329   0.542  0.5531  1.6705 -0.8212
 8613TIP3   OH225802   0.482   6.259   3.299 -0.5161  0.1647  0.3802
 8613TIP3    H125803   0.570   6.291   3.281 -0.9931  1.6036  0.4453
 8613TIP3    H225804   0.427   6.338   3.299 -2.7240 -1.0285 -4.5042
 8614TIP3   OH225805   1.268   4.109   5.501 -0.0891 -0.0948 -0.0984
 8614TIP3    H125806   1.212   4.155   5.439 -0.4799 -1.6998 -0.9969
 8614TIP3    H225807   1.356   4.119   5.466 -0.3553 -1.3819 -1.2322
 8615TIP3   OH225808   2.991   0.380   1.961  0.6515  0.6457  0.4384
 8615TIP3    H125809   2.980   0.290   1.929  2.3739  0.6804 -0.3253
 8615TIP3    H225810   2.904   0.404   1.994 -0.1664 -0.8300 -0.5238
 8616TIP3   OH225811   3.734   4.496   3.964  0.5845  0.3393  0.5814
 8616TIP3    H125812   3.820   4.509   4.004  0.8257  1.6375 -0.2873
 8616TIP3    H225813   3.737   4.549   3.885 -0.9508  0.2133  0.4178
 8617TIP3   OH225814   6.118   0.941   4.039  0.2135  0.0640  0.0317
 8617TIP3    H125815   6.070   0.910   3.962 -0.6541  0.2435  0.4898
 8617TIP3    H225816   6.086   1.030   4.054  1.2420  0.4710 -0.0884
 8618TIP3   OH225817   2.120   0.280   4.072 -0.4964 -0.8425 -0.1162
 8618TIP3    H125818   2.116   0.223   3.996 -0.2064 -1.2880  0.1958
 8618TIP3    H225819   2.151   0.364   4.039  0.2956 -1.2312 -0.3797
 8619TIP3   OH225820   4.577   0.230   2.846 -0.1152 -0.2234 -0.0264
 8619TIP3    H125821   4.504   0.195   2.897 -0.6702  0.9998  0.0537
 8619TIP3    H225822   4.550   0.219   2.755  0.2384 -1.0709 -0.0392
 8620TIP3   OH225823   3.724   1.940   5.615  0.1465 -0.1592  0.0217
 8620TIP3    H125824   3.681   1.854   5.618  0.2586 -0.2022  2.0860
 8620TIP3    H225825   3.655   2.001   5.590 -0.0633 -0.7512 -0.9143
 8621TIP3   OH225826   1.281   0.722   2.579  0.4720 -0.0298  0.5478
 8621TIP3    H125827   1.348   0.773   2.532  0.0901  0.8977  1.0055
 8621TIP3    H225828   1.290   0.634   2.542  0.3161  0.6195 -1.1385
 8622TIP3   OH225829   5.901   6.050   5.667  0.4599 -0.1438 -0.1182
 8622TIP3    H125830   5.968   6.109   5.699  1.9800 -1.3610 -0.9324
 8622TIP3    H225831   5.867   6.007   5.746 -1.0087  2.0599  0.5324
 8623TIP3   OH225832   3.294   4.844   5.221  0.1383 -0.2367  0.4257
 8623TIP3    H125833   3.295   4.774   5.286 -2.3714  1.4159  2.4456
 8623TIP3    H225834   3.213   4.831   5.172  1.2358 -0.5359 -1.4188
 8624TIP3   OH225835   6.374   4.302   2.758 -0.0596  0.3553 -0.2808
 8624TIP3    H125836   6.409   4.213   2.764 -0.0066  0.1894 -2.4205
 8624TIP3    H225837   6.311   4.308   2.830  0.7977 -0.9918  0.6230
 8625TIP3   OH225838   4.025   5.015   4.428 -0.1998  0.6523  0.1597
 8625TIP3    H125839   4.014   4.957   4.353 -0.7639  0.1676  0.5979
 8625TIP3    H225840   4.011   4.958   4.504  0.5716  1.0893  0.6380
 8626TIP3   OH225841   0.499   4.263   3.993  0.5419  0.1144  0.2175
 8626TIP3    H125842   0.476   4.171   3.978 -0.8250  0.2473  1.2515
 8626TIP3    H225843   0.420   4.312   3.970  0.8408  0.9168  0.8438
 8627TIP3   OH225844   2.056   0.758   2.693  0.0203  0.3675  0.0297
 8627TIP3    H125845   2.035   0.844   2.657  0.6505  0.6972  0.4232
 8627TIP3    H225846   2.147   0.766   2.724  0.8846 -1.0697 -1.9146
 8628TIP3   OH225847   2.014   2.314   2.365 -0.1559 -0.1961  0.2471
 8628TIP3    H125848   2.039   2.266   2.444  1.0753  0.5729  0.3552
 8628TIP3    H225849   1.956   2.384   2.397 -1.1111 -0.9491  0.2171
 8629TIP3   OH225850   6.510   4.073   3.750 -0.1358 -0.0393  0.1264
 8629TIP3    H125851   6.431   4.024   3.773  0.1852 -0.0587  1.2788
 8629TIP3    H225852   6.504   4.087   3.656 -2.3525  1.3914  0.3923
 8630TIP3   OH225853   0.658   0.619   3.688 -0.3063 -0.1776  0.2644
 8630TIP3    H125854   0.707   0.539   3.706 -1.3597 -0.5295  1.7376
 8630TIP3    H225855   0.612   0.601   3.606  0.4216 -0.5980 -0.0611
 8631TIP3   OH225856   4.047   4.099   3.222 -0.7230  0.4194 -0.8774
 8631TIP3    H125857   4.102   4.093   3.299 -0.7986 -0.4062 -0.8770
 8631TIP3    H225858   3.968   4.144   3.252 -0.8649 -0.1321 -0.4055
 8632TIP3   OH225859   1.412   1.625   5.366  0.5681  0.1985  0.2795
 8632TIP3    H125860   1.483   1.688   5.379  1.3753 -0.2921 -1.3581
 8632TIP3    H225861   1.433   1.584   5.282 -1.6020 -0.0776 -0.1766
 8633TIP3   OH225862   6.925   5.921   1.846 -0.7873 -0.1582 -0.2409
 8633TIP3    H125863   6.968   5.865   1.782 -0.8470 -1.1107  0.5312
 8633TIP3    H225864   6.841   5.878   1.863 -0.9464  0.3031  0.1705
 8634TIP3   OH225865   3.818   2.219   3.936  0.2386  0.4999 -0.0053
 8634TIP3    H125866   3.743   2.159   3.931  1.6480 -1.2933 -0.9145
 8634TIP3    H225867   3.817   2.265   3.852  0.4707  0.0207 -0.2806
 8635TIP3   OH225868   1.079   6.306   4.369 -0.0498 -0.0165 -0.5744
 8635TIP3    H125869   1.106   6.219   4.399 -0.1273 -0.5174 -1.8908
 8635TIP3    H225870   0.986   6.297   4.348 -0.1567  0.4955 -0.3402
 8636TIP3   OH225871   1.517   5.867   0.734 -0.3199 -0.0809  0.6460
 8636TIP3    H125872   1.538   5.840   0.823  0.2133 -1.1098  0.2242
 8636TIP3    H225873   1.547   5.957   0.728 -1.2858  0.3449  1.8087
 8637TIP3   OH225874   0.252   3.598   5.285 -0.6675  0.2524 -0.3126
 8637TIP3    H125875   0.240   3.504   5.271  0.2895 -0.1131  1.0972
 8637TIP3    H225876   0.340   3.616   5.251 -0.4087  0.3947  0.4077
 8638TIP3   OH225877   5.093   0.427   4.587 -0.4955 -0.2095 -0.4164
 8638TIP3    H125878   5.020   0.479   4.619 -0.2751 -0.6908  0.9317
 8638TIP3    H225879   5.081   0.425   4.492 -1.6503  0.5660 -0.3086
 8639TIP3   OH225880   6.492   2.839   1.283 -0.2380  0.1088 -0.0858
 8639TIP3    H125881   6.552   2.771   1.253 -0.5934 -0.0927 -0.3521
 8639TIP3    H225882   6.530   2.921   1.250  0.0999  0.0237  0.0897
 8640TIP3   OH225883   1.829   1.882   2.819  0.2308  0.4588 -0.0840
 8640TIP3    H125884   1.753   1.895   2.763 -0.1556  1.9578  0.7416
 8640TIP3    H225885   1.864   1.969   2.833  2.5959 -0.2540 -1.0491
 8641TIP3   OH225886   1.859   6.671   1.745  0.5010 -0.3460  0.3367
 8641TIP3    H125887   1.850   6.760   1.778 -0.1106  0.0023 -0.7510
 8641TIP3    H225888   1.942   6.640   1.782 -0.4267 -0.2305  2.7579
 8642TIP3   OH225889   0.769   4.016   5.142  0.2937  0.5045  0.1232
 8642TIP3    H125890   0.744   3.924   5.139 -0.2389  0.6062  0.9906
 8642TIP3    H225891   0.711   4.059   5.079  1.3191  0.0968 -1.1375
 8643TIP3   OH225892   4.255   1.063   2.113  0.5926 -0.0573  0.3996
 8643TIP3    H125893   4.290   0.984   2.073  0.2606  0.2244 -0.4690
 8643TIP3    H225894   4.332   1.111   2.144  0.8241 -0.4698  0.4681
 8644TIP3   OH225895   0.539   4.164   2.577  0.8463 -0.5661 -0.2232
 8644TIP3    H125896   0.466   4.106   2.554  1.1150 -0.8248 -0.4239
 8644TIP3    H225897   0.589   4.174   2.496  0.0372  1.0706 -0.5648
 8645TIP3   OH225898   1.893   6.742   0.629  0.2409 -0.5997  0.0511
 8645TIP3    H125899   1.974   6.775   0.668  0.9762 -1.2216 -0.9085
 8645TIP3    H225900   1.899   6.767   0.537 -0.5355 -0.8882 -0.0833
 8646TIP3   OH225901   1.889   3.524   5.405  0.5194  0.4960 -0.1211
 8646TIP3    H125902   1.854   3.572   5.480  0.9381  1.7828 -0.7063
 8646TIP3    H225903   1.915   3.593   5.343  1.3092 -0.5015 -0.9341
 8647TIP3   OH225904   2.963   1.351   2.838 -0.4508 -0.1781  0.1661
 8647TIP3    H125905   3.026   1.283   2.813 -0.4433 -0.3406  0.6117
 8647TIP3    H225906   2.937   1.392   2.755  1.6372  1.1569  0.1032
 8648TIP3   OH225907   5.071   2.094   4.229  0.3089 -0.4115 -0.3030
 8648TIP3    H125908   5.130   2.059   4.296  1.3004  0.5927 -0.6243
 8648TIP3    H225909   5.122   2.089   4.148 -0.7497 -1.2870 -0.9489
 8649TIP3   OH225910   5.460   3.834   1.580  0.1803 -0.4984 -0.2411
 8649TIP3    H125911   5.533   3.824   1.641 -0.6854  0.9253  1.0983
 8649TIP3    H225912   5.489   3.901   1.517 -0.2669  0.7458  0.8357
 8650TIP3   OH225913   4.512   4.192   1.953 -0.0539 -0.3052 -0.9351
 8650TIP3    H125914   4.509   4.204   2.048  0.6263  0.3683 -0.9914
 8650TIP3    H225915   4.468   4.109   1.938  0.6618 -0.8839  0.0612
 8651TIP3   OH225916   0.729   5.432   4.127 -0.0594  0.0060  0.3472
 8651TIP3    H125917   0.738   5.345   4.088 -1.2040 -0.9804  2.1197
 8651TIP3    H225918   0.812   5.447   4.173  0.9072  0.7537 -1.5328
 8652TIP3   OH225919   6.802   2.702   0.954 -0.4373  0.0000 -0.3149
 8652TIP3    H125920   6.860   2.725   1.027 -0.4266 -0.8818 -0.0254
 8652TIP3    H225921   6.857   2.708   0.876 -0.5203  1.2203 -0.2916
 8653TIP3   OH225922   2.880   1.706   2.851 -0.8048  0.2102  0.5482
 8653TIP3    H125923   2.803   1.759   2.829  0.4482  1.6107 -0.6696
 8653TIP3    H225924   2.954   1.752   2.810  0.4630 -2.0811  0.0602
 8654TIP3   OH225925   1.659   3.963   5.746 -0.1473  0.0897  0.1336
 8654TIP3    H125926   1.696   3.891   5.695 -0.1452 -0.3033  0.6795
 8654TIP3    H225927   1.699   3.955   5.832  1.1226  1.7489 -0.2446
 8655TIP3   OH225928   7.205   2.387   3.048 -0.7176  0.6793 -0.5080
 8655TIP3    H125929   7.143   2.400   2.975 -0.0747  1.0266 -1.0053
 8655TIP3    H225930   7.198   2.294   3.070 -1.2286  0.6625 -0.7292
 8656TIP3   OH225931   0.827   5.008   5.515 -0.4329  0.8344  0.6877
 8656TIP3    H125932   0.822   4.925   5.468 -0.3094  1.4366 -0.4008
 8656TIP3    H225933   0.885   4.990   5.589 -0.5431 -0.0856  0.5571
 8657TIP3   OH225934   5.831   4.603   0.455  0.6071  0.1002 -0.3497
 8657TIP3    H125935   5.833   4.543   0.380  1.2577 -0.4189  0.0743
 8657TIP3    H225936   5.740   4.600   0.485  0.6207 -0.6571 -0.3564
 8658TIP3   OH225937   4.698   0.090   2.263 -0.3770  0.2510  0.0376
 8658TIP3    H125938   4.746   0.061   2.186 -1.7629 -0.8076 -0.4670
 8658TIP3    H225939   4.632   0.151   2.229 -0.5283  0.3379  0.4808
 8659TIP3   OH225940   0.107   1.954   5.674 -0.3460  0.3476  0.9072
 8659TIP3    H125941   0.095   2.030   5.617  3.9569  0.3027 -0.4048
 8659TIP3    H225942   0.066   1.882   5.627 -1.3017  1.1913  0.4081
 8660TIP3   OH225943   6.922   6.245   3.838  0.4426  0.6399  0.4415
 8660TIP3    H125944   7.017   6.253   3.833  0.6498 -0.0339  2.3182
 8660TIP3    H225945   6.906   6.151   3.843 -0.3402  0.7408 -0.0366
 8661TIP3   OH225946   1.224   0.490   3.777 -0.1707 -0.2093  0.2470
 8661TIP3    H125947   1.218   0.541   3.857 -1.3357 -0.3155  0.2480
 8661TIP3    H225948   1.148   0.517   3.725 -1.6475 -2.8997  0.8406
 8662TIP3   OH225949   1.861   5.520   2.750 -0.3202 -0.3428 -0.1431
 8662TIP3    H125950   1.880   5.480   2.665 -1.6244 -0.0861 -0.5681
 8662TIP3    H225951   1.827   5.447   2.802  0.0675 -0.4037  0.0310
 8663TIP3   OH225952   2.324   0.746   3.827  0.6181  0.1159 -0.8313
 8663TIP3    H125953   2.340   0.759   3.920 -0.1532 -1.6765 -0.3946
 8663TIP3    H225954   2.377   0.670   3.804 -0.4081 -0.4344 -1.4558
 8664TIP3   OH225955   4.069   6.802   3.588  0.2558 -0.5110  0.0719
 8664TIP3    H125956   4.020   6.722   3.570  0.9956 -0.8636 -0.4493
 8664TIP3    H225957   4.108   6.787   3.674  0.6169 -0.8379 -0.1427
 8665TIP3   OH225958   5.348   6.714   3.546 -0.1269 -0.2867  0.3576
 8665TIP3    H125959   5.419   6.651   3.536 -0.0112 -0.0266 -0.5028
 8665TIP3    H225960   5.277   6.679   3.492 -0.6680 -0.5412  1.2022
 8666TIP3   OH225961   6.228   5.309   2.128  0.1779 -0.0608  0.0523
 8666TIP3    H125962   6.193   5.220   2.124 -1.4080  0.5455 -0.1183
 8666TIP3    H225963   6.316   5.298   2.164 -0.0051 -1.6855  0.0851
 8667TIP3   OH225964   0.162   5.451   2.667 -0.3794 -0.0369  0.3761
 8667TIP3    H125965   0.218   5.504   2.723  0.1696 -1.2775  1.0541
 8667TIP3    H225966   0.073   5.474   2.692 -0.2095  1.7102 -0.4703
 8668TIP3   OH225967   3.095   0.663   3.224 -0.1567 -0.0675 -0.5338
 8668TIP3    H125968   3.053   0.603   3.285  2.9709 -1.0358  0.8887
 8668TIP3    H225969   3.083   0.750   3.263 -0.2007 -0.3998  0.1967
 8669TIP3   OH225970   3.557   4.367   0.284 -0.2744  0.2278  0.1437
 8669TIP3    H125971   3.557   4.276   0.315 -1.1897 -0.0219 -0.5252
 8669TIP3    H225972   3.497   4.412   0.343  0.6853  0.5653  0.8855
 8670TIP3   OH225973   2.227   0.848   2.417 -0.4044 -0.1154  0.2672
 8670TIP3    H125974   2.258   0.938   2.404 -0.9702  0.0160 -0.2695
 8670TIP3    H225975   2.279   0.814   2.489  0.7581  0.1920 -0.4018
 8671TIP3   OH225976   4.749   4.699   4.072  0.1795 -0.5967  0.0942
 8671TIP3    H125977   4.810   4.738   4.135 -3.6247  4.5206  1.2370
 8671TIP3    H225978   4.766   4.745   3.990 -0.4365 -1.0556 -0.3045
 8672TIP3   OH225979   5.566   4.603   3.919 -0.0164 -0.1318  0.2027
 8672TIP3    H125980   5.636   4.648   3.967  0.5695  1.2895 -1.8551
 8672TIP3    H225981   5.489   4.611   3.976  0.4298  2.2528  0.5836
 8673TIP3   OH225982   1.572   3.399   0.353 -0.5344  0.1962  0.0052
 8673TIP3    H125983   1.576   3.320   0.299 -0.3638  0.1999  0.0124
 8673TIP3    H225984   1.492   3.389   0.405 -1.6226  0.9643 -1.4480
 8674TIP3   OH225985   2.751   3.383   3.598  0.1301 -0.8863  0.4188
 8674TIP3    H125986   2.685   3.400   3.531  0.1585 -0.8572  0.3988
 8674TIP3    H225987   2.817   3.451   3.586 -0.9258  0.4780  1.8427
 8675TIP3   OH225988   6.712   5.491   2.465 -0.1232  0.0954  0.3326
 8675TIP3    H125989   6.626   5.455   2.486 -1.0125  0.9909 -1.5533
 8675TIP3    H225990   6.706   5.584   2.488  1.4337 -0.4025  3.1311
 8676TIP3   OH225991   5.670   6.675   1.247 -0.4003 -0.2588  0.3048
 8676TIP3    H125992   5.722   6.595   1.248  0.2645  0.1650  1.7041
 8676TIP3    H225993   5.724   6.738   1.201 -0.7548 -0.4839 -0.4405
 8677TIP3   OH225994   1.980   4.148   1.970 -0.1074 -0.0191 -0.6554
 8677TIP3    H125995   2.019   4.233   1.952  1.0809 -0.2476  0.7311
 8677TIP3    H225996   2.054   4.087   1.972 -0.9104 -1.0748 -1.4031
 8678TIP3   OH225997   1.425   2.327   4.978 -0.0327  0.4321  0.2264
 8678TIP3    H125998   1.342   2.331   5.024  1.2728  1.9517  2.6175
 8678TIP3    H225999   1.472   2.255   5.020  0.3299  0.3471 -0.3163
 8679TIP3   OH226000   5.045   6.669   5.828 -0.2139  0.4282  0.3681
 8679TIP3    H126001   5.061   6.596   5.768 -0.2732  0.7950 -0.1000
 8679TIP3    H226002   5.110   6.735   5.803 -1.3381  1.2583 -0.4265
 8680TIP3   OH226003   6.966   2.699   3.995 -0.0326  0.0516  0.4187
 8680TIP3    H126004   6.950   2.609   3.968 -0.0243 -0.4832  2.1018
 8680TIP3    H226005   6.880   2.741   3.993 -0.1230 -0.1421  0.1930
 8681TIP3   OH226006   5.205   3.050   2.973  0.1996 -0.4097  0.0984
 8681TIP3    H126007   5.282   3.104   2.990 -0.2609  0.6547 -1.0452
 8681TIP3    H226008   5.147   3.067   3.048  0.0159  0.7924 -0.2964
 8682TIP3   OH226009   1.897   3.738   3.675  0.4430  0.4240  0.0352
 8682TIP3    H126010   1.890   3.651   3.714  0.2385  0.8899  1.0724
 8682TIP3    H226011   1.925   3.722   3.585  3.6644 -0.5660  1.0985
 8683TIP3   OH226012   7.105   0.783   3.110  0.4469 -0.1685 -0.2976
 8683TIP3    H126013   7.122   0.724   3.037 -0.6160  0.9423 -1.4995
 8683TIP3    H226014   7.067   0.727   3.178  0.6739 -1.0808 -0.9032
 8684TIP3   OH226015   2.853   5.284   1.978 -0.0463  0.0771  0.1220
 8684TIP3    H126016   2.882   5.198   2.009 -0.4066  0.9373  3.1911
 8684TIP3    H226017   2.765   5.268   1.943  0.3720 -0.9637 -0.5153
 8685TIP3   OH226018   5.571   5.306   4.573 -0.1155  0.5157  0.2171
 8685TIP3    H126019   5.662   5.331   4.554  0.6038 -1.9905 -0.0116
 8685TIP3    H226020   5.518   5.364   4.517  1.4187  0.9075 -0.9107
 8686TIP3   OH226021   5.005   5.379   2.660 -0.2380  0.0024  0.3214
 8686TIP3    H126022   4.982   5.332   2.580  1.9042 -0.5163 -0.0468
 8686TIP3    H226023   5.043   5.462   2.630  1.2001 -0.4778  0.7343
 8687TIP3   OH226024   5.583   3.460   0.712  0.2371  0.0998 -0.4031
 8687TIP3    H126025   5.519   3.428   0.648  0.0207  0.6221 -0.4484
 8687TIP3    H226026   5.583   3.555   0.701  0.1775  0.1994  0.3898
 8688TIP3   OH226027   2.251   0.023   2.372  0.9438 -0.0903  0.1700
 8688TIP3    H126028   2.318  -0.039   2.347  2.8963  1.6798  0.6948
 8688TIP3    H226029   2.191   0.027   2.297  0.4691 -2.8517  0.3178
 8689TIP3   OH226030   1.089   3.372   3.926 -0.1974 -0.3725  0.1776
 8689TIP3    H126031   1.042   3.305   3.976 -1.9730  0.3659 -0.4297
 8689TIP3    H226032   1.112   3.438   3.991 -1.0215 -0.2057  0.3143
 8690TIP3   OH226033   2.980   3.285   1.230 -0.2698  0.2515 -0.4562
 8690TIP3    H126034   2.952   3.362   1.280 -1.4329  1.6631 -3.0866
 8690TIP3    H226035   3.073   3.275   1.252 -0.1545  2.2237  0.2173
 8691TIP3   OH226036   2.584   1.512   5.327  0.3651 -0.1681  0.0238
 8691TIP3    H126037   2.590   1.608   5.330 -1.1996 -0.0220 -0.5157
 8691TIP3    H226038   2.631   1.483   5.405  1.4381  0.9932 -0.1478
 8692TIP3   OH226039   4.501   0.785   5.040  0.1479  0.6484 -0.1619
 8692TIP3    H126040   4.450   0.830   4.973 -2.2046  0.0179  1.0938
 8692TIP3    H226041   4.592   0.799   5.014 -0.6293  1.4225 -2.7956
 8693TIP3   OH226042   2.738   5.603   1.857 -0.1084  0.0612 -0.3198
 8693TIP3    H126043   2.712   5.678   1.803 -1.4481 -0.5423 -0.5369
 8693TIP3    H226044   2.826   5.581   1.826 -0.5958  0.1338 -1.8404
 8694TIP3   OH226045   0.340   6.022   4.881 -0.0341  0.4170 -0.0485
 8694TIP3    H126046   0.294   5.939   4.892  0.5520 -0.4504 -3.1268
 8694TIP3    H226047   0.279   6.088   4.913 -1.3846 -1.0306  0.4856
 8695TIP3   OH226048  -0.008   3.913   1.397 -0.3610 -0.4477 -0.6405
 8695TIP3    H126049   0.062   3.930   1.334  0.3388 -1.4151 -0.1450
 8695TIP3    H226050  -0.032   3.822   1.383 -1.3108 -0.2167 -0.5864
 8696TIP3   OH226051   2.021   5.742   2.593  0.8926  0.2341 -0.6242
 8696TIP3    H126052   1.993   5.779   2.509  0.4433  1.6876  0.1378
 8696TIP3    H226053   1.955   5.675   2.612  0.7120  0.2436 -1.1938
 8697TIP3   OH226054   6.061   4.668   0.089 -0.4903  0.0975  0.2902
 8697TIP3    H126055   6.081   4.752   0.047 -0.8967  0.7823  1.4099
 8697TIP3    H226056   6.095   4.602   0.029 -0.7853  1.0399 -0.9479
 8698TIP3   OH226057   5.428   6.629   5.377  0.0023 -0.1774 -0.4288
 8698TIP3    H126058   5.454   6.713   5.340 -2.1446  0.7396  0.0129
 8698TIP3    H226059   5.510   6.579   5.383  1.2352  1.6425 -1.2330
 8699TIP3   OH226060   5.610   1.224   0.769  0.1416 -0.0527 -0.5745
 8699TIP3    H126061   5.566   1.158   0.823  1.6283 -0.4012  0.2793
 8699TIP3    H226062   5.590   1.307   0.812  1.7273 -0.3741  0.8774
 8700TIP3   OH226063   2.922   2.310   5.503  0.8014  0.2306 -0.0901
 8700TIP3    H126064   2.981   2.307   5.579  0.1593 -2.0405  0.4019
 8700TIP3    H226065   2.896   2.218   5.490 -1.0923  0.9130 -1.5031
 8701TIP3   OH226066   6.107   2.236   3.916 -0.0527 -0.2890  0.6598
 8701TIP3    H126067   6.139   2.164   3.862 -0.6329 -1.0470  1.2966
 8701TIP3    H226068   6.140   2.315   3.874 -0.4632 -0.8549 -0.7692
 8702TIP3   OH226069   2.519   4.413   1.665  0.4309  0.2213  0.6226
 8702TIP3    H126070   2.560   4.367   1.591 -1.1876 -0.4862  0.1228
 8702TIP3    H226071   2.519   4.505   1.638  1.1385  0.1622  0.3852
 8703TIP3   OH226072   5.427   0.186   3.554  0.0037 -0.1648 -0.1401
 8703TIP3    H126073   5.519   0.208   3.567  0.3024  0.5114 -2.7149
 8703TIP3    H226074   5.425   0.139   3.470 -2.1411  1.2532 -0.9846
 8704TIP3   OH226075   2.257   2.428   0.515  0.1703  0.1084 -0.0522
 8704TIP3    H126076   2.259   2.486   0.438 -0.1437 -0.7453 -0.7140
 8704TIP3    H226077   2.341   2.444   0.558 -0.0096  1.2359 -0.0863
 8705TIP3   OH226078   6.804   3.678   5.705  0.4974 -0.0275 -0.1693
 8705TIP3    H126079   6.809   3.735   5.782 -1.0342  0.5216 -0.4367
 8705TIP3    H226080   6.842   3.730   5.635 -0.0399  0.3201 -0.2128
 8706TIP3   OH226081   2.903   3.072   2.365  0.1223  0.7046 -0.1273
 8706TIP3    H126082   2.935   3.125   2.292  0.6731  0.3817 -0.1216
 8706TIP3    H226083   2.916   3.127   2.442  1.9609  0.0704  0.0616
 8707TIP3   OH226084   6.133   5.288   3.902  0.3552 -0.2767 -0.3658
 8707TIP3    H126085   6.191   5.259   3.972 -1.5400 -2.0306  0.6183
 8707TIP3    H226086   6.097   5.371   3.933 -0.2021 -0.8676  0.6462
 8708TIP3   OH226087   1.642   3.376   3.498 -0.3444  0.0112  0.0831
 8708TIP3    H126088   1.691   3.294   3.501  1.4495  0.9870 -0.7187
 8708TIP3    H226089   1.553   3.351   3.474  0.3501 -1.6305 -0.9211
 8709TIP3   OH226090   4.013   5.454   1.933  0.4132 -0.1470 -0.7863
 8709TIP3    H126091   4.011   5.537   1.886 -1.3437 -0.3415 -1.0952
 8709TIP3    H226092   4.105   5.427   1.929  0.9346  1.5415 -1.0711
 8710TIP3   OH226093   6.041   1.878   3.629 -0.0225  0.0861  0.1003
 8710TIP3    H126094   6.037   1.823   3.707 -0.7891 -0.4994 -0.3241
 8710TIP3    H226095   6.048   1.815   3.557 -0.1430  0.5791 -0.3458
 8711TIP3   OH226096   0.216   4.042   4.532  0.0092 -0.4695 -0.4987
 8711TIP3    H126097   0.304   4.057   4.566  0.5332 -0.5192 -1.7906
 8711TIP3    H226098   0.182   3.969   4.584  0.9936 -0.8955 -0.4430
 8712TIP3   OH226099   3.243   4.047   4.195  0.4876  0.6276  0.1674
 8712TIP3    H126100   3.247   4.079   4.104 -1.0273 -0.1875 -0.2237
 8712TIP3    H226101   3.334   4.043   4.223  1.1111 -0.5413 -1.8401
 8713TIP3   OH226102   6.171   5.871   5.281 -0.3614 -0.3960  0.3513
 8713TIP3    H126103   6.115   5.923   5.223  0.0785  0.7624  0.9148
 8713TIP3    H226104   6.232   5.827   5.223 -0.5452 -0.0257 -0.1294
 8714TIP3   OH226105   7.095   0.864   1.116  0.0878  0.1089  0.0250
 8714TIP3    H126106   7.139   0.793   1.162 -0.9966 -0.2154  0.5714
 8714TIP3    H226107   7.114   0.942   1.169 -0.8786 -0.2088  0.8682
 8715TIP3   OH226108   0.475   1.111   4.851  0.1089 -0.2306  0.7489
 8715TIP3    H126109   0.554   1.156   4.881 -0.4018  0.5204  0.9831
 8715TIP3    H226110   0.440   1.069   4.929 -1.4234  2.0280  1.3711
 8716TIP3   OH226111   3.746   3.028   4.835 -0.2992 -0.3202  1.0444
 8716TIP3    H126112   3.650   3.028   4.832 -0.3922  2.9524 -0.9509
 8716TIP3    H226113   3.767   3.007   4.926 -2.9337 -0.1882  1.7718
 8717TIP3   OH226114   6.974   1.545   4.833  0.0848 -0.4848 -0.2367
 8717TIP3    H126115   7.053   1.592   4.807  0.8498 -0.7192  1.5115
 8717TIP3    H226116   7.002   1.453   4.837 -0.9943 -0.9536 -2.1332
 8718TIP3   OH226117   3.630   3.965   5.302 -0.2578  0.3259  0.1291
 8718TIP3    H126118   3.666   3.898   5.243 -1.5064  1.0389 -1.4903
 8718TIP3    H226119   3.592   3.914   5.374 -0.5971 -0.6944 -0.7357
 8719TIP3   OH226120   4.946   2.349   0.341 -0.2032  0.3442  0.2624
 8719TIP3    H126121   4.892   2.271   0.349 -0.4630  0.3639 -1.0237
 8719TIP3    H226122   5.029   2.326   0.381 -0.5191 -0.3547  0.5160
 8720TIP3   OH226123   1.279   3.393   4.659 -0.0588  0.2291  0.4033
 8720TIP3    H126124   1.227   3.466   4.692 -1.9334 -1.0412  0.4165
 8720TIP3    H226125   1.218   3.341   4.606  1.5621 -0.5891 -0.7683
 8721TIP3   OH226126   1.526   6.428   4.785 -0.5974  0.4928 -0.0224
 8721TIP3    H126127   1.434   6.404   4.792  0.0822 -2.5677 -0.0230
 8721TIP3    H226128   1.539   6.447   4.692 -1.0749  0.1898 -0.1536
 8722TIP3   OH226129   4.747   5.192   0.313  0.2427  0.1978 -0.6872
 8722TIP3    H126130   4.840   5.207   0.327  0.4516 -0.0201 -1.7924
 8722TIP3    H226131   4.712   5.178   0.401  0.7090  3.1874  0.0881
 8723TIP3   OH226132   0.770   1.084   0.655 -0.2541  0.0713  0.3619
 8723TIP3    H126133   0.746   1.171   0.687  1.9799  0.9757 -0.2342
 8723TIP3    H226134   0.746   1.084   0.563  0.4157  0.3644  0.1776
 8724TIP3   OH226135   3.882   6.213   1.767 -0.2179  0.1305 -0.2358
 8724TIP3    H126136   3.963   6.176   1.731 -0.0310  0.2507  0.0617
 8724TIP3    H226137   3.885   6.194   1.860 -0.1907  0.7616 -0.1028
 8725TIP3   OH226138   2.559   6.548   1.653  0.2073  0.0602  0.4303
 8725TIP3    H126139   2.488   6.592   1.699  1.2899  1.3034  0.9492
 8725TIP3    H226140   2.624   6.530   1.720  0.8926 -0.0212 -0.2443
 8726TIP3   OH226141   1.029   5.753   4.439 -0.0933 -0.5215  0.4633
 8726TIP3    H126142   0.973   5.754   4.362  1.0723  1.5709 -0.4341
 8726TIP3    H226143   1.009   5.669   4.482 -1.7426 -1.1355 -1.3474
 8727TIP3   OH226144   0.406   1.383   1.787 -0.0568 -0.3368  0.1045
 8727TIP3    H126145   0.399   1.418   1.876 -2.0307  0.0333 -0.1491
 8727TIP3    H226146   0.397   1.288   1.798  0.4603 -0.3597  0.3559
 8728TIP3   OH226147   1.090   2.899   1.754 -0.5646  0.1459  0.8347
 8728TIP3    H126148   1.173   2.936   1.726 -1.0325  2.9761  2.7928
 8728TIP3    H226149   1.039   2.891   1.673  0.2209  2.2169  0.0718
 8729TIP3   OH226150   0.200   5.459   1.213  0.0553  0.4157  0.2116
 8729TIP3    H126151   0.177   5.516   1.140 -0.6853  1.1730  1.0122
 8729TIP3    H226152   0.117   5.424   1.244  0.2694  0.7466  1.2031
 8730TIP3   OH226153   5.173   5.088   0.231  0.6233 -0.3137 -0.5226
 8730TIP3    H126154   5.104   5.041   0.278 -0.6059  2.4297  0.6484
 8730TIP3    H226155   5.175   5.048   0.145  0.4250 -3.1473  0.6904
 8731TIP3   OH226156   1.661   1.673   5.680 -0.3815  0.1065  0.1776
 8731TIP3    H126157   1.569   1.684   5.701 -0.1428 -0.6222  1.7972
 8731TIP3    H226158   1.670   1.580   5.659 -0.5172  0.7050 -3.0280
 8732TIP3   OH226159   2.875   0.209   1.203  0.5242  0.1058  0.2485
 8732TIP3    H126160   2.862   0.304   1.211 -0.1277 -0.1254  2.2651
 8732TIP3    H226161   2.970   0.197   1.213  0.5499  0.4991  0.4896
 8733TIP3   OH226162   5.046   5.481   0.545  0.3580 -0.0729  1.0822
 8733TIP3    H126163   4.952   5.490   0.530  0.2339 -0.2005  1.7741
 8733TIP3    H226164   5.055   5.405   0.602  0.8997 -0.2060  0.8292
 8734TIP3   OH226165   2.444   5.764   3.347  0.1118  0.0709 -0.2301
 8734TIP3    H126166   2.375   5.742   3.410  0.6318  0.3982  0.4688
 8734TIP3    H226167   2.436   5.859   3.335  2.8205  0.8736  2.8478
 8735TIP3   OH226168   2.433   2.043   3.774  0.8909  0.3649  0.1362
 8735TIP3    H126169   2.411   2.132   3.746  0.0565 -0.3014 -1.4027
 8735TIP3    H226170   2.517   2.025   3.732  0.8797  0.2781  0.1519
 8736TIP3   OH226171   2.503   5.618   1.269 -0.5390  0.3468  0.8742
 8736TIP3    H126172   2.519   5.547   1.207  0.2830  1.8053 -0.6609
 8736TIP3    H226173   2.573   5.609   1.334  1.8262  1.7687 -1.2711
 8737TIP3   OH226174   5.632   0.359   0.025 -0.8127 -0.0982 -0.2088
 8737TIP3    H126175   5.697   0.400   0.083  0.2336 -2.2659  0.2522
 8737TIP3    H226176   5.548   0.397   0.053 -0.1550  0.0941  1.6666
 8738TIP3   OH226177   2.496   6.353   2.611  0.0516 -0.0920  0.4542
 8738TIP3    H126178   2.455   6.390   2.689 -0.1975 -0.2652  0.4084
 8738TIP3    H226179   2.525   6.266   2.637 -1.1076 -0.6378  0.0431
 8739TIP3   OH226180   6.231   2.021   4.934 -0.1273 -0.1168  0.5734
 8739TIP3    H126181   6.218   1.958   4.863 -0.0067  0.1924  0.2802
 8739TIP3    H226182   6.177   1.986   5.005 -1.6810  0.5257 -0.2504
 8740TIP3   OH226183   0.221   0.576   3.466 -0.3311  0.4501  0.0483
 8740TIP3    H126184   0.224   0.651   3.406 -1.2944  0.5271  0.0895
 8740TIP3    H226185   0.217   0.499   3.409  2.1267  0.2966 -0.0339
 8741TIP3   OH226186   5.911   0.294   3.068 -0.0396 -0.1414  0.6049
 8741TIP3    H126187   5.935   0.288   2.976 -0.3651 -1.1828  0.5720
 8741TIP3    H226188   5.981   0.247   3.114 -0.9130 -1.4282  0.6816
 8742TIP3   OH226189   0.898   3.532   3.331  0.6792  0.6066 -0.2129
 8742TIP3    H126190   0.977   3.564   3.287  0.4129  0.8518 -0.5170
 8742TIP3    H226191   0.850   3.484   3.264  0.1322  1.2242 -0.2727
 8743TIP3   OH226192   1.229   2.929   1.356 -0.0578  0.5657 -0.6439
 8743TIP3    H126193   1.258   2.972   1.276  0.3779  0.0544 -0.7609
 8743TIP3    H226194   1.259   2.839   1.348  0.8445  0.7333  0.5298
 8744TIP3   OH226195   4.057   6.770   4.162 -0.1294  0.2441  0.0092
 8744TIP3    H126196   4.038   6.678   4.179 -0.9623 -0.0885 -2.3324
 8744TIP3    H226197   4.149   6.780   4.188 -0.8242 -0.3986  3.1501
 8745TIP3   OH226198   4.341   1.605   0.043 -0.6377 -0.1725  0.0937
 8745TIP3    H126199   4.271   1.547   0.073 -0.4638  0.4366  1.7495
 8745TIP3    H226200   4.324   1.615  -0.051 -1.9521 -1.1399  0.1944
 8746TIP3   OH226201   1.305   5.554   5.027 -0.1319  0.2982 -0.1369
 8746TIP3    H126202   1.365   5.480   5.029 -0.1709  0.2099  2.9309
 8746TIP3    H226203   1.224   5.520   5.065 -0.9410  1.3321 -0.8858
 8747TIP3   OH226204   4.005   4.556   4.085  0.2717 -0.1282 -0.0894
 8747TIP3    H126205   4.054   4.594   4.012  0.4735  1.0550  0.6371
 8747TIP3    H226206   4.067   4.496   4.126  0.1967 -0.7059 -0.8066
 8748TIP3   OH226207   0.482   5.009   1.496 -0.0489  0.0794  0.5725
 8748TIP3    H126208   0.488   5.012   1.591 -1.8511 -2.6397  0.8702
 8748TIP3    H226209   0.532   4.931   1.471 -0.3790  0.2290 -0.6128
 8749TIP3   OH226210   1.502   4.617   0.658  0.4641 -0.2946 -0.4510
 8749TIP3    H126211   1.520   4.648   0.570  0.1876 -2.5008 -1.3631
 8749TIP3    H226212   1.407   4.610   0.663  0.4201  0.6877  0.3678
 8750TIP3   OH226213   2.038   3.336   1.573 -0.0944 -0.5602 -0.4275
 8750TIP3    H126214   1.975   3.281   1.621 -1.2014 -1.2870 -2.5848
 8750TIP3    H226215   2.076   3.277   1.507  1.9051  0.2212 -0.0576
 8751TIP3   OH226216   2.551   3.344   4.834  0.7026 -0.0138  0.0643
 8751TIP3    H126217   2.515   3.315   4.751  1.7072  2.0920 -1.2172
 8751TIP3    H226218   2.613   3.413   4.810  1.9278 -0.1547  2.4882
 8752TIP3   OH226219   4.874   1.898   1.682  0.1771  0.1959 -0.4462
 8752TIP3    H126220   4.922   1.830   1.635 -0.0786  1.1101 -2.0926
 8752TIP3    H226221   4.909   1.980   1.648  1.5277  1.0098  2.5335
 8753TIP3   OH226222   5.458   2.276   5.586 -0.2669  0.6479  0.1526
 8753TIP3    H126223   5.551   2.295   5.602 -0.3017  0.6647  0.3373
 8753TIP3    H226224   5.443   2.192   5.630 -0.4433  0.8513  0.4812
 8754TIP3   OH226225   4.958   3.702   1.583 -0.6753  0.1472  0.3605
 8754TIP3    H126226   4.930   3.661   1.502 -0.7401  1.1666 -0.1496
 8754TIP3    H226227   4.883   3.756   1.610 -0.8613 -0.5983  1.3947
 8755TIP3   OH226228   2.303   3.774   3.205  0.4417 -0.0445  0.5391
 8755TIP3    H126229   2.253   3.786   3.124 -0.1044  0.1629  0.8989
 8755TIP3    H226230   2.392   3.802   3.183  0.5058 -0.8017 -0.2225
 8756TIP3   OH226231   3.732   2.446   4.793 -0.5120  0.3169 -0.3341
 8756TIP3    H126232   3.692   2.523   4.834  1.3238  2.2512 -1.9680
 8756TIP3    H226233   3.800   2.419   4.854 -0.3805  0.7495 -0.2851
 8757TIP3   OH226234   4.965   6.594   0.827 -0.1107 -0.3276 -0.3495
 8757TIP3    H126235   5.001   6.668   0.777 -0.5816 -0.0379 -0.2655
 8757TIP3    H226236   5.040   6.537   0.841  0.2635  0.1366 -0.4151
 8758TIP3   OH226237   4.292   6.400   2.731 -0.0846 -0.4887  0.5087
 8758TIP3    H126238   4.212   6.399   2.783 -0.3608 -1.7112  0.0833
 8758TIP3    H226239   4.337   6.319   2.754  1.1570  0.2718  0.8954
 8759TIP3   OH226240   4.645   2.560   2.336  0.8978  0.6218 -0.2231
 8759TIP3    H126241   4.608   2.497   2.273  1.4638 -0.0130  0.0606
 8759TIP3    H226242   4.594   2.545   2.417  1.8065 -0.3255  0.1985
 8760TIP3   OH226243   5.050   4.546   1.771  0.0088 -0.0229 -0.1139
 8760TIP3    H126244   5.119   4.496   1.815 -1.0854 -1.5380 -0.0394
 8760TIP3    H226245   5.078   4.637   1.778  1.8577 -0.5726  0.1435
 8761TIP3   OH226246   6.337   0.157   5.074  0.0279  0.0017  0.0073
 8761TIP3    H126247   6.398   0.156   5.147 -1.2002  0.0467  1.0787
 8761TIP3    H226248   6.314   0.249   5.062  1.1738  0.1557 -1.3060
 8762TIP3   OH226249   0.215   0.225   5.317 -0.7638  0.5060  0.1513
 8762TIP3    H126250   0.280   0.167   5.277 -1.4790 -0.1885 -0.0141
 8762TIP3    H226251   0.170   0.171   5.382 -2.3146  0.4873 -0.8900
 8763TIP3   OH226252   5.115   5.347   1.620  0.5884  0.7922 -0.1159
 8763TIP3    H126253   5.134   5.292   1.545  1.6582  2.6442 -1.2742
 8763TIP3    H226254   5.038   5.307   1.660 -0.6406  0.2654 -2.7675
 8764TIP3   OH226255   1.439   5.069   2.575  0.5807  0.5418  0.2664
 8764TIP3    H126256   1.502   5.140   2.562  1.5028 -0.7452 -3.6299
 8764TIP3    H226257   1.488   5.003   2.623  0.5395  1.4451  1.6115
 8765TIP3   OH226258   4.807   4.001   5.466 -0.4729  0.0229  0.2372
 8765TIP3    H126259   4.890   3.988   5.420 -0.3257  1.7150 -0.0374
 8765TIP3    H226260   4.789   3.917   5.507  0.9933 -0.6011 -0.3316
 8766TIP3   OH226261   4.855   6.324   0.632  0.1876  0.1886  0.3194
 8766TIP3    H126262   4.882   6.408   0.594  1.0404 -0.7110 -1.1826
 8766TIP3    H226263   4.921   6.305   0.699  1.5668 -0.4974 -1.1659
 8767TIP3   OH226264   2.585   1.826   2.357 -0.4517 -0.1274 -0.0239
 8767TIP3    H126265   2.516   1.804   2.294  0.0885 -0.0879 -0.6407
 8767TIP3    H226266   2.617   1.911   2.329  1.2368 -1.0225 -1.0130
 8768TIP3   OH226267   4.561   0.273   5.856 -0.1636  0.3754 -0.1881
 8768TIP3    H126268   4.642   0.222   5.853 -0.7397 -0.5994  0.3511
 8768TIP3    H226269   4.492   0.210   5.838 -0.8020  1.2447 -0.8777
 8769TIP3   OH226270   5.771   2.461   2.582  0.3688 -0.6706  0.4077
 8769TIP3    H126271   5.712   2.523   2.626  0.7754 -0.2445  0.3536
 8769TIP3    H226272   5.807   2.408   2.653 -0.3361 -1.1649  0.4117
 8770TIP3   OH226273   4.560   3.949   4.575 -0.9391  0.0023  0.1781
 8770TIP3    H126274   4.566   3.983   4.665  0.2980 -1.8408  0.8502
 8770TIP3    H226275   4.651   3.937   4.547 -1.3165 -0.4792 -0.9026
 8771TIP3   OH226276   7.098   4.769   4.253  0.0414  0.0808 -0.0221
 8771TIP3    H126277   7.040   4.693   4.250  1.2025 -0.8430 -0.1078
 8771TIP3    H226278   7.184   4.732   4.272  0.8345  1.2639 -1.1550
 8772TIP3   OH226279   0.296   3.607   1.795  0.0036 -0.1506  0.0515
 8772TIP3    H126280   0.333   3.675   1.738 -0.0534 -1.1680 -1.2528
 8772TIP3    H226281   0.241   3.555   1.737 -3.4233  1.1597  1.8578
 8773TIP3   OH226282   4.433   5.043   2.731 -0.4523  0.0646  0.0839
 8773TIP3    H126283   4.344   5.070   2.754 -0.3885 -0.2484  0.7277
 8773TIP3    H226284   4.489   5.091   2.791 -0.3924 -2.2109  2.0191
 8774TIP3   OH226285   1.666   0.306   5.338  0.4645  0.4816 -0.2167
 8774TIP3    H126286   1.684   0.257   5.418  0.6547  1.4234  0.3397
 8774TIP3    H226287   1.740   0.288   5.281  1.0877  0.9885  0.4138
 8775TIP3   OH226288   3.930   3.568   4.412 -0.2380  0.7501  0.2026
 8775TIP3    H126289   4.014   3.609   4.392  0.1616  0.2300  0.7932
 8775TIP3    H226290   3.883   3.568   4.328  0.4512  0.8141 -0.1893
 8776TIP3   OH226291   1.194   0.316   4.400 -0.0194 -0.2132 -0.5624
 8776TIP3    H126292   1.229   0.312   4.489 -0.8007 -1.9270 -0.2998
 8776TIP3    H226293   1.198   0.409   4.378 -2.9368  0.8669  2.5470
 8777TIP3   OH226294   1.185   6.239   2.562 -0.3648 -0.3224  0.8046
 8777TIP3    H126295   1.140   6.218   2.480  0.1670 -0.8564  0.6345
 8777TIP3    H226296   1.177   6.160   2.615  0.7865 -0.6313  0.5641
 8778TIP3   OH226297   6.568   1.165   4.580 -0.1881 -0.1727 -0.1241
 8778TIP3    H126298   6.651   1.188   4.539 -0.8399 -0.9911 -2.0107
 8778TIP3    H226299   6.592   1.113   4.656  1.0367  0.4626 -0.0567
 8779TIP3   OH226300   0.189   5.786   3.218 -0.3099  0.0869  0.3841
 8779TIP3    H126301   0.228   5.873   3.217  0.4873 -0.1678  2.4916
 8779TIP3    H226302   0.263   5.727   3.232 -0.9957 -0.7824  0.4195
 8780TIP3   OH226303   3.653   4.780   2.398 -0.7159 -0.3552  0.1439
 8780TIP3    H126304   3.564   4.748   2.387 -1.2981  0.7942  1.2562
 8780TIP3    H226305   3.643   4.873   2.419  0.7771 -0.0575 -0.3169
 8781TIP3   OH226306   3.416   2.812   3.153 -0.1965  0.0809 -0.4935
 8781TIP3    H126307   3.351   2.882   3.151 -1.6321 -1.2272 -1.8130
 8781TIP3    H226308   3.499   2.857   3.169 -1.1266  2.0290 -0.9014
 8782TIP3   OH226309   0.820   3.617   5.387 -0.0705 -0.2772 -0.1123
 8782TIP3    H126310   0.737   3.573   5.369 -0.2495  0.0664 -0.1318
 8782TIP3    H226311   0.815   3.642   5.479 -0.2478  0.2783 -0.2643
 8783TIP3   OH226312   2.402   0.550   3.486 -0.3893 -0.8212  0.5115
 8783TIP3    H126313   2.371   0.465   3.515  0.8570 -1.5257 -0.1605
 8783TIP3    H226314   2.477   0.569   3.541 -0.8019 -0.0320  0.8208
 8784TIP3   OH226315   1.485   6.447   4.510 -0.1495 -0.3802 -0.0462
 8784TIP3    H126316   1.572   6.451   4.471  0.3916 -1.0408  1.0318
 8784TIP3    H226317   1.426   6.481   4.442  0.8546 -0.5913 -1.0507
 8785TIP3   OH226318   1.650   1.954   2.643 -0.2825  0.0731  0.1214
 8785TIP3    H126319   1.586   1.895   2.603  1.0967 -0.5738 -1.2323
 8785TIP3    H226320   1.603   2.037   2.654 -1.5026 -0.5310 -0.3415
 8786TIP3   OH226321   2.842   6.287   2.314 -0.5336 -0.2365  0.2710
 8786TIP3    H126322   2.882   6.363   2.358  1.2075 -1.3580  0.7087
 8786TIP3    H226323   2.896   6.213   2.340  0.1698 -1.0950 -3.1797
 8787TIP3   OH226324   1.507   4.889   2.993 -0.6478 -0.2315  1.2386
 8787TIP3    H126325   1.560   4.969   2.994 -0.4212 -0.3414 -0.0708
 8787TIP3    H226326   1.475   4.881   3.083 -0.4917  1.2026  1.4540
 8788TIP3   OH226327   0.804   6.062   0.335  0.3987 -0.4866  0.3862
 8788TIP3    H126328   0.883   6.071   0.388  0.1998 -0.1747  0.6340
 8788TIP3    H226329   0.746   6.006   0.388 -0.1086  0.4625  0.8670
 8789TIP3   OH226330   4.494   6.164   4.393 -0.0013 -0.6002  0.4458
 8789TIP3    H126331   4.431   6.095   4.412 -0.3167  0.0943  2.0622
 8789TIP3    H226332   4.454   6.244   4.427  0.3525  0.4149 -1.3954
 8790TIP3   OH226333   4.712   1.476   5.897  0.6897 -0.2873  0.1861
 8790TIP3    H126334   4.692   1.562   5.934  0.2477 -0.3633  0.1266
 8790TIP3    H226335   4.698   1.486   5.803  0.0225 -0.5954  0.2501
 8791TIP3   OH226336   0.974   4.491   1.181  0.1305  0.0669 -0.6068
 8791TIP3    H126337   0.996   4.501   1.088 -1.7470 -2.3102 -1.3806
 8791TIP3    H226338   1.047   4.441   1.218  1.3389  1.7998 -0.5016
 8792TIP3   OH226339   0.369   5.677   1.304 -0.2410  0.4876 -0.2322
 8792TIP3    H126340   0.396   5.743   1.368 -0.6887 -0.3966  0.8870
 8792TIP3    H226341   0.299   5.629   1.347 -2.6530  1.7215 -2.4593
 8793TIP3   OH226342   6.715   5.630   1.509 -0.5300  0.0878 -0.0787
 8793TIP3    H126343   6.638   5.652   1.561 -0.5240  1.4624 -0.5991
 8793TIP3    H226344   6.687   5.641   1.418 -0.0409 -0.5489 -0.3200
 8794TIP3   OH226345   4.703   3.560   4.797 -0.8523 -0.1322  1.1443
 8794TIP3    H126346   4.700   3.482   4.742 -0.6417  0.5116  0.1928
 8794TIP3    H226347   4.726   3.528   4.884  0.2059 -1.0202  0.5554
 8795TIP3   OH226348   3.734   5.538   4.532  0.3084  0.1618  0.5122
 8795TIP3    H126349   3.665   5.555   4.596 -0.6238 -3.5800  0.7025
 8795TIP3    H226350   3.688   5.504   4.455  1.8069 -0.7458 -0.0313
 8796TIP3   OH226351   0.914   1.243   2.312 -0.4555  0.2903 -0.3797
 8796TIP3    H126352   0.904   1.156   2.349 -1.7574  1.0866  1.2651
 8796TIP3    H226353   0.833   1.257   2.262  0.0864  0.2930 -1.2888
 8797TIP3   OH226354   1.408   1.944   4.435  0.1302 -0.0032 -0.6598
 8797TIP3    H126355   1.344   1.998   4.480 -2.1485 -0.8194 -2.6964
 8797TIP3    H226356   1.476   2.005   4.407 -0.5526  1.1787  0.1715
 8798TIP3   OH226357   1.516   4.607   2.575  0.0302  0.4551 -0.0001
 8798TIP3    H126358   1.488   4.515   2.567  0.0411  0.4035  0.4835
 8798TIP3    H226359   1.480   4.650   2.498 -1.7534  0.4668  0.7749
 8799TIP3   OH226360   5.640   0.245   1.683 -0.5776  0.0741 -0.3322
 8799TIP3    H126361   5.712   0.184   1.666 -0.1349  0.7046 -0.7498
 8799TIP3    H226362   5.649   0.268   1.775  0.3306  0.8725 -0.6072
 8800TIP3   OH226363   0.213   1.781   3.834 -0.4194  0.1512 -0.3846
 8800TIP3    H126364   0.207   1.708   3.772  0.6253 -2.3037  2.1781
 8800TIP3    H226365   0.128   1.781   3.879 -0.1188 -0.0687  0.1937
 8801TIP3   OH226366   2.474   5.599   2.557 -0.3179 -0.0196 -0.3556
 8801TIP3    H126367   2.437   5.636   2.637 -0.8569 -1.5091  0.1215
 8801TIP3    H226368   2.400   5.589   2.498  0.0549  0.9338 -1.0160
 8802TIP3   OH226369   6.869   4.687   1.889  0.0147  0.0669 -0.2231
 8802TIP3    H126370   6.940   4.657   1.833  1.7910  1.5174  1.0977
 8802TIP3    H226371   6.816   4.609   1.906  3.7551 -2.2887  2.2268
 8803TIP3   OH226372   2.591   2.303   0.357  0.2732 -0.1068 -0.1972
 8803TIP3    H126373   2.665   2.360   0.378 -1.5339  2.4685 -0.2242
 8803TIP3    H226374   2.626   2.239   0.295  2.0348  2.3727 -1.9607
 8804TIP3   OH226375   5.542   5.060   1.352 -0.4186  0.0361  0.0739
 8804TIP3    H126376   5.621   5.038   1.402 -0.8113 -0.8998  0.3085
 8804TIP3    H226377   5.535   4.991   1.287 -0.1331  1.0397 -1.0473
 8805TIP3   OH226378   6.336   1.940   1.365 -0.0761  0.7860  0.5156
 8805TIP3    H126379   6.264   1.953   1.427  0.5194  0.1044  1.3762
 8805TIP3    H226380   6.395   1.880   1.410  1.2014  1.5904 -0.0422
 8806TIP3   OH226381   0.521   4.698   1.390 -0.4335  0.5575 -0.3067
 8806TIP3    H126382   0.599   4.661   1.430 -0.4952  0.9242  0.1696
 8806TIP3    H226383   0.550   4.731   1.305  0.2215  1.7866  0.3588
 8807TIP3   OH226384   3.751   2.943   1.387 -0.2282 -0.3728 -0.2059
 8807TIP3    H126385   3.716   2.889   1.316 -0.8851  0.3193 -0.4232
 8807TIP3    H226386   3.779   3.024   1.344  1.0023 -0.6286  0.0741
 8808TIP3   OH226387   6.878   3.219   0.680  0.3164  0.0810 -0.4602
 8808TIP3    H126388   6.966   3.254   0.665 -0.0782  1.2642 -0.1664
 8808TIP3    H226389   6.886   3.125   0.665  1.3866  0.3170 -1.5018
 8809TIP3   OH226390   1.941   3.981   3.238 -0.3104 -0.3157  0.2558
 8809TIP3    H126391   2.012   3.992   3.301  2.3930 -0.3412 -2.5318
 8809TIP3    H226392   1.933   3.886   3.227  1.4486 -0.3415 -1.5399
 8810TIP3   OH226393   2.740   1.810   4.909 -0.5928  0.8239  0.0989
 8810TIP3    H126394   2.756   1.780   4.998  0.7370  2.0580  0.3069
 8810TIP3    H226395   2.766   1.737   4.853  2.1401  1.3138  0.6041
 8811TIP3   OH226396   6.914   3.238   2.154  0.3725 -0.5816  0.2783
 8811TIP3    H126397   6.863   3.288   2.091  0.3284 -1.3720 -0.3182
 8811TIP3    H226398   6.948   3.164   2.105  0.5716 -1.0602  1.1145
 8812TIP3   OH226399   2.073   2.685   2.575 -0.5519 -0.1899 -0.0963
 8812TIP3    H126400   2.137   2.735   2.525 -0.3314  2.0288  2.2222
 8812TIP3    H226401   2.120   2.657   2.654 -1.7473 -0.7411  0.4592
 8813TIP3   OH226402   5.888   2.477   5.009 -0.4397  0.5704 -0.7131
 8813TIP3    H126403   5.863   2.567   5.031 -1.1854 -0.1232  1.4415
 8813TIP3    H226404   5.951   2.453   5.076 -1.3530 -1.0124 -0.3878
 8814TIP3   OH226405   3.167   0.157   4.745 -0.1669 -0.6744 -0.0281
 8814TIP3    H126406   3.105   0.089   4.719 -1.2018  0.1612  0.1733
 8814TIP3    H226407   3.124   0.201   4.818 -0.1731  1.1112 -1.0640
 8815TIP3   OH226408   3.026   3.909   0.773 -0.8979 -0.0903  0.3225
 8815TIP3    H126409   2.954   3.955   0.816  1.0052  2.1818  1.3288
 8815TIP3    H226410   3.067   3.976   0.718  1.2792 -0.8601  0.9087
 8816TIP3   OH226411   6.015   1.534   1.951  1.0284 -0.5701  0.6257
 8816TIP3    H126412   5.928   1.574   1.954  0.3631 -1.6305 -1.8488
 8816TIP3    H226413   6.073   1.606   1.928  0.6395 -0.0644  1.1987
 8817TIP3   OH226414   6.690   6.040   4.420  0.4327 -0.4015 -0.7179
 8817TIP3    H126415   6.651   6.026   4.333 -0.5386  0.1954 -0.3931
 8817TIP3    H226416   6.708   6.134   4.423  1.3664 -0.5781 -0.6340
 8818TIP3   OH226417   5.671   2.318   1.347  0.2981  0.2121  0.2147
 8818TIP3    H126418   5.708   2.402   1.319 -1.3082  2.3496  3.8455
 8818TIP3    H226419   5.725   2.291   1.421 -0.0494 -1.2721 -0.0465
 8819TIP3   OH226420   2.149   2.094   3.721 -0.4757  0.3320 -0.2920
 8819TIP3    H126421   2.220   2.056   3.772 -1.1024 -0.1910  0.2146
 8819TIP3    H226422   2.173   2.077   3.630  0.3635  0.7482 -0.1565
 8820TIP3   OH226423   2.265   5.341   4.430  0.2085 -0.0418  0.6905
 8820TIP3    H126424   2.231   5.373   4.513 -0.4514  0.9892  0.0371
 8820TIP3    H226425   2.193   5.292   4.392  0.8633 -1.4633  1.1936
 8821TIP3   OH226426   7.078   4.544   0.813  0.0137  0.4539 -0.3111
 8821TIP3    H126427   7.114   4.624   0.773  2.0137  0.2778  0.9809
 8821TIP3    H226428   7.117   4.542   0.900 -2.5623 -0.2720  0.9143
 8822TIP3   OH226429   5.199   0.724   0.452 -0.0152  0.3615 -0.1400
 8822TIP3    H126430   5.168   0.773   0.375  0.9918 -0.1408 -0.8933
 8822TIP3    H226431   5.285   0.760   0.470  0.1405 -0.1579  0.1747
 8823TIP3   OH226432   3.815   3.271   4.310  0.1365 -0.0426  0.3048
 8823TIP3    H126433   3.806   3.336   4.380 -0.6537 -0.1362  0.2961
 8823TIP3    H226434   3.902   3.234   4.324  0.8824  1.4787 -0.0948
 8824TIP3   OH226435   4.689   3.086   1.983  0.4246  0.1722  0.2866
 8824TIP3    H126436   4.736   3.157   2.027 -0.1675  0.7211  0.0443
 8824TIP3    H226437   4.758   3.037   1.938  1.1534 -0.8642  2.4136
 8825TIP3   OH226438   0.337   2.096   5.415  0.0963  0.2087  0.2422
 8825TIP3    H126439   0.366   2.134   5.498  0.8563  1.5235 -0.6019
 8825TIP3    H226440   0.414   2.050   5.381 -0.1754 -0.2219  0.2028
 8826TIP3   OH226441   5.515   2.511   3.447  0.0955  0.3492  0.1766
 8826TIP3    H126442   5.561   2.520   3.364 -0.7614 -0.1302 -0.3724
 8826TIP3    H226443   5.428   2.548   3.430 -0.5320 -0.9389  0.4601
 8827TIP3   OH226444   0.771   4.324   1.217  0.4182  0.5461 -0.4531
 8827TIP3    H126445   0.821   4.404   1.201  1.3007 -0.1319 -1.1819
 8827TIP3    H226446   0.775   4.312   1.312 -1.1696  2.2637 -0.1106
 8828TIP3   OH226447   4.571   6.295   2.957 -0.0756 -0.7943  0.1194
 8828TIP3    H126448   4.602   6.323   2.871 -1.2254 -0.7692 -0.2980
 8828TIP3    H226449   4.650   6.293   3.011  0.5205  0.0997 -0.6867
 8829TIP3   OH226450   3.883   3.199   0.989  0.5086  0.4893 -0.1013
 8829TIP3    H126451   3.975   3.176   0.975 -0.3777 -3.4113 -0.6279
 8829TIP3    H226452   3.855   3.143   1.061 -1.7446  0.6783 -0.7526
 8830TIP3   OH226453   1.311   5.628   0.351 -0.1634  0.4913 -0.6536
 8830TIP3    H126454   1.323   5.543   0.309  0.0788  0.9763 -1.5980
 8830TIP3    H226455   1.377   5.631   0.420 -0.3836 -0.2094 -0.4054
 8831TIP3   OH226456   4.054   4.280   2.213  0.4320 -0.6443 -0.1573
 8831TIP3    H126457   3.966   4.246   2.231  0.0213  0.6066  0.2775
 8831TIP3    H226458   4.066   4.265   2.119  1.1870 -4.0068  0.3233
 8832TIP3   OH226459   3.139   0.549   5.376 -0.2194 -0.4042 -0.0859
 8832TIP3    H126460   3.061   0.528   5.427 -0.7938  0.4522 -0.5879
 8832TIP3    H226461   3.212   0.518   5.431 -0.9032 -1.3299  0.3253
 8833TIP3   OH226462   0.453   3.890   4.214  0.4784 -0.4235 -0.0258
 8833TIP3    H126463   0.534   3.918   4.256  1.1292 -0.8073 -0.9804
 8833TIP3    H226464   0.449   3.943   4.134  0.3637 -1.1868 -0.5274
 8834TIP3   OH226465   3.111   0.742   3.591  0.6439 -0.7143  0.2002
 8834TIP3    H126466   3.058   0.791   3.529  0.6388  0.6789  1.2713
 8834TIP3    H226467   3.118   0.655   3.552  1.4490  0.3596 -2.2185
 8835TIP3   OH226468   3.782   3.490   0.707  0.1872 -0.2805 -0.0217
 8835TIP3    H126469   3.777   3.539   0.789 -0.4919  1.7592 -1.2333
 8835TIP3    H226470   3.875   3.492   0.684  0.0863  1.0181 -0.3754
 8836TIP3   OH226471   3.465   1.059   0.516  0.1833  0.5912 -0.3506
 8836TIP3    H126472   3.408   1.006   0.572 -0.3584 -1.3279 -2.5292
 8836TIP3    H226473   3.553   1.033   0.542 -0.0619 -0.5621 -0.6066
 8837TIP3   OH226474   6.475   0.387   4.913  0.5324  0.1293  0.2094
 8837TIP3    H126475   6.559   0.342   4.911  0.5787  0.1601  1.2496
 8837TIP3    H226476   6.417   0.333   4.859  0.6708 -1.0092  1.1786
 8838TIP3   OH226477   1.602   4.570   5.016  0.3970 -0.4421  0.0650
 8838TIP3    H126478   1.607   4.622   4.936  0.1840 -0.5545 -0.0222
 8838TIP3    H226479   1.560   4.488   4.990 -0.9535  0.0605  0.5504
 8839TIP3   OH226480   4.056   2.126   4.752  0.3343 -0.3236 -0.2155
 8839TIP3    H126481   4.036   2.177   4.673 -3.2025  0.4672  1.0337
 8839TIP3    H226482   4.117   2.182   4.800  0.9822  0.0871 -1.4519
 8840TIP3   OH226483   3.615   0.199   2.319  0.5736  0.4019  0.7593
 8840TIP3    H126484   3.523   0.222   2.330  0.5345  0.2084  0.8370
 8840TIP3    H226485   3.660   0.283   2.310  0.3695  0.4902  0.5636
 8841TIP3   OH226486   3.927   2.903   4.634  0.1415 -0.0610 -0.0340
 8841TIP3    H126487   3.855   2.864   4.584 -0.4190 -2.3862  2.3849
 8841TIP3    H226488   3.889   2.922   4.720  1.8162  1.0216  0.5145
 8842TIP3   OH226489   5.264   4.207   5.879  0.0784 -0.4020  0.0988
 8842TIP3    H126490   5.194   4.150   5.846 -0.5108 -0.2569  1.0688
 8842TIP3    H226491   5.221   4.291   5.894  0.6995 -0.0125 -0.2666
 8843TIP3   OH226492   0.217   6.141   3.454 -0.1648 -0.1498  0.6476
 8843TIP3    H126493   0.152   6.105   3.515 -0.8311  0.1827  0.1446
 8843TIP3    H226494   0.273   6.195   3.510  0.0513 -0.9131  1.1868
 8844TIP3   OH226495   0.195   1.047   5.826  0.0835 -0.0237 -0.3809
 8844TIP3    H126496   0.282   1.050   5.865  0.0930  2.4815 -0.4197
 8844TIP3    H226497   0.203   1.094   5.743 -1.4224  0.9446 -0.0366
 8845TIP3   OH226498   2.201   4.629   1.807  0.2331  0.4605 -0.1331
 8845TIP3    H126499   2.175   4.602   1.719 -0.9827  0.7272  0.1347
 8845TIP3    H226500   2.147   4.706   1.825 -1.2185 -0.9262  1.7311
 8846TIP3   OH226501   2.820   1.014   3.903  0.3684  0.1069 -0.4040
 8846TIP3    H126502   2.910   1.001   3.935  0.6923 -2.3764 -2.1129
 8846TIP3    H226503   2.831   1.052   3.816 -0.2316 -0.5011 -0.7462
 8847TIP3   OH226504   5.445   0.393   5.460  0.3417  0.7456 -0.2104
 8847TIP3    H126505   5.521   0.450   5.456 -0.6156  2.0365 -0.5354
 8847TIP3    H226506   5.410   0.393   5.371  0.5425 -0.6852 -0.3167
 8848TIP3   OH226507   1.107   2.719   5.555  0.3301 -0.2274 -0.1122
 8848TIP3    H126508   1.147   2.645   5.509  2.7681  0.9906 -0.1102
 8848TIP3    H226509   1.156   2.725   5.637 -2.3774 -0.8844  1.6742
 8849TIP3   OH226510   2.017   2.733   3.411  0.2085 -0.2563 -0.3197
 8849TIP3    H126511   1.971   2.760   3.490  0.1592 -3.2800  0.8431
 8849TIP3    H226512   1.960   2.668   3.371  0.9186  0.1307 -2.0624
 8850TIP3   OH226513   3.493   1.369   5.228  0.3247  0.0053  0.4118
 8850TIP3    H126514   3.542   1.314   5.289  2.4549 -2.4198 -3.1127
 8850TIP3    H226515   3.419   1.315   5.201  0.4560  0.2414 -0.4693
 8851TIP3   OH226516   5.781   6.529   5.819  0.0536  0.4900 -0.2247
 8851TIP3    H126517   5.729   6.462   5.775 -1.6030  0.9957  0.9171
 8851TIP3    H226518   5.854   6.481   5.859 -0.1133 -0.3659 -0.9247
 8852TIP3   OH226519   5.800   2.228   1.573  0.1668 -0.2257  0.3583
 8852TIP3    H126520   5.789   2.199   1.664  0.3294 -0.9173  0.1627
 8852TIP3    H226521   5.883   2.275   1.573 -0.0806  0.2126  0.6728
 8853TIP3   OH226522   3.780   6.392   4.493 -0.1928 -0.0204  0.2455
 8853TIP3    H126523   3.849   6.421   4.553 -0.4116 -0.3852  0.6800
 8853TIP3    H226524   3.719   6.466   4.488  1.3241  1.1790 -1.8628
 8854TIP3   OH226525   3.466   1.351   3.210  0.1932 -0.1076 -0.3477
 8854TIP3    H126526   3.503   1.409   3.144  1.3554 -0.1822  0.2241
 8854TIP3    H226527   3.539   1.295   3.237 -0.0666  0.4216  1.5495
 8855TIP3   OH226528   3.959   6.516   2.296  0.0512 -0.7176  0.3306
 8855TIP3    H126529   3.949   6.424   2.272  1.1732 -0.4885 -1.2021
 8855TIP3    H226530   3.920   6.564   2.223  0.0477  0.0178  0.8105
 8856TIP3   OH226531   2.498   4.681   1.621  0.0871 -0.2934  0.5867
 8856TIP3    H126532   2.466   4.770   1.607 -2.2269 -0.9368  1.3681
 8856TIP3    H226533   2.515   4.676   1.715 -0.0194 -0.7524  0.5836
 8857TIP3   OH226534   4.425   3.211   4.841 -0.7834  0.2516 -0.1791
 8857TIP3    H126535   4.342   3.164   4.834  0.0189 -1.0782 -1.1780
 8857TIP3    H226536   4.462   3.184   4.925 -0.4354 -0.7727 -0.6447
 8858TIP3   OH226537   4.635   6.219   3.645 -0.2504 -0.5758  0.9961
 8858TIP3    H126538   4.722   6.238   3.680 -0.1164 -0.9571  0.8703
 8858TIP3    H226539   4.577   6.281   3.689  0.2252  0.3291  0.3947
 8859TIP3   OH226540   0.913   4.679   2.541  0.0607  0.7657 -0.1083
 8859TIP3    H126541   0.909   4.591   2.580  0.2264  1.2876  1.1597
 8859TIP3    H226542   0.964   4.668   2.461 -0.8505 -0.4829 -0.5451
 8860TIP3   OH226543   5.746   3.152   4.104 -0.3885 -0.0669 -0.3904
 8860TIP3    H126544   5.807   3.111   4.042 -0.6902 -0.2974 -0.5391
 8860TIP3    H226545   5.660   3.139   4.064 -0.3142  3.2930 -1.9655
 8861TIP3   OH226546   1.738   1.017   5.183  0.1734 -0.5452 -0.5778
 8861TIP3    H126547   1.827   1.042   5.205  0.7398 -1.8877 -1.1684
 8861TIP3    H226548   1.695   1.002   5.267 -0.2324  2.2730 -0.1847
 8862TIP3   OH226549   2.620   3.778   0.076  0.5587  0.7840 -0.4348
 8862TIP3    H126550   2.598   3.870   0.087 -0.2626  0.4973  0.4426
 8862TIP3    H226551   2.587   3.736   0.155  2.4460 -0.0027 -0.0113
 8863TIP3   OH226552   7.096   0.765   4.033  0.1271 -0.0600  0.5348
 8863TIP3    H126553   7.138   0.689   3.994  0.6959 -0.4155  1.7780
 8863TIP3    H226554   7.056   0.811   3.959  0.8223 -0.8959 -0.3944
 8864TIP3   OH226555   0.019   4.120   2.203 -0.3847 -0.3102  0.6463
 8864TIP3    H126556   0.085   4.189   2.208  2.4138 -2.7908  0.5975
 8864TIP3    H226557  -0.051   4.159   2.150  1.4832  2.1238 -0.2621
 8865TIP3   OH226558   0.455   1.833   1.207  0.0673 -0.7572  0.0817
 8865TIP3    H126559   0.540   1.875   1.220  0.1770 -0.5026 -1.2894
 8865TIP3    H226560   0.464   1.746   1.246 -0.2143  0.4486  3.1561
 8866TIP3   OH226561   1.575   0.946   0.688 -0.1499 -0.2754 -0.7837
 8866TIP3    H126562   1.613   0.897   0.761  0.4573  0.3008 -0.6972
 8866TIP3    H226563   1.594   0.893   0.611 -0.8568 -0.9207 -0.5139
 8867TIP3   OH226564   0.873   1.636   4.917  0.5912  0.4939 -0.2679
 8867TIP3    H126565   0.799   1.697   4.928  0.3138 -0.1591  2.1959
 8867TIP3    H226566   0.905   1.653   4.829 -1.5718  1.8446 -0.8869
 8868TIP3   OH226567   5.754   6.023   3.885  0.2005 -0.6566 -0.2590
 8868TIP3    H126568   5.741   5.929   3.885 -0.6874 -0.5713 -1.9228
 8868TIP3    H226569   5.791   6.043   3.799  1.1932  0.4290  0.3820
 8869TIP3   OH226570   2.670   6.466   3.090  0.0294 -0.0845 -0.2664
 8869TIP3    H126571   2.577   6.487   3.086 -0.1364 -0.6411  0.5709
 8869TIP3    H226572   2.673   6.370   3.089  0.7762 -0.1903 -4.1405
 8870TIP3   OH226573   2.765   4.745   3.281  0.8059  0.0357 -0.3300
 8870TIP3    H126574   2.835   4.809   3.270  1.4372 -0.5675  0.0751
 8870TIP3    H226575   2.731   4.730   3.193  1.7676 -0.3047 -0.6526
 8871TIP3   OH226576   1.862   3.335   5.651 -0.0067 -0.3245  0.3874
 8871TIP3    H126577   1.880   3.383   5.732  0.2584 -1.5530  1.0899
 8871TIP3    H226578   1.913   3.381   5.584  0.9680 -0.1744  1.2110
 8872TIP3   OH226579   4.408   2.841   0.206  0.4739 -0.5800  0.0824
 8872TIP3    H126580   4.371   2.753   0.215 -0.3629 -0.2040  0.3749
 8872TIP3    H226581   4.340   2.891   0.162  0.4791  0.2316  0.9827
 8873TIP3   OH226582   0.370   0.157   5.867  0.0588 -0.0708  0.4231
 8873TIP3    H126583   0.299   0.221   5.865  0.9250  0.9771  1.6271
 8873TIP3    H226584   0.403   0.155   5.777  0.4544  1.7322  0.4829
 8874TIP3   OH226585   1.471   6.291   0.543  0.2826 -0.0593 -0.3869
 8874TIP3    H126586   1.473   6.350   0.619 -0.3277 -1.1550  0.5066
 8874TIP3    H226587   1.443   6.347   0.470 -0.4887  0.7175  0.4829
 8875TIP3   OH226588   1.444   3.849   4.257  0.4477 -0.0489  0.3145
 8875TIP3    H126589   1.499   3.907   4.205  0.0667  0.5733  0.5965
 8875TIP3    H226590   1.461   3.874   4.348  1.0441 -1.0694  0.5026
 8876TIP3   OH226591   3.258   1.325   2.256 -0.2917  0.2543 -0.6071
 8876TIP3    H126592   3.307   1.405   2.275  0.2253 -0.1684 -0.0964
 8876TIP3    H226593   3.223   1.298   2.341  2.8427 -2.1936  0.1279
 8877TIP3   OH226594   2.139   3.966   5.603  0.2295 -0.3554  1.1965
 8877TIP3    H126595   2.158   3.872   5.611  0.5604 -0.5042 -0.8536
 8877TIP3    H226596   2.166   3.989   5.514 -1.7490  1.2344  0.9274
 8878TIP3   OH226597   5.997   5.475   0.323 -0.3861 -0.0575 -0.0474
 8878TIP3    H126598   6.025   5.420   0.250 -1.4107  0.6935 -1.0490
 8878TIP3    H226599   6.078   5.502   0.365  0.1634 -3.0817  1.1218
 8879TIP3   OH226600   6.969   4.235   4.299 -0.2522 -0.3458 -0.0093
 8879TIP3    H126601   7.053   4.207   4.337  0.1755 -0.2667 -0.8669
 8879TIP3    H226602   6.903   4.203   4.360  0.4296  0.0116  0.9332
 8880TIP3   OH226603   3.747   4.369   5.599 -0.8974  0.1528 -0.2700
 8880TIP3    H126604   3.810   4.301   5.577 -1.0263 -0.6042  1.5452
 8880TIP3    H226605   3.678   4.324   5.648 -2.0208  1.2479 -0.7976
 8881TIP3   OH226606   0.102   4.245   3.138  0.3207 -0.2485  0.1255
 8881TIP3    H126607   0.102   4.284   3.051 -0.8302 -0.9836 -0.2303
 8881TIP3    H226608   0.064   4.158   3.125 -1.8330  0.3684  1.6542
 8882TIP3   OH226609   4.567   1.201   3.156 -0.4385 -0.1675 -0.2908
 8882TIP3    H126610   4.602   1.126   3.203 -2.2795 -0.0635  1.3418
 8882TIP3    H226611   4.643   1.259   3.144  0.3094 -0.7027  1.5476
 8883TIP3   OH226612   5.079   4.691   2.806 -0.4574  0.6636 -0.0237
 8883TIP3    H126613   5.145   4.627   2.780  0.5454  0.5723  2.4782
 8883TIP3    H226614   5.084   4.759   2.739 -0.4644 -1.0728 -1.8969
 8884TIP3   OH226615   3.728   4.793   1.584 -0.3629 -0.0039 -0.0181
 8884TIP3    H126616   3.745   4.773   1.492 -2.5825 -1.3926 -0.1916
 8884TIP3    H226617   3.747   4.887   1.591  0.0775  0.0898 -1.8248
 8885TIP3   OH226618   2.590   4.723   2.564 -0.4428 -0.7961 -0.0766
 8885TIP3    H126619   2.670   4.775   2.561 -0.6037 -0.5482 -0.0488
 8885TIP3    H226620   2.558   4.723   2.474 -1.0619  0.1188  0.1273
 8886TIP3   OH226621   6.706   5.298   1.684 -0.2153 -0.7203 -0.4563
 8886TIP3    H126622   6.741   5.216   1.719  0.6393 -0.5222 -0.8305
 8886TIP3    H226623   6.674   5.275   1.597  1.3100 -0.3834 -1.1381
 8887TIP3   OH226624   1.668   1.249   0.952  0.1001  0.3568 -0.3443
 8887TIP3    H126625   1.646   1.334   0.990 -0.9691  0.0951 -0.3545
 8887TIP3    H226626   1.723   1.207   1.019  0.3076  0.8939 -0.1705
 8888TIP3   OH226627   3.094   6.129   5.875  0.1403 -0.1388  0.3935
 8888TIP3    H126628   3.034   6.151   5.803  0.2731  2.0247  0.8904
 8888TIP3    H226629   3.180   6.124   5.833  0.3568  2.0083  0.4739
 8889TIP3   OH226630   1.863   2.218   3.720  0.3230 -0.4008 -0.3673
 8889TIP3    H126631   1.955   2.192   3.713  1.0573  2.2151 -2.2018
 8889TIP3    H226632   1.866   2.314   3.719 -2.3734 -0.2167  0.9891
 8890TIP3   OH226633   3.308   5.734   1.444 -0.4350  0.2632  0.1397
 8890TIP3    H126634   3.242   5.677   1.483 -0.9579  1.5038  1.1272
 8890TIP3    H226635   3.370   5.752   1.515 -0.7309  1.5733  0.0935
 8891TIP3   OH226636   2.158   6.305   2.033 -0.2927  0.0221 -0.2161
 8891TIP3    H126637   2.200   6.224   2.006  0.5292  0.1897  0.4777
 8891TIP3    H226638   2.071   6.303   1.994 -0.5371 -1.5161  0.3550
 8892TIP3   OH226639   0.920   2.936   4.288  0.8042 -0.1745 -0.1905
 8892TIP3    H126640   0.888   2.876   4.221  0.6263 -1.5809  1.1183
 8892TIP3    H226641   0.843   2.989   4.311  0.3785 -0.9399  0.1940
 8893TIP3   OH226642   2.227   5.021   1.285  0.2498 -0.2098  0.2597
 8893TIP3    H126643   2.232   4.977   1.369  1.5970  0.1943  0.4060
 8893TIP3    H226644   2.222   4.950   1.221  0.7371 -0.5463  0.5916
 8894TIP3   OH226645   4.469   3.528   4.954 -0.5261  0.4156 -0.1518
 8894TIP3    H126646   4.454   3.434   4.939  1.1504  0.2950 -1.2795
 8894TIP3    H226647   4.437   3.570   4.874 -0.3701  0.7085 -0.0610
 8895TIP3   OH226648   3.109   2.744   3.310 -0.1801 -0.4883  0.1699
 8895TIP3    H126649   3.016   2.766   3.318 -0.3098 -0.6760 -0.7728
 8895TIP3    H226650   3.149   2.821   3.270  0.0891 -0.3796  0.6389
 8896TIP3   OH226651   1.332   6.260   3.138  0.5847  0.5023 -0.1185
 8896TIP3    H126652   1.428   6.260   3.143  0.6518 -0.4329 -1.1057
 8896TIP3    H226653   1.309   6.167   3.130 -0.5401  0.5251  2.1911
 8897TIP3   OH226654   2.013   3.348   3.516 -0.1570  0.9009  0.1388
 8897TIP3    H126655   2.102   3.337   3.551  0.2723  0.1788 -1.1384
 8897TIP3    H226656   1.984   3.260   3.496 -1.0682  1.1601  0.3026
 8898TIP3   OH226657   0.710   6.243   4.421 -0.5363 -0.5287  0.1888
 8898TIP3    H126658   0.628   6.197   4.406 -0.8623  1.0043 -3.8268
 8898TIP3    H226659   0.775   6.173   4.433 -1.7721 -1.8811 -0.6613
 8899TIP3   OH226660   0.541   3.074   4.151 -0.4890 -0.1500 -0.5908
 8899TIP3    H126661   0.561   2.982   4.170  1.8993  0.1650 -1.2490
 8899TIP3    H226662   0.446   3.081   4.165 -0.4747 -2.2532  1.2754
 8900TIP3   OH226663   7.139   4.353   3.359  0.4002  0.3326 -0.4052
 8900TIP3    H126664   7.045   4.336   3.352  0.3497  0.3456  0.1691
 8900TIP3    H226665   7.177   4.307   3.284  0.1218 -1.1701  0.3253
 8901TIP3   OH226666   5.571   4.557   0.535  0.8580 -0.2787  0.4790
 8901TIP3    H126667   5.547   4.485   0.593 -2.6407  1.8740  2.0275
 8901TIP3    H226668   5.516   4.544   0.457  0.8582  0.2364  0.3896
 8902TIP3   OH226669   2.155   3.335   5.663 -0.1819 -0.2985 -0.1431
 8902TIP3    H126670   2.231   3.325   5.720 -0.0247  0.9650 -0.0905
 8902TIP3    H226671   2.169   3.420   5.620 -0.2065 -1.2769 -2.2038
 8903TIP3   OH226672   3.609   3.438   4.109  0.0480  0.2791 -0.6493
 8903TIP3    H126673   3.590   3.425   4.202  0.5342  2.1895 -0.2417
 8903TIP3    H226674   3.533   3.399   4.064 -1.1659  1.0710  0.6314
 8904TIP3   OH226675   0.251   3.316   5.356 -0.3952 -0.1092 -0.5099
 8904TIP3    H126676   0.248   3.232   5.400 -0.6639  0.7227  1.1312
 8904TIP3    H226677   0.345   3.335   5.348 -0.3388  0.0840  0.4596
 8905TIP3   OH226678   0.261   0.661   2.132 -0.5269  0.0318  0.2465
 8905TIP3    H126679   0.256   0.665   2.228  0.7345  0.8920  0.3000
 8905TIP3    H226680   0.234   0.572   2.110 -1.6734  0.0835  1.3272
 8906TIP3   OH226681   4.109   5.562   4.126 -0.3847 -0.0821  0.7112
 8906TIP3    H126682   4.058   5.572   4.046  0.6126  0.5323  0.1277
 8906TIP3    H226683   4.049   5.521   4.189 -1.6996  0.9894  0.1923
 8907TIP3   OH226684   3.529   3.209   3.659  0.3266 -0.5678 -0.3810
 8907TIP3    H126685   3.468   3.144   3.693  1.3177 -1.6930 -0.6991
 8907TIP3    H226686   3.479   3.258   3.594 -0.3075 -1.2763 -0.4327
 8908TIP3   OH226687   4.283   2.910   3.376  0.0188 -0.2321  0.3831
 8908TIP3    H126688   4.241   2.827   3.355 -0.4875 -0.0333  0.6005
 8908TIP3    H226689   4.325   2.937   3.294 -1.0949  0.0476 -0.1141
 8909TIP3   OH226690   1.863   4.516   2.684 -0.0241  0.3332  0.0036
 8909TIP3    H126691   1.809   4.573   2.739  0.3522 -0.0949  0.8189
 8909TIP3    H226692   1.932   4.574   2.651 -0.4446  0.6680 -0.3097
 8910TIP3   OH226693   1.413   0.156   3.347  0.6612  0.3293  0.6242
 8910TIP3    H126694   1.447   0.067   3.356  1.2415  0.5321  0.4590
 8910TIP3    H226695   1.465   0.195   3.278 -0.2678  0.4826 -0.0137
 8911TIP3   OH226696   0.399   4.015   3.953  0.0332 -0.2224  0.1381
 8911TIP3    H126697   0.312   3.997   3.989  0.2927  0.2179  1.0034
 8911TIP3    H226698   0.381   4.048   3.865 -0.6674 -0.3060  0.2387
 8912TIP3   OH226699   6.802   1.826   4.202 -0.3572 -0.6181  0.0009
 8912TIP3    H126700   6.821   1.764   4.273 -1.8200 -1.0466  0.0507
 8912TIP3    H226701   6.708   1.817   4.187 -0.3955  0.8013 -0.7583
 8913TIP3   OH226702   5.083   3.247   2.770  0.0692 -0.1716 -0.5825
 8913TIP3    H126703   5.106   3.212   2.856 -0.3258 -1.6037 -1.0402
 8913TIP3    H226704   5.146   3.207   2.711 -0.6060 -0.3749 -1.1706
 8914TIP3   OH226705   5.659   6.336   2.529 -0.3017 -0.2024 -0.4275
 8914TIP3    H126706   5.603   6.405   2.493 -0.8841 -1.4240 -1.9300
 8914TIP3    H226707   5.735   6.383   2.563 -0.7429  1.1939 -1.2882
 8915TIP3   OH226708   0.851   2.737   3.217  0.6910 -0.0996 -0.1791
 8915TIP3    H126709   0.775   2.690   3.182  0.2876 -0.6597  1.3633
 8915TIP3    H226710   0.882   2.790   3.144 -0.4675 -0.7511 -1.1856
 8916TIP3   OH226711   1.438   4.271   4.523  0.4455  0.7133  0.0508
 8916TIP3    H126712   1.396   4.305   4.602  0.0243  0.3124  0.0056
 8916TIP3    H226713   1.368   4.268   4.458  0.5662  0.1429 -0.0586
 8917TIP3   OH226714   5.677   2.134   3.173 -0.0557  0.0885  0.6641
 8917TIP3    H126715   5.727   2.056   3.196 -0.9658 -0.5957  0.4012
 8917TIP3    H226716   5.634   2.160   3.255 -1.1191 -0.7260  0.3894
 8918TIP3   OH226717   6.024   4.254   1.851  0.2603 -0.4892 -0.4631
 8918TIP3    H126718   5.933   4.244   1.825 -0.0634  0.2615  0.3640
 8918TIP3    H226719   6.068   4.284   1.772 -0.2999 -0.3671 -0.7330
 8919TIP3   OH226720   3.913   1.678   5.158 -0.1806 -0.0158  0.7885
 8919TIP3    H126721   3.946   1.695   5.069  0.0441 -1.5054  0.5568
 8919TIP3    H226722   3.821   1.653   5.145  0.7381 -3.8195  0.4825
 8920TIP3   OH226723   4.224   6.717   4.694 -0.4976 -0.4553  0.4027
 8920TIP3    H126724   4.156   6.724   4.761 -1.2125 -1.0858 -0.2458
 8920TIP3    H226725   4.179   6.684   4.616  0.0495  1.4666 -0.8097
 8921TIP3   OH226726   2.887   1.476   5.109 -0.8690  0.1409  0.6151
 8921TIP3    H126727   2.888   1.550   5.170  0.7765  0.0517  0.7460
 8921TIP3    H226728   2.950   1.500   5.042 -0.2289 -1.1813  0.7202
 8922TIP3   OH226729   5.447   1.189   1.521  0.5259 -1.1567 -0.2916
 8922TIP3    H126730   5.466   1.122   1.588  1.5030 -0.0105  0.6144
 8922TIP3    H226731   5.503   1.263   1.545  1.0738 -0.7915 -2.5449
 8923TIP3   OH226732   5.925   0.710   5.673 -0.6111  0.0031  0.1864
 8923TIP3    H126733   5.889   0.625   5.699 -0.3532 -0.0006  0.5518
 8923TIP3    H226734   5.856   0.752   5.622 -0.3645 -0.8493 -0.8803
 8924TIP3   OH226735   4.691   5.994   3.242 -0.5012  0.1034  0.0691
 8924TIP3    H126736   4.735   5.927   3.294  2.2451  0.7768 -1.2175
 8924TIP3    H226737   4.657   5.948   3.166  0.2300 -0.0603 -0.1652
 8925TIP3   OH226738   5.105   3.902   5.134 -0.3887 -0.4564 -0.6486
 8925TIP3    H126739   5.046   3.827   5.131  1.7889 -2.3185 -0.3998
 8925TIP3    H226740   5.088   3.949   5.052 -0.7935 -2.0925 -1.5597
 8926TIP3   OH226741   6.084   2.546   0.527  0.7182  0.3628 -0.5155
 8926TIP3    H126742   6.171   2.536   0.489  1.1663 -1.1336  0.7995
 8926TIP3    H226743   6.052   2.456   0.536 -0.0517  0.7559  1.0414
 8927TIP3   OH226744   1.886   2.137   2.853 -0.2364  0.3665 -0.3861
 8927TIP3    H126745   1.844   2.205   2.801 -0.6420 -0.0084 -0.5549
 8927TIP3    H226746   1.967   2.178   2.885 -0.8852  1.1966  0.2278
 8928TIP3   OH226747   3.071   4.041   0.374  0.0301 -0.1115 -0.7389
 8928TIP3    H126748   3.131   4.113   0.353 -0.1813  0.3593  0.2291
 8928TIP3    H226749   3.128   3.969   0.401  0.2494 -0.3728 -1.8214
 8929TIP3   OH226750   1.516   1.945   5.591  0.0725 -0.2907  0.1963
 8929TIP3    H126751   1.445   2.006   5.572 -0.1442 -0.5583  0.1477
 8929TIP3    H226752   1.474   1.860   5.596  0.7153 -0.7868 -2.0662
 8930TIP3   OH226753   3.158   4.539   0.490  0.0641  0.2798  1.0909
 8930TIP3    H126754   3.075   4.493   0.504 -0.1443  0.6556  1.0990
 8930TIP3    H226755   3.138   4.630   0.510 -0.2632  0.8899 -1.5672
 8931TIP3   OH226756   4.174   1.900   4.443 -0.1818 -0.4855 -0.3110
 8931TIP3    H126757   4.101   1.926   4.387  1.6395  0.3221 -2.4675
 8931TIP3    H226758   4.214   1.826   4.398  2.2255  1.1237 -0.9906
 8932TIP3   OH226759   4.295   6.550   4.306 -0.7514  0.1262 -0.4598
 8932TIP3    H126760   4.315   6.637   4.271 -0.0112 -0.1649 -0.7715
 8932TIP3    H226761   4.235   6.567   4.379  0.1805  0.9763  0.1320
 8933TIP3   OH226762   2.320   0.676   0.473  0.0063  0.0013  0.1892
 8933TIP3    H126763   2.386   0.624   0.518  1.1212 -0.5781 -1.9448
 8933TIP3    H226764   2.303   0.628   0.392 -1.1967  1.4316 -0.4598
 8934TIP3   OH226765   6.109   0.615   3.718  0.2472  0.0314 -0.2661
 8934TIP3    H126766   6.078   0.531   3.685  0.9719 -0.6825  0.8025
 8934TIP3    H226767   6.202   0.601   3.737  0.0155  0.5531  1.4598
 8935TIP3   OH226768   3.839   3.863   0.908 -0.4904  0.3584  0.1674
 8935TIP3    H126769   3.865   3.867   1.000  1.6324  0.6735 -0.3972
 8935TIP3    H226770   3.778   3.789   0.904  0.1012 -0.2553  1.6694
 8936TIP3   OH226771   4.714   1.373   4.136  0.3364 -0.1843 -0.2858
 8936TIP3    H126772   4.752   1.287   4.122  1.1322  0.5186 -3.0353
 8936TIP3    H226773   4.638   1.376   4.078 -0.1559  0.6997  0.3699
 8937TIP3   OH226774   6.883   5.698   2.763  0.4203 -0.0189 -0.0318
 8937TIP3    H126775   6.820   5.699   2.691 -1.3790  0.2185  1.4878
 8937TIP3    H226776   6.888   5.790   2.792 -1.4646 -0.5103  2.2146
 8938TIP3   OH226777   1.804   0.914   4.663  0.6657  0.0373  0.8868
 8938TIP3    H126778   1.780   1.004   4.643  0.6046 -0.1024  0.3142
 8938TIP3    H226779   1.900   0.914   4.664  0.6834 -0.0736 -0.0042
 8939TIP3   OH226780   2.060   5.367   0.594  0.4763 -0.5540  0.3515
 8939TIP3    H126781   2.063   5.275   0.566 -0.4946 -0.9663  1.5283
 8939TIP3    H226782   2.019   5.365   0.680 -1.3956  1.1652 -0.4115
 8940TIP3   OH226783   7.156   3.016   5.534  0.1347 -0.1712  0.0802
 8940TIP3    H126784   7.163   2.928   5.571 -0.6760 -0.3063 -0.0749
 8940TIP3    H226785   7.239   3.029   5.487  0.7433 -0.3925  1.0700
 8941TIP3   OH226786   5.738   4.272   2.390  0.0677 -0.1380  0.8079
 8941TIP3    H126787   5.727   4.338   2.322  1.1016  0.8670  1.5838
 8941TIP3    H226788   5.822   4.231   2.371 -0.9506 -1.9239 -0.1907
 8942TIP3   OH226789   2.165   4.998   2.656 -0.4611  0.4250  0.3413
 8942TIP3    H126790   2.188   4.905   2.651  0.3175  0.6158  0.1392
 8942TIP3    H226791   2.171   5.020   2.749  1.7705  0.8219  0.1704
 8943TIP3   OH226792   3.671   2.906   2.809  0.1371  0.5850 -0.1365
 8943TIP3    H126793   3.666   2.972   2.877  0.1016 -0.1849  0.6323
 8943TIP3    H226794   3.726   2.837   2.847 -3.1000 -1.7261  0.7543
 8944TIP3   OH226795   1.499   3.111   0.336  0.4137  0.4012  0.3566
 8944TIP3    H126796   1.488   3.076   0.424  0.0908 -0.8022 -0.1379
 8944TIP3    H226797   1.410   3.134   0.308  0.5365  0.9538  0.3988
 8945TIP3   OH226798   5.212   0.143   0.897  0.3613  0.1615  0.0127
 8945TIP3    H126799   5.141   0.104   0.847  0.2110 -0.5896  0.7876
 8945TIP3    H226800   5.282   0.158   0.833 -0.2556  0.3303 -0.6330
 8946TIP3   OH226801   1.578   3.248   3.910  0.5075 -0.1357  0.4550
 8946TIP3    H126802   1.621   3.251   3.824  0.6535 -1.1711  0.4806
 8946TIP3    H226803   1.486   3.263   3.890  0.7263  1.1834  0.3017
 8947TIP3   OH226804   0.508   2.059   5.016  0.0232  0.3309 -0.0117
 8947TIP3    H126805   0.491   1.991   4.951  1.0292 -0.5268  0.5837
 8947TIP3    H226806   0.559   2.125   4.969 -0.2661  0.2869 -0.3899
 8948TIP3   OH226807   0.032   1.137   4.792 -0.3016 -0.8615  0.6309
 8948TIP3    H126808  -0.006   1.185   4.718 -1.5187 -1.5125  0.8232
 8948TIP3    H226809   0.065   1.206   4.850  0.5075 -0.3382 -0.4166
 8949TIP3   OH226810   6.682   4.332   4.991 -0.0529 -0.5206 -0.1306
 8949TIP3    H126811   6.737   4.332   5.069  0.1342  1.0472 -0.2341
 8949TIP3    H226812   6.693   4.419   4.954 -1.6505 -0.5822 -0.8364
 8950TIP3   OH226813   0.835   6.395   4.246 -0.9524  0.3073  0.2292
 8950TIP3    H126814   0.771   6.359   4.308 -1.2187 -0.5825 -0.5372
 8950TIP3    H226815   0.829   6.338   4.170  0.1937  0.6984 -0.1748
 8951TIP3   OH226816   2.519   1.256   1.338 -0.3802  0.5059 -0.0398
 8951TIP3    H126817   2.583   1.269   1.408  0.6772 -1.2271 -0.6078
 8951TIP3    H226818   2.543   1.318   1.270 -1.4889  2.2952  1.1013
 8952TIP3   OH226819   0.978   1.028   2.795 -0.3922  0.0342 -0.1225
 8952TIP3    H126820   0.885   1.009   2.805  0.1864 -2.2340  1.7835
 8952TIP3    H226821   1.002   0.985   2.713 -1.0659  0.9674 -0.8289
 8953TIP3   OH226822   2.269   1.740   0.592 -0.2455 -0.0569 -0.2828
 8953TIP3    H126823   2.255   1.660   0.642  3.0782  0.7439  2.3811
 8953TIP3    H226824   2.359   1.766   0.614 -0.3626  3.1799 -2.8375
 8954TIP3   OH226825   4.414   0.544   1.946  0.1728 -0.1280  0.4711
 8954TIP3    H126826   4.477   0.475   1.927  0.6033  0.1404  0.8848
 8954TIP3    H226827   4.333   0.514   1.906  0.2388 -1.0812  1.0128
 8955TIP3   OH226828   6.551   4.937   2.976 -0.2333 -0.3458 -0.4997
 8955TIP3    H126829   6.494   4.905   3.046 -0.2384  1.7547  0.5180
 8955TIP3    H226830   6.491   4.983   2.917  0.2016  0.6570 -0.1698
 8956TIP3   OH226831   7.062   2.173   4.168  0.2157  0.1754  0.1848
 8956TIP3    H126832   7.104   2.097   4.208  0.7022 -0.3805 -1.3384
 8956TIP3    H226833   7.134   2.228   4.140 -0.0813  0.0116 -0.9376
 8957TIP3   OH226834   3.915   1.928   0.053  0.1950  1.0481 -0.0224
 8957TIP3    H126835   3.937   1.837   0.030  0.6558  0.9902  0.6170
 8957TIP3    H226836   3.932   1.978  -0.026 -2.2361  0.2608 -1.1224
 8958TIP3   OH226837   1.132   3.877   5.809 -0.2897 -0.3079 -0.4004
 8958TIP3    H126838   1.106   3.801   5.757 -0.8841 -1.1990  1.1149
 8958TIP3    H226839   1.154   3.840   5.895 -0.5070  1.2179  0.3434
 8959TIP3   OH226840   2.914   4.952   2.049  0.1163  0.3312  0.1549
 8959TIP3    H126841   2.919   4.873   1.995 -0.0953  0.3997  0.0319
 8959TIP3    H226842   2.875   4.923   2.131  0.6988  0.1731  0.3768
 8960TIP3   OH226843   1.456   1.989   3.135  0.1189 -0.3318  0.3564
 8960TIP3    H126844   1.540   2.030   3.113  0.7081 -1.8220 -0.2443
 8960TIP3    H226845   1.465   1.965   3.228 -0.1886  0.7446  0.6830
 8961TIP3   OH226846   4.059   1.531   2.374 -0.9134  0.0892  0.1906
 8961TIP3    H126847   4.014   1.600   2.423  1.4689  2.2863 -0.4737
 8961TIP3    H226848   3.997   1.506   2.305 -1.7639  1.7690  0.2964
 8962TIP3   OH226849   2.461   2.108   1.551  0.4169 -0.8390  0.0254
 8962TIP3    H126850   2.415   2.122   1.633  2.3432 -3.0145  1.6068
 8962TIP3    H226851   2.407   2.045   1.503  0.1662 -0.9136  0.4060
 8963TIP3   OH226852   5.526   2.271   1.666 -0.2338 -0.0657 -0.2123
 8963TIP3    H126853   5.610   2.305   1.633 -1.3063  2.1403 -0.9180
 8963TIP3    H226854   5.469   2.270   1.589 -1.2389 -0.1380  0.5123
 8964TIP3   OH226855   4.137   6.155   1.265  0.0838  0.3203 -0.3957
 8964TIP3    H126856   4.114   6.075   1.311  1.8044 -0.7553 -1.2914
 8964TIP3    H226857   4.212   6.190   1.314 -0.0626  0.8627 -0.5553
 8965TIP3   OH226858   1.841   0.820   1.792  0.3215 -0.6140 -0.2807
 8965TIP3    H126859   1.914   0.880   1.773 -0.5235  0.9112  1.0369
 8965TIP3    H226860   1.835   0.820   1.888  0.1736 -2.7202 -0.2548
 8966TIP3   OH226861   6.591   6.279   5.425 -0.4605  0.2976 -0.5751
 8966TIP3    H126862   6.552   6.360   5.394 -3.3546 -1.0511 -0.8139
 8966TIP3    H226863   6.519   6.216   5.424  1.1350 -1.7568  1.6347
 8967TIP3   OH226864   0.482   4.472   4.915  1.0869 -0.4451 -0.4665
 8967TIP3    H126865   0.394   4.478   4.879  0.0629  1.3938  1.9786
 8967TIP3    H226866   0.512   4.385   4.893 -2.4437 -2.1718  0.7875
 8968TIP3   OH226867   1.196   2.389   0.732 -0.0460  0.1895 -0.5542
 8968TIP3    H126868   1.280   2.410   0.772 -0.0675 -0.6770 -0.0523
 8968TIP3    H226869   1.168   2.308   0.773 -1.9488  1.3227  0.5254
 8969TIP3   OH226870   4.295   4.080   2.795 -0.1045 -0.0441 -0.2639
 8969TIP3    H126871   4.354   4.005   2.786  2.5413  1.9747 -1.0868
 8969TIP3    H226872   4.210   4.047   2.766  1.1874 -2.4300 -1.6901
 8970TIP3   OH226873   5.060   5.196   0.663  0.1780 -0.1336 -0.4959
 8970TIP3    H126874   5.129   5.162   0.605  0.3367  2.8294 -2.2146
 8970TIP3    H226875   5.107   5.218   0.744  0.8242 -0.2264 -0.8325
 8971TIP3   OH226876   1.585   1.249   2.647  0.7486  0.1927 -0.5797
 8971TIP3    H126877   1.543   1.204   2.574  1.1443 -1.7219  0.3020
 8971TIP3    H226878   1.533   1.226   2.724  0.6415  1.7489 -0.1370
 8972TIP3   OH226879   4.474   4.553   2.712  0.4860  0.2776 -0.0998
 8972TIP3    H126880   4.555   4.590   2.748  0.7400 -1.0431  0.7718
 8972TIP3    H226881   4.419   4.629   2.693  1.9399  1.1981 -0.7609
 8973TIP3   OH226882   1.133   6.027   4.203 -0.3382  0.0679 -0.6048
 8973TIP3    H126883   1.112   6.081   4.126  0.1058  0.8986 -0.1565
 8973TIP3    H226884   1.138   5.937   4.168 -0.9830  0.3170 -1.3823
 8974TIP3   OH226885   2.329   6.588   1.777 -0.2829 -0.2458 -0.2436
 8974TIP3    H126886   2.263   6.545   1.724 -0.4607  0.6316 -0.7431
 8974TIP3    H226887   2.280   6.634   1.845 -0.1843  0.2236 -0.4814
 8975TIP3   OH226888   7.165   1.222   4.090  0.8054 -0.7118 -0.8022
 8975TIP3    H126889   7.218   1.275   4.031  0.4286 -0.0965 -0.5976
 8975TIP3    H226890   7.125   1.156   4.034  1.2242 -0.7467 -1.0692
 8976TIP3   OH226891   2.818   0.434   5.378 -0.0384 -0.0686 -0.8318
 8976TIP3    H126892   2.730   0.397   5.379  0.3375 -1.0790  1.2943
 8976TIP3    H226893   2.872   0.369   5.423  1.3999  1.4014 -0.3189
 8977TIP3   OH226894   2.382   0.270   3.630  0.0786 -0.4182 -0.4088
 8977TIP3    H126895   2.427   0.286   3.713  0.9130 -1.4806 -0.6280
 8977TIP3    H226896   2.360   0.177   3.633  0.4446 -0.5598 -1.5183
 8978TIP3   OH226897   6.714   5.998   3.096 -0.0873 -0.0806 -0.1346
 8978TIP3    H126898   6.747   6.066   3.037 -2.5025  1.1618 -0.1770
 8978TIP3    H226899   6.784   5.986   3.160 -0.5834  4.6441  1.6455
 8979TIP3   OH226900   3.817   1.682   1.858  0.5015  0.4325 -0.2744
 8979TIP3    H126901   3.830   1.616   1.791  0.2673 -1.1495  1.1703
 8979TIP3    H226902   3.726   1.712   1.846  0.4787  0.1961 -0.6780
 8980TIP3   OH226903   0.770   4.292   3.266  0.3028  0.2448 -0.2172
 8980TIP3    H126904   0.788   4.386   3.275 -0.0628  0.3747 -0.7949
 8980TIP3    H226905   0.766   4.260   3.356  1.6152  0.5473 -0.0275
 8981TIP3   OH226906   3.835   5.118   1.132 -0.2173 -0.2419  0.5438
 8981TIP3    H126907   3.877   5.060   1.069  2.2815  0.0831  1.7979
 8981TIP3    H226908   3.833   5.204   1.089  0.9017 -0.1566  0.6387
 8982TIP3   OH226909   6.306   2.357   0.625 -0.0854  0.4756  0.3448
 8982TIP3    H126910   6.261   2.303   0.560 -0.2951 -0.3824  1.1918
 8982TIP3    H226911   6.351   2.424   0.573  0.5987 -0.8059 -0.7883
 8983TIP3   OH226912   0.942   1.525   1.424 -0.2524  0.1507 -0.0557
 8983TIP3    H126913   0.896   1.454   1.468  0.0464 -0.3863 -0.5862
 8983TIP3    H226914   0.895   1.604   1.449 -1.0068 -0.3100  0.0025
 8984TIP3   OH226915   0.661   2.524   0.241  0.4595  0.4861 -0.4434
 8984TIP3    H126916   0.677   2.484   0.156  0.0066 -0.2714 -0.1766
 8984TIP3    H226917   0.600   2.596   0.223 -1.4918 -1.0935 -0.4710
 8985TIP3   OH226918   2.287   3.735   5.164  0.4683 -0.0782  0.1213
 8985TIP3    H126919   2.323   3.745   5.076 -0.7125  0.0928 -0.3519
 8985TIP3    H226920   2.307   3.644   5.187 -2.6940 -1.4733 -1.9850
 8986TIP3   OH226921   3.018   3.485   3.274  0.3413 -0.3454 -0.1280
 8986TIP3    H126922   3.091   3.431   3.305  1.1109  1.3823  1.2938
 8986TIP3    H226923   2.980   3.523   3.353 -0.8345  0.3634 -0.9863
 8987TIP3   OH226924   4.329   0.165   4.817 -0.4600 -0.1280 -0.0916
 8987TIP3    H126925   4.286   0.093   4.863  2.0033 -1.4190  0.3320
 8987TIP3    H226926   4.293   0.161   4.728 -1.3298 -1.0348  0.2830
 8988TIP3   OH226927   4.883   6.264   5.888  0.4508 -0.2685  0.0753
 8988TIP3    H126928   4.882   6.292   5.797 -1.1815 -0.4874 -0.0009
 8988TIP3    H226929   4.823   6.324   5.933 -0.5891 -1.5966  0.5251
 8989TIP3   OH226930   4.143   5.747   4.345 -0.0600 -0.1017  0.0254
 8989TIP3    H126931   4.097   5.700   4.414 -0.4768 -0.8495 -0.7535
 8989TIP3    H226932   4.131   5.694   4.266  1.2093  0.2438 -0.4354
 8990TIP3   OH226933   0.440   1.378   4.024  0.0954  0.0856 -0.2997
 8990TIP3    H126934   0.484   1.406   3.944  1.1576  1.5551  0.7425
 8990TIP3    H226935   0.454   1.450   4.086  1.3327 -1.9413  1.9480
 8991TIP3   OH226936   1.671   0.721   5.614 -0.5797 -0.3239 -0.1945
 8991TIP3    H126937   1.636   0.771   5.540  0.8894 -0.9347 -1.3615
 8991TIP3    H226938   1.705   0.786   5.674  1.8047  0.1857 -1.9399
 8992TIP3   OH226939   6.033   3.015   5.324 -0.1181 -0.3175 -0.1163
 8992TIP3    H126940   5.957   3.044   5.273 -0.6194 -0.9507  0.2587
 8992TIP3    H226941   6.027   3.064   5.406 -0.0366 -0.2623 -0.1426
 8993TIP3   OH226942   0.903   5.058   3.806  0.0966 -0.1694 -0.1561
 8993TIP3    H126943   0.884   5.041   3.714  1.5202  1.4884 -0.8360
 8993TIP3    H226944   0.997   5.039   3.814  0.1214  0.3114  0.7817
 8994TIP3   OH226945   3.346   0.856   2.155 -0.2451  0.2616  0.1168
 8994TIP3    H126946   3.287   0.807   2.212 -0.6604  1.2600  0.5754
 8994TIP3    H226947   3.432   0.848   2.196 -0.7859  2.2265  1.8008
 8995TIP3   OH226948   7.002   4.368   1.024  0.0191  0.7258  0.3636
 8995TIP3    H126949   7.062   4.443   1.029  1.3139 -0.3503  1.9298
 8995TIP3    H226950   7.038   4.304   1.086 -0.7054 -1.4388 -1.3035
 8996TIP3   OH226951   3.742   3.723   1.688  0.1009  0.0052 -0.3230
 8996TIP3    H126952   3.703   3.638   1.706  1.7357 -0.9070 -0.8731
 8996TIP3    H226953   3.829   3.719   1.728  1.2073  0.4166 -2.5273
 8997TIP3   OH226954   1.275   2.510   5.443 -0.3808 -0.6415 -0.4425
 8997TIP3    H126955   1.256   2.485   5.353  0.9629  2.7116 -1.8324
 8997TIP3    H226956   1.369   2.526   5.445 -0.3152 -0.9137  1.6888
 8998TIP3   OH226957   0.390   4.707   2.483 -0.5161 -0.1318  0.8547
 8998TIP3    H126958   0.416   4.720   2.575 -0.7257  0.4195  0.8430
 8998TIP3    H226959   0.344   4.788   2.460  0.0430 -0.0179  0.0894
 8999TIP3   OH226960   1.906   2.256   3.444 -0.2926 -0.0584 -0.2633
 8999TIP3    H126961   1.911   2.330   3.504  0.7122  1.3506 -1.9850
 8999TIP3    H226962   1.836   2.279   3.383  1.0313  0.2298 -1.7241
 9000TIP3   OH226963   1.509   3.211   2.042  0.4831  0.1407  0.6641
 9000TIP3    H126964   1.543   3.193   2.130  1.0151 -0.7303  0.2958
 9000TIP3    H226965   1.450   3.139   2.023  0.1834  0.4510  0.3970
 9001TIP3   OH226966   1.409   1.417   5.077 -0.2788  0.0478  0.5997
 9001TIP3    H126967   1.487   1.462   5.109  1.8822 -3.2709  0.5534
 9001TIP3    H226968   1.424   1.325   5.100 -3.5457 -0.9629 -0.7267
 9002TIP3   OH226969   0.512   3.375   5.256  0.5344 -0.0418  0.2319
 9002TIP3    H126970   0.538   3.389   5.165 -0.0940  0.4381  0.1184
 9002TIP3    H226971   0.591   3.342   5.299  1.1601  0.8074 -0.2353
 9003TIP3   OH226972   7.186   1.008   0.397 -0.3439 -0.3811  0.2868
 9003TIP3    H126973   7.263   1.015   0.341 -0.1205 -0.9278  0.5232
 9003TIP3    H226974   7.122   1.067   0.357  0.6438  1.1458  0.8501
 9004TIP3   OH226975   4.108   6.368   0.891  0.4250 -0.3937  0.1519
 9004TIP3    H126976   4.095   6.280   0.856 -0.3630  0.6969 -2.6037
 9004TIP3    H226977   4.019   6.401   0.907  0.5103  0.8444 -1.6272
 9005TIP3   OH226978   0.727   1.275   4.859  0.0305 -0.0513  0.3560
 9005TIP3    H126979   0.687   1.361   4.859  0.1568  0.0152  0.8304
 9005TIP3    H226980   0.743   1.255   4.767  2.7717  1.7423  0.3129
 9006TIP3   OH226981   1.146   5.413   5.693 -0.0008  0.1751 -0.0070
 9006TIP3    H126982   1.132   5.494   5.742  1.3564  0.2121  0.3499
 9006TIP3    H226983   1.214   5.366   5.742  0.8359 -0.1584 -1.4090
 9007TIP3   OH226984   0.831   0.353   2.326 -0.2937  0.6720  0.5234
 9007TIP3    H126985   0.868   0.277   2.280 -1.0546  0.9480 -0.5802
 9007TIP3    H226986   0.753   0.376   2.275  0.1655  2.4724  0.5605
 9008TIP3   OH226987   3.417   0.146   0.489  0.3652  0.5075 -0.1430
 9008TIP3    H126988   3.333   0.113   0.458  0.8945  0.4891 -1.6432
 9008TIP3    H226989   3.395   0.206   0.561 -1.0240  1.4890 -1.3317
 9009TIP3   OH226990   3.227   4.766   1.338  0.2538 -0.0301 -0.3177
 9009TIP3    H126991   3.243   4.860   1.330  0.5449 -0.1738 -1.8189
 9009TIP3    H226992   3.309   4.731   1.371  0.9485  0.0004 -1.9158
 9010TIP3   OH226993   4.706   3.953   5.121 -0.1779 -0.3113 -0.2876
 9010TIP3    H126994   4.681   4.042   5.095  0.2772 -0.3069 -0.7225
 9010TIP3    H226995   4.719   3.907   5.039 -2.0341 -1.2746 -0.1069
 9011TIP3   OH226996   6.903   4.191   4.031  0.1801 -0.8171  0.2685
 9011TIP3    H126997   6.920   4.181   4.125 -1.2881  1.5964  0.8611
 9011TIP3    H226998   6.809   4.205   4.025  0.5643  1.7178 -1.2354
 9012TIP3   OH226999   2.384   0.835   5.609  0.4271 -0.2095  0.2705
 9012TIP3    H127000   2.462   0.810   5.659  0.4970 -0.9063 -0.1752
 9012TIP3    H227001   2.311   0.795   5.657  0.3433  0.3655  0.6358
 9013TIP3   OH227002   1.167   4.123   1.303 -0.1140  0.5178 -0.6324
 9013TIP3    H127003   1.174   4.216   1.283 -1.2467  0.9374  0.7811
 9013TIP3    H227004   1.075   4.101   1.286 -0.2840  0.0992  0.7582
 9014TIP3   OH227005   5.575   6.240   3.910 -0.3883 -0.3217 -0.4609
 9014TIP3    H127006   5.507   6.182   3.945  0.3713 -0.2141  1.2937
 9014TIP3    H227007   5.650   6.182   3.894  0.0034 -0.0194  0.2396
 9015TIP3   OH227008   5.345   1.059   1.201 -0.4359 -0.2699 -0.3385
 9015TIP3    H127009   5.427   1.025   1.163  0.5566  1.4603  0.1350
 9015TIP3    H227010   5.276   1.018   1.149  0.8355  1.8415 -4.0877
 9016TIP3   OH227011   2.046   5.204   2.531 -0.4254 -0.6718 -0.0602
 9016TIP3    H127012   2.114   5.151   2.573 -0.1407  0.5087  1.0363
 9016TIP3    H227013   1.967   5.150   2.538  0.0382 -1.3379  0.2108
 9017TIP3   OH227014   4.263   2.147   1.460  0.3353 -0.7090  0.5539
 9017TIP3    H127015   4.171   2.126   1.446 -1.1262  4.9598 -1.2266
 9017TIP3    H227016   4.307   2.119   1.379 -0.4493 -0.9199  0.1942
 9018TIP3   OH227017   7.026   3.211   3.211  0.2684  0.0528  0.0055
 9018TIP3    H127018   7.020   3.306   3.203  0.3572  0.0822  0.2724
 9018TIP3    H227019   7.119   3.191   3.201  0.3142  0.0423  0.4252
 9019TIP3   OH227020   1.015   6.170   4.706 -0.5065 -0.3501  0.4399
 9019TIP3    H127021   0.922   6.151   4.711 -0.9993  1.8977  0.6339
 9019TIP3    H227022   1.045   6.124   4.628 -1.8256 -0.8669  0.2187
 9020TIP3   OH227023   0.648   5.634   2.969  0.1576 -0.5568  0.6667
 9020TIP3    H127024   0.696   5.552   2.960  1.7718  0.6040 -3.4986
 9020TIP3    H227025   0.556   5.609   2.958  0.5091 -1.9438  0.7397
 9021TIP3   OH227026   5.053   4.647   4.397  0.0469 -0.2400  0.3535
 9021TIP3    H127027   5.031   4.609   4.482  0.8398 -0.1679  0.5971
 9021TIP3    H227028   5.138   4.610   4.376  0.4000  0.6686  0.1474
 9022TIP3   OH227029   2.745   6.083   4.956 -0.2832  0.0873  0.3173
 9022TIP3    H127030   2.701   6.072   4.872  1.3644  1.9471 -0.8678
 9022TIP3    H227031   2.781   5.997   4.976  0.5721 -0.0616 -1.6704
 9023TIP3   OH227032   3.357   6.441   4.834  0.0845 -0.4418  0.0137
 9023TIP3    H127033   3.290   6.500   4.868 -0.9200 -1.2671 -0.4539
 9023TIP3    H227034   3.427   6.444   4.899  0.2024  1.4768 -0.1540
 9024TIP3   OH227035   2.524   2.317   4.531 -0.0749 -0.2658 -0.2861
 9024TIP3    H127036   2.595   2.366   4.571  0.7786 -1.1158 -0.7336
 9024TIP3    H227037   2.503   2.248   4.594 -1.4789  0.8166  0.4797
 9025TIP3   OH227038   1.308   2.591   3.524  0.0483 -0.2545  0.2452
 9025TIP3    H127039   1.250   2.515   3.529  0.4437 -0.8040 -2.0331
 9025TIP3    H227040   1.359   2.576   3.444  1.6678  1.3699  0.9091
 9026TIP3   OH227041   2.857   5.241   5.033 -0.1731  0.1831  0.1953
 9026TIP3    H127042   2.843   5.155   4.995 -0.5351  0.4324 -0.2479
 9026TIP3    H227043   2.951   5.246   5.048 -0.2611 -0.6668  1.1511
 9027TIP3   OH227044   2.442   4.099   3.285 -0.3400 -0.4730  0.5009
 9027TIP3    H127045   2.464   4.041   3.213  1.1473 -0.3352  0.8034
 9027TIP3    H227046   2.497   4.070   3.358  0.5645  1.3501  0.6210
 9028TIP3   OH227047   2.844   4.663   1.965 -0.1621  0.0314 -0.0529
 9028TIP3    H127048   2.909   4.628   2.026 -0.2623 -1.5733 -0.7885
 9028TIP3    H227049   2.804   4.585   1.927 -1.3087  0.9948 -0.8906
 9029TIP3   OH227050   1.953   2.050   0.249 -0.3388 -0.2757  0.2595
 9029TIP3    H127051   1.923   2.025   0.336 -0.3891  0.3883  0.4422
 9029TIP3    H227052   2.022   1.987   0.227 -0.4634 -0.5628  0.6954
 9030TIP3   OH227053   4.942   2.563   2.804 -0.8985  0.3554 -0.0831
 9030TIP3    H127054   4.936   2.574   2.899 -2.2349  0.9829 -0.2106
 9030TIP3    H227055   5.004   2.491   2.792 -0.8967  0.1044  1.2741
 9031TIP3   OH227056   6.602   3.817   3.572 -0.5852  0.3507 -0.7154
 9031TIP3    H127057   6.627   3.888   3.630  2.2745 -1.1714  0.0921
 9031TIP3    H227058   6.576   3.746   3.631  0.0459 -0.4330 -1.3570
 9032TIP3   OH227059   5.315   3.669   1.173 -0.3307 -0.1443 -0.0522
 9032TIP3    H127060   5.349   3.738   1.116 -1.8432  0.5040 -0.2111
 9032TIP3    H227061   5.300   3.595   1.114  1.9413 -0.8869  0.2346
 9033TIP3   OH227062   4.576   5.565   4.166 -0.9443 -0.2025  0.3346
 9033TIP3    H127063   4.581   5.495   4.232 -2.5737  0.6463  1.4304
 9033TIP3    H227064   4.490   5.554   4.127  0.0866 -0.8398 -1.9136
 9034TIP3   OH227065   5.865   5.495   1.909  0.2070  0.6531 -0.0934
 9034TIP3    H127066   5.940   5.511   1.851 -0.1638  2.3584 -0.1520
 9034TIP3    H227067   5.789   5.522   1.857 -0.1805  1.6821  0.9665
 9035TIP3   OH227068   5.507   3.087   3.562 -0.3496 -0.8703 -0.4108
 9035TIP3    H127069   5.542   3.049   3.481 -1.1209  1.8013 -2.1518
 9035TIP3    H227070   5.585   3.111   3.613  0.1904 -1.2244 -1.0454
 9036TIP3   OH227071   4.841   6.284   3.802 -0.0732  0.3673  0.5779
 9036TIP3    H127072   4.815   6.239   3.883  0.0723 -1.7194 -0.4649
 9036TIP3    H227073   4.926   6.322   3.821 -0.6148  1.0323  1.7852
 9037TIP3   OH227074   1.800   2.746   4.559  0.3974 -0.3505 -0.1270
 9037TIP3    H127075   1.834   2.787   4.479  0.0886  0.8038  0.3204
 9037TIP3    H227076   1.800   2.652   4.539  0.3757 -0.0901 -1.4639
 9038TIP3   OH227077   5.075   0.411   1.719  0.3915 -0.3312 -0.5994
 9038TIP3    H127078   5.112   0.323   1.716  0.5952 -0.2485 -0.5410
 9038TIP3    H227079   5.081   0.436   1.812  1.0852  0.0607 -0.7397
 9039TIP3   OH227080   2.213   6.214   1.488  0.2861  0.7681 -0.0586
 9039TIP3    H127081   2.162   6.280   1.443  1.0133  0.7532 -0.9343
 9039TIP3    H227082   2.287   6.262   1.526 -0.4367  0.8194  1.3423
 9040TIP3   OH227083   6.494   4.176   5.666 -0.6767  0.0606  0.1072
 9040TIP3    H127084   6.519   4.127   5.744 -0.9029  2.4939  1.8325
 9040TIP3    H227085   6.399   4.183   5.671 -0.5354  2.1494  0.9416
 9041TIP3   OH227086   2.225   1.745   3.879 -0.0778 -0.4305  0.3500
 9041TIP3    H127087   2.152   1.742   3.817 -0.6994  0.7615  0.9894
 9041TIP3    H227088   2.211   1.825   3.929  0.3753 -1.3917  2.0847
 9042TIP3   OH227089   3.783   4.751   2.152  0.4534  0.2924 -0.2799
 9042TIP3    H127090   3.756   4.772   2.241  0.2583 -0.9050 -0.0482
 9042TIP3    H227091   3.757   4.828   2.101  0.8474  1.1175  0.7351
 9043TIP3   OH227092   1.976   2.174   5.324  0.0759  0.1561  0.2020
 9043TIP3    H127093   1.959   2.178   5.230 -1.4908 -1.8267  0.3384
 9043TIP3    H227094   2.032   2.098   5.335  0.9339  0.8507  0.8375
 9044TIP3   OH227095   6.410   3.942   3.386  0.5972 -0.0709  0.2641
 9044TIP3    H127096   6.441   3.918   3.298  0.0197 -1.8258  0.5095
 9044TIP3    H227097   6.474   3.903   3.446  0.3970  0.2043  0.6620
 9045TIP3   OH227098   3.378   4.311   0.785  0.6812  0.5960  0.4069
 9045TIP3    H127099   3.453   4.257   0.762  0.2269 -0.1184  0.5858
 9045TIP3    H227100   3.338   4.267   0.860  1.0894  1.9108  1.4543
 9046TIP3   OH227101   3.032   5.937   5.024 -0.0758  0.4826  0.5667
 9046TIP3    H127102   2.969   5.921   5.095 -0.3157  0.7463  0.4160
 9046TIP3    H227103   3.112   5.966   5.069 -0.5038  1.5200  0.6906
 9047TIP3   OH227104   4.145   1.012   0.044 -0.0379  0.1937 -0.2814
 9047TIP3    H127105   4.099   0.937   0.006  1.1283 -1.2532  0.9905
 9047TIP3    H227106   4.165   0.984   0.133  0.6877  1.9372  0.1340
 9048TIP3   OH227107   3.377   2.484   5.194 -0.1423  0.4196  0.2273
 9048TIP3    H127108   3.316   2.519   5.258  0.1635  2.5095 -0.5239
 9048TIP3    H227109   3.354   2.392   5.185 -0.2001  0.0322  3.2892
 9049TIP3   OH227110   1.890   3.990   5.386 -0.1616 -0.3622  0.2360
 9049TIP3    H127111   1.857   3.997   5.296  1.1951 -1.2699 -0.3655
 9049TIP3    H227112   1.880   4.078   5.423  0.8639  0.4744 -1.3805
 9050TIP3   OH227113   0.783   0.725   3.325 -0.9171  0.1633 -0.5626
 9050TIP3    H127114   0.718   0.791   3.350 -0.7920 -0.1335  0.5951
 9050TIP3    H227115   0.854   0.775   3.285 -0.2188  0.9159  1.4798
 9051TIP3   OH227116   3.124   3.713   4.696  0.1679  0.8343  0.4759
 9051TIP3    H127117   3.154   3.798   4.662 -0.2514 -0.1418 -2.6792
 9051TIP3    H227118   3.120   3.657   4.619 -1.0292 -1.6571  2.2268
 9052TIP3   OH227119   0.948   2.313   1.757  0.7296  0.1872 -0.2334
 9052TIP3    H127120   0.868   2.269   1.731  1.4917 -1.2245 -0.2994
 9052TIP3    H227121   0.965   2.283   1.846  0.9546  0.8282 -0.0505
 9053TIP3   OH227122   0.261   2.692   5.626  0.0663  0.3835 -0.0358
 9053TIP3    H127123   0.178   2.735   5.645 -0.0159  0.1251  0.1942
 9053TIP3    H227124   0.326   2.762   5.635 -0.0659  0.4608  0.3500
 9054TIP3   OH227125   5.036   6.765   3.766 -0.3597 -0.4582 -0.0268
 9054TIP3    H127126   5.006   6.676   3.749 -1.1816 -0.4081  1.0484
 9054TIP3    H227127   5.089   6.758   3.846  0.8614 -0.2185 -0.7934
 9055TIP3   OH227128   5.811   1.696   1.150  0.6507 -1.1086 -0.2049
 9055TIP3    H127129   5.858   1.769   1.110  0.0005  0.4417  1.7268
 9055TIP3    H227130   5.831   1.621   1.093  0.8361  0.6537 -2.6021
 9056TIP3   OH227131   2.344   6.778   2.566  0.6082 -1.0646 -0.2267
 9056TIP3    H127132   2.407   6.802   2.498  1.5010 -3.6590 -0.4436
 9056TIP3    H227133   2.295   6.705   2.529 -1.3115 -0.2995  0.6613
 9057TIP3   OH227134   1.765   1.035   2.338  0.2609 -0.2745 -0.1349
 9057TIP3    H127135   1.854   1.004   2.325  0.8316  1.0874  0.3522
 9057TIP3    H227136   1.765   1.069   2.428 -0.6715  0.0014 -0.2317
 9058TIP3   OH227137   6.077   2.340   1.557 -0.3447 -0.0286  0.1195
 9058TIP3    H127138   6.138   2.307   1.491  0.4362 -0.2504  0.9407
 9058TIP3    H227139   6.116   2.315   1.641 -1.8619 -0.7022  0.6595
 9059TIP3   OH227140   4.609   0.814   5.616  0.1823 -0.2710  0.4342
 9059TIP3    H127141   4.624   0.865   5.696  0.9507 -0.9145  0.7276
 9059TIP3    H227142   4.696   0.779   5.594 -0.1963 -0.8698 -0.1460
 9060TIP3   OH227143   6.517   2.661   4.642 -0.2709 -0.1455 -0.1879
 9060TIP3    H127144   6.450   2.714   4.684  0.0707  1.0685 -1.1203
 9060TIP3    H227145   6.600   2.698   4.671  0.0151  1.8467 -3.0872
 9061TIP3   OH227146   1.028   4.732   5.357 -0.3522  0.3230  0.1171
 9061TIP3    H127147   1.013   4.676   5.281 -0.8973  0.6107  0.0082
 9061TIP3    H227148   0.945   4.779   5.369  0.1489  1.2274  0.1038
 9062TIP3   OH227149   3.909   4.508   5.755  0.0953  0.3363  0.5809
 9062TIP3    H127150   3.990   4.509   5.704  0.4425 -0.5011  1.0927
 9062TIP3    H227151   3.843   4.477   5.694  0.4722 -0.4772  0.5744
 9063TIP3   OH227152   4.748   2.734   3.710 -0.5965  0.4074 -0.5094
 9063TIP3    H127153   4.697   2.711   3.788 -0.0087  2.3364  0.5161
 9063TIP3    H227154   4.707   2.685   3.639 -1.8189 -0.5927  0.8189
 9064TIP3   OH227155   1.924   5.349   1.634  0.1261 -0.2723  0.1301
 9064TIP3    H127156   1.942   5.403   1.557  0.1212 -0.5930 -0.1006
 9064TIP3    H227157   1.828   5.349   1.642  0.1881  1.4816  1.3925
 9065TIP3   OH227158   5.687   5.837   2.412  1.0072 -0.5011  0.2592
 9065TIP3    H127159   5.694   5.928   2.384  0.1975 -0.5265 -0.0618
 9065TIP3    H227160   5.692   5.840   2.507 -0.6641  0.0716  0.3620
 9066TIP3   OH227161   4.030   5.505   4.934  0.2148  0.1171  0.1513
 9066TIP3    H127162   3.998   5.576   4.989  1.8724  0.7939  0.3100
 9066TIP3    H227163   4.087   5.548   4.870  0.5170 -0.9637 -0.3281
 9067TIP3   OH227164   6.260   4.889   1.015  0.1226  0.4341 -0.1747
 9067TIP3    H127165   6.211   4.807   1.007  1.2412 -0.4672  1.5110
 9067TIP3    H227166   6.351   4.863   1.005  0.4969  1.4426  0.4595
 9068TIP3   OH227167   6.409   5.914   1.866 -0.8248  0.9216  0.1293
 9068TIP3    H127168   6.455   5.998   1.866 -1.8018  1.4849 -1.3581
 9068TIP3    H227169   6.337   5.926   1.804 -1.3548 -0.8227  0.3649
 9069TIP3   OH227170   5.060   3.277   1.303 -0.2999 -0.1436 -0.1211
 9069TIP3    H127171   5.139   3.281   1.249 -1.1381  0.0968 -1.3574
 9069TIP3    H227172   5.076   3.204   1.363  0.6873 -0.3648 -0.6338
 9070TIP3   OH227173   2.950   4.212   5.536  0.4099 -0.1972  0.0923
 9070TIP3    H127174   2.917   4.301   5.537 -2.2807 -1.0924 -0.9347
 9070TIP3    H227175   2.888   4.161   5.588  2.6773 -1.3021  1.9092
 9071TIP3   OH227176   5.119   4.307   3.795 -0.6279 -0.1653  0.4341
 9071TIP3    H127177   5.111   4.353   3.879 -0.7428 -1.3637  1.0955
 9071TIP3    H227178   5.047   4.342   3.742 -0.4180  0.7657  0.7479
 9072TIP3   OH227179   5.620   0.314   5.728  0.2136 -0.2226 -0.2108
 9072TIP3    H127180   5.593   0.232   5.771  1.0092 -0.0630  0.6075
 9072TIP3    H227181   5.547   0.374   5.742 -0.4582 -0.8384 -0.9767
 9073TIP3   OH227182   5.637   6.371   0.627 -0.0102 -0.3173  0.1260
 9073TIP3    H127183   5.723   6.406   0.605 -0.7255  1.1809 -0.4281
 9073TIP3    H227184   5.620   6.402   0.716  0.1566 -0.9089  0.3701
 9074TIP3   OH227185   1.232   2.606   3.123 -0.6293 -0.0350  0.4736
 9074TIP3    H127186   1.173   2.541   3.160  0.6953 -0.8980  1.1133
 9074TIP3    H227187   1.210   2.687   3.170 -1.2447 -0.3526  0.7478
 9075TIP3   OH227188   4.678   0.591   1.254  0.5089 -0.1999  0.0965
 9075TIP3    H127189   4.646   0.642   1.328 -1.2756 -0.0410 -0.7474
 9075TIP3    H227190   4.710   0.509   1.293  0.9919  0.4867  1.1788
 9076TIP3   OH227191   1.004   0.229   3.647  0.6294  0.6677 -0.7773
 9076TIP3    H127192   1.068   0.250   3.580  0.2770  1.0222 -1.0096
 9076TIP3    H227193   0.971   0.142   3.623  1.1533  0.4003 -0.5481
 9077TIP3   OH227194   3.730   6.655   4.811  0.0362  0.5330  0.7756
 9077TIP3    H127195   3.667   6.678   4.743  0.9875 -0.3009 -0.4432
 9077TIP3    H227196   3.727   6.729   4.873 -0.7243  1.3995 -0.2577
 9078TIP3   OH227197   0.124   1.714   1.027 -0.1490  0.4717  0.4423
 9078TIP3    H127198   0.175   1.792   1.001  0.0386 -0.0107 -0.6877
 9078TIP3    H227199   0.111   1.666   0.946 -1.5126  0.0394  0.8977
 9079TIP3   OH227200   5.635   2.136   1.153  0.5457 -0.0644 -0.2816
 9079TIP3    H127201   5.679   2.160   1.071 -0.3519  1.1668 -0.4328
 9079TIP3    H227202   5.657   2.207   1.213  0.8108 -0.7264  0.4124
 9080TIP3   OH227203   1.034   6.145   1.459 -0.5717 -0.3240 -0.1165
 9080TIP3    H127204   0.983   6.221   1.430  1.1835  0.2382 -1.8746
 9080TIP3    H227205   1.072   6.110   1.379 -0.3553 -2.3545  0.8326
 9081TIP3   OH227206   4.461   3.254   3.667  0.3942 -0.2947 -0.1692
 9081TIP3    H127207   4.491   3.190   3.602  1.9661  0.3806 -0.1351
 9081TIP3    H227208   4.393   3.304   3.621  1.2467 -0.0443 -1.2044
 9082TIP3   OH227209   5.768   5.105   0.768  0.2980 -0.3106 -0.1827
 9082TIP3    H127210   5.824   5.180   0.749  0.1314  0.1848  1.1515
 9082TIP3    H227211   5.825   5.044   0.814  0.3104 -0.8139 -0.8499
 9083TIP3   OH227212   6.051   3.866   3.845 -0.2863  0.4589 -0.1144
 9083TIP3    H127213   6.071   3.799   3.910  1.1306  1.8434  0.9544
 9083TIP3    H227214   6.104   3.842   3.769 -0.0128  0.1928  0.1556
 9084TIP3   OH227215   5.653   5.864   1.412 -0.2231  0.5249 -0.2081
 9084TIP3    H127216   5.660   5.958   1.396  0.5465  0.4521 -0.3645
 9084TIP3    H227217   5.729   5.826   1.367 -1.1005 -0.2895 -1.0473
 9085TIP3   OH227218   1.130   6.112   1.192 -0.4021 -0.5835  0.0608
 9085TIP3    H127219   1.120   6.029   1.145 -0.7766 -0.1531 -0.6405
 9085TIP3    H227220   1.098   6.178   1.130  0.5790  0.1639  0.3340
 9086TIP3   OH227221   3.176   4.213   1.992  0.0582  0.0615  1.3966
 9086TIP3    H127222   3.201   4.163   1.914  0.3980  1.6952  0.4016
 9086TIP3    H227223   3.258   4.243   2.029 -0.1956  1.3553  0.9456
 9087TIP3   OH227224   5.480   1.559   1.016 -0.2459  0.0405 -0.1577
 9087TIP3    H127225   5.491   1.586   1.107  1.3092  0.1409 -0.3577
 9087TIP3    H227226   5.522   1.473   1.011 -1.3356 -0.4965 -0.5416
 9088TIP3   OH227227   1.266   2.737   2.108 -0.1200 -0.7682 -0.2770
 9088TIP3    H127228   1.249   2.825   2.141 -1.6575 -0.2804 -2.1652
 9088TIP3    H227229   1.197   2.683   2.146 -0.0054 -0.8590 -0.1985
 9089TIP3   OH227230   3.754   2.672   0.615 -0.4224 -0.0574  0.2119
 9089TIP3    H127231   3.800   2.750   0.645 -1.1839  0.4183  0.1698
 9089TIP3    H227232   3.707   2.700   0.537 -0.3579 -0.6716 -0.0484
 9090TIP3   OH227233   6.073   6.530   3.340 -0.1605 -0.3330  0.1879
 9090TIP3    H127234   6.145   6.472   3.365  0.3712  0.3229  0.2172
 9090TIP3    H227235   6.048   6.501   3.252  0.0976 -0.5994  0.2003
 9091TIP3   OH227236   0.597   0.872   3.456  0.0510  0.3690 -0.1917
 9091TIP3    H127237   0.668   0.886   3.518  0.7127  0.6156 -0.9851
 9091TIP3    H227238   0.518   0.899   3.503  0.7475  2.4569 -0.0991
 9092TIP3   OH227239   1.514   6.076   2.229  0.1162 -0.3007  0.2014
 9092TIP3    H127240   1.585   6.013   2.219  2.2782  2.0648 -0.6264
 9092TIP3    H227241   1.458   6.039   2.297  2.5263 -1.9921  1.4250
 9093TIP3   OH227242   1.731   5.136   5.234  0.7993  0.1060 -0.1561
 9093TIP3    H127243   1.704   5.222   5.203 -0.2837 -0.2186 -0.1405
 9093TIP3    H227244   1.799   5.155   5.299 -0.0707  1.0043  0.5210
 9094TIP3   OH227245   5.720   2.257   4.061  0.2413 -0.3938 -0.1221
 9094TIP3    H127246   5.720   2.293   3.972  0.2583  1.8374  0.7185
 9094TIP3    H227247   5.812   2.259   4.087  0.3133 -1.6281 -0.2652
 9095TIP3   OH227248   1.025   6.510   1.740  0.0809  0.1542 -0.0069
 9095TIP3    H127249   0.983   6.425   1.753  0.9644 -0.5314 -1.3148
 9095TIP3    H227250   1.043   6.543   1.828 -2.0139 -0.1004  0.5519
 9096TIP3   OH227251   4.790   2.192   2.017  0.2677  0.3241  0.6422
 9096TIP3    H127252   4.767   2.149   2.099  1.5678  0.1792  0.9619
 9096TIP3    H227253   4.709   2.195   1.967 -0.3495 -0.3910  1.5727
 9097TIP3   OH227254   1.964   6.053   0.640 -0.6128  0.4444  0.0745
 9097TIP3    H127255   2.002   6.121   0.696  1.5898  0.0324 -0.7988
 9097TIP3    H227256   1.999   5.971   0.675 -2.5858 -0.2260  0.6068
 9098TIP3   OH227257   4.184   6.174   3.616  0.4329  0.0462  0.6193
 9098TIP3    H127258   4.267   6.211   3.648  0.3222 -0.3691  1.4116
 9098TIP3    H227259   4.196   6.168   3.521  0.2091  2.7168  0.3441
 9099TIP3   OH227260   1.977   2.412   3.969  0.1408  0.4380  0.2675
 9099TIP3    H127261   2.045   2.429   3.904  0.1916  4.3158  1.1153
 9099TIP3    H227262   1.919   2.488   3.964 -1.7130 -0.7053  2.5150
 9100TIP3   OH227263   0.956   1.049   4.806 -0.5351  0.2166 -0.0724
 9100TIP3    H127264   0.963   1.038   4.711  1.1265  0.4425 -0.0054
 9100TIP3    H227265   1.005   0.976   4.843  0.0037  0.8976  0.5845
 9101TIP3   OH227266   3.229   5.924   0.119  0.0709 -0.5536  0.3609
 9101TIP3    H127267   3.249   6.011   0.155  0.0852  0.0008 -0.9214
 9101TIP3    H227268   3.141   5.933   0.083  0.7703 -0.4752 -1.4465
 9102TIP3   OH227269   5.340   6.404   0.159 -0.7490 -0.1102  0.6418
 9102TIP3    H127270   5.416   6.413   0.101 -1.1075  0.3818  0.2331
 9102TIP3    H227271   5.371   6.350   0.231 -0.5317 -1.4968 -0.4329
 9103TIP3   OH227272   1.231   4.600   1.716  0.0519 -0.4225  0.6199
 9103TIP3    H127273   1.144   4.563   1.705 -0.3634  0.7287 -0.1311
 9103TIP3    H227274   1.237   4.669   1.650  0.8818  0.6629  1.7626
 9104TIP3   OH227275   5.487   0.227   1.941 -0.3296  0.5061 -0.7134
 9104TIP3    H127276   5.491   0.138   1.976  1.4086  0.6256 -0.5482
 9104TIP3    H227277   5.545   0.278   1.997 -0.1694  1.4339 -1.6880
 9105TIP3   OH227278   0.263   1.419   0.560  0.6050 -0.3512 -0.0834
 9105TIP3    H127279   0.349   1.404   0.599 -0.1295  1.2877  2.4240
 9105TIP3    H227280   0.270   1.504   0.517 -0.1313  0.5993  1.5711
 9106TIP3   OH227281   0.507   2.254   0.533  0.0255  0.0137  0.1776
 9106TIP3    H127282   0.565   2.178   0.528 -0.9840 -0.8856  1.4562
 9106TIP3    H227283   0.472   2.263   0.444  0.0576 -1.1238  0.0265
 9107TIP3   OH227284   1.665   4.932   0.919  0.5967 -0.1211  0.0306
 9107TIP3    H127285   1.572   4.915   0.937  0.0764  0.8440 -1.5203
 9107TIP3    H227286   1.709   4.920   1.003 -1.1598  0.9673  1.1602
 9108TIP3   OH227287   6.737   1.265   2.339 -0.1150  0.3341  0.0082
 9108TIP3    H127288   6.701   1.329   2.277 -0.4645 -0.7810 -0.9676
 9108TIP3    H227289   6.792   1.317   2.398  1.1448  1.2849 -1.9215
 9109TIP3   OH227290   3.535   5.632   3.270  0.1683  0.0601  0.5719
 9109TIP3    H127291   3.626   5.661   3.277  0.5089 -1.2980  2.3598
 9109TIP3    H227292   3.515   5.593   3.355 -2.2775  0.7807  0.4034
 9110TIP3   OH227293   1.952   1.891   1.999  0.8566 -0.1900 -0.5299
 9110TIP3    H127294   1.927   1.978   2.030 -0.3918 -0.8097  0.3054
 9110TIP3    H227295   1.991   1.848   2.076 -0.1215 -0.9348 -0.4228
 9111TIP3   OH227296   2.305   1.615   4.133 -0.0739  0.3015 -0.3919
 9111TIP3    H127297   2.272   1.633   4.045  0.5671  0.3784 -0.6204
 9111TIP3    H227298   2.367   1.543   4.121  1.3038  1.4363 -0.2699
 9112TIP3   OH227299   2.432   4.394   4.366  0.0545 -0.6001  0.2341
 9112TIP3    H127300   2.499   4.359   4.424  0.4665 -1.5617 -0.7962
 9112TIP3    H227301   2.353   4.346   4.388  0.2273 -1.0142 -0.0398
 9113TIP3   OH227302   4.417   0.464   3.249  0.3630 -0.2615  0.0266
 9113TIP3    H127303   4.490   0.524   3.236  1.6330 -1.2389  2.0145
 9113TIP3    H227304   4.372   0.460   3.165  0.3573  3.2170 -0.2491
 9114TIP3   OH227305   3.052   3.780   5.235  0.2590  0.5751  0.4502
 9114TIP3    H127306   3.027   3.797   5.144 -0.4604  1.7395  0.8389
 9114TIP3    H227307   2.989   3.830   5.287  0.4452 -0.3435  1.6085
 9115TIP3   OH227308   6.132   4.322   0.792  0.6114 -0.1961  0.0209
 9115TIP3    H127309   6.091   4.409   0.793  2.8401  0.9709 -1.0087
 9115TIP3    H227310   6.131   4.294   0.883  0.4142  1.2044  0.4745
 9116TIP3   OH227311   6.010   1.289   5.551  0.0274 -0.6115 -0.3415
 9116TIP3    H127312   5.972   1.226   5.611 -0.9286 -0.2705 -0.5814
 9116TIP3    H227313   6.087   1.323   5.597 -0.4339 -0.6964  0.4936
 9117TIP3   OH227314   4.097   1.809   2.797  0.1746  0.4188  0.3547
 9117TIP3    H127315   4.057   1.849   2.719  0.5687  1.5552  0.7170
 9117TIP3    H227316   4.040   1.835   2.869  1.5115  2.1311  0.8941
 9118TIP3   OH227317   4.212   3.707   0.781  0.3760 -0.5206 -0.0295
 9118TIP3    H127318   4.267   3.783   0.760  1.4303 -1.9342 -2.8687
 9118TIP3    H227319   4.167   3.732   0.863  0.4480  3.2434 -0.9402
 9119TIP3   OH227320   4.135   0.377   5.658 -0.2471  0.3349 -0.1007
 9119TIP3    H127321   4.073   0.305   5.645 -0.9960  0.8329  0.5718
 9119TIP3    H227322   4.163   0.369   5.749 -2.2970  2.3287  0.7963
 9120TIP3   OH227323   0.301   5.911   1.741  0.1073  0.1651  0.3368
 9120TIP3    H127324   0.380   5.918   1.688 -0.0801 -1.1626 -0.1308
 9120TIP3    H227325   0.238   5.864   1.687 -0.8729  0.8105  0.8709
 9121TIP3   OH227326   2.547   1.482   1.196 -0.2808  0.0430 -0.3437
 9121TIP3    H127327   2.487   1.465   1.124  0.6001 -1.6488 -0.7425
 9121TIP3    H227328   2.502   1.546   1.251 -1.2671  0.8386 -2.0129
 9122TIP3   OH227329   2.697   4.574   4.860 -0.4438  0.1646 -0.3428
 9122TIP3    H127330   2.610   4.536   4.848 -0.3389 -0.4295  0.6616
 9122TIP3    H227331   2.755   4.498   4.871 -0.2859  0.5579  2.0571
 9123TIP3   OH227332   1.943   3.242   2.314 -0.3605 -0.1786  0.6251
 9123TIP3    H127333   1.883   3.313   2.293 -0.4064 -0.3931  0.0297
 9123TIP3    H227334   1.928   3.225   2.407  0.0767  0.9900  0.9278
 9124TIP3   OH227335   2.955   5.172   2.646  0.1002 -0.4232  0.1234
 9124TIP3    H127336   2.909   5.103   2.695  1.7903 -0.2286  2.1326
 9124TIP3    H227337   2.939   5.252   2.696 -1.6432  0.7102 -2.0587
 9125TIP3   OH227338   1.480   4.982   2.238 -0.4587 -0.5171 -0.0603
 9125TIP3    H127339   1.416   5.053   2.230  0.0935 -0.1179 -1.2917
 9125TIP3    H227340   1.495   4.954   2.147  2.8948  1.0682 -0.1599
 9126TIP3   OH227341   2.909   2.096   3.557  1.1055 -0.7231  0.0176
 9126TIP3    H127342   2.992   2.053   3.575  1.2461 -0.4785 -0.0354
 9126TIP3    H227343   2.900   2.092   3.461  1.2811 -0.3398 -0.0157
 9127TIP3   OH227344   5.626   6.099   3.449  0.2891 -0.2234 -0.3100
 9127TIP3    H127345   5.553   6.073   3.393 -1.3913  1.2871  1.0601
 9127TIP3    H227346   5.661   6.016   3.482 -0.8317 -0.9909 -0.9579
 9128TIP3   OH227347   4.588   1.619   2.838  0.5426 -0.3809 -0.2554
 9128TIP3    H127348   4.534   1.589   2.911  1.0444 -1.2434 -0.2160
 9128TIP3    H227349   4.677   1.592   2.863  1.2874  2.4272  0.4577
 9129TIP3   OH227350   3.071   6.766   2.953  0.3354  0.2146  0.9099
 9129TIP3    H127351   3.091   6.687   2.904 -0.2804 -0.4749  1.7293
 9129TIP3    H227352   3.022   6.821   2.892  0.0505 -0.3913  0.5893
 9130TIP3   OH227353   1.547   4.033   4.773 -0.1589  0.4408 -0.1845
 9130TIP3    H127354   1.456   4.013   4.749 -0.4107  0.1295  0.9670
 9130TIP3    H227355   1.588   4.057   4.690 -1.0497 -0.3229 -0.8814
 9131TIP3   OH227356   6.739   1.448   4.126  0.1673 -0.1772  0.1833
 9131TIP3    H127357   6.662   1.501   4.106  0.2222 -0.5908 -1.2135
 9131TIP3    H227358   6.710   1.358   4.114  0.6691 -0.3680  0.3744
 9132TIP3   OH227359   5.834   2.705   2.111 -0.6701  0.6204  0.9649
 9132TIP3    H127360   5.915   2.755   2.102  0.1382 -0.8979 -0.7453
 9132TIP3    H227361   5.769   2.757   2.062 -0.2279  0.8082  0.5697
 9133TIP3   OH227362   5.115   4.342   2.983 -0.2498 -0.1219 -0.5608
 9133TIP3    H127363   5.089   4.389   3.062  1.3729 -0.0149 -0.0667
 9133TIP3    H227364   5.206   4.368   2.968 -0.2302 -0.8877 -1.9244
 9134TIP3   OH227365   5.270   3.488   0.976  0.0692 -0.2879 -0.0432
 9134TIP3    H127366   5.293   3.396   0.963 -1.5364 -0.5177 -1.7390
 9134TIP3    H227367   5.208   3.507   0.906 -0.1061  1.9349  0.6373
 9135TIP3   OH227368   0.582   3.537   5.467  0.3607  0.2811  0.6332
 9135TIP3    H127369   0.519   3.476   5.430  0.2292  2.0451 -2.3716
 9135TIP3    H227370   0.529   3.605   5.508  0.2785  0.9043 -0.4490
 9136TIP3   OH227371   3.520   1.422   1.744 -0.9593 -0.5625  0.0968
 9136TIP3    H127372   3.612   1.404   1.721 -0.8304 -0.4926  0.5412
 9136TIP3    H227373   3.519   1.419   1.839 -1.4154 -0.5230  0.0937
 9137TIP3   OH227374   5.465   1.448   4.519  0.6627  0.0148 -0.4201
 9137TIP3    H127375   5.556   1.424   4.501  1.3804  1.8543  0.4592
 9137TIP3    H227376   5.421   1.439   4.434  1.5173 -1.4274 -0.7387
 9138TIP3   OH227377   2.489   0.504   5.564  0.1801 -0.2578  0.3688
 9138TIP3    H127378   2.534   0.424   5.534 -0.1640 -0.4709  0.4169
 9138TIP3    H227379   2.404   0.473   5.595 -0.3614  0.2540 -0.5761
 9139TIP3   OH227380   7.154   2.872   2.092  0.2073 -0.0798 -0.2466
 9139TIP3    H127381   7.119   2.959   2.070 -0.5418 -0.3171 -0.0251
 9139TIP3    H227382   7.077   2.815   2.091  0.7452 -0.8092 -0.7180
 9140TIP3   OH227383   2.108   6.427   1.349 -0.0612  0.0270  0.5778
 9140TIP3    H127384   2.069   6.415   1.263  0.0955 -1.2538  0.6679
 9140TIP3    H227385   2.058   6.498   1.389  0.6744  1.5151 -1.0322
 9141TIP3   OH227386   3.218   4.644   1.569 -0.3574  0.3490  0.4293
 9141TIP3    H127387   3.261   4.726   1.544  0.3333 -0.5419 -1.4810
 9141TIP3    H227388   3.237   4.584   1.497  1.2799 -2.2968  2.8590
 9142TIP3   OH227389   6.216   4.264   1.085 -0.3597 -0.2599 -1.0039
 9142TIP3    H127390   6.288   4.316   1.049  0.3559 -0.9438 -0.5728
 9142TIP3    H227391   6.220   4.278   1.179 -1.0165 -0.0258 -1.0044
 9143TIP3   OH227392   2.835   5.932   1.853  0.3648 -0.1012  1.0081
 9143TIP3    H127393   2.833   6.027   1.841  2.9642  0.4534  3.7788
 9143TIP3    H227394   2.857   5.897   1.767 -1.3314  1.6619 -0.2509
 9144TIP3   OH227395   1.789   3.679   4.413  0.2179 -0.3081  0.3814
 9144TIP3    H127396   1.717   3.650   4.357  0.4123  0.6455 -0.3939
 9144TIP3    H227397   1.816   3.600   4.461  0.3341 -1.2656 -1.1815
 9145TIP3   OH227398   4.263   1.972   0.060  0.1449 -0.5753  0.3177
 9145TIP3    H127399   4.336   2.034   0.051 -0.7805  0.7940  1.6322
 9145TIP3    H227400   4.213   1.982  -0.021  1.2808 -1.3970 -0.5191
 9146TIP3   OH227401   3.016   0.337   1.615 -0.0934  0.0301 -0.1464
 9146TIP3    H127402   2.974   0.418   1.586  0.5704 -0.2365 -1.9992
 9146TIP3    H227403   3.095   0.367   1.660  0.0511  0.4328 -0.6499
 9147TIP3   OH227404   4.070   6.205   5.434 -0.3063  0.0630 -0.5363
 9147TIP3    H127405   4.028   6.132   5.481  1.0697 -1.4505 -1.5482
 9147TIP3    H227406   4.014   6.219   5.357  0.0410 -0.7093 -0.9341
 9148TIP3   OH227407   1.517   5.058   3.576 -0.1639  0.4678  0.2802
 9148TIP3    H127408   1.472   5.141   3.559  0.2787  0.2131 -2.8196
 9148TIP3    H227409   1.610   5.078   3.566  0.0296 -0.1682  0.7238
 9149TIP3   OH227410   1.796   2.120   2.044 -0.0685 -0.6715  0.5937
 9149TIP3    H127411   1.764   2.148   1.958 -1.7485  1.6660  1.8457
 9149TIP3    H227412   1.732   2.055   2.073  1.3084 -2.5946 -0.4245
 9150TIP3   OH227413   1.792   1.241   2.827 -0.1990 -0.2350 -0.0493
 9150TIP3    H127414   1.758   1.275   2.910  1.6213  2.1485 -0.1611
 9150TIP3    H227415   1.714   1.228   2.772 -1.3025 -0.3596  1.5019
 9151TIP3   OH227416   4.652   4.054   3.712  0.3385  0.6156 -0.4778
 9151TIP3    H127417   4.728   4.014   3.669 -1.2236 -2.2866 -0.7671
 9151TIP3    H227418   4.624   3.989   3.776 -1.7312  1.7468 -0.1540
 9152TIP3   OH227419   0.095   1.258   0.782  0.3650  0.6912 -0.2463
 9152TIP3    H127420   0.139   1.271   0.698  1.6106  0.8779  0.4145
 9152TIP3    H227421   0.054   1.172   0.774  0.3221  0.7767 -1.0941
 9153TIP3   OH227422   4.321   1.221   3.748  0.1253  0.0046 -0.1709
 9153TIP3    H127423   4.338   1.217   3.654 -0.0105 -3.1767 -0.1902
 9153TIP3    H227424   4.241   1.168   3.760  0.5076 -0.2329  1.7843
 9154TIP3   OH227425   0.404   0.556   5.249 -0.1049  0.0260  0.3019
 9154TIP3    H127426   0.453   0.476   5.231 -0.8212 -0.3511 -0.0480
 9154TIP3    H227427   0.423   0.614   5.176  0.3617  0.1481  0.5204
 9155TIP3   OH227428   2.632   3.929   0.687 -0.1414 -0.6743  0.0181
 9155TIP3    H127429   2.697   3.956   0.623  0.1756 -0.5500  0.3894
 9155TIP3    H227430   2.602   3.843   0.656  1.6610 -1.6793  0.9032
 9156TIP3   OH227431   2.550   3.362   2.472  0.0231  0.0759  0.3940
 9156TIP3    H127432   2.522   3.273   2.452  0.8321 -0.3822  1.2319
 9156TIP3    H227433   2.605   3.387   2.398  0.9979 -0.6838  0.8381
 9157TIP3   OH227434   4.858   1.126   1.820  0.8532  0.5436 -0.2737
 9157TIP3    H127435   4.949   1.108   1.843  0.8602  0.3986 -0.4144
 9157TIP3    H227436   4.857   1.218   1.795  0.7896  0.7946  0.5907
 9158TIP3   OH227437   4.518   2.325   4.225  0.2676  0.6399 -0.5322
 9158TIP3    H127438   4.485   2.361   4.308 -0.5290  0.9759 -0.9862
 9158TIP3    H227439   4.443   2.281   4.186  0.4423  1.0883 -1.4009
 9159TIP3   OH227440   3.354   5.913   4.905  0.0691 -0.5477  0.3991
 9159TIP3    H127441   3.342   5.967   4.827  2.0061  0.5390  0.7732
 9159TIP3    H227442   3.310   5.831   4.885 -0.6703  0.2140 -1.2699
 9160TIP3   OH227443   5.959   3.669   1.689  0.2482 -0.3388  0.0706
 9160TIP3    H127444   5.906   3.737   1.731  0.3016 -0.5827  0.5360
 9160TIP3    H227445   5.911   3.588   1.707  1.6501 -0.8058  2.0011
 9161TIP3   OH227446   0.772   2.014   3.180 -0.2453 -0.6472  0.0946
 9161TIP3    H127447   0.862   2.006   3.210  0.0589  1.7399 -0.0070
 9161TIP3    H227448   0.745   1.924   3.162  2.5112 -1.3562 -1.0526
 9162TIP3   OH227449   5.165   5.140   2.745 -0.1428 -0.2242  0.5101
 9162TIP3    H127450   5.236   5.151   2.681 -1.2682 -1.4081 -1.0376
 9162TIP3    H227451   5.099   5.205   2.718 -0.9036 -1.1716 -0.0011
 9163TIP3   OH227452   5.990   0.165   5.640  0.2842 -0.7389  0.1354
 9163TIP3    H127453   5.908   0.130   5.606 -0.4161  0.6917  0.2913
 9163TIP3    H227454   5.986   0.149   5.734  0.2212 -0.7505  0.1307
 9164TIP3   OH227455   6.859   6.149   2.248  0.0082  0.2266 -0.1389
 9164TIP3    H127456   6.881   6.240   2.232  0.4616  0.6874  2.6089
 9164TIP3    H227457   6.764   6.145   2.235 -0.1140  1.2636  0.3042
 9165TIP3   OH227458   2.612   4.187   0.492  0.4705 -0.0657 -0.2811
 9165TIP3    H127459   2.677   4.127   0.458  0.4805 -0.2594  0.0775
 9165TIP3    H227460   2.597   4.159   0.582  1.3689  1.2015  0.3038
 9166TIP3   OH227461   6.539   6.231   1.334 -0.8490  0.1098  0.2832
 9166TIP3    H127462   6.528   6.154   1.389 -1.4189 -0.0834 -0.0882
 9166TIP3    H227463   6.451   6.268   1.326 -1.1152 -0.8266 -1.8630
 9167TIP3   OH227464   0.957   4.252   4.305 -0.0506  0.2614 -0.1392
 9167TIP3    H127465   0.956   4.235   4.400  0.4775  0.7551 -0.0399
 9167TIP3    H227466   0.903   4.330   4.294 -2.4258 -1.3550 -0.5901
 9168TIP3   OH227467   4.612   1.949   4.082 -0.2080 -0.9007 -0.6278
 9168TIP3    H127468   4.523   1.959   4.115  0.8746  2.5162  1.8521
 9168TIP3    H227469   4.648   1.877   4.134  0.1270  1.6335  3.0761
 9169TIP3   OH227470   6.217   3.177   1.256  0.5664  0.2369  0.0513
 9169TIP3    H127471   6.190   3.197   1.345 -0.0437  0.3813 -0.1576
 9169TIP3    H227472   6.188   3.087   1.242  2.4871 -0.5106  0.6805
 9170TIP3   OH227473   0.050   2.143   0.233 -0.4180 -0.3342 -0.3490
 9170TIP3    H127474   0.015   2.225   0.268  1.0848  0.3707 -0.4302
 9170TIP3    H227475   0.049   2.156   0.138  1.7571  0.4772 -0.3167
 9171TIP3   OH227476   4.295   5.508   2.671 -0.3109 -0.1642  0.0294
 9171TIP3    H127477   4.330   5.420   2.660  0.2144  0.0538 -0.0752
 9171TIP3    H227478   4.237   5.502   2.747 -0.5284 -0.6718 -0.1720
 9172TIP3   OH227479   6.807   6.278   5.228  0.1076 -0.6701  0.0238
 9172TIP3    H127480   6.734   6.273   5.291  0.3950 -0.7167  0.3544
 9172TIP3    H227481   6.774   6.234   5.150 -0.4613 -0.1167 -0.0636
 9173TIP3   OH227482   1.323   3.114   5.463  0.5382  0.1372 -0.1225
 9173TIP3    H127483   1.337   3.122   5.369  0.6052 -0.3044 -0.1545
 9173TIP3    H227484   1.410   3.097   5.499  0.4319 -0.2664 -0.0502
 9174TIP3   OH227485   6.717   3.623   4.370  0.4625  0.2674 -0.6000
 9174TIP3    H127486   6.693   3.711   4.340 -0.0482 -0.1977 -1.6122
 9174TIP3    H227487   6.679   3.617   4.457  0.4389  1.0314 -0.5480
 9175TIP3   OH227488   1.888   5.554   3.745  0.3022 -0.0641 -0.3157
 9175TIP3    H127489   1.963   5.612   3.760 -0.3613  0.9044 -0.6175
 9175TIP3    H227490   1.819   5.589   3.801 -0.1148 -0.5637 -0.5075
 9176TIP3   OH227491   2.145   5.966   2.718  0.1280  0.3664  0.3098
 9176TIP3    H127492   2.129   5.876   2.691 -0.7678  0.5234  0.2795
 9176TIP3    H227493   2.098   5.975   2.801  0.2823  0.7814  0.3556
 9177TIP3   OH227494   5.413   5.091   0.979  0.1838  0.2310 -0.1176
 9177TIP3    H127495   5.458   5.140   0.910 -2.3939  3.2947  0.1391
 9177TIP3    H227496   5.414   5.150   1.054 -1.2405 -1.0272  0.9400
 9178TIP3   OH227497   4.472   4.942   0.911  0.0231  0.1549  0.5276
 9178TIP3    H127498   4.447   5.023   0.956 -0.2227  0.3462  0.0494
 9178TIP3    H227499   4.389   4.900   0.888  0.1115  0.7404 -0.9660
 9179TIP3   OH227500   6.624   4.164   4.007 -0.1335  0.2021 -0.0102
 9179TIP3    H127501   6.553   4.161   4.072  0.6537  1.4372  0.9481
 9179TIP3    H227502   6.585   4.128   3.927 -0.0525 -5.2939  2.0272
 9180TIP3   OH227503   4.107   5.167   5.606 -0.2604 -0.6044 -0.3791
 9180TIP3    H127504   4.108   5.258   5.634 -0.0028 -0.2606 -1.4935
 9180TIP3    H227505   4.031   5.160   5.548  0.2629 -0.8732 -1.0405
 9181TIP3   OH227506   4.203   5.124   2.868 -0.6980  0.3506  0.0570
 9181TIP3    H127507   4.219   5.085   2.954 -1.4942 -0.4697 -0.1478
 9181TIP3    H227508   4.129   5.184   2.883  0.0542  1.2593  0.2184
 9182TIP3   OH227509   5.666   3.950   2.060  0.2685 -0.8668 -0.0676
 9182TIP3    H127510   5.598   3.888   2.085 -0.9526  0.2810 -0.4312
 9182TIP3    H227511   5.619   4.030   2.039  1.7106 -0.1536 -0.7294
 9183TIP3   OH227512   4.374   1.440   4.128 -0.2739  0.3944 -0.0402
 9183TIP3    H127513   4.377   1.504   4.057 -0.5647  2.4814  1.7201
 9183TIP3    H227514   4.443   1.467   4.188  0.5969 -1.8812  0.0908
 9184TIP3   OH227515   1.425   5.959   3.272  0.1402  0.8218  0.2174
 9184TIP3    H127516   1.517   5.961   3.245  0.2366  1.4038  0.5713
 9184TIP3    H227517   1.418   6.030   3.336 -0.6459  1.0292 -0.0947
 9185TIP3   OH227518   1.610   4.150   1.391  0.4058 -0.2498 -0.0317
 9185TIP3    H127519   1.696   4.188   1.408  1.3826 -1.5148 -1.9174
 9185TIP3    H227520   1.611   4.066   1.437  0.4497 -0.5787 -0.6287
 9186TIP3   OH227521   6.502   4.846   4.989 -0.0404  0.4100 -0.4524
 9186TIP3    H127522   6.438   4.810   5.050  1.0430 -1.5584 -0.3865
 9186TIP3    H227523   6.569   4.885   5.046 -0.4077  1.0936 -0.4807
 9187TIP3   OH227524   0.536   1.986   5.286  0.1134 -0.0941 -0.3037
 9187TIP3    H127525   0.543   2.002   5.191  0.1893 -0.4126 -0.3537
 9187TIP3    H227526   0.614   2.026   5.323 -0.8299  1.7251 -0.1396
 9188TIP3   OH227527   1.963   4.419   1.259  0.0723 -0.1096 -0.3154
 9188TIP3    H127528   1.943   4.508   1.290 -0.5712 -0.1668 -0.5458
 9188TIP3    H227529   2.006   4.432   1.175 -2.6430 -0.0370 -1.8178
 9189TIP3   OH227530   0.514   6.694   1.094 -0.6747 -0.0284 -0.5930
 9189TIP3    H127531   0.481   6.617   1.048  0.2393 -0.5295 -0.4288
 9189TIP3    H227532   0.528   6.665   1.184  0.4906  0.0653 -0.7220
 9190TIP3   OH227533   3.595   6.506   3.439  0.1533  0.3083  0.0166
 9190TIP3    H127534   3.635   6.457   3.510 -1.6395 -0.1588  0.7480
 9190TIP3    H227535   3.514   6.459   3.420 -0.5557  1.7681 -0.7301
 9191TIP3   OH227536   5.129   4.044   5.655 -0.2772 -0.2633  0.9691
 9191TIP3    H127537   5.132   4.089   5.570 -0.3531 -1.0581  0.5337
 9191TIP3    H227538   5.214   4.002   5.663 -0.6654 -1.1237  0.7523
 9192TIP3   OH227539   3.687   4.775   0.083  0.1036  0.9217  0.0514
 9192TIP3    H127540   3.765   4.720   0.070 -1.1620 -0.7170 -1.1463
 9192TIP3    H227541   3.710   4.859   0.043  0.7423 -0.0460 -1.7318
 9193TIP3   OH227542   3.011   6.754   3.284  0.0559  0.2794 -0.3039
 9193TIP3    H127543   2.983   6.746   3.193  0.6530  0.4442 -0.5028
 9193TIP3    H227544   3.106   6.761   3.280  0.0963  0.1735  0.3412
 9194TIP3   OH227545   4.022   1.974   1.791 -0.5287  0.4626  0.1268
 9194TIP3    H127546   3.962   1.902   1.809 -0.0980  0.1926  0.5095
 9194TIP3    H227547   4.109   1.935   1.800 -0.2816  0.5172 -1.7146
 9195TIP3   OH227548   4.460   1.474   3.062 -0.1155 -0.5066  0.1051
 9195TIP3    H127549   4.414   1.395   3.090  1.9735 -2.3355 -1.2944
 9195TIP3    H227550   4.522   1.492   3.132 -0.2310 -0.4282  0.1870
 9196TIP3   OH227551   3.506   1.272   3.743 -0.1529 -0.0852 -0.7754
 9196TIP3    H127552   3.502   1.187   3.786  0.5907 -0.3092 -1.1239
 9196TIP3    H227553   3.439   1.268   3.675 -0.3455 -0.2617 -0.5782
 9197TIP3   OH227554   4.034   2.309   1.141 -0.1287  0.1333 -0.1896
 9197TIP3    H127555   4.039   2.404   1.149 -1.6176  0.4495 -2.1963
 9197TIP3    H227556   4.114   2.285   1.094 -0.4394  0.6248 -1.0082
 9198TIP3   OH227557   4.174   3.320   3.797  0.3773  0.2487  0.2646
 9198TIP3    H127558   4.192   3.233   3.832  3.0859  0.4320 -0.4323
 9198TIP3    H227559   4.167   3.307   3.702 -0.8035  0.5943  0.2880
 9199TIP3   OH227560   6.721   0.314   1.527 -0.0273 -0.0300  0.5572
 9199TIP3    H127561   6.746   0.331   1.436 -0.2554 -1.8123  0.1359
 9199TIP3    H227562   6.625   0.307   1.525 -0.1810  1.4030  1.2297
 9200TIP3   OH227563   0.839   2.594   2.540 -0.2769 -0.2975  0.4053
 9200TIP3    H127564   0.828   2.660   2.471 -3.2282  0.6671  1.5941
 9200TIP3    H227565   0.795   2.516   2.506  2.1287 -1.3401 -0.4938
 9201TIP3   OH227566   5.403   0.427   1.607  0.0372  0.4265 -0.4886
 9201TIP3    H127567   5.320   0.387   1.634 -0.2528  0.4821 -1.2735
 9201TIP3    H227568   5.468   0.358   1.621  0.1334  0.8832  1.6291
 9202TIP3   OH227569   5.619   1.257   4.210 -0.6590 -0.5316 -0.0938
 9202TIP3    H127570   5.619   1.229   4.118 -0.8087  1.6537 -0.8004
 9202TIP3    H227571   5.549   1.206   4.250 -0.7047 -1.3966 -1.2240
 9203TIP3   OH227572   2.035   5.304   0.864 -0.2120 -0.4346 -0.3618
 9203TIP3    H127573   2.098   5.234   0.883 -0.9654 -1.3888 -1.2245
 9203TIP3    H227574   1.950   5.259   0.863 -0.6884  0.4641 -1.1264
 9204TIP3   OH227575   0.910   5.649   5.398 -0.9209 -0.3939  0.0958
 9204TIP3    H127576   0.843   5.645   5.330 -1.5599  0.4587  0.6641
 9204TIP3    H227577   0.878   5.589   5.466 -1.5591  0.6769  0.7539
 9205TIP3   OH227578   5.108   5.677   4.734  0.0490 -0.0371  0.1080
 9205TIP3    H127579   5.193   5.669   4.691 -0.3959  0.0540 -0.7948
 9205TIP3    H227580   5.059   5.738   4.679  0.1092  1.5844  1.7379
 9206TIP3   OH227581   4.951   3.521   0.904 -0.2150 -0.0986  0.2707
 9206TIP3    H127582   4.862   3.551   0.888 -1.2494 -2.8226  0.4076
 9206TIP3    H227583   4.978   3.479   0.823  0.1485 -1.1132  0.9013
 9207TIP3   OH227584   4.863   0.736   2.051 -0.5831  0.3124 -0.5705
 9207TIP3    H127585   4.958   0.739   2.067 -0.6768  0.0005  0.0582
 9207TIP3    H227586   4.829   0.815   2.093 -0.5936  0.4843 -0.8953
 9208TIP3   OH227587   4.543   1.229   0.979 -0.4914  0.4214  0.3170
 9208TIP3    H127588   4.565   1.179   1.058  1.5440 -0.7300 -0.8742
 9208TIP3    H227589   4.532   1.319   1.009  0.1940  0.0056  1.9074
 9209TIP3   OH227590   1.431   1.054   0.956  0.1991 -0.2855  0.2968
 9209TIP3    H127591   1.381   0.973   0.950  2.0943 -1.5619  0.6648
 9209TIP3    H227592   1.504   1.033   1.015  2.4134  0.7227 -1.8678
 9210TIP3   OH227593   6.543   4.817   4.031 -0.1381  0.0173  0.4153
 9210TIP3    H127594   6.587   4.897   4.058  0.2096  0.7257 -2.0103
 9210TIP3    H227595   6.450   4.840   4.030 -0.0092  0.5886 -0.7069
 9211TIP3   OH227596   6.809   5.843   0.862  0.2688 -0.0840  0.2951
 9211TIP3    H127597   6.854   5.797   0.933  0.1581 -0.6211  0.0219
 9211TIP3    H227598   6.847   5.807   0.782 -0.1612 -0.0486  0.0732
 9212TIP3   OH227599   4.602   3.234   1.594  0.7045  0.0067  0.1578
 9212TIP3    H127600   4.604   3.166   1.661  1.3183 -0.9254 -0.7883
 9212TIP3    H227601   4.683   3.223   1.544  0.0154  0.3319 -1.0813
 9213TIP3   OH227602   3.091   2.778   4.711  0.1608  0.4775  0.1649
 9213TIP3    H127603   3.019   2.780   4.648  1.1509  0.3273 -1.0126
 9213TIP3    H227604   3.049   2.763   4.795 -1.2186  0.8396 -0.4332
 9214TIP3   OH227605   0.349   1.525   1.038  0.0147  0.3939 -0.0664
 9214TIP3    H127606   0.297   1.444   1.038  0.4493  0.0533 -1.9868
 9214TIP3    H227607   0.286   1.594   1.060 -0.2096 -0.4875  2.3682
 9215TIP3   OH227608   1.682   5.106   3.081 -0.2407 -0.1659  0.4845
 9215TIP3    H127609   1.660   5.171   3.148  1.8439  1.1150  0.0232
 9215TIP3    H227610   1.770   5.076   3.104  0.5385  0.2908 -1.6014
 9216TIP3   OH227611   7.019   5.761   1.670 -0.6484 -0.6796 -0.3715
 9216TIP3    H127612   7.005   5.722   1.584 -1.6403 -2.7965  0.6765
 9216TIP3    H227613   7.081   5.703   1.714  0.2004  0.6175  0.2032
 9217TIP3   OH227614   5.682   5.887   4.979 -0.4611  0.0922  0.4650
 9217TIP3    H127615   5.738   5.854   4.908 -1.0771  0.4063 -0.1891
 9217TIP3    H227616   5.642   5.809   5.016  0.2094 -0.1124  0.7637
 9218TIP3   OH227617   6.246   4.745   4.030 -0.0730  0.3017 -0.1787
 9218TIP3    H127618   6.191   4.670   4.055  1.9878 -0.9755  0.8358
 9218TIP3    H227619   6.192   4.822   4.048 -1.8137 -0.8931 -0.0550
 9219TIP3   OH227620   2.413   6.251   0.073  0.0887  0.4901 -0.2094
 9219TIP3    H127621   2.486   6.244   0.134  0.1402  0.2908 -0.2932
 9219TIP3    H227622   2.405   6.344   0.055 -0.0920  0.5770  0.3042
 9220TIP3   OH227623   6.680   4.953   0.784 -0.3164  0.1762 -0.1637
 9220TIP3    H127624   6.706   4.971   0.694 -0.7549  0.3751 -0.2562
 9220TIP3    H227625   6.618   4.881   0.777  1.1452 -1.1630  0.1730
 9221TIP3   OH227626   4.684   6.727   0.749  0.0581  0.5341  0.6680
 9221TIP3    H127627   4.772   6.695   0.771  0.2964  1.3410  0.8976
 9221TIP3    H227628   4.657   6.672   0.675  0.2400 -0.5513  1.3836
 9222TIP3   OH227629   3.137   3.520   4.497 -0.6451 -0.4472 -0.3290
 9222TIP3    H127630   3.215   3.494   4.447  0.9371 -0.9299  2.2487
 9222TIP3    H227631   3.106   3.439   4.537 -0.4323  0.2779  1.3645
 9223TIP3   OH227632   5.182   1.094   4.869  0.5413  0.2584  0.5248
 9223TIP3    H127633   5.154   1.061   4.784  0.2516  0.0769  0.6898
 9223TIP3    H227634   5.142   1.180   4.877  0.2235  0.0987  0.6583
 9224TIP3   OH227635   6.093   6.421   5.619 -0.6328  0.0675 -0.1668
 9224TIP3    H127636   6.126   6.347   5.670  0.4432  1.1677  0.8203
 9224TIP3    H227637   6.023   6.384   5.565 -1.7441 -1.2191  1.9942
 9225TIP3   OH227638   6.866   6.484   3.392 -0.0114 -0.3941  0.7538
 9225TIP3    H127639   6.822   6.401   3.374 -0.3195 -0.2632  0.8945
 9225TIP3    H227640   6.960   6.464   3.380 -0.1544 -0.4619 -0.3714
 9226TIP3   OH227641   0.803   0.144   0.229  0.0556 -0.5694  0.6915
 9226TIP3    H127642   0.742   0.187   0.289 -1.6814  1.0437 -1.9932
 9226TIP3    H227643   0.792   0.051   0.245  1.2727 -0.2687  4.2190
 9227TIP3   OH227644   1.827   1.413   0.805 -0.1583 -0.0644  0.2642
 9227TIP3    H127645   1.902   1.427   0.747  1.0441  0.4862  1.8940
 9227TIP3    H227646   1.804   1.321   0.793 -0.5056  0.2230 -1.6903
 9228TIP3   OH227647   2.501   4.184   5.000 -0.4451 -0.8373  0.3498
 9228TIP3    H127648   2.515   4.276   5.022  0.1428 -1.1173  1.2010
 9228TIP3    H227649   2.432   4.156   5.060 -1.0539 -0.8037 -0.3222
 9229TIP3   OH227650   5.968   4.211   3.843 -0.5304  0.2575 -0.2668
 9229TIP3    H127651   5.902   4.145   3.819 -0.9516  0.1585  1.0662
 9229TIP3    H227652   5.921   4.294   3.840 -0.2383  0.4079 -1.0311
 9230TIP3   OH227653   1.180   1.956   1.086 -0.3842  0.7151  0.4479
 9230TIP3    H127654   1.150   1.866   1.074  1.7643 -0.1537  1.1984
 9230TIP3    H227655   1.263   1.948   1.132  0.0820  3.0736  0.1423
 9231TIP3   OH227656   5.804   0.307   3.804 -0.3599 -0.1541 -0.1544
 9231TIP3    H127657   5.747   0.275   3.874 -0.6072 -1.9402 -1.1154
 9231TIP3    H227658   5.882   0.340   3.849 -1.0745 -0.0205  1.0173
 9232TIP3   OH227659   6.095   4.513   5.080 -0.3537  0.1006  0.8757
 9232TIP3    H127660   6.104   4.581   5.013 -0.8989  0.0989  0.7964
 9232TIP3    H227661   6.105   4.431   5.031 -1.0167  0.0918  0.7438
 9233TIP3   OH227662   6.564   5.724   4.220  0.0500  0.1634  0.0686
 9233TIP3    H127663   6.648   5.769   4.209  0.8678 -0.7410  2.0931
 9233TIP3    H227664   6.588   5.637   4.251 -1.5989  0.5684  2.9068
 9234TIP3   OH227665   5.867   0.835   4.847 -0.2046  0.6573 -0.3228
 9234TIP3    H127666   5.921   0.912   4.832  0.9342  0.1156  0.7565
 9234TIP3    H227667   5.837   0.844   4.938  0.9166 -0.7034  0.2250
 9235TIP3   OH227668   6.867   6.176   4.950 -0.0346 -0.2229 -0.4154
 9235TIP3    H127669   6.879   6.220   4.865  0.4164 -0.1148 -0.2996
 9235TIP3    H227670   6.955   6.145   4.973  0.3913  1.9129  1.1926
 9236TIP3   OH227671   2.027   1.423   0.318  0.2262 -0.7067  0.3351
 9236TIP3    H127672   1.947   1.400   0.271  1.2079 -1.2867 -1.1034
 9236TIP3    H227673   2.096   1.370   0.278  1.4939  0.3912  0.9495
 9237TIP3   OH227674   3.874   6.488   1.013  0.0939 -0.0883 -0.4585
 9237TIP3    H127675   3.835   6.430   1.078 -1.3020  0.9685 -0.3174
 9237TIP3    H227676   3.896   6.567   1.062  1.3345 -0.1990 -0.7914
 9238TIP3   OH227677   1.699   0.596   2.716  0.3580 -0.2367  0.1620
 9238TIP3    H127678   1.772   0.551   2.757  1.9490  2.0344  0.0117
 9238TIP3    H227679   1.739   0.652   2.649 -1.5194  0.9578 -0.0591
 9239TIP3   OH227680   1.076   2.465   5.810 -0.1164 -0.3219  0.3015
 9239TIP3    H127681   1.167   2.453   5.835  0.1824  0.0483 -0.5927
 9239TIP3    H227682   1.031   2.483   5.893  0.5454 -0.9061  0.7970
 9240TIP3   OH227683   4.715   5.795   4.140  0.3794 -0.0488 -0.2423
 9240TIP3    H127684   4.661   5.717   4.153  1.2501 -0.7264 -0.6084
 9240TIP3    H227685   4.721   5.834   4.228 -1.9153  0.8894 -0.4383
 9241TIP3   OH227686   6.498   5.167   3.398  0.4011  1.1838  0.0029
 9241TIP3    H127687   6.551   5.239   3.432  2.4047  0.6197 -1.7003
 9241TIP3    H227688   6.562   5.101   3.372 -1.3265 -0.7847  0.5170
 9242TIP3   OH227689   4.018   2.910   1.497 -0.2772 -0.0266 -0.0392
 9242TIP3    H127690   4.025   2.986   1.555  0.3460 -0.3644  0.3330
 9242TIP3    H227691   3.930   2.916   1.461 -1.2244 -0.5823  2.0293
 9243TIP3   OH227692   6.135   5.228   0.498  0.5333 -0.1806 -0.3077
 9243TIP3    H127693   6.174   5.144   0.472  3.0964  0.4855  1.0623
 9243TIP3    H227694   6.081   5.253   0.423 -0.6635 -3.1987 -0.6044
 9244TIP3   OH227695   3.984   1.462   0.795 -0.1075  0.0971 -0.3711
 9244TIP3    H127696   3.907   1.505   0.831 -0.2971 -0.7829  0.3070
 9244TIP3    H227697   3.989   1.494   0.705 -0.2133  1.5487  0.1128
 9245TIP3   OH227698   1.953   1.001   2.623  0.3630  0.4476  0.3724
 9245TIP3    H127699   1.992   1.059   2.688 -0.0481  1.3031 -0.1253
 9245TIP3    H227700   1.964   1.048   2.540 -1.2106  0.4510  0.1489
 9246TIP3   OH227701   2.145   0.961   5.504  0.3640  0.5418 -0.9019
 9246TIP3    H127702   2.095   1.012   5.568 -0.2383  1.0965 -1.7875
 9246TIP3    H227703   2.229   0.943   5.547 -0.8269 -1.0914  0.9450
 9247TIP3   OH227704   2.871   3.189   0.208  0.4084  0.5450 -0.0002
 9247TIP3    H127705   2.920   3.215   0.129 -0.4833  0.6121 -0.5415
 9247TIP3    H227706   2.874   3.093   0.207 -0.4294  0.5111 -0.6674
 9248TIP3   OH227707   5.362   5.268   5.000  0.1863  0.2884  0.1257
 9248TIP3    H127708   5.374   5.179   4.967 -0.8584 -0.6056  1.9747
 9248TIP3    H227709   5.343   5.321   4.923  1.7469 -0.8945 -1.1211
 9249TIP3   OH227710   2.732   6.670   3.997 -0.2328 -0.1981  0.0983
 9249TIP3    H127711   2.746   6.750   4.047  0.2457 -0.8143  0.9814
 9249TIP3    H227712   2.642   6.644   4.017  0.3418 -1.1165  1.6892
 9250TIP3   OH227713   1.059   1.824   3.504  0.2748  0.1559  0.2373
 9250TIP3    H127714   1.151   1.849   3.505  0.1608  0.5744  0.5545
 9250TIP3    H227715   1.038   1.803   3.595  0.5769 -1.9103 -0.1287
 9251TIP3   OH227716   5.287   1.364   1.956 -0.2963 -0.3625  0.3050
 9251TIP3    H127717   5.345   1.437   1.936 -0.3492  0.0177  1.4388
 9251TIP3    H227718   5.245   1.388   2.039 -0.6891 -1.4557  0.4498
 9252TIP3   OH227719   3.111   6.383   3.159  0.1313  0.4982 -0.2817
 9252TIP3    H127720   3.137   6.293   3.137  1.5517  0.4791  1.2045
 9252TIP3    H227721   3.046   6.373   3.228  0.5588  0.5854  0.1446
 9253TIP3   OH227722   7.090   0.216   2.553 -0.1519 -0.3683  0.2568
 9253TIP3    H127723   7.104   0.311   2.545 -2.0276 -0.0792  0.0494
 9253TIP3    H227724   6.996   0.206   2.565  0.3062 -2.0119  3.8758
 9254TIP3   OH227725   4.977   1.776   3.789 -0.0495  0.0315 -0.1624
 9254TIP3    H127726   5.036   1.719   3.740 -1.7392 -1.8107 -0.1631
 9254TIP3    H227727   4.943   1.837   3.724 -0.5798 -0.9603 -0.8290
 9255TIP3   OH227728   2.800   3.037   4.439  0.1710 -0.3738  0.4926
 9255TIP3    H127729   2.786   2.989   4.358 -1.0271  0.7654 -0.0220
 9255TIP3    H227730   2.848   3.116   4.412 -1.1263  0.5097  0.7030
 9256TIP3   OH227731   4.893   5.394   3.413 -0.0845 -0.0740  0.2401
 9256TIP3    H127732   4.806   5.385   3.374  0.2648 -0.6761 -0.4260
 9256TIP3    H227733   4.941   5.450   3.352 -0.0095  0.2898  0.6267
 9257TIP3   OH227734   6.224   4.254   1.362  0.5022  0.4050  0.2359
 9257TIP3    H127735   6.316   4.238   1.382  0.2917 -2.5302 -0.6486
 9257TIP3    H227736   6.183   4.268   1.447  1.3288 -1.3139  0.9789
 9258TIP3   OH227737   4.749   6.689   1.605 -0.1012 -0.2843  0.3889
 9258TIP3    H127738   4.695   6.623   1.649  0.4731 -0.2961  1.0965
 9258TIP3    H227739   4.807   6.637   1.548 -0.0843 -0.3501  0.4651
 9259TIP3   OH227740   4.887   3.344   1.757  0.1332  0.5909  0.0504
 9259TIP3    H127741   4.813   3.405   1.755 -0.0312  0.4132  0.5442
 9259TIP3    H227742   4.942   3.376   1.829 -0.2191 -0.1424  0.6567
 9260TIP3   OH227743   2.555   3.921   4.272 -0.4739 -0.4948  0.4562
 9260TIP3    H127744   2.468   3.907   4.234  0.2109 -0.2644 -1.2984
 9260TIP3    H227745   2.549   4.006   4.315 -1.0933 -0.4142  0.2253
 9261TIP3   OH227746   1.804   5.894   5.618  1.0130  0.1015  0.2498
 9261TIP3    H127747   1.868   5.844   5.567  0.1517 -0.0724 -0.7129
 9261TIP3    H227748   1.820   5.985   5.594 -0.8286 -0.1022 -2.2017
 9262TIP3   OH227749   4.051   4.032   5.824 -0.0180 -0.0664  0.0543
 9262TIP3    H127750   3.974   4.080   5.794 -1.4497 -1.6246  1.0562
 9262TIP3    H227751   4.115   4.099   5.846 -0.6280  1.2461 -1.9244
 9263TIP3   OH227752   6.238   5.743   2.535 -0.4407  0.1494  0.0480
 9263TIP3    H127753   6.288   5.825   2.532  0.4606 -0.2614  2.1839
 9263TIP3    H227754   6.146   5.771   2.542 -0.2612  0.9447 -0.6772
 9264TIP3   OH227755   5.878   2.929   4.299 -0.3199 -0.1042  0.6728
 9264TIP3    H127756   5.834   2.906   4.217  1.2538 -2.4335  0.3767
 9264TIP3    H227757   5.928   3.007   4.279 -2.4269  1.2673  0.3901
 9265TIP3   OH227758   4.400   5.539   3.744  0.2525  0.0029 -0.2785
 9265TIP3    H127759   4.432   5.543   3.834  1.0663 -0.0595 -0.5606
 9265TIP3    H227760   4.374   5.629   3.724 -0.1557 -0.0281  0.0926
 9266TIP3   OH227761   1.572   0.529   3.519 -0.1590  0.8314 -0.4209
 9266TIP3    H127762   1.649   0.581   3.539 -0.8634  1.3080  1.1734
 9266TIP3    H227763   1.522   0.583   3.457 -0.0302  1.2703 -0.1415
 9267TIP3   OH227764   3.242   4.360   4.216 -0.2075 -0.0744 -0.2923
 9267TIP3    H127765   3.322   4.402   4.184  0.5816 -1.2701  0.0619
 9267TIP3    H227766   3.232   4.392   4.305  0.1371 -0.2815 -0.1778
 9268TIP3   OH227767   1.919   5.443   3.481 -0.3457  0.4096 -0.3651
 9268TIP3    H127768   1.892   5.510   3.419 -1.9059  0.8701  0.7616
 9268TIP3    H227769   1.895   5.477   3.567  2.0361 -0.0702  0.5848
 9269TIP3   OH227770   1.138   3.122   4.298  0.2991 -0.3665  0.1005
 9269TIP3    H127771   1.081   3.045   4.299 -0.6781  0.3377  0.3063
 9269TIP3    H227772   1.227   3.087   4.295 -0.1568 -1.4907 -1.8817
 9270TIP3   OH227773   1.095   2.281   2.033 -0.0287 -0.4625 -0.2574
 9270TIP3    H127774   1.000   2.281   2.032 -0.0572 -0.6635  0.8869
 9270TIP3    H227775   1.118   2.345   2.101  0.6476 -0.5121 -0.4313
 9271TIP3   OH227776   6.682   0.109   0.263 -0.4688 -0.2047  0.1623
 9271TIP3    H127777   6.645   0.120   0.175  1.5230 -0.5968 -0.7706
 9271TIP3    H227778   6.612   0.067   0.313 -0.9874 -1.8363 -1.7853
 9272TIP3   OH227779   0.584   4.323   5.594  0.5412  0.1762 -0.0874
 9272TIP3    H127780   0.514   4.305   5.532  0.8940 -2.0856  0.0739
 9272TIP3    H227781   0.639   4.388   5.550  1.7309 -2.5534 -3.0163
 9273TIP3   OH227782   4.956   3.114   2.194 -0.2487  0.3471  0.0494
 9273TIP3    H127783   4.896   3.184   2.169 -0.0775  0.4866  0.0265
 9273TIP3    H227784   4.902   3.052   2.243 -0.7638 -0.3017 -1.2852
 9274TIP3   OH227785   3.091   2.083   5.239 -0.7546 -0.0008 -0.0611
 9274TIP3    H127786   3.079   2.089   5.144 -0.5451 -1.0304 -0.1716
 9274TIP3    H227787   3.135   1.999   5.252  2.8194  1.8157  0.6385
 9275TIP3   OH227788   3.515   2.636   2.502  0.2349 -0.3658  0.1433
 9275TIP3    H127789   3.465   2.674   2.430 -0.1328  1.2998  1.2355
 9275TIP3    H227790   3.541   2.550   2.470  0.7146  0.5912 -2.2732
 9276TIP3   OH227791   0.282   5.634   0.198 -0.0775  0.1417  0.5412
 9276TIP3    H127792   0.371   5.649   0.167  0.3773 -2.0621  0.6367
 9276TIP3    H227793   0.268   5.701   0.265  0.9887  1.3638 -0.4036
 9277TIP3   OH227794   3.661   3.736   0.670 -0.2796 -0.1630 -0.6117
 9277TIP3    H127795   3.724   3.795   0.630  1.2671 -0.1597  1.6277
 9277TIP3    H227796   3.700   3.649   0.661  0.7330 -0.0282  1.8431
 9278TIP3   OH227797   0.877   5.602   2.401 -0.0579 -0.7272 -0.3638
 9278TIP3    H127798   0.929   5.543   2.347  1.0690  0.4157 -0.5629
 9278TIP3    H227799   0.905   5.690   2.375 -1.9710 -0.0547 -0.3706
 9279TIP3   OH227800   1.914   2.663   2.114  0.2604  0.2238  0.5199
 9279TIP3    H127801   1.880   2.573   2.121 -2.7597  1.1745 -0.3283
 9279TIP3    H227802   2.008   2.654   2.127  0.3983 -3.3355 -1.5557
 9280TIP3   OH227803   6.308   0.250   3.874  0.4070 -0.3616  0.2820
 9280TIP3    H127804   6.220   0.255   3.912 -0.5194 -0.8896 -1.6763
 9280TIP3    H227805   6.317   0.331   3.825 -0.3706 -1.7099 -2.2383
 9281TIP3   OH227806   0.161   4.166   0.293  0.5307  0.3648 -0.2956
 9281TIP3    H127807   0.250   4.132   0.285  1.0517  0.8965  2.2280
 9281TIP3    H227808   0.106   4.100   0.250  1.8584 -1.7076  0.9748
 9282TIP3   OH227809   4.765   2.594   4.085 -0.1669 -0.0794 -0.2498
 9282TIP3    H127810   4.770   2.529   4.155  0.2096  1.7325  1.5124
 9282TIP3    H227811   4.675   2.627   4.090 -0.1178  0.1109 -0.5811
 9283TIP3   OH227812   2.369   2.099   1.794  0.2825 -1.0047  0.2092
 9283TIP3    H127813   2.288   2.060   1.826 -0.0683 -0.5954 -0.1683
 9283TIP3    H227814   2.388   2.170   1.855 -0.2793 -0.3513 -0.3670
 9284TIP3   OH227815   0.031   2.803   4.322  0.2607 -0.2910  0.3438
 9284TIP3    H127816  -0.010   2.826   4.239 -1.3964 -0.3622  1.0984
 9284TIP3    H227817  -0.006   2.717   4.344 -2.2986  1.2658  2.8883
 9285TIP3   OH227818   5.470   0.058   0.517  0.0457  0.3875 -0.1339
 9285TIP3    H127819   5.462   0.044   0.422 -1.6823 -0.9378  0.1450
 9285TIP3    H227820   5.554   0.018   0.541 -0.6139 -1.5310 -0.7891
 9286TIP3   OH227821   5.068   4.463   0.435  0.2039 -0.1263 -0.0185
 9286TIP3    H127822   5.105   4.397   0.493 -0.2864 -1.6371 -1.3522
 9286TIP3    H227823   5.069   4.544   0.487  3.8251 -0.3957  0.5536
 9287TIP3   OH227824   4.488   6.211   5.639  0.3233 -0.0783 -0.5463
 9287TIP3    H127825   4.426   6.187   5.707  0.8444  1.7831  0.6637
 9287TIP3    H227826   4.547   6.135   5.632 -0.8216 -1.0174 -0.2523
 9288TIP3   OH227827   5.675   1.967   1.495 -0.7150 -0.0530 -0.6673
 9288TIP3    H127828   5.749   1.950   1.436 -0.1697 -0.4172  0.1006
 9288TIP3    H227829   5.688   2.057   1.524  0.6942 -0.7870  1.1643
 9289TIP3   OH227830   6.657   3.633   4.649  0.3268  0.0110  0.0477
 9289TIP3    H127831   6.696   3.710   4.691  0.7500  0.0895 -0.4800
 9289TIP3    H227832   6.658   3.565   4.716  2.2233 -0.2672 -0.2248
 9290TIP3   OH227833   2.688   1.966   3.351  0.2434  0.3682 -0.5322
 9290TIP3    H127834   2.691   1.947   3.257 -0.6505  0.4377 -0.5842
 9290TIP3    H227835   2.764   1.921   3.387  0.4325  0.1017 -1.2476
 9291TIP3   OH227836   4.885   4.972   5.210 -0.1438  0.0883 -0.3962
 9291TIP3    H127837   4.817   4.923   5.164 -1.1208 -0.9431  1.9885
 9291TIP3    H227838   4.967   4.932   5.180 -0.8863 -3.2351  1.4733
 9292TIP3   OH227839   1.103   4.531   4.575  0.4406 -0.0301  0.4901
 9292TIP3    H127840   1.198   4.529   4.587  0.5770 -3.9124  0.1288
 9292TIP3    H227841   1.068   4.497   4.658 -0.4224 -0.9556 -0.2261
 9293TIP3   OH227842   5.895   6.317   4.115 -0.3588  0.3503  0.1066
 9293TIP3    H127843   5.914   6.274   4.032 -1.2229 -0.7907  0.4847
 9293TIP3    H227844   5.812   6.361   4.102 -0.4293  0.2856  0.3274
 9294TIP3   OH227845   5.725   1.206   2.443 -0.0671 -0.4453 -0.2450
 9294TIP3    H127846   5.641   1.250   2.431 -0.3818 -1.2254 -1.0167
 9294TIP3    H227847   5.713   1.153   2.522 -0.6205 -1.2564 -0.8570
 9295TIP3   OH227848   1.688   3.469   2.812  0.2730  0.4312  0.2033
 9295TIP3    H127849   1.771   3.518   2.810  0.1945  0.5729  0.4537
 9295TIP3    H227850   1.621   3.535   2.796  0.1417  0.4648  0.8683
 9296TIP3   OH227851   3.098   3.662   0.816  0.2878 -0.4437  0.5285
 9296TIP3    H127852   3.015   3.621   0.790  0.0752 -0.3557  1.0540
 9296TIP3    H227853   3.086   3.755   0.796  1.2055 -0.7545 -1.7839
 9297TIP3   OH227854   1.673   6.461   2.452 -0.5233 -0.4695  0.1601
 9297TIP3    H127855   1.721   6.389   2.412 -2.2110 -1.2508 -0.5339
 9297TIP3    H227856   1.596   6.420   2.490 -0.3811  0.6652  1.8017
 9298TIP3   OH227857   4.127   4.284   5.868 -0.1123 -0.4126 -0.4173
 9298TIP3    H127858   4.087   4.364   5.836  1.3292  0.7003  0.4228
 9298TIP3    H227859   4.220   4.294   5.846  0.7210 -0.2067  2.7342
 9299TIP3   OH227860   3.364   1.997   4.636  0.1389  0.4676  0.1166
 9299TIP3    H127861   3.298   1.971   4.700 -0.8534 -0.2843 -1.1373
 9299TIP3    H227862   3.361   2.092   4.636 -0.6584  0.4540  0.3965
 9300TIP3   OH227863   5.069   6.274   5.509 -0.3891 -0.8091 -0.5110
 9300TIP3    H127864   5.124   6.196   5.523 -0.8360 -1.3278 -1.5317
 9300TIP3    H227865   4.979   6.240   5.509 -0.6788 -0.0627  0.5153
 9301TIP3   OH227866   5.324   4.609   4.096  0.4911 -0.2197 -0.5223
 9301TIP3    H127867   5.310   4.671   4.168 -1.2707 -0.8402 -0.2862
 9301TIP3    H227868   5.272   4.644   4.024 -0.8437 -1.5921 -0.2635
 9302TIP3   OH227869   7.143   0.981   3.477 -0.1210  0.3391  0.1241
 9302TIP3    H127870   7.178   1.036   3.547 -0.7243  2.0458 -0.8805
 9302TIP3    H227871   7.137   1.039   3.401 -2.0866 -0.7514 -0.6064
 9303TIP3   OH227872   6.097   4.879   2.270 -0.0921  0.4724  0.2744
 9303TIP3    H127873   6.115   4.923   2.187 -0.2209  1.6394  0.8585
 9303TIP3    H227874   6.181   4.876   2.315 -0.0473 -0.0515  0.1711
 9304TIP3   OH227875   4.858   0.543   3.432 -0.4343 -0.0983  0.2721
 9304TIP3    H127876   4.835   0.566   3.342  1.7458  0.8998 -0.0961
 9304TIP3    H227877   4.828   0.453   3.443  0.4747 -0.7171 -1.9314
 9305TIP3   OH227878   0.743   0.576   0.907  0.3581  0.7778  0.8789
 9305TIP3    H127879   0.648   0.577   0.915  0.0988 -1.8818 -0.5670
 9305TIP3    H227880   0.775   0.595   0.995 -1.4332  2.3635  1.2767
 9306TIP3   OH227881   1.493   3.488   2.528 -0.4124 -0.1049  0.2691
 9306TIP3    H127882   1.452   3.567   2.563  0.5605  0.8312 -0.6040
 9306TIP3    H227883   1.473   3.420   2.592 -3.1419  0.3067 -0.0065
 9307TIP3   OH227884   3.563   0.694   1.604 -0.6852  0.3856  0.0236
 9307TIP3    H127885   3.620   0.620   1.583 -0.3520  0.9771 -1.2442
 9307TIP3    H227886   3.614   0.747   1.666  0.3661  1.1207 -1.4038
 9308TIP3   OH227887   3.250   2.481   0.582  0.3609  0.6053  0.0610
 9308TIP3    H127888   3.289   2.399   0.552  1.6905  1.4142 -0.5494
 9308TIP3    H227889   3.156   2.468   0.573  0.5495 -0.8097 -0.1126
 9309TIP3   OH227890   1.218   4.377   1.238 -0.4178  0.0921 -0.7862
 9309TIP3    H127891   1.296   4.343   1.194  1.3322 -0.8171  2.6230
 9309TIP3    H227892   1.245   4.463   1.271 -0.5102 -0.5038  0.9836
 9310TIP3   OH227893   5.538   4.293   3.522  0.0949 -0.5513 -0.1125
 9310TIP3    H127894   5.452   4.314   3.485 -0.3450  0.1737  1.2705
 9310TIP3    H227895   5.600   4.340   3.466 -0.4719 -0.3968 -0.6207
 9311TIP3   OH227896   1.296   5.728   3.214 -0.4266  0.4997  0.4596
 9311TIP3    H127897   1.204   5.751   3.223 -0.6543 -0.5141  0.8648
 9311TIP3    H227898   1.343   5.810   3.230 -1.2277  0.8969  0.8473
 9312TIP3   OH227899   1.706   3.214   0.714 -0.0637 -0.2705 -0.3706
 9312TIP3    H127900   1.616   3.187   0.728  0.1966 -0.8824  0.2094
 9312TIP3    H227901   1.722   3.281   0.781  0.5710 -1.7687  1.0689
 9313TIP3   OH227902   6.871   0.164   5.068 -0.3756  0.1776  0.1467
 9313TIP3    H127903   6.798   0.107   5.093  0.5256 -0.9142  0.3734
 9313TIP3    H227904   6.945   0.132   5.121  0.4731  0.7053 -0.6983
 9314TIP3   OH227905   6.976   5.586   2.433 -0.5471 -0.1457 -0.0096
 9314TIP3    H127906   6.889   5.547   2.427 -0.9662  0.9217 -1.4939
 9314TIP3    H227907   6.979   5.649   2.360  1.2150  0.3272  0.4270
 9315TIP3   OH227908   0.407   0.046   5.233  0.3640  0.0754 -0.5035
 9315TIP3    H127909   0.469   0.103   5.278  1.7261 -0.1808 -1.9840
 9315TIP3    H227910   0.426  -0.042   5.266  0.1221  0.1141 -0.2533
 9316TIP3   OH227911   1.321   2.215   5.355 -0.5785  0.5821  0.0971
 9316TIP3    H127912   1.296   2.155   5.426  2.1305  0.8484  1.3801
 9316TIP3    H227913   1.410   2.243   5.377  0.9689 -0.3236 -4.0640
 9317TIP3   OH227914   7.175   4.567   2.015 -0.7219 -0.3970  0.1094
 9317TIP3    H127915   7.174   4.536   2.105  1.8986  0.8645  0.6590
 9317TIP3    H227916   7.174   4.662   2.022 -0.7935 -0.2780 -1.2099
 9318TIP3   OH227917   2.914   3.940   1.749 -0.1900  0.9444  0.0228
 9318TIP3    H127918   2.943   3.851   1.765 -2.3400  0.3813  1.0958
 9318TIP3    H227919   2.962   3.967   1.671  1.0092 -0.8846  0.0706
 9319TIP3   OH227920   2.324   2.064   0.812 -0.1081  0.0369  0.2907
 9319TIP3    H127921   2.396   2.003   0.828  0.5822  0.7416  0.0057
 9319TIP3    H227922   2.359   2.124   0.745 -1.8665 -1.1045 -1.7800
 9320TIP3   OH227923   6.589   4.553   0.749  0.0723 -1.1185  0.2924
 9320TIP3    H127924   6.665   4.612   0.749 -1.0130  0.4918  3.0254
 9320TIP3    H227925   6.620   4.475   0.796  0.0669 -0.4320  1.4777
 9321TIP3   OH227926   5.169   1.700   1.847  0.1045 -0.4111  0.0846
 9321TIP3    H127927   5.142   1.770   1.788  1.1270 -0.6148 -0.6521
 9321TIP3    H227928   5.128   1.621   1.811 -1.7693 -0.0846  1.4180
 9322TIP3   OH227929   1.976   1.105   0.910  0.1788  0.9473 -0.3632
 9322TIP3    H127930   1.937   1.033   0.960 -1.4828  0.1140 -2.6607
 9322TIP3    H227931   2.057   1.126   0.956 -0.4135 -0.8651  1.6498
 9323TIP3   OH227932   6.799   6.600   1.820  0.6428 -0.2276  0.4905
 9323TIP3    H127933   6.706   6.581   1.807  0.6620  0.5125 -0.8451
 9323TIP3    H227934   6.800   6.674   1.880  0.3169  0.4541 -0.3218
 9324TIP3   OH227935   3.488   2.099   0.957  0.7384  0.1505  0.0195
 9324TIP3    H127936   3.433   2.149   0.897  1.2521 -0.2241 -0.7726
 9324TIP3    H227937   3.562   2.157   0.975  1.3302 -0.3091 -0.8926
 9325TIP3   OH227938   3.860   3.151   2.984  0.4841 -0.3238  0.0789
 9325TIP3    H127939   3.765   3.142   2.980  0.5234 -0.3583 -1.3965
 9325TIP3    H227940   3.875   3.211   3.057 -0.8881  2.1859 -1.5449
 9326TIP3   OH227941   3.292   4.852   5.735  0.3352 -0.1193 -0.3393
 9326TIP3    H127942   3.329   4.765   5.727 -1.3958 -0.7307 -2.8887
 9326TIP3    H227943   3.310   4.895   5.651 -0.2698  1.3847  0.2456
 9327TIP3   OH227944   3.010   2.475   0.471 -0.1259  0.0323 -0.0097
 9327TIP3    H127945   2.991   2.395   0.422 -0.6031  0.2490 -0.1861
 9327TIP3    H227946   2.936   2.533   0.451  1.3002  1.3923 -1.7432
 9328TIP3   OH227947   2.851   4.748   4.714 -0.1255 -0.0823  0.2290
 9328TIP3    H127948   2.933   4.769   4.760 -0.6629  2.5137  0.1438
 9328TIP3    H227949   2.800   4.697   4.777  1.7129 -2.3112  0.0738
 9329TIP3   OH227950   6.749   5.539   4.739  0.0316  0.4379  0.4132
 9329TIP3    H127951   6.668   5.553   4.690  0.5367  0.2076 -0.5146
 9329TIP3    H227952   6.744   5.449   4.769  0.3932  0.0846 -0.5372
 9330TIP3   OH227953   2.491   4.203   4.688 -0.1648  0.0949  0.6833
 9330TIP3    H127954   2.580   4.236   4.692  0.5055 -1.6987  3.3209
 9330TIP3    H227955   2.500   4.110   4.668 -1.4964  0.0290  0.2520
 9331TIP3   OH227956   1.901   5.009   3.214 -0.1672 -0.1473  0.1763
 9331TIP3    H127957   1.920   5.095   3.252  0.0936  0.0794 -0.4435
 9331TIP3    H227958   1.873   4.955   3.288  2.0154 -0.2260  1.0298
 9332TIP3   OH227959   4.953   2.051   2.518 -0.0992 -0.4068 -0.0413
 9332TIP3    H127960   4.904   2.064   2.437 -1.0884  0.6328  0.6795
 9332TIP3    H227961   5.041   2.084   2.499 -0.8558  1.6978 -0.1469
 9333TIP3   OH227962   2.473   0.095   5.060 -0.0958 -0.0058  1.0366
 9333TIP3    H127963   2.438   0.028   5.119  0.5450 -1.3387 -0.0551
 9333TIP3    H227964   2.443   0.068   4.973  0.6089  0.8407  0.5218
 9334TIP3   OH227965   1.227   3.906   3.139  0.2659 -0.4392  0.0516
 9334TIP3    H127966   1.253   3.997   3.130  0.0899 -0.5384 -1.7692
 9334TIP3    H227967   1.145   3.909   3.189  0.5387  0.3420  0.4680
 9335TIP3   OH227968   5.999   5.516   5.293  0.4988 -0.5335 -0.6022
 9335TIP3    H127969   5.993   5.494   5.200  0.7791 -2.3136 -0.2448
 9335TIP3    H227970   6.092   5.536   5.307  1.2810 -3.8169 -0.0923
 9336TIP3   OH227971   6.050   6.746   4.169  0.1960  0.8827  0.2860
 9336TIP3    H127972   5.969   6.766   4.122  0.1428  0.2120  0.0811
 9336TIP3    H227973   6.063   6.652   4.155  0.5731  0.8237  1.0017
 9337TIP3   OH227974   6.183   2.203   0.420  0.4194 -0.0565 -0.0318
 9337TIP3    H127975   6.241   2.130   0.442  1.8106  0.9936 -0.1032
 9337TIP3    H227976   6.163   2.190   0.327  1.1957  0.0019 -0.2131
 9338TIP3   OH227977   6.128   5.301   1.356 -0.1216  0.0664 -0.0960
 9338TIP3    H127978   6.130   5.211   1.323 -0.0721 -0.6173  1.6803
 9338TIP3    H227979   6.211   5.312   1.401 -0.9080  0.3130  1.3590
 9339TIP3   OH227980   5.041   4.148   1.634 -0.0249 -0.4386 -0.1201
 9339TIP3    H127981   5.066   4.231   1.594  0.7925 -2.0264 -3.1463
 9339TIP3    H227982   5.115   4.090   1.620 -1.5320 -2.4235 -0.4044
 9340TIP3   OH227983   6.060   3.418   3.428 -0.3040 -0.2683  1.2136
 9340TIP3    H127984   6.011   3.474   3.488  0.2910 -0.3063  1.7531
 9340TIP3    H227985   6.120   3.477   3.383 -1.7953  0.0325 -0.5285
 9341TIP3   OH227986   5.115   3.447   5.315 -0.2290 -0.4622  0.1343
 9341TIP3    H127987   5.026   3.450   5.349  0.2433 -0.2993  1.3901
 9341TIP3    H227988   5.152   3.533   5.336  0.7632 -1.1136  1.1454
 9342TIP3   OH227989   6.386   2.727   2.065 -0.3177  0.1512  0.1660
 9342TIP3    H127990   6.387   2.759   2.156 -0.5707 -1.3327  0.7178
 9342TIP3    H227991   6.383   2.806   2.012 -0.3913  1.0488  1.4600
 9343TIP3   OH227992   1.753   2.643   5.843 -0.0578 -0.5725  0.0474
 9343TIP3    H127993   1.803   2.676   5.918 -0.5220 -2.4012  1.2293
 9343TIP3    H227994   1.804   2.668   5.766 -0.1231  2.3425  0.8370
 9344TIP3   OH227995   4.617   6.557   5.133 -0.4225  0.6842  0.5833
 9344TIP3    H127996   4.673   6.499   5.081 -1.4265 -0.6371  0.9296
 9344TIP3    H227997   4.678   6.597   5.195  0.6695  1.7450 -1.0920
 9345TIP3   OH227998   0.218   6.256   2.995  0.5849  0.0864  0.2009
 9345TIP3    H127999   0.137   6.305   2.993  0.0099 -0.8503 -0.4017
 9345TIP3    H228000   0.233   6.230   2.904  1.2631 -0.2160  0.3905
 9346TIP3   OH228001   5.883   6.491   2.266  0.3729 -0.0363 -0.3729
 9346TIP3    H128002   5.967   6.514   2.305 -0.3378 -0.8147  1.7430
 9346TIP3    H228003   5.818   6.533   2.321 -0.6781  0.2995 -1.7921
 9347TIP3   OH228004   2.474   3.055   0.976 -0.0977 -0.2810 -0.0203
 9347TIP3    H128005   2.398   3.112   0.965  0.7667  0.7794 -0.6902
 9347TIP3    H228006   2.453   2.976   0.926 -0.7631  0.0038 -0.1959
 9348TIP3   OH228007   3.644   0.882   2.155  0.4518  0.1868  0.3951
 9348TIP3    H128008   3.622   0.840   2.239  1.2633 -1.0030  0.0445
 9348TIP3    H228009   3.739   0.887   2.156  0.4549  0.3215 -0.3872
 9349TIP3   OH228010   6.580   1.190   0.262 -0.1580  0.1494  0.1737
 9349TIP3    H128011   6.637   1.263   0.286 -0.7878 -0.2230  3.2014
 9349TIP3    H228012   6.511   1.230   0.209 -0.1172  1.6743  1.1958
 9350TIP3   OH228013   2.300   3.816   1.469 -0.0275 -0.0375 -0.0461
 9350TIP3    H128014   2.383   3.864   1.465 -0.1807  0.2033 -0.4077
 9350TIP3    H228015   2.297   3.766   1.387 -0.3882  0.2057 -0.1841
 9351TIP3   OH228016   0.764   1.294   4.271  0.0269 -0.2448 -0.7744
 9351TIP3    H128017   0.778   1.200   4.277  1.2275  0.0423  2.2827
 9351TIP3    H228018   0.673   1.307   4.299  0.7708 -0.3347  1.9361
 9352TIP3   OH228019   1.037   1.796   1.700  0.0808 -0.4407 -0.0001
 9352TIP3    H128020   1.083   1.866   1.654  0.8895  0.3056  1.8586
 9352TIP3    H228021   0.975   1.762   1.635 -0.6263  2.2427 -0.8831
 9353TIP3   OH228022   6.085   2.460   5.185 -0.0898 -0.1046  0.0589
 9353TIP3    H128023   6.178   2.454   5.166  0.8707  1.8444  3.3199
 9353TIP3    H228024   6.070   2.398   5.256 -1.7963 -1.7141 -1.5732
 9354TIP3   OH228025   5.679   3.052   5.504  0.0958  0.3566  0.7100
 9354TIP3    H128026   5.664   3.053   5.409  0.7696  0.0444  0.5931
 9354TIP3    H228027   5.692   3.144   5.526 -0.7518  0.5056  0.6206
 9355TIP3   OH228028   3.882   1.135   1.318  0.2481 -0.0813 -0.7854
 9355TIP3    H128029   3.892   1.194   1.393 -0.7288 -0.9962  0.0876
 9355TIP3    H228030   3.836   1.186   1.253 -2.1626 -0.3502  0.6068
 9356TIP3   OH228031   1.907   4.493   0.039  0.3538 -0.0686  0.4947
 9356TIP3    H128032   1.933   4.403   0.019  1.8205  0.2447  0.8829
 9356TIP3    H228033   1.817   4.499   0.009  0.6881 -1.2516 -0.8350
 9357TIP3   OH228034   5.781   1.019   2.860  0.0589 -0.2453  0.1113
 9357TIP3    H128035   5.729   0.991   2.784 -0.6414  0.3957  0.3511
 9357TIP3    H228036   5.750   0.964   2.932 -0.5680  0.4072  0.3428
 9358TIP3   OH228037   5.109   1.881   1.323 -0.1361  0.0314  0.1426
 9358TIP3    H128038   5.061   1.965   1.319 -1.0403 -0.4632  0.2246
 9358TIP3    H228039   5.185   1.894   1.268 -0.3409  0.8716  0.0446
 9359TIP3   OH228040   1.698   5.909   1.482  0.2769 -0.0690 -0.2945
 9359TIP3    H128041   1.757   5.967   1.529  1.1261 -0.7883 -0.4572
 9359TIP3    H228042   1.617   5.960   1.473  0.9446  1.0329 -0.2965
 9360TIP3   OH228043   6.500   1.589   0.257  0.2920  0.1760 -0.0050
 9360TIP3    H128044   6.580   1.538   0.242 -0.2495 -0.6520 -0.1736
 9360TIP3    H228045   6.494   1.598   0.352  0.5993  0.2569  0.0063
 9361TIP3   OH228046   3.229   3.604   5.699  0.2405 -0.4143  0.5921
 9361TIP3    H128047   3.145   3.642   5.674 -0.9301 -2.9420  0.3658
 9361TIP3    H228048   3.294   3.651   5.647 -1.0286  1.4433  0.6013
 9362TIP3   OH228049   5.050   0.645   1.541 -0.1096 -0.0743 -0.3030
 9362TIP3    H128050   4.956   0.652   1.557  0.2026  0.9675  1.3694
 9362TIP3    H228051   5.079   0.574   1.599  0.4384  1.0998  0.9280
 9363TIP3   OH228052   0.283   5.756   4.950 -0.0192 -0.6296 -0.1372
 9363TIP3    H128053   0.212   5.710   4.994 -0.1585 -0.0746  0.2263
 9363TIP3    H228054   0.344   5.686   4.924 -0.7367 -1.1117 -0.5401
 9364TIP3   OH228055   4.201   0.158   4.574 -0.0600 -0.1797 -0.2865
 9364TIP3    H128056   4.194   0.092   4.506  0.8459  1.0662 -1.6475
 9364TIP3    H228057   4.110   0.177   4.599 -0.3537 -1.4492 -0.3008
 9365TIP3   OH228058   0.754   3.605   2.697 -0.1306 -0.5006 -0.1830
 9365TIP3    H128059   0.790   3.694   2.694 -1.8885  0.2355 -1.3040
 9365TIP3    H228060   0.693   3.607   2.771  0.5397 -1.0924  0.3973
 9366TIP3   OH228061   6.811   3.176   2.496  0.0460  0.2889  0.4753
 9366TIP3    H128062   6.743   3.205   2.557 -0.7995  0.4359 -0.5129
 9366TIP3    H228063   6.887   3.231   2.517 -0.2347  0.3579  1.3638
 9367TIP3   OH228064   1.119   1.668   0.726  0.2328  0.1173  0.0975
 9367TIP3    H128065   1.041   1.644   0.776  0.9286  0.3208  1.3383
 9367TIP3    H228066   1.190   1.621   0.769  1.0377  1.3084  0.1137
 9368TIP3   OH228067   5.564   1.445   3.303  0.0588  0.3850  0.4492
 9368TIP3    H128068   5.619   1.517   3.333  0.4427  1.1892 -1.9627
 9368TIP3    H228069   5.612   1.406   3.230 -1.1868 -0.8475  0.2369
 9369TIP3   OH228070   2.443   5.810   4.587 -0.0582 -0.7138  0.1072
 9369TIP3    H128071   2.505   5.750   4.629  0.4054 -1.9099 -2.1178
 9369TIP3    H228072   2.408   5.760   4.513  0.0479  1.6446 -1.6362
 9370TIP3   OH228073   0.433   0.237   2.862 -0.5562  0.5421 -0.5894
 9370TIP3    H128074   0.393   0.270   2.942  0.5987 -0.0315  0.2615
 9370TIP3    H228075   0.520   0.206   2.889 -0.5016 -0.5550 -1.8765
 9371TIP3   OH228076   1.311   3.688   1.611 -0.5524  0.0613 -0.0127
 9371TIP3    H128077   1.244   3.673   1.678  0.3650 -0.5596  0.7880
 9371TIP3    H228078   1.286   3.771   1.571 -1.6240 -0.0007  0.4833
 9372TIP3   OH228079   4.132   1.496   0.179  0.1298  0.4951 -0.0525
 9372TIP3    H128080   4.089   1.419   0.215 -0.1925  0.7232  0.0466
 9372TIP3    H228081   4.174   1.538   0.254  2.1195 -0.7352 -0.4074
 9373TIP3   OH228082   7.086   2.163   1.716  0.2670 -0.1183 -0.0579
 9373TIP3    H128083   7.056   2.148   1.627  0.2978 -0.1005 -0.0712
 9373TIP3    H228084   7.181   2.162   1.711  0.2677 -0.3046  0.0081
 9374TIP3   OH228085   3.286   0.348   3.315  0.2497 -0.0691  0.0310
 9374TIP3    H128086   3.337   0.387   3.243  0.4465  0.1636  0.2957
 9374TIP3    H228087   3.295   0.410   3.387 -0.0393 -0.2490  0.2245
 9375TIP3   OH228088   7.140   3.603   3.300 -0.6700 -0.4569  0.0580
 9375TIP3    H128089   7.138   3.697   3.319  1.0015 -0.6982  1.6605
 9375TIP3    H228090   7.063   3.568   3.344 -0.0836 -0.1194  1.4212
 9376TIP3   OH228091   6.382   3.509   1.727 -0.0409  0.2653 -0.5734
 9376TIP3    H128092   6.454   3.567   1.751 -0.8954  1.8383 -1.6088
 9376TIP3    H228093   6.304   3.550   1.766 -0.4204 -1.4103  0.5493
 9377TIP3   OH228094   5.713   4.053   3.249 -0.0122 -0.3883 -0.4767
 9377TIP3    H128095   5.706   4.030   3.341 -0.0413  1.6006  0.0576
 9377TIP3    H228096   5.667   3.983   3.203 -0.5826 -1.0529  1.0516
 9378TIP3   OH228097   1.115   3.666   5.588 -0.5244 -0.2015  0.3776
 9378TIP3    H128098   1.133   3.582   5.545  1.2907 -1.0484  2.5601
 9378TIP3    H228099   1.198   3.712   5.586 -1.1492  0.9590  0.4362
 9379TIP3   OH228100   1.519   1.220   2.909 -0.1091 -0.1676 -0.4493
 9379TIP3    H128101   1.511   1.127   2.930  0.0247 -0.1077 -0.1361
 9379TIP3    H228102   1.443   1.261   2.952  0.2633 -0.0196  0.0770
 9380TIP3   OH228103   5.738   4.939   4.449 -0.2005 -0.3964  0.9628
 9380TIP3    H128104   5.646   4.931   4.472 -1.0979  1.1934 -1.7006
 9380TIP3    H228105   5.774   4.999   4.514 -1.4465  0.2208  1.1059
 9381TIP3   OH228106   7.049   5.970   5.238 -0.1710  0.3061 -0.0286
 9381TIP3    H128107   7.088   5.889   5.204 -2.7237 -1.4760  1.0324
 9381TIP3    H228108   7.070   6.036   5.171  2.4103 -1.0403 -0.7047
 9382TIP3   OH228109   1.454   5.616   4.239 -0.7039  0.3109  0.1340
 9382TIP3    H128110   1.501   5.616   4.322  1.6436  1.7844 -1.0939
 9382TIP3    H228111   1.473   5.530   4.202 -1.0834 -0.0406  0.7291
 9383TIP3   OH228112   5.414   1.955   0.589 -0.4718 -0.0382  0.8067
 9383TIP3    H128113   5.318   1.960   0.598 -0.3695 -0.0974  2.2306
 9383TIP3    H228114   5.445   1.940   0.678  1.0020  2.1872  0.7571
 9384TIP3   OH228115   6.073   0.118   4.906  0.0329 -0.0363 -0.3344
 9384TIP3    H128116   6.127   0.124   4.985 -1.5348 -1.5683  0.9373
 9384TIP3    H228117   5.985   0.141   4.935 -0.8272 -1.8458 -1.2995
 9385TIP3   OH228118   0.516   2.255   1.043  0.7003  0.1648 -0.3236
 9385TIP3    H128119   0.564   2.261   0.961 -0.3718 -0.1503 -0.9906
 9385TIP3    H228120   0.551   2.327   1.097  1.9033 -0.0668 -0.7781
 9386TIP3   OH228121   4.797   5.633   3.728  0.1250 -0.2016  0.0467
 9386TIP3    H128122   4.863   5.567   3.705 -1.7406 -2.5151  0.9606
 9386TIP3    H228123   4.802   5.640   3.823  0.3681  1.1230 -0.0445
 9387TIP3   OH228124   5.124   6.296   3.783  0.2884 -0.2629  0.1224
 9387TIP3    H128125   5.220   6.303   3.782  0.2363  0.5661  0.1560
 9387TIP3    H228126   5.095   6.371   3.731 -0.3437 -0.5314  0.0897
 9388TIP3   OH228127   4.633   6.637   0.500 -0.1535  0.5560 -0.4201
 9388TIP3    H128128   4.643   6.548   0.466  0.0566  0.5074 -0.2282
 9388TIP3    H228129   4.541   6.659   0.481  0.2304  0.9230 -1.9549
 9389TIP3   OH228130   4.582   3.058   0.294  0.2388 -0.1114 -0.3501
 9389TIP3    H128131   4.535   2.998   0.237  0.2152 -0.4861  0.0553
 9389TIP3    H228132   4.621   3.002   0.361  4.3869 -0.3091 -2.6410
 9390TIP3   OH228133   3.260   6.105   3.476  0.0152 -0.2498  0.0507
 9390TIP3    H128134   3.187   6.053   3.443  0.7998 -1.4287  0.0848
 9390TIP3    H228135   3.245   6.110   3.570  0.0737 -0.6645  0.0850
 9391TIP3   OH228136   1.150   6.204   4.947  0.3428  0.7362  0.1805
 9391TIP3    H128137   1.091   6.180   4.876 -0.6425  0.4075  1.0671
 9391TIP3    H228138   1.237   6.205   4.908  0.1897 -2.0674 -0.4279
 9392TIP3   OH228139   4.922   1.918   1.958  0.2862 -0.1112 -0.0475
 9392TIP3    H128140   4.872   1.997   1.975  0.9632  0.7007 -1.5897
 9392TIP3    H228141   4.893   1.890   1.871 -0.8291 -2.2844  0.9472
 9393TIP3   OH228142   5.935   3.356   4.073  0.3171  0.4163  0.5060
 9393TIP3    H128143   6.023   3.363   4.036  1.2220  0.0309  2.4419
 9393TIP3    H228144   5.937   3.275   4.124 -1.4780 -0.0809 -0.1293
 9394TIP3   OH228145   6.332   2.364   4.715 -0.1905  0.3798  0.3708
 9394TIP3    H128146   6.341   2.364   4.619 -3.2988  0.4831 -0.0232
 9394TIP3    H228147   6.402   2.422   4.745  0.6393  0.6505 -1.8773
 9395TIP3   OH228148   4.421   3.318   1.848 -0.2625 -0.2604  0.2897
 9395TIP3    H128149   4.471   3.267   1.785 -2.0144 -0.9028 -0.6757
 9395TIP3    H228150   4.342   3.266   1.863 -1.9021  1.9001 -0.3463
 9396TIP3   OH228151   2.273   2.689   2.757 -0.2630  0.0549 -0.0794
 9396TIP3    H128152   2.323   2.710   2.678 -0.5169 -1.9626 -0.8241
 9396TIP3    H228153   2.338   2.692   2.828  0.7038 -1.3217 -0.8532
 9397TIP3   OH228154   3.014   4.154   5.272  0.3947 -0.1516 -1.0560
 9397TIP3    H128155   2.942   4.141   5.210  0.1330  0.3118 -0.8520
 9397TIP3    H228156   2.970   4.167   5.357  0.7368 -0.3884 -0.8408
 9398TIP3   OH228157   0.535   3.878   2.329  0.4016  0.0255 -0.1909
 9398TIP3    H128158   0.493   3.948   2.279 -1.3560  1.4323  3.0129
 9398TIP3    H228159   0.627   3.902   2.331 -0.2297  2.5864  1.2174
 9399TIP3   OH228160   2.213   4.300   4.654  0.4908  0.8203 -0.0530
 9399TIP3    H128161   2.226   4.262   4.567 -0.0674  0.9342 -0.1874
 9399TIP3    H228162   2.289   4.271   4.704 -0.4398 -1.4035  0.1765
 9400TIP3   OH228163   3.809   2.006   2.956  0.1851  0.2313 -0.1072
 9400TIP3    H128164   3.766   2.003   3.041 -0.3112  0.3233 -0.3489
 9400TIP3    H228165   3.794   2.095   2.925 -1.8602 -0.4787 -1.3956
 9401TIP3   OH228166   4.658   2.314   2.854  0.1198  0.3870  0.3486
 9401TIP3    H128167   4.654   2.304   2.759  1.7049  0.9063  0.1866
 9401TIP3    H228168   4.745   2.281   2.878 -0.3082  0.1104  1.6492
 9402TIP3   OH228169   1.373   2.701   1.412 -0.2711 -0.8672  0.1191
 9402TIP3    H128170   1.404   2.615   1.382 -1.0501 -1.3735  0.7207
 9402TIP3    H228171   1.296   2.681   1.465  0.1851  0.1089  1.1965
 9403TIP3   OH228172   6.229   0.119   0.823 -0.0639  0.4292 -0.1247
 9403TIP3    H128173   6.184   0.088   0.743 -0.3697 -1.0805  0.5805
 9403TIP3    H228174   6.206   0.053   0.889  2.0227  0.3993  0.6432
 9404TIP3   OH228175   2.294   3.165   5.452  0.2340 -0.2765 -0.0285
 9404TIP3    H128176   2.248   3.090   5.489 -0.5389 -0.1052 -0.6164
 9404TIP3    H228177   2.283   3.235   5.515 -0.9794 -0.0170 -0.5073
 9405TIP3   OH228178   6.916   0.429   5.135  0.1801 -0.2659 -0.5713
 9405TIP3    H128179   7.008   0.443   5.113  0.5153  0.1074  0.9796
 9405TIP3    H228180   6.899   0.338   5.111  0.8295 -0.2206 -1.2377
 9406TIP3   OH228181   6.661   4.427   5.298  0.4175 -0.2469  0.6293
 9406TIP3    H128182   6.631   4.438   5.388  0.0183 -1.2208  0.6268
 9406TIP3    H228183   6.707   4.343   5.297  0.4100 -0.2528 -0.0735
 9407TIP3   OH228184   0.254   3.650   4.996 -0.0510  0.1047 -0.3453
 9407TIP3    H128185   0.198   3.726   5.007  1.9020  1.4264  1.0621
 9407TIP3    H228186   0.300   3.665   4.914  0.3949  0.4943 -0.0261
 9408TIP3   OH228187   0.246   0.142   2.278 -0.3604  0.0496  0.2222
 9408TIP3    H128188   0.254   0.065   2.335  0.5464 -0.5844 -0.7192
 9408TIP3    H228189   0.200   0.110   2.201  3.0825 -0.5543 -1.7832
 9409TIP3   OH228190   2.014   0.991   5.771 -0.2063 -0.4222  0.4944
 9409TIP3    H128191   2.047   0.902   5.755 -1.9630 -1.3056  1.4801
 9409TIP3    H228192   2.076   1.028   5.834 -0.1307 -1.4093  1.0264
 9410TIP3   OH228193   4.773   0.831   1.771  0.1672  0.5285 -0.0554
 9410TIP3    H128194   4.798   0.786   1.851 -0.3178 -0.5992 -0.5076
 9410TIP3    H228195   4.794   0.923   1.787  1.7676  0.0725  0.6695
 9411TIP3   OH228196   0.136   6.402   0.004 -0.0677 -0.3047  0.0930
 9411TIP3    H128197   0.172   6.491  -0.006  0.4224 -0.5364 -0.2742
 9411TIP3    H228198   0.213   6.346   0.013 -0.3870 -0.6579  0.6296
 9412TIP3   OH228199   6.323   4.743   1.319 -0.4142  0.0825 -0.1648
 9412TIP3    H128200   6.341   4.672   1.258  0.1975  0.2765 -0.2210
 9412TIP3    H228201   6.300   4.700   1.401 -1.3989 -0.1829 -0.5644
 9413TIP3   OH228202   2.517   6.566   4.689 -0.3519  0.0518 -0.3299
 9413TIP3    H128203   2.459   6.493   4.711 -1.5776  0.7054 -1.2042
 9413TIP3    H228204   2.568   6.581   4.768 -1.6475 -0.3419  0.6258
 9414TIP3   OH228205   3.585   5.597   2.365 -0.3703 -0.0004 -0.6647
 9414TIP3    H128206   3.578   5.587   2.270 -1.0046 -0.1953 -0.6007
 9414TIP3    H228207   3.641   5.524   2.392  1.7052  1.3566 -1.1362
 9415TIP3   OH228208   4.389   0.027   3.313 -0.3277  0.0370  0.1033
 9415TIP3    H128209   4.472   0.056   3.275 -0.1670  0.3591  0.6986
 9415TIP3    H228210   4.412  -0.046   3.370 -0.3869  0.4444  0.6543
 9416TIP3   OH228211   3.735   3.560   0.267 -0.4115 -0.1482 -0.1095
 9416TIP3    H128212   3.643   3.585   0.270 -0.0655  1.1255  0.8870
 9416TIP3    H228213   3.781   3.641   0.248  0.7246  0.0215  2.7617
 9417TIP3   OH228214   2.784   3.615   2.747  0.3068  0.0248  0.0670
 9417TIP3    H128215   2.840   3.537   2.753  1.5319  0.9497  1.3252
 9417TIP3    H228216   2.826   3.669   2.680  1.3480  1.0105  1.4684
 9418TIP3   OH228217   6.532   4.533   2.770 -0.2128  0.4861  0.5314
 9418TIP3    H128218   6.465   4.464   2.773  0.5745 -0.4020  4.8519
 9418TIP3    H228219   6.615   4.486   2.785  0.7525  2.0622  0.3286
 9419TIP3   OH228220   0.614   3.787   1.175  0.2053  0.3481 -0.0540
 9419TIP3    H128221   0.584   3.864   1.127 -0.0540  0.2574 -0.0399
 9419TIP3    H228222   0.579   3.799   1.263 -1.2532 -0.5780 -0.4656
 9420TIP3   OH228223   0.617   4.302   0.136 -0.0152  0.3501 -0.8548
 9420TIP3    H128224   0.528   4.322   0.163 -0.2599  1.0113 -2.0483
 9420TIP3    H228225   0.668   4.379   0.163 -0.3774  1.3036 -2.7073
 9421TIP3   OH228226   5.208   1.882   5.225  0.0316  0.2381 -0.0442
 9421TIP3    H128227   5.113   1.885   5.232 -0.0085  1.2563 -0.7424
 9421TIP3    H228228   5.225   1.847   5.138  0.3522 -1.6426  0.7117
 9422TIP3   OH228229   4.132   5.614  -0.006 -0.6263  0.0216  0.1679
 9422TIP3    H128230   4.219   5.654  -0.005 -1.3877  1.7587  0.1147
 9422TIP3    H228231   4.102   5.620   0.085 -0.2779 -1.6318  0.4359
 9423TIP3   OH228232   2.823   0.291   0.365  0.6833  0.4594 -0.2168
 9423TIP3    H128233   2.906   0.305   0.319  0.7929 -0.4739 -0.3225
 9423TIP3    H228234   2.819   0.360   0.430  0.2977  2.1437 -1.9431
 9424TIP3   OH228235   3.338   1.248   0.770  0.6369 -0.3015  0.0702
 9424TIP3    H128236   3.271   1.209   0.828 -0.3207 -1.5893 -1.7854
 9424TIP3    H228237   3.406   1.181   0.766  1.0198  0.0784  0.2325
 9425TIP3   OH228238   3.043   5.068   5.489  0.5196  0.2717  0.9756
 9425TIP3    H128239   3.126   5.112   5.470  1.0088  0.2106  2.8004
 9425TIP3    H228240   3.018   5.099   5.576 -1.6167  0.6095  0.3026
 9426TIP3   OH228241   2.988   6.771   0.263  0.0370 -0.2007  0.2094
 9426TIP3    H128242   3.024   6.759   0.175  1.6817  1.3608  0.6024
 9426TIP3    H228243   2.924   6.841   0.254 -0.0390 -0.2707  0.2018
 9427TIP3   OH228244   3.272   5.453   5.216 -0.0107  0.1124 -0.3563
 9427TIP3    H128245   3.355   5.495   5.239 -0.5602  1.6008 -0.9660
 9427TIP3    H228246   3.219   5.524   5.179 -1.0285 -1.1093 -1.3105
 9428TIP3   OH228247   1.805   4.770   5.425  0.4613  0.0737  0.1300
 9428TIP3    H128248   1.794   4.848   5.370  3.0718  0.6227  0.2296
 9428TIP3    H228249   1.769   4.698   5.373 -1.1581  1.1921 -0.3577
 9429TIP3   OH228250   3.170   6.671   4.911  0.1395 -0.1431  0.2550
 9429TIP3    H128251   3.133   6.669   4.823  0.9799  1.7599 -0.1929
 9429TIP3    H228252   3.121   6.739   4.956  0.5196 -0.2751  0.8788
 9430TIP3   OH228253   4.264   4.639   4.810  0.2092 -0.1212 -0.1927
 9430TIP3    H128254   4.285   4.713   4.753 -1.1045  0.0614 -0.4688
 9430TIP3    H228255   4.207   4.583   4.757 -1.7745  0.4850  1.1716
 9431TIP3   OH228256   1.693   1.403   5.525  0.1530 -0.1227 -0.4563
 9431TIP3    H128257   1.639   1.378   5.451 -0.7985 -0.8223  0.4528
 9431TIP3    H228258   1.764   1.339   5.526  0.1876 -0.0913 -0.7769
 9432TIP3   OH228259   7.138   2.131   2.773  0.8374  0.1725  0.4863
 9432TIP3    H128260   7.050   2.160   2.797  0.8275 -0.2368  0.9618
 9432TIP3    H228261   7.187   2.213   2.759  0.4903  0.4038  0.6097
 9433TIP3   OH228262   0.458   1.632   4.135 -0.0075 -0.3328 -0.3849
 9433TIP3    H128263   0.441   1.713   4.086 -2.1139 -0.2964  0.2703
 9433TIP3    H228264   0.478   1.662   4.223 -0.8091 -0.4906 -0.1366
 9434TIP3   OH228265   0.060   0.666   1.219 -0.0655  0.7395 -0.5689
 9434TIP3    H128266   0.098   0.710   1.295 -1.6965  3.3443 -1.1386
 9434TIP3    H228267  -0.018   0.621   1.253  0.8068 -0.5800 -0.2438
 9435TIP3   OH228268   3.103   4.151   4.947  0.0885  0.3525  0.1111
 9435TIP3    H128269   3.160   4.079   4.974  1.4399  0.4756 -2.1512
 9435TIP3    H228270   3.016   4.124   4.975  0.8502 -1.1584  1.2039
 9436TIP3   OH228271   4.221   5.465   0.571 -0.0643 -0.2543 -0.4310
 9436TIP3    H128272   4.178   5.530   0.626  0.9951 -0.1515  0.2979
 9436TIP3    H228273   4.250   5.514   0.494 -1.3300 -0.3526 -1.0017
 9437TIP3   OH228274   0.776   0.373   3.706 -0.2077 -0.0446  0.2051
 9437TIP3    H128275   0.863   0.337   3.691  0.0831  1.5137 -2.6802
 9437TIP3    H228276   0.716   0.305   3.675  0.0624 -0.3215  0.2839
 9438TIP3   OH228277   0.145   0.322   3.317  0.4423 -0.0176 -0.5947
 9438TIP3    H128278   0.055   0.336   3.287 -0.3940  0.7559  2.0068
 9438TIP3    H228279   0.137   0.257   3.386  1.1758  2.8660  2.4576
 9439TIP3   OH228280   1.733   4.403   0.524  0.3444 -0.2704  0.0700
 9439TIP3    H128281   1.806   4.391   0.585 -0.3194  0.3913  1.0419
 9439TIP3    H228282   1.676   4.328   0.541 -0.9572  1.0234  1.9777
 9440TIP3   OH228283   3.615   3.365   2.491 -0.6510  0.2471  0.2373
 9440TIP3    H128284   3.605   3.308   2.415  1.9347  1.3580 -1.0547
 9440TIP3    H228285   3.548   3.433   2.479 -1.4902 -0.5978 -0.0172
 9441TIP3   OH228286   2.596   5.555   3.228 -0.3141  0.3695  0.4004
 9441TIP3    H128287   2.550   5.629   3.266  1.5346  0.9047  1.7861
 9441TIP3    H228288   2.686   5.587   3.215 -0.0534 -0.9149 -1.1823
 9442TIP3   OH228289   0.063   4.179   2.522 -0.6420  0.6563 -0.5140
 9442TIP3    H128290  -0.007   4.241   2.538 -0.3843  0.8111  0.0321
 9442TIP3    H228291   0.050   4.110   2.587  1.0522  1.8328  1.1857
 9443TIP3   OH228292   1.361   2.908   1.638  0.5168 -0.0363 -0.3752
 9443TIP3    H128293   1.369   2.830   1.692 -1.7900  0.0975  0.2332
 9443TIP3    H228294   1.389   2.880   1.551  3.4544 -0.4840  0.5796
 9444TIP3   OH228295   0.401   0.962   2.508 -0.0332  0.3192 -0.5672
 9444TIP3    H128296   0.489   1.000   2.507  0.8359 -1.6015 -1.7482
 9444TIP3    H228297   0.343   1.038   2.504  1.5349  1.6499  0.6254
 9445TIP3   OH228298   0.282   3.876   2.885 -0.0047 -0.8743  0.3418
 9445TIP3    H128299   0.353   3.935   2.909 -1.5743  1.5904 -0.6386
 9445TIP3    H228300   0.226   3.872   2.962 -0.6879  0.2704 -0.0525
 9446TIP3   OH228301   3.823   1.019   0.241 -0.0373 -0.5511  0.3055
 9446TIP3    H128302   3.776   1.079   0.184  0.2292  0.8500  1.4946
 9446TIP3    H228303   3.762   0.948   0.257 -0.7933 -0.0333 -0.2311
 9447TIP3   OH228304   3.379   0.740   5.506  0.1177 -0.0139 -0.4801
 9447TIP3    H128305   3.291   0.704   5.515 -1.0864  2.7750  0.1067
 9447TIP3    H228306   3.412   0.744   5.596  1.3209 -1.9712 -0.7834
 9448TIP3   OH228307   6.126   2.079   5.251 -0.0870  0.0229  0.3494
 9448TIP3    H128308   6.112   2.150   5.314 -2.8773 -0.9268  0.9732
 9448TIP3    H228309   6.169   2.010   5.302 -1.3847 -0.3448  0.9933
 9449TIP3   OH228310   4.120   0.746   2.440  0.1842 -0.4667  0.2291
 9449TIP3    H128311   4.136   0.832   2.477 -0.8892 -0.5110  0.8323
 9449TIP3    H228312   4.048   0.759   2.378 -2.6330 -1.5112  3.0338
 9450TIP3   OH228313   5.012   0.076   3.197 -0.5028  0.0748  0.4327
 9450TIP3    H128314   4.943   0.115   3.143  0.5212  0.7064 -0.4469
 9450TIP3    H228315   5.068   0.030   3.135  0.2702  0.1621  1.0542
 9451TIP3   OH228316   1.364   0.815   0.343 -0.1993 -0.0165 -0.0228
 9451TIP3    H128317   1.269   0.827   0.347  0.0723  2.5134  0.3995
 9451TIP3    H228318   1.388   0.779   0.429 -0.4860  2.3093  1.1057
 9452TIP3   OH228319   6.100   5.372   0.993 -0.1091 -0.0672  0.4120
 9452TIP3    H128320   6.115   5.440   1.059  0.4604  0.5175 -0.3102
 9452TIP3    H228321   6.015   5.333   1.018  0.0680  0.1754  1.4468
 9453TIP3   OH228322   6.603   2.059   3.350  0.0197  0.1172  0.0997
 9453TIP3    H128323   6.583   2.097   3.436  0.0470  1.5935 -0.5200
 9453TIP3    H228324   6.626   2.134   3.295 -0.0324 -0.7978 -1.2187
 9454TIP3   OH228325   5.844   1.893   2.879  0.4953  0.2576 -0.4122
 9454TIP3    H128326   5.787   1.969   2.885  1.4816  0.9667  0.1932
 9454TIP3    H228327   5.902   1.899   2.955  1.0103 -0.7522 -0.6935
 9455TIP3   OH228328   6.354   4.524   4.834  0.4968  0.4833  0.2829
 9455TIP3    H128329   6.281   4.582   4.856 -0.2234 -0.4907  0.5145
 9455TIP3    H228330   6.384   4.490   4.918  0.0225 -0.5276  0.0500
 9456TIP3   OH228331   4.803   6.115   4.849 -0.0877  0.7070 -0.0727
 9456TIP3    H128332   4.762   6.060   4.782 -0.0682  1.0934 -0.4044
 9456TIP3    H228333   4.852   6.053   4.903 -1.6801  0.1374  0.7730
 9457TIP3   OH228334   1.553   5.911   5.138 -0.5782 -0.0105  0.3418
 9457TIP3    H128335   1.492   5.861   5.191  1.3019 -0.8534  1.8445
 9457TIP3    H228336   1.561   5.995   5.183 -0.9308  0.2566 -0.0873
 9458TIP3   OH228337   0.133   2.722   4.012 -0.6642 -0.3666 -0.1611
 9458TIP3    H128338   0.124   2.668   4.091  1.1289 -0.4718  0.0221
 9458TIP3    H228339   0.105   2.666   3.941 -0.8187 -0.8117  0.2461
 9459TIP3   OH228340   0.884   4.503   4.383 -0.2139  0.2468  0.1080
 9459TIP3    H128341   0.953   4.491   4.448  0.2062  0.0624 -0.3604
 9459TIP3    H228342   0.812   4.543   4.431  0.5111  1.1847  0.4357
 9460TIP3   OH228343   2.633   0.896   2.772 -0.3684 -0.2499  0.0606
 9460TIP3    H128344   2.719   0.891   2.730 -1.0263 -1.0640 -1.2645
 9460TIP3    H228345   2.636   0.831   2.842  0.3803  0.3637  0.6186
 9461TIP3   OH228346   1.952   3.605   1.464 -0.1929  0.7439  0.3635
 9461TIP3    H128347   1.863   3.614   1.431 -0.1399  1.3614  0.3811
 9461TIP3    H228348   1.964   3.510   1.475 -1.0231  0.6947  0.8763
 9462TIP3   OH228349   1.781   6.061   1.262  0.1172 -0.1298  0.3400
 9462TIP3    H128350   1.859   6.100   1.302 -1.1360  0.2761  2.5837
 9462TIP3    H228351   1.766   5.981   1.312  0.0534 -1.1464 -1.2335
 9463TIP3   OH228352   5.491   1.053   0.974  0.2729  0.1526 -0.3367
 9463TIP3    H128353   5.425   1.004   0.926  0.5688 -1.1166  0.5069
 9463TIP3    H228354   5.563   0.991   0.987 -0.1716  0.1023  2.5186
 9464TIP3   OH228355   2.326   3.356   1.356  0.0977  0.2223 -0.1537
 9464TIP3    H128356   2.377   3.425   1.399  0.1018 -0.1398  0.4327
 9464TIP3    H228357   2.324   3.382   1.264 -0.1475  1.1604  0.1055
 9465TIP3   OH228358   3.379   4.697   2.368 -0.1154 -0.1106  0.1314
 9465TIP3    H128359   3.355   4.786   2.395 -0.2441 -0.0858 -0.0651
 9465TIP3    H228360   3.382   4.648   2.450  1.4858  0.4158  0.4208
 9466TIP3   OH228361   3.508   1.571   0.955 -0.4493 -0.3341  0.1538
 9466TIP3    H128362   3.427   1.618   0.973 -0.5517  0.0092 -1.1370
 9466TIP3    H228363   3.500   1.489   1.004 -2.6732 -1.4115 -1.8305
 9467TIP3   OH228364   4.912   0.206   1.563 -0.0286 -0.5191 -0.5506
 9467TIP3    H128365   4.955   0.160   1.635  1.4249  0.1028 -0.9821
 9467TIP3    H228366   4.864   0.138   1.516 -1.0205 -0.9379  0.9829
 9468TIP3   OH228367   3.430   2.325   5.722  0.4845  0.1179  0.5067
 9468TIP3    H128368   3.384   2.405   5.695 -0.2654 -0.6085 -0.4778
 9468TIP3    H228369   3.375   2.288   5.791  0.0332 -0.3015 -0.0680
 9469TIP3   OH228370   1.527   0.161   4.869 -0.0786  0.3830 -0.1959
 9469TIP3    H128371   1.557   0.252   4.872  1.1744 -0.0203 -0.2131
 9469TIP3    H228372   1.467   0.154   4.944 -1.2129  1.5470 -0.9415
 9470TIP3   OH228373   3.807   4.111   3.030 -0.2073  0.1316  0.3751
 9470TIP3    H128374   3.770   4.133   3.116 -1.6061 -2.1724  0.4401
 9470TIP3    H228375   3.867   4.039   3.047  1.1637  1.0498 -0.3467
 9471TIP3   OH228376   0.821   4.235   0.434 -0.2346 -0.2541  0.0448
 9471TIP3    H128377   0.874   4.176   0.489  0.0928  0.4848  0.5461
 9471TIP3    H228378   0.733   4.227   0.469 -0.2783 -0.7670 -0.1698
 9472TIP3   OH228379   1.706   2.909   0.862 -0.1347  0.1151  0.0650
 9472TIP3    H128380   1.728   2.837   0.922 -0.3702  0.5460  0.6810
 9472TIP3    H228381   1.732   2.876   0.776  1.9489  0.1681  0.6001
 9473TIP3   OH228382   1.012   6.139   0.523 -0.0672  0.1215  0.1376
 9473TIP3    H128383   1.079   6.075   0.543 -0.4201 -0.5385 -0.7209
 9473TIP3    H228384   1.060   6.214   0.488  0.2009 -0.6280 -1.1753
 9474TIP3   OH228385   2.301   0.264   3.302  0.0917  0.3092 -0.2682
 9474TIP3    H128386   2.333   0.225   3.384  0.6073  0.4274 -0.4133
 9474TIP3    H228387   2.343   0.212   3.233 -1.0189 -0.3609 -0.4713
 9475TIP3   OH228388   3.003   0.111   2.791  0.5703 -0.4051  0.5989
 9475TIP3    H128389   3.040   0.103   2.703  0.7016 -0.4813  0.6619
 9475TIP3    H228390   2.991   0.021   2.821  0.0877 -0.3873  0.4757
 9476TIP3   OH228391   0.936   5.774   3.608  0.2382  0.4320  0.3265
 9476TIP3    H128392   0.988   5.815   3.539 -0.6895  2.5719  0.8224
 9476TIP3    H228393   1.000   5.751   3.676  0.9166  0.0311 -0.4381
 9477TIP3   OH228394   3.284   6.471   2.344 -0.5123 -0.0974  0.5687
 9477TIP3    H128395   3.251   6.406   2.282 -0.8541  0.7534 -0.1659
 9477TIP3    H228396   3.315   6.419   2.418 -1.7743 -1.0403  0.4812
 9478TIP3   OH228397   2.373   2.159   5.112  0.1708 -0.3034  0.4740
 9478TIP3    H128398   2.357   2.066   5.098 -1.3712  0.0964 -0.7343
 9478TIP3    H228399   2.343   2.201   5.031  2.5355  1.1094  0.2269
 9479TIP3   OH228400   4.384   6.675   3.180 -0.0651 -0.1679 -0.6869
 9479TIP3    H128401   4.472   6.704   3.205  0.1400 -1.8676  0.7636
 9479TIP3    H228402   4.388   6.666   3.085  1.6692 -1.1681 -0.5736
 9480TIP3   OH228403   3.900   2.695   0.150  0.2824  0.3068 -0.1206
 9480TIP3    H128404   3.884   2.716   0.242 -0.9000 -1.2363  0.0562
 9480TIP3    H228405   3.928   2.778   0.112 -1.1981  1.4768  1.1922
 9481TIP3   OH228406   3.201   0.464   2.118 -0.5289  0.4202 -0.2257
 9481TIP3    H128407   3.141   0.422   2.057 -0.1626 -2.0204  0.9719
 9481TIP3    H228408   3.145   0.506   2.183 -0.9574 -0.5854  0.0702
 9482TIP3   OH228409   0.461   1.521   3.658  0.1293 -0.2431  0.0810
 9482TIP3    H128410   0.486   1.507   3.567 -0.3158 -1.1511  0.0870
 9482TIP3    H228411   0.367   1.536   3.656 -0.4440 -3.1483  0.6137
 9483TIP3   OH228412   6.751   0.702   5.327  0.1606 -0.4328 -0.2703
 9483TIP3    H128413   6.837   0.664   5.348  0.4004 -0.3764 -1.0915
 9483TIP3    H228414   6.747   0.782   5.379  0.8040 -0.2112 -0.5456
 9484TIP3   OH228415   4.419   3.531   0.994 -0.6443 -0.1249 -0.1282
 9484TIP3    H128416   4.331   3.569   0.999 -0.8013 -0.5799  0.5731
 9484TIP3    H228417   4.411   3.445   1.034  0.1999 -0.0369  0.2513
 9485TIP3   OH228418   4.308   3.451   4.212  0.1258  0.2338  0.7315
 9485TIP3    H128419   4.280   3.520   4.152  1.2170  0.5119  0.5065
 9485TIP3    H228420   4.249   3.378   4.196 -1.2424  1.2071  1.1851
 9486TIP3   OH228421   6.863   2.073   4.579 -0.0987  0.0063  0.4166
 9486TIP3    H128422   6.846   2.047   4.669 -1.8987 -2.5212 -0.5236
 9486TIP3    H228423   6.941   2.022   4.553 -0.6051 -0.5986  0.0608
 9487TIP3   OH228424   2.217   2.649   3.577  0.5455  0.2274 -0.1251
 9487TIP3    H128425   2.148   2.685   3.521 -0.8760 -1.8906  0.1085
 9487TIP3    H228426   2.286   2.623   3.516 -0.9831 -2.0578 -1.0185
 9488TIP3   OH228427   0.742   1.620   4.608  0.0223 -0.3733  0.4115
 9488TIP3    H128428   0.709   1.707   4.585  0.8585 -0.1601 -0.0444
 9488TIP3    H228429   0.837   1.631   4.610  0.0760 -0.7573  2.5274
 9489TIP3   OH228430   6.905   4.002   2.014 -0.3852 -0.0380  0.4268
 9489TIP3    H128431   6.962   3.938   2.057 -1.2430 -1.0774  0.0670
 9489TIP3    H228432   6.818   3.960   2.014 -0.1792 -0.9104 -3.7903
 9490TIP3   OH228433   4.963   1.474   4.023  0.5798  0.2886  0.0157
 9490TIP3    H128434   4.917   1.545   3.979  0.5866  1.3002  1.5830
 9490TIP3    H228435   4.894   1.411   4.045  0.3355  0.5549  0.0200
 9491TIP3   OH228436   2.012   3.928   4.618 -0.0124  0.7064  0.3702
 9491TIP3    H128437   1.971   3.900   4.700  0.1219  0.9035  0.5053
 9491TIP3    H228438   1.948   3.987   4.578  0.1022  0.9494  0.5414
 9492TIP3   OH228439   5.037   6.620   1.094  0.4123 -0.0237  0.0014
 9492TIP3    H128440   4.963   6.679   1.080 -0.5632 -1.0810  0.5519
 9492TIP3    H228441   5.088   6.625   1.013  0.4830  1.7251  0.1155
 9493TIP3   OH228442   1.575   4.679   2.128  0.0719  0.0632  0.8958
 9493TIP3    H128443   1.519   4.608   2.097  0.4683  0.1578 -0.0814
 9493TIP3    H228444   1.566   4.747   2.062  1.5761 -0.0526  0.5263
 9494TIP3   OH228445   5.974   1.886   1.850 -0.0894  0.1301  0.1497
 9494TIP3    H128446   5.916   1.847   1.785 -0.1665  0.3855  0.0625
 9494TIP3    H228447   6.057   1.839   1.841  0.2359  0.8683 -0.8621
 9495TIP3   OH228448   3.978   2.188   0.582  0.1311  0.8207 -0.0015
 9495TIP3    H128449   3.886   2.166   0.591  0.0694 -1.0099 -3.5102
 9495TIP3    H228450   3.992   2.260   0.644 -3.3965  0.6375  1.1991
 9496TIP3   OH228451   6.986   5.303   2.380 -0.1408 -0.4793  0.5306
 9496TIP3    H128452   6.998   5.388   2.422 -0.1037  0.4496 -1.2995
 9496TIP3    H228453   7.068   5.257   2.395  0.4077  0.3847  0.2399
 9497TIP3   OH228454   4.936   5.150   4.767  0.0556  0.1383  0.0156
 9497TIP3    H128455   5.003   5.216   4.783  0.2513 -0.1856  0.5427
 9497TIP3    H228456   4.879   5.153   4.844  0.1292 -0.3830  0.0952
 9498TIP3   OH228457   5.255   3.343   4.931 -0.1298  0.3496 -0.4344
 9498TIP3    H128458   5.212   3.265   4.968  0.2964 -0.5151 -1.7043
 9498TIP3    H228459   5.342   3.342   4.969 -0.1614  0.2703 -0.3618
 9499TIP3   OH228460   5.359   2.160   1.443 -0.2909 -0.3851 -0.2301
 9499TIP3    H128461   5.380   2.087   1.384 -2.9281  0.2633 -2.1824
 9499TIP3    H228462   5.313   2.223   1.387 -1.5290  1.0313  2.2353
 9500TIP3   OH228463   7.060   6.173   3.324  0.5090 -0.0510  0.1083
 9500TIP3    H128464   7.086   6.236   3.391  0.5747 -0.4623  0.4735
 9500TIP3    H228465   7.037   6.227   3.248 -1.3148  0.5506  1.0180
 9501TIP3   OH228466   1.992   0.585   0.352  0.1771 -0.4925  0.3665
 9501TIP3    H128467   2.032   0.595   0.439 -0.1534  0.6517  0.4125
 9501TIP3    H228468   1.914   0.531   0.368  1.1385 -1.9014  0.4396
 9502TIP3   OH228469   3.045   4.423   1.861  0.4331 -0.1847  0.3963
 9502TIP3    H128470   2.953   4.407   1.843  0.9456 -0.0059 -2.8967
 9502TIP3    H228471   3.075   4.341   1.901 -1.1909 -0.0668  1.9848
 9503TIP3   OH228472   5.527   2.636   3.151  0.5704 -0.2071  0.0578
 9503TIP3    H128473   5.451   2.608   3.100 -0.4395  0.9276  0.8967
 9503TIP3    H228474   5.555   2.718   3.110  0.8585 -0.2123  0.2386
 9504TIP3   OH228475   7.031   4.675   2.944  0.3723 -0.2637 -0.2697
 9504TIP3    H128476   7.010   4.699   2.853  2.3445  1.0145 -0.4460
 9504TIP3    H228477   7.026   4.579   2.944  1.8498 -0.4089 -2.1764
 9505TIP3   OH228478   3.736   0.551   4.455  0.1115 -0.2908  0.6466
 9505TIP3    H128479   3.798   0.620   4.432  1.2024 -1.9854 -2.0941
 9505TIP3    H228480   3.669   0.554   4.387 -1.1373 -0.4638  1.8238
 9506TIP3   OH228481   1.198   5.063   1.266 -0.5432  0.3886  0.6122
 9506TIP3    H128482   1.223   5.101   1.182  1.4552 -0.4900  0.7567
 9506TIP3    H228483   1.248   5.113   1.331  2.6685 -2.6291  0.7621
 9507TIP3   OH228484   3.850   1.245   5.343 -0.0390 -0.1705 -0.3002
 9507TIP3    H128485   3.852   1.283   5.256  0.7941  0.1100 -0.1713
 9507TIP3    H228486   3.764   1.203   5.350  0.0520 -0.5622 -1.4114
 9508TIP3   OH228487   2.715   3.055   0.816 -0.2410  0.3240  0.5199
 9508TIP3    H128488   2.646   3.122   0.810 -0.7274  0.0266  2.2160
 9508TIP3    H228489   2.763   3.077   0.896 -0.7325 -1.5943  1.4108
 9509TIP3   OH228490   0.265   1.894   4.436  0.3024 -0.5353 -0.4325
 9509TIP3    H128491   0.283   1.908   4.343  0.3818 -0.9002 -0.4710
 9509TIP3    H228492   0.231   1.978   4.466 -1.4539 -0.9302 -1.2069
 9510TIP3   OH228493   2.116   2.262   1.255  0.0080 -0.3424 -0.4574
 9510TIP3    H128494   2.191   2.320   1.245  1.6450 -2.1192  0.9064
 9510TIP3    H228495   2.144   2.179   1.217 -0.7766 -1.4019  1.1491
 9511TIP3   OH228496   3.412   2.709   0.582 -0.0091  0.5862 -0.6018
 9511TIP3    H128497   3.349   2.638   0.595  0.3486 -0.1403 -2.4221
 9511TIP3    H228498   3.451   2.723   0.668 -1.5710  0.0139  0.2362
 9512TIP3   OH228499   3.998   0.557   3.830 -0.2374 -0.2326 -0.1896
 9512TIP3    H128500   3.948   0.499   3.887  0.2457  0.5411  1.0703
 9512TIP3    H228501   4.064   0.596   3.887  0.1937  0.6749 -1.2543
 9513TIP3   OH228502   2.001   1.368   0.574 -0.3175  0.5975  0.2611
 9513TIP3    H128503   2.017   1.374   0.480 -3.3047  0.4958 -0.3630
 9513TIP3    H228504   2.005   1.274   0.594  0.5041  0.6356  0.2872
 9514TIP3   OH228505   0.674   2.926   1.000 -0.2717 -0.1524 -0.2629
 9514TIP3    H128506   0.753   2.970   0.967  0.5030 -0.5272  1.0052
 9514TIP3    H228507   0.672   2.843   0.952  1.3281 -1.0718  1.1284
 9515TIP3   OH228508   5.482   6.350   0.380  0.0171  0.2844 -0.5341
 9515TIP3    H128509   5.524   6.339   0.466 -0.3243  0.7250 -0.3056
 9515TIP3    H228510   5.533   6.295   0.321  0.2987  0.0313 -0.0596
 9516TIP3   OH228511   6.900   2.434   2.615 -0.4727  0.4272  0.0606
 9516TIP3    H128512   6.994   2.452   2.608 -0.0572 -0.9709  1.4491
 9516TIP3    H228513   6.895   2.359   2.674 -2.3701 -0.5881 -1.3040
 9517TIP3   OH228514   4.058   3.507   3.946 -0.2948  0.4020 -0.1425
 9517TIP3    H128515   4.101   3.439   3.893  1.5502  0.9148  0.6208
 9517TIP3    H228516   4.130   3.560   3.980 -1.3882  0.1497  2.8156
 9518TIP3   OH228517   3.287   3.747   3.094 -0.0858  0.0847  0.0709
 9518TIP3    H128518   3.367   3.736   3.145  0.2556 -0.1348 -0.4999
 9518TIP3    H228519   3.253   3.658   3.083  0.1207  0.0731 -0.5139
 9519TIP3   OH228520   0.666   5.309   1.909  0.5440  0.0765  0.1777
 9519TIP3    H128521   0.630   5.376   1.967 -3.5031 -0.4178 -1.4483
 9519TIP3    H228522   0.725   5.358   1.850 -1.3159  2.0729 -0.1731
 9520TIP3   OH228523   6.264   5.883   3.751  0.1140  0.5079 -0.6119
 9520TIP3    H128524   6.331   5.898   3.817  0.8849 -1.0958 -0.9695
 9520TIP3    H228525   6.232   5.970   3.728  1.4794  1.2470  0.1858
 9521TIP3   OH228526   6.689   2.451   0.505  0.0823 -0.0175 -0.2928
 9521TIP3    H128527   6.625   2.465   0.576  1.6063  0.5260  1.0286
 9521TIP3    H228528   6.649   2.383   0.451 -1.2298 -0.3278  0.9751
 9522TIP3   OH228529   6.960   5.164   1.002  0.5571  0.2864 -0.5456
 9522TIP3    H128530   6.871   5.155   1.036  0.8810  0.5593  0.4090
 9522TIP3    H228531   6.951   5.222   0.925  0.0825  1.4552  0.3572
 9523TIP3   OH228532   2.436   5.189   2.873  0.3933 -0.4932 -0.3917
 9523TIP3    H128533   2.515   5.236   2.899  1.3727 -0.9092 -2.4301
 9523TIP3    H228534   2.424   5.210   2.781 -1.1086 -1.5447 -0.4789
 9524TIP3   OH228535   5.064   6.005   3.752 -0.2251  0.1257 -0.0767
 9524TIP3    H128536   5.019   5.972   3.830  0.7985 -0.1221  0.4302
 9524TIP3    H228537   5.063   6.100   3.763 -0.3065  0.1042  0.1105
 9525TIP3   OH228538   5.976   2.239   2.135  0.3735 -0.0284  0.2329
 9525TIP3    H128539   5.905   2.238   2.199  0.0458 -3.9863  0.0950
 9525TIP3    H228540   5.974   2.327   2.097 -2.8959  0.7559  1.8765
 9526TIP3   OH228541   1.364   6.264   0.221 -0.7270 -0.8463  0.1779
 9526TIP3    H128542   1.397   6.194   0.279 -0.0574 -0.0807  0.7422
 9526TIP3    H228543   1.271   6.270   0.242 -0.5040 -0.6205  1.1433
 9527TIP3   OH228544   5.145   4.360   4.255 -0.5332  0.8722 -0.1532
 9527TIP3    H128545   5.091   4.376   4.178 -0.1559  1.8036 -0.2382
 9527TIP3    H228546   5.235   4.371   4.224 -0.1027 -2.5202 -0.4862
 9528TIP3   OH228547   2.110   2.624   0.700  0.3855  0.6278 -0.0174
 9528TIP3    H128548   2.137   2.641   0.610  0.8146 -0.1090 -0.0329
 9528TIP3    H228549   2.016   2.641   0.700  0.0876 -0.7930 -0.9854
 9529TIP3   OH228550   1.319   0.942   1.466  0.4311  0.5010  0.2844
 9529TIP3    H128551   1.258   0.878   1.502 -0.0870  0.5431 -0.4774
 9529TIP3    H228552   1.397   0.891   1.444 -0.1233  0.0359 -0.6879
 9530TIP3   OH228553   2.965   4.096   2.114 -0.1683  0.5478 -0.5168
 9530TIP3    H128554   3.049   4.135   2.090  0.3248  0.2938  0.7147
 9530TIP3    H228555   2.901   4.139   2.057  0.9310 -0.1408 -2.3413
 9531TIP3   OH228556   4.699   0.793   1.502  0.1194 -0.2258  0.4093
 9531TIP3    H128557   4.607   0.818   1.499 -0.4482 -1.6294  2.8798
 9531TIP3    H228558   4.727   0.814   1.591  1.8835 -0.7867  0.0304
 9532TIP3   OH228559   4.503   6.604   5.861  0.0359 -0.0676 -0.9568
 9532TIP3    H128560   4.506   6.688   5.815 -2.7272  1.4732  1.3115
 9532TIP3    H228561   4.416   6.569   5.842  0.7179 -1.9032 -0.9160
 9533TIP3   OH228562   3.871   5.787   2.698 -0.1560  0.6853  0.2384
 9533TIP3    H128563   3.889   5.858   2.759 -0.2661  1.4046 -0.5438
 9533TIP3    H228564   3.938   5.721   2.718  1.6348  2.0997 -0.7159
 9534TIP3   OH228565   6.949   5.780   3.538 -0.7909  0.0498 -0.6294
 9534TIP3    H128566   6.882   5.713   3.546 -0.4124 -0.3907 -1.0851
 9534TIP3    H228567   7.018   5.752   3.599 -0.8952  0.3569 -0.3636
 9535TIP3   OH228568   3.925   0.855   5.021  0.3285 -0.2039 -0.7659
 9535TIP3    H128569   3.987   0.788   5.050 -0.2859 -0.2713  0.4246
 9535TIP3    H228570   3.981   0.927   4.990  1.1307  0.6126  2.2264
 9536TIP3   OH228571   6.786   6.763   4.252  0.0932 -0.2238 -0.2036
 9536TIP3    H128572   6.831   6.732   4.174  1.0584 -1.6716  0.8678
 9536TIP3    H228573   6.756   6.683   4.295 -2.2890  0.6240 -0.1232
 9537TIP3   OH228574   5.888   1.082   2.098 -0.0987 -0.0515 -0.1722
 9537TIP3    H128575   5.947   1.040   2.035  2.2647 -0.5300  2.1655
 9537TIP3    H228576   5.924   1.170   2.110 -0.7742  0.1819  0.1670
 9538TIP3   OH228577   7.129   3.337   0.628 -0.6927  0.3868  0.0262
 9538TIP3    H128578   7.145   3.429   0.650  0.4182  0.2349 -0.0622
 9538TIP3    H228579   7.162   3.327   0.539  0.3374 -0.3625  0.4627
 9539TIP3   OH228580   0.226   3.269   2.441 -0.3121 -0.0989 -0.3057
 9539TIP3    H128581   0.294   3.336   2.454 -1.2163  1.1211 -1.5558
 9539TIP3    H228582   0.219   3.261   2.346 -2.6493  0.6334 -0.2593
 9540TIP3   OH228583   6.610   3.074   4.619 -0.6438  0.6099 -1.1923
 9540TIP3    H128584   6.619   3.109   4.708 -0.2530 -0.4207 -0.8029
 9540TIP3    H228585   6.560   2.993   4.631  0.0604  0.0710 -1.8003
 9541TIP3   OH228586   2.047   2.200   5.627  0.2144 -0.2333  0.4668
 9541TIP3    H128587   2.121   2.185   5.567  0.5938 -0.2772  0.9358
 9541TIP3    H228588   2.017   2.289   5.606  0.7218 -0.0223  0.6036
 9542TIP3   OH228589   6.922   6.514   1.480 -0.6219  0.2793  0.6056
 9542TIP3    H128590   6.978   6.497   1.555 -2.0722 -0.4668  1.5760
 9542TIP3    H228591   6.843   6.463   1.497 -0.7066 -0.5435 -1.8212
 9543TIP3   OH228592   2.358   5.458   0.590  0.6121  0.1439 -0.0196
 9543TIP3    H128593   2.402   5.398   0.531 -0.0851 -3.7713  3.0270
 9543TIP3    H228594   2.272   5.473   0.551  1.3804  0.5766 -1.6138
 9544TIP3   OH228595   0.365   5.395   0.086  1.0180  0.0029 -1.0123
 9544TIP3    H128596   0.326   5.439   0.162 -0.5330 -1.4578 -0.8851
 9544TIP3    H228597   0.375   5.464   0.020  0.5995  0.9267 -0.1312
 9545TIP3   OH228598   0.071   0.967   1.924  0.1241  0.1750  0.0943
 9545TIP3    H128599   0.154   0.962   1.972  0.3596 -0.6728 -0.3750
 9545TIP3    H228600   0.031   0.880   1.936 -1.4789  1.0715  1.6600
 9546TIP3   OH228601   0.421   6.487   3.007 -0.1146  0.2916  0.7619
 9546TIP3    H128602   0.395   6.412   3.060 -0.9722  0.6113  0.8230
 9546TIP3    H228603   0.351   6.496   2.942  0.9074 -0.0839 -0.4447
 9547TIP3   OH228604   3.936   3.626   2.621 -0.2733  0.1842 -0.6087
 9547TIP3    H128605   3.901   3.671   2.697 -1.2296 -1.7579  0.1505
 9547TIP3    H228606   3.979   3.695   2.571 -0.4883  1.6859  1.1630
 9548TIP3   OH228607   3.937   6.472   5.310 -0.0515  0.2680  0.1593
 9548TIP3    H128608   3.863   6.420   5.278 -0.0384  0.0236  0.5257
 9548TIP3    H228609   4.009   6.450   5.250  0.6561 -2.0260  1.7238
 9549TIP3   OH228610   7.177   5.980   1.614  0.0486 -0.5784  0.1177
 9549TIP3    H128611   7.194   6.003   1.706 -1.8233 -0.6994  0.5243
 9549TIP3    H228612   7.138   5.893   1.617 -0.7524 -0.2677 -0.7178
 9550TIP3   OH228613   0.775   0.380   1.712  0.0749  0.3964 -0.6669
 9550TIP3    H128614   0.684   0.401   1.691 -0.7365 -2.2538 -0.2167
 9550TIP3    H228615   0.787   0.412   1.802 -0.4242  0.7569 -0.7240
 9551TIP3   OH228616   2.412   1.467   2.294 -0.2127  0.3365 -0.5961
 9551TIP3    H128617   2.460   1.511   2.224 -1.0270  0.6260 -0.9849
 9551TIP3    H228618   2.464   1.389   2.313  0.9233  1.1183 -0.3337
 9552TIP3   OH228619   4.182   3.019   3.872  0.4598 -0.4876 -0.1888
 9552TIP3    H128620   4.194   2.939   3.820 -0.8831 -1.4463  0.8775
 9552TIP3    H228621   4.087   3.029   3.878  0.6064  1.0531 -0.0529
 9553TIP3   OH228622   2.860   5.938   3.992  0.1826  0.1960 -0.6382
 9553TIP3    H128623   2.881   6.030   3.979 -1.4814  0.7172  0.1211
 9553TIP3    H228624   2.767   5.931   3.969 -0.1508 -0.9387  0.8970
 9554TIP3   OH228625   5.013   5.785   1.847  0.1929  0.1069 -0.0203
 9554TIP3    H128626   4.922   5.772   1.823  0.3740 -0.8133 -0.2493
 9554TIP3    H228627   5.052   5.697   1.845  1.5295  0.6766 -1.8135
 9555TIP3   OH228628   6.573   2.659   1.108  0.3827  0.0096 -0.3691
 9555TIP3    H128629   6.511   2.607   1.055 -1.0711  3.0559 -1.9304
 9555TIP3    H228630   6.648   2.672   1.050  0.6199 -0.1101 -0.0876
 9556TIP3   OH228631   4.323   4.587   5.811 -0.2516  0.0071 -0.4554
 9556TIP3    H128632   4.379   4.510   5.821 -0.4557 -0.1079 -0.1965
 9556TIP3    H228633   4.380   4.653   5.773 -0.0306 -0.2203 -0.5229
 9557TIP3   OH228634   6.298   2.415   3.759  0.7684  0.4588  0.3732
 9557TIP3    H128635   6.212   2.458   3.756  0.2455 -0.5594  0.3146
 9557TIP3    H228636   6.348   2.458   3.690  0.0618  0.5713 -0.0834
 9558TIP3   OH228637   4.957   5.935   4.986 -0.0132  0.3128 -0.0973
 9558TIP3    H128638   4.922   5.846   4.980  1.2355 -0.1049 -2.1345
 9558TIP3    H228639   4.984   5.944   5.077 -0.2542 -1.3628  0.1693
 9559TIP3   OH228640   3.714   5.708   4.198  0.0109  0.0772  0.0734
 9559TIP3    H128641   3.634   5.718   4.251 -1.3162 -1.9634 -1.3771
 9559TIP3    H228642   3.714   5.784   4.141  0.2934  1.1963  1.5215
 9560TIP3   OH228643   6.290   0.545   3.292 -0.3638  0.3031  0.3300
 9560TIP3    H128644   6.385   0.556   3.298 -0.0995 -0.5311 -1.4657
 9560TIP3    H228645   6.277   0.499   3.209 -2.2864 -0.4213  0.9769
 9561TIP3   OH228646   0.877   2.702   0.525 -0.2481  0.4722  0.1979
 9561TIP3    H128647   0.936   2.627   0.528 -1.7674 -0.8393 -0.8688
 9561TIP3    H228648   0.869   2.722   0.432 -0.3895  1.5347  0.4311
 9562TIP3   OH228649   0.544   5.650   0.602 -0.0009  0.1324  0.5329
 9562TIP3    H128650   0.623   5.608   0.638  0.3823 -0.8395 -1.3236
 9562TIP3    H228651   0.472   5.597   0.637  0.3285 -0.5308  0.2309
 9563TIP3   OH228652   1.845   1.214   3.672  0.5910  0.7660 -0.0164
 9563TIP3    H128653   1.756   1.211   3.708  1.0757  0.6842  1.2517
 9563TIP3    H228654   1.866   1.307   3.669 -0.3227  0.9608 -2.4640
 9564TIP3   OH228655   4.621   5.590   3.071  0.6661 -0.5342 -0.0128
 9564TIP3    H128656   4.632   5.680   3.043  1.8895 -0.4925  0.5403
 9564TIP3    H228657   4.705   5.548   3.053  1.1864 -0.7716  2.4843
 9565TIP3   OH228658   1.663   1.216   1.895  0.6816 -0.2467  0.2560
 9565TIP3    H128659   1.645   1.167   1.814  1.2999 -2.3309  1.3039
 9565TIP3    H228660   1.585   1.268   1.909  0.2360 -0.4524 -1.2615
 9566TIP3   OH228661   0.914   1.811   2.546 -0.1047 -0.0925  0.2057
 9566TIP3    H128662   0.948   1.749   2.612  0.8205 -1.1074 -1.1528
 9566TIP3    H228663   0.872   1.755   2.481  0.5779  0.7272 -0.9608
 9567TIP3   OH228664   2.393   1.015   5.198  0.6896  0.0851 -0.2889
 9567TIP3    H128665   2.483   1.001   5.229  0.7791  0.6555 -0.2870
 9567TIP3    H228666   2.343   0.942   5.235  1.0988 -0.0849 -0.0669
 9568TIP3   OH228667   2.255   1.940   4.432  0.6671 -0.5080  0.0055
 9568TIP3    H128668   2.289   2.030   4.430 -0.4371 -0.0582  0.7540
 9568TIP3    H228669   2.314   1.892   4.373  1.2699  0.6987 -0.4306
 9569TIP3   OH228670   5.588   4.449   2.208  0.4355 -0.0391 -0.9756
 9569TIP3    H128671   5.501   4.418   2.235  1.1935 -0.3842  1.2096
 9569TIP3    H228672   5.584   4.544   2.217  0.0764  0.0184 -1.6252
 9570TIP3   OH228673   6.058   4.875   1.608  0.0457  0.0469 -0.0616
 9570TIP3    H128674   6.100   4.913   1.531  0.5021 -0.7708 -0.2292
 9570TIP3    H228675   6.097   4.922   1.682  1.1313 -0.5563 -0.2242
 9571TIP3   OH228676   0.688   5.295   1.169 -0.1672 -0.6926 -0.3366
 9571TIP3    H128677   0.764   5.299   1.110  0.0041  3.9550 -0.2258
 9571TIP3    H228678   0.619   5.340   1.121 -1.5240 -1.0774  1.1983
 9572TIP3   OH228679   1.414   5.990   0.418  0.3280 -0.5127 -0.0013
 9572TIP3    H128680   1.494   6.027   0.456 -1.0649  2.4973  0.2963
 9572TIP3    H228681   1.356   5.975   0.492  0.0783 -1.2927 -0.3432
 9573TIP3   OH228682   5.772   3.977   4.898 -0.2206  0.0886 -0.0411
 9573TIP3    H128683   5.686   3.951   4.931 -1.2069  0.0646 -2.4314
 9573TIP3    H228684   5.831   3.907   4.925 -1.2370 -0.5993  0.4384
 9574TIP3   OH228685   5.326   5.532   4.880 -0.8024 -0.7341  0.1740
 9574TIP3    H128686   5.392   5.538   4.811 -0.2429 -1.2331  0.6570
 9574TIP3    H228687   5.301   5.623   4.898 -1.3532 -0.6213 -1.0525
 9575TIP3   OH228688   2.271   0.332   1.040  1.0217 -0.0312 -0.2386
 9575TIP3    H128689   2.214   0.378   1.101  0.3036  0.4773 -1.2516
 9575TIP3    H228690   2.211   0.282   0.984  1.6163 -0.1255 -0.8057
 9576TIP3   OH228691   1.009   5.559   1.433 -0.5313 -0.2516 -0.1819
 9576TIP3    H128692   1.071   5.563   1.506 -1.1277 -1.5557  0.4490
 9576TIP3    H228693   1.056   5.511   1.365  1.4019  4.0311 -2.2161
 9577TIP3   OH228694   3.354   1.798   0.672 -0.1157 -0.2742 -0.0818
 9577TIP3    H128695   3.267   1.817   0.708 -0.1191 -2.1796  1.0388
 9577TIP3    H228696   3.336   1.762   0.585 -0.4881 -0.9212  0.2530
 9578TIP3   OH228697   2.811   1.069   0.067 -0.2566  0.0992  0.8114
 9578TIP3    H128698   2.766   1.130   0.008  0.9014  0.1115 -0.1081
 9578TIP3    H228699   2.886   1.117   0.099 -1.1889  0.2871  2.8288
 9579TIP3   OH228700   3.747   4.811   0.939 -0.4601 -0.2741 -0.5740
 9579TIP3    H128701   3.693   4.771   0.871  0.2342 -1.0067 -0.7184
 9579TIP3    H228702   3.738   4.752   1.014 -0.4405 -0.0034 -0.3574
 9580TIP3   OH228703   1.746   1.594   0.004  0.3590  0.0997 -0.4224
 9580TIP3    H128704   1.788   1.677   0.026  0.6654 -0.5525  1.7047
 9580TIP3    H228705   1.779   1.532   0.069 -2.3710 -0.9087  0.1552
 9581TIP3   OH228706   6.272   0.972   5.658  0.5209 -0.0314 -0.1229
 9581TIP3    H128707   6.261   0.878   5.671 -1.7636 -0.0550 -1.5684
 9581TIP3    H228708   6.222   1.012   5.729  0.2515  0.0414 -0.3488
 9582TIP3   OH228709   2.156   0.375   1.562 -0.2280  0.2471 -0.4534
 9582TIP3    H128710   2.200   0.290   1.560 -0.6752  0.0292 -1.5181
 9582TIP3    H228711   2.064   0.354   1.575 -0.2839  0.5982 -0.2835
 9583TIP3   OH228712   4.858   4.152   1.192  0.4315 -0.6244  0.8127
 9583TIP3    H128713   4.905   4.114   1.266  0.8874 -2.6987 -0.4778
 9583TIP3    H228714   4.904   4.234   1.174  0.5461 -0.2753  2.5469
 9584TIP3   OH228715   1.006   1.651   2.767 -0.7037 -0.1473 -0.2208
 9584TIP3    H128716   1.096   1.680   2.782 -1.1350  0.5500  1.3160
 9584TIP3    H228717   0.976   1.622   2.854 -1.4566 -1.9036 -1.0141
 9585TIP3   OH228718   0.502   4.225   3.170 -0.3243 -0.3380 -0.7355
 9585TIP3    H128719   0.487   4.275   3.250 -1.9630  0.6618 -1.6029
 9585TIP3    H228720   0.597   4.216   3.165 -0.1695 -0.2805  1.2120
 9586TIP3   OH228721   0.057   5.676   5.104 -0.5313  0.0796 -0.0656
 9586TIP3    H128722   0.089   5.589   5.081 -0.3121 -1.0207  3.6584
 9586TIP3    H228723  -0.038   5.667   5.107 -0.5185 -0.0157  0.1200
 9587TIP3   OH228724   0.327   5.138   0.263  0.2254  0.3074  0.1401
 9587TIP3    H128725   0.420   5.154   0.248 -0.2622  2.2130 -1.1132
 9587TIP3    H228726   0.315   5.155   0.356  1.2435 -0.7617  0.5026
 9588TIP3   OH228727   6.255   5.550   3.308  0.4493  0.5611 -0.4647
 9588TIP3    H128728   6.174   5.543   3.258  0.1269  0.5484  0.0559
 9588TIP3    H228729   6.323   5.565   3.242  0.1862 -0.5170 -1.0023
 9589TIP3   OH228730   1.691   2.270   3.264  0.1819 -0.3369  0.4011
 9589TIP3    H128731   1.737   2.205   3.211  2.1226  0.7298  0.7227
 9589TIP3    H228732   1.674   2.343   3.205  2.3654  0.8647  1.1533
 9590TIP3   OH228733   1.868   4.443   4.457 -0.2517 -0.4086 -0.0116
 9590TIP3    H128734   1.781   4.470   4.485  0.5284  0.4437  1.7647
 9590TIP3    H228735   1.863   4.440   4.362 -2.4459 -1.2463  0.0816
 9591TIP3   OH228736   2.791   2.197   1.080 -0.1122  0.3807 -0.0712
 9591TIP3    H128737   2.744   2.176   0.999  1.9184  1.4598 -1.6118
 9591TIP3    H228738   2.731   2.254   1.128 -1.4231 -0.4102 -0.7030
 9592TIP3   OH228739   7.138   4.146   1.536  0.1807  0.1883  0.5703
 9592TIP3    H128740   7.125   4.118   1.627 -1.8059 -1.3802 -0.1221
 9592TIP3    H228741   7.161   4.066   1.490  1.0513  0.9532 -0.3649
 9593TIP3   OH228742   5.099   1.704   4.540  0.0009 -0.1101  0.3627
 9593TIP3    H128743   5.190   1.681   4.521  0.1271  1.3247 -1.0129
 9593TIP3    H228744   5.106   1.772   4.607  0.0720  1.0077 -0.7303
 9594TIP3   OH228745   6.975   4.902   2.739  0.0130  0.6263  0.2849
 9594TIP3    H128746   6.938   4.916   2.826 -0.1788  0.0868  0.2949
 9594TIP3    H228747   6.901   4.912   2.680  0.1350  0.9479  0.1871
 9595TIP3   OH228748   3.531   1.461   0.220 -0.0712 -0.5476 -0.2510
 9595TIP3    H128749   3.491   1.426   0.300  0.9842 -1.1914  0.0151
 9595TIP3    H228750   3.592   1.527   0.251  0.7054 -1.1473 -0.4847
 9596TIP3   OH228751   5.124   0.604   3.488  0.1295 -0.1122  0.5080
 9596TIP3    H128752   5.032   0.588   3.468  0.1172  0.8573 -0.3278
 9596TIP3    H228753   5.172   0.541   3.434 -0.0151  0.2229 -0.0184
 9597TIP3   OH228754   5.486   0.067   2.610  0.3441  0.1047  0.8332
 9597TIP3    H128755   5.468  -0.025   2.630  0.3050  0.0835  0.7027
 9597TIP3    H228756   5.417   0.092   2.548  0.1044  0.3443  1.1947
 9598TIP3   OH228757   1.715   2.973   2.783 -0.4223 -0.7973 -0.1302
 9598TIP3    H128758   1.807   2.975   2.755 -0.0943 -2.2640  0.7412
 9598TIP3    H228759   1.702   3.057   2.828 -0.1313  0.3113 -2.0077
 9599TIP3   OH228760   7.041   0.292   4.011  0.0689  0.6748 -0.0422
 9599TIP3    H128761   7.089   0.236   3.950 -1.3310  0.9553 -1.4712
 9599TIP3    H228762   6.992   0.232   4.066  0.7622  0.4334  0.3143
 9600TIP3   OH228763   3.569   6.116   0.223 -0.0318 -0.1177 -0.0083
 9600TIP3    H128764   3.532   6.205   0.217 -0.3452 -0.2448  0.0011
 9600TIP3    H228765   3.656   6.129   0.259 -0.0072  0.2048 -0.1797
 9601TIP3   OH228766   0.181   6.130   1.381 -0.0082 -0.6556  0.0971
 9601TIP3    H128767   0.154   6.145   1.471 -1.0176  0.2449 -0.3303
 9601TIP3    H228768   0.208   6.216   1.349 -1.8605 -0.4684 -1.1337
 9602TIP3   OH228769   6.677   3.773   2.265  0.0542 -0.0850  0.3651
 9602TIP3    H128770   6.584   3.779   2.289 -0.0936  0.9809 -0.4065
 9602TIP3    H228771   6.724   3.811   2.339 -0.1979  0.3487  0.3054
 9603TIP3   OH228772   2.078   0.640   3.718  0.3324  0.2082 -0.0303
 9603TIP3    H128773   2.090   0.545   3.715 -2.4675 -0.2392 -0.6145
 9603TIP3    H228774   2.162   0.674   3.747  1.2816 -2.4838  0.7363
 9604TIP3   OH228775   0.489   3.180   5.567 -0.2600  0.5507 -0.0260
 9604TIP3    H128776   0.475   3.116   5.498 -1.4286 -1.5971  2.0457
 9604TIP3    H228777   0.579   3.163   5.597 -0.6120 -0.2867  0.6079
 9605TIP3   OH228778   6.578   1.716   3.944  0.0829  0.3409 -0.0524
 9605TIP3    H128779   6.550   1.632   3.908 -0.2996  1.0494 -1.4860
 9605TIP3    H228780   6.579   1.776   3.869 -0.7831  1.9057  1.1134
 9606TIP3   OH228781   4.407   1.403   2.699 -0.5514 -0.0934  0.5213
 9606TIP3    H128782   4.465   1.462   2.747 -1.4337  1.2364  0.0219
 9606TIP3    H228783   4.340   1.460   2.662 -2.0736 -1.5522  0.9085
 9607TIP3   OH228784   5.059   4.829   5.544 -0.1562 -0.5694 -0.3134
 9607TIP3    H128785   5.043   4.923   5.536 -0.0964 -0.6746 -1.9923
 9607TIP3    H228786   4.992   4.788   5.490 -0.1525 -1.5029  0.3647
 9608TIP3   OH228787   4.337   4.858   3.368 -0.0656 -0.5795  0.0817
 9608TIP3    H128788   4.330   4.774   3.324 -1.2387 -0.0837 -0.7235
 9608TIP3    H228789   4.261   4.861   3.427  0.5823 -0.5360  0.9417
 9609TIP3   OH228790   2.243   3.528   1.631 -0.0362 -0.0329 -0.8186
 9609TIP3    H128791   2.288   3.464   1.686 -2.0761  0.0808  1.1390
 9609TIP3    H228792   2.162   3.484   1.604 -1.0346  1.3450 -0.1951
 9610TIP3   OH228793   6.644   6.064   1.094  0.1583  0.0721  0.2647
 9610TIP3    H128794   6.719   6.085   1.150 -0.7232  0.2888  1.4111
 9610TIP3    H228795   6.569   6.101   1.140 -0.6271  0.1406 -1.0186
 9611TIP3   OH228796   2.436   6.724   2.077  0.2026  0.0969  0.0714
 9611TIP3    H128797   2.517   6.677   2.094  0.2657 -0.4337 -1.5653
 9611TIP3    H228798   2.367   6.660   2.091  0.2955 -0.5877 -2.2917
 9612TIP3   OH228799   5.106   6.118   1.019 -0.2225 -0.3496  0.1170
 9612TIP3    H128800   5.102   6.191   1.081 -0.1742  0.3622 -0.6881
 9612TIP3    H228801   5.127   6.042   1.072  3.8567  0.8447  0.5894
 9613TIP3   OH228802   6.174   2.605   5.627  0.1114  0.1146 -0.0697
 9613TIP3    H128803   6.175   2.685   5.574 -2.3988  0.1273 -0.2015
 9613TIP3    H228804   6.178   2.635   5.717  0.3340  0.3286 -0.1514
 9614TIP3   OH228805   1.211   6.595   2.329  0.4298 -0.1308 -0.4283
 9614TIP3    H128806   1.127   6.624   2.295  0.1483 -1.0389 -0.5329
 9614TIP3    H228807   1.258   6.561   2.253  1.4159  1.5221 -0.6098
 9615TIP3   OH228808   0.215   6.516   3.558 -0.1719 -0.1055 -0.0911
 9615TIP3    H128809   0.245   6.539   3.646  0.1817 -0.0522 -0.2250
 9615TIP3    H228810   0.249   6.428   3.543  1.2494  0.5417 -0.8406
 9616TIP3   OH228811   2.122   1.357   4.749  0.2102 -0.2337  0.1958
 9616TIP3    H128812   2.084   1.331   4.665 -1.0758  1.1225  0.3058
 9616TIP3    H228813   2.191   1.419   4.726 -0.8373  0.9670  0.1091
 9617TIP3   OH228814   5.183   2.893   5.559 -0.4062 -0.4477  0.1250
 9617TIP3    H128815   5.208   2.901   5.651 -1.7371  1.3812  0.3836
 9617TIP3    H228816   5.265   2.899   5.511  0.1260  0.5633  1.1213
 9618TIP3   OH228817   4.012   3.463   2.363 -0.0878 -0.3136  0.6244
 9618TIP3    H128818   3.959   3.483   2.286  0.0176  2.4339  1.1770
 9618TIP3    H228819   3.949   3.449   2.434 -0.1537  1.0264  0.8536
 9619TIP3   OH228820   0.334   3.387   5.026  0.0402 -0.5261  0.2194
 9619TIP3    H128821   0.282   3.379   4.946  0.9758  1.4316 -0.6626
 9619TIP3    H228822   0.334   3.481   5.046  0.9766 -0.8029  1.7438
 9620TIP3   OH228823   3.503   6.302   2.015 -0.1714  0.0857 -0.1056
 9620TIP3    H128824   3.515   6.362   2.088  0.4436  0.3254 -0.3979
 9620TIP3    H228825   3.428   6.337   1.967  1.5225  1.9470 -1.5440
 9621TIP3   OH228826   4.927   5.933   1.546 -0.2448  0.3096 -0.4203
 9621TIP3    H128827   4.921   5.992   1.471 -0.8709 -0.7013 -1.1913
 9621TIP3    H228828   4.924   5.845   1.508  1.9123 -0.2730  0.5756
 9622TIP3   OH228829   1.047   3.514   4.386 -0.2729  0.3723  0.2585
 9622TIP3    H128830   0.981   3.567   4.342  0.8927 -0.1718 -2.3278
 9622TIP3    H228831   1.119   3.574   4.403 -0.0262  0.2078 -0.1959
 9623TIP3   OH228832   2.115   2.309   0.163 -0.1644  0.3566 -0.2469
 9623TIP3    H128833   2.178   2.329   0.232  0.3012  0.9063 -0.8103
 9623TIP3    H228834   2.034   2.288   0.209  0.7339 -1.5739  0.5356
 9624TIP3   OH228835   2.499   1.848   4.732 -0.0211  0.5090  0.4363
 9624TIP3    H128836   2.516   1.827   4.640 -0.5073  1.3118  0.1539
 9624TIP3    H228837   2.585   1.851   4.773  0.1688 -0.3594  0.1294
 9625TIP3   OH228838   1.936   4.138   2.240  0.2388 -0.3433  0.1530
 9625TIP3    H128839   1.961   4.105   2.154  0.9088  0.3621  0.0588
 9625TIP3    H228840   2.019   4.159   2.283 -0.1018 -0.3681  0.8394
 9626TIP3   OH228841   4.511   5.970   3.652 -1.0157  0.0281  0.3171
 9626TIP3    H128842   4.565   6.048   3.641  2.2980 -2.2288 -1.3401
 9626TIP3    H228843   4.555   5.921   3.721 -1.4656 -1.4878 -0.4250
 9627TIP3   OH228844   6.322   4.613   2.305 -0.3538 -0.2307 -0.0771
 9627TIP3    H128845   6.255   4.601   2.373  0.4092 -0.9492  0.5691
 9627TIP3    H228846   6.292   4.689   2.255 -0.3070  1.1447  1.8549
 9628TIP3   OH228847   5.824   5.404   4.671 -0.0183  0.2098  0.0077
 9628TIP3    H128848   5.846   5.494   4.647  0.2725  0.2536  0.4297
 9628TIP3    H228849   5.806   5.408   4.765  0.5605 -0.2722  0.1443
 9629TIP3   OH228850   2.974   1.338   2.096  0.4233  0.4198 -0.2470
 9629TIP3    H128851   3.062   1.308   2.073  0.0867 -1.1677  0.3747
 9629TIP3    H228852   2.966   1.320   2.190 -0.4412  0.8644 -0.2212
 9630TIP3   OH228853   0.786   2.382   0.492  0.4506  0.6672 -0.6173
 9630TIP3    H128854   0.732   2.308   0.461  1.4050 -0.5553  0.5487
 9630TIP3    H228855   0.760   2.455   0.435 -0.9828 -0.3870 -1.3969
 9631TIP3   OH228856   2.803   0.085   0.916 -0.3604  0.5776  0.2153
 9631TIP3    H128857   2.827   0.041   0.997 -2.7117 -1.9924 -0.2940
 9631TIP3    H228858   2.877   0.070   0.857 -0.3358 -1.2126  0.6559
 9632TIP3   OH228859   5.001   4.827   3.032 -0.1633  0.0675  0.3866
 9632TIP3    H128860   5.039   4.769   2.966 -0.3646 -0.8520  1.0521
 9632TIP3    H228861   5.057   4.905   3.031 -0.8938  0.6317 -1.7222
 9633TIP3   OH228862   2.279   1.292   1.725  0.3409  0.0474  0.2637
 9633TIP3    H128863   2.231   1.210   1.712  1.4237 -0.1236 -4.6327
 9633TIP3    H228864   2.226   1.357   1.680  1.2580  1.3178  0.9661
 9634TIP3   OH228865   1.598   4.053   4.503 -0.2045 -0.8288 -0.2888
 9634TIP3    H128866   1.544   4.131   4.494  1.4276  0.2384 -1.2492
 9634TIP3    H228867   1.682   4.078   4.466  0.3290 -3.0927 -0.7274
 9635TIP3   OH228868   2.737   4.315   4.633  0.1675  0.3116  0.5371
 9635TIP3    H128869   2.817   4.318   4.686  1.8797 -1.6249 -1.7298
 9635TIP3    H228870   2.747   4.389   4.572  0.0462  0.2650  0.4619
 9636TIP3   OH228871   2.910   0.720   2.249  0.0342  0.2444 -0.1166
 9636TIP3    H128872   2.871   0.716   2.162  0.3236  0.0659 -0.2387
 9636TIP3    H228873   2.873   0.645   2.296 -0.0534  0.2905 -0.1100
 9637TIP3   OH228874   5.818   5.843   1.003  0.0943 -0.5003 -0.3021
 9637TIP3    H128875   5.828   5.808   1.091  1.1564  1.9554  0.6255
 9637TIP3    H228876   5.738   5.896   1.006 -0.8112 -1.7303 -1.3354
 9638TIP3   OH228877   1.936   4.738   3.930 -0.2545 -0.1283 -0.6689
 9638TIP3    H128878   1.935   4.661   3.988 -1.7664 -0.6426 -1.3288
 9638TIP3    H228879   2.000   4.797   3.970 -2.2997  0.2112  2.4235
 9639TIP3   OH228880   6.412   2.966   3.883  0.2060  0.0354 -0.7433
 9639TIP3    H128881   6.442   2.901   3.819 -0.5230  1.1903 -2.3118
 9639TIP3    H228882   6.492   2.990   3.931  0.8745 -0.4806 -1.5689
 9640TIP3   OH228883   3.348   5.434   1.904 -0.1744 -0.1140 -0.3861
 9640TIP3    H128884   3.370   5.365   1.842  0.2808 -0.8247  0.5253
 9640TIP3    H228885   3.277   5.397   1.956 -0.6420  0.5200 -0.5623
 9641TIP3   OH228886   2.738   3.668   3.043  0.3736  0.3278 -0.0440
 9641TIP3    H128887   2.779   3.637   2.963  0.9756 -1.2170  0.8133
 9641TIP3    H228888   2.810   3.705   3.095 -0.0709  1.6750 -0.3452
 9642TIP3   OH228889   3.850   3.684   4.135 -0.2289 -0.3633  0.3273
 9642TIP3    H128890   3.884   3.708   4.049 -0.7695 -2.5426 -0.5644
 9642TIP3    H228891   3.761   3.719   4.137 -0.7184 -1.4961 -0.6121
 9643TIP3   OH228892   3.413   0.503   2.343  0.3687  0.1641  0.3756
 9643TIP3    H128893   3.332   0.537   2.305  0.7904  1.1509  0.3312
 9643TIP3    H228894   3.386   0.464   2.426 -0.3823 -0.9275 -0.3450
 9644TIP3   OH228895   5.881   5.185   1.057  0.4761  0.1038 -0.1575
 9644TIP3    H128896   5.786   5.195   1.049  0.4984  1.2033  0.6131
 9644TIP3    H228897   5.895   5.091   1.064 -0.5137 -0.1003 -0.7755
 9645TIP3   OH228898   6.784   5.669   5.383 -0.3187  0.2183 -0.2841
 9645TIP3    H128899   6.845   5.652   5.455  1.0042  0.1750 -1.3640
 9645TIP3    H228900   6.806   5.758   5.354  1.5372 -0.9162 -2.7448
 9646TIP3   OH228901   0.516   3.224   4.471  0.5204  0.2155  0.1574
 9646TIP3    H128902   0.451   3.156   4.488 -0.4746  0.5581 -1.9659
 9646TIP3    H228903   0.574   3.185   4.405 -0.0928  1.3751 -1.1226
 9647TIP3   OH228904   1.302   3.415   1.977 -0.6290  0.7025 -0.0287
 9647TIP3    H128905   1.378   3.365   2.006 -0.2165  0.5449 -1.2949
 9647TIP3    H228906   1.334   3.504   1.967 -0.8483  0.8206  0.3226
 9648TIP3   OH228907   3.250   4.013   5.289 -0.0701  0.1127 -0.0649
 9648TIP3    H128908   3.173   4.067   5.268  0.8006  2.2734  1.9169
 9648TIP3    H228909   3.231   3.977   5.376  1.2178  0.8695  0.5544
 9649TIP3   OH228910   0.091   2.844   2.347  0.3288 -0.2257  0.0696
 9649TIP3    H128911   0.179   2.867   2.318  0.6051 -1.8030 -0.4323
 9649TIP3    H228912   0.050   2.803   2.270 -0.4484 -0.5079  0.6222
 9650TIP3   OH228913   4.382   6.575   5.258 -0.2678  0.5480  0.1851
 9650TIP3    H128914   4.469   6.539   5.238 -0.0878  1.0786 -0.0211
 9650TIP3    H228915   4.373   6.564   5.352  1.1069  2.7127  0.6590
 9651TIP3   OH228916   0.777   6.553   0.933 -0.6645 -0.6826 -0.1646
 9651TIP3    H128917   0.755   6.646   0.939  0.5650 -0.3397 -0.5266
 9651TIP3    H228918   0.703   6.513   0.888 -0.6808  0.3431 -1.0869
 9652TIP3   OH228919   4.709   1.367   3.367 -0.8190  0.2335 -0.2124
 9652TIP3    H128920   4.684   1.434   3.304 -0.0839  0.6951 -0.0382
 9652TIP3    H228921   4.804   1.379   3.378 -0.3048 -1.9971 -1.5376
 9653TIP3   OH228922   1.836   1.936   5.390 -0.4532 -0.0273 -0.5160
 9653TIP3    H128923   1.904   1.921   5.325  0.0031 -0.4142  0.0372
 9653TIP3    H228924   1.830   2.031   5.398 -0.4916  0.0220 -1.0968
 9654TIP3   OH228925   3.087   5.424   1.044 -0.2163  0.2145 -0.4407
 9654TIP3    H128926   3.011   5.458   0.996 -0.9841  1.2145  1.4053
 9654TIP3    H228927   3.158   5.484   1.023 -0.5414  0.6323 -0.3547
 9655TIP3   OH228928   1.893   2.488   4.804 -0.4884  0.2177 -0.0538
 9655TIP3    H128929   1.876   2.490   4.710 -2.5453 -0.0747  0.2573
 9655TIP3    H228930   1.965   2.550   4.817  0.7209 -0.6882 -1.9379
 9656TIP3   OH228931   0.476   0.556   0.892  0.1372 -0.0624 -0.7175
 9656TIP3    H128932   0.407   0.490   0.902 -0.7340  0.9599  0.3847
 9656TIP3    H228933   0.454   0.623   0.956  1.8570  0.5824 -0.7506
 9657TIP3   OH228934   1.284   1.420   2.421  0.3437 -0.1903 -0.5086
 9657TIP3    H128935   1.267   1.512   2.440 -0.1335 -0.5822  1.1068
 9657TIP3    H228936   1.300   1.380   2.507  1.0273 -1.5204 -1.2200
 9658TIP3   OH228937   6.743   2.190   1.837 -0.5095 -0.1739  0.3276
 9658TIP3    H128938   6.655   2.222   1.856 -0.5364  0.2150 -0.4279
 9658TIP3    H228939   6.756   2.207   1.744  0.3736 -0.2045  0.4320
 9659TIP3   OH228940   1.977   1.289   2.164 -0.2099 -0.0725 -0.2591
 9659TIP3    H128941   1.910   1.358   2.162  0.6517  0.7703 -0.9019
 9659TIP3    H228942   1.948   1.230   2.234 -2.2309 -0.3699 -1.2687
 9660TIP3   OH228943   3.233   5.600   1.722  0.1411 -0.4520  0.2338
 9660TIP3    H128944   3.303   5.555   1.770  1.4446  1.6288  0.4034
 9660TIP3    H228945   3.156   5.545   1.735  1.4652 -2.2186  1.0289
 9661TIP3   OH228946   4.551   0.499   0.377  0.4275  0.3226 -0.8209
 9661TIP3    H128947   4.617   0.545   0.429 -2.0598  1.9598  1.1426
 9661TIP3    H228948   4.513   0.566   0.321 -2.4158  0.5695  1.1971
 9662TIP3   OH228949   0.167   0.046   1.319 -0.2518 -0.3026 -0.4984
 9662TIP3    H128950   0.119   0.029   1.238  0.4409 -1.1131 -0.7527
 9662TIP3    H228951   0.134   0.131   1.349 -0.1848  0.2411 -1.8654
 9663TIP3   OH228952   3.303  -0.008   2.748  0.1026 -0.0408 -0.4492
 9663TIP3    H128953   3.236   0.060   2.740 -0.7187 -0.7210  0.4321
 9663TIP3    H228954   3.331  -0.005   2.839  0.6977 -0.3132 -0.6119
 9664TIP3   OH228955   3.315   3.027   2.087 -0.0798  0.1370 -0.5644
 9664TIP3    H128956   3.325   2.933   2.102 -2.6367 -0.3095 -1.2737
 9664TIP3    H228957   3.402   3.056   2.059  0.7263 -2.0348 -0.5072
 9665TIP3   OH228958   5.569   1.133   5.557  0.1103  0.0239  0.4111
 9665TIP3    H128959   5.506   1.198   5.526 -0.8835 -0.0228  2.1776
 9665TIP3    H228960   5.523   1.049   5.549  1.2972 -0.5097 -1.6345
 9666TIP3   OH228961   6.653   4.239   4.388 -0.0851  0.4524 -0.2674
 9666TIP3    H128962   6.606   4.235   4.471 -2.3705  2.1970 -1.3777
 9666TIP3    H228963   6.715   4.311   4.399  0.4299 -0.0598  0.2702
 9667TIP3   OH228964   5.726   0.891   1.353 -0.2180 -0.3115 -0.0361
 9667TIP3    H128965   5.805   0.891   1.407 -1.6078  0.9537  2.1443
 9667TIP3    H228966   5.699   0.983   1.352 -2.1434 -0.8407  0.0560
 9668TIP3   OH228967   5.205   4.720   2.417 -0.6411  0.0181  0.4561
 9668TIP3    H128968   5.289   4.760   2.436 -0.4631  0.3720 -0.9771
 9668TIP3    H228969   5.147   4.750   2.487  0.3949 -0.2017  1.4319
 9669TIP3   OH228970   3.490   4.060   2.396  0.4843 -0.5855  0.1063
 9669TIP3    H128971   3.396   4.075   2.392  0.5479 -0.0651  0.5249
 9669TIP3    H228972   3.530   4.144   2.376  0.8465 -0.5260  1.0127
 9670TIP3   OH228973   6.428   3.807   1.639  0.4878  0.2304  0.1410
 9670TIP3    H128974   6.348   3.761   1.613  1.2264 -0.5641 -0.7675
 9670TIP3    H228975   6.398   3.868   1.707 -0.5422 -1.5481  1.3822
 9671TIP3   OH228976   3.755   0.401   0.771  0.3296 -0.0815 -0.1808
 9671TIP3    H128977   3.839   0.441   0.795  1.1360 -1.7400 -0.1445
 9671TIP3    H228978   3.778   0.324   0.720 -1.2485  0.5872 -2.0354
 9672TIP3   OH228979   4.071   2.656   5.797  0.6170 -0.1379  0.0507
 9672TIP3    H128980   4.005   2.718   5.829  0.8621 -0.2199  0.7301
 9672TIP3    H228981   4.155   2.697   5.816  0.7658 -0.1288 -0.6205
 9673TIP3   OH228982   6.930   4.664   3.624 -0.3977 -0.0605 -0.2172
 9673TIP3    H128983   6.846   4.645   3.582 -0.1500 -0.9852 -0.3125
 9673TIP3    H228984   6.930   4.611   3.704  0.4924 -0.8436 -0.7104
 9674TIP3   OH228985   3.058   5.460   0.092  0.0326 -0.1154  0.3706
 9674TIP3    H128986   3.081   5.549   0.116  0.2053 -0.0936  0.1312
 9674TIP3    H228987   3.105   5.405   0.155  1.6344 -0.1184 -0.7449
 9675TIP3   OH228988   3.485   6.155   3.136 -0.3233 -0.4571 -0.6834
 9675TIP3    H128989   3.468   6.243   3.101 -1.1493 -1.1115 -2.0205
 9675TIP3    H228990   3.399   6.112   3.135 -0.4577 -0.4872  2.4315
 9676TIP3   OH228991   2.049   5.358   5.636  0.0944 -0.0066 -0.2770
 9676TIP3    H128992   1.983   5.423   5.660  0.9046  0.5424  0.5366
 9676TIP3    H228993   2.012   5.275   5.663  1.2635  0.6011  3.9814
 9677TIP3   OH228994   1.467   6.549   5.098 -0.2416  0.3807  0.2887
 9677TIP3    H128995   1.417   6.532   5.019  0.7521  0.4088 -0.3720
 9677TIP3    H228996   1.506   6.464   5.121 -0.6872  0.3261  0.8699
 9678TIP3   OH228997   0.915   0.638   2.929  0.0850  0.5026 -0.3378
 9678TIP3    H128998   0.857   0.714   2.933  1.6837  1.8580 -1.6258
 9678TIP3    H228999   0.943   0.624   3.020 -1.4205  0.4348  0.1481
 9679TIP3   OH229000   2.205   0.493   2.666 -0.5396  0.4870 -0.1748
 9679TIP3    H129001   2.246   0.412   2.636 -0.2333  0.9181 -0.9681
 9679TIP3    H229002   2.111   0.475   2.664 -0.4435 -0.1041  0.4360
 9680TIP3   OH229003   3.403   0.245   3.718 -0.2285  0.1079 -0.4039
 9680TIP3    H129004   3.377   0.206   3.801  2.7966 -0.1696  0.5617
 9680TIP3    H229005   3.435   0.171   3.666 -1.3622  0.3868 -1.5383
 9681TIP3   OH229006   2.859   2.323   2.118 -0.4559  0.1237 -0.1044
 9681TIP3    H129007   2.769   2.294   2.105 -2.1236  3.9385  1.4363
 9681TIP3    H229008   2.870   2.327   2.213  1.5015 -0.6054 -0.2597
 9682TIP3   OH229009   6.031   3.425   1.516 -0.3215  0.3890  0.3190
 9682TIP3    H129010   6.015   3.434   1.610 -0.1724 -0.1818  0.4059
 9682TIP3    H229011   5.951   3.385   1.482  0.5918 -1.8787  0.6514
 9683TIP3   OH229012   1.864   2.519   2.814  0.3387 -0.0293  0.2126
 9683TIP3    H129013   1.838   2.588   2.754  0.8212  0.3736  0.4623
 9683TIP3    H229014   1.929   2.559   2.871 -0.4091 -0.2815  1.2819
 9684TIP3   OH229015   5.957   3.152   2.702 -0.2211  0.2415 -1.2647
 9684TIP3    H129016   6.018   3.207   2.751  2.2329 -1.7235 -1.9171
 9684TIP3    H229017   5.977   3.063   2.730 -0.8075 -0.6957 -3.5832
 9685TIP3   OH229018   3.922   6.656   5.082  0.1720 -0.2995  0.2589
 9685TIP3    H129019   3.928   6.751   5.078  2.5212 -0.4036  0.0500
 9685TIP3    H229020   3.944   6.634   5.172 -0.7075 -0.6637  0.4007
 9686TIP3   OH229021   1.293   1.483   1.363 -0.3435  0.2406  0.4166
 9686TIP3    H129022   1.289   1.390   1.341 -0.2554  0.5008 -0.7629
 9686TIP3    H229023   1.210   1.501   1.407 -1.1032 -0.0266 -0.8618
 9687TIP3   OH229024   2.637   3.499   5.660 -0.4412  0.1458 -0.2069
 9687TIP3    H129025   2.622   3.418   5.611  0.2800  0.7179 -1.4226
 9687TIP3    H229026   2.606   3.480   5.749 -1.1095 -1.1585 -0.7014
 9688TIP3   OH229027   5.891   6.217   2.198  0.3744  0.4852 -0.1886
 9688TIP3    H129028   5.885   6.305   2.235 -1.1303 -0.2898  1.5779
 9688TIP3    H229029   5.847   6.224   2.113 -0.3701  1.3031  0.2421
 9689TIP3   OH229030   0.089   6.765   0.766  0.8685 -0.0750 -0.2425
 9689TIP3    H129031   0.136   6.834   0.812 -1.3785  0.8122  0.8409
 9689TIP3    H229032   0.119   6.773   0.675  1.9718  1.1478  0.1946
 9690TIP3   OH229033   0.040   2.377   2.759  0.0805 -0.0977  0.4593
 9690TIP3    H129034   0.009   2.430   2.685  1.6404 -0.0909 -0.2334
 9690TIP3    H229035   0.078   2.441   2.819  0.0250 -0.2325  0.6384
 9691TIP3   OH229036   0.029   0.523   3.979  0.0751  0.5035 -0.2755
 9691TIP3    H129037   0.052   0.494   3.891 -0.1280 -0.1472 -0.1160
 9691TIP3    H229038  -0.024   0.452   4.015 -0.5816  1.1534  0.0545
 9692TIP3   OH229039   0.446   0.273   2.432 -0.0357 -0.0875 -0.0498
 9692TIP3    H129040   0.357   0.245   2.412  0.0665 -0.7305  0.3561
 9692TIP3    H229041   0.461   0.348   2.375 -0.1535 -1.1445 -1.5269
 9693TIP3   OH229042   2.445   4.956   3.787  0.4394  0.0243  0.9071
 9693TIP3    H129043   2.424   4.944   3.694  2.4731 -1.5001  0.5843
 9693TIP3    H229044   2.481   5.044   3.792 -0.6866  0.5339  0.4856
 9694TIP3   OH229045   1.036   1.360   2.677 -0.1378  0.1167  0.0584
 9694TIP3    H129046   1.019   1.374   2.770 -0.9967  0.8810 -0.2035
 9694TIP3    H229047   1.031   1.447   2.638 -1.1848 -0.3602 -0.9200
 9695TIP3   OH229048   3.445   2.080   1.779 -0.0267 -0.5080 -0.1932
 9695TIP3    H129049   3.540   2.087   1.771  0.3695 -3.7692  0.1110
 9695TIP3    H229050   3.425   2.116   1.865  1.0709 -0.5759  0.1068
 9696TIP3   OH229051   3.449   5.105   3.190 -0.2990  0.1636 -0.0732
 9696TIP3    H129052   3.486   5.193   3.177  0.8363 -0.5022 -1.6586
 9696TIP3    H229053   3.417   5.080   3.103  3.1956 -2.6260 -0.7487
 9697TIP3   OH229054   5.101   0.746   4.668 -0.7542  0.4826  0.8373
 9697TIP3    H129055   5.136   0.836   4.669 -0.9675  0.5657  0.7968
 9697TIP3    H229056   5.071   0.731   4.758 -0.1856  0.2409  0.9944
 9698TIP3   OH229057   1.521   3.585   4.260 -0.2603 -0.4996  0.1250
 9698TIP3    H129058   1.477   3.669   4.261 -2.7646 -1.6893 -1.2146
 9698TIP3    H229059   1.486   3.539   4.337 -1.0242 -1.2447 -0.6338
 9699TIP3   OH229060   0.140   3.369   4.451 -0.1791  0.6262 -0.9831
 9699TIP3    H129061   0.110   3.366   4.360 -0.1716 -1.5168 -0.9805
 9699TIP3    H229062   0.225   3.412   4.448  0.0122  0.1890 -2.0677
 9700TIP3   OH229063   1.014   3.163   0.085 -0.3172  0.3354 -0.3943
 9700TIP3    H129064   0.972   3.248   0.101  0.4658  0.9733 -1.5820
 9700TIP3    H229065   0.947   3.099   0.106 -0.0706  1.0788  3.3002
 9701TIP3   OH229066   6.221   5.076   1.754  0.5054 -0.3156  0.2681
 9701TIP3    H129067   6.299   5.075   1.698 -1.4763 -2.6689 -2.7680
 9701TIP3    H229068   6.166   5.144   1.717 -0.5056 -1.3744 -0.2469
 9702TIP3   OH229069   3.750   1.613   0.347  0.2554  0.0792  0.5304
 9702TIP3    H129070   3.797   1.530   0.345 -1.3140 -0.8482  0.1323
 9702TIP3    H229071   3.740   1.632   0.440  0.6007 -0.2041  0.6274
 9703TIP3   OH229072   3.613   2.424   0.489  0.0314 -0.0769  0.3035
 9703TIP3    H129073   3.690   2.479   0.473  0.3978 -0.5030  0.5472
 9703TIP3    H229074   3.555   2.441   0.415  0.6855 -0.2969 -0.2699
 9704TIP3   OH229075   5.201   4.558   3.566 -0.5268  0.1492 -0.4819
 9704TIP3    H129076   5.119   4.513   3.591 -0.7956  0.9829  0.1751
 9704TIP3    H229077   5.178   4.650   3.563  0.2966  0.3546 -0.7398
 9705TIP3   OH229078   2.160   5.251   3.890 -0.1332 -0.2689 -0.0828
 9705TIP3    H129079   2.112   5.212   3.816  1.2571 -0.9000 -0.6773
 9705TIP3    H229080   2.099   5.316   3.925 -1.9496 -1.8899 -0.0064
 9706TIP3   OH229081   2.430   6.313   1.618  0.4447 -0.2615  1.0341
 9706TIP3    H129082   2.441   6.267   1.701 -2.6141  1.0766  2.3091
 9706TIP3    H229083   2.474   6.398   1.631  2.0199 -0.9330  0.3585
 9707TIP3   OH229084   1.798   2.728   5.183 -0.0454 -0.3457 -0.0101
 9707TIP3    H129085   1.799   2.820   5.154 -0.5537 -0.3978 -0.1970
 9707TIP3    H229086   1.864   2.725   5.252 -0.8000  0.4232  0.7759
 9708TIP3   OH229087   3.306   0.427   4.294 -0.9485 -0.1220 -0.4349
 9708TIP3    H129088   3.382   0.461   4.341 -0.9475 -1.2517  0.4162
 9708TIP3    H229089   3.263   0.369   4.356 -1.9770 -0.2566 -1.2352
 9709TIP3   OH229090   6.281   5.064   0.749 -0.6771  0.0016 -0.1189
 9709TIP3    H129091   6.273   5.013   0.829  1.1158 -0.7196 -0.3309
 9709TIP3    H229092   6.232   5.014   0.684  1.1554 -1.6377 -0.3498
 9710TIP3   OH229093   1.082   5.947   1.932 -0.3241 -0.1039 -0.2631
 9710TIP3    H129094   1.016   5.966   1.999  0.8767 -0.1088  0.9617
 9710TIP3    H229095   1.142   6.022   1.936 -0.3909  0.0419 -1.5535
 9711TIP3   OH229096   0.614   4.266   0.817  0.0735  0.2334 -0.0234
 9711TIP3    H129097   0.600   4.350   0.773  0.3399 -0.1210 -0.8014
 9711TIP3    H229098   0.684   4.224   0.767 -1.4907 -1.3555 -0.9932
 9712TIP3   OH229099   6.847   6.070   0.528 -0.3143 -0.5305 -0.0891
 9712TIP3    H129100   6.854   6.109   0.441  1.6708 -2.8949 -1.0917
 9712TIP3    H229101   6.753   6.064   0.544 -0.7617 -0.6868 -2.4148
 9713TIP3   OH229102   4.297   0.396   5.224  0.1631  0.1162  0.3967
 9713TIP3    H129103   4.347   0.325   5.264  0.2376 -0.4381 -0.6491
 9713TIP3    H229104   4.358   0.435   5.161 -1.0414 -1.3638 -1.8046
 9714TIP3   OH229105   7.057   4.095   3.527  0.0066 -0.1456  0.0921
 9714TIP3    H129106   6.990   4.068   3.464 -1.0459  0.4797  0.9020
 9714TIP3    H229107   7.052   4.191   3.526 -0.3448 -0.1238  1.4223
 9715TIP3   OH229108   5.975   3.825   5.006  0.5209 -0.5734 -0.3996
 9715TIP3    H129109   6.023   3.742   5.000  1.7905  0.0534  0.5774
 9715TIP3    H229110   5.973   3.845   5.099  1.3477  1.1119 -0.7031
 9716TIP3   OH229111   6.102   0.353   2.225  0.4392  0.5428 -0.6869
 9716TIP3    H129112   6.138   0.430   2.269 -0.2115  1.3787 -1.5619
 9716TIP3    H229113   6.008   0.358   2.242  0.5889 -1.1059  0.8106
 9717TIP3   OH229114   0.170   1.346   4.887  0.4611 -0.3148 -0.6652
 9717TIP3    H129115   0.193   1.332   4.979  0.0178  0.8703 -0.3510
 9717TIP3    H229116   0.165   1.441   4.878  0.3446 -0.4219 -1.8816
 9718TIP3   OH229117   4.063   3.223   4.379 -0.4076  0.0338  0.0447
 9718TIP3    H129118   4.094   3.170   4.453  0.5243 -0.4916 -0.7036
 9718TIP3    H229119   4.052   3.311   4.416  0.4829 -0.1139  0.7161
 9719TIP3   OH229120   2.225   5.784   3.529  0.2824  0.4843  0.0527
 9719TIP3    H129121   2.142   5.802   3.572  0.7716  0.4934  1.0259
 9719TIP3    H229122   2.274   5.866   3.534  0.9584  0.0535  0.9216
 9720TIP3   OH229123   1.049   0.866   5.665  0.5133  0.0484 -0.0893
 9720TIP3    H129124   0.959   0.869   5.632 -0.4505 -1.3938  2.2099
 9720TIP3    H229125   1.053   0.936   5.730  1.2486  0.4260 -0.5234
 9721TIP3   OH229126   2.883   3.631   5.680  0.5364  0.5311 -0.0134
 9721TIP3    H129127   2.926   3.573   5.743 -0.3245 -1.2925 -1.0326
 9721TIP3    H229128   2.792   3.601   5.678  0.0135  2.0308 -0.4831
 9722TIP3   OH229129   2.303   3.926   4.184 -0.0161  0.0563 -0.1679
 9722TIP3    H129130   2.229   3.886   4.229 -0.0132 -1.3948 -1.3492
 9722TIP3    H229131   2.265   3.960   4.103  0.6042 -0.9230 -0.9003
 9723TIP3   OH229132   6.909   0.932   5.164  0.1747  0.2836  0.5059
 9723TIP3    H129133   6.864   0.893   5.088 -0.3025  0.7234  0.5593
 9723TIP3    H229134   6.872   1.020   5.171  1.6308  0.9646  0.0478
 9724TIP3   OH229135   6.624   5.493   3.006  0.1513  0.0502 -0.2237
 9724TIP3    H129136   6.641   5.407   2.969 -0.2702  0.3423 -1.1116
 9724TIP3    H229137   6.710   5.535   3.009  0.1196  0.2286 -1.4164
 9725TIP3   OH229138   3.805   4.231   1.250 -0.5045  0.2620  0.9604
 9725TIP3    H129139   3.896   4.205   1.233 -0.4648  1.0824 -0.2574
 9725TIP3    H229140   3.783   4.288   1.176 -2.1151 -0.1679  1.0728
 9726TIP3   OH229141   5.839   0.476   3.245 -0.2465 -0.0258  0.5314
 9726TIP3    H129142   5.923   0.490   3.289 -1.0478 -0.2574  2.2043
 9726TIP3    H229143   5.850   0.394   3.198  0.2229 -0.4843  1.4113
 9727TIP3   OH229144   5.565   5.633   5.480 -0.2487 -0.1876  0.0143
 9727TIP3    H129145   5.610   5.654   5.398 -1.0199 -1.2909 -0.7178
 9727TIP3    H229146   5.479   5.675   5.472 -0.5606 -0.8205 -0.0295
 9728TIP3   OH229147   3.736   2.834   1.119  0.2173  0.0853 -0.1978
 9728TIP3    H129148   3.816   2.816   1.069 -0.3307 -0.8088 -0.7972
 9728TIP3    H229149   3.676   2.764   1.092 -0.5016  0.2906  0.8273
 9729TIP3   OH229150   1.057   1.843   3.816  0.0213  0.0631  0.6611
 9729TIP3    H129151   0.963   1.860   3.808 -0.0931 -0.5336  0.6775
 9729TIP3    H229152   1.098   1.930   3.811 -0.4797  0.2708 -0.1328
 9730TIP3   OH229153   6.891   1.379   2.736  0.6512  0.6742  0.3154
 9730TIP3    H129154   6.985   1.378   2.753  0.6337  1.6679  0.5088
 9730TIP3    H229155   6.884   1.369   2.641  0.8972 -0.5085  0.3970
 9731TIP3   OH229156   1.898   1.082   4.063  0.1552  0.0570  0.4659
 9731TIP3    H129157   1.933   1.122   3.983  0.1792  0.8668  0.8734
 9731TIP3    H229158   1.899   1.152   4.127  1.3005 -0.8870  1.5399
 9732TIP3   OH229159   5.015   2.148   1.188  0.2047 -0.8099 -0.0781
 9732TIP3    H129160   4.949   2.215   1.204  0.1527  0.4582 -4.3458
 9732TIP3    H229161   4.971   2.084   1.133  1.7599 -1.4757 -0.5902
 9733TIP3   OH229162   0.397   0.419   4.399  0.4480 -0.1662 -0.2174
 9733TIP3    H129163   0.467   0.412   4.334 -0.3329 -0.2150 -1.0809
 9733TIP3    H229164   0.348   0.497   4.373  0.0927 -0.2140  0.2914
 9734TIP3   OH229165   1.012   4.056   0.907  0.1572 -0.4021  0.2237
 9734TIP3    H129166   0.939   4.072   0.967 -0.2986  0.3882 -0.5189
 9734TIP3    H229167   1.070   4.132   0.921  0.0261 -0.1926 -0.3641
 9735TIP3   OH229168   5.338   1.338   0.705  0.1438  0.0387  0.1182
 9735TIP3    H129169   5.423   1.362   0.667  0.7567  0.2139  1.5638
 9735TIP3    H229170   5.313   1.413   0.759 -1.3354  0.3241 -0.8949
 9736TIP3   OH229171   3.909   4.970   2.470 -0.3217 -0.3427  0.2120
 9736TIP3    H129172   3.819   4.990   2.444 -0.6238 -2.8522 -0.9795
 9736TIP3    H229173   3.963   5.030   2.418 -1.2235 -0.8847 -1.4242
 9737TIP3   OH229174   4.561   5.035   2.320  0.1489  0.5017 -0.2119
 9737TIP3    H129175   4.655   5.032   2.302  0.1149 -0.6158 -0.2727
 9737TIP3    H229176   4.524   4.966   2.265 -0.7004  0.8799 -0.1287
 9738TIP3   OH229177   3.605   5.347   3.203 -0.5002 -0.1395 -0.4359
 9738TIP3    H129178   3.593   5.366   3.297 -1.8080 -1.7687 -0.2213
 9738TIP3    H229179   3.666   5.413   3.173 -0.6323  0.8988  1.4146
 9739TIP3   OH229180   6.187   4.023   1.564  0.5200 -0.9627  0.2297
 9739TIP3    H129181   6.253   4.011   1.495  0.7620 -0.6981  0.4088
 9739TIP3    H229182   6.239   4.038   1.643  0.2424 -0.7191  0.3665
 9740TIP3   OH229183   3.043   6.663   1.498 -0.1333 -0.0400 -0.1958
 9740TIP3    H129184   2.991   6.739   1.471 -1.1066 -0.9964 -1.1209
 9740TIP3    H229185   3.083   6.632   1.417 -1.2905 -1.6436 -0.1815
 9741TIP3   OH229186   3.695   6.351   3.643 -0.0257  0.4257  0.1936
 9741TIP3    H129187   3.777   6.301   3.649 -0.4103 -0.5049 -1.5532
 9741TIP3    H229188   3.628   6.291   3.677 -0.0112  1.2419  1.7710
 9742TIP3   OH229189   4.979   4.912   1.593  0.8534 -0.3749 -0.0282
 9742TIP3    H129190   5.072   4.932   1.582  0.7013 -0.2377 -1.1861
 9742TIP3    H229191   4.947   4.979   1.653  1.0282  1.0196 -1.4176
 9743TIP3   OH229192   5.155   6.515   3.128  0.4471  0.2637 -0.1832
 9743TIP3    H129193   5.124   6.445   3.071 -1.8160  2.3018 -1.6814
 9743TIP3    H229194   5.218   6.564   3.074  1.7285 -0.3255  0.7194
 9744TIP3   OH229195   5.195   3.783   0.643  0.6379 -0.5499  0.4121
 9744TIP3    H129196   5.145   3.746   0.716  1.7992 -3.2409 -0.0509
 9744TIP3    H229197   5.136   3.777   0.568 -0.0616  0.9407  0.8072
 9745TIP3   OH229198   1.367   6.195   5.586  0.5436 -0.4225 -0.5107
 9745TIP3    H129199   1.362   6.100   5.574  0.4368 -0.3668 -0.9165
 9745TIP3    H229200   1.389   6.229   5.500  0.6967 -0.0846 -0.3405
 9746TIP3   OH229201   0.095   2.157   3.149  0.2952 -0.5712 -0.0147
 9746TIP3    H129202   0.152   2.097   3.101  0.7295 -0.0207 -0.1979
 9746TIP3    H229203   0.115   2.141   3.241  0.8059 -0.3208 -0.0817
 9747TIP3   OH229204   7.083   3.934   2.593  0.3206 -0.6399 -0.5071
 9747TIP3    H129205   7.091   3.858   2.651 -1.6298 -1.3775 -1.0966
 9747TIP3    H229206   7.127   3.907   2.512  2.2006  0.0266  0.2382
 9748TIP3   OH229207   2.311   4.685   2.894  0.1732  0.7545 -0.6058
 9748TIP3    H129208   2.270   4.663   2.978  2.1171 -1.1752 -0.0757
 9748TIP3    H229209   2.349   4.772   2.907  1.0175  0.2118  0.7835
 9749TIP3   OH229210   1.856   3.911   2.731  0.0865  0.1693  0.2020
 9749TIP3    H129211   1.922   3.975   2.706 -1.8226  1.6017 -1.5379
 9749TIP3    H229212   1.793   3.912   2.659 -0.1555 -3.5900  0.1573
   7.20337   6.79141   5.88152   0.00000   0.00000  -2.40113   0.00000  -2.40113  -3.39570
