Title
29212
    1ASP      N    1   2.166   2.992   4.720  0.0744 -0.3024  0.6643
    1ASP    HT1    2   2.122   3.023   4.631 -0.3043 -1.3357  0.4827
    1ASP    HT2    3   2.089   2.963   4.783 -0.2017 -1.8512 -0.3401
    1ASP    HT3    4   2.220   2.909   4.688  3.5320  1.6808  0.7741
    1ASP     CA    5   2.244   3.100   4.782 -0.7920  0.1287  0.4613
    1ASP     HA    6   2.187   3.189   4.805  0.8884  1.5766 -0.5881
    1ASP     CB    7   2.325   3.048   4.909  0.1137 -0.3838 -0.8851
    1ASP    HB1    8   2.380   3.132   4.956  1.1408 -1.5399  0.0105
    1ASP    HB2    9   2.396   2.970   4.874 -0.5544 -1.1686 -0.5172
    1ASP     CG   10   2.236   2.977   5.016  0.1078 -0.9379 -0.3420
    1ASP    OD1   11   2.292   2.934   5.118 -0.5206 -0.6971  0.1549
    1ASP    OD2   12   2.116   2.964   4.991  1.0408  0.5416 -0.1137
    1ASP      C   13   2.349   3.148   4.680  0.0393 -0.0390  0.8239
    1ASP      O   14   2.406   3.072   4.597  0.0525  0.2552  0.4699
    2GLY      N   15   2.365   3.279   4.679  0.4167 -0.6813  0.3028
    2GLY     HN   16   2.323   3.341   4.746  1.3137  0.8778 -0.5093
    2GLY     CA   17   2.444   3.353   4.578 -0.1065 -0.1550 -0.1606
    2GLY    HA1   18   2.533   3.295   4.556 -1.6065 -2.6835  0.0582
    2GLY    HA2   19   2.456   3.457   4.605 -2.6630  0.3650 -0.8057
    2GLY      C   20   2.369   3.369   4.444  0.2196 -0.2308 -0.1520
    2GLY      O   21   2.264   3.309   4.426 -0.0608  0.3208 -0.0574
    3ASP      N   22   2.417   3.469   4.360  0.9495  0.1154 -0.5051
    3ASP     HN   23   2.495   3.521   4.392  0.3710  1.2111 -0.8337
    3ASP     CA   24   2.366   3.515   4.233  0.7806 -0.8583 -0.3915
    3ASP     HA   25   2.263   3.541   4.249  0.7632 -1.4554  0.5357
    3ASP     CB   26   2.440   3.642   4.184  0.4439 -0.2044 -0.2920
    3ASP    HB1   27   2.382   3.686   4.100  0.4792  0.3353 -0.0392
    3ASP    HB2   28   2.546   3.630   4.153  0.8141  0.1430  0.7776
    3ASP     CG   29   2.420   3.753   4.281  0.0260  0.2393  0.1552
    3ASP    OD1   30   2.308   3.763   4.336  0.0902  0.0605 -0.1841
    3ASP    OD2   31   2.518   3.828   4.301 -0.0421 -0.0198 -0.2570
    3ASP      C   32   2.369   3.406   4.127  0.0766  0.1621  0.0613
    3ASP      O   33   2.460   3.319   4.131 -0.4070 -0.1018  1.0034
    4GLY      N   34   2.266   3.407   4.039  0.3944  0.3385 -0.0241
    4GLY     HN   35   2.196   3.478   4.048  0.9756  1.0499 -1.0011
    4GLY     CA   36   2.235   3.307   3.939 -0.1873  0.4388 -0.5135
    4GLY    HA1   37   2.129   3.292   3.926 -0.2613  0.6519 -0.1563
    4GLY    HA2   38   2.281   3.214   3.970  0.2919  0.9978  0.4844
    4GLY      C   39   2.295   3.355   3.812  0.5942  0.2064 -0.2687
    4GLY      O   40   2.346   3.467   3.808  0.5987  0.1757  0.0487
    5PRO      N   41   2.295   3.275   3.711 -0.2162 -0.2266 -0.5529
    5PRO     CD   42   2.266   3.134   3.725  0.4709  0.2637  0.1953
    5PRO    HD1   43   2.158   3.117   3.746  0.0247 -2.6875 -3.4209
    5PRO    HD2   44   2.342   3.097   3.797  2.1396 -0.5906 -1.9040
    5PRO     CA   45   2.338   3.308   3.573 -0.7862 -0.2784  0.0156
    5PRO     HA   46   2.445   3.298   3.581 -0.6786  0.8684  0.2303
    5PRO     CB   47   2.285   3.191   3.491 -0.5587 -0.1288 -0.2889
    5PRO    HB1   48   2.341   3.168   3.398  1.6166  0.7912  0.7170
    5PRO    HB2   49   2.181   3.208   3.454 -0.6355  0.2731  0.0903
    5PRO     CG   50   2.287   3.073   3.585 -0.0647  0.3795  1.0897
    5PRO    HG1   51   2.209   3.003   3.547  1.2277 -0.9535  0.7837
    5PRO    HG2   52   2.388   3.028   3.580  0.9092  2.1313  3.1912
    5PRO      C   53   2.313   3.451   3.524  0.1621  1.0216  0.0855
    5PRO      O   54   2.197   3.493   3.527  0.2444 -0.1272 -0.0898
    6GLY      N   55   2.422   3.516   3.477 -0.3183 -0.2939  0.0801
    6GLY     HN   56   2.501   3.459   3.455 -2.0789 -1.9994 -2.3629
    6GLY     CA   57   2.422   3.656   3.453 -0.5057 -0.3428  0.3217
    6GLY    HA1   58   2.513   3.700   3.491 -1.1888  1.0385  0.4349
    6GLY    HA2   59   2.344   3.697   3.516 -1.8249 -0.8066 -0.9473
    6GLY      C   60   2.388   3.702   3.309  0.3870  0.1871  0.2650
    6GLY      O   61   2.313   3.637   3.236 -0.6847 -0.0892  0.2132
    7ASP      N   62   2.451   3.816   3.263 -0.8546 -0.1142 -0.2850
    7ASP     HN   63   2.514   3.859   3.326  1.2913 -2.6949 -0.4845
    7ASP     CA   64   2.456   3.862   3.122 -0.3950 -0.2535 -0.9548
    7ASP     HA   65   2.356   3.870   3.082 -1.1248  1.1216  0.9793
    7ASP     CB   66   2.527   4.005   3.103  0.5767  0.9159 -0.3694
    7ASP    HB1   67   2.535   4.037   2.997 -0.3010  1.2065 -0.3512
    7ASP    HB2   68   2.632   3.983   3.131  0.4509 -0.9915 -1.2085
    7ASP     CG   69   2.462   4.107   3.196  0.4445  0.2197  0.2903
    7ASP    OD1   70   2.539   4.174   3.270 -0.5220 -0.0741 -0.5648
    7ASP    OD2   71   2.339   4.132   3.174 -0.0761 -0.5859 -0.4143
    7ASP      C   72   2.542   3.762   3.042  0.0977  0.7161  0.0660
    7ASP      O   73   2.635   3.699   3.096 -0.3257 -0.0303  0.5885
    8PRO      N   74   2.513   3.724   2.915  0.1964  0.2114  0.0122
    8PRO     CD   75   2.418   3.793   2.827  0.4464  0.3558  0.3189
    8PRO    HD1   76   2.446   3.900   2.816 -0.0515  0.4586  0.0222
    8PRO    HD2   77   2.322   3.796   2.883 -0.2943  3.2399 -0.9334
    8PRO     CA   78   2.595   3.624   2.849 -0.1108 -0.8070 -0.4804
    8PRO     HA   79   2.604   3.544   2.921 -2.3138  1.1361  2.1628
    8PRO     CB   80   2.507   3.597   2.723  0.2455 -0.4110 -0.0442
    8PRO    HB1   81   2.442   3.506   2.729 -1.8748  0.9626 -0.8221
    8PRO    HB2   82   2.575   3.589   2.636 -1.1079  0.6445 -1.2555
    8PRO     CG   83   2.413   3.714   2.695 -0.0594 -0.3127  0.0534
    8PRO    HG1   84   2.460   3.784   2.623 -0.1730 -1.5142 -1.2370
    8PRO    HG2   85   2.307   3.687   2.676 -0.3018 -0.7486  1.8455
    8PRO      C   86   2.736   3.677   2.809  0.3145  0.3506  0.4643
    8PRO      O   87   2.742   3.776   2.731  0.5509 -0.1835  0.3310
    9GLY      N   88   2.848   3.625   2.852 -0.5275  0.2668  0.4568
    9GLY     HN   89   2.853   3.548   2.915  1.5357  0.3369  0.4260
    9GLY     CA   90   2.979   3.684   2.832 -0.1184  0.5734  0.6556
    9GLY    HA1   91   3.048   3.619   2.884 -0.8301 -0.8244 -0.0980
    9GLY    HA2   92   2.978   3.787   2.863 -1.0590 -0.0787  3.0552
    9GLY      C   93   3.025   3.655   2.687  0.2871 -0.7720 -0.1617
    9GLY      O   94   3.102   3.729   2.627  0.4363 -0.1375  0.2989
   10ASP      N   95   2.982   3.544   2.628  0.6329  0.0307 -0.0400
   10ASP     HN   96   2.907   3.488   2.664 -0.8158  0.1612 -2.5768
   10ASP     CA   97   3.033   3.489   2.511 -0.9081  0.0611  0.7718
   10ASP     HA   98   3.137   3.460   2.515 -1.0805 -1.6837 -2.9621
   10ASP     CB   99   2.966   3.352   2.479 -0.2581 -0.1768  0.2874
   10ASP    HB1  100   3.007   3.308   2.386  0.0688  1.0568 -0.1720
   10ASP    HB2  101   2.857   3.361   2.459  0.0478  2.0391 -0.6924
   10ASP     CG  102   2.999   3.249   2.585 -0.3778  0.5425  0.7624
   10ASP    OD1  103   2.910   3.162   2.612  0.1385 -0.2090  0.8430
   10ASP    OD2  104   3.110   3.250   2.646 -0.0751  0.1892  0.5435
   10ASP      C  105   3.013   3.572   2.378 -0.0567  0.5420  0.3256
   10ASP      O  106   2.913   3.641   2.364  0.0429 -0.0239 -0.3197
   11GLY      N  107   3.103   3.560   2.282 -0.1105 -0.8045 -0.6431
   11GLY     HN  108   3.181   3.499   2.291  0.8653  0.3745 -0.7876
   11GLY     CA  109   3.088   3.642   2.170  0.1410 -0.0633  0.2598
   11GLY    HA1  110   3.062   3.741   2.205  0.4906  0.2484 -0.3509
   11GLY    HA2  111   3.009   3.595   2.114  0.2202 -0.1518  0.2208
   11GLY      C  112   3.214   3.664   2.081  0.3449  0.2068 -0.3030
   11GLY    OT1  113   3.226   3.775   2.017  0.0757  0.2835 -0.7668
   11GLY    OT2  114   3.294   3.572   2.069 -0.3520  0.0027  0.2300
   12SOD    SOD  115   3.071   4.763   4.286  0.1174  0.0515  0.4336
   13SOD    SOD  116   2.226   2.702   5.767  0.1320  0.6397  0.3494
   14SOD    SOD  117   1.438   1.946   3.899  0.9728  0.6645  0.6851
   15SOD    SOD  118   0.427   1.029   3.325  0.6458  0.3731  0.1012
   16SOD    SOD  119   4.852   4.115   3.432  0.2042 -0.6081 -0.4313
   17SOD    SOD  120   2.899   1.860   5.843 -0.3112  0.5133  0.1931
   18SOD    SOD  121   4.721   3.189   0.665  0.6365 -0.2306 -0.0920
   19SOD    SOD  122   6.497   4.006   0.390 -0.5698  0.2515 -0.4060
   20SOD    SOD  123   4.472   6.794   0.024 -0.2672 -0.2994  0.0234
   21SOD    SOD  124   4.822   6.141   5.750 -0.3757 -0.1542  0.2646
   22SOD    SOD  125   5.019   2.359   3.879  0.3811 -0.1259 -0.2775
   23SOD    SOD  126   2.986   1.811   5.074  0.5295 -0.0466 -0.4465
   24SOD    SOD  127   0.204   4.510   4.602  0.0368  0.3529  0.1098
   25SOD    SOD  128   6.999   0.378   4.281  0.0514 -0.2037  0.1546
   26SOD    SOD  129   3.631   6.429   3.443 -0.5498  0.3447 -0.4509
   27SOD    SOD  130   2.359   1.899   1.950 -0.1089  0.1918  0.2039
   28SOD    SOD  131   0.844   4.001   5.848  0.4187  0.5554  0.2939
   29SOD    SOD  132   6.995   5.475   2.421  0.0998 -0.3673 -0.6629
   30SOD    SOD  133   6.744   6.310   3.139  0.1081 -0.7805 -0.2100
   31SOD    SOD  134   4.788   1.138   0.366  0.5191 -0.0338  0.0684
   32SOD    SOD  135   7.120   6.226   0.349  0.0310  0.2902 -0.3109
   33SOD    SOD  136   3.157   4.182   0.171  0.0170  0.1824 -0.1323
   34SOD    SOD  137   1.758   0.875   1.932 -0.0583  0.0181  0.5466
   35SOD    SOD  138   0.482   4.096   2.676 -0.0832  0.2320  0.1581
   36SOD    SOD  139   1.123   5.188   0.150 -0.1329 -0.2624 -0.1544
   37SOD    SOD  140   3.249   1.694   3.396  0.2470  0.1469 -0.2630
   38SOD    SOD  141   1.220   4.445   2.532  0.2074 -0.2369  0.1675
   39SOD    SOD  142   0.129   4.621   3.346 -0.1894  0.1165 -0.1947
   40SOD    SOD  143   5.880   4.655   5.788 -0.0748  0.2941 -0.4808
   41SOD    SOD  144   2.785   2.970   4.682 -0.0379  0.4914  0.6196
   42SOD    SOD  145   2.363   0.074   3.825 -0.1925 -0.2798  0.4052
   43CLA    CLA  146   1.667   4.694   4.313  0.2085  0.3239  0.2061
   44CLA    CLA  147   5.322   5.359   1.252 -0.1283  0.0357 -0.2599
   45CLA    CLA  148   7.070   0.836   1.882 -0.2046  0.0364 -0.6018
   46CLA    CLA  149   1.984   5.789   5.450 -0.1488  0.3046  0.3123
   47CLA    CLA  150   2.515   6.341   2.254 -0.2244  0.5068  0.1501
   48CLA    CLA  151   3.274   1.993   2.279  0.2727 -0.0773 -0.1684
   49CLA    CLA  152   5.542   3.818   2.306 -0.7274  0.0803 -0.1471
   50CLA    CLA  153   5.020   5.885   4.472 -0.3372 -0.0785 -0.0118
   51CLA    CLA  154   0.462   4.903   2.619  0.1632  0.5014 -0.3290
   52CLA    CLA  155   6.403   5.894   2.561  0.3550  0.0907  0.0136
   53CLA    CLA  156   6.954   0.370   4.534  0.4638  0.1860  0.0599
   54CLA    CLA  157   3.580   4.504   3.795  0.1710 -0.0955 -0.4654
   55CLA    CLA  158   4.820   0.715   1.041  0.2701 -0.5279 -0.2559
   56CLA    CLA  159   3.038   0.670   1.287 -0.1201  0.3535  0.0673
   57CLA    CLA  160   7.100   6.333   1.214  0.0164 -0.3599  0.2827
   58CLA    CLA  161   5.826   4.566   4.107  0.0744  0.3186  0.2221
   59CLA    CLA  162   2.149   1.551   4.724  0.1499 -0.0041 -0.2474
   60CLA    CLA  163   1.559   4.679   2.129  0.0989 -0.1167 -0.3095
   61CLA    CLA  164   1.653   1.112   1.178 -0.2963 -0.2509 -0.0374
   62CLA    CLA  165   5.465   6.352   1.885 -0.2735  0.0158 -0.2288
   63CLA    CLA  166   1.203   5.716   4.815  0.3488  0.3134 -0.3413
   64CLA    CLA  167   2.355   1.965   3.766 -0.1518 -0.5166 -0.0981
   65CLA    CLA  168   3.001   6.794   0.582 -0.3668 -0.3105 -0.0181
   66CLA    CLA  169   0.657   6.460   5.883 -0.0070  0.0351 -0.4651
   67CLA    CLA  170   4.818   2.407   3.674 -0.3396 -0.1621 -0.0185
   68CLA    CLA  171   1.943   2.344   4.691  0.2933 -0.2772  0.5171
   69CLA    CLA  172   3.891   2.818   5.334 -0.0713  0.0914  0.2883
   70TIP3   OH2  173   0.599   6.581   0.685  0.2525  0.4309  0.2634
   70TIP3    H1  174   0.611   6.641   0.759 -1.3086 -0.1600  1.0371
   70TIP3    H2  175   0.517   6.536   0.704  0.8054 -1.1356 -0.8688
   71TIP3   OH2  176   2.833   4.516   3.810 -0.2322  0.3461  0.2396
   71TIP3    H1  177   2.772   4.568   3.863  0.2271  1.1065  0.0309
   71TIP3    H2  178   2.909   4.503   3.866  0.3205  1.2865 -0.2748
   72TIP3   OH2  179   0.313   0.475   5.282 -0.2826 -0.6374 -0.4403
   72TIP3    H1  180   0.236   0.419   5.282 -1.8741  1.3637  1.0207
   72TIP3    H2  181   0.287   0.551   5.230  0.4065  0.3872  0.6533
   73TIP3   OH2  182   0.776   5.326   1.166  0.6232 -0.0599 -0.5439
   73TIP3    H1  183   0.697   5.372   1.137 -0.3641 -0.6290  1.0940
   73TIP3    H2  184   0.749   5.280   1.246  2.8823  0.5385  0.6439
   74TIP3   OH2  185   0.702   3.705   4.344 -0.0092 -0.1208 -0.0529
   74TIP3    H1  186   0.636   3.718   4.412  0.4137  0.4856  0.2496
   74TIP3    H2  187   0.745   3.623   4.367  1.7117  1.2106  1.7670
   75TIP3   OH2  188   1.251   2.312   1.505 -0.3040  0.2772  0.7196
   75TIP3    H1  189   1.310   2.324   1.579 -0.1074  0.2142  0.5749
   75TIP3    H2  190   1.194   2.240   1.530  1.0395 -1.0902  0.0240
   76TIP3   OH2  191   4.028   0.267   5.543  0.1262  0.3790 -0.2635
   76TIP3    H1  192   4.009   0.282   5.450  2.0140 -3.4625 -1.4975
   76TIP3    H2  193   3.991   0.180   5.560  1.3804  0.2433  2.1000
   77TIP3   OH2  194   6.448   6.695   1.577 -0.2045  0.5973 -0.2336
   77TIP3    H1  195   6.361   6.733   1.563 -0.0779  1.4193  1.0060
   77TIP3    H2  196   6.438   6.641   1.655  0.1881 -0.0219 -0.6071
   78TIP3   OH2  197   4.468   0.912   2.042 -0.5269  0.5141  0.2673
   78TIP3    H1  198   4.437   0.993   2.001 -0.4723  0.2262 -0.3666
   78TIP3    H2  199   4.389   0.868   2.072 -0.7066  0.0628 -0.8118
   79TIP3   OH2  200   5.205   2.020   4.222  0.5390 -0.6459 -0.1203
   79TIP3    H1  201   5.259   2.054   4.294  1.0902 -1.5194 -0.1089
   79TIP3    H2  202   5.150   1.953   4.263 -1.2943  0.8989  0.0727
   80TIP3   OH2  203   0.294   4.894   1.474 -0.1265 -0.5006  0.2626
   80TIP3    H1  204   0.269   4.928   1.560 -0.6762 -1.7046  0.6073
   80TIP3    H2  205   0.351   4.819   1.494  0.9031  0.0537 -0.4629
   81TIP3   OH2  206   5.765   3.918   2.825 -0.2937 -0.7762  0.3811
   81TIP3    H1  207   5.745   3.904   2.733 -1.5644 -1.2282  0.7083
   81TIP3    H2  208   5.859   3.901   2.832 -0.2385 -1.0086 -0.7709
   82TIP3   OH2  209   5.497   3.325   4.046  0.1480 -0.4365  0.1973
   82TIP3    H1  210   5.488   3.302   4.138  0.6739 -0.7619  0.1740
   82TIP3    H2  211   5.408   3.333   4.013 -0.0815  1.3483  1.1446
   83TIP3   OH2  212   1.718   2.565   4.633 -0.0489 -0.3797 -0.2794
   83TIP3    H1  213   1.778   2.492   4.643 -0.2295 -0.4614  0.2094
   83TIP3    H2  214   1.736   2.599   4.545 -0.9706 -1.9123 -1.1002
   84TIP3   OH2  215   3.293   2.746   1.817 -0.0083  0.3013 -0.0848
   84TIP3    H1  216   3.262   2.760   1.907 -0.2712 -0.6481 -0.0203
   84TIP3    H2  217   3.266   2.824   1.770 -0.0923  0.6960  0.6023
   85TIP3   OH2  218   3.303   3.647   3.750 -0.0630  0.0378  0.1800
   85TIP3    H1  219   3.321   3.711   3.681 -0.3084 -0.6478 -0.5378
   85TIP3    H2  220   3.345   3.684   3.828  1.2267  0.2826 -0.5873
   86TIP3   OH2  221   6.551   5.525   0.535 -0.4350  0.1596  0.7106
   86TIP3    H1  222   6.628   5.505   0.588 -1.1623 -0.7482  1.4901
   86TIP3    H2  223   6.499   5.585   0.590 -0.9353 -0.3489  0.8065
   87TIP3   OH2  224   2.904   2.343   1.288 -0.0399 -0.0983 -0.0626
   87TIP3    H1  225   2.924   2.399   1.213  0.2760 -0.3040 -0.1320
   87TIP3    H2  226   2.811   2.359   1.305 -0.1985 -0.2898 -0.7047
   88TIP3   OH2  227   5.704   4.092   5.769  0.2173 -0.2650  0.2791
   88TIP3    H1  228   5.772   4.143   5.725 -0.2653 -0.7610 -1.1091
   88TIP3    H2  229   5.746   4.060   5.849  1.2864  0.2805 -0.0427
   89TIP3   OH2  230   1.447   3.254   0.688 -0.1678 -0.1238  0.0114
   89TIP3    H1  231   1.425   3.272   0.779 -0.0027 -0.0108  0.0292
   89TIP3    H2  232   1.527   3.304   0.672 -0.9955  1.0619 -0.6276
   90TIP3   OH2  233   4.003   5.672   4.912 -0.2410  0.1080  0.2409
   90TIP3    H1  234   3.918   5.717   4.918  0.3152  1.0519  1.6683
   90TIP3    H2  235   4.048   5.715   4.839 -0.8154 -0.1023 -0.2456
   91TIP3   OH2  236   3.044   4.409   4.201  0.1055 -0.3083  0.3438
   91TIP3    H1  237   3.073   4.422   4.291  0.8314 -1.7816  0.3607
   91TIP3    H2  238   3.126   4.399   4.151 -0.2903  0.3660 -0.4658
   92TIP3   OH2  239   2.697   0.364   2.158 -0.1946 -0.7519  0.4295
   92TIP3    H1  240   2.686   0.339   2.066  0.5293  2.2884 -0.6405
   92TIP3    H2  241   2.609   0.384   2.189 -0.3740 -1.1696  0.1918
   93TIP3   OH2  242   1.933   1.382   2.996  0.1440  0.3212 -0.5041
   93TIP3    H1  243   1.898   1.392   2.907 -0.3260 -0.1886 -0.3808
   93TIP3    H2  244   2.007   1.322   2.986 -0.6106 -0.6400 -0.3884
   94TIP3   OH2  245   2.425   2.672   0.601 -0.1026 -0.3745 -0.2607
   94TIP3    H1  246   2.497   2.703   0.547 -1.0742 -0.3626 -1.6089
   94TIP3    H2  247   2.351   2.727   0.577 -0.5270 -0.2185  1.2765
   95TIP3   OH2  248   3.846   2.700   3.103 -0.0888 -0.3716  0.1194
   95TIP3    H1  249   3.794   2.766   3.149  2.0339  0.0649  2.1243
   95TIP3    H2  250   3.857   2.735   3.015  0.3939  1.6981  0.9338
   96TIP3   OH2  251   4.710   3.688   0.327  0.2586 -0.5453  0.3206
   96TIP3    H1  252   4.760   3.641   0.394 -1.7411 -1.4636  1.2525
   96TIP3    H2  253   4.731   3.781   0.342  1.2535 -0.8612  1.0070
   97TIP3   OH2  254   6.645   0.803   2.106  0.7293  0.3971 -0.0564
   97TIP3    H1  255   6.687   0.766   2.029 -0.1639 -2.8205  0.8621
   97TIP3    H2  256   6.553   0.776   2.099  0.0648  2.2239  0.8980
   98TIP3   OH2  257   4.507   4.754   5.077  0.4869  0.5990  0.4257
   98TIP3    H1  258   4.601   4.767   5.073  0.4594  0.6962  0.0062
   98TIP3    H2  259   4.495   4.659   5.067  0.5509  0.5510  0.7748
   99TIP3   OH2  260   6.583   6.232   5.830  0.1648  0.3413  0.3612
   99TIP3    H1  261   6.522   6.201   5.763  0.1797 -0.5256  0.7350
   99TIP3    H2  262   6.652   6.165   5.831 -0.2894 -0.1401  1.8652
  100TIP3   OH2  263   1.370   6.779   2.873  0.2472 -0.0691 -0.9739
  100TIP3    H1  264   1.416   6.748   2.795 -0.8438 -0.8798 -1.3182
  100TIP3    H2  265   1.280   6.749   2.862 -1.0720  3.5877 -1.5320
  101TIP3   OH2  266   4.293   4.818   0.436 -0.5130  0.3688  0.2018
  101TIP3    H1  267   4.274   4.902   0.394  1.6043  1.8079  1.8753
  101TIP3    H2  268   4.259   4.827   0.525 -0.7554 -0.7938  0.2483
  102TIP3   OH2  269   0.389   0.760  -0.009  0.3177 -0.2499 -0.0224
  102TIP3    H1  270   0.341   0.782   0.071 -1.6679 -1.1664 -0.8925
  102TIP3    H2  271   0.366   0.669  -0.026  1.0829 -0.2104 -1.3917
  103TIP3   OH2  272   2.319   2.322   0.850 -0.2844 -0.0683 -0.7933
  103TIP3    H1  273   2.403   2.365   0.865 -0.2098 -0.4235 -0.1265
  103TIP3    H2  274   2.315   2.309   0.756  0.6975 -0.6110 -0.7715
  104TIP3   OH2  275   4.538   5.602   3.370  0.2045  0.3168 -0.4276
  104TIP3    H1  276   4.530   5.529   3.308  0.6881 -0.0014 -0.1171
  104TIP3    H2  277   4.627   5.596   3.404 -0.2802  0.0360  0.8581
  105TIP3   OH2  278   0.075   4.667   5.586  0.7067  0.0695 -0.4521
  105TIP3    H1  279   0.061   4.746   5.638  2.0551 -0.2757  0.4961
  105TIP3    H2  280   0.168   4.668   5.564  0.6459 -0.9886 -0.8393
  106TIP3   OH2  281   4.170   1.958   1.826  0.5235  0.2001 -0.0935
  106TIP3    H1  282   4.193   2.036   1.777  1.5473  1.3424  2.0703
  106TIP3    H2  283   4.112   1.990   1.895  1.1177 -0.9138  0.9519
  107TIP3   OH2  284   0.216   2.331   0.928 -0.3307  0.0753 -0.1156
  107TIP3    H1  285   0.282   2.306   0.864  0.9724 -0.0379  1.2179
  107TIP3    H2  286   0.163   2.396   0.883  0.7568  0.2484 -1.2045
  108TIP3   OH2  287   6.386   1.946   4.614 -0.2590 -0.5347 -0.3420
  108TIP3    H1  288   6.448   1.885   4.654  0.8951 -0.2537 -1.6138
  108TIP3    H2  289   6.317   1.957   4.679  1.4041 -0.2738  1.4588
  109TIP3   OH2  290   3.282   0.588   2.316 -0.0361 -0.7108 -0.3877
  109TIP3    H1  291   3.280   0.682   2.297  3.4200 -0.1214  1.3157
  109TIP3    H2  292   3.191   0.564   2.332 -1.0996  2.1650 -1.5150
  110TIP3   OH2  293   4.038   4.994   0.755 -0.0403  0.2831 -0.1426
  110TIP3    H1  294   4.094   5.061   0.795  0.0787  0.8439 -1.2148
  110TIP3    H2  295   4.010   5.033   0.671  0.7060 -1.3356 -1.1762
  111TIP3   OH2  296   2.835   4.005   1.969  0.2309  0.6326 -0.3105
  111TIP3    H1  297   2.910   3.996   2.027  0.5561 -0.9587 -0.9270
  111TIP3    H2  298   2.862   3.961   1.888 -2.1224 -2.0401  0.2024
  112TIP3   OH2  299   0.977   3.333   2.086 -0.4282  0.4015  0.0472
  112TIP3    H1  300   0.899   3.369   2.043 -0.7819 -0.5589 -0.1349
  112TIP3    H2  301   1.037   3.313   2.014 -0.3760  0.2786  0.1260
  113TIP3   OH2  302   0.320   4.246   2.552  0.2984  0.1027  0.5489
  113TIP3    H1  303   0.375   4.323   2.541  1.4554 -0.5473  1.4722
  113TIP3    H2  304   0.246   4.276   2.605  0.5400  0.6629  0.5712
  114TIP3   OH2  305   4.194   3.956   2.770  0.7127  0.4275 -0.0237
  114TIP3    H1  306   4.129   3.912   2.716  0.2680  0.7361  0.2479
  114TIP3    H2  307   4.168   4.048   2.767  0.6216  0.4325  0.7904
  115TIP3   OH2  308   2.028   5.396   2.600 -0.0053  0.5380  0.1290
  115TIP3    H1  309   2.121   5.380   2.587 -0.1564 -0.9341  0.7025
  115TIP3    H2  310   2.004   5.455   2.529  1.5729  1.8085  0.5881
  116TIP3   OH2  311   2.332   6.697   0.054  0.1840 -0.3437  0.0505
  116TIP3    H1  312   2.289   6.667   0.134 -1.9582  0.0981 -0.8677
  116TIP3    H2  313   2.353   6.617   0.006 -0.1962 -0.5595  0.2377
  117TIP3   OH2  314   0.784   5.731   2.913  0.4473  0.2472  0.2567
  117TIP3    H1  315   0.790   5.663   2.980 -0.2933  0.1468  0.2294
  117TIP3    H2  316   0.728   5.693   2.845  4.1675 -1.2620 -2.3575
  118TIP3   OH2  317   1.945   5.639   2.479 -0.3232  0.1289  0.3593
  118TIP3    H1  318   1.949   5.676   2.567  0.8743  2.0133 -0.4298
  118TIP3    H2  319   1.992   5.702   2.424  0.8934 -2.0761 -1.2822
  119TIP3   OH2  320   5.112   4.391   4.369 -0.2812 -0.0542 -0.0440
  119TIP3    H1  321   5.037   4.334   4.387  1.3770 -2.1596  0.6761
  119TIP3    H2  322   5.097   4.468   4.424 -1.0823 -1.2249  1.4800
  120TIP3   OH2  323   4.326   4.489   4.815  0.2034  0.2251 -0.1036
  120TIP3    H1  324   4.249   4.449   4.777 -1.0292  1.0546  1.3912
  120TIP3    H2  325   4.364   4.541   4.744 -0.6430 -0.1366 -0.8353
  121TIP3   OH2  326   6.995   2.604   2.226 -0.3690  0.0915 -0.4397
  121TIP3    H1  327   7.049   2.680   2.205  1.5117 -1.0342  0.0505
  121TIP3    H2  328   7.058   2.533   2.237 -2.0648 -1.5791 -1.0141
  122TIP3   OH2  329   0.746   4.937   5.145  0.7129  0.7690  0.3320
  122TIP3    H1  330   0.687   4.978   5.081 -0.6451 -0.3657  0.7929
  122TIP3    H2  331   0.776   5.009   5.199 -1.4398  1.2537  0.9850
  123TIP3   OH2  332   0.629   0.825   4.158  0.1985  0.1207  0.1618
  123TIP3    H1  333   0.596   0.906   4.197  0.2498  0.1084  0.2306
  123TIP3    H2  334   0.557   0.794   4.103 -0.6382 -0.9097  1.7510
  124TIP3   OH2  335   0.799   2.428   5.825 -0.0174 -0.3896 -0.6570
  124TIP3    H1  336   0.795   2.356   5.762 -0.0903 -0.8032 -0.1872
  124TIP3    H2  337   0.836   2.389   5.904  0.8418  0.3085 -0.6900
  125TIP3   OH2  338   6.579   4.530   1.386  0.0845 -0.0611  0.5046
  125TIP3    H1  339   6.604   4.500   1.298  1.1713 -0.2300  0.8560
  125TIP3    H2  340   6.556   4.450   1.433  1.3920 -0.2078  0.9438
  126TIP3   OH2  341   0.503   5.771   1.756 -0.3934  0.7058  0.3958
  126TIP3    H1  342   0.558   5.698   1.783 -1.4363  0.6337  2.4793
  126TIP3    H2  343   0.527   5.843   1.814 -1.6949  1.0135  0.5898
  127TIP3   OH2  344   0.081   3.031   0.455  0.1050 -0.0866  0.1171
  127TIP3    H1  345   0.136   3.057   0.529  1.1558 -1.0039 -0.3090
  127TIP3    H2  346   0.140   2.982   0.398 -0.3413  1.7602 -2.0281
  128TIP3   OH2  347   2.837   6.104   1.585  0.1867 -0.6348 -0.5530
  128TIP3    H1  348   2.789   6.131   1.507 -0.9070  0.4871  0.4553
  128TIP3    H2  349   2.795   6.023   1.612  0.3113 -0.8184 -0.9006
  129TIP3   OH2  350   2.069   1.281   0.664 -0.1565 -0.6710  0.5473
  129TIP3    H1  351   1.979   1.247   0.671 -0.9851  0.6073 -2.2839
  129TIP3    H2  352   2.057   1.373   0.641  1.9534 -0.0362  1.7784
  130TIP3   OH2  353   6.237   5.795   4.358  0.0557  0.1852 -0.1392
  130TIP3    H1  354   6.320   5.823   4.398  0.4760  0.0271 -0.8920
  130TIP3    H2  355   6.204   5.727   4.418  0.2216  0.5942  0.4252
  131TIP3   OH2  356   4.161   1.288   4.957 -0.3924  0.7058 -0.1466
  131TIP3    H1  357   4.069   1.284   4.981 -0.1770  2.4764  1.1765
  131TIP3    H2  358   4.195   1.365   5.002  1.5823  0.5227 -1.1719
  132TIP3   OH2  359   1.594   6.764   3.666 -0.2300  0.0661  0.3070
  132TIP3    H1  360   1.548   6.685   3.695  1.9067 -1.4310 -0.1585
  132TIP3    H2  361   1.645   6.792   3.741 -1.7690  1.7188  0.8177
  133TIP3   OH2  362   5.612   4.485   5.315 -0.1293  0.4260 -0.3288
  133TIP3    H1  363   5.607   4.498   5.221 -0.7041  0.2889 -0.3196
  133TIP3    H2  364   5.595   4.571   5.352  1.2582  0.7372 -0.3633
  134TIP3   OH2  365   6.467   6.337   2.775  0.0847  0.4546 -0.7526
  134TIP3    H1  366   6.423   6.256   2.798  1.1705  0.0491 -0.0308
  134TIP3    H2  367   6.436   6.357   2.686 -1.1464 -0.0619 -0.4573
  135TIP3   OH2  368   5.898   4.387   5.752 -0.5561  0.1831  0.3667
  135TIP3    H1  369   5.916   4.316   5.813 -0.7551  1.0233  1.4362
  135TIP3    H2  370   5.961   4.375   5.681  0.9692  0.2567  1.6485
  136TIP3   OH2  371   5.497   1.946   2.468 -0.9573  0.3565 -0.0921
  136TIP3    H1  372   5.577   1.921   2.514 -0.3319 -0.3688 -1.5262
  136TIP3    H2  373   5.523   2.020   2.414 -1.1737 -0.0784 -0.7986
  137TIP3   OH2  374   4.909   5.180   2.924  0.0582  0.2157 -0.4471
  137TIP3    H1  375   4.918   5.267   2.884  1.6155 -0.2441 -1.1697
  137TIP3    H2  376   4.996   5.161   2.960 -0.3782 -0.8582  0.0839
  138TIP3   OH2  377   6.204   1.355   3.924 -0.3516  0.2413  0.1606
  138TIP3    H1  378   6.193   1.261   3.939 -0.6670  0.0197 -1.3468
  138TIP3    H2  379   6.171   1.370   3.835 -1.0674  1.9233  0.6573
  139TIP3   OH2  380   6.169   0.800   2.329  0.0760  1.5060  0.0825
  139TIP3    H1  381   6.141   0.851   2.405 -2.2481 -0.4394  0.6740
  139TIP3    H2  382   6.092   0.800   2.272  0.4597 -0.1994 -0.4897
  140TIP3   OH2  383   2.287   2.917   4.336  0.7857 -0.9981 -0.5507
  140TIP3    H1  384   2.231   2.993   4.320  1.3331 -0.0956  1.4696
  140TIP3    H2  385   2.363   2.930   4.280  1.0354  0.1552  0.0241
  141TIP3   OH2  386   1.400   2.573   2.813  0.3656 -0.6124  0.3956
  141TIP3    H1  387   1.382   2.540   2.901  0.4333 -0.2498  0.5481
  141TIP3    H2  388   1.327   2.633   2.795  0.5332 -0.4221  0.3459
  142TIP3   OH2  389   4.140   6.256   4.171  0.5649 -0.1411  0.0236
  142TIP3    H1  390   4.085   6.263   4.249  0.3231  1.6429 -0.2578
  142TIP3    H2  391   4.215   6.203   4.198  0.1022 -0.2014  1.2302
  143TIP3   OH2  392   2.831   0.795   5.499  0.1741  0.4592  0.4254
  143TIP3    H1  393   2.894   0.758   5.561  0.1758  0.5909  0.5016
  143TIP3    H2  394   2.885   0.833   5.430  0.1971 -1.9370 -1.0222
  144TIP3   OH2  395   2.322   5.155   3.110  0.6329  0.5731 -0.2042
  144TIP3    H1  396   2.300   5.140   3.202 -2.2133 -0.9262 -1.0158
  144TIP3    H2  397   2.368   5.076   3.083 -2.6903 -1.2569 -1.1155
  145TIP3   OH2  398   5.439   3.498   3.081 -0.1645 -0.2389  0.5177
  145TIP3    H1  399   5.343   3.502   3.079 -0.1545  0.1275  0.7188
  145TIP3    H2  400   5.468   3.569   3.025 -0.0060  0.4080  1.4041
  146TIP3   OH2  401   5.307   4.045   0.979 -0.3493 -0.2343  0.0711
  146TIP3    H1  402   5.298   3.999   0.896  0.9281 -0.4106  0.0115
  146TIP3    H2  403   5.337   4.133   0.956 -3.9719  1.1649  0.0945
  147TIP3   OH2  404   4.434   3.880   5.133 -0.1277 -0.1142  0.4836
  147TIP3    H1  405   4.517   3.833   5.143 -0.4798 -0.4982  1.8550
  147TIP3    H2  406   4.367   3.811   5.132 -0.5364  0.2640  0.9732
  148TIP3   OH2  407   4.846   6.332   2.620 -0.7710  0.4344  0.2996
  148TIP3    H1  408   4.771   6.285   2.657  0.4710  0.2166  2.7574
  148TIP3    H2  409   4.920   6.271   2.630  0.2848  1.7145  0.6717
  149TIP3   OH2  410   0.444   3.144   5.654  0.3447  0.2575  0.8622
  149TIP3    H1  411   0.375   3.192   5.701  0.6516  0.6067  0.9598
  149TIP3    H2  412   0.520   3.151   5.711  0.1711 -1.0882  1.3000
  150TIP3   OH2  413   5.571   2.308   4.996 -0.0238  0.1976 -0.3274
  150TIP3    H1  414   5.479   2.282   5.002  0.3299 -0.9267  0.6092
  150TIP3    H2  415   5.620   2.228   5.017  1.1325  1.0934  0.5302
  151TIP3   OH2  416   1.440   6.232   3.487 -0.7041 -0.4449  0.3886
  151TIP3    H1  417   1.477   6.267   3.568  1.0838  0.9142 -0.9522
  151TIP3    H2  418   1.406   6.146   3.513  0.4577 -0.3698  2.4422
  152TIP3   OH2  419   7.033   1.158   2.452  0.1785 -0.0447 -0.1734
  152TIP3    H1  420   7.097   1.222   2.419 -0.5305  1.9034  1.9457
  152TIP3    H2  421   6.989   1.125   2.374  2.0570  0.3961 -1.4996
  153TIP3   OH2  422   3.034   5.836   3.914 -0.2898 -0.1797 -0.7262
  153TIP3    H1  423   2.966   5.828   3.846  0.6946  0.6712 -1.8483
  153TIP3    H2  424   3.089   5.908   3.885  1.3159 -1.0658 -0.0339
  154TIP3   OH2  425   5.832   2.051   1.893  0.1351  0.2739  0.2832
  154TIP3    H1  426   5.876   2.065   1.977  0.4263 -0.8804  0.3411
  154TIP3    H2  427   5.792   2.135   1.872 -0.2936  0.4702  1.7915
  155TIP3   OH2  428   0.403   3.134   3.646  1.0094 -0.2715 -0.2391
  155TIP3    H1  429   0.458   3.061   3.619  2.5415  0.8449 -0.2224
  155TIP3    H2  430   0.445   3.211   3.610 -0.1377  0.6923  0.4130
  156TIP3   OH2  431   4.871   2.210   2.346 -0.0525  0.7647  0.1952
  156TIP3    H1  432   4.791   2.169   2.379  0.2461  0.5050  0.6113
  156TIP3    H2  433   4.933   2.205   2.419  0.5284  0.4332 -0.3030
  157TIP3   OH2  434   4.109   2.638   4.140  1.0432 -0.3725  0.4627
  157TIP3    H1  435   4.101   2.543   4.154  0.5356 -0.1339  1.9675
  157TIP3    H2  436   4.081   2.651   4.050  2.5160 -1.8209 -0.2768
  158TIP3   OH2  437   0.817   2.520   5.502 -0.5730 -0.2495  0.2879
  158TIP3    H1  438   0.832   2.607   5.539 -1.2494 -0.3824  0.8894
  158TIP3    H2  439   0.758   2.534   5.428 -0.1095 -0.1177 -0.0621
  159TIP3   OH2  440   0.994   4.611   4.582  0.1887 -0.1576  0.3469
  159TIP3    H1  441   0.972   4.537   4.525 -2.3429  1.0703 -0.4098
  159TIP3    H2  442   1.064   4.657   4.536 -1.5647  0.6061 -1.7340
  160TIP3   OH2  443   0.639   0.142   4.258  0.0030  0.1624  0.2158
  160TIP3    H1  444   0.546   0.163   4.256  0.4366  2.6441  1.7893
  160TIP3    H2  445   0.650   0.075   4.191 -3.4433 -2.7342  2.1664
  161TIP3   OH2  446   4.308   1.218   3.604  0.1652  0.2011 -0.0199
  161TIP3    H1  447   4.399   1.191   3.593  0.2948  0.3227  0.7390
  161TIP3    H2  448   4.256   1.143   3.573  0.5183  0.2782 -0.8089
  162TIP3   OH2  449   7.063   5.648   5.108 -0.2686  0.0905 -0.0023
  162TIP3    H1  450   6.969   5.663   5.116 -0.9022 -2.6174 -1.2460
  162TIP3    H2  451   7.076   5.626   5.016  1.2330 -1.5877  0.5553
  163TIP3   OH2  452   4.715   1.426   2.313 -0.5242 -0.3665  0.2982
  163TIP3    H1  453   4.681   1.513   2.288 -0.2828 -0.4451 -0.3237
  163TIP3    H2  454   4.785   1.445   2.374  0.0823 -0.0703 -0.4675
  164TIP3   OH2  455   1.982   5.331   1.179 -0.6280  0.2787 -0.5426
  164TIP3    H1  456   1.991   5.235   1.181  2.2766  0.4586  0.7837
  164TIP3    H2  457   1.904   5.349   1.230 -0.2066 -1.3629  0.7768
  165TIP3   OH2  458   4.509   6.790   5.562 -0.3138 -0.1642 -1.0206
  165TIP3    H1  459   4.524   6.772   5.470 -0.9063 -1.4123 -0.8903
  165TIP3    H2  460   4.540   6.712   5.608 -1.5189 -0.2515 -0.2988
  166TIP3   OH2  461   1.961   1.984   5.019 -0.2356  0.5047 -0.1875
  166TIP3    H1  462   1.997   1.937   5.095  0.9998 -1.2397 -1.7514
  166TIP3    H2  463   1.883   1.934   4.995  0.9420 -0.7103 -1.7048
  167TIP3   OH2  464   5.460   6.724   2.580  0.0187  0.3473  0.1134
  167TIP3    H1  465   5.478   6.648   2.635 -1.0433 -0.5708 -0.7452
  167TIP3    H2  466   5.437   6.794   2.641 -1.5468 -0.7576  0.8519
  168TIP3   OH2  467   5.650   1.287   4.996  0.3503 -0.1663  0.0743
  168TIP3    H1  468   5.701   1.345   5.051 -1.1369  2.2293 -0.9093
  168TIP3    H2  469   5.688   1.297   4.908 -0.5346  0.0988 -0.2907
  169TIP3   OH2  470   3.696   1.588   2.947  0.0643 -0.4136  0.1480
  169TIP3    H1  471   3.729   1.636   2.871 -1.3179 -0.5049 -0.5383
  169TIP3    H2  472   3.718   1.496   2.928  0.5946 -0.3323  0.3406
  170TIP3   OH2  473   5.094   6.441   5.574 -0.2635  0.4550  0.1549
  170TIP3    H1  474   5.053   6.489   5.503  0.3398  0.6624 -0.0524
  170TIP3    H2  475   5.185   6.470   5.575 -0.2236  0.3425  0.9105
  171TIP3   OH2  476   3.538   6.291   0.198  0.1648  0.5148 -0.1539
  171TIP3    H1  477   3.500   6.205   0.217  0.0726  0.4723 -0.5281
  171TIP3    H2  478   3.593   6.277   0.121  1.6537  0.3820  0.8897
  172TIP3   OH2  479   2.425   0.746   3.379 -0.2107  0.1894  0.3078
  172TIP3    H1  480   2.468   0.824   3.415  0.2913 -0.8146  2.0327
  172TIP3    H2  481   2.487   0.714   3.313  0.6794  0.0213  1.1858
  173TIP3   OH2  482   5.792   5.713   4.985  0.0538  0.8098 -0.2900
  173TIP3    H1  483   5.853   5.782   5.013 -0.7193  1.6879 -0.6946
  173TIP3    H2  484   5.841   5.662   4.921  0.8056  0.6735  0.3846
  174TIP3   OH2  485   0.951   4.043   1.153  0.4812  0.3095 -0.9166
  174TIP3    H1  486   1.023   4.002   1.106  0.4744  1.4991 -2.0194
  174TIP3    H2  487   0.902   4.091   1.085 -1.1441 -0.1746 -0.1490
  175TIP3   OH2  488   6.278   5.574   3.128 -0.3136  0.1388  0.3907
  175TIP3    H1  489   6.187   5.596   3.109 -0.3695  1.1776  1.7244
  175TIP3    H2  490   6.273   5.500   3.189 -0.2437 -0.2374 -0.0563
  176TIP3   OH2  491   2.274   3.351   0.949 -0.0324  0.4511 -0.1604
  176TIP3    H1  492   2.239   3.262   0.940  1.9469 -0.2882 -1.1084
  176TIP3    H2  493   2.252   3.394   0.867 -1.4791  1.0665  0.5144
  177TIP3   OH2  494   6.681   4.601   0.515  0.0578 -0.4384 -0.6417
  177TIP3    H1  495   6.655   4.540   0.585 -2.0053  0.3901 -0.6204
  177TIP3    H2  496   6.723   4.673   0.561 -0.3252 -0.4014 -0.3392
  178TIP3   OH2  497   5.270   3.587   3.394 -0.3391 -0.0990 -0.1774
  178TIP3    H1  498   5.234   3.574   3.307  2.3465  1.2961 -1.6167
  178TIP3    H2  499   5.277   3.681   3.405  0.3402 -0.2641  1.1103
  179TIP3   OH2  500   2.955   2.179   2.583  0.4222  0.7444 -0.0433
  179TIP3    H1  501   2.968   2.177   2.489 -1.1529  0.2777 -0.2844
  179TIP3    H2  502   2.956   2.088   2.610  1.1096  0.8882  0.4360
  180TIP3   OH2  503   4.664   4.429   2.020 -0.2986  0.0609 -0.4196
  180TIP3    H1  504   4.690   4.511   2.062  1.3115  0.6197 -2.3605
  180TIP3    H2  505   4.577   4.411   2.055 -0.2171  1.9578  0.9420
  181TIP3   OH2  506   0.921   6.710   5.256  0.1848  0.0048 -0.6559
  181TIP3    H1  507   0.871   6.790   5.268 -0.3662 -0.5028  0.5798
  181TIP3    H2  508   0.954   6.688   5.344  2.9426  0.5342 -1.4521
  182TIP3   OH2  509   3.235   2.844   2.499 -0.2668  0.4881  0.2378
  182TIP3    H1  510   3.190   2.909   2.445  1.3966 -1.0641 -3.3681
  182TIP3    H2  511   3.266   2.892   2.575 -2.4178  2.9640 -0.3112
  183TIP3   OH2  512   0.774   3.548   3.914  0.1719 -0.1068  0.0382
  183TIP3    H1  513   0.759   3.624   3.971 -1.8171  1.1799 -2.0420
  183TIP3    H2  514   0.787   3.585   3.827 -3.8552 -2.0321 -1.6756
  184TIP3   OH2  515   4.117   5.236   0.840  0.4882  0.2703 -0.3637
  184TIP3    H1  516   4.029   5.228   0.877  0.6622 -0.3243 -0.0650
  184TIP3    H2  517   4.153   5.315   0.879 -0.0136  0.6623 -0.6929
  185TIP3   OH2  518   5.535   4.207   3.550 -0.1642  0.0686  0.3926
  185TIP3    H1  519   5.553   4.120   3.514 -1.4819  0.6470 -1.9129
  185TIP3    H2  520   5.610   4.226   3.606  1.7259 -1.2759 -1.4987
  186TIP3   OH2  521   5.989   4.939   5.117 -0.0990  0.0634  0.3951
  186TIP3    H1  522   5.917   4.912   5.060  0.9466 -0.1560 -0.8829
  186TIP3    H2  523   5.947   4.975   5.194 -1.5913  0.9586 -0.7914
  187TIP3   OH2  524   3.318   3.354   1.934  0.5954 -0.9922  0.3040
  187TIP3    H1  525   3.410   3.361   1.908  0.4600  0.2034  0.1005
  187TIP3    H2  526   3.307   3.422   2.000 -0.8265  0.8031 -1.6776
  188TIP3   OH2  527   5.133   2.527   0.402 -0.4805 -0.6923 -0.4512
  188TIP3    H1  528   5.169   2.478   0.476 -0.0472  0.1128 -0.1151
  188TIP3    H2  529   5.050   2.484   0.384 -0.8114 -0.6384  0.7979
  189TIP3   OH2  530   4.989   1.375   1.893 -0.0348  0.1975  0.4362
  189TIP3    H1  531   4.958   1.339   1.810  0.2556 -0.7341  0.7242
  189TIP3    H2  532   4.944   1.324   1.960  0.0624  0.6519  0.8515
  190TIP3   OH2  533   4.395   2.377   0.578  0.0126 -0.7648 -0.2540
  190TIP3    H1  534   4.452   2.379   0.655  1.0422 -2.1959 -0.9378
  190TIP3    H2  535   4.308   2.360   0.612  0.3589 -0.7952  0.6410
  191TIP3   OH2  536   5.913   1.321   4.340 -0.0050 -0.2083 -0.0493
  191TIP3    H1  537   5.870   1.386   4.396 -0.5151 -0.1592 -0.4848
  191TIP3    H2  538   6.005   1.348   4.339 -0.1155  0.1960  0.2042
  192TIP3   OH2  539   1.434   0.759   2.704 -0.2531 -0.3697  0.3787
  192TIP3    H1  540   1.490   0.791   2.775 -0.0913 -0.4310  0.2786
  192TIP3    H2  541   1.433   0.664   2.715 -0.3158 -0.3711  0.3632
  193TIP3   OH2  542   3.402   3.068   0.386  1.0826  0.1171  0.3758
  193TIP3    H1  543   3.391   3.038   0.476  1.4761 -0.3573  0.2751
  193TIP3    H2  544   3.497   3.070   0.373  1.1692  2.8545  0.8348
  194TIP3   OH2  545   1.544   2.388   1.035  0.3520  0.5143 -0.5530
  194TIP3    H1  546   1.602   2.455   1.072  0.3774  0.7698 -1.0509
  194TIP3    H2  547   1.555   2.312   1.093  0.5579  0.8380 -0.1673
  195TIP3   OH2  548   4.151   5.618   2.442  0.4451  0.1784 -0.0800
  195TIP3    H1  549   4.056   5.612   2.454  0.7235 -1.3156  1.8841
  195TIP3    H2  550   4.171   5.711   2.454 -0.8257  0.6105 -1.1554
  196TIP3   OH2  551   2.359   5.689   4.295  0.2054 -0.0926  0.6242
  196TIP3    H1  552   2.421   5.655   4.231 -1.9067 -0.4559 -1.3535
  196TIP3    H2  553   2.284   5.629   4.290 -0.6287  0.7165  2.3952
  197TIP3   OH2  554   3.178   5.723   1.093 -0.1912 -0.0433 -0.2211
  197TIP3    H1  555   3.257   5.768   1.064  0.9401 -2.3404 -0.9757
  197TIP3    H2  556   3.137   5.692   1.013 -0.0671 -1.6207  0.2727
  198TIP3   OH2  557   4.412   4.578   3.984 -0.1784  0.3509  0.4815
  198TIP3    H1  558   4.326   4.617   4.000 -0.3624 -0.1643  0.7562
  198TIP3    H2  559   4.472   4.653   3.979 -0.5306  0.6669  0.9800
  199TIP3   OH2  560   6.071   4.786   2.379 -0.3556  0.0056  0.4124
  199TIP3    H1  561   6.074   4.691   2.366  1.9289 -0.0138  0.5908
  199TIP3    H2  562   6.037   4.797   2.468 -0.4388 -0.6623  0.4694
  200TIP3   OH2  563   4.291   2.200   2.066  0.1341 -0.2866 -0.0803
  200TIP3    H1  564   4.309   2.205   2.160  2.6522  1.4465 -0.5612
  200TIP3    H2  565   4.240   2.278   2.046 -0.0410 -0.4350 -0.2200
  201TIP3   OH2  566   5.057   6.626   1.407 -0.1042 -0.0151 -0.0130
  201TIP3    H1  567   5.110   6.693   1.363 -0.9402 -0.3732 -1.6107
  201TIP3    H2  568   5.039   6.664   1.493  1.0843  0.9517 -0.1546
  202TIP3   OH2  569   6.641   3.088   1.615 -0.5037  0.2573 -0.0980
  202TIP3    H1  570   6.711   3.152   1.624 -1.4387  1.2393  0.4880
  202TIP3    H2  571   6.583   3.105   1.689 -1.4614 -0.3961 -0.6684
  203TIP3   OH2  572   5.781   4.035   2.133  0.1002 -0.0531 -0.2309
  203TIP3    H1  573   5.749   3.996   2.052  1.7881 -1.6850 -0.1855
  203TIP3    H2  574   5.750   3.976   2.202  1.4140 -0.5371 -0.0204
  204TIP3   OH2  575   3.955   4.418   5.079 -0.1912  0.1651  0.2848
  204TIP3    H1  576   4.038   4.415   5.127  0.8241  2.1331 -1.2224
  204TIP3    H2  577   3.909   4.494   5.115 -0.2255  0.5540 -0.5555
  205TIP3   OH2  578   0.231   4.794   2.817 -0.2004  0.2646  0.1459
  205TIP3    H1  579   0.294   4.836   2.758  2.3340 -1.6263  1.2898
  205TIP3    H2  580   0.205   4.863   2.878  0.4828  1.2122 -0.6014
  206TIP3   OH2  581   1.011   2.922   5.164 -0.5900 -0.0374  0.0792
  206TIP3    H1  582   1.078   2.881   5.110 -0.0351  0.5194  0.3282
  206TIP3    H2  583   0.929   2.906   5.118 -0.2521 -0.4885 -0.3724
  207TIP3   OH2  584   6.328   0.934   0.290 -0.2417  0.3758  0.0155
  207TIP3    H1  585   6.358   0.886   0.213 -0.5080  0.0177  0.1352
  207TIP3    H2  586   6.271   0.873   0.336 -0.2006  0.6393  0.4216
  208TIP3   OH2  587   2.024   0.993   1.644  0.1742 -0.3386  0.0744
  208TIP3    H1  588   1.990   1.046   1.573  0.4521 -1.8727 -1.2564
  208TIP3    H2  589   2.118   0.986   1.627  0.2075 -0.9279  0.4331
  209TIP3   OH2  590   5.589   3.903   3.761  0.0096 -0.4942  0.2986
  209TIP3    H1  591   5.629   3.974   3.711  1.4033  0.1564  2.2173
  209TIP3    H2  592   5.538   3.947   3.829 -0.1583 -1.3351  0.7334
  210TIP3   OH2  593   5.074   1.300   5.822  0.5508  0.2855  0.4057
  210TIP3    H1  594   5.130   1.355   5.876 -1.3996  0.0841  2.7688
  210TIP3    H2  595   5.105   1.211   5.837  1.0278  0.3530 -0.1241
  211TIP3   OH2  596   1.224   4.721   5.755 -0.0850  0.3047 -0.9495
  211TIP3    H1  597   1.140   4.684   5.785  0.9369 -0.0761  1.6692
  211TIP3    H2  598   1.204   4.812   5.736 -1.2020  0.0840 -0.9535
  212TIP3   OH2  599   2.704   1.446   0.001  0.1718  0.9392 -0.0062
  212TIP3    H1  600   2.780   1.469   0.055 -0.9609  1.0078  1.6547
  212TIP3    H2  601   2.707   1.351  -0.005 -0.8990  0.6979  2.1880
  213TIP3   OH2  602   3.587   5.481   1.846  0.7377 -0.1342 -0.0919
  213TIP3    H1  603   3.663   5.469   1.903  0.2732  0.3116  0.6480
  213TIP3    H2  604   3.512   5.468   1.904  0.2495  0.8914 -0.4594
  214TIP3   OH2  605   1.047   3.505   1.543 -0.2689 -0.1263  0.1439
  214TIP3    H1  606   1.054   3.549   1.628  0.2479  1.5772 -0.7450
  214TIP3    H2  607   0.953   3.500   1.526 -0.3678 -0.2908  0.6899
  215TIP3   OH2  608   1.743   1.823   4.999  0.5988 -0.0909 -0.1112
  215TIP3    H1  609   1.663   1.822   5.052  0.6020 -0.8984 -0.1237
  215TIP3    H2  610   1.734   1.750   4.938  2.1563 -1.3548  1.0969
  216TIP3   OH2  611   5.981   5.918   5.761  0.5193  0.4734  0.1085
  216TIP3    H1  612   5.972   5.831   5.720  2.5076 -0.3221  1.2094
  216TIP3    H2  613   5.906   5.968   5.729  0.1533 -1.1733 -1.7673
  217TIP3   OH2  614   1.834   0.397   5.519 -0.0471 -0.0905 -0.2276
  217TIP3    H1  615   1.802   0.471   5.571 -1.8676 -1.1817  0.2742
  217TIP3    H2  616   1.772   0.390   5.447  0.5518 -0.6649 -0.6903
  218TIP3   OH2  617   5.705   5.476   5.118 -0.0279 -0.7089  0.0610
  218TIP3    H1  618   5.700   5.496   5.212  0.6504 -0.8969  0.1420
  218TIP3    H2  619   5.709   5.562   5.076  0.0967 -0.6293  0.2345
  219TIP3   OH2  620   7.150   0.908   3.033 -0.1295  0.1734 -0.0029
  219TIP3    H1  621   7.220   0.971   3.019 -0.7648  0.8376 -0.1927
  219TIP3    H2  622   7.133   0.869   2.947 -1.1871  1.2791 -0.3181
  220TIP3   OH2  623   6.175   5.823   3.863 -0.0011 -0.4410 -0.7529
  220TIP3    H1  624   6.197   5.869   3.782 -2.1263  2.6885  0.2439
  220TIP3    H2  625   6.187   5.889   3.931 -1.4767 -1.9183  1.0461
  221TIP3   OH2  626   2.870   4.953   1.051 -0.3688 -0.2725  0.2167
  221TIP3    H1  627   2.786   4.998   1.041 -1.3733 -2.1153 -0.2368
  221TIP3    H2  628   2.869   4.918   1.140  1.4811  2.5116  1.4732
  222TIP3   OH2  629   7.098   3.608   3.186  0.3177 -0.0956 -0.1121
  222TIP3    H1  630   7.139   3.646   3.108  2.7083 -0.8014  0.6986
  222TIP3    H2  631   7.128   3.665   3.258  0.4957 -1.0552  0.5993
  223TIP3   OH2  632   4.353   2.307   0.321 -0.4454 -0.3620  0.1726
  223TIP3    H1  633   4.361   2.277   0.411 -0.4704 -0.4943  0.1318
  223TIP3    H2  634   4.258   2.319   0.309 -0.5852 -1.6921 -0.2593
  224TIP3   OH2  635   4.095   0.579   0.486  0.3887 -0.1823 -0.6399
  224TIP3    H1  636   4.151   0.556   0.560 -0.9492  0.4574  0.6136
  224TIP3    H2  637   4.096   0.502   0.430  0.4306 -1.1574  0.6705
  225TIP3   OH2  638   2.034   3.613   3.349  0.2122  0.1843  0.0982
  225TIP3    H1  639   2.085   3.544   3.392 -0.4759 -0.5619 -0.2415
  225TIP3    H2  640   1.958   3.625   3.405  0.7432  1.3116  0.6139
  226TIP3   OH2  641   2.219   6.318   0.302  0.9018 -0.3625  0.0621
  226TIP3    H1  642   2.238   6.324   0.396  0.1996 -2.1767  0.3669
  226TIP3    H2  643   2.294   6.271   0.266  0.9448 -0.0895 -0.2053
  227TIP3   OH2  644   0.498   6.157   4.289  0.0420  0.2953  0.3639
  227TIP3    H1  645   0.492   6.109   4.207 -0.9770 -0.1682  0.7034
  227TIP3    H2  646   0.410   6.154   4.326  0.7633 -0.7094  2.1508
  228TIP3   OH2  647   3.980   3.834   1.396 -0.1419  0.0336  0.3422
  228TIP3    H1  648   3.973   3.744   1.365  1.2621  0.2790 -0.7760
  228TIP3    H2  649   4.074   3.849   1.405 -0.3959  0.7534  2.5257
  229TIP3   OH2  650   6.527   5.774   5.259 -1.0497 -0.1131  0.6346
  229TIP3    H1  651   6.602   5.771   5.200 -1.8029 -0.6970 -0.3409
  229TIP3    H2  652   6.534   5.695   5.312  0.2315  0.9540  2.1600
  230TIP3   OH2  653   4.145   5.518   1.992  0.5854 -0.2996  0.3690
  230TIP3    H1  654   4.134   5.433   2.035  1.1847  0.4371  2.0858
  230TIP3    H2  655   4.240   5.526   1.979  0.3205 -1.3476 -3.0250
  231TIP3   OH2  656   3.523   2.902   4.669  0.1449 -0.0874  0.9993
  231TIP3    H1  657   3.564   2.817   4.651  4.0356  2.2885 -3.8167
  231TIP3    H2  658   3.586   2.948   4.724 -0.9415  0.4164  1.8608
  232TIP3   OH2  659   2.574   0.881   4.994  0.2033  0.3226 -0.7682
  232TIP3    H1  660   2.483   0.900   5.018  0.2972  1.9863 -1.5772
  232TIP3    H2  661   2.612   0.843   5.072 -0.4622  2.1741  0.5246
  233TIP3   OH2  662   1.841   1.379   3.848  0.3205  0.1944 -0.0864
  233TIP3    H1  663   1.881   1.461   3.876 -1.4930  0.8356  0.7795
  233TIP3    H2  664   1.903   1.312   3.875  0.1827  1.0256  2.6244
  234TIP3   OH2  665   0.279   0.789   0.556 -0.1968  0.1754 -0.0596
  234TIP3    H1  666   0.258   0.732   0.630 -0.1070 -0.4256 -0.4925
  234TIP3    H2  667   0.374   0.778   0.544 -0.0259  1.0613  0.3805
  235TIP3   OH2  668   6.650   4.532   2.338 -0.0550  0.0509 -0.1844
  235TIP3    H1  669   6.658   4.476   2.415  2.7059 -1.6318 -1.5328
  235TIP3    H2  670   6.558   4.525   2.313 -0.4250 -1.5347  1.4003
  236TIP3   OH2  671   7.152   5.625   2.539  0.6769  0.0562 -0.3147
  236TIP3    H1  672   7.237   5.619   2.584 -0.1490 -1.9043  1.1536
  236TIP3    H2  673   7.089   5.640   2.609 -0.3741 -0.3180 -1.1641
  237TIP3   OH2  674   4.664   6.351   4.377 -0.0616 -0.2324  0.0144
  237TIP3    H1  675   4.749   6.306   4.385 -0.2248 -0.3096  1.7604
  237TIP3    H2  676   4.659   6.405   4.456 -1.5785 -0.1324 -0.1333
  238TIP3   OH2  677   0.365   1.444   5.486 -0.3263 -0.1455  0.2799
  238TIP3    H1  678   0.336   1.504   5.555  0.5714  0.0336  0.5209
  238TIP3    H2  679   0.422   1.498   5.431 -1.7618 -0.0369 -1.1573
  239TIP3   OH2  680   2.643   0.560   2.917  0.0010  0.2795 -0.0756
  239TIP3    H1  681   2.642   0.475   2.872 -0.3937  1.1358 -1.7756
  239TIP3    H2  682   2.687   0.619   2.855 -2.3045  1.9550 -0.2484
  240TIP3   OH2  683   1.368   5.825   5.473 -0.4449 -0.3610  0.6499
  240TIP3    H1  684   1.396   5.844   5.383 -0.2202 -1.7563  0.4092
  240TIP3    H2  685   1.276   5.850   5.475 -0.6678 -1.0810 -0.2103
  241TIP3   OH2  686   3.673   1.695   4.827 -0.7096  0.9182 -0.6738
  241TIP3    H1  687   3.645   1.786   4.816 -1.0986  0.6468 -2.0809
  241TIP3    H2  688   3.708   1.670   4.741 -0.2753 -0.1580 -0.2033
  242TIP3   OH2  689   1.203   5.308   1.862  0.8448  0.1733 -0.3711
  242TIP3    H1  690   1.114   5.315   1.896  0.1963 -1.0912 -1.6778
  242TIP3    H2  691   1.250   5.252   1.924  0.8808  1.2224  0.5650
  243TIP3   OH2  692   4.298   6.233   5.351 -0.4683 -0.3568 -0.3903
  243TIP3    H1  693   4.260   6.294   5.413 -1.2086 -1.8121  0.6405
  243TIP3    H2  694   4.379   6.276   5.322 -0.7553  0.9103  0.5969
  244TIP3   OH2  695   0.987   1.828   1.636  0.0297 -0.3735 -0.2577
  244TIP3    H1  696   0.931   1.752   1.619 -0.2519 -0.1086 -0.5515
  244TIP3    H2  697   1.073   1.802   1.605  0.0698 -0.7769  0.1688
  245TIP3   OH2  698   4.190   4.943   3.832 -0.1909  0.5146  0.3726
  245TIP3    H1  699   4.272   4.981   3.799 -0.1575  1.2238  1.2403
  245TIP3    H2  700   4.122   5.004   3.802 -0.4582 -0.2920 -0.6996
  246TIP3   OH2  701   5.617   1.571   2.287  0.0540 -0.4517 -0.1860
  246TIP3    H1  702   5.683   1.586   2.355  0.1892  0.4424 -0.4955
  246TIP3    H2  703   5.537   1.550   2.335  0.2781 -0.3571  0.2342
  247TIP3   OH2  704   1.104   5.327   4.594  0.4328  0.0204 -0.5278
  247TIP3    H1  705   1.030   5.297   4.540 -0.0794 -0.7307  0.5730
  247TIP3    H2  706   1.110   5.263   4.664  1.8571  0.3423 -0.3435
  248TIP3   OH2  707   1.997   1.427   4.484 -0.4230  0.0738  0.1766
  248TIP3    H1  708   2.047   1.477   4.548  0.6155 -0.2061 -0.3964
  248TIP3    H2  709   1.906   1.447   4.504 -0.0456  1.9315  0.1485
  249TIP3   OH2  710   0.843   1.257   3.845 -0.0763  0.1781 -0.2788
  249TIP3    H1  711   0.788   1.235   3.921 -3.1157 -0.6505 -2.5217
  249TIP3    H2  712   0.914   1.194   3.847 -1.2163 -1.1459  0.8225
  250TIP3   OH2  713   5.395   4.419   3.407  0.0016 -0.2927  0.0156
  250TIP3    H1  714   5.430   4.347   3.460  0.9350 -0.8698 -1.3337
  250TIP3    H2  715   5.473   4.462   3.372 -0.6034 -0.2569 -1.3075
  251TIP3   OH2  716   2.084   1.234   0.168 -0.1265  0.3431 -0.6519
  251TIP3    H1  717   2.020   1.168   0.144 -0.1576  0.2771 -0.3892
  251TIP3    H2  718   2.059   1.312   0.118 -1.5813  0.9286  0.8959
  252TIP3   OH2  719   0.177   2.330   0.057  0.2295  0.1462 -1.2693
  252TIP3    H1  720   0.188   2.244   0.097 -2.1587 -0.0621 -0.8815
  252TIP3    H2  721   0.232   2.389   0.109  0.8965 -0.9253 -0.7371
  253TIP3   OH2  722   3.426   6.405   4.144 -0.0967  0.3708 -0.1824
  253TIP3    H1  723   3.478   6.474   4.187 -2.0908  0.3452  2.5255
  253TIP3    H2  724   3.470   6.323   4.170 -1.6775  0.2969  2.7428
  254TIP3   OH2  725   5.537   3.517   3.340  0.2275 -0.4727 -0.3380
  254TIP3    H1  726   5.457   3.548   3.384  0.7789  0.6173 -0.0871
  254TIP3    H2  727   5.517   3.524   3.247 -0.1655 -0.7382 -0.2793
  255TIP3   OH2  728   3.042   3.570   4.738  0.2897  0.1958  0.5809
  255TIP3    H1  729   3.080   3.482   4.745  0.0529  0.1838  2.0725
  255TIP3    H2  730   3.021   3.594   4.828  1.2736  2.2106  0.3241
  256TIP3   OH2  731   6.921   3.408   3.148  0.4319  0.1060 -0.4481
  256TIP3    H1  732   6.997   3.458   3.178  0.0952  1.3372 -1.5715
  256TIP3    H2  733   6.952   3.362   3.070  0.3009 -0.2624 -0.2897
  257TIP3   OH2  734   6.322   4.912   1.321 -0.4096  0.1469 -0.4005
  257TIP3    H1  735   6.226   4.911   1.328 -0.4079 -1.8707 -0.1422
  257TIP3    H2  736   6.343   5.002   1.294 -2.4974  0.1506 -2.3085
  258TIP3   OH2  737   5.542   4.310   2.371  0.1956 -0.6447 -0.0138
  258TIP3    H1  738   5.450   4.328   2.353  0.1627 -0.8401 -0.0379
  258TIP3    H2  739   5.553   4.329   2.464 -0.0127 -1.2137  0.1308
  259TIP3   OH2  740   5.341   0.875   2.465  0.4911 -0.1967 -0.0432
  259TIP3    H1  741   5.280   0.820   2.514  0.5610 -0.9798 -0.8053
  259TIP3    H2  742   5.312   0.866   2.374 -0.4575  2.2554 -0.0523
  260TIP3   OH2  743   3.805   1.592   5.079 -0.0186 -0.3465  0.1269
  260TIP3    H1  744   3.763   1.640   5.008  0.4022  0.0795  0.1561
  260TIP3    H2  745   3.896   1.620   5.076 -0.1885  0.4354  1.4404
  261TIP3   OH2  746   7.004   1.566   2.635 -0.6667  0.0176  0.0907
  261TIP3    H1  747   6.953   1.486   2.651  0.2380 -0.9977 -1.7300
  261TIP3    H2  748   7.044   1.586   2.719 -0.6899 -1.6177  0.5318
  262TIP3   OH2  749   4.116   0.611   2.369  0.1467 -0.2392 -0.1363
  262TIP3    H1  750   4.081   0.684   2.318  0.9892 -0.1097 -0.5381
  262TIP3    H2  751   4.197   0.587   2.325  0.1687 -1.0554  0.3209
  263TIP3   OH2  752   4.883   4.806   5.736  0.5848  0.5775  0.6105
  263TIP3    H1  753   4.930   4.773   5.659 -0.0196 -1.2800  0.9731
  263TIP3    H2  754   4.950   4.850   5.788  0.7397  3.2123 -1.6008
  264TIP3   OH2  755   3.345   4.118   4.755 -0.0256 -0.1860  0.0475
  264TIP3    H1  756   3.407   4.188   4.735  0.0730 -0.3937 -0.3779
  264TIP3    H2  757   3.400   4.048   4.792 -0.0453 -0.2622 -0.0682
  265TIP3   OH2  758   4.472   5.085   0.063  0.5489  0.4016  0.5039
  265TIP3    H1  759   4.409   5.034   0.012  0.2236  0.4841  0.8144
  265TIP3    H2  760   4.502   5.026   0.131  0.3707  0.5375  0.7035
  266TIP3   OH2  761   2.843   4.135   5.471 -0.0717 -0.0383  0.0480
  266TIP3    H1  762   2.936   4.117   5.485 -0.3679 -2.0135 -0.2494
  266TIP3    H2  763   2.834   4.143   5.376 -0.0688  1.1886  0.1295
  267TIP3   OH2  764   2.954   0.945   2.174 -0.0608  0.2372  0.1325
  267TIP3    H1  765   2.890   0.874   2.177  0.2101 -0.0256 -0.2849
  267TIP3    H2  766   3.030   0.908   2.129 -0.1247  0.9586 -0.5805
  268TIP3   OH2  767   0.009   4.607   2.771 -0.4682  0.1879 -0.4686
  268TIP3    H1  768   0.084   4.666   2.772  0.5108 -1.0004  0.5088
  268TIP3    H2  769  -0.064   4.659   2.805 -0.3846  1.6691 -2.3878
  269TIP3   OH2  770   1.446   2.258   4.934 -0.5129  0.0120  0.0687
  269TIP3    H1  771   1.540   2.256   4.948 -0.2672  0.4263 -1.3031
  269TIP3    H2  772   1.412   2.314   5.003  0.3770  0.6830 -0.0199
  270TIP3   OH2  773   0.605   2.530   4.156  0.2274 -0.4534 -0.0159
  270TIP3    H1  774   0.520   2.570   4.140 -0.5650 -1.4547  1.4919
  270TIP3    H2  775   0.666   2.604   4.163 -0.8869  0.3926  0.9632
  271TIP3   OH2  776   2.528   6.033   4.961 -0.0144 -0.2985  0.2534
  271TIP3    H1  777   2.454   5.973   4.950  0.7339 -1.2442  0.2442
  271TIP3    H2  778   2.543   6.036   5.056  0.0201 -0.2166  0.2452
  272TIP3   OH2  779   6.186   6.723   1.411  0.2370 -0.3969 -0.4727
  272TIP3    H1  780   6.141   6.687   1.488 -1.7016  0.7080 -1.0317
  272TIP3    H2  781   6.164   6.662   1.340 -0.0053 -0.1188 -0.6422
  273TIP3   OH2  782   1.426   5.863   5.173 -0.3251  0.1013 -0.6580
  273TIP3    H1  783   1.337   5.871   5.139 -0.8156  0.2623  0.6415
  273TIP3    H2  784   1.477   5.830   5.098 -1.2036  1.2110 -1.7868
  274TIP3   OH2  785   5.316   0.124   2.992 -0.2237  0.1954 -0.5569
  274TIP3    H1  786   5.296   0.030   2.987  0.4497 -0.0923  1.4156
  274TIP3    H2  787   5.253   0.164   2.932 -1.3820 -1.3999 -0.4856
  275TIP3   OH2  788   4.492   0.171   3.577  0.3393 -0.0820  0.6457
  275TIP3    H1  789   4.533   0.105   3.633  0.4485  0.2333  0.9409
  275TIP3    H2  790   4.417   0.127   3.539  0.1393 -0.2353  1.2147
  276TIP3   OH2  791   6.797   2.559   5.027  0.1693  0.4276 -0.7083
  276TIP3    H1  792   6.758   2.499   5.091  1.0653  1.2285  0.6333
  276TIP3    H2  793   6.890   2.539   5.029  0.0577 -0.6184 -2.9810
  277TIP3   OH2  794   1.219   0.954   2.999  0.0030  0.1582 -0.3824
  277TIP3    H1  795   1.196   0.881   2.941 -0.5583 -0.4403  0.5663
  277TIP3    H2  796   1.167   0.939   3.077  0.1644  1.3908 -0.0279
  278TIP3   OH2  797   1.222   0.897   0.998  0.4164 -0.3792  0.2767
  278TIP3    H1  798   1.276   0.924   1.072  2.0217 -0.1652 -0.9011
  278TIP3    H2  799   1.170   0.824   1.031  2.0845 -1.1837  1.2753
  279TIP3   OH2  800   6.727   3.829   2.760  0.1920 -0.1492 -0.0905
  279TIP3    H1  801   6.796   3.787   2.811  0.6113  0.9953  0.3139
  279TIP3    H2  802   6.766   3.841   2.673  0.2544 -0.1324 -0.0604
  280TIP3   OH2  803   2.372   4.580   3.986 -0.1239 -0.6195  0.0850
  280TIP3    H1  804   2.441   4.546   3.929  1.1329  0.0290  1.1844
  280TIP3    H2  805   2.324   4.502   4.013 -1.4589 -0.8901 -2.6394
  281TIP3   OH2  806   2.632   6.045   4.422  0.4724  0.1135  0.2097
  281TIP3    H1  807   2.601   6.035   4.512 -1.0987 -0.2551 -0.3384
  281TIP3    H2  808   2.554   6.034   4.368  1.4699 -0.1902 -1.2384
  282TIP3   OH2  809   4.695   2.975   1.569 -0.2568 -0.2669  0.2465
  282TIP3    H1  810   4.607   2.940   1.587 -0.5849 -0.0527 -0.8446
  282TIP3    H2  811   4.755   2.907   1.600 -0.8263 -0.6946  0.4281
  283TIP3   OH2  812   0.689   3.759   0.481 -0.3808 -0.0558 -0.0195
  283TIP3    H1  813   0.745   3.711   0.542 -0.4516  0.2596  0.2925
  283TIP3    H2  814   0.699   3.712   0.398  0.8615  0.3863 -0.1411
  284TIP3   OH2  815   3.812   6.623   1.799  0.6211  0.2792  0.3060
  284TIP3    H1  816   3.872   6.550   1.787  0.7364  0.1847  1.3685
  284TIP3    H2  817   3.850   6.694   1.747  1.2077 -0.0298  0.3042
  285TIP3   OH2  818   4.583   6.082   5.066 -0.3921  0.2579  0.5160
  285TIP3    H1  819   4.654   6.018   5.062  0.3339  1.1055 -0.3144
  285TIP3    H2  820   4.612   6.155   5.012 -1.8519  0.6666  0.2345
  286TIP3   OH2  821   4.716   5.878   0.027  0.2744 -0.0152 -0.5183
  286TIP3    H1  822   4.707   5.783   0.041  0.8372  0.1114  0.8893
  286TIP3    H2  823   4.807   5.889  -0.001  0.1905  0.1071 -0.7456
  287TIP3   OH2  824   1.186   3.563   3.222  0.3209 -0.7612 -0.4804
  287TIP3    H1  825   1.230   3.647   3.209  0.8035 -0.6935  1.3321
  287TIP3    H2  826   1.112   3.565   3.162  1.0885  0.3888 -1.4305
  288TIP3   OH2  827   5.764   0.092   2.313 -0.6130  0.0646  0.0035
  288TIP3    H1  828   5.769   0.177   2.356  1.4205  0.5828 -1.0771
  288TIP3    H2  829   5.702   0.041   2.364  0.4747  1.1607  2.5597
  289TIP3   OH2  830   2.333   0.656   1.248  0.2513 -0.3501  0.1370
  289TIP3    H1  831   2.407   0.716   1.244  0.0553 -0.1660 -0.8344
  289TIP3    H2  832   2.348   0.594   1.177  0.1185 -1.0782  0.7259
  290TIP3   OH2  833   5.966   2.753   5.335  0.1658  0.7380  0.3730
  290TIP3    H1  834   5.903   2.681   5.338 -0.8447  1.6010  0.7913
  290TIP3    H2  835   5.921   2.822   5.287  0.9160  1.2692  0.4194
  291TIP3   OH2  836   5.796   5.920   1.638 -0.3158  0.0175  0.3908
  291TIP3    H1  837   5.811   5.959   1.552 -0.0004 -1.2081 -0.1319
  291TIP3    H2  838   5.763   5.992   1.691 -0.2009  0.8782 -0.6607
  292TIP3   OH2  839   6.164   1.092   1.431  0.9791 -0.0688 -0.3776
  292TIP3    H1  840   6.173   1.179   1.471  1.6799 -0.7573  1.0312
  292TIP3    H2  841   6.253   1.057   1.429  0.6030 -1.0542 -0.2394
  293TIP3   OH2  842   3.415   4.521   4.048 -0.1090  0.1655 -0.5350
  293TIP3    H1  843   3.448   4.507   3.959  0.3975 -1.4323 -0.1378
  293TIP3    H2  844   3.492   4.547   4.098 -0.4152  1.1728 -0.5672
  294TIP3   OH2  845   5.676   0.422   5.131 -0.0874  0.4254  0.3203
  294TIP3    H1  846   5.706   0.449   5.217  2.8047 -1.5411  0.0782
  294TIP3    H2  847   5.736   0.465   5.070 -1.1973  0.6685 -0.6211
  295TIP3   OH2  848   2.347   4.480   5.313 -0.3290 -0.6483 -0.5771
  295TIP3    H1  849   2.384   4.543   5.375 -1.7490  1.3074 -1.6104
  295TIP3    H2  850   2.420   4.421   5.293  0.9003  0.2906  0.8795
  296TIP3   OH2  851   5.065   5.211   4.933  0.1663 -0.0653 -0.2915
  296TIP3    H1  852   5.096   5.226   5.023 -1.7460  1.9131  0.1186
  296TIP3    H2  853   4.975   5.179   4.945 -0.5544  1.4286 -1.4926
  297TIP3   OH2  854   2.556   2.022   0.296 -0.4376 -0.6587 -0.0100
  297TIP3    H1  855   2.489   2.073   0.251 -1.5415 -2.4244 -0.4645
  297TIP3    H2  856   2.523   2.011   0.385  0.9943  1.4768  0.8618
  298TIP3   OH2  857   2.685   4.214   0.683  0.0842 -0.4806  0.2185
  298TIP3    H1  858   2.694   4.252   0.770 -1.3457 -1.2168  0.7196
  298TIP3    H2  859   2.675   4.289   0.624 -0.1547 -0.0029  0.8576
  299TIP3   OH2  860   1.153   3.596   2.124 -0.3525  0.8293  0.2498
  299TIP3    H1  861   1.228   3.577   2.068  0.2898  2.6921  0.3954
  299TIP3    H2  862   1.096   3.519   2.116  1.5067 -0.5883  0.0603
  300TIP3   OH2  863   5.983   5.079   2.485 -0.0817 -0.7048 -0.2871
  300TIP3    H1  864   5.935   5.099   2.405 -0.0141 -0.0836 -0.1792
  300TIP3    H2  865   5.917   5.051   2.548 -0.5335  1.5484  0.3233
  301TIP3   OH2  866   4.141   1.706   1.741 -0.1300  0.2683 -0.1562
  301TIP3    H1  867   4.136   1.801   1.754 -0.3677  0.0716  1.3521
  301TIP3    H2  868   4.226   1.681   1.777  0.4753  0.0389 -1.6589
  302TIP3   OH2  869   0.191   0.490   4.308  0.0097  0.7147  0.4812
  302TIP3    H1  870   0.244   0.514   4.384  0.2557  0.5274  0.3691
  302TIP3    H2  871   0.103   0.476   4.343  0.6113 -1.8206  1.1641
  303TIP3   OH2  872   3.827   2.229   1.953  0.3645  0.6263  0.5160
  303TIP3    H1  873   3.791   2.315   1.935 -0.6197  0.0506 -0.3670
  303TIP3    H2  874   3.802   2.211   2.044  0.7336  1.3335  0.7606
  304TIP3   OH2  875   4.991   1.249   2.712  0.1746  0.1178  0.7317
  304TIP3    H1  876   4.899   1.222   2.717  0.1413  0.2691  0.9689
  304TIP3    H2  877   5.038   1.169   2.687  0.0464 -0.1032  1.1694
  305TIP3   OH2  878   2.601   3.798   2.272 -0.3084 -0.3053 -0.1700
  305TIP3    H1  879   2.510   3.769   2.279  0.4275 -2.5762  0.6845
  305TIP3    H2  880   2.598   3.890   2.298 -2.2474 -0.5421  0.6363
  306TIP3   OH2  881   3.948   4.048   0.621 -0.4265 -0.0682 -0.3706
  306TIP3    H1  882   4.016   4.107   0.588 -1.5658  0.3995 -1.9629
  306TIP3    H2  883   3.942   4.068   0.715  0.3135  1.2103 -0.5764
  307TIP3   OH2  884   5.056   2.938   1.224  1.0787 -0.0656  0.3423
  307TIP3    H1  885   5.147   2.936   1.253  0.7005 -0.7860  1.5999
  307TIP3    H2  886   5.014   3.002   1.282  0.8158  0.3881 -0.3424
  308TIP3   OH2  887   5.360   2.094   4.472  0.1094 -0.1506 -0.3554
  308TIP3    H1  888   5.374   2.148   4.550  0.9857  0.4025 -0.8839
  308TIP3    H2  889   5.428   2.027   4.477 -0.9563 -1.2360  0.2861
  309TIP3   OH2  890   2.785   6.221   1.319 -0.3645  0.5577  0.0189
  309TIP3    H1  891   2.734   6.160   1.266 -1.7602  1.0191  0.7782
  309TIP3    H2  892   2.752   6.307   1.295  1.1324  0.9890 -0.5677
  310TIP3   OH2  893   7.077   5.804   1.568  0.2475 -0.2821 -0.0850
  310TIP3    H1  894   7.127   5.798   1.486  0.4779 -0.1370  0.0434
  310TIP3    H2  895   7.120   5.740   1.626 -0.6525 -1.2567 -0.4588
  311TIP3   OH2  896   1.868   1.879   3.038 -0.1649 -0.4533 -0.0992
  311TIP3    H1  897   1.787   1.923   3.063  0.4471 -0.5723  2.3078
  311TIP3    H2  898   1.842   1.817   2.970 -1.4924  1.6821 -1.6936
  312TIP3   OH2  899   3.478   4.031   5.329  0.1447 -0.5050  0.4725
  312TIP3    H1  900   3.415   3.959   5.330 -0.0588 -0.3249  0.4568
  312TIP3    H2  901   3.563   3.987   5.324 -0.0056 -0.7297 -0.0931
  313TIP3   OH2  902   1.135   6.542   1.484 -0.5695 -0.0074 -0.2746
  313TIP3    H1  903   1.075   6.582   1.548  0.1451  2.4722 -1.0547
  313TIP3    H2  904   1.088   6.548   1.401 -0.1121 -0.0209 -0.5345
  314TIP3   OH2  905   6.597   3.531   5.335  0.3488  0.6678  0.1741
  314TIP3    H1  906   6.687   3.526   5.303  0.0729 -0.7400 -0.4343
  314TIP3    H2  907   6.555   3.597   5.279  0.7159  0.5217 -0.2763
  315TIP3   OH2  908   6.160   6.156   3.268 -0.0895 -0.0728  0.1251
  315TIP3    H1  909   6.129   6.246   3.260  0.2806 -0.0274 -0.8864
  315TIP3    H2  910   6.100   6.105   3.212  0.5292 -0.2467 -0.3959
  316TIP3   OH2  911   5.134   3.278   1.875 -0.1714  1.1728 -0.1128
  316TIP3    H1  912   5.085   3.234   1.944  2.2414  0.4791  1.2266
  316TIP3    H2  913   5.068   3.295   1.807 -2.0718 -0.4705  1.2128
  317TIP3   OH2  914   2.667   2.376   0.491  0.5129 -0.0302  0.1186
  317TIP3    H1  915   2.716   2.301   0.457 -0.6825 -0.1103 -1.5769
  317TIP3    H2  916   2.704   2.451   0.446  1.6203  0.4283  1.7183
  318TIP3   OH2  917   3.609   6.683   3.410  0.1801  0.0408  0.0862
  318TIP3    H1  918   3.650   6.707   3.327 -0.6467  1.1477 -0.0115
  318TIP3    H2  919   3.668   6.718   3.477  0.1373  0.3575 -0.0415
  319TIP3   OH2  920   5.502   3.500   4.281  0.0397  0.1237  0.8634
  319TIP3    H1  921   5.411   3.529   4.272  0.1830  0.3579  0.1383
  319TIP3    H2  922   5.545   3.532   4.202  0.2380 -1.9599  0.0663
  320TIP3   OH2  923   3.815   4.460   1.203 -0.1821 -0.3543  0.3222
  320TIP3    H1  924   3.728   4.445   1.167 -0.6874  0.9897  0.9020
  320TIP3    H2  925   3.802   4.528   1.269  1.2115 -0.5886  0.8749
  321TIP3   OH2  926   3.134   4.508   4.432  0.2050 -0.2961  0.1065
  321TIP3    H1  927   3.128   4.565   4.509 -2.6932 -0.7673  0.3193
  321TIP3    H2  928   3.154   4.421   4.467  1.7746 -0.0141  0.0110
  322TIP3   OH2  929   1.770   2.977   2.388  0.5443 -0.2601 -0.3219
  322TIP3    H1  930   1.700   2.944   2.446  0.3617 -0.8171 -0.8479
  322TIP3    H2  931   1.786   3.066   2.419  1.1322 -0.8696  1.2199
  323TIP3   OH2  932   5.100   3.046   0.761  0.2651 -0.2649 -0.0425
  323TIP3    H1  933   5.102   2.953   0.738 -1.4193 -0.4515  0.4307
  323TIP3    H2  934   5.008   3.063   0.782  1.1584  0.4421  4.1808
  324TIP3   OH2  935   3.350   5.213   4.230 -0.1512  0.1351  0.0632
  324TIP3    H1  936   3.296   5.190   4.306  0.9798 -0.5640  0.6800
  324TIP3    H2  937   3.376   5.304   4.246  0.1868 -0.0492  0.5887
  325TIP3   OH2  938   4.120   3.455   4.451 -0.5231 -0.3267  0.8124
  325TIP3    H1  939   4.187   3.430   4.514  0.9641 -0.2633 -0.6759
  325TIP3    H2  940   4.105   3.376   4.400 -0.1133  0.1802 -0.1198
  326TIP3   OH2  941   3.580   3.651   1.646  0.1559  0.4412 -0.0616
  326TIP3    H1  942   3.519   3.680   1.714  1.5178  0.7150  1.0967
  326TIP3    H2  943   3.598   3.731   1.596 -0.5080  0.3356 -0.4779
  327TIP3   OH2  944   6.159   5.943   5.523 -0.0995  0.2511 -0.3615
  327TIP3    H1  945   6.235   5.938   5.582 -0.4205 -1.4486 -0.0378
  327TIP3    H2  946   6.092   5.988   5.574  0.7768  2.1703 -0.7999
  328TIP3   OH2  947   0.172   3.021   3.516  0.5040  0.4872  0.0356
  328TIP3    H1  948   0.095   3.071   3.543 -0.4134 -1.4674  1.2092
  328TIP3    H2  949   0.161   2.935   3.555  2.6432 -0.2939 -0.8854
  329TIP3   OH2  950   2.693   3.450   0.089 -0.0452 -0.4219  0.0837
  329TIP3    H1  951   2.664   3.376   0.035 -1.2608 -0.4203  0.7106
  329TIP3    H2  952   2.634   3.521   0.066 -0.7488 -0.4886  1.5781
  330TIP3   OH2  953   6.810   5.423   1.287  0.1541 -0.0538 -0.5583
  330TIP3    H1  954   6.893   5.400   1.330 -0.0875 -0.6785 -0.4112
  330TIP3    H2  955   6.835   5.481   1.215  0.6637  0.1897 -0.1898
  331TIP3   OH2  956   6.700   1.803   0.842 -0.4255  0.0860  0.9235
  331TIP3    H1  957   6.705   1.899   0.842  1.2564  0.0277  0.4003
  331TIP3    H2  958   6.612   1.784   0.875 -0.2587  1.7892  2.5245
  332TIP3   OH2  959   1.116   6.531   3.372  0.0042 -0.2100  0.0965
  332TIP3    H1  960   1.030   6.534   3.414  0.7447  0.2543  1.6584
  332TIP3    H2  961   1.098   6.553   3.281 -1.5919 -0.6246  0.2670
  333TIP3   OH2  962   4.863   5.465   2.839 -0.0108 -0.0716  0.3032
  333TIP3    H1  963   4.923   5.530   2.876  0.4894 -0.5951  0.4124
  333TIP3    H2  964   4.867   5.480   2.744 -0.1912  0.3063  0.3515
  334TIP3   OH2  965   3.518   3.973   2.393  0.2351 -0.4165  0.5734
  334TIP3    H1  966   3.601   3.926   2.383  0.3538 -0.4923  1.7767
  334TIP3    H2  967   3.493   3.996   2.303  1.5193 -0.4570  0.1761
  335TIP3   OH2  968   4.183   5.599   0.858  0.2776 -0.0924 -0.2296
  335TIP3    H1  969   4.252   5.533   0.857 -0.0932 -0.4937 -1.0041
  335TIP3    H2  970   4.189   5.640   0.944 -0.1644 -1.8747  0.7086
  336TIP3   OH2  971   4.031   2.288   4.999 -0.0339  0.1050 -0.4360
  336TIP3    H1  972   4.107   2.300   4.942  0.1758 -0.9736 -0.4142
  336TIP3    H2  973   4.001   2.377   5.020  2.3272  0.6426  1.0501
  337TIP3   OH2  974   5.908   2.887   3.705 -0.0434 -1.0557 -0.6963
  337TIP3    H1  975   5.885   2.942   3.779  0.2402  1.0371 -2.0851
  337TIP3    H2  976   5.941   2.806   3.744  0.0078 -0.0595  1.4242
  338TIP3   OH2  977   6.618   0.853   4.799  0.0373  0.2712 -0.6919
  338TIP3    H1  978   6.698   0.885   4.840 -0.4754  1.8631 -0.8650
  338TIP3    H2  979   6.609   0.763   4.831  0.7914  0.7469  0.9695
  339TIP3   OH2  980   0.490   3.483   5.822  0.5149  0.2303 -0.0432
  339TIP3    H1  981   0.480   3.391   5.846  2.3386  0.0863  0.3150
  339TIP3    H2  982   0.423   3.528   5.873  0.2339 -0.7951  0.5295
  340TIP3   OH2  983   5.012   4.538   5.540 -0.2758  0.2934  0.0263
  340TIP3    H1  984   4.935   4.492   5.574 -0.1630  0.6847  0.8303
  340TIP3    H2  985   5.083   4.513   5.598  0.0250  0.6125 -0.1979
  341TIP3   OH2  986   5.705   0.504   5.680 -0.6347 -0.1671  0.4743
  341TIP3    H1  987   5.693   0.436   5.746 -1.3585 -1.4288 -0.8909
  341TIP3    H2  988   5.796   0.532   5.691  0.2371 -2.5268  0.0622
  342TIP3   OH2  989   4.187   5.545   3.200  0.5066 -0.0958 -0.3505
  342TIP3    H1  990   4.264   5.487   3.202  1.2084  0.6979 -2.0386
  342TIP3    H2  991   4.217   5.625   3.244  0.5665  0.1062 -0.7515
  343TIP3   OH2  992   6.818   4.573   4.186  0.5013 -0.3280  0.1990
  343TIP3    H1  993   6.897   4.526   4.211  0.6532  0.1619  0.6664
  343TIP3    H2  994   6.817   4.571   4.090  0.6130 -1.0932  0.2105
  344TIP3   OH2  995   6.912   1.062   5.159 -0.5818  0.2806  0.0621
  344TIP3    H1  996   6.849   1.056   5.230 -0.6216  0.6321  0.0579
  344TIP3    H2  997   6.874   1.126   5.098 -0.5932 -0.0844 -0.3183
  345TIP3   OH2  998   1.893   6.437   0.097 -0.1832  0.0930  0.2716
  345TIP3    H1  999   1.936   6.459   0.179  2.1533 -2.0194 -0.2824
  345TIP3    H2 1000   1.816   6.387   0.123 -1.1122  1.8946  1.1962
  346TIP3   OH2 1001   3.728   0.755   2.072 -0.3146 -0.5651  0.2180
  346TIP3    H1 1002   3.711   0.837   2.026  0.2299 -2.0510 -2.8927
  346TIP3    H2 1003   3.649   0.702   2.057 -0.3803 -0.9031  1.5971
  347TIP3   OH2 1004   2.812   2.730   4.286 -0.5064  0.4125 -0.7024
  347TIP3    H1 1005   2.895   2.752   4.243 -1.0249 -0.2058 -2.0845
  347TIP3    H2 1006   2.750   2.795   4.253 -1.0184 -0.3495 -1.2737
  348TIP3   OH2 1007   4.461   5.282   4.861  0.4344  0.6131  0.0495
  348TIP3    H1 1008   4.424   5.274   4.774  2.0388  0.3919 -0.6511
  348TIP3    H2 1009   4.488   5.374   4.867 -1.8120  1.2657  1.2618
  349TIP3   OH2 1010   2.132   4.051   1.263 -0.5928 -0.0070  0.5137
  349TIP3    H1 1011   2.092   4.137   1.248 -2.5572 -0.6300  1.7872
  349TIP3    H2 1012   2.157   4.021   1.176 -1.0110  1.3253 -0.1003
  350TIP3   OH2 1013   3.111   0.573   3.374  0.2986  0.1643  0.0462
  350TIP3    H1 1014   3.049   0.529   3.433  0.2444  1.9139  1.3857
  350TIP3    H2 1015   3.188   0.517   3.374  0.2800  0.0889  1.7901
  351TIP3   OH2 1016   5.276   0.048   4.722 -0.1819  0.6482  0.0422
  351TIP3    H1 1017   5.285   0.129   4.772  0.4175  0.1142  0.8219
  351TIP3    H2 1018   5.188   0.053   4.684  0.4032  2.3635 -1.2107
  352TIP3   OH2 1019   3.030   4.035   2.182 -0.2074  0.4083  0.7216
  352TIP3    H1 1020   3.056   4.075   2.266  1.0189  0.9475  0.1031
  352TIP3    H2 1021   3.109   4.036   2.129 -0.9425 -0.0348 -0.4195
  353TIP3   OH2 1022   5.516   0.134   5.643 -0.0918 -0.0447  0.0002
  353TIP3    H1 1023   5.489   0.209   5.589 -1.0074 -0.9790 -0.8752
  353TIP3    H2 1024   5.611   0.140   5.646 -0.0960  0.6603 -0.8024
  354TIP3   OH2 1025   4.109   0.398   2.517 -0.0894 -0.2752 -0.1546
  354TIP3    H1 1026   4.130   0.479   2.469 -0.9465  1.2798  1.9368
  354TIP3    H2 1027   4.042   0.424   2.580 -1.2853 -2.9317 -0.1998
  355TIP3   OH2 1028   6.201   2.728   1.308  0.0788 -0.1359  0.7265
  355TIP3    H1 1029   6.221   2.779   1.387  1.3856  0.3632  0.1084
  355TIP3    H2 1030   6.259   2.652   1.314 -0.6526 -0.6943  0.8076
  356TIP3   OH2 1031   3.101   5.293   0.377  0.6065  0.1644  0.0249
  356TIP3    H1 1032   3.144   5.264   0.458  0.8358  1.3281  0.3404
  356TIP3    H2 1033   3.132   5.383   0.364 -1.7442  1.0984  0.2894
  357TIP3   OH2 1034   2.080   6.563   5.743 -0.1812 -0.0595 -0.5928
  357TIP3    H1 1035   2.061   6.472   5.719  0.9724 -0.7502  0.9347
  357TIP3    H2 1036   2.164   6.559   5.788 -0.8958  1.5303  0.9946
  358TIP3   OH2 1037   3.502   0.135   0.558 -0.1123  0.6841 -0.0693
  358TIP3    H1 1038   3.575   0.197   0.563  0.8845 -0.5244  1.6100
  358TIP3    H2 1039   3.504   0.103   0.468  1.6393  0.4809  0.0108
  359TIP3   OH2 1040   4.309   2.903   3.823 -0.1481  0.1095 -0.7008
  359TIP3    H1 1041   4.256   2.964   3.875 -0.5144  0.1225 -1.0892
  359TIP3    H2 1042   4.249   2.867   3.758  0.2265 -0.1697 -0.8994
  360TIP3   OH2 1043   4.999   3.931   3.780  0.5930 -0.4588  0.0824
  360TIP3    H1 1044   5.023   4.024   3.775 -0.5872 -0.1526 -0.1822
  360TIP3    H2 1045   5.052   3.897   3.852  0.0662  0.7405  1.0827
  361TIP3   OH2 1046   1.470   1.979   0.998 -0.4600  0.5165  0.6212
  361TIP3    H1 1047   1.488   2.043   0.930  1.4362 -0.3150  0.2826
  361TIP3    H2 1048   1.374   1.970   0.997 -0.6309  2.0257 -0.4977
  362TIP3   OH2 1049   7.041   1.672   4.645 -0.4146 -0.2329 -0.0871
  362TIP3    H1 1050   6.947   1.679   4.630 -0.4245  2.1006  0.5991
  362TIP3    H2 1051   7.050   1.607   4.714 -1.5939 -0.0000  0.3048
  363TIP3   OH2 1052   1.862   5.941   2.425 -0.2953  0.0043  0.0490
  363TIP3    H1 1053   1.915   6.014   2.456  1.2024 -1.3003  0.6552
  363TIP3    H2 1054   1.800   5.925   2.496 -2.0433  1.9317 -0.9165
  364TIP3   OH2 1055   1.780   2.274   0.043 -0.0388 -0.3780 -0.0893
  364TIP3    H1 1056   1.701   2.223   0.061 -0.3591  0.2112  0.2252
  364TIP3    H2 1057   1.775   2.348   0.104  0.8963 -0.4759  0.1343
  365TIP3   OH2 1058   3.789   0.862   2.359 -0.2303  0.1739  0.1664
  365TIP3    H1 1059   3.796   0.778   2.314  0.6501  0.4401 -0.2192
  365TIP3    H2 1060   3.844   0.853   2.437  2.1220  1.2541 -1.2650
  366TIP3   OH2 1061   4.982   0.052   1.559 -0.2572  0.0065  0.1707
  366TIP3    H1 1062   4.969   0.078   1.650  1.4325  1.1132  0.1271
  366TIP3    H2 1063   4.902   0.081   1.515 -1.1207 -0.5898  1.2717
  367TIP3   OH2 1064   5.173   3.745   0.059 -0.7877  0.1385 -0.0934
  367TIP3    H1 1065   5.130   3.701   0.132  0.7894 -2.3785 -0.5536
  367TIP3    H2 1066   5.112   3.815   0.033 -2.2900 -0.1806  2.2990
  368TIP3   OH2 1067   2.530   4.572   5.485  0.0319 -0.5719 -0.5137
  368TIP3    H1 1068   2.621   4.559   5.509 -0.5640 -1.0639  1.7250
  368TIP3    H2 1069   2.524   4.665   5.463  0.7754 -0.1535  0.9166
  369TIP3   OH2 1070   6.061   1.388   0.826 -0.0081  0.1223 -0.0640
  369TIP3    H1 1071   6.054   1.374   0.732 -1.0889  1.6852 -0.2525
  369TIP3    H2 1072   6.096   1.477   0.835  0.5266 -0.1738  1.0167
  370TIP3   OH2 1073   5.680   1.387   2.666  0.4796  0.0183  0.4209
  370TIP3    H1 1074   5.619   1.453   2.701 -1.1700 -1.3639  0.3023
  370TIP3    H2 1075   5.623   1.322   2.625  2.0627 -1.3898  0.3708
  371TIP3   OH2 1076   1.569   5.534   5.264 -0.0392  0.2256 -0.8122
  371TIP3    H1 1077   1.597   5.445   5.242  2.4837  1.0239 -1.1772
  371TIP3    H2 1078   1.635   5.566   5.325 -1.8205  1.3174  0.6716
  372TIP3   OH2 1079   3.703   3.249   0.034 -0.0716 -0.0890  0.4140
  372TIP3    H1 1080   3.781   3.211   0.073  0.5447 -0.1525 -0.8292
  372TIP3    H2 1081   3.727   3.340   0.016 -0.1914 -0.1673 -0.1823
  373TIP3   OH2 1082   3.578   2.156   0.739 -0.5381 -0.1469  0.2608
  373TIP3    H1 1083   3.666   2.171   0.772 -0.1389 -0.2312 -0.7336
  373TIP3    H2 1084   3.530   2.121   0.813  0.0642  0.5943  1.0164
  374TIP3   OH2 1085   7.024   5.629   4.831  0.2993  0.2558 -0.6080
  374TIP3    H1 1086   6.991   5.558   4.776 -0.3212  0.2930 -0.3019
  374TIP3    H2 1087   7.112   5.647   4.798 -0.3106  0.7694 -2.0714
  375TIP3   OH2 1088   1.286   4.533   2.776  0.7244 -0.0880 -0.8420
  375TIP3    H1 1089   1.255   4.474   2.844 -1.6855  2.4647  0.4606
  375TIP3    H2 1090   1.382   4.530   2.783  0.5752 -1.1922  1.4705
  376TIP3   OH2 1091   1.607   2.848   2.607  0.0119 -0.3430  0.1098
  376TIP3    H1 1092   1.697   2.832   2.635  0.7068 -0.1147 -1.8147
  376TIP3    H2 1093   1.580   2.925   2.656  1.1587  0.0520  0.1615
  377TIP3   OH2 1094   6.232   1.591   0.824 -0.0781  0.1594 -0.0985
  377TIP3    H1 1095   6.266   1.603   0.735  0.2751  1.8199  0.2127
  377TIP3    H2 1096   6.299   1.630   0.880 -0.8283  0.1823  0.8028
  378TIP3   OH2 1097   6.522   1.520   3.593 -0.1370  0.0616 -0.1658
  378TIP3    H1 1098   6.561   1.545   3.677  0.4996  0.9446 -0.7055
  378TIP3    H2 1099   6.545   1.428   3.583 -0.6163 -0.1839  0.8402
  379TIP3   OH2 1100   5.678   2.055   0.572 -0.1221  0.4259 -0.0036
  379TIP3    H1 1101   5.654   2.104   0.494 -1.4359 -0.9363 -0.5111
  379TIP3    H2 1102   5.629   2.097   0.643 -1.4370 -0.2494 -0.4763
  380TIP3   OH2 1103   4.702   0.802   1.556  0.2172  0.2057 -0.0219
  380TIP3    H1 1104   4.664   0.736   1.499 -0.2311  0.8582 -0.4904
  380TIP3    H2 1105   4.721   0.876   1.499  0.2983  0.6553  0.5743
  381TIP3   OH2 1106   5.208   2.500   1.971  0.3087  0.0308 -0.5534
  381TIP3    H1 1107   5.201   2.435   1.901 -0.0114 -0.3658 -0.1547
  381TIP3    H2 1108   5.262   2.569   1.933  0.5022 -0.3805 -1.0467
  382TIP3   OH2 1109   1.102   5.747   1.260 -0.3946  0.5300 -0.0126
  382TIP3    H1 1110   1.102   5.843   1.256  0.4509  0.5291 -0.1212
  382TIP3    H2 1111   1.131   5.727   1.349 -1.2779  0.3702  0.2523
  383TIP3   OH2 1112   3.205   4.899   4.898 -0.3642 -0.5185 -0.2118
  383TIP3    H1 1113   3.280   4.893   4.957 -1.0532  2.0652  1.1167
  383TIP3    H2 1114   3.136   4.849   4.942 -0.4478  0.1721  0.4669
  384TIP3   OH2 1115   1.914   4.220   3.419  0.2039  0.0590  0.1295
  384TIP3    H1 1116   1.921   4.128   3.394 -0.0864  0.4488 -1.5118
  384TIP3    H2 1117   1.998   4.258   3.393  0.0737  0.4028  0.2114
  385TIP3   OH2 1118   4.594   5.859   5.223  0.1003 -0.0813 -0.0743
  385TIP3    H1 1119   4.528   5.813   5.275 -0.4143  0.6626 -0.0500
  385TIP3    H2 1120   4.556   5.946   5.209  2.0767  1.1778  1.8826
  386TIP3   OH2 1121   6.908   4.432   2.709 -0.2911  1.2334 -0.0573
  386TIP3    H1 1122   6.956   4.414   2.629  2.8578  0.5306  1.8324
  386TIP3    H2 1123   6.897   4.347   2.751 -2.4944  1.4928  0.0325
  387TIP3   OH2 1124   4.855   0.703   5.041 -0.3615  0.1087  0.6813
  387TIP3    H1 1125   4.780   0.723   5.097 -1.0160  1.0647 -0.4999
  387TIP3    H2 1126   4.817   0.668   4.961  0.4760  0.2152  0.2208
  388TIP3   OH2 1127   4.329   4.565   5.834  0.3273  0.2747 -0.0888
  388TIP3    H1 1128   4.310   4.497   5.769  2.1355  1.0099 -1.4608
  388TIP3    H2 1129   4.365   4.638   5.784  1.2337  1.1140  1.6698
  389TIP3   OH2 1130   4.788   0.037   5.874 -0.1526 -1.2360 -0.1061
  389TIP3    H1 1131   4.699   0.036   5.908 -0.1304 -0.2802  0.0161
  389TIP3    H2 1132   4.781   0.085   5.791  0.4916  0.2970  0.6891
  390TIP3   OH2 1133   3.497   3.137   1.186  0.4252  0.5342 -0.1839
  390TIP3    H1 1134   3.555   3.192   1.133  0.6111 -0.7337 -1.3333
  390TIP3    H2 1135   3.426   3.112   1.127 -0.4235  0.6926  0.7379
  391TIP3   OH2 1136   2.462   6.273   1.663 -0.0910 -0.5462  0.6262
  391TIP3    H1 1137   2.396   6.251   1.728  1.4092  0.1246  2.4402
  391TIP3    H2 1138   2.468   6.368   1.665 -0.2001 -0.4780 -0.7339
  392TIP3   OH2 1139   6.239   6.023   5.270 -0.0513 -0.2960  0.3591
  392TIP3    H1 1140   6.211   5.973   5.347  1.6360  0.2876  1.4009
  392TIP3    H2 1141   6.269   5.957   5.208  1.1248 -0.6664  1.2874
  393TIP3   OH2 1142   2.006   1.627   1.492 -0.0955  0.5057 -0.4966
  393TIP3    H1 1143   1.912   1.610   1.487 -0.1152  0.0635  1.0359
  393TIP3    H2 1144   2.017   1.713   1.453 -0.9398  0.0016 -1.9337
  394TIP3   OH2 1145   0.411   1.909   1.448  0.2499 -0.4221 -0.1645
  394TIP3    H1 1146   0.322   1.890   1.420 -0.2818  0.9173  0.5563
  394TIP3    H2 1147   0.448   1.962   1.377 -0.1658  0.5995  0.3638
  395TIP3   OH2 1148   6.623   2.408   2.122  0.0389 -0.6340  0.7831
  395TIP3    H1 1149   6.549   2.410   2.060  0.5834  2.3978  0.0902
  395TIP3    H2 1150   6.583   2.428   2.207 -0.1379 -0.6059  0.6951
  396TIP3   OH2 1151   2.846   6.683   2.335  0.3362 -0.0133  0.0012
  396TIP3    H1 1152   2.805   6.630   2.267 -1.4497  1.2258  0.0428
  396TIP3    H2 1153   2.928   6.638   2.354 -0.1728 -1.6284 -1.3624
  397TIP3   OH2 1154   1.857   2.168   3.812  0.0855 -0.1250 -0.0493
  397TIP3    H1 1155   1.930   2.117   3.775  0.0265 -0.2491  0.0057
  397TIP3    H2 1156   1.798   2.102   3.848  0.3715  0.0140  0.6944
  398TIP3   OH2 1157   3.005   4.872   0.827  0.3319 -0.3414 -0.0382
  398TIP3    H1 1158   2.962   4.910   0.904  0.2762  1.4220 -0.8770
  398TIP3    H2 1159   3.027   4.783   0.853  0.8050  0.3675  2.2199
  399TIP3   OH2 1160   3.316   5.901   1.975 -0.0148  0.0338 -0.4697
  399TIP3    H1 1161   3.231   5.858   1.967  0.1842 -0.4710  0.0549
  399TIP3    H2 1162   3.376   5.845   1.925 -0.1693  0.9579 -1.7475
  400TIP3   OH2 1163   5.210   1.786   4.675  0.2329 -0.2275 -0.2890
  400TIP3    H1 1164   5.180   1.736   4.751 -1.4356  0.9463 -0.1182
  400TIP3    H2 1165   5.292   1.826   4.703 -0.0580 -0.2960  0.6830
  401TIP3   OH2 1166   3.856   4.552   4.608 -0.3910 -0.2413 -0.5370
  401TIP3    H1 1167   3.925   4.486   4.612  0.2931  0.4492 -0.6225
  401TIP3    H2 1168   3.804   4.538   4.686  1.3897  0.8492  0.9260
  402TIP3   OH2 1169   5.660   6.210   2.833 -0.1791 -0.0708 -0.7934
  402TIP3    H1 1170   5.730   6.262   2.794 -0.3000  0.8235  0.1412
  402TIP3    H2 1171   5.582   6.264   2.824  0.3957  2.0662  4.0302
  403TIP3   OH2 1172   4.998   5.847   0.023  0.2806  0.3480 -0.4446
  403TIP3    H1 1173   5.015   5.867  -0.069 -0.0384 -0.6367 -0.7272
  403TIP3    H2 1174   5.082   5.860   0.066  0.5674  0.2714 -0.9744
  404TIP3   OH2 1175   5.681   6.696   2.099  0.5584  0.1843 -0.2554
  404TIP3    H1 1176   5.704   6.647   2.020  3.2071  0.2390  0.4185
  404TIP3    H2 1177   5.586   6.709   2.091  0.1461 -2.7531 -1.7405
  405TIP3   OH2 1178   1.813   5.396   4.173 -0.1082 -0.3333  0.0928
  405TIP3    H1 1179   1.757   5.335   4.124  0.0760 -0.7311  0.3688
  405TIP3    H2 1180   1.766   5.410   4.255 -1.1919  1.5590 -0.7969
  406TIP3   OH2 1181   5.825   4.767   3.411 -0.7777  0.0298 -0.5758
  406TIP3    H1 1182   5.863   4.707   3.474 -0.5311  1.2744  0.5056
  406TIP3    H2 1183   5.869   4.747   3.328  0.2232 -0.4086  0.0502
  407TIP3   OH2 1184   4.363   1.162   2.020 -0.1526  1.2859  0.3401
  407TIP3    H1 1185   4.280   1.162   2.068 -0.1959  2.1877  0.2704
  407TIP3    H2 1186   4.376   1.253   1.994 -0.1748  0.8001 -1.4496
  408TIP3   OH2 1187   3.497   4.491   5.026 -0.1417  0.9069  0.1372
  408TIP3    H1 1188   3.552   4.427   4.982  0.1311  1.0218  0.3115
  408TIP3    H2 1189   3.558   4.553   5.065 -0.4096  1.4276 -0.2546
  409TIP3   OH2 1190   5.321   4.645   2.780  0.1895  0.6250 -0.5453
  409TIP3    H1 1191   5.395   4.705   2.771 -0.5963  1.5575 -1.0274
  409TIP3    H2 1192   5.261   4.689   2.841  0.4507 -0.5614  0.6064
  410TIP3   OH2 1193   1.574   4.226   0.311 -0.0822  0.0362  0.1061
  410TIP3    H1 1194   1.665   4.230   0.341 -0.2799 -0.1657  0.7403
  410TIP3    H2 1195   1.575   4.160   0.242  0.1641 -0.3270  0.4496
  411TIP3   OH2 1196   4.872   5.680   0.214 -0.3696 -0.1852 -0.2322
  411TIP3    H1 1197   4.919   5.748   0.166 -1.8251  0.0669 -1.3474
  411TIP3    H2 1198   4.781   5.690   0.188 -0.8222 -1.6948  0.6348
  412TIP3   OH2 1199   3.154   5.533   5.889 -0.4328  0.6472  0.8314
  412TIP3    H1 1200   3.229   5.475   5.876  0.5448  2.0819 -0.1784
  412TIP3    H2 1201   3.078   5.476   5.879  0.4896 -0.8639  1.9706
  413TIP3   OH2 1202   6.314   5.088   4.652 -0.0568 -0.7262 -0.0027
  413TIP3    H1 1203   6.243   5.042   4.697 -0.6493  2.2916  2.4456
  413TIP3    H2 1204   6.270   5.133   4.579 -0.1790 -0.9470 -0.0662
  414TIP3   OH2 1205   1.448   2.844   3.002  0.0825 -0.5104  0.2647
  414TIP3    H1 1206   1.541   2.839   2.979  0.3025  1.6199  0.4146
  414TIP3    H2 1207   1.402   2.832   2.919  0.6342  1.0549 -0.3140
  415TIP3   OH2 1208   1.204   2.063   1.229  0.1206  0.4755 -0.1842
  415TIP3    H1 1209   1.250   2.135   1.185  1.2184  0.1578  0.4049
  415TIP3    H2 1210   1.260   2.040   1.303 -0.2199 -0.9638 -0.3377
  416TIP3   OH2 1211   4.332   1.652   5.314 -0.0785 -0.0183 -0.1655
  416TIP3    H1 1212   4.278   1.604   5.250 -0.5803 -0.8543  0.8516
  416TIP3    H2 1213   4.414   1.669   5.268 -0.9173  0.5985 -1.4867
  417TIP3   OH2 1214   3.145   1.822   3.934 -0.8063 -0.3248  0.3230
  417TIP3    H1 1215   3.230   1.790   3.906 -0.3257  0.2641  1.0456
  417TIP3    H2 1216   3.093   1.743   3.951 -0.4255 -0.6849 -0.1573
  418TIP3   OH2 1217   5.189   3.352   0.822  0.1823  0.3964 -0.3539
  418TIP3    H1 1218   5.105   3.395   0.837 -1.0103 -1.2942 -1.8437
  418TIP3    H2 1219   5.176   3.263   0.854  0.9763 -0.2361 -1.7273
  419TIP3   OH2 1220   3.791   2.545   3.726  0.2306  0.4730  0.1944
  419TIP3    H1 1221   3.730   2.602   3.680 -0.3337 -0.3734 -0.1272
  419TIP3    H2 1222   3.832   2.492   3.658 -0.4565 -0.6436  0.6170
  420TIP3   OH2 1223   0.462   2.683   3.357  0.1276 -0.4019 -0.2624
  420TIP3    H1 1224   0.517   2.607   3.337 -0.6422 -1.0456  0.0063
  420TIP3    H2 1225   0.504   2.756   3.312  0.2220 -1.2061 -1.5175
  421TIP3   OH2 1226   1.658   6.095   0.631  0.1180  0.2525 -0.3468
  421TIP3    H1 1227   1.685   6.041   0.705  2.1572 -0.2830 -1.4065
  421TIP3    H2 1228   1.645   6.182   0.668 -1.4549 -0.5571  1.0658
  422TIP3   OH2 1229   6.435   4.540   3.595 -0.2372  0.4102 -0.0254
  422TIP3    H1 1230   6.501   4.602   3.625 -0.1117  1.3270 -2.0201
  422TIP3    H2 1231   6.471   4.504   3.513 -1.2275 -0.7382  0.0103
  423TIP3   OH2 1232   2.517   4.842   3.436 -0.0213 -0.1718 -0.2932
  423TIP3    H1 1233   2.571   4.774   3.476  0.4255 -0.4346 -1.3141
  423TIP3    H2 1234   2.431   4.803   3.427 -0.2650  0.0709  0.8740
  424TIP3   OH2 1235   3.102   1.148   4.716 -0.2528 -0.1381 -0.1723
  424TIP3    H1 1236   3.034   1.092   4.678 -1.5021  1.0532  0.2345
  424TIP3    H2 1237   3.184   1.106   4.690 -1.0787 -0.5823 -2.3124
  425TIP3   OH2 1238   0.886   4.599   5.139 -0.4407 -0.1216  0.2317
  425TIP3    H1 1239   0.839   4.674   5.176  1.0773  2.3235 -2.4622
  425TIP3    H2 1240   0.820   4.554   5.087 -0.7000  1.1878 -0.6183
  426TIP3   OH2 1241   4.588   1.151   4.621 -0.1960 -0.3106 -0.2943
  426TIP3    H1 1242   4.625   1.238   4.607  2.0333 -0.8707  1.4429
  426TIP3    H2 1243   4.579   1.113   4.534  0.7786  0.9134 -0.9463
  427TIP3   OH2 1244   1.053   3.721   4.064 -0.2293 -0.5097  0.4126
  427TIP3    H1 1245   1.006   3.771   4.132 -2.7520 -1.5054 -0.4859
  427TIP3    H2 1246   1.090   3.788   4.007 -0.4718  0.3337  1.2109
  428TIP3   OH2 1247   0.281   2.480   3.303 -0.7612 -0.1723  0.0256
  428TIP3    H1 1248   0.289   2.468   3.209  0.8217  0.3089  0.0672
  428TIP3    H2 1249   0.319   2.566   3.320 -0.6728 -0.4093  1.1382
  429TIP3   OH2 1250   2.333   3.751   2.369  0.0824 -0.0294  0.0003
  429TIP3    H1 1251   2.241   3.746   2.343 -0.0254  1.0707  0.1216
  429TIP3    H2 1252   2.340   3.690   2.443 -0.7590  0.5260  0.5558
  430TIP3   OH2 1253   7.077   5.696   2.802  0.3471 -0.1003 -0.3511
  430TIP3    H1 1254   7.166   5.693   2.838  0.5213 -1.4452 -0.8212
  430TIP3    H2 1255   7.023   5.652   2.868 -0.2640  1.9805  0.6091
  431TIP3   OH2 1256   6.762   2.260   3.592  0.4401 -0.2272  0.4637
  431TIP3    H1 1257   6.695   2.310   3.639 -1.0847 -0.6989 -1.1108
  431TIP3    H2 1258   6.771   2.180   3.644 -0.3461 -0.2274  0.6189
  432TIP3   OH2 1259   5.866   0.201   4.516  0.2071 -0.1528  0.3801
  432TIP3    H1 1260   5.944   0.248   4.545  0.8303 -0.2231 -1.0968
  432TIP3    H2 1261   5.823   0.173   4.597  1.4454  0.3120  1.2256
  433TIP3   OH2 1262   0.430   1.496   4.185  0.4467 -0.3088 -0.1952
  433TIP3    H1 1263   0.398   1.585   4.177 -0.6255 -0.7846 -1.7690
  433TIP3    H2 1264   0.356   1.446   4.220  1.0346 -0.5985  0.6713
  434TIP3   OH2 1265   5.367   4.931   3.662  0.2040  0.3284  0.1125
  434TIP3    H1 1266   5.403   4.871   3.727 -1.5552 -0.2541  0.6262
  434TIP3    H2 1267   5.393   4.894   3.578  0.2304 -0.4419  0.4503
  435TIP3   OH2 1268   7.149   5.340   0.395  0.1428 -0.3617  0.0023
  435TIP3    H1 1269   7.128   5.407   0.331 -1.8649 -0.2137  0.7571
  435TIP3    H2 1270   7.088   5.355   0.467  2.3265 -0.4968  2.0119
  436TIP3   OH2 1271   6.364   6.543   5.022 -0.3581 -0.5472  0.2911
  436TIP3    H1 1272   6.291   6.543   5.084 -0.8958  0.5947 -0.3191
  436TIP3    H2 1273   6.347   6.617   4.965  2.6401  1.3967  1.6926
  437TIP3   OH2 1274   5.679   6.287   2.451 -0.3673 -0.0657  0.0155
  437TIP3    H1 1275   5.653   6.375   2.476 -1.4911 -0.7042  1.2646
  437TIP3    H2 1276   5.743   6.299   2.381 -1.2041  1.7026 -0.5071
  438TIP3   OH2 1277   6.085   2.401   4.603 -0.0393  0.5291 -0.1248
  438TIP3    H1 1278   6.061   2.392   4.695  0.4230 -0.4674 -0.0919
  438TIP3    H2 1279   6.170   2.444   4.604  0.0666  0.3214 -0.0710
  439TIP3   OH2 1280   0.916   4.100   2.244  0.4215  0.1622  0.0771
  439TIP3    H1 1281   0.885   4.156   2.315  0.8048 -0.4818  0.7706
  439TIP3    H2 1282   0.859   4.120   2.171  0.9185  1.8922  0.1134
  440TIP3   OH2 1283   2.801   5.677   5.714  0.1419  0.0094  0.5299
  440TIP3    H1 1284   2.769   5.767   5.722  1.5050  0.5602  0.0216
  440TIP3    H2 1285   2.893   5.686   5.690 -0.3560 -1.5015 -2.3664
  441TIP3   OH2 1286   3.304   1.082   1.298 -0.4110 -0.1357 -0.3361
  441TIP3    H1 1287   3.356   1.150   1.340  2.4977 -2.6155  0.4345
  441TIP3    H2 1288   3.359   1.051   1.226 -1.6666 -1.6029 -0.7242
  442TIP3   OH2 1289   2.380   2.246   3.899 -0.1509  0.0282  0.5310
  442TIP3    H1 1290   2.384   2.170   3.841  1.7989  0.3310  0.1978
  442TIP3    H2 1291   2.324   2.218   3.971 -1.6256 -0.7799 -0.8551
  443TIP3   OH2 1292   3.756   2.433   3.112 -0.2433 -0.0183  0.1951
  443TIP3    H1 1293   3.800   2.518   3.104  0.3862  0.0665  3.1699
  443TIP3    H2 1294   3.676   2.442   3.061  0.9914  1.4551 -1.6028
  444TIP3   OH2 1295   4.505   1.990   4.361  0.4135  0.0868 -0.3067
  444TIP3    H1 1296   4.568   1.926   4.327  0.4733 -0.1777  0.2867
  444TIP3    H2 1297   4.552   2.073   4.359  0.5078  0.0267 -0.6120
  445TIP3   OH2 1298   4.598   2.434   5.339  0.2848  0.6086 -0.2394
  445TIP3    H1 1299   4.649   2.489   5.280 -0.1911  1.5567  0.2069
  445TIP3    H2 1300   4.507   2.463   5.326 -0.0118 -0.3101 -0.2494
  446TIP3   OH2 1301   1.080   0.299   3.926  0.1162  0.0834 -0.2100
  446TIP3    H1 1302   1.159   0.317   3.978 -0.8325 -0.0175  1.3351
  446TIP3    H2 1303   1.009   0.297   3.991 -1.2289  0.6475 -1.6193
  447TIP3   OH2 1304   0.521   2.858   5.486 -0.2448  0.0730 -0.1816
  447TIP3    H1 1305   0.459   2.840   5.416 -1.2517 -3.3295  1.3756
  447TIP3    H2 1306   0.471   2.910   5.550 -1.0455 -1.2521  0.3121
  448TIP3   OH2 1307   4.909   2.439   4.073 -0.2669  0.3808  0.0741
  448TIP3    H1 1308   4.918   2.362   4.128  0.6431  1.2686  1.2314
  448TIP3    H2 1309   4.816   2.462   4.079 -0.4923 -0.4559 -0.0757
  449TIP3   OH2 1310   1.148   6.033   1.632 -0.0247  0.5129  0.2297
  449TIP3    H1 1311   1.104   6.107   1.671 -0.5338  1.6570 -2.3274
  449TIP3    H2 1312   1.236   6.066   1.610  0.5605 -0.3699  1.1392
  450TIP3   OH2 1313   2.624   0.671   0.474 -0.5528 -0.7771 -0.2082
  450TIP3    H1 1314   2.545   0.722   0.460  0.8545  0.9446 -2.6374
  450TIP3    H2 1315   2.607   0.587   0.433 -1.1508 -0.4276 -0.6843
  451TIP3   OH2 1316   2.961   4.806   4.971  0.3655 -0.1687  0.3959
  451TIP3    H1 1317   2.936   4.714   4.978 -2.6182  0.4799 -0.1128
  451TIP3    H2 1318   2.968   4.836   5.062  0.0282 -0.6086  0.5726
  452TIP3   OH2 1319   4.162   0.399   0.043  0.3176 -0.6185  0.2568
  452TIP3    H1 1320   4.245   0.351   0.044  0.3252 -0.6451 -0.7487
  452TIP3    H2 1321   4.105   0.348  -0.015  0.3629  0.6097 -0.9218
  453TIP3   OH2 1322   0.397   1.875   3.956 -0.0651  0.0206 -0.4077
  453TIP3    H1 1323   0.414   1.968   3.948  0.7746 -0.1868 -1.3005
  453TIP3    H2 1324   0.338   1.855   3.883 -0.5115 -0.0852 -0.0199
  454TIP3   OH2 1325   4.614   6.698   2.302  0.9027  0.0466 -0.0917
  454TIP3    H1 1326   4.694   6.735   2.264  1.6163  0.0223  1.3041
  454TIP3    H2 1327   4.646   6.634   2.366 -0.2642 -0.7957 -0.3128
  455TIP3   OH2 1328   4.828   4.044   2.501  0.0569 -0.0972 -0.2645
  455TIP3    H1 1329   4.802   4.027   2.411 -1.5343  2.0756 -0.2822
  455TIP3    H2 1330   4.912   4.089   2.493  0.0663 -0.1763 -0.6451
  456TIP3   OH2 1331   4.478   2.935   3.573  0.1372 -0.5773  0.2426
  456TIP3    H1 1332   4.494   2.934   3.667 -0.4292 -1.0852  0.3369
  456TIP3    H2 1333   4.565   2.924   3.534  0.5964  1.2462  0.6699
  457TIP3   OH2 1334   5.967   2.817   0.096  0.2411 -0.1337  0.5736
  457TIP3    H1 1335   6.034   2.880   0.122 -0.2561  0.4079  0.5577
  457TIP3    H2 1336   5.885   2.855   0.127 -0.0418 -0.8669  0.7311
  458TIP3   OH2 1337   6.041   5.441   5.749 -0.1299 -0.0661  0.1522
  458TIP3    H1 1338   6.048   5.415   5.841  1.5016 -0.0479  0.0522
  458TIP3    H2 1339   6.107   5.390   5.703  0.7372  1.6599 -0.6117
  459TIP3   OH2 1340   0.288   4.544   3.198  0.5235 -0.7431 -0.6797
  459TIP3    H1 1341   0.240   4.532   3.116  0.2391 -0.8699 -0.4965
  459TIP3    H2 1342   0.368   4.493   3.188 -0.1280 -1.8510 -0.3577
  460TIP3   OH2 1343   7.187   0.233   4.202  0.3333  0.1316  0.2317
  460TIP3    H1 1344   7.133   0.157   4.179  0.6280  0.0785 -0.3148
  460TIP3    H2 1345   7.173   0.294   4.130  0.4545  0.4099  0.4441
  461TIP3   OH2 1346   1.167   4.946   0.680  0.2237  0.0694 -0.1297
  461TIP3    H1 1347   1.096   5.010   0.686  2.3726  2.6685 -0.3063
  461TIP3    H2 1348   1.210   4.950   0.766  1.0399 -0.2989 -0.5126
  462TIP3   OH2 1349   5.951   4.579   0.852  0.0653 -0.0921  0.4528
  462TIP3    H1 1350   6.013   4.650   0.869  0.9277 -0.5569 -0.5767
  462TIP3    H2 1351   5.953   4.568   0.757  0.3701 -1.8182  0.6164
  463TIP3   OH2 1352   0.042   5.466   4.824  0.0744 -0.0069 -0.2590
  463TIP3    H1 1353   0.109   5.427   4.881  1.9408  0.4644 -2.0287
  463TIP3    H2 1354  -0.014   5.392   4.800 -1.3472 -0.0909  2.7949
  464TIP3   OH2 1355   0.502   0.672   0.419  0.5133 -0.3396  0.0440
  464TIP3    H1 1356   0.507   0.585   0.460  0.4204  0.1241  1.0691
  464TIP3    H2 1357   0.584   0.680   0.370  0.0026 -1.4770 -1.0517
  465TIP3   OH2 1358   3.439   2.034   3.892  0.3248 -0.2259 -0.2241
  465TIP3    H1 1359   3.500   2.102   3.863 -0.6847  0.3479 -1.0579
  465TIP3    H2 1360   3.388   2.075   3.962 -0.2294 -0.1481 -0.6695
  466TIP3   OH2 1361   6.568   0.379   2.393 -0.1361  0.6754 -0.3332
  466TIP3    H1 1362   6.532   0.368   2.481 -0.8602 -0.4395 -0.7467
  466TIP3    H2 1363   6.625   0.455   2.399  0.7799 -0.0985  1.4010
  467TIP3   OH2 1364   4.245   1.025   3.370 -0.7114  0.0385  0.1382
  467TIP3    H1 1365   4.189   0.968   3.422  0.1773 -0.3477  0.6973
  467TIP3    H2 1366   4.215   1.013   3.279 -0.3509 -1.5337  0.2139
  468TIP3   OH2 1367   4.968   4.570   2.072 -0.0485  0.0755  0.7254
  468TIP3    H1 1368   5.013   4.555   2.155 -0.2981  0.6080  0.9579
  468TIP3    H2 1369   5.007   4.506   2.012  0.2195 -0.2284  1.2153
  469TIP3   OH2 1370   4.350   6.780   2.365 -0.1099 -0.1696  0.4647
  469TIP3    H1 1371   4.443   6.796   2.350 -0.1002  0.0052  0.6964
  469TIP3    H2 1372   4.331   6.698   2.320 -0.0557  0.2667 -0.3731
  470TIP3   OH2 1373   6.275   2.516   0.265 -0.7936  0.1148 -0.0828
  470TIP3    H1 1374   6.355   2.463   0.258 -0.3019  0.6873  0.9467
  470TIP3    H2 1375   6.282   2.579   0.193  0.3246  0.9696  0.7478
  471TIP3   OH2 1376   4.972   3.229   4.346 -0.1685  0.1989 -0.1165
  471TIP3    H1 1377   4.905   3.207   4.411  0.3537  1.2195  0.8128
  471TIP3    H2 1378   4.973   3.325   4.346 -1.5011  0.3363 -3.0629
  472TIP3   OH2 1379   4.549   3.816   4.266 -0.1384 -0.0011  0.0721
  472TIP3    H1 1380   4.635   3.808   4.225  0.5480 -4.7406  1.7128
  472TIP3    H2 1381   4.492   3.759   4.214 -1.5936  0.8819  0.6225
  473TIP3   OH2 1382   4.706   6.124   3.115 -0.0025 -0.4988 -0.1669
  473TIP3    H1 1383   4.721   6.041   3.160  0.2601  0.1859  1.0691
  473TIP3    H2 1384   4.793   6.150   3.082  0.2227 -0.0005  0.7719
  474TIP3   OH2 1385   2.538   0.961   3.505 -0.1901  0.3001 -0.3950
  474TIP3    H1 1386   2.469   1.026   3.512 -0.0042  0.4397  0.2410
  474TIP3    H2 1387   2.617   1.011   3.485 -0.5021  0.0123 -2.6092
  475TIP3   OH2 1388   3.426   5.113   3.470 -0.4810 -0.0899  0.3104
  475TIP3    H1 1389   3.408   5.127   3.377 -1.4148  0.1550  0.5117
  475TIP3    H2 1390   3.423   5.018   3.481 -2.0655 -0.0602  0.3843
  476TIP3   OH2 1391   6.137   5.564   4.489  0.1641  0.1047 -0.3970
  476TIP3    H1 1392   6.057   5.515   4.473 -0.1543  0.2683  0.6443
  476TIP3    H2 1393   6.200   5.499   4.519 -0.2021  0.2868  0.7994
  477TIP3   OH2 1394   5.528   6.053   5.092 -0.4904  0.0757 -0.1421
  477TIP3    H1 1395   5.605   6.102   5.065 -0.1198 -0.8690 -0.8602
  477TIP3    H2 1396   5.493   6.102   5.166  1.3859 -0.0488  0.8659
  478TIP3   OH2 1397   3.295   3.882   3.595 -0.5734  0.2261  0.5159
  478TIP3    H1 1398   3.282   3.854   3.505 -2.4557 -0.4057  0.9526
  478TIP3    H2 1399   3.214   3.926   3.619  0.9298  2.9579  1.0313
  479TIP3   OH2 1400   4.410   0.041   4.343 -0.4002 -0.2552 -0.2417
  479TIP3    H1 1401   4.481  -0.022   4.338  0.1840  0.4133 -0.4533
  479TIP3    H2 1402   4.387   0.044   4.436  1.5086  1.3245  0.2401
  480TIP3   OH2 1403   5.299   0.086   1.607 -0.3287 -0.2457  0.5598
  480TIP3    H1 1404   5.245   0.159   1.576 -0.1266 -0.1682  0.3943
  480TIP3    H2 1405   5.251   0.053   1.683 -0.3370  0.1713  0.7440
  481TIP3   OH2 1406   6.297   5.036   4.005 -0.3688  0.5554 -0.6937
  481TIP3    H1 1407   6.321   5.125   4.033 -2.3942  1.2712 -1.0450
  481TIP3    H2 1408   6.252   5.049   3.922 -0.8863 -0.7974 -0.6454
  482TIP3   OH2 1409   0.070   6.267   4.606  0.1914 -0.0072 -0.4014
  482TIP3    H1 1410   0.050   6.358   4.629  2.8167  0.8451 -1.1688
  482TIP3    H2 1411   0.004   6.244   4.540 -0.9039  1.0923  0.2621
  483TIP3   OH2 1412   5.435   5.134   0.373 -0.1485 -0.5241 -0.6205
  483TIP3    H1 1413   5.352   5.089   0.362  0.3768 -1.5180 -0.6139
  483TIP3    H2 1414   5.493   5.069   0.414  0.5488  0.2374 -0.3649
  484TIP3   OH2 1415   6.096   0.587   2.911  0.5245 -0.0311 -0.2030
  484TIP3    H1 1416   6.114   0.660   2.852 -0.0697  0.3518  0.0754
  484TIP3    H2 1417   6.017   0.546   2.876  1.9522 -1.8299 -1.5437
  485TIP3   OH2 1418   4.936   3.834   4.542 -0.0936  0.1172  0.3755
  485TIP3    H1 1419   5.002   3.895   4.508 -0.1387 -0.4139 -0.6873
  485TIP3    H2 1420   4.975   3.748   4.530  0.9644 -0.0639  3.9568
  486TIP3   OH2 1421   1.549   4.186   0.731 -0.4343 -0.4299 -0.6303
  486TIP3    H1 1422   1.621   4.129   0.759  0.2793 -0.0800 -1.6657
  486TIP3    H2 1423   1.492   4.129   0.679  0.4600 -0.1660 -1.9574
  487TIP3   OH2 1424   1.231   4.631   2.034  0.2746 -0.2486  0.3153
  487TIP3    H1 1425   1.317   4.659   2.065 -0.0099 -0.8445  1.7126
  487TIP3    H2 1426   1.243   4.540   2.009 -0.0449 -0.4794  0.9757
  488TIP3   OH2 1427   5.340   6.054   0.512 -0.2653 -0.1998 -0.0559
  488TIP3    H1 1428   5.434   6.060   0.532  0.0056  1.6114 -1.5086
  488TIP3    H2 1429   5.336   6.011   0.427 -0.9110 -1.8162  0.7568
  489TIP3   OH2 1430   4.684   1.552   1.795 -0.2094 -0.4051 -0.1293
  489TIP3    H1 1431   4.685   1.607   1.874  2.3226 -1.2377  0.4913
  489TIP3    H2 1432   4.714   1.611   1.726 -0.6022 -0.1754 -0.1092
  490TIP3   OH2 1433   4.371   2.389   0.861 -0.1865  0.2484  0.2386
  490TIP3    H1 1434   4.428   2.314   0.878 -3.7146 -2.1825  2.7300
  490TIP3    H2 1435   4.344   2.420   0.947 -2.0718  1.7477 -0.7937
  491TIP3   OH2 1436   6.818   5.622   5.354  0.1370 -0.4313  0.3995
  491TIP3    H1 1437   6.860   5.550   5.307 -0.5643  0.0311 -0.9766
  491TIP3    H2 1438   6.808   5.691   5.289 -1.0435  0.1651  1.1746
  492TIP3   OH2 1439   3.491   5.845   0.427 -0.7857  0.0384  0.0711
  492TIP3    H1 1440   3.449   5.783   0.368  0.6094 -1.0519  0.1781
  492TIP3    H2 1441   3.563   5.881   0.375 -1.4545  1.4687  0.0725
  493TIP3   OH2 1442   3.228   2.182   1.153  0.9763 -0.5821  0.2427
  493TIP3    H1 1443   3.194   2.195   1.241  0.9312  1.3678 -0.0053
  493TIP3    H2 1444   3.168   2.120   1.112 -0.7376  0.6947  0.6960
  494TIP3   OH2 1445   3.708   6.030   5.492  0.4438 -0.2245  0.0669
  494TIP3    H1 1446   3.640   6.072   5.439  1.7215  2.1898  0.1906
  494TIP3    H2 1447   3.665   5.954   5.531 -1.4823 -0.1245 -1.7153
  495TIP3   OH2 1448   2.809   0.887   1.237  0.0691  0.2350  0.1311
  495TIP3    H1 1449   2.726   0.849   1.267  1.4761 -2.1114  1.2987
  495TIP3    H2 1450   2.874   0.818   1.252  2.6222  2.7070  1.2119
  496TIP3   OH2 1451   6.198   3.806   0.551  0.2279  0.1794 -0.1845
  496TIP3    H1 1452   6.225   3.742   0.616 -0.9752  0.9727  1.1424
  496TIP3    H2 1453   6.165   3.880   0.601 -0.2965  1.0172 -1.6861
  497TIP3   OH2 1454   3.911   1.725   4.377  0.6054  0.1688  0.1573
  497TIP3    H1 1455   3.883   1.702   4.288 -0.0579 -0.7731  0.5982
  497TIP3    H2 1456   3.861   1.804   4.398  0.4189  0.1315 -0.1340
  498TIP3   OH2 1457   5.631   4.549   3.381 -0.1990 -0.4918  0.1262
  498TIP3    H1 1458   5.712   4.510   3.350  0.6120  1.1962  0.0016
  498TIP3    H2 1459   5.659   4.618   3.442 -1.5923 -0.7601  1.1242
  499TIP3   OH2 1460   3.428   5.647   3.177 -0.1355 -0.3405  0.2915
  499TIP3    H1 1461   3.517   5.627   3.146 -0.1582  0.7485 -0.5560
  499TIP3    H2 1462   3.410   5.581   3.243  1.5713 -0.2012  0.9491
  500TIP3   OH2 1463   5.448   4.164   1.926  0.5035 -0.4514  0.5146
  500TIP3    H1 1464   5.443   4.188   2.018 -0.5046 -0.4103  0.4642
  500TIP3    H2 1465   5.478   4.074   1.926 -1.0883 -1.0144  0.9840
  501TIP3   OH2 1466   6.402   6.401   2.062  0.0464  0.2673 -0.2200
  501TIP3    H1 1467   6.483   6.429   2.103 -0.4952  0.8913  0.4660
  501TIP3    H2 1468   6.427   6.371   1.975  1.1003 -0.2464  0.2511
  502TIP3   OH2 1469   0.973   2.494   2.541  0.4197  0.2518 -0.3093
  502TIP3    H1 1470   1.037   2.545   2.491  1.1712 -0.6042 -0.2432
  502TIP3    H2 1471   0.967   2.539   2.626  0.0979  0.9616 -0.6931
  503TIP3   OH2 1472   0.683   6.419   3.727 -0.2509  0.4305 -0.0658
  503TIP3    H1 1473   0.599   6.398   3.767  0.0463 -0.2943  0.2078
  503TIP3    H2 1474   0.691   6.514   3.734 -1.7011  0.6988 -1.4203
  504TIP3   OH2 1475   7.105   0.903   0.431  0.4764 -0.6474  0.1922
  504TIP3    H1 1476   7.179   0.946   0.475  0.0764 -1.0141  1.2509
  504TIP3    H2 1477   7.111   0.811   0.459 -2.2749 -0.1199  3.0598
  505TIP3   OH2 1478   2.055   2.869   2.427 -0.2505 -0.2694  0.4091
  505TIP3    H1 1479   2.110   2.885   2.504 -0.3713  1.7135  0.1349
  505TIP3    H2 1480   1.966   2.885   2.457 -0.6134 -2.3537  0.5560
  506TIP3   OH2 1481   4.943   5.171   3.838  0.1420 -0.1791  0.0851
  506TIP3    H1 1482   4.864   5.191   3.888 -0.4802  1.1720 -1.3570
  506TIP3    H2 1483   5.000   5.125   3.900 -1.7432 -1.1586  1.1682
  507TIP3   OH2 1484   0.023   6.516   4.690  0.0126  0.0753 -0.1287
  507TIP3    H1 1485   0.021   6.611   4.688  0.1454  0.0785 -0.1308
  507TIP3    H2 1486   0.098   6.495   4.746 -0.0186 -0.0275 -0.1249
  508TIP3   OH2 1487   2.774   5.854   1.696  0.4142 -0.3323  0.5573
  508TIP3    H1 1488   2.699   5.836   1.753  0.5290 -0.9656  0.5085
  508TIP3    H2 1489   2.811   5.768   1.678 -1.0013 -0.4409 -2.3671
  509TIP3   OH2 1490   0.720   3.290   0.631 -0.7788  0.1866  0.0853
  509TIP3    H1 1491   0.785   3.285   0.561 -0.1789  0.3031  0.6262
  509TIP3    H2 1492   0.722   3.203   0.672 -1.9696 -0.2689 -0.7709
  510TIP3   OH2 1493   2.156   4.303   3.309  0.2273 -1.2572 -0.1271
  510TIP3    H1 1494   2.218   4.237   3.277  1.0981 -0.3323 -0.4321
  510TIP3    H2 1495   2.212   4.377   3.335 -0.7433 -0.4670 -0.2332
  511TIP3   OH2 1496   4.908   2.121   3.571  0.5013  0.9956 -0.7507
  511TIP3    H1 1497   4.895   2.215   3.579  2.4244  1.1264  2.4823
  511TIP3    H2 1498   4.826   2.083   3.602  0.3194  1.6506 -0.4050
  512TIP3   OH2 1499   1.426   1.190   4.515 -0.3103  0.3685  0.0669
  512TIP3    H1 1500   1.500   1.198   4.455  1.4423 -0.3639  1.9935
  512TIP3    H2 1501   1.350   1.219   4.464  1.5003  2.6675 -1.5531
  513TIP3   OH2 1502   2.130   2.620   2.118  0.2369 -0.3763  0.2753
  513TIP3    H1 1503   2.101   2.708   2.142  1.3176 -0.1194  0.6968
  513TIP3    H2 1504   2.150   2.577   2.201  0.9760 -0.5620  0.0068
  514TIP3   OH2 1505   2.676   0.224   0.752 -0.0572 -0.0657 -0.0341
  514TIP3    H1 1506   2.708   0.200   0.665 -0.5910 -0.4682 -0.1212
  514TIP3    H2 1507   2.753   0.215   0.809  0.0388 -0.8093 -0.2800
  515TIP3   OH2 1508   0.657   1.836   1.408 -0.8017  0.1776 -0.1359
  515TIP3    H1 1509   0.569   1.842   1.447 -1.0774  0.2410 -0.7531
  515TIP3    H2 1510   0.672   1.922   1.371 -0.4332  0.1936  0.0446
  516TIP3   OH2 1511   3.649   2.242   4.889 -0.2910 -0.1599  0.3678
  516TIP3    H1 1512   3.667   2.332   4.864  1.9345 -0.6641 -0.0819
  516TIP3    H2 1513   3.567   2.246   4.938  0.1345  2.2137  0.9916
  517TIP3   OH2 1514   4.508   2.866   0.978 -0.1544 -0.4000 -0.1479
  517TIP3    H1 1515   4.540   2.882   0.889  1.5339 -2.0313  0.0946
  517TIP3    H2 1516   4.501   2.953   1.017  1.7339  0.2129 -1.0295
  518TIP3   OH2 1517   0.966   1.826   2.239 -0.3618  0.1589 -0.0183
  518TIP3    H1 1518   1.030   1.802   2.172 -2.1457 -0.1684 -1.7221
  518TIP3    H2 1519   0.903   1.881   2.191 -0.8638  1.2508  1.8077
  519TIP3   OH2 1520   0.821   4.549   0.735 -0.3161 -0.3179  0.2236
  519TIP3    H1 1521   0.856   4.467   0.771  1.1752  1.2153  2.5524
  519TIP3    H2 1522   0.858   4.554   0.648  1.6639 -0.9470  0.9731
  520TIP3   OH2 1523   4.345   3.121   4.323 -0.1050  0.4275  0.2122
  520TIP3    H1 1524   4.326   3.073   4.243 -0.4695  1.4552 -0.3294
  520TIP3    H2 1525   4.263   3.165   4.344  0.6236  2.0011 -0.1251
  521TIP3   OH2 1526   2.686   3.114   5.745 -0.9390 -0.8676 -0.2666
  521TIP3    H1 1527   2.622   3.085   5.809 -1.2595  2.5333  1.1644
  521TIP3    H2 1528   2.635   3.131   5.666 -1.7290  0.7431  0.5268
  522TIP3   OH2 1529   3.663   2.094   2.996  0.1985  0.2973  0.2685
  522TIP3    H1 1530   3.662   2.169   3.055  2.4235  1.7250 -1.3464
  522TIP3    H2 1531   3.746   2.050   3.014 -1.0352 -1.8470  1.1473
  523TIP3   OH2 1532   0.229   2.202   2.131  0.6179 -0.2007  0.3724
  523TIP3    H1 1533   0.249   2.138   2.199 -0.8686  0.7678  1.7950
  523TIP3    H2 1534   0.272   2.282   2.161  1.4065 -0.1695 -0.7550
  524TIP3   OH2 1535   1.410   0.729   4.696  0.0491  0.5091  0.2799
  524TIP3    H1 1536   1.489   0.678   4.680  1.9039  2.9952  0.8975
  524TIP3    H2 1537   1.395   0.721   4.791  0.9691  1.8414  0.5692
  525TIP3   OH2 1538   6.109   3.785   5.166 -0.0940 -0.6043 -0.2894
  525TIP3    H1 1539   6.140   3.840   5.094  1.1102 -0.5044  0.2744
  525TIP3    H2 1540   6.138   3.697   5.143  0.4506 -0.5435  0.1494
  526TIP3   OH2 1541   5.031   6.111   2.615  0.0985  0.2245  0.6566
  526TIP3    H1 1542   4.971   6.043   2.643 -2.1388  1.5778 -0.5556
  526TIP3    H2 1543   5.072   6.077   2.536  0.2691 -0.3652  0.9972
  527TIP3   OH2 1544   1.456   1.871   5.577  0.0558  0.1922  0.3892
  527TIP3    H1 1545   1.505   1.932   5.522 -0.3412  0.3434  0.1956
  527TIP3    H2 1546   1.476   1.784   5.542  0.4803  0.2253  0.5512
  528TIP3   OH2 1547   2.636   4.170   4.929 -0.2665  0.3197 -0.0698
  528TIP3    H1 1548   2.663   4.117   4.854  0.8132 -0.2267  0.6843
  528TIP3    H2 1549   2.684   4.253   4.919  0.7657 -0.1769  0.5958
  529TIP3   OH2 1550   3.656   2.986   1.858 -0.0610  0.3061 -0.4250
  529TIP3    H1 1551   3.597   3.028   1.796 -0.5308 -1.1772 -1.0178
  529TIP3    H2 1552   3.722   2.943   1.804  0.2879  0.0999  0.1549
  530TIP3   OH2 1553   4.318   1.072   1.505 -0.2983  0.1126 -0.1386
  530TIP3    H1 1554   4.242   1.107   1.551  0.6016  1.1117  0.6337
  530TIP3    H2 1555   4.376   1.041   1.575 -0.4573 -1.6782 -0.7551
  531TIP3   OH2 1556   4.086   3.822   3.378 -0.5456 -0.0170 -0.4263
  531TIP3    H1 1557   4.015   3.840   3.315  0.4705  0.0631 -1.5904
  531TIP3    H2 1558   4.103   3.906   3.419 -1.3122 -0.0974  0.0820
  532TIP3   OH2 1559   5.853   1.988   1.432 -0.5134  0.4705 -0.1922
  532TIP3    H1 1560   5.864   2.045   1.508 -0.9360  0.8137 -0.3811
  532TIP3    H2 1561   5.759   1.991   1.413 -0.3105  1.0846 -1.2422
  533TIP3   OH2 1562   4.098   2.253   0.876  0.5516 -0.5244 -0.2930
  533TIP3    H1 1563   4.090   2.344   0.903  0.1512 -0.6373 -0.0234
  533TIP3    H2 1564   4.183   2.248   0.833  0.9901 -0.2325  0.5137
  534TIP3   OH2 1565   5.854   1.491   3.957 -0.2579  0.1281  0.0788
  534TIP3    H1 1566   5.857   1.412   3.903 -0.0673  0.3843 -0.2910
  534TIP3    H2 1567   5.946   1.520   3.961 -0.4962  1.0895 -0.9238
  535TIP3   OH2 1568   3.771   1.595   4.586  0.3425 -0.2548 -0.0906
  535TIP3    H1 1569   3.690   1.566   4.543 -0.3719  2.4066 -0.7252
  535TIP3    H2 1570   3.820   1.640   4.518  0.3339  1.9067  1.2347
  536TIP3   OH2 1571   5.406   2.027   1.052  0.4736  0.8801 -0.2166
  536TIP3    H1 1572   5.498   2.045   1.034  0.7470  1.0763  1.2703
  536TIP3    H2 1573   5.405   1.997   1.143 -0.9765  1.1885 -0.1127
  537TIP3   OH2 1574   7.045   0.455   1.631  0.0945 -0.1428 -0.5045
  537TIP3    H1 1575   6.969   0.411   1.592  0.1347 -0.1508 -0.5740
  537TIP3    H2 1576   7.105   0.385   1.654 -1.1026 -0.4197  2.1798
  538TIP3   OH2 1577   3.866   6.578   5.344  0.0017  0.3808  0.4010
  538TIP3    H1 1578   3.784   6.625   5.333  0.1582  0.5805  0.0418
  538TIP3    H2 1579   3.887   6.546   5.256  0.2388  0.2193  0.5141
  539TIP3   OH2 1580   1.475   4.098   4.020  0.0555  0.3930  0.0239
  539TIP3    H1 1581   1.484   4.141   3.935  0.5074 -0.3020 -0.2881
  539TIP3    H2 1582   1.564   4.096   4.055  0.8016 -3.4744 -1.5619
  540TIP3   OH2 1583   0.295   0.844   2.386 -0.8547 -0.0808 -0.3282
  540TIP3    H1 1584   0.247   0.780   2.438 -1.8539 -0.5406 -1.7434
  540TIP3    H2 1585   0.243   0.855   2.306  0.1601  1.2437 -0.8652
  541TIP3   OH2 1586   2.262   5.255   1.350 -0.4746 -0.6226  0.2081
  541TIP3    H1 1587   2.172   5.272   1.322 -0.4359  0.6936  0.7824
  541TIP3    H2 1588   2.253   5.197   1.425 -0.9093  0.1149  0.7402
  542TIP3   OH2 1589   0.365   5.958   0.403  0.0383 -0.3420  0.1185
  542TIP3    H1 1590   0.357   5.985   0.494 -0.5224 -0.6590  0.1737
  542TIP3    H2 1591   0.276   5.966   0.368  0.5129  1.2832 -0.8468
  543TIP3   OH2 1592   1.420   3.386   4.994  0.2460  0.5682 -0.5218
  543TIP3    H1 1593   1.438   3.479   4.979  1.4055  0.8385  1.9116
  543TIP3    H2 1594   1.499   3.341   4.965  0.8326  0.6863  0.7876
  544TIP3   OH2 1595   6.750   0.010   1.440 -0.3273  0.2407 -0.4276
  544TIP3    H1 1596   6.697   0.086   1.460  0.0893  0.3864  0.1467
  544TIP3    H2 1597   6.735  -0.050   1.512 -0.6852 -0.2459 -0.8979
  545TIP3   OH2 1598   1.878   2.435   2.310  0.2119  0.3797  0.3775
  545TIP3    H1 1599   1.904   2.407   2.222  1.2372  0.6812  0.5688
  545TIP3    H2 1600   1.863   2.354   2.358  0.9605  0.1819  0.2910
  546TIP3   OH2 1601   2.687   4.087   2.189  0.0475 -0.2524 -0.2378
  546TIP3    H1 1602   2.726   4.044   2.113 -0.9325 -1.7919  0.0843
  546TIP3    H2 1603   2.759   4.135   2.229  1.2790 -1.8320 -0.4642
  547TIP3   OH2 1604   4.559   5.060   4.274  0.4056  0.3319 -0.5783
  547TIP3    H1 1605   4.643   5.025   4.304  0.5163  2.3105  1.7057
  547TIP3    H2 1606   4.502   4.983   4.270  1.4227 -0.5908  1.2599
  548TIP3   OH2 1607   2.607   6.010   1.248  0.0072 -0.3447  0.4359
  548TIP3    H1 1608   2.635   5.918   1.245 -0.2500 -0.4343  0.7896
  548TIP3    H2 1609   2.559   6.018   1.330 -2.3564 -0.5739 -0.8246
  549TIP3   OH2 1610   4.641   5.309   4.324 -0.3656 -0.1007  0.0936
  549TIP3    H1 1611   4.576   5.244   4.294 -1.1146  1.2946 -1.5100
  549TIP3    H2 1612   4.725   5.274   4.295 -0.8820  0.1877 -1.9450
  550TIP3   OH2 1613   0.299   2.144   2.999 -0.8912 -0.2443 -0.3981
  550TIP3    H1 1614   0.341   2.062   3.025 -1.6472 -1.1830 -2.0041
  550TIP3    H2 1615   0.207   2.130   3.021 -1.2615 -0.4122 -1.9778
  551TIP3   OH2 1616   4.137   1.463   2.717 -0.3274  0.1637 -0.1642
  551TIP3    H1 1617   4.066   1.464   2.653  0.4655  2.7682 -1.1704
  551TIP3    H2 1618   4.217   1.469   2.663  0.3766  2.0486  0.9974
  552TIP3   OH2 1619   6.009   0.257   2.930 -0.2519  0.2270 -0.2542
  552TIP3    H1 1620   6.019   0.224   2.840 -2.0180 -0.6524 -0.1673
  552TIP3    H2 1621   5.916   0.279   2.937  0.1599  1.7627  0.8946
  553TIP3   OH2 1622   2.208   1.342   5.628 -0.3382  0.2947 -0.1813
  553TIP3    H1 1623   2.262   1.268   5.655  0.0383  0.8168  0.5186
  553TIP3    H2 1624   2.118   1.308   5.631 -0.2097  0.0134  0.6252
  554TIP3   OH2 1625   3.941   1.558   3.567 -0.2314  0.2549 -0.2460
  554TIP3    H1 1626   3.966   1.478   3.520 -1.5066  0.3625 -1.1754
  554TIP3    H2 1627   4.018   1.581   3.618  0.1468 -1.6101  0.0981
  555TIP3   OH2 1628   2.151   5.388   4.805 -0.5680  0.0617  0.4130
  555TIP3    H1 1629   2.061   5.402   4.775 -0.4511  0.2253  0.1340
  555TIP3    H2 1630   2.146   5.393   4.901 -0.6971  1.0895  0.3635
  556TIP3   OH2 1631   5.437   1.681   3.473 -0.5753 -0.0196  0.1998
  556TIP3    H1 1632   5.450   1.767   3.514  0.7841 -0.1939  0.1763
  556TIP3    H2 1633   5.485   1.686   3.391 -2.2896 -0.0842 -0.8610
  557TIP3   OH2 1634   3.064   5.876   3.586  0.0110 -0.0850 -0.7422
  557TIP3    H1 1635   3.119   5.954   3.591 -1.2291  0.8192 -0.9992
  557TIP3    H2 1636   3.120   5.806   3.619  0.1480  1.4162  2.5434
  558TIP3   OH2 1637   3.545   6.396   5.499 -0.2023 -0.3289  0.8477
  558TIP3    H1 1638   3.558   6.488   5.477 -1.0000 -0.2749  0.5896
  558TIP3    H2 1639   3.632   6.357   5.488 -0.5196 -0.3736 -2.6844
  559TIP3   OH2 1640   4.370   6.673   0.874  0.2808  0.2359  0.0386
  559TIP3    H1 1641   4.298   6.665   0.937  1.0972  0.9560  1.1046
  559TIP3    H2 1642   4.424   6.596   0.889 -0.0422 -0.1020 -0.4896
  560TIP3   OH2 1643   5.617   4.597   4.591 -0.0909 -0.0763 -0.1823
  560TIP3    H1 1644   5.554   4.610   4.520 -0.8875 -1.7306  0.1661
  560TIP3    H2 1645   5.699   4.634   4.557 -0.7329  0.1932 -1.5097
  561TIP3   OH2 1646   1.295   2.550   0.163  0.0575  0.2576  0.0993
  561TIP3    H1 1647   1.242   2.521   0.237 -1.1957  0.0789 -0.8248
  561TIP3    H2 1648   1.293   2.476   0.102 -0.3184  1.0060 -0.8170
  562TIP3   OH2 1649   4.844   3.313   5.533 -0.2923 -0.0005 -0.2206
  562TIP3    H1 1650   4.843   3.243   5.469 -0.5043  0.6107 -0.8986
  562TIP3    H2 1651   4.766   3.299   5.586 -0.1093 -0.5160 -0.0883
  563TIP3   OH2 1652   0.230   4.959   3.502 -0.2591  0.5201 -0.2762
  563TIP3    H1 1653   0.258   4.939   3.592 -0.2476  3.0291  0.3585
  563TIP3    H2 1654   0.134   4.961   3.508 -0.2334  1.5414 -0.0905
  564TIP3   OH2 1655   4.184   4.746   4.019 -0.3271 -0.2534  0.5335
  564TIP3    H1 1656   4.104   4.779   4.059 -0.3082 -1.2206  1.4209
  564TIP3    H2 1657   4.202   4.807   3.947 -1.5924  0.2438  0.6089
  565TIP3   OH2 1658   3.318   1.013   4.626 -0.2493 -0.4404  0.4118
  565TIP3    H1 1659   3.396   1.065   4.606 -2.0936  1.7063 -1.7292
  565TIP3    H2 1660   3.312   0.950   4.554 -1.1933  0.3404 -0.2242
  566TIP3   OH2 1661   4.294   2.119   0.675  0.7814 -0.2380 -0.1145
  566TIP3    H1 1662   4.236   2.060   0.724  1.1161 -0.6804 -0.2413
  566TIP3    H2 1663   4.334   2.063   0.609  0.2082  0.3819 -1.0133
  567TIP3   OH2 1664   5.285   1.456   0.427 -0.2675  0.6836  0.1458
  567TIP3    H1 1665   5.363   1.420   0.469  0.2637  1.2362 -0.3429
  567TIP3    H2 1666   5.229   1.482   0.500 -0.2196 -0.1896  0.5002
  568TIP3   OH2 1667   6.628   6.575   2.164  0.0701 -0.1698 -0.8627
  568TIP3    H1 1668   6.717   6.584   2.128  0.2409 -0.1967 -0.4495
  568TIP3    H2 1669   6.577   6.640   2.116  0.0862 -0.8378 -1.8103
  569TIP3   OH2 1670   0.729   4.497   1.543  0.2578 -0.7216  0.1632
  569TIP3    H1 1671   0.780   4.443   1.483 -0.5844 -0.4942 -0.7996
  569TIP3    H2 1672   0.645   4.451   1.551 -0.3427  0.2464 -0.3975
  570TIP3   OH2 1673   0.679   6.004   2.843 -0.0320  0.1585 -0.5825
  570TIP3    H1 1674   0.684   5.909   2.856 -1.0745  0.3364  1.3926
  570TIP3    H2 1675   0.586   6.020   2.827  0.0641  0.9242 -0.3612
  571TIP3   OH2 1676   2.975   3.272   5.588  0.1456  0.2984 -0.6562
  571TIP3    H1 1677   2.919   3.205   5.551  1.0129 -0.6835 -0.2384
  571TIP3    H2 1678   3.007   3.322   5.513 -0.9180  0.5981 -0.9271
  572TIP3   OH2 1679   2.383   3.938   0.077  0.0989 -0.4882 -0.3185
  572TIP3    H1 1680   2.430   3.929  -0.006  1.4739 -1.7762  0.5576
  572TIP3    H2 1681   2.431   4.006   0.124 -0.1045 -0.4471 -0.1672
  573TIP3   OH2 1682   5.738   3.321   3.368  0.2191  0.0975 -0.7982
  573TIP3    H1 1683   5.681   3.246   3.352  0.7419 -0.0814 -1.8939
  573TIP3    H2 1684   5.683   3.398   3.352  0.0051 -0.0605 -0.8232
  574TIP3   OH2 1685   5.489   0.346   2.756 -0.4119 -0.0460 -0.6622
  574TIP3    H1 1686   5.565   0.361   2.700 -0.1279 -1.1370 -0.5915
  574TIP3    H2 1687   5.525   0.341   2.845 -0.4218 -1.5280 -0.7248
  575TIP3   OH2 1688   5.449   4.540   0.957 -0.0716  0.2076  0.3389
  575TIP3    H1 1689   5.490   4.611   1.006 -0.7274  0.1274  1.0169
  575TIP3    H2 1690   5.431   4.473   1.022  3.7105 -2.1813 -0.7438
  576TIP3   OH2 1691   5.447   5.091   2.581 -0.0772 -0.7353  0.0575
  576TIP3    H1 1692   5.378   5.105   2.517 -0.1191 -0.0043  0.2617
  576TIP3    H2 1693   5.518   5.148   2.553 -1.0899  1.7514  2.1824
  577TIP3   OH2 1694   6.105   5.441   0.700  0.0281 -0.0180  0.1528
  577TIP3    H1 1695   6.165   5.411   0.769  1.0839 -1.7506 -1.4148
  577TIP3    H2 1696   6.019   5.440   0.741  0.5735 -1.3869  1.3705
  578TIP3   OH2 1697   4.131   1.145   0.940  0.3708 -0.0581 -0.0942
  578TIP3    H1 1698   4.199   1.078   0.940  1.1072  0.6597 -0.4159
  578TIP3    H2 1699   4.152   1.200   1.016  1.4598  1.4062 -1.3815
  579TIP3   OH2 1700   3.772   3.351   4.651  0.4188 -0.1731 -0.1165
  579TIP3    H1 1701   3.780   3.264   4.611 -0.1188 -0.3937  0.2362
  579TIP3    H2 1702   3.853   3.396   4.628  0.9352 -0.9515  0.1488
  580TIP3   OH2 1703   6.693   2.148   1.211  0.4423 -0.1883 -0.6301
  580TIP3    H1 1704   6.734   2.072   1.252  0.6189  0.4162  0.3496
  580TIP3    H2 1705   6.599   2.132   1.220  0.4802 -0.1785 -0.2221
  581TIP3   OH2 1706   0.982   5.947   0.979  0.3827  0.1692 -0.2941
  581TIP3    H1 1707   0.977   6.030   0.932  0.7743  0.0574 -0.5382
  581TIP3    H2 1708   1.074   5.940   1.005 -0.2335  1.3957  2.6341
  582TIP3   OH2 1709   2.595   2.242   3.416  0.2470  0.5001  0.0264
  582TIP3    H1 1710   2.580   2.334   3.436  0.7763  0.7103 -0.5052
  582TIP3    H2 1711   2.537   2.223   3.343  0.4693  0.5389 -0.1624
  583TIP3   OH2 1712   6.886   6.244   5.072  0.6697  0.2250 -0.2051
  583TIP3    H1 1713   6.870   6.317   5.132 -0.0254 -0.2700  0.2202
  583TIP3    H2 1714   6.800   6.205   5.057  0.2614  2.0676 -3.8522
  584TIP3   OH2 1715   3.464   2.996   4.419  0.1456 -0.5074  0.5369
  584TIP3    H1 1716   3.473   2.938   4.495  0.4763 -1.8643 -0.4844
  584TIP3    H2 1717   3.369   3.005   4.407  0.0835 -0.9618  0.6425
  585TIP3   OH2 1718   6.131   2.278   5.709  0.2179  0.5743 -0.0870
  585TIP3    H1 1719   6.135   2.317   5.622 -2.2997 -0.3498 -0.7093
  585TIP3    H2 1720   6.197   2.209   5.707  0.3118  0.6801 -1.2101
  586TIP3   OH2 1721   1.626   2.814   4.442  0.1087 -0.1003  0.1773
  586TIP3    H1 1722   1.628   2.724   4.411 -0.1165  0.7129 -2.4266
  586TIP3    H2 1723   1.533   2.831   4.460  0.1613 -0.4016  0.7445
  587TIP3   OH2 1724   4.601   6.066   3.599 -0.5774  0.3959  0.0418
  587TIP3    H1 1725   4.544   6.143   3.590 -1.2628  0.0263  1.0260
  587TIP3    H2 1726   4.596   6.023   3.514 -1.5433  0.5418  0.0041
  588TIP3   OH2 1727   1.395   2.919   3.857 -0.3020 -0.7960  0.0239
  588TIP3    H1 1728   1.436   2.843   3.899 -0.4940  0.1442  2.0323
  588TIP3    H2 1729   1.389   2.985   3.927 -1.7038  0.4665 -1.2121
  589TIP3   OH2 1730   1.776   0.170   2.535 -0.0953  0.4551 -0.2477
  589TIP3    H1 1731   1.840   0.172   2.606  0.3500 -1.8501 -0.4920
  589TIP3    H2 1732   1.734   0.256   2.537  0.3411  0.6811  2.3656
  590TIP3   OH2 1733   3.585   3.471   4.828  0.8557 -0.0181 -0.1132
  590TIP3    H1 1734   3.649   3.536   4.860  1.0427  0.1399 -0.7992
  590TIP3    H2 1735   3.636   3.415   4.770  0.5788 -0.4818  0.0947
  591TIP3   OH2 1736   3.342   6.318   2.729  0.0508 -0.2176 -0.2136
  591TIP3    H1 1737   3.393   6.376   2.672 -0.8266  0.8033  0.0125
  591TIP3    H2 1738   3.345   6.233   2.685  0.4785  0.2410 -1.0996
  592TIP3   OH2 1739   0.899   4.370   2.398  0.3431 -0.6668 -0.5522
  592TIP3    H1 1740   0.932   4.439   2.341  3.0645 -0.9980  0.4657
  592TIP3    H2 1741   0.862   4.416   2.474 -0.2347 -0.3067 -1.0465
  593TIP3   OH2 1742   5.085   5.981   2.957 -0.4315  0.0678  0.2181
  593TIP3    H1 1743   5.178   5.993   2.941 -0.3860  1.5949  1.4480
  593TIP3    H2 1744   5.080   5.912   3.023 -0.2449 -0.5924 -0.4374
  594TIP3   OH2 1745   5.164   6.010   3.614  0.3252 -0.1819  0.4165
  594TIP3    H1 1746   5.212   5.928   3.605  0.5189 -0.0004 -0.2656
  594TIP3    H2 1747   5.075   5.988   3.586 -0.3101 -0.7836  2.6860
  595TIP3   OH2 1748   6.025   2.858   1.936  0.0883  0.1311 -0.4429
  595TIP3    H1 1749   6.099   2.901   1.893 -0.1361  0.0508 -0.9104
  595TIP3    H2 1750   6.065   2.805   2.005  0.4785 -0.0093 -0.7744
  596TIP3   OH2 1751   5.404   1.648   3.848 -0.4641  0.5861  0.0145
  596TIP3    H1 1752   5.384   1.614   3.761  0.7989 -0.8742  0.2519
  596TIP3    H2 1753   5.434   1.738   3.832 -0.5173  0.4345 -1.0172
  597TIP3   OH2 1754   7.063   2.690   0.941  0.0722 -0.3078  0.7134
  597TIP3    H1 1755   6.985   2.645   0.974 -0.0870 -0.4561  0.1416
  597TIP3    H2 1756   7.101   2.731   1.019 -0.5402 -0.2834  1.0091
  598TIP3   OH2 1757   3.250   5.895   5.112  0.4055  0.8909  0.4877
  598TIP3    H1 1758   3.228   5.973   5.062  0.5086  1.1662  0.8629
  598TIP3    H2 1759   3.191   5.898   5.188 -1.2657 -0.6633 -0.6878
  599TIP3   OH2 1760   5.936   4.299   1.722 -0.3178 -0.3558 -0.5622
  599TIP3    H1 1761   5.994   4.329   1.792 -0.8281  0.1404 -0.3537
  599TIP3    H2 1762   5.970   4.212   1.699  1.6064  0.6053 -1.6426
  600TIP3   OH2 1763   5.123   0.571   4.805 -0.1201 -0.2620 -0.1654
  600TIP3    H1 1764   5.079   0.500   4.759  0.1765 -1.5047  1.3939
  600TIP3    H2 1765   5.085   0.651   4.767 -1.1427 -1.2424 -1.2985
  601TIP3   OH2 1766   4.468   6.292   4.180 -0.3632 -0.4145  0.7542
  601TIP3    H1 1767   4.395   6.341   4.218  0.4165  1.9439 -0.5952
  601TIP3    H2 1768   4.541   6.307   4.240 -0.3401 -0.6415  0.7838
  602TIP3   OH2 1769   6.680   3.529   0.524 -0.3258 -0.1314  0.1115
  602TIP3    H1 1770   6.645   3.519   0.435 -1.2674  0.8229  0.3485
  602TIP3    H2 1771   6.775   3.534   0.511 -0.5269  1.9928 -1.1036
  603TIP3   OH2 1772   5.655   1.523   1.105  0.2801  0.5031  0.8669
  603TIP3    H1 1773   5.750   1.508   1.109  0.2886  0.1846 -0.2092
  603TIP3    H2 1774   5.620   1.473   1.179  0.7922 -0.8977  0.2094
  604TIP3   OH2 1775   2.649   1.091   1.620  0.4027 -0.2500  0.1577
  604TIP3    H1 1776   2.681   1.172   1.580  1.1061  0.0018  1.1830
  604TIP3    H2 1777   2.714   1.070   1.687 -0.8522 -0.4892  1.3691
  605TIP3   OH2 1778   6.886   2.422   0.571 -0.3708  0.2675  0.3889
  605TIP3    H1 1779   6.902   2.502   0.621 -3.4871  0.2663  1.6480
  605TIP3    H2 1780   6.927   2.438   0.486  1.8280  1.8352  1.6487
  606TIP3   OH2 1781   4.913   2.094   0.698  0.3619  0.3900  0.0850
  606TIP3    H1 1782   4.891   2.075   0.789 -0.6781  0.7760 -0.0731
  606TIP3    H2 1783   4.885   2.184   0.685 -0.3447  0.0399 -0.8771
  607TIP3   OH2 1784   5.083   1.915   1.522 -0.0705 -0.0003 -0.2510
  607TIP3    H1 1785   5.016   1.957   1.575 -0.9148 -1.5925  0.0120
  607TIP3    H2 1786   5.057   1.931   1.432  0.5722  1.4666 -0.2050
  608TIP3   OH2 1787   6.361   2.478   5.067  0.0329  0.3973  0.2809
  608TIP3    H1 1788   6.414   2.453   5.142  0.2212  1.6812  0.6103
  608TIP3    H2 1789   6.412   2.547   5.024 -1.3283  1.6653  0.6000
  609TIP3   OH2 1790   5.302   5.752   0.394 -0.0167 -1.0106  0.1582
  609TIP3    H1 1791   5.344   5.789   0.472  0.0792  1.1719 -0.8600
  609TIP3    H2 1792   5.343   5.666   0.384 -0.0244 -1.3499  2.4787
  610TIP3   OH2 1793   4.536   3.835   2.018  0.3536 -0.7299  0.1264
  610TIP3    H1 1794   4.630   3.821   2.008  0.5414 -0.2022  1.0161
  610TIP3    H2 1795   4.529   3.925   2.051 -0.4572 -0.8237  0.2265
  611TIP3   OH2 1796   4.471   3.208   3.599 -0.0796  0.6080 -0.0177
  611TIP3    H1 1797   4.512   3.228   3.515 -0.1797 -1.0700 -0.5077
  611TIP3    H2 1798   4.464   3.113   3.599 -1.7527  0.7030  1.1152
  612TIP3   OH2 1799   5.198   4.609   2.535 -0.6778  0.3403 -0.5261
  612TIP3    H1 1800   5.220   4.627   2.626  2.6367  1.2894 -1.3579
  612TIP3    H2 1801   5.126   4.669   2.514  0.0401  1.7494  0.8699
  613TIP3   OH2 1802   6.057   1.716   2.490 -0.2452 -0.2837  0.4689
  613TIP3    H1 1803   6.033   1.782   2.425  1.2474  2.4123  2.4176
  613TIP3    H2 1804   6.150   1.700   2.475 -0.0253 -0.0732  1.5083
  614TIP3   OH2 1805   4.236   6.074   4.459  0.3768 -0.2824 -0.1576
  614TIP3    H1 1806   4.169   6.129   4.419  0.2853  0.2092  0.6526
  614TIP3    H2 1807   4.254   6.007   4.393 -0.5528 -0.1344 -0.5778
  615TIP3   OH2 1808   0.189   3.540   3.155 -0.0488 -0.6106  0.0863
  615TIP3    H1 1809   0.101   3.540   3.191  0.3556 -1.0914  1.1333
  615TIP3    H2 1810   0.184   3.486   3.077  0.2327 -4.7895  2.6687
  616TIP3   OH2 1811   6.099   0.163   1.997  0.4239 -0.6279 -0.1574
  616TIP3    H1 1812   6.017   0.208   2.017 -0.1690 -1.8445  0.2708
  616TIP3    H2 1813   6.081   0.115   1.916  0.9507 -0.3313 -0.4531
  617TIP3   OH2 1814   3.423   4.414   2.530  0.3828  0.3236 -0.3875
  617TIP3    H1 1815   3.404   4.504   2.557 -0.3173  0.2550 -0.6385
  617TIP3    H2 1816   3.337   4.373   2.523  0.6572 -0.1489 -1.0285
  618TIP3   OH2 1817   4.269   4.347   2.930  0.0192  0.4119 -0.2014
  618TIP3    H1 1818   4.184   4.354   2.972  0.5659  0.1492  1.0108
  618TIP3    H2 1819   4.252   4.360   2.837 -1.4763 -0.5509 -0.0924
  619TIP3   OH2 1820   6.558   1.996   4.903 -0.0005 -0.0329  0.1463
  619TIP3    H1 1821   6.512   2.072   4.867 -1.0287 -0.0292  1.3983
  619TIP3    H2 1822   6.539   1.925   4.841  0.0166  0.4507 -0.4235
  620TIP3   OH2 1823   7.212   1.879   4.625  0.5937 -0.0628 -0.3108
  620TIP3    H1 1824   7.140   1.819   4.641 -2.7760  3.7127  0.4802
  620TIP3    H2 1825   7.280   1.854   4.688 -0.7417 -2.6893  0.2033
  621TIP3   OH2 1826   3.950   0.272   0.751  0.1962 -0.3079  0.0932
  621TIP3    H1 1827   3.987   0.225   0.825  2.0753  1.0266  0.0702
  621TIP3    H2 1828   4.003   0.245   0.676  1.4015  1.7937  0.0946
  622TIP3   OH2 1829   5.444   3.509   0.438  0.2101  0.2524  0.3059
  622TIP3    H1 1830   5.429   3.449   0.511  1.3238 -2.1656 -1.2968
  622TIP3    H2 1831   5.357   3.522   0.400 -0.1028 -0.0989  0.8806
  623TIP3   OH2 1832   3.650   5.493   5.641  0.0910  0.1508  0.5663
  623TIP3    H1 1833   3.645   5.564   5.578  0.6966  0.0611  0.4101
  623TIP3    H2 1834   3.566   5.448   5.634 -0.4919  1.1320  1.0154
  624TIP3   OH2 1835   6.464   5.539   4.225  0.2678  0.2532 -0.0768
  624TIP3    H1 1836   6.517   5.619   4.225 -1.2558  1.3824  2.3153
  624TIP3    H2 1837   6.386   5.562   4.175  0.6561 -0.4008 -1.0040
  625TIP3   OH2 1838   2.974   2.288   4.813 -0.5987 -0.1118  0.0932
  625TIP3    H1 1839   3.035   2.242   4.755 -0.0314 -0.1291  0.6894
  625TIP3    H2 1840   3.021   2.295   4.896 -1.0570  0.6979  0.2939
  626TIP3   OH2 1841   1.330   0.007   4.076  0.4657 -0.7615  0.1383
  626TIP3    H1 1842   1.376  -0.019   4.156  1.3547 -0.0133 -0.1085
  626TIP3    H2 1843   1.284   0.088   4.099 -1.8034 -2.1506  0.7360
  627TIP3   OH2 1844   1.296   4.183   0.078 -0.3718 -0.2163 -0.3337
  627TIP3    H1 1845   1.226   4.224   0.130 -1.1676 -1.8605 -0.0401
  627TIP3    H2 1846   1.288   4.090   0.096  2.0362 -0.4460 -0.1830
  628TIP3   OH2 1847   4.106   1.349   1.639  0.1215  0.5911  0.6491
  628TIP3    H1 1848   4.078   1.260   1.659  0.4096  0.1837 -0.6393
  628TIP3    H2 1849   4.095   1.397   1.720 -1.2606 -0.3176  1.0229
  629TIP3   OH2 1850   3.125   4.345   1.895 -0.1443 -0.3061 -0.8808
  629TIP3    H1 1851   3.161   4.256   1.889 -0.2541 -0.2818 -1.9860
  629TIP3    H2 1852   3.099   4.353   1.987 -0.2320 -1.4542 -0.7821
  630TIP3   OH2 1853   2.478   6.400   1.411 -0.4222  0.0776  0.0908
  630TIP3    H1 1854   2.456   6.486   1.376 -1.4223  0.3468  1.3085
  630TIP3    H2 1855   2.541   6.417   1.481  2.6753 -0.5693 -2.3372
  631TIP3   OH2 1856   2.432   6.759   2.343 -0.4200  0.4754 -0.5977
  631TIP3    H1 1857   2.370   6.719   2.403  1.8302 -1.0159  0.8908
  631TIP3    H2 1858   2.455   6.689   2.281  0.8697  0.5276 -0.1999
  632TIP3   OH2 1859   5.370   1.507   2.379  0.9035 -0.1365  0.0047
  632TIP3    H1 1860   5.343   1.440   2.441  0.7983 -0.8843 -0.8242
  632TIP3    H2 1861   5.297   1.569   2.376  0.8166 -0.2155  0.4450
  633TIP3   OH2 1862   3.812   2.945   4.784 -0.4865  0.3541  0.2149
  633TIP3    H1 1863   3.834   2.977   4.872  1.3531 -0.7524  0.2201
  633TIP3    H2 1864   3.798   2.851   4.797 -1.0580  0.3217 -0.5679
  634TIP3   OH2 1865   6.252   5.137   1.794  0.5965  0.1205  0.5171
  634TIP3    H1 1866   6.225   5.101   1.709  0.3930 -0.7218  0.9370
  634TIP3    H2 1867   6.282   5.062   1.844  1.4439  0.7224  0.9349
  635TIP3   OH2 1868   1.291   3.126   4.090  0.1337  0.3527  0.1836
  635TIP3    H1 1869   1.339   3.207   4.075  2.2921 -0.8004  0.3205
  635TIP3    H2 1870   1.211   3.135   4.039  1.1945  1.7923 -1.3391
  636TIP3   OH2 1871   3.258   2.681   4.613  0.0376  0.0552 -0.4779
  636TIP3    H1 1872   3.311   2.602   4.601 -1.2481 -0.5762 -2.5791
  636TIP3    H2 1873   3.186   2.653   4.669 -0.3678 -0.2521 -1.1458
  637TIP3   OH2 1874   1.781   1.057   0.914  0.3610 -0.2160 -0.8263
  637TIP3    H1 1875   1.751   0.967   0.920  0.5470 -0.2596 -0.5152
  637TIP3    H2 1876   1.741   1.101   0.989 -0.2757  0.1266 -1.3510
  638TIP3   OH2 1877   4.940   3.323   1.658 -0.1675  0.1042  0.0427
  638TIP3    H1 1878   4.913   3.311   1.567  0.0593 -2.8381  0.2704
  638TIP3    H2 1879   4.865   3.366   1.700 -1.0388 -0.2089 -1.1418
  639TIP3   OH2 1880   3.078   6.156   0.092  0.1978  0.5672  0.2386
  639TIP3    H1 1881   2.990   6.189   0.109  0.1945  0.3593  0.6498
  639TIP3    H2 1882   3.136   6.229   0.115  0.0670  1.4335 -1.9666
  640TIP3   OH2 1883   2.305   0.246   0.662 -0.1470  0.0066  0.4786
  640TIP3    H1 1884   2.216   0.225   0.633  0.1306 -0.0313 -0.3785
  640TIP3    H2 1885   2.299   0.249   0.757 -0.8185 -1.1662  0.4981
  641TIP3   OH2 1886   4.761   3.753   5.130  0.6350  0.5908 -0.1588
  641TIP3    H1 1887   4.855   3.739   5.120  0.4877 -0.6495  0.0245
  641TIP3    H2 1888   4.740   3.712   5.214 -0.1846  0.2482 -0.5220
  642TIP3   OH2 1889   3.503   6.131   1.942  0.3771 -0.2259  0.0822
  642TIP3    H1 1890   3.491   6.213   1.990  2.1689 -0.8772  1.7576
  642TIP3    H2 1891   3.414   6.100   1.924 -0.3293  1.9218 -0.3840
  643TIP3   OH2 1892   1.596   3.478   2.441  0.2052 -0.3182 -0.1777
  643TIP3    H1 1893   1.575   3.521   2.524 -0.4090  0.6897 -0.8173
  643TIP3    H2 1894   1.685   3.447   2.451  0.3998  0.4490  0.5995
  644TIP3   OH2 1895   0.174   5.727   0.831  0.5416  0.3769 -0.4952
  644TIP3    H1 1896   0.189   5.634   0.815 -0.2043 -0.1337  1.4496
  644TIP3    H2 1897   0.231   5.749   0.904  1.5145  1.7608 -1.6131
  645TIP3   OH2 1898   3.620   4.186   2.538 -0.0510  0.3719 -0.0273
  645TIP3    H1 1899   3.576   4.102   2.545  1.9742 -0.6649  1.0260
  645TIP3    H2 1900   3.548   4.250   2.536 -1.6316 -1.3183 -0.6187
  646TIP3   OH2 1901   4.525   1.105   0.711  0.1555  0.1141  0.3002
  646TIP3    H1 1902   4.478   1.069   0.636  2.1045  0.0487 -0.9533
  646TIP3    H2 1903   4.500   1.198   0.712  1.6988  0.6233 -1.7988
  647TIP3   OH2 1904   5.365   6.195   5.850 -0.3170  0.3875 -0.1972
  647TIP3    H1 1905   5.317   6.255   5.907 -0.8012  0.0407 -0.2241
  647TIP3    H2 1906   5.447   6.177   5.896 -0.2080  0.9962 -0.1503
  648TIP3   OH2 1907   4.535   6.197   2.276  0.1125  0.2657  0.6044
  648TIP3    H1 1908   4.539   6.259   2.203  0.1468  1.0124  1.2216
  648TIP3    H2 1909   4.625   6.195   2.309  0.5518 -1.5394 -0.5335
  649TIP3   OH2 1910   4.276   4.175   1.479  0.3383  0.0418 -0.2671
  649TIP3    H1 1911   4.272   4.131   1.563  0.8780  1.4951  0.5571
  649TIP3    H2 1912   4.360   4.221   1.479 -0.5644  1.7970 -0.6524
  650TIP3   OH2 1913   4.469   3.137   1.033 -0.4721 -0.1372  0.1702
  650TIP3    H1 1914   4.385   3.117   1.075 -0.6270 -1.1849 -0.5729
  650TIP3    H2 1915   4.447   3.195   0.961 -0.4537  0.2125  0.4469
  651TIP3   OH2 1916   4.968   2.223   4.273 -0.2441 -0.1880 -0.0438
  651TIP3    H1 1917   5.002   2.237   4.362  0.1467  0.1692 -0.2458
  651TIP3    H2 1918   4.941   2.131   4.273 -1.2166  0.0808  0.7658
  652TIP3   OH2 1919   5.082   3.954   1.481  0.3373 -0.0206 -0.1442
  652TIP3    H1 1920   5.120   3.905   1.553 -0.3459  0.3935  0.5161
  652TIP3    H2 1921   5.136   4.033   1.474 -0.2687  0.4810  0.6718
  653TIP3   OH2 1922   1.729   5.031   2.858  0.1120 -0.4358 -0.1948
  653TIP3    H1 1923   1.803   5.091   2.850  0.6793 -1.1423 -0.3921
  653TIP3    H2 1924   1.674   5.070   2.925  0.7078  0.0592  0.0220
  654TIP3   OH2 1925   0.975   2.792   2.324 -0.0796  0.4598 -0.1625
  654TIP3    H1 1926   1.008   2.862   2.268  0.4602 -0.4694 -1.0497
  654TIP3    H2 1927   0.991   2.712   2.274  2.3348 -0.6438  2.1167
  655TIP3   OH2 1928   4.299   0.768   4.635  0.0742 -0.1062 -0.0325
  655TIP3    H1 1929   4.383   0.813   4.646  0.5816 -0.9778 -0.2078
  655TIP3    H2 1930   4.263   0.805   4.554 -0.1670  0.9590  0.5542
  656TIP3   OH2 1931   6.060   3.253   2.441  0.0189  0.2527 -0.0542
  656TIP3    H1 1932   6.107   3.307   2.505  0.2985  2.5263 -2.0115
  656TIP3    H2 1933   5.970   3.252   2.472  0.3459  0.4375  0.9221
  657TIP3   OH2 1934   4.345   5.882   4.304  0.2941 -0.3502  0.0870
  657TIP3    H1 1935   4.408   5.822   4.343  0.7919 -0.0762 -0.2692
  657TIP3    H2 1936   4.305   5.832   4.233 -0.6665 -0.8729  0.9729
  658TIP3   OH2 1937   1.412   1.516   1.234  0.0826  0.3365 -0.0999
  658TIP3    H1 1938   1.432   1.601   1.272 -1.4017  0.1593  1.1734
  658TIP3    H2 1939   1.472   1.456   1.279 -0.4646  0.3854  0.7054
  659TIP3   OH2 1940   0.629   1.188   5.625  0.0473  0.0321 -0.0057
  659TIP3    H1 1941   0.724   1.179   5.624  0.0761  0.1146  1.0346
  659TIP3    H2 1942   0.604   1.176   5.716 -0.8553  0.9891 -0.1000
  660TIP3   OH2 1943   2.156   4.220   4.238 -0.2320 -0.1558  0.4279
  660TIP3    H1 1944   2.171   4.127   4.223 -0.4020 -0.0706 -0.2957
  660TIP3    H2 1945   2.232   4.263   4.199 -1.2258  0.1379 -1.3221
  661TIP3   OH2 1946   1.986   1.913   0.676 -0.0697 -0.1839 -0.1894
  661TIP3    H1 1947   1.978   1.844   0.742  1.0431 -0.3304 -0.1814
  661TIP3    H2 1948   1.944   1.876   0.598  1.2051 -1.2267 -0.4255
  662TIP3   OH2 1949   1.952   3.299   2.247  0.1463  0.3889  0.2380
  662TIP3    H1 1950   1.932   3.268   2.335 -0.4258  0.5558  0.1740
  662TIP3    H2 1951   2.041   3.269   2.230  0.3984  0.6719  1.0098
  663TIP3   OH2 1952   5.505   1.547   4.084 -0.0946 -0.0372 -0.0771
  663TIP3    H1 1953   5.477   1.589   4.003  2.7743  1.0612 -0.6144
  663TIP3    H2 1954   5.435   1.565   4.146 -1.7522  0.2365 -1.9081
  664TIP3   OH2 1955   2.492   2.349   4.213  0.3341 -0.0691  0.0666
  664TIP3    H1 1956   2.481   2.367   4.307 -0.1599 -0.8963  0.1862
  664TIP3    H2 1957   2.540   2.266   4.211  1.9899  0.8710 -0.4419
  665TIP3   OH2 1958   3.595   6.211   3.778  0.9138 -0.4867 -0.3273
  665TIP3    H1 1959   3.538   6.142   3.812  0.9324 -0.1872  0.3363
  665TIP3    H2 1960   3.618   6.263   3.855  0.0449  0.8905 -0.9711
  666TIP3   OH2 1961   6.166   3.981   4.654 -0.0974 -0.0538 -0.1584
  666TIP3    H1 1962   6.198   4.045   4.718 -0.1088 -0.8817  0.7027
  666TIP3    H2 1963   6.157   4.031   4.573 -0.2428  1.0654  0.5206
  667TIP3   OH2 1964   7.052   3.297   2.924 -0.4205 -0.1111  0.6721
  667TIP3    H1 1965   7.134   3.247   2.926 -2.0732 -3.2788 -1.7064
  667TIP3    H2 1966   7.059   3.350   2.845  0.2052  1.4858  1.7450
  668TIP3   OH2 1967   4.360   0.968   0.494  0.2662  0.3402 -0.4688
  668TIP3    H1 1968   4.421   0.901   0.462 -0.7721 -0.4353 -0.8938
  668TIP3    H2 1969   4.286   0.918   0.530 -0.1341  1.2551  0.0347
  669TIP3   OH2 1970   2.117   3.567   1.558 -0.2297  0.6935 -0.2722
  669TIP3    H1 1971   2.110   3.652   1.513 -1.4678  1.2789  0.9405
  669TIP3    H2 1972   2.112   3.589   1.651  0.6356 -0.6270  0.1117
  670TIP3   OH2 1973   1.032   3.694   4.638  0.2540 -0.1292 -0.2473
  670TIP3    H1 1974   1.042   3.615   4.691  0.1124  0.1848  0.2504
  670TIP3    H2 1975   1.078   3.673   4.556 -1.4985 -1.4745 -0.9457
  671TIP3   OH2 1976   5.830   5.701   1.781  0.2212 -0.3734 -0.4343
  671TIP3    H1 1977   5.800   5.772   1.724 -0.5690  1.2985  1.9471
  671TIP3    H2 1978   5.924   5.714   1.789  0.0985  0.3600 -0.1054
  672TIP3   OH2 1979   5.437   3.413   4.819  0.2040  0.3708  0.4951
  672TIP3    H1 1980   5.417   3.442   4.907 -0.3732  0.3650  0.3739
  672TIP3    H2 1981   5.405   3.323   4.816  0.3506  0.3236  0.3249
  673TIP3   OH2 1982   4.210   3.892   2.472 -0.2788 -0.0625 -0.2160
  673TIP3    H1 1983   4.239   3.801   2.470 -0.3937 -0.0913 -1.0316
  673TIP3    H2 1984   4.284   3.942   2.437 -0.0761  0.2016  0.5825
  674TIP3   OH2 1985   4.185   0.133   2.520 -0.2786  0.4168 -0.0500
  674TIP3    H1 1986   4.186   0.227   2.503  2.3181 -0.0176 -3.4665
  674TIP3    H2 1987   4.255   0.119   2.584 -1.0699  0.8382  0.9193
  675TIP3   OH2 1988   1.755   3.124   3.011 -0.1364 -0.8941  0.1174
  675TIP3    H1 1989   1.837   3.155   3.050 -0.5102  0.4927 -0.1572
  675TIP3    H2 1990   1.687   3.177   3.052 -0.8628 -1.7059 -0.0065
  676TIP3   OH2 1991   2.900   3.594   1.369 -0.6871 -0.4399  0.2635
  676TIP3    H1 1992   2.872   3.684   1.353 -1.0415 -0.1511  2.2068
  676TIP3    H2 1993   2.981   3.584   1.320 -0.4140  1.0860  0.3605
  677TIP3   OH2 1994   0.479   2.072   3.637  0.0747 -0.2555  0.3080
  677TIP3    H1 1995   0.549   2.043   3.694  0.9627  0.9398 -0.1453
  677TIP3    H2 1996   0.503   2.038   3.550 -0.0717 -0.0961  0.2052
  678TIP3   OH2 1997   4.603   5.199   2.352 -0.1238  0.1493  0.2615
  678TIP3    H1 1998   4.509   5.182   2.342  0.2031 -0.9991 -1.1937
  678TIP3    H2 1999   4.623   5.171   2.441 -1.2031  0.6952  0.6933
  679TIP3   OH2 2000   2.791   1.994   4.695  0.0724  0.0842 -0.4379
  679TIP3    H1 2001   2.747   2.024   4.775 -0.0296 -0.2218 -0.3793
  679TIP3    H2 2002   2.795   2.072   4.639  1.6447  0.7517  0.5224
  680TIP3   OH2 2003   6.953   6.434   2.243  0.1133  0.2912 -0.1088
  680TIP3    H1 2004   6.927   6.370   2.310 -0.1360  1.9441  1.4510
  680TIP3    H2 2005   7.036   6.401   2.210  0.1225 -0.7162  0.8422
  681TIP3   OH2 2006   4.520   4.485   5.003 -0.2636 -0.6557 -0.4566
  681TIP3    H1 2007   4.525   4.392   5.028 -2.3987 -0.8114 -0.3847
  681TIP3    H2 2008   4.452   4.487   4.935 -4.8328  1.4661  3.5687
  682TIP3   OH2 2009   6.631   0.261   4.146  0.5782 -0.0272  0.4328
  682TIP3    H1 2010   6.690   0.328   4.111 -1.2210 -0.4266 -4.0585
  682TIP3    H2 2011   6.558   0.310   4.184  0.1771  0.6542 -1.1184
  683TIP3   OH2 2012   3.604   1.264   1.915 -0.3558  0.2881 -0.0049
  683TIP3    H1 2013   3.637   1.317   1.842  0.3410  0.3535  0.3531
  683TIP3    H2 2014   3.535   1.318   1.954 -0.2043  0.5857 -0.1460
  684TIP3   OH2 2015   3.468   0.848   5.807  0.2635  0.0796 -0.0088
  684TIP3    H1 2016   3.523   0.814   5.877  1.4033  1.7735 -0.0070
  684TIP3    H2 2017   3.484   0.943   5.808 -1.3667  0.4149 -1.1436
  685TIP3   OH2 2018   4.296   2.551   3.876 -0.1889 -0.0510 -0.2792
  685TIP3    H1 2019   4.215   2.601   3.868 -0.2577 -0.0479  0.3290
  685TIP3    H2 2020   4.341   2.591   3.950 -0.8332 -1.6438  1.0473
  686TIP3   OH2 2021   1.747   5.002   1.041 -0.5454  0.0864 -0.0816
  686TIP3    H1 2022   1.722   5.051   0.962  1.3850  0.9154 -0.2577
  686TIP3    H2 2023   1.713   5.054   1.114 -2.8134 -0.9614 -0.2999
  687TIP3   OH2 2024   7.015   0.793   5.395 -0.1557 -0.0353 -0.2563
  687TIP3    H1 2025   6.974   0.776   5.310  1.2156  0.4907 -1.0651
  687TIP3    H2 2026   7.000   0.886   5.411  1.6941  0.4657 -1.1597
  688TIP3   OH2 2027   4.580   2.138   5.780 -0.0866  0.5107 -0.1683
  688TIP3    H1 2028   4.663   2.108   5.818 -0.7083 -0.6432  0.3299
  688TIP3    H2 2029   4.533   2.057   5.760 -0.1167  1.0738 -2.6827
  689TIP3   OH2 2030   6.029   2.808   4.751 -0.3695 -0.5781 -0.2859
  689TIP3    H1 2031   6.014   2.763   4.668 -1.5031  0.9444 -0.9570
  689TIP3    H2 2032   5.947   2.854   4.768  0.1933 -0.0654  1.1834
  690TIP3   OH2 2033   3.859   5.486   1.292  0.4152 -0.3669  0.1869
  690TIP3    H1 2034   3.915   5.515   1.363  0.0004 -1.5106  1.0083
  690TIP3    H2 2035   3.802   5.561   1.274 -1.0075 -0.7516  2.6253
  691TIP3   OH2 2036   2.505   6.053   1.512 -0.3352  0.2021  0.5612
  691TIP3    H1 2037   2.528   6.123   1.574  1.3588 -1.8939  2.5058
  691TIP3    H2 2038   2.444   5.997   1.561 -1.4089  0.1101 -0.8330
  692TIP3   OH2 2039   0.814   2.059   4.283  0.0027  0.3599  0.1298
  692TIP3    H1 2040   0.810   1.976   4.329 -2.3208  0.9987  1.2113
  692TIP3    H2 2041   0.886   2.106   4.324  0.8826 -0.8258 -0.0174
  693TIP3   OH2 2042   3.965   3.840   5.583  0.5165 -0.5208  0.2664
  693TIP3    H1 2043   4.005   3.912   5.631  0.0926 -0.2176  0.1648
  693TIP3    H2 2044   3.884   3.876   5.546  0.1314 -1.1363  0.4895
  694TIP3   OH2 2045   2.392   2.191   0.143 -0.3467 -0.0296  0.5548
  694TIP3    H1 2046   2.461   2.249   0.112 -0.1799 -1.4094 -1.9509
  694TIP3    H2 2047   2.320   2.250   0.168 -0.0363  1.3238 -1.4830
  695TIP3   OH2 2048   4.661   3.261   2.758  0.0655 -0.0664 -0.1412
  695TIP3    H1 2049   4.631   3.182   2.804  0.4799  0.2302  0.6588
  695TIP3    H2 2050   4.684   3.230   2.670 -0.1154 -0.7653  0.0493
  696TIP3   OH2 2051   2.241   5.689   3.369 -0.6075  0.0173 -0.2267
  696TIP3    H1 2052   2.148   5.701   3.386 -0.8288 -1.0295 -0.6213
  696TIP3    H2 2053   2.284   5.758   3.419 -1.5101 -0.2775  1.0117
  697TIP3   OH2 2054   2.461   6.448   2.524 -0.0864 -0.0633 -0.0135
  697TIP3    H1 2055   2.404   6.523   2.511  0.4653  0.6363  1.4068
  697TIP3    H2 2056   2.470   6.409   2.437 -2.1138  0.2261 -0.4115
  698TIP3   OH2 2057   4.230   0.032   3.804 -0.2052 -0.4389 -0.1229
  698TIP3    H1 2058   4.255  -0.055   3.774  0.0026 -1.2249  2.1028
  698TIP3    H2 2059   4.270   0.039   3.890  1.8381  2.8624 -1.1944
  699TIP3   OH2 2060   4.660   3.509   1.514 -0.4712 -0.9409  0.0522
  699TIP3    H1 2061   4.600   3.465   1.574 -0.2051 -0.1474  0.9316
  699TIP3    H2 2062   4.690   3.586   1.563 -0.8563  0.1706 -1.4006
  700TIP3   OH2 2063   3.158   0.185   3.675 -0.4259  0.2067 -0.1694
  700TIP3    H1 2064   3.252   0.180   3.657 -0.0350 -0.7596  1.9525
  700TIP3    H2 2065   3.152   0.205   3.768 -2.3190 -1.4894  0.1296
  701TIP3   OH2 2066   4.679   0.550   1.961 -0.1964 -0.2181  0.3413
  701TIP3    H1 2067   4.642   0.506   1.885 -0.1617  0.6196 -0.1667
  701TIP3    H2 2068   4.698   0.639   1.932 -1.0618  0.4069  1.5826
  702TIP3   OH2 2069   2.448   1.779   2.453 -0.3193  0.2706  0.1204
  702TIP3    H1 2070   2.424   1.848   2.515 -0.7157 -0.4481  0.7986
  702TIP3    H2 2071   2.460   1.701   2.508 -0.8996 -0.4390 -0.7273
  703TIP3   OH2 2072   3.645   2.891   1.266  0.7147 -0.2048 -0.1122
  703TIP3    H1 2073   3.593   2.961   1.227 -0.2357 -0.1784  1.1292
  703TIP3    H2 2074   3.728   2.893   1.218 -0.1293  0.2572 -1.6267
  704TIP3   OH2 2075   2.483   1.268   0.623 -0.1806 -0.2051 -0.4504
  704TIP3    H1 2076   2.410   1.239   0.569  0.7559 -3.1822 -0.2958
  704TIP3    H2 2077   2.446   1.276   0.711 -0.5894 -0.4762 -0.5940
  705TIP3   OH2 2078   1.225   3.571   2.931  0.4408 -0.3692  0.3557
  705TIP3    H1 2079   1.180   3.487   2.923 -0.5004  0.2324 -1.0730
  705TIP3    H2 2080   1.314   3.549   2.957  0.9374 -2.0054 -2.3785
  706TIP3   OH2 2081   3.289   0.080   1.825 -0.4261  0.1219  0.3841
  706TIP3    H1 2082   3.383   0.097   1.830 -0.4507  0.7704 -0.8284
  706TIP3    H2 2083   3.261   0.069   1.916  1.0364 -1.3733  0.6967
  707TIP3   OH2 2084   0.305   1.869   3.701 -0.4524 -0.7358  0.8631
  707TIP3    H1 2085   0.343   1.792   3.659  1.0206  0.2993  0.2137
  707TIP3    H2 2086   0.358   1.942   3.669 -3.9173  1.0694 -1.3496
  708TIP3   OH2 2087   2.997   5.942   2.699  0.0375 -0.5186  0.2831
  708TIP3    H1 2088   2.967   5.881   2.766 -0.8787  1.9857  2.3065
  708TIP3    H2 2089   2.970   6.028   2.730  2.9729  1.1964 -1.4172
  709TIP3   OH2 2090   3.566   4.089   2.100 -0.2490  0.1108 -0.2548
  709TIP3    H1 2091   3.573   4.132   2.015 -1.4563  0.6545 -0.0924
  709TIP3    H2 2092   3.537   4.000   2.080 -1.6957  0.5836 -0.3638
  710TIP3   OH2 2093   3.597   4.512   5.573  0.0713  0.0759 -0.3710
  710TIP3    H1 2094   3.576   4.572   5.644 -0.4499 -0.1538 -0.3282
  710TIP3    H2 2095   3.559   4.552   5.495  1.3886  0.7641 -0.6822
  711TIP3   OH2 2096   6.600   6.728   1.089  0.0732  0.0318 -0.0880
  711TIP3    H1 2097   6.586   6.747   1.182 -0.0132  0.7636 -0.2472
  711TIP3    H2 2098   6.685   6.768   1.069 -0.3374  0.7059 -0.5449
  712TIP3   OH2 2099   2.946   4.482   5.686  0.5267  0.1652 -0.1081
  712TIP3    H1 2100   2.973   4.536   5.760  1.8576 -1.0064  0.3002
  712TIP3    H2 2101   3.005   4.508   5.615  1.6081 -1.1268  0.2692
  713TIP3   OH2 2102   2.672   0.257   5.219  0.7443  0.2393  0.2451
  713TIP3    H1 2103   2.604   0.228   5.279  1.8952  0.6667  1.8195
  713TIP3    H2 2104   2.650   0.348   5.200 -0.0247 -0.1113 -0.5890
  714TIP3   OH2 2105   0.733   3.322   1.313 -0.4738  0.1859  0.0694
  714TIP3    H1 2106   0.764   3.395   1.368  0.7118  0.6722 -1.1805
  714TIP3    H2 2107   0.657   3.357   1.267 -0.3154  0.4198 -0.0189
  715TIP3   OH2 2108   4.743   5.866   0.735 -0.3449 -0.1306  0.1919
  715TIP3    H1 2109   4.807   5.855   0.664  2.8242  0.7666  2.6939
  715TIP3    H2 2110   4.740   5.960   0.750 -0.3547 -0.3621  1.7225
  716TIP3   OH2 2111   2.769   0.718   2.130  0.0345  0.4075  0.4461
  716TIP3    H1 2112   2.679   0.749   2.122 -0.0403  0.2083  0.4921
  716TIP3    H2 2113   2.761   0.622   2.124  0.2427  0.3906  0.4488
  717TIP3   OH2 2114   5.902   1.338   3.254 -0.6024 -0.1501  0.0277
  717TIP3    H1 2115   5.982   1.324   3.304  1.3209 -0.4272 -2.8968
  717TIP3    H2 2116   5.847   1.392   3.311  1.2104 -0.7865  2.5349
  718TIP3   OH2 2117   1.467   5.580   4.668  0.0867  0.0498 -0.2457
  718TIP3    H1 2118   1.410   5.598   4.743  0.3840 -2.8554  0.7809
  718TIP3    H2 2119   1.444   5.492   4.640  3.6648 -1.0791 -0.0927
  719TIP3   OH2 2120   6.932   2.781   5.620 -0.0973 -0.1026  0.0939
  719TIP3    H1 2121   6.997   2.794   5.688 -0.7831 -0.4580  0.8391
  719TIP3    H2 2122   6.944   2.855   5.560  0.1746  0.4926  0.8733
  720TIP3   OH2 2123   6.724   3.207   4.482 -0.0381  0.0798 -0.0034
  720TIP3    H1 2124   6.786   3.196   4.553 -0.5729  0.3770  0.5146
  720TIP3    H2 2125   6.641   3.172   4.515 -0.1006 -0.5317 -0.7691
  721TIP3   OH2 2126   5.679   4.423   1.687 -0.7780  0.2723 -0.3348
  721TIP3    H1 2127   5.674   4.379   1.602  1.0836 -0.4145 -0.1362
  721TIP3    H2 2128   5.765   4.399   1.721 -0.0011  3.4311  0.1828
  722TIP3   OH2 2129   1.414   2.523   3.260 -0.1011 -0.0456 -0.4031
  722TIP3    H1 2130   1.343   2.573   3.300 -0.3434 -0.3273 -0.4762
  722TIP3    H2 2131   1.479   2.588   3.236 -0.0068  0.1376  0.3373
  723TIP3   OH2 2132   4.900   4.221   5.692  0.1763 -0.1441  0.2210
  723TIP3    H1 2133   4.880   4.312   5.716  0.1564  0.1031 -0.7061
  723TIP3    H2 2134   4.817   4.187   5.658  0.3544 -0.3065 -0.0486
  724TIP3   OH2 2135   3.591   1.595   0.596  0.2366  0.3886  0.2092
  724TIP3    H1 2136   3.620   1.550   0.675  0.8276  0.5596  0.0939
  724TIP3    H2 2137   3.584   1.526   0.530  0.1767  0.3143  0.2935
  725TIP3   OH2 2138   5.502   5.892   2.917 -0.2744 -0.3730  0.4191
  725TIP3    H1 2139   5.458   5.936   2.844 -1.1657 -1.6416  0.1597
  725TIP3    H2 2140   5.482   5.946   2.993 -0.5794  0.1644 -0.0359
  726TIP3   OH2 2141   6.261   5.677   2.377  0.3517 -0.2581  0.0091
  726TIP3    H1 2142   6.291   5.749   2.433 -0.6323 -0.5979  1.0081
  726TIP3    H2 2143   6.213   5.720   2.306  2.3157  0.2317 -1.0879
  727TIP3   OH2 2144   2.206   5.230   1.684 -0.0954 -0.5266 -0.6603
  727TIP3    H1 2145   2.197   5.156   1.745 -0.3429 -1.2791 -1.5729
  727TIP3    H2 2146   2.289   5.271   1.708 -0.3512 -0.6002  0.3890
  728TIP3   OH2 2147   3.507   2.699   1.670 -0.6444 -0.4356  0.4710
  728TIP3    H1 2148   3.506   2.775   1.612  0.6412 -0.7424  0.0103
  728TIP3    H2 2149   3.445   2.721   1.740 -0.3017  1.0372  0.3431
  729TIP3   OH2 2150   6.226   3.197   2.211  0.4999  0.0494  0.7042
  729TIP3    H1 2151   6.151   3.144   2.236  0.9114 -0.4061  0.9827
  729TIP3    H2 2152   6.298   3.135   2.202  1.0074  0.5638  1.0958
  730TIP3   OH2 2153   5.650   0.871   2.350 -0.1488  0.0227  0.1170
  730TIP3    H1 2154   5.585   0.868   2.279 -0.0687  0.8052  0.0096
  730TIP3    H2 2155   5.650   0.782   2.385  0.3678 -0.5879 -1.3618
  731TIP3   OH2 2156   0.905   0.769   5.044 -0.0146 -0.0073 -0.0352
  731TIP3    H1 2157   0.814   0.780   5.014 -0.2875 -0.0271  0.7578
  731TIP3    H2 2158   0.947   0.718   4.975 -0.0507  1.7270 -1.4112
  732TIP3   OH2 2159   4.152   2.050   5.827 -0.3126 -0.4021  0.3612
  732TIP3    H1 2160   4.092   2.002   5.884 -0.4067  1.9279  2.3851
  732TIP3    H2 2161   4.095   2.099   5.767 -0.4130  0.4649  1.1422
  733TIP3   OH2 2162   0.853   2.639   5.097  0.1198 -0.1740  0.3140
  733TIP3    H1 2163   0.815   2.568   5.149 -0.5286 -0.9102 -1.1209
  733TIP3    H2 2164   0.780   2.699   5.083  0.5217  0.4936  1.0087
  734TIP3   OH2 2165   7.102   1.305   5.353  0.0565  0.3067  0.2165
  734TIP3    H1 2166   7.145   1.231   5.309 -0.7058  0.3166 -0.5655
  734TIP3    H2 2167   7.031   1.330   5.294  0.3893  1.7606  0.4105
  735TIP3   OH2 2168   2.199   1.609   3.341 -0.4286 -0.2345 -0.0700
  735TIP3    H1 2169   2.261   1.682   3.345 -1.2766  0.4680  1.8235
  735TIP3    H2 2170   2.134   1.636   3.276  0.5832 -0.4538 -1.2059
  736TIP3   OH2 2171   0.305   0.738   2.992  0.1774  0.1998 -0.9565
  736TIP3    H1 2172   0.274   0.800   2.926  0.8729 -0.5571 -2.0073
  736TIP3    H2 2173   0.336   0.663   2.943  0.8112 -0.3438  0.2299
  737TIP3   OH2 2174   3.423   2.519   4.409 -0.0567 -0.2436 -0.4145
  737TIP3    H1 2175   3.445   2.612   4.399 -0.3183 -0.2683 -1.3043
  737TIP3    H2 2176   3.446   2.499   4.499 -1.8614  1.1803  0.4236
  738TIP3   OH2 2177   6.763   4.444   5.115 -0.2592 -0.4618 -0.4027
  738TIP3    H1 2178   6.774   4.397   5.033 -1.5514  2.6023 -2.5165
  738TIP3    H2 2179   6.692   4.399   5.160 -0.3066 -1.5403 -1.5076
  739TIP3   OH2 2180   1.642   2.919   5.757 -0.8102 -0.4495 -0.0931
  739TIP3    H1 2181   1.573   2.854   5.747 -0.3886 -1.0593  0.7502
  739TIP3    H2 2182   1.617   2.967   5.836  0.1343 -1.2352  0.7159
  740TIP3   OH2 2183   6.284   2.960   2.814 -0.3128  0.2801  0.4255
  740TIP3    H1 2184   6.228   2.887   2.839  0.2589 -0.5321 -0.5956
  740TIP3    H2 2185   6.322   2.934   2.730  0.2501  1.5608  0.2566
  741TIP3   OH2 2186   2.017   0.276   1.951 -0.2233  0.3717  0.5322
  741TIP3    H1 2187   1.968   0.202   1.987  0.1670 -1.1484 -1.8389
  741TIP3    H2 2188   1.971   0.298   1.869  1.1942  1.0298 -0.1171
  742TIP3   OH2 2189   2.093   1.958   1.624 -0.0650 -0.4270  0.6544
  742TIP3    H1 2190   2.150   2.002   1.561 -0.5282 -0.7763 -0.0112
  742TIP3    H2 2191   2.153   1.911   1.682  0.6032  2.3967  2.4892
  743TIP3   OH2 2192   0.606   2.256   1.132  0.4722 -0.0927  0.1953
  743TIP3    H1 2193   0.626   2.339   1.089  1.0016 -0.1147  0.3962
  743TIP3    H2 2194   0.528   2.224   1.087  0.3137  0.4729  0.0626
  744TIP3   OH2 2195   4.424   1.090   4.134 -0.1294 -0.1586  0.4419
  744TIP3    H1 2196   4.405   1.090   4.227 -1.5753  0.1857  0.1732
  744TIP3    H2 2197   4.413   1.181   4.107 -0.9754 -0.4449 -0.2712
  745TIP3   OH2 2198   4.449   2.169   3.635  0.0189 -0.5154  0.7010
  745TIP3    H1 2199   4.468   2.129   3.551 -1.4987 -0.0803  0.1198
  745TIP3    H2 2200   4.450   2.263   3.618  2.0930 -0.2939  1.7293
  746TIP3   OH2 2201   5.888   1.544   1.884  0.0480  0.2132 -0.6206
  746TIP3    H1 2202   5.846   1.611   1.939  0.4311 -0.3915  0.4437
  746TIP3    H2 2203   5.816   1.505   1.834 -0.4817  0.0895  0.2168
  747TIP3   OH2 2204   4.230   1.812   1.318  0.1406  0.1196  0.2901
  747TIP3    H1 2205   4.285   1.771   1.385 -0.5304 -0.1193  0.6956
  747TIP3    H2 2206   4.253   1.904   1.322  0.3600  0.0535  0.6017
  748TIP3   OH2 2207   2.960   3.476   5.345 -0.7538 -0.0745  0.2635
  748TIP3    H1 2208   2.890   3.535   5.319  0.8568  1.8660  0.0497
  748TIP3    H2 2209   3.031   3.534   5.373  0.3596 -1.9641  1.6141
  749TIP3   OH2 2210   3.500   6.289   1.680  0.1235 -0.0722 -0.2466
  749TIP3    H1 2211   3.471   6.206   1.719 -0.3081  1.2387  2.5142
  749TIP3    H2 2212   3.421   6.342   1.675  0.8799  1.3120  1.3199
  750TIP3   OH2 2213   3.917   2.629   1.950 -0.3463  0.4728  0.4008
  750TIP3    H1 2214   3.978   2.637   1.877  0.7653 -1.4626  1.0322
  750TIP3    H2 2215   3.949   2.690   2.016  0.6211 -0.1259  0.5105
  751TIP3   OH2 2216   1.976   1.130   2.251  0.5681 -0.4666 -0.2380
  751TIP3    H1 2217   2.037   1.061   2.277  0.0215 -0.7939  0.2127
  751TIP3    H2 2218   1.915   1.137   2.325  0.9953  0.9594  0.0082
  752TIP3   OH2 2219   0.675   6.699   3.790  0.2384  0.1409 -0.6293
  752TIP3    H1 2220   0.735   6.699   3.864 -0.2587 -0.0594 -0.2220
  752TIP3    H2 2221   0.686   6.785   3.750  1.2386 -0.1070 -0.9264
  753TIP3   OH2 2222   4.001   3.766   3.628  0.5879  0.5883  0.3561
  753TIP3    H1 2223   4.065   3.754   3.697  0.9960  0.7250  0.0101
  753TIP3    H2 2224   4.050   3.753   3.547 -0.2511 -1.2866  0.1085
  754TIP3   OH2 2225   4.732   4.305   3.472  0.3747  0.3665 -0.1615
  754TIP3    H1 2226   4.661   4.354   3.432  0.1983  1.0471  0.9344
  754TIP3    H2 2227   4.754   4.355   3.551 -0.0552 -1.4938  1.2130
  755TIP3   OH2 2228   5.760   4.426   2.996  0.0891  0.2149 -0.3857
  755TIP3    H1 2229   5.800   4.341   2.984  2.2915  1.1388 -0.0332
  755TIP3    H2 2230   5.684   4.425   2.937  0.4485 -1.7147 -0.8781
  756TIP3   OH2 2231   5.186   4.201   3.846  0.2089 -0.1928 -0.0491
  756TIP3    H1 2232   5.215   4.289   3.821  0.6312 -0.3179  0.0033
  756TIP3    H2 2233   5.090   4.209   3.851 -0.0495 -0.4828 -2.9365
  757TIP3   OH2 2234   0.765   0.692   0.134 -0.8810  0.4134  0.0363
  757TIP3    H1 2235   0.843   0.721   0.086 -1.1781 -0.7727 -1.2308
  757TIP3    H2 2236   0.696   0.752   0.106 -0.7276  0.6083  0.0771
  758TIP3   OH2 2237   5.864   3.086   4.201 -0.4075 -0.5548 -0.4157
  758TIP3    H1 2238   5.773   3.102   4.176 -0.7691  0.4926  1.3982
  758TIP3    H2 2239   5.864   3.093   4.296  1.2998 -2.0693 -0.2531
  759TIP3   OH2 2240   5.357   4.793   4.160 -0.1720 -0.3781  0.1014
  759TIP3    H1 2241   5.440   4.810   4.116 -1.4189  1.3201 -1.7853
  759TIP3    H2 2242   5.382   4.759   4.246  2.4418 -0.2553 -0.5174
  760TIP3   OH2 2243   1.032   2.140   4.476 -0.1175  0.5273 -0.1639
  760TIP3    H1 2244   1.023   2.170   4.566  1.7918 -0.4234  0.3939
  760TIP3    H2 2245   1.122   2.161   4.452 -0.8089  1.4529 -2.1489
  761TIP3   OH2 2246   1.053   2.145   0.589  0.3948  0.2498 -0.4943
  761TIP3    H1 2247   0.967   2.107   0.610  0.0500  2.1710  2.2403
  761TIP3    H2 2248   1.106   2.071   0.560 -1.1922 -1.6997  1.2128
  762TIP3   OH2 2249   0.890   2.203   3.325  0.8414  0.5517 -0.2501
  762TIP3    H1 2250   0.865   2.269   3.261  0.2144  1.2009  0.6417
  762TIP3    H2 2251   0.982   2.220   3.343  1.0595  0.2817 -1.0544
  763TIP3   OH2 2252   4.157   3.413   0.057 -0.7082  0.1125  0.2570
  763TIP3    H1 2253   4.161   3.437  -0.036 -1.3796 -0.4520  0.0682
  763TIP3    H2 2254   4.208   3.332   0.063 -1.3573 -0.3091  0.2104
  764TIP3   OH2 2255   2.425   4.395   0.242  0.0651 -0.0760 -0.2125
  764TIP3    H1 2256   2.491   4.443   0.292  0.2571  1.2182 -1.6231
  764TIP3    H2 2257   2.358   4.460   0.221 -1.0091 -1.0557  0.0422
  765TIP3   OH2 2258   6.191   1.465   1.182 -0.3663 -0.1120 -0.0428
  765TIP3    H1 2259   6.133   1.446   1.108  0.3864 -2.6428 -0.0769
  765TIP3    H2 2260   6.256   1.395   1.180  1.5518  1.5158  1.1842
  766TIP3   OH2 2261   6.178   2.933   1.121 -0.8074  0.3723 -0.1691
  766TIP3    H1 2262   6.129   2.886   1.053  0.7532 -0.2752 -0.8955
  766TIP3    H2 2263   6.154   2.888   1.203 -0.4503 -0.7573 -0.6709
  767TIP3   OH2 2264   1.837   0.814   2.163  0.0228 -0.0639  0.6795
  767TIP3    H1 2265   1.802   0.776   2.244 -0.3543 -1.4099 -0.0764
  767TIP3    H2 2266   1.925   0.843   2.186 -0.4293  0.4718  1.8151
  768TIP3   OH2 2267   0.886   1.231   2.659 -0.2836 -0.3057 -0.0891
  768TIP3    H1 2268   0.944   1.161   2.689 -0.0988 -0.7705 -1.4514
  768TIP3    H2 2269   0.926   1.311   2.691  2.2636 -0.4370 -2.5907
  769TIP3   OH2 2270   4.893   2.341   1.289  0.8860 -0.6567 -0.3489
  769TIP3    H1 2271   4.899   2.407   1.221  2.7521 -0.2310  0.1740
  769TIP3    H2 2272   4.814   2.364   1.338  0.3412 -0.1067 -1.4528
  770TIP3   OH2 2273   1.852   1.994   0.267  0.2330 -0.2107 -0.2887
  770TIP3    H1 2274   1.936   1.953   0.287 -0.0310 -0.4423  0.3693
  770TIP3    H2 2275   1.848   1.995   0.172  1.1618  0.1656 -0.3349
  771TIP3   OH2 2276   6.123   3.770   1.589  0.2230 -0.1310  0.2470
  771TIP3    H1 2277   6.058   3.818   1.641  0.1014  2.1518 -1.8042
  771TIP3    H2 2278   6.202   3.771   1.643 -0.6208 -0.3400  1.5344
  772TIP3   OH2 2279   2.823   1.395   2.234 -0.0037  0.1550  0.8900
  772TIP3    H1 2280   2.839   1.478   2.188 -0.8169  0.2756  0.8012
  772TIP3    H2 2281   2.851   1.327   2.172  0.3569  0.3518  0.8331
  773TIP3   OH2 2282   0.813   3.370   4.736  0.2464  0.5798 -0.1046
  773TIP3    H1 2283   0.808   3.280   4.706 -0.9048  0.3605  0.6932
  773TIP3    H2 2284   0.907   3.391   4.734  0.4779 -0.4583 -0.7594
  774TIP3   OH2 2285   4.695   2.040   3.056  0.8020 -0.7477  0.3495
  774TIP3    H1 2286   4.763   2.085   3.007  0.7716 -0.1610  0.8291
  774TIP3    H2 2287   4.723   2.048   3.148 -0.3963  0.3629  0.6449
  775TIP3   OH2 2288   6.716   0.583   1.458 -0.0557  0.3774  0.4371
  775TIP3    H1 2289   6.693   0.625   1.375  0.6969  0.3497  0.2123
  775TIP3    H2 2290   6.664   0.631   1.523  1.1452  2.0183  0.2467
  776TIP3   OH2 2291   5.202   5.742   2.655  0.2222 -0.0758  0.6624
  776TIP3    H1 2292   5.224   5.659   2.696 -0.3522 -0.5336  0.0633
  776TIP3    H2 2293   5.178   5.719   2.565 -0.3402  0.6851  0.6024
  777TIP3   OH2 2294   6.887   2.250   2.748 -0.2650 -0.4858  0.2773
  777TIP3    H1 2295   6.799   2.265   2.783 -0.2930  2.0313 -0.6938
  777TIP3    H2 2296   6.874   2.234   2.655  0.2077 -1.7940  0.4218
  778TIP3   OH2 2297   4.160   3.727   4.583 -0.1196  0.1007  0.3792
  778TIP3    H1 2298   4.128   3.637   4.579  1.1377 -0.4492  1.8630
  778TIP3    H2 2299   4.256   3.719   4.579  0.0387  1.3174  1.1099
  779TIP3   OH2 2300   2.940   1.477   0.153 -0.2560  0.4641 -0.7396
  779TIP3    H1 2301   3.010   1.481   0.088  1.0819  0.4970  0.6552
  779TIP3    H2 2302   2.983   1.447   0.233 -2.3219 -2.1314 -0.4627
  780TIP3   OH2 2303   5.299   6.003   2.762 -0.3884 -0.3099 -0.4020
  780TIP3    H1 2304   5.293   5.938   2.692 -0.7652 -0.2596 -0.4177
  780TIP3    H2 2305   5.244   6.076   2.733 -0.1636 -0.0845 -0.2719
  781TIP3   OH2 2306   5.359   0.860   0.662 -0.0786 -0.0434  0.2923
  781TIP3    H1 2307   5.352   0.836   0.754  1.9961  0.1708  0.5528
  781TIP3    H2 2308   5.269   0.854   0.629 -0.7487 -0.8874  2.1169
  782TIP3   OH2 2309   3.168   5.611   0.397 -0.6829  0.6614  0.0935
  782TIP3    H1 2310   3.234   5.631   0.331 -0.2325 -0.9617  0.0096
  782TIP3    H2 2311   3.087   5.651   0.363 -0.2002  0.8985 -0.8170
  783TIP3   OH2 2312   4.428   4.570   2.989  0.0093 -0.2270 -0.2275
  783TIP3    H1 2313   4.418   4.592   3.082  2.8411 -0.8548  0.3075
  783TIP3    H2 2314   4.381   4.487   2.979 -2.3222  0.9657  0.0049
  784TIP3   OH2 2315   7.142   2.284   4.006 -0.2721 -0.2614 -0.0595
  784TIP3    H1 2316   7.134   2.328   4.090 -2.2433 -0.2456 -0.1996
  784TIP3    H2 2317   7.053   2.285   3.970  0.5708  0.0522 -2.3125
  785TIP3   OH2 2318   5.106   1.008   2.054 -0.3268 -0.0957 -0.1550
  785TIP3    H1 2319   5.167   1.012   1.980  1.1003  0.3128  0.9879
  785TIP3    H2 2320   5.070   1.097   2.060  0.8895  0.3730  0.6716
  786TIP3   OH2 2321   3.957   4.703   1.718 -0.3698 -0.1822 -0.3560
  786TIP3    H1 2322   3.959   4.611   1.743  1.2957 -0.0751  0.0680
  786TIP3    H2 2323   3.980   4.750   1.797  0.3490  0.4813 -0.9420
  787TIP3   OH2 2324   3.077   6.731   2.731 -0.1400  0.5110  0.4735
  787TIP3    H1 2325   3.047   6.710   2.820 -0.5752  2.3576  0.8113
  787TIP3    H2 2326   3.005   6.782   2.693  0.7496  1.2205 -0.3072
  788TIP3   OH2 2327   4.004   0.893   2.555 -0.0658  0.5452 -0.0826
  788TIP3    H1 2328   4.084   0.846   2.578 -0.4238  0.5465  1.3032
  788TIP3    H2 2329   4.018   0.982   2.589 -0.1274  0.9286 -1.0377
  789TIP3   OH2 2330   5.493   0.409   4.611 -0.4303 -0.1990 -0.3714
  789TIP3    H1 2331   5.415   0.405   4.666 -0.1712 -0.2625 -0.0029
  789TIP3    H2 2332   5.491   0.497   4.574  0.4885  0.6263  1.3994
  790TIP3   OH2 2333   0.614   5.402   4.868 -0.0717  0.0775  0.5529
  790TIP3    H1 2334   0.545   5.467   4.880 -0.6782 -0.3423 -0.5049
  790TIP3    H2 2335   0.682   5.449   4.819  0.5460  0.5774  1.8574
  791TIP3   OH2 2336   4.855   2.635   3.130  0.0838 -0.3662 -0.5491
  791TIP3    H1 2337   4.861   2.576   3.055  1.0419 -0.6473 -0.2602
  791TIP3    H2 2338   4.828   2.579   3.203  1.6417 -0.6113 -0.1227
  792TIP3   OH2 2339   0.429   4.603   5.006  0.3037 -0.0486  0.3609
  792TIP3    H1 2340   0.340   4.637   5.013  0.8779  1.4227  1.0563
  792TIP3    H2 2341   0.470   4.658   4.939  1.2931  0.7972  1.6044
  793TIP3   OH2 2342   3.371   5.515   5.597 -0.3927  0.3398 -0.4220
  793TIP3    H1 2343   3.321   5.434   5.600 -1.3094  0.8500 -1.3578
  793TIP3    H2 2344   3.376   5.537   5.504 -2.2723  2.5953 -0.0955
  794TIP3   OH2 2345   3.244   4.527   3.746 -0.1341  0.4327  0.1009
  794TIP3    H1 2346   3.335   4.514   3.774  0.1227  0.1979 -0.8016
  794TIP3    H2 2347   3.203   4.573   3.819  0.4319 -0.3769  0.9547
  795TIP3   OH2 2348   0.734   5.243   1.862 -0.0773  0.0114 -0.0588
  795TIP3    H1 2349   0.686   5.296   1.926  1.5753 -0.0678  1.3440
  795TIP3    H2 2350   0.823   5.237   1.899  0.3481 -1.9180 -1.2741
  796TIP3   OH2 2351   3.250   6.643  -0.024  0.0779  0.1329 -0.6682
  796TIP3    H1 2352   3.198   6.648   0.056 -0.2224 -1.0670 -0.7746
  796TIP3    H2 2353   3.292   6.728  -0.030 -0.1802  0.3688  0.5788
  797TIP3   OH2 2354   0.927   3.181   1.586 -0.4974 -0.6425  0.5956
  797TIP3    H1 2355   1.009   3.138   1.560 -0.9625 -1.9057  1.1372
  797TIP3    H2 2356   0.863   3.152   1.521 -0.3345  1.1504 -0.4284
  798TIP3   OH2 2357   1.517   4.822   4.593 -0.1579  0.3037 -0.0907
  798TIP3    H1 2358   1.574   4.788   4.524 -0.8273 -1.1329  0.0279
  798TIP3    H2 2359   1.576   4.840   4.666  0.3846  0.6392 -0.6046
  799TIP3   OH2 2360   2.407   5.513   0.938  0.4496  0.4594 -0.2345
  799TIP3    H1 2361   2.346   5.570   0.891 -0.0460  1.0508  1.1011
  799TIP3    H2 2362   2.351   5.461   0.995  1.0942  0.0933  0.0629
  800TIP3   OH2 2363   4.231   2.041   4.865  0.2898 -0.1749  0.4740
  800TIP3    H1 2364   4.242   2.134   4.845  0.1334 -0.2762 -0.0744
  800TIP3    H2 2365   4.167   2.009   4.802  0.6437 -0.7503  0.3935
  801TIP3   OH2 2366   3.613   6.482   2.871  0.2454  0.0572  0.0907
  801TIP3    H1 2367   3.548   6.441   2.929  0.0190 -0.8959 -0.8108
  801TIP3    H2 2368   3.647   6.410   2.817  1.2456  0.7361 -0.2216
  802TIP3   OH2 2369   4.382   5.503   2.875  0.4340 -0.4272 -0.1765
  802TIP3    H1 2370   4.440   5.521   2.949 -0.5004 -1.3104  0.8065
  802TIP3    H2 2371   4.408   5.566   2.808  1.8898 -0.1958  0.5779
  803TIP3   OH2 2372   0.590   1.600   0.952 -0.0938  0.5342 -0.1408
  803TIP3    H1 2373   0.627   1.513   0.970 -1.5332 -0.0395  0.1621
  803TIP3    H2 2374   0.517   1.583   0.893  0.0435  1.6377 -0.6595
  804TIP3   OH2 2375   0.123   4.957   4.692 -0.4865  0.1749 -0.0594
  804TIP3    H1 2376   0.186   5.010   4.644 -0.2288 -1.2423 -1.3584
  804TIP3    H2 2377   0.109   5.004   4.775  1.2708  1.1729 -0.2979
  805TIP3   OH2 2378   4.431   0.126   5.670  0.0448  0.0501 -0.1879
  805TIP3    H1 2379   4.372   0.055   5.643  0.1855  0.0501 -0.5017
  805TIP3    H2 2380   4.373   0.199   5.690 -0.1654 -0.4498  1.0810
  806TIP3   OH2 2381   1.445   2.191   3.917  0.1909  0.7807  0.0015
  806TIP3    H1 2382   1.484   2.228   3.996 -0.5105  0.7259  0.3841
  806TIP3    H2 2383   1.501   2.221   3.846  0.6838  1.0437  0.4924
  807TIP3   OH2 2384   6.181   0.767   1.503  0.2890  0.0245  0.3180
  807TIP3    H1 2385   6.164   0.705   1.574 -0.5929 -0.5465 -0.3655
  807TIP3    H2 2386   6.096   0.806   1.484  0.9195  1.8205  1.0501
  808TIP3   OH2 2387   6.891   6.544   4.496  0.5339  0.5034  0.1513
  808TIP3    H1 2388   6.884   6.611   4.428 -1.5993 -0.3564 -0.5772
  808TIP3    H2 2389   6.895   6.593   4.578  1.9933  1.5433 -0.4956
  809TIP3   OH2 2390   3.637   5.643   2.112 -0.3029 -0.5790  0.2717
  809TIP3    H1 2391   3.727   5.637   2.146  0.6694 -2.9600 -2.3345
  809TIP3    H2 2392   3.611   5.733   2.131  0.1982 -1.2495  6.4747
  810TIP3   OH2 2393   0.961   6.521   0.186 -0.1968  0.2835 -0.3091
  810TIP3    H1 2394   0.925   6.605   0.216 -0.5262  0.3311 -0.8412
  810TIP3    H2 2395   1.039   6.509   0.241  0.2758  1.2989 -0.7263
  811TIP3   OH2 2396   2.764   1.942   0.859  0.3825 -0.4451  0.2984
  811TIP3    H1 2397   2.838   1.906   0.908  0.1347  0.3032  1.2443
  811TIP3    H2 2398   2.802   2.006   0.800  0.6744 -1.2984 -0.4602
  812TIP3   OH2 2399   4.007   2.105   4.206 -0.1374  0.1781 -0.4964
  812TIP3    H1 2400   3.918   2.071   4.206 -0.3632  0.4418  2.5793
  812TIP3    H2 2401   4.056   2.045   4.150 -1.9536 -0.7767 -1.1292
  813TIP3   OH2 2402   5.676   5.265   1.654  0.0381 -0.0964  0.4945
  813TIP3    H1 2403   5.653   5.319   1.579 -1.2178  0.3080  1.1305
  813TIP3    H2 2404   5.768   5.285   1.671  0.7969 -1.3462 -1.8234
  814TIP3   OH2 2405   2.543   1.468   3.526 -0.2045  0.7152  0.6560
  814TIP3    H1 2406   2.619   1.453   3.583 -1.0247  1.0379  1.8730
  814TIP3    H2 2407   2.520   1.560   3.541 -1.4010  0.3653  1.0145
  815TIP3   OH2 2408   2.542   1.077   0.949  0.0938  0.1261  0.1387
  815TIP3    H1 2409   2.523   1.011   0.882 -0.6676 -1.3474  1.7163
  815TIP3    H2 2410   2.628   1.112   0.926  1.5701 -3.0134  0.3933
  816TIP3   OH2 2411   1.534   0.049   2.538 -0.4960  0.0338  0.1537
  816TIP3    H1 2412   1.625   0.077   2.550 -0.8892  0.6941  1.8543
  816TIP3    H2 2413   1.539  -0.020   2.471  1.5045 -1.2690  1.5343
  817TIP3   OH2 2414   6.051   4.136   4.866  0.1641 -0.7251 -0.4753
  817TIP3    H1 2415   6.036   4.217   4.818 -0.6965 -1.7990 -2.1038
  817TIP3    H2 2416   5.969   4.120   4.912  0.0530 -1.1049 -0.8103
  818TIP3   OH2 2417   2.295   1.646   4.447 -0.1870  0.6082  0.3982
  818TIP3    H1 2418   2.239   1.721   4.428 -0.4506  0.6031  1.1262
  818TIP3    H2 2419   2.285   1.631   4.541 -0.2273 -0.4113  0.2451
  819TIP3   OH2 2420   5.167   0.805   2.259 -0.4844  0.4061  0.5385
  819TIP3    H1 2421   5.084   0.835   2.296  0.1248  2.1270  0.6326
  819TIP3    H2 2422   5.173   0.850   2.175  0.6153  0.8066  0.8111
  820TIP3   OH2 2423   3.955   4.955   1.912  0.4748  0.5300 -0.2951
  820TIP3    H1 2424   3.892   4.972   1.982 -1.0209 -1.4845 -1.0565
  820TIP3    H2 2425   3.921   5.004   1.837  0.4131  0.3379 -0.3956
  821TIP3   OH2 2426   2.440   6.215   5.265 -0.4474  0.0338 -0.0977
  821TIP3    H1 2427   2.409   6.266   5.340  0.2894 -0.9958  0.9434
  821TIP3    H2 2428   2.366   6.157   5.244 -0.5587  0.1358  0.0070
  822TIP3   OH2 2429   2.723   2.990   0.919 -0.1414 -0.7448  0.1214
  822TIP3    H1 2430   2.657   3.059   0.911  0.3983 -0.0955  1.0765
  822TIP3    H2 2431   2.700   2.944   0.999  1.2885  0.3162  1.1876
  823TIP3   OH2 2432   1.345   3.507   0.103  0.9635  0.2535 -0.0573
  823TIP3    H1 2433   1.311   3.550   0.182 -0.2664  0.9961 -0.9551
  823TIP3    H2 2434   1.440   3.512   0.112  0.9003  3.0830 -0.0459
  824TIP3   OH2 2435   3.972   6.131   3.977  0.7487 -0.3284  0.5262
  824TIP3    H1 2436   4.046   6.157   4.032  0.6433  0.3241  0.3637
  824TIP3    H2 2437   3.897   6.132   4.036  0.5553  0.8249  0.2768
  825TIP3   OH2 2438   1.310   0.106   5.850 -0.0180 -0.6476  0.2936
  825TIP3    H1 2439   1.388   0.133   5.801  0.5433  0.6019  1.8066
  825TIP3    H2 2440   1.248   0.177   5.838 -0.1027 -0.6202  0.8579
  826TIP3   OH2 2441   6.550   5.992   4.025 -0.1157  0.6891  0.2881
  826TIP3    H1 2442   6.584   5.986   3.936  1.2371  2.3704  0.6307
  826TIP3    H2 2443   6.501   6.074   4.026 -0.6074  0.3961  0.9457
  827TIP3   OH2 2444   3.653   0.423   3.274 -0.0381 -0.5409 -0.3275
  827TIP3    H1 2445   3.632   0.429   3.367  0.3295 -1.3612 -0.1893
  827TIP3    H2 2446   3.735   0.471   3.266 -0.2522 -0.1640 -0.2948
  828TIP3   OH2 2447   5.679   3.645   1.818  0.1831 -0.4891  0.7202
  828TIP3    H1 2448   5.704   3.574   1.759 -1.4187 -1.2161  0.8839
  828TIP3    H2 2449   5.585   3.654   1.808  0.1105  0.4865  1.9513
  829TIP3   OH2 2450   6.101   6.159   3.536 -0.6435  0.5290  0.1264
  829TIP3    H1 2451   6.046   6.165   3.458 -0.4871  0.7001  0.0298
  829TIP3    H2 2452   6.101   6.248   3.572 -1.6713  0.2013  0.9761
  830TIP3   OH2 2453   7.173   3.870   1.372 -0.0951 -0.4600 -0.5995
  830TIP3    H1 2454   7.246   3.896   1.427 -1.8385 -0.0438  1.6690
  830TIP3    H2 2455   7.166   3.941   1.307 -0.1685  0.9499  0.8774
  831TIP3   OH2 2456   6.177   4.364   2.423 -0.2750 -0.1613  0.4859
  831TIP3    H1 2457   6.191   4.269   2.420  0.7357 -0.0875  1.7714
  831TIP3    H2 2458   6.140   4.380   2.510 -0.9483  0.5810  0.0759
  832TIP3   OH2 2459   6.001   6.197   1.873 -0.3742 -0.4111  0.6127
  832TIP3    H1 2460   6.026   6.185   1.781  0.9721 -0.0803  0.9205
  832TIP3    H2 2461   5.909   6.170   1.876 -0.2287 -1.1422 -0.6820
  833TIP3   OH2 2462   0.501   4.215   3.104  0.0339  0.7642 -0.0233
  833TIP3    H1 2463   0.593   4.193   3.099 -0.0962  0.4153 -1.0190
  833TIP3    H2 2464   0.499   4.310   3.116  0.5453  0.5507  2.1651
  834TIP3   OH2 2465   5.618   0.982   0.830 -0.5404  0.8361 -0.0072
  834TIP3    H1 2466   5.681   0.913   0.850 -0.4984  0.8427 -0.1199
  834TIP3    H2 2467   5.642   1.013   0.743 -2.3167 -1.0188 -1.2781
  835TIP3   OH2 2468   6.886   2.544   0.279 -0.2994 -0.5701 -0.0849
  835TIP3    H1 2469   6.802   2.516   0.242 -0.7699 -1.4908  1.5698
  835TIP3    H2 2470   6.867   2.629   0.319 -0.1187 -0.1933 -0.7874
  836TIP3   OH2 2471   5.293   1.066   3.547  0.4293  0.4262  0.0644
  836TIP3    H1 2472   5.215   1.069   3.491  0.7792  1.3772 -0.3994
  836TIP3    H2 2473   5.278   1.137   3.611  0.5435  0.0717  0.4921
  837TIP3   OH2 2474   4.202   5.990   0.884  0.9031  0.1523  0.1606
  837TIP3    H1 2475   4.220   6.024   0.797  0.2644 -0.5007 -0.2367
  837TIP3    H2 2476   4.288   5.975   0.923  1.2382 -1.4895 -1.1177
  838TIP3   OH2 2477   2.824   5.373   5.283  0.5712  0.0821 -0.3176
  838TIP3    H1 2478   2.799   5.423   5.204  0.4228 -0.1715 -0.4321
  838TIP3    H2 2479   2.743   5.329   5.309  1.1975 -1.8532 -1.4806
  839TIP3   OH2 2480   1.153   1.114   4.098 -0.6113 -0.2138 -0.1710
  839TIP3    H1 2481   1.103   1.056   4.156 -1.9562  0.8066 -0.2461
  839TIP3    H2 2482   1.113   1.102   4.012 -0.7506  0.6135 -0.2346
  840TIP3   OH2 2483   6.631   0.728   3.296 -0.2035 -0.3289 -0.2041
  840TIP3    H1 2484   6.672   0.712   3.381 -0.2816  1.6122  0.2512
  840TIP3    H2 2485   6.538   0.742   3.317 -0.6240 -1.8182 -0.8882
  841TIP3   OH2 2486   6.453   4.971   5.795 -0.2354 -0.2668 -0.0477
  841TIP3    H1 2487   6.408   5.055   5.789  2.5830  1.3034 -1.7209
  841TIP3    H2 2488   6.462   4.954   5.889 -1.8351  0.6884  0.3079
  842TIP3   OH2 2489   0.211   5.554   3.180  0.3366  0.7104  0.2699
  842TIP3    H1 2490   0.200   5.461   3.200 -0.6535  0.5215 -1.0701
  842TIP3    H2 2491   0.296   5.576   3.219  1.1135 -1.0229 -0.3095
  843TIP3   OH2 2492   5.285   3.639   1.530 -0.2370 -0.5917  0.2100
  843TIP3    H1 2493   5.343   3.572   1.494 -0.7436 -1.9775  1.8841
  843TIP3    H2 2494   5.208   3.636   1.473  0.7603  0.3763 -1.2509
  844TIP3   OH2 2495   4.599   4.502   0.674  0.3408 -0.2819 -0.3546
  844TIP3    H1 2496   4.592   4.577   0.615 -0.9823 -1.1618 -1.3949
  844TIP3    H2 2497   4.596   4.539   0.762  1.6140  1.0078 -0.8186
  845TIP3   OH2 2498   5.937   5.834   1.181 -0.4687 -0.5632 -0.1615
  845TIP3    H1 2499   5.868   5.831   1.115  2.0862  0.4581 -3.1142
  845TIP3    H2 2500   5.951   5.742   1.205 -1.2110 -1.0062 -1.3380
  846TIP3   OH2 2501   4.622   0.560   5.753 -0.5116  0.5073  0.0464
  846TIP3    H1 2502   4.634   0.609   5.834 -2.7712 -2.0353  2.1627
  846TIP3    H2 2503   4.561   0.613   5.701  1.9088  2.7527 -0.6929
  847TIP3   OH2 2504   1.821   4.931   3.310  0.2065 -0.5103  0.1063
  847TIP3    H1 2505   1.840   5.015   3.353 -1.0204 -0.5950  0.8541
  847TIP3    H2 2506   1.753   4.952   3.246  0.7040 -0.7402 -0.5137
  848TIP3   OH2 2507   0.669   5.022   0.251 -0.1972  0.1329  0.0320
  848TIP3    H1 2508   0.662   4.932   0.280  0.4369  0.5663  1.6732
  848TIP3    H2 2509   0.658   5.074   0.331  1.0529  1.4331 -0.5894
  849TIP3   OH2 2510   4.425   1.445   1.307 -0.4100 -0.1626  0.7555
  849TIP3    H1 2511   4.399   1.409   1.392 -1.6122  1.4888  1.1349
  849TIP3    H2 2512   4.361   1.514   1.289  1.9573  2.1208  0.3205
  850TIP3   OH2 2513   0.467   2.747   0.558 -0.3286  0.3862  0.4080
  850TIP3    H1 2514   0.529   2.690   0.605  0.8460  1.5471  0.3218
  850TIP3    H2 2515   0.466   2.828   0.609 -3.2955 -0.2116  1.5227
  851TIP3   OH2 2516   3.641   5.584   0.257  0.2409 -0.3841  0.0837
  851TIP3    H1 2517   3.625   5.490   0.244  1.4925 -0.6108  0.0961
  851TIP3    H2 2518   3.672   5.591   0.347  0.6139 -0.0122 -0.0729
  852TIP3   OH2 2519   5.627   2.061   2.172  0.4879  0.0877 -0.3722
  852TIP3    H1 2520   5.715   2.031   2.194  1.0133  1.2187 -0.8315
  852TIP3    H2 2521   5.602   2.117   2.246  0.3342  0.1069 -0.4392
  853TIP3   OH2 2522   6.197   3.607   0.102 -0.0614 -0.1733  0.1450
  853TIP3    H1 2523   6.237   3.521   0.114 -0.9533 -0.6563 -0.3231
  853TIP3    H2 2524   6.191   3.618   0.007  1.3180  1.0183  0.1507
  854TIP3   OH2 2525   0.927   2.903   3.273 -0.4378  0.2116 -0.4586
  854TIP3    H1 2526   0.882   2.981   3.242  0.8731  0.7964 -0.9989
  854TIP3    H2 2527   0.866   2.831   3.256 -1.2948  1.0063 -0.8204
  855TIP3   OH2 2528   3.172   6.058   3.836  0.7654 -0.0687 -0.3113
  855TIP3    H1 2529   3.131   6.141   3.860  0.6532 -0.5653  1.3197
  855TIP3    H2 2530   3.183   6.064   3.741  0.3805  1.6298 -0.2917
  856TIP3   OH2 2531   5.823   2.952   2.106 -0.3732 -0.2967 -0.1059
  856TIP3    H1 2532   5.761   2.883   2.128  0.7263 -1.1244  0.4666
  856TIP3    H2 2533   5.888   2.910   2.050  1.2523 -0.2061  1.6102
  857TIP3   OH2 2534   6.470   1.543   0.278  0.1812  0.0267 -0.4233
  857TIP3    H1 2535   6.562   1.548   0.304 -0.3218  1.7157  1.1813
  857TIP3    H2 2536   6.464   1.601   0.202  0.3097  0.4500 -0.1122
  858TIP3   OH2 2537   1.258   1.911   5.764  0.1133 -0.3064 -0.0874
  858TIP3    H1 2538   1.235   1.823   5.794  0.2549 -0.3613 -0.1396
  858TIP3    H2 2539   1.336   1.899   5.711 -0.1125 -0.2015 -0.4487
  859TIP3   OH2 2540   0.657   3.767   5.404  0.2156  0.5417  0.3633
  859TIP3    H1 2541   0.583   3.792   5.459  0.4678 -0.7716  1.3705
  859TIP3    H2 2542   0.619   3.753   5.318 -0.2520  2.3179  0.2390
  860TIP3   OH2 2543   5.323   2.166   2.689  0.1421 -0.2115  0.3378
  860TIP3    H1 2544   5.385   2.098   2.714  0.1020 -0.3362  0.1011
  860TIP3    H2 2545   5.327   2.230   2.760  1.3033  0.2926 -0.1664
  861TIP3   OH2 2546   1.868   4.766   5.574 -0.5812  0.7549 -0.3795
  861TIP3    H1 2547   1.874   4.733   5.484  1.7358 -1.4209  0.4496
  861TIP3    H2 2548   1.938   4.831   5.580 -0.4703  0.6051 -0.0428
  862TIP3   OH2 2549   0.495   5.663   0.956  0.3106 -0.2118  0.1267
  862TIP3    H1 2550   0.569   5.602   0.958 -0.0361 -0.8861 -2.9845
  862TIP3    H2 2551   0.455   5.649   0.871 -1.1237  2.8709  0.1720
  863TIP3   OH2 2552   2.609   0.025   3.784 -0.2850 -0.2722  0.0087
  863TIP3    H1 2553   2.641  -0.029   3.712 -0.4419 -0.6327  0.2103
  863TIP3    H2 2554   2.638   0.113   3.762  0.3478 -0.5054 -0.1021
  864TIP3   OH2 2555   0.682   4.142   1.792  0.0329 -0.0922 -0.1141
  864TIP3    H1 2556   0.773   4.164   1.814  0.0822  0.0904 -0.4869
  864TIP3    H2 2557   0.632   4.171   1.868  0.3143 -0.4086  0.1940
  865TIP3   OH2 2558   4.427   6.212   0.812 -0.3424  0.2463  0.9064
  865TIP3    H1 2559   4.359   6.185   0.751 -2.0920  1.3876  2.2652
  865TIP3    H2 2560   4.466   6.130   0.842  0.7444 -0.3522 -1.8211
  866TIP3   OH2 2561   0.485   3.230   4.604 -0.3823 -0.0811 -0.2840
  866TIP3    H1 2562   0.579   3.215   4.596 -0.3148  0.5183 -0.7360
  866TIP3    H2 2563   0.457   3.173   4.675  0.5000  0.4611  0.5258
  867TIP3   OH2 2564   0.722   1.165   1.283  0.7793  0.1386 -0.4046
  867TIP3    H1 2565   0.670   1.113   1.221  1.1561 -0.1392 -0.4880
  867TIP3    H2 2566   0.805   1.119   1.289  1.3541  1.0802 -0.9581
  868TIP3   OH2 2567   0.452   0.467   3.638 -0.4311 -0.4466  0.0353
  868TIP3    H1 2568   0.539   0.433   3.659 -1.0624 -0.6960  2.5563
  868TIP3    H2 2569   0.395   0.390   3.637 -0.7009 -0.2597 -1.3578
  869TIP3   OH2 2570   1.455   3.284   3.621  0.1433 -0.2975 -0.5283
  869TIP3    H1 2571   1.530   3.337   3.647 -0.6646  0.2825  0.7576
  869TIP3    H2 2572   1.438   3.308   3.530  1.8055 -0.8290 -1.0171
  870TIP3   OH2 2573   3.694   2.756   3.582  0.2825 -0.1065 -0.1339
  870TIP3    H1 2574   3.616   2.800   3.616 -0.5160 -1.3413 -0.3039
  870TIP3    H2 2575   3.735   2.821   3.525  1.0590  1.6302  2.2434
  871TIP3   OH2 2576   4.962   2.467   2.893  0.2539 -0.0453  0.2375
  871TIP3    H1 2577   4.989   2.397   2.833 -0.0110  0.8849 -1.0189
  871TIP3    H2 2578   4.984   2.434   2.980  0.2883 -1.6083 -0.3339
  872TIP3   OH2 2579   2.754   0.416   3.383  0.3522 -0.2167  0.5624
  872TIP3    H1 2580   2.809   0.357   3.435  1.5869 -0.8821 -1.3510
  872TIP3    H2 2581   2.741   0.369   3.300 -4.0861 -0.5577  1.2203
  873TIP3   OH2 2582   2.462   3.231   1.401  0.5878 -0.2745  0.1537
  873TIP3    H1 2583   2.399   3.240   1.329  1.4965  1.7443 -0.4512
  873TIP3    H2 2584   2.425   3.285   1.471  0.6864 -0.6434  0.4869
  874TIP3   OH2 2585   0.977   6.694   0.794  0.5631  0.7326 -0.4593
  874TIP3    H1 2586   0.955   6.707   0.702 -4.0697  0.9406  0.4591
  874TIP3    H2 2587   0.934   6.766   0.840  0.7822 -0.6161  2.0722
  875TIP3   OH2 2588   3.181   4.876   3.527 -0.6082  0.1514 -0.6959
  875TIP3    H1 2589   3.178   4.905   3.618  0.2475 -0.1567 -0.5665
  875TIP3    H2 2590   3.274   4.867   3.507 -0.7579  0.9745 -1.8472
  876TIP3   OH2 2591   4.746   0.455   5.190 -0.3901 -0.0295 -0.8779
  876TIP3    H1 2592   4.685   0.381   5.197  0.1647 -0.5055 -1.0248
  876TIP3    H2 2593   4.699   0.528   5.232 -0.0344 -1.0370  1.4472
  877TIP3   OH2 2594   6.329   0.116   2.584 -0.3082 -0.1609  0.2538
  877TIP3    H1 2595   6.424   0.121   2.570 -0.2334  1.4659  1.1136
  877TIP3    H2 2596   6.315   0.028   2.618  0.9093 -0.3796  0.2534
  878TIP3   OH2 2597   3.272   4.871   0.730 -0.0992  0.3467 -0.2723
  878TIP3    H1 2598   3.288   4.965   0.720 -3.1111  0.8020 -2.0599
  878TIP3    H2 2599   3.190   4.865   0.778 -0.2900 -1.3436 -0.7287
  879TIP3   OH2 2600   1.535   5.732   2.429  0.1624  0.3596  0.2625
  879TIP3    H1 2601   1.478   5.666   2.469  0.1647 -0.0062 -0.3233
  879TIP3    H2 2602   1.580   5.685   2.358  1.2128  0.6389  0.7291
  880TIP3   OH2 2603   3.850   1.566   4.135 -0.4583 -0.3243  0.0304
  880TIP3    H1 2604   3.906   1.579   4.059  0.0843  0.4861  0.5470
  880TIP3    H2 2605   3.875   1.481   4.170  1.7464  0.7656  1.2760
  881TIP3   OH2 2606   3.112   4.115   4.925  0.0019 -0.1498 -0.3714
  881TIP3    H1 2607   3.191   4.109   4.870 -0.9862  0.3136 -1.9164
  881TIP3    H2 2608   3.056   4.044   4.893 -1.3900  1.3365 -1.3415
  882TIP3   OH2 2609   3.392   5.957   1.310 -0.1469 -0.3779  0.3156
  882TIP3    H1 2610   3.301   5.939   1.335 -1.1440  0.6037 -2.2376
  882TIP3    H2 2611   3.388   6.043   1.268  1.7738 -0.7658 -0.7700
  883TIP3   OH2 2612   5.782   4.997   0.536  0.2888  0.3053 -0.2869
  883TIP3    H1 2613   5.814   5.082   0.505 -0.9011  0.0975 -2.2216
  883TIP3    H2 2614   5.727   5.019   0.612  0.7273  1.1589 -0.2045
  884TIP3   OH2 2615   2.307   4.648   3.179  0.1116 -0.0370  0.5911
  884TIP3    H1 2616   2.281   4.614   3.265 -0.2556  0.1042  0.5399
  884TIP3    H2 2617   2.399   4.622   3.170 -0.3813 -1.8254  0.1776
  885TIP3   OH2 2618   3.917   1.153   5.195 -0.3033 -0.1190 -0.1944
  885TIP3    H1 2619   3.869   1.209   5.134  0.0222  0.7437  0.3265
  885TIP3    H2 2620   3.856   1.142   5.268 -0.2619 -0.2256 -0.1769
  886TIP3   OH2 2621   1.452   2.584   5.868 -0.2098  0.0843  0.1388
  886TIP3    H1 2622   1.464   2.516   5.801 -0.6394  1.5819 -1.5117
  886TIP3    H2 2623   1.462   2.537   5.951 -0.6664 -2.0405 -0.9315
  887TIP3   OH2 2624   1.404   0.653   4.983  0.2521  0.1981  0.3874
  887TIP3    H1 2625   1.412   0.565   4.945  1.9839  1.0689 -1.4729
  887TIP3    H2 2626   1.489   0.670   5.023  0.0939  1.2106  0.3238
  888TIP3   OH2 2627   3.545   0.165   1.022  0.4685 -0.2867 -0.4321
  888TIP3    H1 2628   3.568   0.256   1.007  0.3285  0.0397  1.1449
  888TIP3    H2 2629   3.463   0.152   0.974  1.2062  0.0002 -1.8090
  889TIP3   OH2 2630   5.310   5.961   4.374  0.5439 -0.2000  0.4384
  889TIP3    H1 2631   5.298   6.039   4.320  0.1648 -1.1379 -0.8795
  889TIP3    H2 2632   5.222   5.936   4.401  0.6213 -0.4295  0.4849
  890TIP3   OH2 2633   0.715   6.581   4.190  0.1403  0.6954 -0.1278
  890TIP3    H1 2634   0.721   6.640   4.265 -0.3229  2.5174 -1.4719
  890TIP3    H2 2635   0.755   6.629   4.118  0.7937 -1.1124 -1.0348
  891TIP3   OH2 2636   5.026   2.273   2.687 -0.5227  0.5395 -0.1325
  891TIP3    H1 2637   4.987   2.187   2.698 -2.9974  1.7851  2.1117
  891TIP3    H2 2638   5.116   2.264   2.719 -0.8268 -1.1239  0.3182
  892TIP3   OH2 2639   3.221   3.252   1.285 -0.3017 -0.3397 -0.3084
  892TIP3    H1 2640   3.131   3.285   1.290  0.4763  2.0945 -1.0538
  892TIP3    H2 2641   3.226   3.207   1.200 -0.2381  1.5712 -1.3670
  893TIP3   OH2 2642   4.199   5.676   1.113 -0.2701 -0.2761 -0.2926
  893TIP3    H1 2643   4.200   5.587   1.149  1.9743 -0.7673 -1.4291
  893TIP3    H2 2644   4.270   5.722   1.157  0.7535 -0.0790 -2.0387
  894TIP3   OH2 2645   6.895   6.173   2.126 -0.5727 -0.5061  0.1658
  894TIP3    H1 2646   6.863   6.254   2.087  1.3201  1.1185  1.7752
  894TIP3    H2 2647   6.990   6.175   2.110 -0.4001 -2.0409  0.8765
  895TIP3   OH2 2648   3.569   6.707   2.577 -0.5170 -0.8249 -0.1248
  895TIP3    H1 2649   3.510   6.780   2.596 -0.2856 -0.5419 -0.4735
  895TIP3    H2 2650   3.628   6.703   2.652  1.1072  0.9924 -1.2223
  896TIP3   OH2 2651   6.518   5.329   2.537 -0.1154 -0.0836  0.1737
  896TIP3    H1 2652   6.428   5.360   2.526 -0.3993 -0.9784 -0.1187
  896TIP3    H2 2653   6.562   5.353   2.455 -0.2305 -0.1425  0.0957
  897TIP3   OH2 2654   5.450   2.532   5.706  0.8408  0.1316  0.2136
  897TIP3    H1 2655   5.516   2.599   5.685 -0.4029  0.7850 -1.8672
  897TIP3    H2 2656   5.403   2.568   5.782  0.8049  1.1981 -0.2970
  898TIP3   OH2 2657   1.305   5.967   1.308 -0.2324 -0.4524 -0.0682
  898TIP3    H1 2658   1.332   5.925   1.390  2.5587 -0.2398 -0.7996
  898TIP3    H2 2659   1.350   5.917   1.240 -1.7545 -0.0270 -1.4398
  899TIP3   OH2 2660   4.324   4.559   5.336  0.0940  0.7273 -0.0051
  899TIP3    H1 2661   4.323   4.504   5.258 -2.7146  0.6147  0.0294
  899TIP3    H2 2662   4.295   4.645   5.306  0.4543  1.0928  0.6674
  900TIP3   OH2 2663   1.100   6.472   0.585 -0.7005  0.0405  0.8475
  900TIP3    H1 2664   1.122   6.524   0.507 -0.7828 -0.2799  0.6078
  900TIP3    H2 2665   1.094   6.536   0.655  2.0492  0.0795  1.1789
  901TIP3   OH2 2666   3.777   6.275   1.630  0.0082 -0.1134 -0.4348
  901TIP3    H1 2667   3.693   6.320   1.634  0.4950  0.7733  1.0028
  901TIP3    H2 2668   3.760   6.189   1.668 -0.3153 -0.0444 -0.4197
  902TIP3   OH2 2669   1.633   6.457   1.104  0.0013  0.1408  0.2085
  902TIP3    H1 2670   1.638   6.549   1.077 -0.5568  0.3027  0.6322
  902TIP3    H2 2671   1.581   6.459   1.184  2.3728 -0.1940  1.8763
  903TIP3   OH2 2672   6.450   0.977   2.475  0.0991 -0.1399 -0.3689
  903TIP3    H1 2673   6.372   1.023   2.444 -1.0191 -1.5252  0.2841
  903TIP3    H2 2674   6.478   0.925   2.400  0.7777  0.7982 -0.7909
  904TIP3   OH2 2675   1.390   4.490   1.658 -0.1353  0.2594 -0.2295
  904TIP3    H1 2676   1.447   4.432   1.707 -1.5042 -0.6315  0.3825
  904TIP3    H2 2677   1.376   4.565   1.716  0.2983  0.4214 -0.3312
  905TIP3   OH2 2678   3.274   2.949   0.624  0.2782  0.0248  0.5273
  905TIP3    H1 2679   3.186   2.918   0.646 -0.4406  1.3807 -0.3280
  905TIP3    H2 2680   3.332   2.903   0.685 -1.2098  0.4969  2.3708
  906TIP3   OH2 2681   4.869   4.412   5.252 -0.0950  0.0057  0.0244
  906TIP3    H1 2682   4.838   4.411   5.161 -0.3273 -0.2216  0.1022
  906TIP3    H2 2683   4.820   4.483   5.294  1.6972  1.6520 -0.5857
  907TIP3   OH2 2684   4.655   4.217   0.650  0.4268  0.2136 -0.2731
  907TIP3    H1 2685   4.712   4.206   0.575 -1.2814 -1.6760 -1.3988
  907TIP3    H2 2686   4.619   4.306   0.640  0.5350  0.1342 -1.4759
  908TIP3   OH2 2687   0.090   4.313   4.497  0.1616 -0.0790 -0.2691
  908TIP3    H1 2688   0.110   4.328   4.404  0.1689 -0.8405 -0.3960
  908TIP3    H2 2689   0.043   4.230   4.498 -1.2613  0.6997  0.2540
  909TIP3   OH2 2690   0.444   1.352   3.767  0.6557  0.3987  0.2322
  909TIP3    H1 2691   0.433   1.272   3.820  1.3223 -0.3218 -0.6795
  909TIP3    H2 2692   0.455   1.422   3.831 -0.9965 -0.0582  1.0731
  910TIP3   OH2 2693   6.951   0.349   0.804 -0.4771  0.5949  0.0527
  910TIP3    H1 2694   6.917   0.434   0.775 -1.4930 -0.0920 -0.8337
  910TIP3    H2 2695   6.873   0.299   0.829  0.1920  0.3206  1.7665
  911TIP3   OH2 2696   0.813   2.811   1.912 -0.0844  0.4727  0.6146
  911TIP3    H1 2697   0.844   2.829   1.824  1.1496 -1.8189  0.5175
  911TIP3    H2 2698   0.801   2.898   1.951 -2.1153  1.6117 -2.2061
  912TIP3   OH2 2699   6.645   6.406   5.207 -0.2258  0.0306 -0.2790
  912TIP3    H1 2700   6.653   6.453   5.291 -0.6477  3.0665 -1.7870
  912TIP3    H2 2701   6.569   6.350   5.218 -0.8210  1.0419  1.1262
  913TIP3   OH2 2702   6.184   2.056   1.159 -0.1211  0.9876  0.2240
  913TIP3    H1 2703   6.120   1.987   1.179  1.0943  0.0738  1.1545
  913TIP3    H2 2704   6.226   2.075   1.243  1.0582  1.3075 -0.4163
  914TIP3   OH2 2705   0.862   0.055   1.220 -0.5259 -0.3221  0.5411
  914TIP3    H1 2706   0.800  -0.018   1.212 -1.2153  0.1458  1.4749
  914TIP3    H2 2707   0.876   0.064   1.314  0.0353  0.3529  0.3935
  915TIP3   OH2 2708   4.052   0.429   2.918 -0.1200 -0.2012  0.5275
  915TIP3    H1 2709   4.089   0.492   2.980 -1.0714  1.7390 -0.7893
  915TIP3    H2 2710   3.964   0.413   2.950  0.1303 -0.9469  0.8778
  916TIP3   OH2 2711   4.265   3.028   4.070  0.1524 -0.4756  0.1877
  916TIP3    H1 2712   4.175   3.058   4.060  0.2272 -0.6502 -1.1640
  916TIP3    H2 2713   4.318   3.097   4.030  0.7636  0.3355  2.2460
  917TIP3   OH2 2714   5.244   3.323   3.931  0.2240  0.3217  0.0907
  917TIP3    H1 2715   5.228   3.320   3.837  2.2798  2.6919 -0.4285
  917TIP3    H2 2716   5.176   3.380   3.966 -0.2734 -0.2056 -0.0002
  918TIP3   OH2 2717   3.802   0.394   5.359 -0.2695 -0.1204 -0.1540
  918TIP3    H1 2718   3.835   0.479   5.332 -0.9742  0.5769  1.0938
  918TIP3    H2 2719   3.746   0.412   5.435  1.2457 -1.9032  1.5049
  919TIP3   OH2 2720   2.734   1.415   1.221 -0.1332 -0.3033 -0.3612
  919TIP3    H1 2721   2.785   1.334   1.225 -1.1699 -0.9655 -0.1897
  919TIP3    H2 2722   2.742   1.454   1.308  1.6580  0.6219 -0.8877
  920TIP3   OH2 2723   0.780   3.899   0.234  0.0625  0.1990 -0.5615
  920TIP3    H1 2724   0.869   3.895   0.197 -0.1614 -1.8955 -0.9865
  920TIP3    H2 2725   0.750   3.808   0.233 -1.3046  0.5764  1.5578
  921TIP3   OH2 2726   7.176   1.776   0.708 -0.0226 -0.2707 -0.4952
  921TIP3    H1 2727   7.106   1.715   0.682  0.2026 -0.1474 -1.4479
  921TIP3    H2 2728   7.225   1.728   0.775 -0.1560 -0.9470 -0.8636
  922TIP3   OH2 2729   4.679   5.921   4.725  0.0224 -0.5179 -0.2736
  922TIP3    H1 2730   4.648   5.894   4.811 -1.2858 -1.2383 -0.9271
  922TIP3    H2 2731   4.625   5.997   4.703  0.3134 -0.3676 -0.4820
  923TIP3   OH2 2732   3.468   2.183   1.771  0.3154 -0.1281  0.5792
  923TIP3    H1 2733   3.427   2.150   1.850 -0.3416 -2.0510 -0.4949
  923TIP3    H2 2734   3.473   2.277   1.784 -2.0653 -0.1035  1.8420
  924TIP3   OH2 2735   1.311   3.403   5.274 -0.0441 -0.3185  0.5814
  924TIP3    H1 2736   1.353   3.381   5.191  1.7378  0.7324  1.1539
  924TIP3    H2 2737   1.356   3.349   5.339  0.7513  1.1181  1.2710
  925TIP3   OH2 2738   6.415   5.465   4.514 -0.1108  0.3208 -0.1871
  925TIP3    H1 2739   6.488   5.416   4.552 -1.4627 -1.5872  0.1217
  925TIP3    H2 2740   6.426   5.456   4.419 -0.0727 -0.1499 -0.1385
  926TIP3   OH2 2741   2.213   6.560   3.622 -0.2037 -0.5078  0.4188
  926TIP3    H1 2742   2.174   6.522   3.543 -0.5098 -0.0575  0.3482
  926TIP3    H2 2743   2.306   6.544   3.612 -0.0876  0.6580 -0.6662
  927TIP3   OH2 2744   6.226   2.560   1.930  0.3100 -0.2544  0.8680
  927TIP3    H1 2745   6.306   2.610   1.947  0.8512 -0.9044  0.2949
  927TIP3    H2 2746   6.218   2.502   2.005  0.2307 -0.0036  1.0540
  928TIP3   OH2 2747   6.420   1.429   4.485 -0.2170 -0.4463  0.3133
  928TIP3    H1 2748   6.427   1.462   4.574  0.3244 -0.3078  0.2208
  928TIP3    H2 2749   6.472   1.348   4.485  0.4053 -0.0503 -0.0677
  929TIP3   OH2 2750   7.017   4.529   5.873 -0.0298  0.0695 -0.4193
  929TIP3    H1 2751   7.009   4.624   5.883 -0.5915 -0.0256  0.0901
  929TIP3    H2 2752   6.957   4.506   5.802  0.8049  0.2066 -1.1847
  930TIP3   OH2 2753   6.872   4.545   1.289 -0.0481 -0.3890  0.5262
  930TIP3    H1 2754   6.882   4.525   1.382 -1.7839 -0.2095  0.7762
  930TIP3    H2 2755   6.891   4.639   1.282  2.4559 -0.8194  0.2521
  931TIP3   OH2 2756   1.613   1.990   2.298  0.1477  0.7859 -0.5037
  931TIP3    H1 2757   1.602   2.084   2.292  0.6565  0.8365 -0.7290
  931TIP3    H2 2758   1.540   1.953   2.249  0.0635  1.0674 -0.5870
  932TIP3   OH2 2759   5.030   0.976   3.468 -0.5721 -0.1507 -0.6544
  932TIP3    H1 2760   4.960   0.949   3.407 -1.3240 -0.0103  0.1280
  932TIP3    H2 2761   5.078   0.895   3.485 -0.8998 -0.3726 -0.7561
  933TIP3   OH2 2762   4.218   1.084   2.568 -0.0266 -0.4987  0.3401
  933TIP3    H1 2763   4.162   1.153   2.532 -1.1424 -1.5360  0.0182
  933TIP3    H2 2764   4.272   1.128   2.633 -1.1123  0.5714  0.5493
  934TIP3   OH2 2765   4.108   2.107   2.970 -0.5461 -0.0768  0.2052
  934TIP3    H1 2766   4.191   2.062   2.957 -0.2905  0.6550 -0.8400
  934TIP3    H2 2767   4.048   2.063   2.910 -0.5235  0.3612 -0.1459
  935TIP3   OH2 2768   1.560   3.926   2.473  0.1287 -0.4091  0.0881
  935TIP3    H1 2769   1.545   4.021   2.478  0.3006 -0.4323  1.2929
  935TIP3    H2 2770   1.655   3.917   2.468  0.1420 -0.5286  0.5032
  936TIP3   OH2 2771   1.753   4.790   0.542 -0.2702  0.5673  0.0988
  936TIP3    H1 2772   1.811   4.715   0.555  0.0436  0.7140 -0.4539
  936TIP3    H2 2773   1.810   4.866   0.547  0.3522  0.6106 -4.2537
  937TIP3   OH2 2774   4.899   6.706   0.220  0.4570  0.4314  0.1064
  937TIP3    H1 2775   4.972   6.733   0.276  2.1216 -2.7231 -0.3018
  937TIP3    H2 2776   4.826   6.694   0.279  1.0417  1.0401  0.9738
  938TIP3   OH2 2777   6.664   1.943   2.804 -0.0151  0.1522  0.3972
  938TIP3    H1 2778   6.639   1.904   2.888 -0.0108  0.0202  0.3385
  938TIP3    H2 2779   6.751   1.907   2.786  0.2483  0.6672  0.6351
  939TIP3   OH2 2780   4.931   4.594   0.992 -0.2680  0.3744  0.3344
  939TIP3    H1 2781   4.849   4.552   1.018 -0.0957 -1.0063 -1.1447
  939TIP3    H2 2782   4.914   4.688   0.998 -1.8749  0.1081  0.3098
  940TIP3   OH2 2783   0.993   6.649   1.700  0.6403  0.0981 -0.0422
  940TIP3    H1 2784   0.970   6.741   1.717  0.2394 -0.0126  0.0143
  940TIP3    H2 2785   0.920   6.599   1.735  1.1388 -0.2770  0.4849
  941TIP3   OH2 2786   0.353   2.973   1.979  0.1109  0.0650  0.0461
  941TIP3    H1 2787   0.378   2.934   2.063 -0.9020 -1.1115 -0.1604
  941TIP3    H2 2788   0.399   2.920   1.914  0.5538  0.7017 -0.1679
  942TIP3   OH2 2789   2.631   4.583   2.778  0.0690  0.3565 -0.3874
  942TIP3    H1 2790   2.558   4.524   2.795  0.4593 -0.5489 -1.7758
  942TIP3    H2 2791   2.694   4.563   2.847  0.5578 -1.4814 -1.3111
  943TIP3   OH2 2792   2.383   0.331   4.129  0.4034 -0.1565  0.1352
  943TIP3    H1 2793   2.392   0.386   4.051 -0.5961  0.6936  0.5841
  943TIP3    H2 2794   2.386   0.242   4.097 -1.1607  0.1801 -1.0452
  944TIP3   OH2 2795   6.294   3.530   2.749  0.3916  0.7501 -0.1712
  944TIP3    H1 2796   6.381   3.544   2.710 -0.0118  0.6147 -1.1592
  944TIP3    H2 2797   6.289   3.436   2.762  0.6171  0.8186  0.4527
  945TIP3   OH2 2798   4.613   2.085   0.573 -0.0105 -0.0493  0.1748
  945TIP3    H1 2799   4.612   2.177   0.601 -0.6598  0.6806 -1.9960
  945TIP3    H2 2800   4.606   2.035   0.654 -0.8897  1.8329  1.3348
  946TIP3   OH2 2801   2.567   4.713   2.332  0.1130  0.1049  0.3440
  946TIP3    H1 2802   2.577   4.750   2.420 -1.2063  2.3271 -0.3722
  946TIP3    H2 2803   2.656   4.698   2.302  0.6522  1.5030  1.1866
  947TIP3   OH2 2804   3.403   5.193   4.653  0.5536  0.4365 -0.4948
  947TIP3    H1 2805   3.338   5.257   4.625 -1.3879  0.0385  2.5781
  947TIP3    H2 2806   3.461   5.241   4.711  0.9307  0.0754 -0.5705
  948TIP3   OH2 2807   3.118   5.213   4.455 -0.0188 -0.0134 -0.4352
  948TIP3    H1 2808   3.159   5.287   4.500  1.8546 -1.3130  0.1644
  948TIP3    H2 2809   3.025   5.234   4.452  0.5176  2.6362 -0.8834
  949TIP3   OH2 2810   4.875   3.291   0.831  0.1207  0.2689  0.4771
  949TIP3    H1 2811   4.911   3.378   0.848 -0.3970  0.4397  0.7443
  949TIP3    H2 2812   4.898   3.240   0.909  2.2410 -0.4561 -0.5634
  950TIP3   OH2 2813   4.684   0.049   3.785  0.1383 -0.0294 -0.3570
  950TIP3    H1 2814   4.647   0.054   3.873  1.3280 -0.5782  0.2047
  950TIP3    H2 2815   4.726  -0.037   3.782  0.8897  0.3432 -1.1324
  951TIP3   OH2 2816   5.007   4.152   2.843  0.5425  0.6356 -0.6946
  951TIP3    H1 2817   5.084   4.185   2.797  1.8509  0.9517  1.5434
  951TIP3    H2 2818   4.935   4.207   2.812  1.4543  1.2122 -1.8833
  952TIP3   OH2 2819   5.821   0.692   1.213 -0.3206 -0.0290  0.3617
  952TIP3    H1 2820   5.880   0.618   1.228  1.0563  0.9123 -0.1364
  952TIP3    H2 2821   5.868   0.767   1.250 -1.1186  0.7885 -0.2371
  953TIP3   OH2 2822   4.755   1.628   0.381 -0.2020  0.0851  0.6421
  953TIP3    H1 2823   4.661   1.609   0.368  0.0683 -2.6181  1.9023
  953TIP3    H2 2824   4.766   1.633   0.476  0.6003  2.8798  0.4923
  954TIP3   OH2 2825   1.455   3.212   0.402  0.1339 -0.2728 -0.3311
  954TIP3    H1 2826   1.435   3.225   0.495 -0.0774 -2.1707 -0.0583
  954TIP3    H2 2827   1.550   3.212   0.398  0.1774  1.8945 -0.4986
  955TIP3   OH2 2828   0.421   5.025   3.979  0.5094  0.1865  0.0528
  955TIP3    H1 2829   0.471   5.106   3.969  0.6229  0.5219  2.5551
  955TIP3    H2 2830   0.352   5.047   4.042 -0.3138 -1.3174 -0.2640
  956TIP3   OH2 2831   0.655   4.395   3.354 -0.7263 -0.2379  0.1004
  956TIP3    H1 2832   0.633   4.445   3.275 -0.9038 -0.9400 -0.3039
  956TIP3    H2 2833   0.622   4.449   3.426  0.3925  0.9263 -0.2233
  957TIP3   OH2 2834   0.934   0.351   5.100 -0.3668 -0.1538  0.1431
  957TIP3    H1 2835   0.891   0.394   5.026  0.4354 -0.6497 -0.6379
  957TIP3    H2 2836   0.918   0.409   5.174 -0.7279  0.6381 -0.5327
  958TIP3   OH2 2837   7.156   4.085   4.516  0.9226  0.1581 -0.1766
  958TIP3    H1 2838   7.129   4.036   4.593  1.3158 -1.4430 -1.0105
  958TIP3    H2 2839   7.083   4.075   4.454  1.0192  0.6002 -0.3622
  959TIP3   OH2 2840   6.574   2.433   3.134  0.1874 -0.3326 -0.4514
  959TIP3    H1 2841   6.641   2.366   3.146  0.1802 -0.6489 -2.0425
  959TIP3    H2 2842   6.491   2.386   3.147  0.1811 -0.6611 -1.5950
  960TIP3   OH2 2843   5.168   2.690   2.865 -0.3302 -0.1454 -0.3066
  960TIP3    H1 2844   5.153   2.772   2.817 -3.0295 -0.8365 -0.8426
  960TIP3    H2 2845   5.084   2.644   2.859  1.0097 -2.8335  0.2250
  961TIP3   OH2 2846   1.910   4.981   2.585 -0.5306 -0.3320 -0.1069
  961TIP3    H1 2847   1.947   5.033   2.656 -0.2481  1.9356 -1.8279
  961TIP3    H2 2848   1.816   4.980   2.603 -0.3628 -0.6763  0.8204
  962TIP3   OH2 2849   6.812   4.732   3.771 -0.0447  0.2994 -0.1282
  962TIP3    H1 2850   6.902   4.754   3.795  0.2112  0.1693 -0.9347
  962TIP3    H2 2851   6.805   4.638   3.789  0.0634  0.2563 -0.3074
  963TIP3   OH2 2852   4.940   5.582   1.404  0.1150 -0.1812  0.2474
  963TIP3    H1 2853   5.009   5.536   1.451 -0.2848 -1.7547 -0.6437
  963TIP3    H2 2854   4.984   5.620   1.328  0.3223  0.4005  0.6474
  964TIP3   OH2 2855   0.788   2.845   5.522 -0.0155  0.3650  0.2080
  964TIP3    H1 2856   0.693   2.848   5.505 -0.0585  0.9209  0.5260
  964TIP3    H2 2857   0.794   2.818   5.614  0.1111  1.0172  0.3958
  965TIP3   OH2 2858   4.121   4.442   2.682 -0.1080  0.1402  0.0095
  965TIP3    H1 2859   4.037   4.396   2.686 -0.5878  0.9292 -0.7423
  965TIP3    H2 2860   4.129   4.470   2.591  0.1660  1.5445  0.4419
  966TIP3   OH2 2861   0.494   5.867   4.177  0.2253  0.3451 -0.9127
  966TIP3    H1 2862   0.441   5.824   4.244 -0.7643 -0.2422 -2.0311
  966TIP3    H2 2863   0.564   5.804   4.158  0.3749  0.4155 -0.5974
  967TIP3   OH2 2864   0.789   2.651   3.222 -0.1652  0.1507  0.5311
  967TIP3    H1 2865   0.874   2.615   3.248  0.3584  2.2615  1.9977
  967TIP3    H2 2866   0.725   2.588   3.255  0.7797 -1.2140 -0.1407
  968TIP3   OH2 2867   5.816   0.639   3.385  0.1114 -0.2987  0.5537
  968TIP3    H1 2868   5.909   0.638   3.407  0.3134 -1.0104 -0.2470
  968TIP3    H2 2869   5.790   0.547   3.389 -0.4139 -0.1686  0.2031
  969TIP3   OH2 2870   3.406   1.571   3.532 -0.1726 -0.3961 -0.1979
  969TIP3    H1 2871   3.491   1.611   3.551 -0.1863 -1.3158  2.0954
  969TIP3    H2 2872   3.422   1.477   3.541 -1.8676 -0.5078  2.6238
  970TIP3   OH2 2873   6.318   4.313   1.742  0.4942  0.1017 -0.5875
  970TIP3    H1 2874   6.233   4.355   1.751  1.1433  1.2290  0.6888
  970TIP3    H2 2875   6.361   4.327   1.826  1.0733 -2.4792 -0.3724
  971TIP3   OH2 2876   6.750   2.370   1.417 -0.1561 -0.8596 -0.5195
  971TIP3    H1 2877   6.819   2.430   1.389 -0.2880 -0.4836 -0.0534
  971TIP3    H2 2878   6.719   2.329   1.336 -0.4834  0.1538 -0.9254
  972TIP3   OH2 2879   1.610   2.737   1.808  0.0223  0.3129  0.1422
  972TIP3    H1 2880   1.675   2.703   1.870 -0.4719 -1.9839 -0.5096
  972TIP3    H2 2881   1.527   2.733   1.856 -0.2966 -1.0800 -0.4745
  973TIP3   OH2 2882   5.686   0.234   1.276 -0.1534  0.5939 -0.4819
  973TIP3    H1 2883   5.662   0.270   1.361  0.1839  1.1032 -0.5966
  973TIP3    H2 2884   5.626   0.277   1.215  0.4568  1.2198 -0.6593
  974TIP3   OH2 2885   6.136   0.416   4.274 -0.6335 -0.0031  0.4064
  974TIP3    H1 2886   6.165   0.497   4.316 -1.2485 -0.2274  1.3103
  974TIP3    H2 2887   6.040   0.422   4.275 -0.6761 -0.5763  0.1418
  975TIP3   OH2 2888   6.112   6.527   5.236  0.4904  0.0375 -0.3652
  975TIP3    H1 2889   6.052   6.525   5.310 -0.1801 -0.4437 -0.9080
  975TIP3    H2 2890   6.065   6.575   5.168  0.9876  0.2303 -0.5751
  976TIP3   OH2 2891   5.704   1.716   3.928 -0.2950  0.1333  0.0096
  976TIP3    H1 2892   5.769   1.767   3.880  0.3030  1.4762  2.0829
  976TIP3    H2 2893   5.751   1.636   3.954 -0.0109  0.2945 -0.0005
  977TIP3   OH2 2894   1.427   6.310   0.767 -0.1038  0.2792 -0.2864
  977TIP3    H1 2895   1.503   6.275   0.814 -0.1530  0.2490 -0.2293
  977TIP3    H2 2896   1.377   6.355   0.834 -0.6518 -0.5508 -0.1226
  978TIP3   OH2 2897   1.514   3.320   3.349  0.3674 -0.1239 -0.2851
  978TIP3    H1 2898   1.597   3.273   3.347  0.6578  0.3984 -1.0775
  978TIP3    H2 2899   1.520   3.383   3.277 -0.5068  0.2758 -0.0283
  979TIP3   OH2 2900   2.682   2.314   2.406  0.0826  0.2745 -0.4302
  979TIP3    H1 2901   2.603   2.264   2.384 -0.4993  0.7109  0.5874
  979TIP3    H2 2902   2.665   2.347   2.495  0.9345  1.3076 -0.6343
  980TIP3   OH2 2903   5.078   5.126   4.145  0.1515  0.0785  0.1049
  980TIP3    H1 2904   5.088   5.039   4.184  0.9084  0.6336  1.1774
  980TIP3    H2 2905   5.044   5.181   4.215 -2.3170  0.2451 -1.1058
  981TIP3   OH2 2906   2.172   0.247   4.290 -0.4191 -0.0651 -0.0098
  981TIP3    H1 2907   2.237   0.283   4.229  0.6331 -0.1869  1.0042
  981TIP3    H2 2908   2.212   0.165   4.320 -1.8842 -1.0928 -0.7680
  982TIP3   OH2 2909   4.884   5.809   1.824  0.0081  0.1198 -0.0968
  982TIP3    H1 2910   4.955   5.773   1.772 -0.5078 -0.4228 -0.4430
  982TIP3    H2 2911   4.897   5.772   1.912  1.0577  1.2856  0.2562
  983TIP3   OH2 2912   0.781   6.753   0.195  0.2894  0.1242  0.3052
  983TIP3    H1 2913   0.703   6.710   0.231  1.3416 -1.8301  0.3701
  983TIP3    H2 2914   0.748   6.836   0.160 -2.1448 -1.3345 -1.1446
  984TIP3   OH2 2915   4.775   2.093   0.342  0.1604  0.2712  0.3835
  984TIP3    H1 2916   4.859   2.054   0.367  0.3703  1.4351  1.5843
  984TIP3    H2 2917   4.714   2.065   0.411 -0.5052 -0.6609 -0.5401
  985TIP3   OH2 2918   3.170   1.565   5.346  0.3873 -0.0077 -0.1085
  985TIP3    H1 2919   3.226   1.639   5.322  0.6200 -0.2516 -0.3198
  985TIP3    H2 2920   3.229   1.490   5.351  0.1364 -0.1988  0.0064
  986TIP3   OH2 2921   6.008   2.414   1.833  0.0535 -0.4439 -0.4255
  986TIP3    H1 2922   6.087   2.453   1.869  0.1094 -0.4027 -0.5937
  986TIP3    H2 2923   5.940   2.434   1.897 -0.2516  1.2441 -1.2240
  987TIP3   OH2 2924   3.617   6.555   4.303  0.0491 -0.0455  0.2403
  987TIP3    H1 2925   3.592   6.634   4.351 -0.4342 -0.0337 -0.0271
  987TIP3    H2 2926   3.709   6.541   4.326  0.4540  1.1929 -0.5071
  988TIP3   OH2 2927   3.443   3.555   1.075 -0.1011 -0.0994 -0.3478
  988TIP3    H1 2928   3.492   3.475   1.055 -1.6662 -1.3828  0.6204
  988TIP3    H2 2929   3.461   3.572   1.167  1.5204  1.6781 -0.9411
  989TIP3   OH2 2930   5.393   4.693   4.833  0.0448 -0.5611 -0.1396
  989TIP3    H1 2931   5.382   4.598   4.840  0.6634 -0.7409 -1.2364
  989TIP3    H2 2932   5.433   4.705   4.746  0.1845  0.6820  0.0861
  990TIP3   OH2 2933   1.726   0.956   5.225  0.0238 -0.0454  0.4906
  990TIP3    H1 2934   1.686   0.965   5.139  0.2903 -1.7299  0.1538
  990TIP3    H2 2935   1.666   1.001   5.284 -0.0782  1.2797 -0.5746
  991TIP3   OH2 2936   5.920   0.801   1.600 -0.5985 -0.3869  0.4826
  991TIP3    H1 2937   5.897   0.883   1.645  1.2885 -0.2168  1.2287
  991TIP3    H2 2938   5.982   0.758   1.659 -1.5663 -2.3983  0.1081
  992TIP3   OH2 2939   4.495   3.671   0.565 -0.6589 -0.1160  0.5149
  992TIP3    H1 2940   4.489   3.710   0.478 -0.9828  1.7421  1.3233
  992TIP3    H2 2941   4.517   3.744   0.622  0.4519 -1.4577  1.8855
  993TIP3   OH2 2942   6.100   4.936   4.751 -0.3301  0.1494 -0.1233
  993TIP3    H1 2943   6.081   4.842   4.758  0.7929 -0.1873 -1.2724
  993TIP3    H2 2944   6.013   4.977   4.746 -0.8663 -0.7277  1.1709
  994TIP3   OH2 2945   1.346   6.225   1.563  0.2033  0.1301  0.5197
  994TIP3    H1 2946   1.317   6.298   1.617 -0.6428  0.1538  0.0524
  994TIP3    H2 2947   1.441   6.232   1.561  0.2350  0.2701  1.8015
  995TIP3   OH2 2948   6.917   5.666   2.290 -0.8246  0.3432  0.1900
  995TIP3    H1 2949   6.917   5.688   2.197 -1.9488  1.3841  0.4142
  995TIP3    H2 2950   6.878   5.742   2.333  2.5064  1.2852  1.8782
  996TIP3   OH2 2951   1.849   0.505   4.558 -0.2537 -0.2201  0.2122
  996TIP3    H1 2952   1.802   0.492   4.476 -0.4028  0.3857  0.1952
  996TIP3    H2 2953   1.928   0.452   4.549  1.0157  1.7741 -1.4064
  997TIP3   OH2 2954   3.556   3.993   3.580  0.7535 -0.3295 -0.4360
  997TIP3    H1 2955   3.614   3.932   3.625  1.1283 -0.3760 -0.9734
  997TIP3    H2 2956   3.468   3.964   3.603  0.9383 -0.5818 -0.0411
  998TIP3   OH2 2957   4.557   2.938   4.963 -0.0984  0.1549  0.2420
  998TIP3    H1 2958   4.576   2.845   4.971  0.8378  0.4316  1.4613
  998TIP3    H2 2959   4.511   2.961   5.044 -2.3259  0.3265 -0.9876
  999TIP3   OH2 2960   2.842   0.919   3.249 -0.0280 -0.3652 -0.3558
  999TIP3    H1 2961   2.858   0.953   3.160  0.4215  0.3610 -0.0049
  999TIP3    H2 2962   2.845   0.824   3.239  0.4677 -0.2871 -1.0388
 1000TIP3   OH2 2963   3.859   3.512   0.635  0.2678 -0.6227 -0.4679
 1000TIP3    H1 2964   3.945   3.551   0.650 -0.4552  1.8771 -2.2229
 1000TIP3    H2 2965   3.845   3.520   0.540 -2.4775  0.3965 -0.0564
 1001TIP3   OH2 2966   0.313   5.213   3.444  0.3525 -0.4826 -0.3325
 1001TIP3    H1 2967   0.296   5.277   3.513 -0.6015 -0.1422 -0.8564
 1001TIP3    H2 2968   0.278   5.131   3.478  2.6352 -1.0610  0.8388
 1002TIP3   OH2 2969   1.809   6.157   3.937  0.2451 -0.7267  0.3521
 1002TIP3    H1 2970   1.725   6.184   3.975  0.4999 -1.1037  1.2123
 1002TIP3    H2 2971   1.786   6.128   3.849 -0.2568  0.8030 -0.0420
 1003TIP3   OH2 2972   4.037   6.776   5.361  0.0583  0.0630  0.9768
 1003TIP3    H1 2973   3.977   6.701   5.355  1.1995 -0.7411 -1.3269
 1003TIP3    H2 2974   4.108   6.744   5.417  0.4712 -0.5634  0.1184
 1004TIP3   OH2 2975   4.267   5.891   3.871 -0.2217 -0.1931 -0.2361
 1004TIP3    H1 2976   4.311   5.960   3.920  0.4984 -0.6091 -0.2838
 1004TIP3    H2 2977   4.297   5.902   3.781  0.3266 -0.8950 -0.1477
 1005TIP3   OH2 2978   2.284   0.396   1.312  0.7759  0.8077  0.5610
 1005TIP3    H1 2979   2.353   0.329   1.306  1.4356  1.3879  1.5648
 1005TIP3    H2 2980   2.330   0.477   1.332  0.2586  2.1086 -2.8118
 1006TIP3   OH2 2981   4.811   5.224   0.191  0.3027  0.4932 -0.0698
 1006TIP3    H1 2982   4.853   5.140   0.208  0.2729  0.2645 -1.0805
 1006TIP3    H2 2983   4.850   5.283   0.256  1.0782 -0.0583 -0.0154
 1007TIP3   OH2 2984   0.921   3.082   3.506 -0.7201  0.0242  0.1971
 1007TIP3    H1 2985   0.904   3.071   3.599 -2.0371  2.6451  0.3454
 1007TIP3    H2 2986   1.009   3.119   3.502 -0.5116 -0.4461  0.3562
 1008TIP3   OH2 2987   5.749   1.541   4.225  0.0857  0.5352  0.3365
 1008TIP3    H1 2988   5.661   1.554   4.191 -0.9490  0.0415  2.6104
 1008TIP3    H2 2989   5.798   1.504   4.151 -2.3684 -1.9045 -0.2560
 1009TIP3   OH2 2990   2.374   2.774   0.856  0.3790 -0.4708 -0.1499
 1009TIP3    H1 2991   2.302   2.713   0.871  0.6286 -0.4011  1.4903
 1009TIP3    H2 2992   2.408   2.750   0.770  0.7010 -2.8808  0.5922
 1010TIP3   OH2 2993   3.699   6.670   1.217 -0.4008 -0.5431 -1.1441
 1010TIP3    H1 2994   3.620   6.679   1.271 -0.2930  0.3378 -1.1162
 1010TIP3    H2 2995   3.764   6.723   1.262 -0.1301 -0.3093 -1.8139
 1011TIP3   OH2 2996   0.927   6.373   3.923 -0.5950  0.0621  0.4972
 1011TIP3    H1 2997   0.863   6.330   3.980 -0.5672 -0.6018  0.0336
 1011TIP3    H2 2998   0.880   6.391   3.842 -0.5073  0.5960  0.5603
 1012TIP3   OH2 2999   0.205   6.413   4.905 -0.1649 -0.3077 -0.3490
 1012TIP3    H1 3000   0.291   6.445   4.931 -0.7407  0.2421  0.9564
 1012TIP3    H2 3001   0.222   6.324   4.872  0.9772  0.0456 -0.7792
 1013TIP3   OH2 3002   2.053   2.238   5.039 -0.3067 -0.0144  0.3856
 1013TIP3    H1 3003   2.029   2.146   5.021  0.6989 -0.2343  0.0994
 1013TIP3    H2 3004   1.974   2.276   5.078 -0.5753 -1.1386  0.9872
 1014TIP3   OH2 3005   3.880   4.683   5.681 -0.1228  0.6933 -0.3832
 1014TIP3    H1 3006   3.954   4.743   5.678  0.5819 -0.1944 -1.6179
 1014TIP3    H2 3007   3.806   4.735   5.649  0.8221  0.5192 -3.1408
 1015TIP3   OH2 3008   5.948   5.381   1.676 -0.0388 -0.4080 -0.5284
 1015TIP3    H1 3009   6.040   5.360   1.664 -0.2597 -1.7148 -0.1248
 1015TIP3    H2 3010   5.946   5.475   1.695  1.4060 -0.7440  1.5869
 1016TIP3   OH2 3011   1.491   0.201   1.348 -0.0580  0.0750 -0.1452
 1016TIP3    H1 3012   1.438   0.122   1.341  0.5371 -0.6790  2.5981
 1016TIP3    H2 3013   1.431   0.267   1.383 -0.0923  0.3100 -0.6407
 1017TIP3   OH2 3014   4.083   6.766   5.716  0.6157  0.0377  0.1909
 1017TIP3    H1 3015   4.027   6.840   5.691  0.7055 -0.0975 -0.4283
 1017TIP3    H2 3016   4.021   6.700   5.748  0.6060  0.7218  1.6920
 1018TIP3   OH2 3017   4.848   3.938   0.017 -0.4569  0.0383 -0.7415
 1018TIP3    H1 3018   4.873   4.021  -0.022  1.0724 -0.6186 -1.2665
 1018TIP3    H2 3019   4.898   3.934   0.098  2.3995 -1.8687 -2.4226
 1019TIP3   OH2 3020   6.887   3.043   3.203  0.2588 -0.0755 -0.0405
 1019TIP3    H1 3021   6.828   3.101   3.251 -0.5015 -2.4624  2.1392
 1019TIP3    H2 3022   6.953   3.018   3.267  1.0725 -0.9592 -1.1797
 1020TIP3   OH2 3023   4.136   6.179   2.622  0.1142  0.1517  0.6868
 1020TIP3    H1 3024   4.225   6.211   2.603 -0.0989  0.3338 -0.0337
 1020TIP3    H2 3025   4.085   6.203   2.544 -0.9503  1.4567  1.7341
 1021TIP3   OH2 3026   2.044   5.385   5.068 -0.0014 -0.4631 -0.2167
 1021TIP3    H1 3027   1.962   5.364   5.025  0.6311 -0.0054 -1.7068
 1021TIP3    H2 3028   2.021   5.451   5.134 -1.4536 -3.2286  2.2361
 1022TIP3   OH2 3029   2.553   5.310   3.238  0.7438 -0.1924  0.3227
 1022TIP3    H1 3030   2.483   5.335   3.299  0.9227  1.2053 -0.0111
 1022TIP3    H2 3031   2.507   5.298   3.155  0.6994 -0.7032  0.4205
 1023TIP3   OH2 3032   2.931   1.727   5.631 -0.5099 -0.0963 -0.3346
 1023TIP3    H1 3033   2.877   1.778   5.570  2.0937  1.7931 -1.2380
 1023TIP3    H2 3034   3.015   1.718   5.587  0.5641 -1.2214  1.7918
 1024TIP3   OH2 3035   4.093   1.492   4.392 -0.0104 -0.0273 -0.2713
 1024TIP3    H1 3036   4.045   1.566   4.429  0.3075  0.0051  0.0811
 1024TIP3    H2 3037   4.113   1.519   4.302 -2.3456 -0.8203 -1.1072
 1025TIP3   OH2 3038   0.933   0.227   5.484  0.7819  0.1431 -0.2176
 1025TIP3    H1 3039   0.918   0.237   5.578 -1.0875 -1.0846 -0.3171
 1025TIP3    H2 3040   0.992   0.152   5.478 -0.3857 -0.8238 -0.0308
 1026TIP3   OH2 3041   4.240   4.535   1.203  0.1935  0.4333 -0.3148
 1026TIP3    H1 3042   4.228   4.460   1.145  1.1531 -0.7324  0.9417
 1026TIP3    H2 3043   4.258   4.608   1.143 -1.3579 -0.1658 -1.5907
 1027TIP3   OH2 3044   3.317   5.284   5.854 -0.1409  0.9270  0.6460
 1027TIP3    H1 3045   3.292   5.205   5.901  2.5246  0.0867  0.8361
 1027TIP3    H2 3046   3.306   5.262   5.761  0.4794  0.3717  0.7036
 1028TIP3   OH2 3047   0.884   4.182   1.407  0.1776  0.3201  0.2668
 1028TIP3    H1 3048   0.907   4.129   1.331  1.5624  1.1917  0.0480
 1028TIP3    H2 3049   0.792   4.206   1.393 -1.0219 -3.1317  1.0718
 1029TIP3   OH2 3050   1.325   6.210   4.902  0.1105 -0.1754 -0.6168
 1029TIP3    H1 3051   1.322   6.160   4.820 -0.5483 -0.6453 -0.3177
 1029TIP3    H2 3052   1.291   6.297   4.878  0.5730 -0.0912 -0.9835
 1030TIP3   OH2 3053   3.403   4.978   5.278  0.0591  0.5784 -0.6303
 1030TIP3    H1 3054   3.342   4.962   5.350  1.2474  0.2977  0.3444
 1030TIP3    H2 3055   3.362   5.047   5.227 -0.4806  1.2951  0.7215
 1031TIP3   OH2 3056   5.356   1.404   1.573  0.8314 -0.3832 -0.2511
 1031TIP3    H1 3057   5.345   1.493   1.607 -0.9361 -0.6678  0.0341
 1031TIP3    H2 3058   5.365   1.350   1.651  0.5466 -0.6092 -0.3751
 1032TIP3   OH2 3059   2.548   0.920   0.712 -0.1848  0.3628 -0.5367
 1032TIP3    H1 3060   2.630   0.893   0.672 -0.9262 -0.3272 -1.6502
 1032TIP3    H2 3061   2.494   0.951   0.639 -0.8544  0.9659  0.1924
 1033TIP3   OH2 3062   3.919   3.521   3.329 -0.0414 -0.1217  0.0937
 1033TIP3    H1 3063   3.958   3.530   3.242  3.4415  1.0815  1.5868
 1033TIP3    H2 3064   3.875   3.605   3.344 -2.5652 -1.1036 -1.1946
 1034TIP3   OH2 3065   4.265   3.104   2.509  0.1064 -0.0452 -0.0417
 1034TIP3    H1 3066   4.252   3.105   2.604  5.9629 -1.3035  1.1526
 1034TIP3    H2 3067   4.240   3.015   2.482 -1.5110  0.2944  0.2526
 1035TIP3   OH2 3068   4.572   3.055   0.285  0.4086  0.7513  0.2965
 1035TIP3    H1 3069   4.612   2.979   0.243  0.5071  0.8888  0.1446
 1035TIP3    H2 3070   4.491   3.070   0.236  0.2446  0.5685  0.5068
 1036TIP3   OH2 3071   0.489   4.485   0.431 -0.1456 -0.1487  0.1372
 1036TIP3    H1 3072   0.517   4.416   0.371  2.0446  0.0986  0.7965
 1036TIP3    H2 3073   0.466   4.438   0.512 -1.8651 -0.3579 -0.4261
 1037TIP3   OH2 3074   0.909   4.926   5.858  0.2432  0.3866  0.0859
 1037TIP3    H1 3075   0.949   4.861   5.915 -0.9426 -1.0126 -0.6192
 1037TIP3    H2 3076   0.983   4.968   5.814  1.0122 -1.1917 -0.1873
 1038TIP3   OH2 3077   1.290   5.130   1.625  0.7426 -0.1322 -0.6348
 1038TIP3    H1 3078   1.252   5.195   1.566 -2.0426 -0.9347  0.1220
 1038TIP3    H2 3079   1.277   5.166   1.712 -0.4443 -1.4393 -0.2316
 1039TIP3   OH2 3080   5.081   4.883   4.260 -0.2602 -0.7413 -0.3714
 1039TIP3    H1 3081   5.173   4.859   4.271 -0.0849 -0.7094 -1.7110
 1039TIP3    H2 3082   5.033   4.820   4.314  0.6363  0.4654  1.9813
 1040TIP3   OH2 3083   5.535   6.595   1.246 -0.3903 -0.2822 -0.1995
 1040TIP3    H1 3084   5.495   6.586   1.332  1.2732 -0.6271  0.5805
 1040TIP3    H2 3085   5.507   6.517   1.198  1.5559 -2.0422  1.3150
 1041TIP3   OH2 3086   4.330   5.988   3.227 -0.1671  0.0352  0.0842
 1041TIP3    H1 3087   4.295   5.911   3.272 -0.6289  0.6063  0.7342
 1041TIP3    H2 3088   4.252   6.039   3.203  0.1281  0.2341 -0.4685
 1042TIP3   OH2 3089   1.533   4.374   1.040 -0.4946  0.3203  0.4308
 1042TIP3    H1 3090   1.519   4.395   1.132  0.3295 -1.3965  0.9779
 1042TIP3    H2 3091   1.609   4.427   1.015 -0.6765  0.7374  0.7544
 1043TIP3   OH2 3092   5.937   5.824   0.252  0.0504 -0.0097 -0.5185
 1043TIP3    H1 3093   5.925   5.740   0.207 -0.0406 -0.4043  0.2290
 1043TIP3    H2 3094   5.900   5.809   0.339 -2.4449  1.5931 -1.1981
 1044TIP3   OH2 3095   1.523   2.647   0.276 -0.0538  0.0536  0.2505
 1044TIP3    H1 3096   1.497   2.657   0.367 -1.9329 -1.4989 -0.0487
 1044TIP3    H2 3097   1.447   2.608   0.233 -0.2329  2.9824 -2.5668
 1045TIP3   OH2 3098   5.801   1.522   4.498 -0.1925 -0.1549 -0.0575
 1045TIP3    H1 3099   5.765   1.518   4.409  0.8549  0.0690 -0.5048
 1045TIP3    H2 3100   5.746   1.587   4.542 -0.1745  0.3860 -0.8074
 1046TIP3   OH2 3101   5.402   6.096   1.041 -0.1822 -0.7237 -0.7529
 1046TIP3    H1 3102   5.329   6.100   1.102  0.5949 -0.8332  0.2090
 1046TIP3    H2 3103   5.362   6.106   0.955 -1.4920 -2.1252 -0.3510
 1047TIP3   OH2 3104   6.739   0.108   4.915  0.2878 -0.3582  0.2171
 1047TIP3    H1 3105   6.704   0.033   4.963 -0.2692 -0.1173  0.1851
 1047TIP3    H2 3106   6.766   0.072   4.831  1.6801 -0.8755  0.8465
 1048TIP3   OH2 3107   3.300   2.233   2.507  0.2882  0.1738  0.4649
 1048TIP3    H1 3108   3.248   2.153   2.513 -0.2383  0.5598  1.2792
 1048TIP3    H2 3109   3.326   2.238   2.415 -0.4424 -0.4438  0.2110
 1049TIP3   OH2 3110   6.819   5.620   4.169 -0.4008 -0.2018 -0.0516
 1049TIP3    H1 3111   6.877   5.590   4.239  0.4410 -0.6058 -0.8928
 1049TIP3    H2 3112   6.741   5.652   4.214  0.4506  0.3023  1.1147
 1050TIP3   OH2 3113   6.581   0.409   3.037  0.1045 -0.3696  0.0789
 1050TIP3    H1 3114   6.636   0.371   3.105  1.8419 -2.1166 -2.1283
 1050TIP3    H2 3115   6.496   0.422   3.079  1.1413 -1.1402  2.5991
 1051TIP3   OH2 3116   0.245   5.698   4.799  0.2974  0.1809 -0.2622
 1051TIP3    H1 3117   0.179   5.629   4.805  1.1186 -0.5258  1.1611
 1051TIP3    H2 3118   0.195   5.777   4.783 -1.2193  0.0528  2.9828
 1052TIP3   OH2 3119   3.414   2.270   5.036 -0.1362 -0.0825 -0.2382
 1052TIP3    H1 3120   3.327   2.240   5.065  0.5527  0.3390  2.5558
 1052TIP3    H2 3121   3.414   2.364   5.055  0.9230 -0.0831 -0.2067
 1053TIP3   OH2 3122   2.301   4.637   0.193  0.2691  0.1144  0.2522
 1053TIP3    H1 3123   2.262   4.652   0.107  1.8969  1.2473 -0.3424
 1053TIP3    H2 3124   2.373   4.701   0.198 -1.1867  1.7094  3.3875
 1054TIP3   OH2 3125   2.645   1.780   0.184 -0.2252 -0.2007  0.3156
 1054TIP3    H1 3126   2.671   1.738   0.266 -1.4154  0.5509  1.1123
 1054TIP3    H2 3127   2.612   1.866   0.210  0.3771  0.4863 -1.0805
 1055TIP3   OH2 3128   3.251   5.345   3.281 -0.3688 -0.2868 -1.0086
 1055TIP3    H1 3129   3.206   5.305   3.356  0.9563 -1.2767 -0.7025
 1055TIP3    H2 3130   3.296   5.272   3.239  1.0544  0.6875 -1.2330
 1056TIP3   OH2 3131   4.312   1.596   3.079  0.0925 -0.6642  0.1737
 1056TIP3    H1 3132   4.303   1.604   3.174 -0.0646 -0.5363  0.1491
 1056TIP3    H2 3133   4.359   1.513   3.066 -1.5270 -1.6497  0.3042
 1057TIP3   OH2 3134   3.248   3.550   0.358 -0.1199 -0.2949 -0.2798
 1057TIP3    H1 3135   3.303   3.482   0.396 -0.8081 -0.4639  0.4312
 1057TIP3    H2 3136   3.186   3.502   0.302 -1.6411 -0.4455  1.4529
 1058TIP3   OH2 3137   0.057   1.578   1.345 -0.5416 -0.2142  0.6288
 1058TIP3    H1 3138   0.122   1.587   1.414  0.9730 -0.2432 -0.7272
 1058TIP3    H2 3139  -0.007   1.647   1.363  0.0701  0.0713  1.7821
 1059TIP3   OH2 3140   5.297   1.829   0.547 -0.3191  0.1108  0.1669
 1059TIP3    H1 3141   5.362   1.842   0.615 -1.0953  1.5658  0.6811
 1059TIP3    H2 3142   5.239   1.761   0.581  0.6054 -0.8301 -0.0801
 1060TIP3   OH2 3143   4.544   0.805   0.281  0.3701  0.6838 -0.4408
 1060TIP3    H1 3144   4.598   0.853   0.343  0.2844 -0.0257  0.2015
 1060TIP3    H2 3145   4.566   0.713   0.295  0.5702  0.5212 -1.6805
 1061TIP3   OH2 3146   4.905   4.972   0.271 -0.5956  0.1768 -0.1118
 1061TIP3    H1 3147   4.987   4.952   0.226 -0.3896  2.2448 -0.7630
 1061TIP3    H2 3148   4.880   4.889   0.312  1.1840 -0.8141 -0.8775
 1062TIP3   OH2 3149   0.767   3.152   0.073 -0.0333  0.2017 -0.1681
 1062TIP3    H1 3150   0.806   3.130  -0.012  2.0430 -2.5916  1.3288
 1062TIP3    H2 3151   0.802   3.239   0.094  0.8180  0.1901 -1.4038
 1063TIP3   OH2 3152   0.891   4.235   0.373  0.5259 -0.3641  0.0365
 1063TIP3    H1 3153   0.871   4.163   0.433  0.2958 -1.5443 -1.4085
 1063TIP3    H2 3154   0.985   4.251   0.386  0.6070 -0.9996  0.3004
 1064TIP3   OH2 3155   4.295   0.260   2.950  0.2990 -0.0981  0.3976
 1064TIP3    H1 3156   4.240   0.182   2.939  0.0863  0.0848  0.1662
 1064TIP3    H2 3157   4.237   0.333   2.932  1.1764  0.0435 -2.2031
 1065TIP3   OH2 3158   0.573   4.779   0.347  0.1418 -0.1489  0.1810
 1065TIP3    H1 3159   0.546   4.687   0.348  0.3740 -0.2162  1.0417
 1065TIP3    H2 3160   0.628   4.788   0.425  0.6458  0.5649 -0.2482
 1066TIP3   OH2 3161   0.817   2.170   3.586 -0.4784  0.2678 -0.4897
 1066TIP3    H1 3162   0.844   2.172   3.494 -1.1956 -1.5533 -0.7686
 1066TIP3    H2 3163   0.811   2.077   3.608 -2.3783  0.6220  0.7693
 1067TIP3   OH2 3164   6.931   1.949   0.222  0.1295  0.0692  0.4051
 1067TIP3    H1 3165   6.903   2.037   0.248  1.2809 -0.0293  2.1576
 1067TIP3    H2 3166   6.865   1.920   0.160 -0.0305  2.3531 -0.5876
 1068TIP3   OH2 3167   1.669   2.369   3.786  0.4698 -0.6435 -0.0312
 1068TIP3    H1 3168   1.721   2.292   3.764  1.4846 -0.3910  1.3666
 1068TIP3    H2 3169   1.603   2.374   3.717  2.1701 -1.0889 -1.7616
 1069TIP3   OH2 3170   2.149   2.870   5.334  0.0527  0.1513 -0.0954
 1069TIP3    H1 3171   2.091   2.945   5.340  0.5644  0.7048 -1.6404
 1069TIP3    H2 3172   2.187   2.876   5.247 -0.7889 -2.5631 -0.7329
 1070TIP3   OH2 3173   5.906   2.248   0.724  0.7325 -0.2196  0.2149
 1070TIP3    H1 3174   5.938   2.274   0.810  1.2843  0.6167 -0.2282
 1070TIP3    H2 3175   5.824   2.296   0.713  1.8256  1.5761 -0.6661
 1071TIP3   OH2 3176   7.122   0.635   0.517 -0.5524 -0.3779  0.1403
 1071TIP3    H1 3177   7.086   0.637   0.429 -0.0843 -0.1715 -0.0456
 1071TIP3    H2 3178   7.195   0.573   0.512  1.1647  1.5648 -0.2671
 1072TIP3   OH2 3179   2.927   0.980   1.637 -0.4535 -0.1597 -0.1445
 1072TIP3    H1 3180   2.966   1.043   1.698 -0.0980 -1.2177  0.7856
 1072TIP3    H2 3181   2.984   0.983   1.560 -0.6055  0.8369 -0.2276
 1073TIP3   OH2 3182   0.951   0.314   3.277 -0.2691  0.2100  0.1544
 1073TIP3    H1 3183   0.929   0.232   3.234 -0.7293  0.3686  0.0750
 1073TIP3    H2 3184   0.866   0.348   3.307 -0.0294  0.4232  0.5973
 1074TIP3   OH2 3185   4.807   2.733   3.912 -0.5424 -0.2191 -0.4097
 1074TIP3    H1 3186   4.735   2.686   3.869  0.9067 -1.4513 -1.6017
 1074TIP3    H2 3187   4.884   2.678   3.897  0.5299  0.6838  1.4881
 1075TIP3   OH2 3188   6.103   0.654   3.441 -0.2114  0.4490  0.3100
 1075TIP3    H1 3189   6.146   0.668   3.356 -0.1349  0.2976  0.3227
 1075TIP3    H2 3190   6.118   0.561   3.460 -1.7035  0.0423 -0.3283
 1076TIP3   OH2 3191   4.209   6.624   2.873 -0.8851 -0.0224 -0.2496
 1076TIP3    H1 3192   4.139   6.687   2.887 -0.7592  0.0293  0.1717
 1076TIP3    H2 3193   4.276   6.648   2.937 -0.4429 -0.0167 -0.7105
 1077TIP3   OH2 3194   3.412   0.496   1.507  0.9284  0.3477  0.2409
 1077TIP3    H1 3195   3.498   0.485   1.548  0.9927 -0.2143 -0.0323
 1077TIP3    H2 3196   3.424   0.565   1.442  1.6946 -1.0638 -1.1863
 1078TIP3   OH2 3197   3.588   5.896   2.131  0.4661 -0.0002  0.0065
 1078TIP3    H1 3198   3.628   5.968   2.181  0.0134 -0.5237  1.1737
 1078TIP3    H2 3199   3.562   5.936   2.048 -1.1561  1.6293  1.1989
 1079TIP3   OH2 3200   1.869   6.084   0.466  0.5646  0.0914  0.3124
 1079TIP3    H1 3201   1.784   6.103   0.507 -0.6934  0.6134 -2.3027
 1079TIP3    H2 3202   1.880   5.990   0.475 -0.6147 -0.0759  0.1548
 1080TIP3   OH2 3203   2.106   5.949   2.765 -0.1210  0.9433 -0.0766
 1080TIP3    H1 3204   2.045   5.875   2.775  1.7991 -0.7466 -0.1479
 1080TIP3    H2 3205   2.129   5.972   2.855 -1.5241  2.2197 -0.0115
 1081TIP3   OH2 3206   3.270   3.402   3.604 -0.3850 -0.6641 -0.7108
 1081TIP3    H1 3207   3.283   3.475   3.665 -2.4673 -0.0339 -0.9263
 1081TIP3    H2 3208   3.329   3.334   3.635  1.6348  1.0847 -0.4991
 1082TIP3   OH2 3209   2.883   6.160   4.752  0.2348 -0.3846 -0.0317
 1082TIP3    H1 3210   2.856   6.154   4.844  1.5342 -0.4531  0.3552
 1082TIP3    H2 3211   2.830   6.232   4.717  1.4360  1.3017  1.4064
 1083TIP3   OH2 3212   2.248   3.285   1.575  0.0473 -0.2086 -0.1112
 1083TIP3    H1 3213   2.284   3.287   1.664  0.2707 -0.7060 -0.1871
 1083TIP3    H2 3214   2.161   3.324   1.584 -0.4365 -1.4029  0.5626
 1084TIP3   OH2 3215   2.147   2.863   5.620  0.3457 -0.2182 -0.4627
 1084TIP3    H1 3216   2.097   2.940   5.648  1.5389  0.7074 -0.7859
 1084TIP3    H2 3217   2.131   2.857   5.526 -0.2265 -0.7292 -0.3334
 1085TIP3   OH2 3218   2.428   4.367   0.597  0.1060 -0.0462  0.3989
 1085TIP3    H1 3219   2.366   4.335   0.532 -0.7150 -1.1136  1.6622
 1085TIP3    H2 3220   2.483   4.429   0.549 -0.2600 -1.0359 -1.3754
 1086TIP3   OH2 3221   0.518   6.318   1.241 -0.2638  0.2936  0.2070
 1086TIP3    H1 3222   0.521   6.259   1.165 -0.1710  3.7317 -2.7009
 1086TIP3    H2 3223   0.604   6.308   1.282 -1.0035 -3.0934  1.2397
 1087TIP3   OH2 3224   5.585   2.001   5.766  0.5286  0.5737  0.7597
 1087TIP3    H1 3225   5.582   2.081   5.714 -0.0215  0.4093  0.5275
 1087TIP3    H2 3226   5.540   1.936   5.712  3.4369 -0.6789 -0.3594
 1088TIP3   OH2 3227   0.100   6.225   3.478  0.1035 -0.1652 -0.0292
 1088TIP3    H1 3228   0.110   6.301   3.535  0.8982  0.0113 -0.3872
 1088TIP3    H2 3229   0.103   6.262   3.389  4.3889 -0.8684 -0.4270
 1089TIP3   OH2 3230   2.205   5.674   1.703 -0.5947  0.0152 -0.4096
 1089TIP3    H1 3231   2.135   5.657   1.640 -0.7692 -1.1854  0.0695
 1089TIP3    H2 3232   2.169   5.644   1.787 -0.1190  0.9557  0.1475
 1090TIP3   OH2 3233   5.796   1.063   3.266 -0.0270  0.6415 -0.2374
 1090TIP3    H1 3234   5.844   1.132   3.313  0.7700 -1.4965  2.3424
 1090TIP3    H2 3235   5.808   1.085   3.174  3.7615  1.7395  0.3223
 1091TIP3   OH2 3236   2.671   4.877   2.787 -0.1426  0.5898 -0.2003
 1091TIP3    H1 3237   2.736   4.921   2.732 -0.2450  0.4622 -0.4271
 1091TIP3    H2 3238   2.687   4.784   2.772  1.7283  0.4274  2.1694
 1092TIP3   OH2 3239   6.610   0.684   3.030 -0.5911 -0.0009 -0.4065
 1092TIP3    H1 3240   6.607   0.590   3.012  1.2265 -0.0082 -0.8748
 1092TIP3    H2 3241   6.644   0.690   3.119  2.6779  0.1874 -1.5403
 1093TIP3   OH2 3242   3.114   5.399   3.758 -0.1166 -0.4021 -0.4011
 1093TIP3    H1 3243   3.043   5.423   3.816  0.4014 -1.2415  0.6121
 1093TIP3    H2 3244   3.158   5.482   3.737 -0.3224 -0.0906  0.3864
 1094TIP3   OH2 3245   0.290   3.987   3.465  1.0275 -0.6977  0.0159
 1094TIP3    H1 3246   0.360   4.040   3.503  0.9933 -0.2940 -0.4626
 1094TIP3    H2 3247   0.301   3.999   3.370 -1.3412  1.5700 -0.0524
 1095TIP3   OH2 3248   6.289   3.158   0.697  0.4461  0.2436 -0.5743
 1095TIP3    H1 3249   6.251   3.189   0.779 -0.5769 -0.2262 -0.8554
 1095TIP3    H2 3250   6.361   3.219   0.679 -1.1995  2.1845 -0.8675
 1096TIP3   OH2 3251   0.597   6.643   5.489  0.6063 -0.2186  0.0766
 1096TIP3    H1 3252   0.557   6.599   5.564 -2.6403  2.4427  0.2021
 1096TIP3    H2 3253   0.656   6.707   5.528  0.4363 -0.1781  0.2725
 1097TIP3   OH2 3254   4.092   0.269   4.246 -0.5610 -0.5476  0.3783
 1097TIP3    H1 3255   4.126   0.245   4.160 -2.1165 -2.9786  0.3380
 1097TIP3    H2 3256   4.169   0.266   4.304  0.0154 -1.9158 -0.4061
 1098TIP3   OH2 3257   1.460   0.581   0.288  0.0821 -0.1258  0.3709
 1098TIP3    H1 3258   1.542   0.531   0.280 -0.6978 -1.1378 -2.1730
 1098TIP3    H2 3259   1.426   0.557   0.375  1.8053 -0.7071  0.9282
 1099TIP3   OH2 3260   1.732   3.053   0.851 -0.3766 -0.5120  0.2985
 1099TIP3    H1 3261   1.771   3.000   0.921  1.9327  3.1570  2.1148
 1099TIP3    H2 3262   1.638   3.049   0.867 -0.0119 -1.1261  2.6103
 1100TIP3   OH2 3263   0.872   2.871   1.655  0.8355 -0.1733  0.4889
 1100TIP3    H1 3264   0.874   2.814   1.578  0.7691 -0.2579  0.5502
 1100TIP3    H2 3265   0.910   2.954   1.624 -2.4193  1.0397 -0.6653
 1101TIP3   OH2 3266   1.202   4.810   2.626 -0.5340  0.0082 -0.0331
 1101TIP3    H1 3267   1.211   4.785   2.717 -1.1895 -0.2577 -0.0362
 1101TIP3    H2 3268   1.259   4.749   2.578 -0.9785 -0.5175  0.1006
 1102TIP3   OH2 3269   3.007   5.153   5.459 -0.0623 -0.3967  0.2294
 1102TIP3    H1 3270   2.980   5.159   5.367 -1.7245 -1.9835  0.5723
 1102TIP3    H2 3271   2.927   5.165   5.509  0.7137 -0.2281  1.4748
 1103TIP3   OH2 3272   1.859   0.221   3.777  0.6843  0.7532  0.5682
 1103TIP3    H1 3273   1.811   0.278   3.717  0.6398  0.2305  0.0924
 1103TIP3    H2 3274   1.791   0.186   3.836  0.7685  1.4850  1.1187
 1104TIP3   OH2 3275   5.643   0.446   0.128 -0.3503 -0.1323 -1.0095
 1104TIP3    H1 3276   5.699   0.390   0.182  0.1990 -0.6461 -2.0917
 1104TIP3    H2 3277   5.555   0.432   0.163  0.0786  0.0712  0.1925
 1105TIP3   OH2 3278   3.907   4.056   5.209 -0.0222 -1.2000 -0.3708
 1105TIP3    H1 3279   3.941   4.125   5.266 -0.0589 -0.5335 -1.1329
 1105TIP3    H2 3280   3.966   3.982   5.222 -0.5703 -1.4005  1.2267
 1106TIP3   OH2 3281   6.285   4.957   5.369  0.4300  0.3041 -0.0410
 1106TIP3    H1 3282   6.291   5.013   5.292 -0.1384 -0.2219 -0.4755
 1106TIP3    H2 3283   6.191   4.951   5.388  0.5939  0.8564  1.0153
 1107TIP3   OH2 3284   2.463   4.860   5.428  0.1255  0.4263  0.2060
 1107TIP3    H1 3285   2.409   4.915   5.485 -0.3119 -1.7507  2.0766
 1107TIP3    H2 3286   2.406   4.837   5.355 -0.1853  1.2416  0.1886
 1108TIP3   OH2 3287   6.619   2.198   5.326 -0.1199 -0.7380 -0.1471
 1108TIP3    H1 3288   6.545   2.148   5.360 -0.2129 -0.2373  0.4270
 1108TIP3    H2 3289   6.678   2.208   5.402 -0.1500  0.0817 -0.2131
 1109TIP3   OH2 3290   4.660   5.927   4.000 -0.1197  0.3242  0.5186
 1109TIP3    H1 3291   4.651   5.843   4.045  1.0187  0.6570  1.4267
 1109TIP3    H2 3292   4.742   5.919   3.951 -0.0632  0.8674  0.5236
 1110TIP3   OH2 3293   2.218   6.598   0.297 -0.3165 -0.0377 -0.2521
 1110TIP3    H1 3294   2.200   6.600   0.391 -2.2026  1.7784 -0.5750
 1110TIP3    H2 3295   2.220   6.504   0.276  0.4949 -0.5025  1.6083
 1111TIP3   OH2 3296   0.123   3.950   2.698  0.2524  0.6840  0.2566
 1111TIP3    H1 3297   0.144   3.985   2.611 -0.5773  2.2762  0.6788
 1111TIP3    H2 3298   0.045   3.998   2.726 -0.2524 -0.7061  1.3657
 1112TIP3   OH2 3299   2.394   0.063   4.100 -0.0153 -0.1228  0.6652
 1112TIP3    H1 3300   2.459  -0.006   4.087  0.3653  0.2869  0.3592
 1112TIP3    H2 3301   2.368   0.054   4.192 -0.1599 -0.8300  0.5603
 1113TIP3   OH2 3302   0.171   5.290   2.035 -0.5994  0.2545 -0.8895
 1113TIP3    H1 3303   0.076   5.276   2.024 -1.2750  3.5469 -0.1778
 1113TIP3    H2 3304   0.179   5.332   2.121  1.4964  0.2713 -1.0628
 1114TIP3   OH2 3305   2.465   5.281   2.906  0.4028  0.6454  0.0551
 1114TIP3    H1 3306   2.469   5.190   2.936  1.9635  0.9703  0.9402
 1114TIP3    H2 3307   2.371   5.300   2.902  0.0474 -0.1845  2.4263
 1115TIP3   OH2 3308   1.941   6.112   2.638 -0.0617 -0.0928 -0.0886
 1115TIP3    H1 3309   1.998   6.041   2.668 -0.0090  0.1609  0.4147
 1115TIP3    H2 3310   1.999   6.187   2.627 -0.7223  1.1299  3.6121
 1116TIP3   OH2 3311   1.060   1.255   5.207 -0.2705 -0.1837  0.1101
 1116TIP3    H1 3312   1.027   1.340   5.234 -0.5535  1.1863 -3.8407
 1116TIP3    H2 3313   0.988   1.194   5.225 -0.5976  0.6293  1.7155
 1117TIP3   OH2 3314   6.086   3.584   2.576  0.1759 -0.4872 -0.3012
 1117TIP3    H1 3315   6.136   3.642   2.519 -0.4658  0.2347 -0.1362
 1117TIP3    H2 3316   6.150   3.553   2.641  0.7382 -0.7285 -0.9504
 1118TIP3   OH2 3317   1.289   4.646   4.627 -0.6250  0.2285  0.1794
 1118TIP3    H1 3318   1.368   4.699   4.617  0.3918 -0.8588  2.1536
 1118TIP3    H2 3319   1.239   4.664   4.547  2.2569 -0.2032 -1.8692
 1119TIP3   OH2 3320   3.757   3.950   1.224 -0.5381 -0.0493 -0.5771
 1119TIP3    H1 3321   3.839   4.000   1.229 -1.2356  1.0947 -0.1542
 1119TIP3    H2 3322   3.730   3.939   1.315 -0.3294 -1.3378 -0.6585
 1120TIP3   OH2 3323   4.032   5.314   4.721 -0.6015  0.0315  0.4136
 1120TIP3    H1 3324   4.027   5.336   4.814 -0.2532  1.5688  0.0965
 1120TIP3    H2 3325   3.948   5.342   4.685 -1.6544 -2.5801  0.6011
 1121TIP3   OH2 3326   2.442   3.448   5.595 -0.5010 -0.8169  0.0638
 1121TIP3    H1 3327   2.468   3.480   5.681  0.9191  1.4309 -1.1292
 1121TIP3    H2 3328   2.356   3.488   5.579 -0.7254 -1.1659  0.3575
 1122TIP3   OH2 3329   6.273   2.932   1.805  0.3600 -0.1992 -0.4970
 1122TIP3    H1 3330   6.326   3.008   1.827  1.5459 -0.8691 -0.9444
 1122TIP3    H2 3331   6.326   2.857   1.832 -0.6325 -0.8875 -0.3902
 1123TIP3   OH2 3332   2.646   6.418   5.399  0.4259  0.4279 -0.0096
 1123TIP3    H1 3333   2.565   6.368   5.387  0.1531  1.3100 -2.6170
 1123TIP3    H2 3334   2.616   6.508   5.413  0.8230  1.0714 -2.6297
 1124TIP3   OH2 3335   0.065   1.151   1.103 -0.3622  0.3773  0.2060
 1124TIP3    H1 3336   0.114   1.161   1.185 -0.5834  0.7045  0.3008
 1124TIP3    H2 3337  -0.010   1.096   1.126 -0.6462  0.8106  0.3169
 1125TIP3   OH2 3338   1.202   1.127   1.844  0.1432  0.4667  0.4304
 1125TIP3    H1 3339   1.212   1.154   1.935 -1.3373  1.4111  0.3427
 1125TIP3    H2 3340   1.139   1.055   1.847 -0.3678  0.8978  0.1006
 1126TIP3   OH2 3341   1.681   5.896   1.627 -0.0111  0.3685 -0.1184
 1126TIP3    H1 3342   1.766   5.934   1.651 -0.8493  1.3081  1.4595
 1126TIP3    H2 3343   1.660   5.937   1.543 -0.1043  2.1753  0.7385
 1127TIP3   OH2 3344   7.122   3.939   0.827  0.4990  0.0191  0.0184
 1127TIP3    H1 3345   7.074   4.006   0.876  1.1871 -0.8075  1.9255
 1127TIP3    H2 3346   7.065   3.862   0.831  1.0178 -0.3519  0.4469
 1128TIP3   OH2 3347   1.768   6.479   0.776  0.5286  0.1491 -0.2119
 1128TIP3    H1 3348   1.799   6.468   0.687 -0.5867 -1.6254 -0.4241
 1128TIP3    H2 3349   1.763   6.390   0.811 -1.1479  0.6209  0.8723
 1129TIP3   OH2 3350   4.812   6.190   2.357  0.8648  0.0103  0.1112
 1129TIP3    H1 3351   4.851   6.111   2.395 -0.9946 -1.2722 -0.5016
 1129TIP3    H2 3352   4.766   6.232   2.430 -0.6522 -1.1322 -0.1434
 1130TIP3   OH2 3353   2.037   0.555   0.594  0.1501  0.0344  0.4415
 1130TIP3    H1 3354   2.088   0.541   0.674  0.4056 -1.9184 -0.0267
 1130TIP3    H2 3355   1.947   0.563   0.625  0.4007  0.7111  1.0318
 1131TIP3   OH2 3356   6.110   6.047   2.081 -0.1766  0.3535  0.0718
 1131TIP3    H1 3357   6.068   6.093   2.008 -1.1125  0.5923  0.7389
 1131TIP3    H2 3358   6.151   6.116   2.133 -0.5628  0.3208  0.4272
 1132TIP3   OH2 3359   1.651   0.214   4.167 -0.0572  0.4332 -0.1689
 1132TIP3    H1 3360   1.650   0.193   4.260  0.8437  0.6382 -0.1056
 1132TIP3    H2 3361   1.600   0.294   4.160  0.9784  1.1612  0.3505
 1133TIP3   OH2 3362   1.234   3.719   0.254  0.1851  0.1222  0.1452
 1133TIP3    H1 3363   1.180   3.796   0.272 -0.8741  0.0680 -2.3784
 1133TIP3    H2 3364   1.324   3.748   0.271 -0.3354  1.3432  0.9302
 1134TIP3   OH2 3365   2.274   6.681   2.777  0.6050  1.0975 -0.1477
 1134TIP3    H1 3366   2.193   6.636   2.799  1.7272 -0.2743  1.4587
 1134TIP3    H2 3367   2.261   6.771   2.808 -0.0129  0.6789  0.8451
 1135TIP3   OH2 3368   1.681   5.008   5.063  0.4155 -0.3642  0.1275
 1135TIP3    H1 3369   1.752   4.988   5.124  0.7578  1.0858  0.2407
 1135TIP3    H2 3370   1.609   4.950   5.090  0.4094  0.5195  2.1843
 1136TIP3   OH2 3371   2.519   3.475   5.117  0.1824 -0.6415 -0.2586
 1136TIP3    H1 3372   2.520   3.385   5.150  3.2972 -0.2080  1.2202
 1136TIP3    H2 3373   2.575   3.473   5.040  0.7120  0.0937  0.0891
 1137TIP3   OH2 3374   1.879   2.830   2.638 -0.0009 -0.2528 -0.0967
 1137TIP3    H1 3375   1.927   2.853   2.717  0.1891 -0.1329 -0.2455
 1137TIP3    H2 3376   1.910   2.743   2.615  0.7423  0.1348 -0.6351
 1138TIP3   OH2 3377   0.954   2.500   1.665  0.7321 -0.1633  1.0077
 1138TIP3    H1 3378   1.011   2.516   1.590 -0.0044 -0.5995  0.3411
 1138TIP3    H2 3379   0.889   2.438   1.632  1.4796 -1.8469  2.5275
 1139TIP3   OH2 3380   5.672   0.827   2.712  0.4193 -0.2385 -0.6613
 1139TIP3    H1 3381   5.691   0.904   2.766  0.8737 -0.6948 -0.1593
 1139TIP3    H2 3382   5.577   0.817   2.718  0.0472  1.5327 -2.4732
 1140TIP3   OH2 3383   1.608   3.087   1.780  0.1810  0.2616 -0.3765
 1140TIP3    H1 3384   1.613   3.067   1.873 -1.7081 -0.4282 -0.3831
 1140TIP3    H2 3385   1.695   3.066   1.746  0.5467 -0.6039  1.0185
 1141TIP3   OH2 3386   1.171   2.067   1.614 -0.3222 -0.1694 -0.1031
 1141TIP3    H1 3387   1.078   2.046   1.608 -1.0458  1.9508  2.0109
 1141TIP3    H2 3388   1.199   2.032   1.699  0.9493 -1.1430 -0.8885
 1142TIP3   OH2 3389   3.631   2.218   3.758 -0.1534 -0.4581  0.5708
 1142TIP3    H1 3390   3.703   2.275   3.783  1.0282 -2.1983  1.2681
 1142TIP3    H2 3391   3.669   2.156   3.695 -0.9356 -1.5569  1.1354
 1143TIP3   OH2 3392   3.005   0.646   5.653  0.1555 -0.2191  0.3270
 1143TIP3    H1 3393   2.985   0.601   5.735  0.2008  0.6399  0.8254
 1143TIP3    H2 3394   3.032   0.577   5.593 -0.4962 -0.9342  0.8443
 1144TIP3   OH2 3395   3.897   3.112   5.045  0.5841 -0.5397  0.5091
 1144TIP3    H1 3396   3.918   3.152   5.129 -0.2876  0.5473  0.2223
 1144TIP3    H2 3397   3.949   3.161   4.981  1.3557 -1.4565  0.4043
 1145TIP3   OH2 3398   1.727   2.766   3.667  0.3477  0.0025 -0.0073
 1145TIP3    H1 3399   1.687   2.719   3.740  0.2534 -0.2146 -0.1992
 1145TIP3    H2 3400   1.711   2.711   3.590  0.9812 -0.0713 -0.0949
 1146TIP3   OH2 3401   7.221   1.362   0.623  0.1450  0.4579 -0.1249
 1146TIP3    H1 3402   7.135   1.321   0.625  0.6104 -0.5211  0.7399
 1146TIP3    H2 3403   7.253   1.356   0.713  0.6660  1.8215 -0.1875
 1147TIP3   OH2 3404   3.705   2.459   1.900 -0.3895 -0.2274  0.4182
 1147TIP3    H1 3405   3.663   2.456   1.814 -3.0676  1.0743  1.5872
 1147TIP3    H2 3406   3.754   2.542   1.900  0.4242 -0.6890 -0.1452
 1148TIP3   OH2 3407   6.098   4.065   1.845 -0.0281  0.1194 -0.6212
 1148TIP3    H1 3408   6.038   3.992   1.827 -0.7109  0.6424 -0.4889
 1148TIP3    H2 3409   6.072   4.096   1.932  1.5492 -0.7189  0.1984
 1149TIP3   OH2 3410   6.366   4.325   1.378  0.2315 -0.2398 -0.1657
 1149TIP3    H1 3411   6.309   4.259   1.417  1.2670 -1.4869 -0.6996
 1149TIP3    H2 3412   6.351   4.404   1.431 -0.6315 -1.0418  0.8220
 1150TIP3   OH2 3413   1.907   2.562   2.602  0.0568 -0.5769 -0.1896
 1150TIP3    H1 3414   1.817   2.532   2.615  0.5317 -1.3748  1.4794
 1150TIP3    H2 3415   1.934   2.521   2.520 -0.8572 -0.9259 -0.3297
 1151TIP3   OH2 3416   0.897   4.428   2.039 -0.3022  0.4518  0.0074
 1151TIP3    H1 3417   0.940   4.473   2.112 -0.4886 -0.5445  0.7552
 1151TIP3    H2 3418   0.914   4.483   1.963  2.3992  0.0305  0.2409
 1152TIP3   OH2 3419   1.873   6.701   0.561  0.0105 -0.0981  0.2137
 1152TIP3    H1 3420   1.810   6.748   0.507  1.7396  0.4508 -1.4406
 1152TIP3    H2 3421   1.831   6.694   0.647 -1.9626  0.8724 -0.6104
 1153TIP3   OH2 3422   2.088   2.949   3.985 -0.0366 -1.0397  0.2688
 1153TIP3    H1 3423   2.027   2.995   3.928  1.9041 -0.0442 -1.1385
 1153TIP3    H2 3424   2.064   2.857   3.977 -3.2663 -0.5406  2.2287
 1154TIP3   OH2 3425   4.169   3.438   4.032 -0.0198  0.6819  0.2385
 1154TIP3    H1 3426   4.122   3.363   3.996 -1.2003  1.1910  0.6954
 1154TIP3    H2 3427   4.104   3.486   4.082  0.4092  2.6658 -1.0011
 1155TIP3   OH2 3428   6.464   5.710   3.001  0.6058  0.3050 -0.0259
 1155TIP3    H1 3429   6.472   5.796   3.043  1.5319 -0.0575  0.5762
 1155TIP3    H2 3430   6.399   5.664   3.053  0.1463  0.6233 -0.3170
 1156TIP3   OH2 3431   2.589   2.696   4.464 -0.4757 -0.7331  0.3573
 1156TIP3    H1 3432   2.564   2.664   4.378 -0.7981 -0.4889  0.3612
 1156TIP3    H2 3433   2.548   2.635   4.525 -0.7945 -0.5244  0.3544
 1157TIP3   OH2 3434   4.640   3.373   3.066 -0.0409  0.3263  0.2033
 1157TIP3    H1 3435   4.630   3.454   3.016  1.9293  1.4224  1.4503
 1157TIP3    H2 3436   4.722   3.335   3.034 -0.7894 -1.0686 -0.1512
 1158TIP3   OH2 3437   3.500   1.107   5.886 -0.1840  0.4087 -0.7484
 1158TIP3    H1 3438   3.586   1.144   5.869  0.0442  0.0700 -0.3559
 1158TIP3    H2 3439   3.441   1.153   5.825  0.4965 -0.4074 -2.0485
 1159TIP3   OH2 3440   3.322   2.257   4.372  0.1454 -0.3875  0.4051
 1159TIP3    H1 3441   3.231   2.244   4.344  0.3180 -1.1000  0.1528
 1159TIP3    H2 3442   3.335   2.352   4.368 -1.0529 -0.1104  1.9427
 1160TIP3   OH2 3443   3.335   1.675   2.872 -0.0943  0.0436 -0.3921
 1160TIP3    H1 3444   3.345   1.614   2.945 -2.1708 -0.9751 -0.8750
 1160TIP3    H2 3445   3.361   1.624   2.795 -0.5700  0.1990 -0.6581
 1161TIP3   OH2 3446   2.143   0.550   2.487 -0.5700  0.5224 -0.2120
 1161TIP3    H1 3447   2.232   0.533   2.517  0.1990  1.7760 -1.6422
 1161TIP3    H2 3448   2.143   0.643   2.464 -0.6660 -0.3918 -5.0267
 1162TIP3   OH2 3449   5.639   6.650   0.157  0.5330  0.2386  0.0027
 1162TIP3    H1 3450   5.620   6.743   0.142  0.6721  0.0327 -1.6197
 1162TIP3    H2 3451   5.598   6.605   0.083  1.3969 -0.8789  0.1779
 1163TIP3   OH2 3452   4.801   5.027   3.684 -0.1155 -0.4047 -0.0703
 1163TIP3    H1 3453   4.818   5.094   3.750  0.9647 -0.1040 -0.6160
 1163TIP3    H2 3454   4.858   4.954   3.709 -0.6026 -0.7611  0.0056
 1164TIP3   OH2 3455   5.067   1.444   4.445 -0.2106  0.3075  0.0904
 1164TIP3    H1 3456   4.998   1.378   4.451  1.0032 -0.9815  0.3490
 1164TIP3    H2 3457   5.091   1.446   4.352  0.0861  0.0141  0.1578
 1165TIP3   OH2 3458   1.840   2.218   2.438 -0.7448 -0.0972  0.8205
 1165TIP3    H1 3459   1.772   2.182   2.381 -0.9870  2.2615 -0.4894
 1165TIP3    H2 3460   1.863   2.145   2.496 -0.8023 -2.5347 -1.9444
 1166TIP3   OH2 3461   2.152   3.912   4.179 -0.2891 -0.1247  0.0552
 1166TIP3    H1 3462   2.228   3.876   4.223 -0.2972  0.2817  0.4134
 1166TIP3    H2 3463   2.111   3.837   4.135 -1.4685 -0.9768  2.4502
 1167TIP3   OH2 3464   5.475   1.229   5.298 -0.1877  0.4779  0.2575
 1167TIP3    H1 3465   5.519   1.237   5.214  1.0532  0.3304  0.8732
 1167TIP3    H2 3466   5.454   1.319   5.323 -0.9036  0.4968 -0.3652
 1168TIP3   OH2 3467   5.336   1.058   5.466 -0.1494  0.0384  0.7254
 1168TIP3    H1 3468   5.315   1.128   5.528 -1.3106  1.6525 -1.3679
 1168TIP3    H2 3469   5.381   1.102   5.395 -4.6780 -0.2401 -2.8178
 1169TIP3   OH2 3470   3.755   6.453   2.100 -0.0816 -0.7204 -0.1851
 1169TIP3    H1 3471   3.778   6.545   2.089  0.5935 -0.5702  2.0238
 1169TIP3    H2 3472   3.680   6.440   2.042  0.4435  0.9296 -1.3176
 1170TIP3   OH2 3473   0.298   6.683   5.716 -0.5122  0.1526  0.3451
 1170TIP3    H1 3474   0.251   6.749   5.767 -0.8299 -0.8738  1.4399
 1170TIP3    H2 3475   0.323   6.728   5.635  0.4177  1.9769  1.5914
 1171TIP3   OH2 3476   4.579   1.164   2.339 -0.0450 -0.5225  0.2467
 1171TIP3    H1 3477   4.641   1.233   2.362 -0.5864 -0.0885  0.4384
 1171TIP3    H2 3478   4.501   1.211   2.307 -0.8028 -0.9997  1.3326
 1172TIP3   OH2 3479   2.768   1.116   3.425  0.1495  0.1949 -0.0512
 1172TIP3    H1 3480   2.801   1.047   3.367  1.0379  0.5141  0.0541
 1172TIP3    H2 3481   2.769   1.195   3.371  0.7057  0.4376  0.3054
 1173TIP3   OH2 3482   3.953   0.282   2.316  0.0201  0.0621 -0.4136
 1173TIP3    H1 3483   4.036   0.275   2.362  0.8436  2.6960 -1.2895
 1173TIP3    H2 3484   3.895   0.329   2.376 -0.0206  0.4196 -0.7232
 1174TIP3   OH2 3485   3.167   4.955   4.414  0.1517 -0.3571 -0.6769
 1174TIP3    H1 3486   3.148   5.048   4.424 -0.9542 -0.5532 -0.7643
 1174TIP3    H2 3487   3.202   4.927   4.498  1.1773  0.2757 -0.8735
 1175TIP3   OH2 3488   2.441   3.893   0.954  0.0914  0.0596 -0.6846
 1175TIP3    H1 3489   2.404   3.967   0.907  1.7387  0.1457 -1.9331
 1175TIP3    H2 3490   2.365   3.847   0.990 -0.9929  1.9558 -0.4509
 1176TIP3   OH2 3491   2.442   1.722   3.557  0.3922  0.1378  0.5232
 1176TIP3    H1 3492   2.429   1.793   3.620  0.5368  0.0170  0.6899
 1176TIP3    H2 3493   2.421   1.762   3.472 -0.9318 -0.0078  0.7611
 1177TIP3   OH2 3494   0.099   5.713   3.380  0.1888  0.1804  0.3105
 1177TIP3    H1 3495   0.127   5.679   3.295 -1.1959 -2.7348  0.9196
 1177TIP3    H2 3496   0.140   5.800   3.385  2.2770 -0.5167 -2.2649
 1178TIP3   OH2 3497   4.132   4.228   0.486  0.1330  0.0433 -0.2933
 1178TIP3    H1 3498   4.081   4.308   0.485 -0.2564 -0.0513  2.5913
 1178TIP3    H2 3499   4.219   4.254   0.516  0.7364 -0.3288 -1.6147
 1179TIP3   OH2 3500   2.595   4.022   5.343  0.0210 -0.8581 -0.0911
 1179TIP3    H1 3501   2.645   4.039   5.423 -1.3787 -1.0180  0.8407
 1179TIP3    H2 3502   2.662   4.013   5.275  1.2328 -0.5803  1.0218
 1180TIP3   OH2 3503   3.035   4.615   0.872 -0.3208  0.3291 -0.7056
 1180TIP3    H1 3504   3.022   4.572   0.957  0.3126 -0.1385 -0.8357
 1180TIP3    H2 3505   3.059   4.544   0.812  0.8158  0.8463 -0.9043
 1181TIP3   OH2 3506   2.890   1.618   3.206  0.1566 -0.7192 -0.3815
 1181TIP3    H1 3507   2.958   1.684   3.190  0.3471 -0.2876  1.8175
 1181TIP3    H2 3508   2.842   1.612   3.123  1.3840  0.7214 -1.2543
 1182TIP3   OH2 3509   0.311   4.967   4.432  0.6763 -0.4445 -0.4629
 1182TIP3    H1 3510   0.254   5.044   4.437 -0.0597 -1.0674  1.4500
 1182TIP3    H2 3511   0.252   4.895   4.409  0.8539 -0.9116  0.5060
 1183TIP3   OH2 3512   2.020   2.584   0.270  0.8011  0.1256  0.4604
 1183TIP3    H1 3513   1.945   2.524   0.270  1.7404 -1.0942  0.9215
 1183TIP3    H2 3514   2.027   2.613   0.179 -0.6946  0.8830  0.5589
 1184TIP3   OH2 3515   0.824   1.644   0.100 -0.0204 -0.8584 -0.0098
 1184TIP3    H1 3516   0.744   1.614   0.058 -0.4652 -1.0823  0.9534
 1184TIP3    H2 3517   0.882   1.568   0.099  0.1868 -0.6961 -0.7075
 1185TIP3   OH2 3518   7.075   0.969   4.288 -0.0686 -0.2353  0.0984
 1185TIP3    H1 3519   7.001   0.909   4.277 -0.7501  0.9280 -2.6661
 1185TIP3    H2 3520   7.143   0.916   4.329 -0.9568 -2.6416 -1.3307
 1186TIP3   OH2 3521   5.884   1.550   1.303  0.0855  0.1855  0.1720
 1186TIP3    H1 3522   5.929   1.493   1.240  1.8842 -0.1132  1.6194
 1186TIP3    H2 3523   5.873   1.495   1.381  0.0269  1.2009  0.9057
 1187TIP3   OH2 3524   7.110   5.819   4.449  0.1915  0.7908  0.1180
 1187TIP3    H1 3525   7.096   5.735   4.407 -0.1721  1.1743 -0.5464
 1187TIP3    H2 3526   7.025   5.862   4.447  0.2224  0.9022  1.0579
 1188TIP3   OH2 3527   1.760   4.387   4.216  0.2369 -0.2237  0.5509
 1188TIP3    H1 3528   1.845   4.399   4.173 -0.8508 -0.7014 -1.8704
 1188TIP3    H2 3529   1.731   4.475   4.238  0.2713  0.1751 -0.9058
 1189TIP3   OH2 3530   6.076   1.815   5.855 -0.8681 -0.4627 -0.0858
 1189TIP3    H1 3531   6.021   1.817   5.777  0.5316  2.5905 -1.1249
 1189TIP3    H2 3532   6.135   1.740   5.841 -0.8020 -0.1184 -1.8554
 1190TIP3   OH2 3533   7.114   6.418   2.583 -0.1698 -0.2386  0.0640
 1190TIP3    H1 3534   7.168   6.405   2.505 -0.6206 -0.7188 -0.1737
 1190TIP3    H2 3535   7.026   6.390   2.556 -0.7211  1.2444  0.2001
 1191TIP3   OH2 3536   5.329   6.768   0.630 -0.3987 -0.2958 -0.6204
 1191TIP3    H1 3537   5.342   6.849   0.580 -0.8215  0.0797 -0.1330
 1191TIP3    H2 3538   5.394   6.708   0.596 -0.1333  0.2296 -1.0476
 1192TIP3   OH2 3539   6.789   0.718   3.515 -0.1436 -0.6012  0.1116
 1192TIP3    H1 3540   6.811   0.808   3.537  0.4621  0.1835 -3.1024
 1192TIP3    H2 3541   6.746   0.683   3.593  1.0214  1.9321  2.0174
 1193TIP3   OH2 3542   7.191   5.771   5.311 -0.0838  0.3769  0.6138
 1193TIP3    H1 3543   7.180   5.860   5.278 -2.6685  1.1930  3.2014
 1193TIP3    H2 3544   7.138   5.717   5.253  0.4832  0.7123 -0.2294
 1194TIP3   OH2 3545   3.287   4.230   2.181 -0.0323 -0.5819  0.5272
 1194TIP3    H1 3546   3.326   4.144   2.199  0.7277 -0.2390  0.5783
 1194TIP3    H2 3547   3.281   4.234   2.085 -1.6054 -1.3388  0.5635
 1195TIP3   OH2 3548   7.002   5.051   3.844 -0.1802 -0.1154 -0.4709
 1195TIP3    H1 3549   6.930   5.032   3.785 -0.4340 -0.6837  0.0164
 1195TIP3    H2 3550   6.982   5.138   3.879 -0.8690 -0.4641  0.0120
 1196TIP3   OH2 3551   5.146   4.216   4.955 -0.4156 -0.6785  0.1067
 1196TIP3    H1 3552   5.124   4.217   4.862 -1.1734 -0.6613  0.2816
 1196TIP3    H2 3553   5.189   4.132   4.970 -1.1793 -1.0988 -0.0584
 1197TIP3   OH2 3554   5.087   4.780   2.897  0.4839  0.2498  0.4107
 1197TIP3    H1 3555   5.057   4.693   2.925  1.6734 -0.1897  0.3535
 1197TIP3    H2 3556   5.008   4.821   2.860 -0.0316 -0.9048  0.1681
 1198TIP3   OH2 3557   5.161   0.229   5.872  0.1506  0.3491 -0.5185
 1198TIP3    H1 3558   5.101   0.164   5.836  1.1698 -1.6863  1.2957
 1198TIP3    H2 3559   5.170   0.294   5.802  1.0021 -2.6845 -3.4905
 1199TIP3   OH2 3560   6.348   0.652   1.319 -0.4227 -0.6459  0.4155
 1199TIP3    H1 3561   6.381   0.709   1.251 -0.3920 -1.2840 -0.1155
 1199TIP3    H2 3562   6.300   0.710   1.379  0.4753  0.0745  0.4492
 1200TIP3   OH2 3563   5.978   6.356   3.220 -0.0361 -0.0595 -0.3870
 1200TIP3    H1 3564   5.974   6.439   3.267  0.1269 -0.1506 -0.2097
 1200TIP3    H2 3565   5.891   6.345   3.181 -0.5569 -0.5530  0.8754
 1201TIP3   OH2 3566   0.945   6.425   4.758  0.2048  0.6713 -0.1614
 1201TIP3    H1 3567   0.887   6.487   4.714  1.0185  1.6971  0.1679
 1201TIP3    H2 3568   0.911   6.339   4.734 -0.8509  1.2377 -0.7669
 1202TIP3   OH2 3569   1.720   3.949   5.058  0.1163 -0.3129 -0.0112
 1202TIP3    H1 3570   1.801   3.995   5.077  1.0870 -2.4484  1.5168
 1202TIP3    H2 3571   1.692   3.914   5.143 -0.0480 -3.1628 -1.1246
 1203TIP3   OH2 3572   0.300   5.393   3.946 -0.3575  0.4187 -0.5474
 1203TIP3    H1 3573   0.214   5.364   3.978  0.5470 -0.1138  1.5526
 1203TIP3    H2 3574   0.342   5.312   3.915 -0.4539  0.6298 -1.2646
 1204TIP3   OH2 3575   3.916   4.850   5.431 -0.4133  0.2339  0.3980
 1204TIP3    H1 3576   3.999   4.886   5.463 -0.8132  0.7589  0.8455
 1204TIP3    H2 3577   3.849   4.894   5.482 -1.1289  1.5906 -1.5984
 1205TIP3   OH2 3578   0.610   4.706   2.809 -0.1458  0.2553 -0.0386
 1205TIP3    H1 3579   0.534   4.673   2.858  0.0430 -0.2317 -0.0628
 1205TIP3    H2 3580   0.574   4.766   2.745 -0.5942 -0.5024 -0.5155
 1206TIP3   OH2 3581   3.690   1.625   3.463  0.8141 -0.1301 -0.0711
 1206TIP3    H1 3582   3.775   1.601   3.501 -0.0504 -1.4173  1.1445
 1206TIP3    H2 3583   3.697   1.597   3.372  2.2939  1.3841 -0.4758
 1207TIP3   OH2 3584   6.635   5.333   4.211 -0.0208  0.2783 -0.7062
 1207TIP3    H1 3585   6.584   5.412   4.231  0.2687  0.0505  1.1050
 1207TIP3    H2 3586   6.669   5.305   4.296  1.3114 -0.8237 -1.5723
 1208TIP3   OH2 3587   2.722   2.889   1.869 -0.4653 -0.1343  0.0923
 1208TIP3    H1 3588   2.743   2.982   1.871 -2.3395  0.2989  0.9583
 1208TIP3    H2 3589   2.654   2.880   1.803  0.7961 -1.1836 -1.1437
 1209TIP3   OH2 3590   5.537   6.100   3.568  0.1015  0.4214 -0.5346
 1209TIP3    H1 3591   5.589   6.162   3.516  0.5724  1.4378  1.0695
 1209TIP3    H2 3592   5.518   6.147   3.649  0.2294 -1.4381  0.6269
 1210TIP3   OH2 3593   5.035   4.986   0.585 -0.1693 -0.2540  0.4079
 1210TIP3    H1 3594   5.000   5.069   0.617  0.7731 -0.5240  2.2972
 1210TIP3    H2 3595   4.972   4.921   0.615 -1.0679 -0.2364 -1.3361
 1211TIP3   OH2 3596   1.900   5.918   4.582  0.0148  0.2201  0.1819
 1211TIP3    H1 3597   1.920   6.007   4.609 -2.5535  0.3719  1.9896
 1211TIP3    H2 3598   1.825   5.893   4.637 -1.0129 -2.1081 -2.0806
 1212TIP3   OH2 3599   5.704   5.705   0.730  0.2767  0.2803  0.0529
 1212TIP3    H1 3600   5.667   5.630   0.684 -1.3298  0.7092  0.5770
 1212TIP3    H2 3601   5.650   5.779   0.702  1.1066  1.0443  0.4219
 1213TIP3   OH2 3602   0.302   3.824   4.176 -0.3769  0.6736 -0.1423
 1213TIP3    H1 3603   0.217   3.791   4.147 -1.3879  1.0492  2.2289
 1213TIP3    H2 3604   0.354   3.745   4.191 -1.1698  0.3122  0.8240
 1214TIP3   OH2 3605   4.036   1.451   2.983  0.5174 -0.3023  0.2940
 1214TIP3    H1 3606   4.071   1.523   3.036 -1.5348  0.9756  0.0230
 1214TIP3    H2 3607   4.068   1.469   2.895 -1.0029  1.0637 -0.0250
 1215TIP3   OH2 3608   7.054   4.841   5.425  0.2411 -0.0588 -0.1799
 1215TIP3    H1 3609   7.043   4.746   5.434  1.9991 -0.1502  1.8678
 1215TIP3    H2 3610   7.056   4.874   5.515 -0.2597  1.9481 -0.8390
 1216TIP3   OH2 3611   4.667   6.386   3.339  0.3962  0.0856  1.7124
 1216TIP3    H1 3612   4.731   6.327   3.301  1.5315  0.8735  2.3430
 1216TIP3    H2 3613   4.583   6.359   3.302  1.2505 -0.1710 -0.0944
 1217TIP3   OH2 3614   3.461   4.361   0.534 -0.4415  0.1118  0.1223
 1217TIP3    H1 3615   3.380   4.331   0.576 -1.4122  0.4645 -1.4349
 1217TIP3    H2 3616   3.501   4.418   0.599 -0.9548 -0.7867  1.2881
 1218TIP3   OH2 3617   2.841   5.375   3.515  0.0012  0.2157  0.1593
 1218TIP3    H1 3618   2.802   5.405   3.433  3.0725 -0.6889 -1.7700
 1218TIP3    H2 3619   2.856   5.456   3.564 -2.7162  0.7088  0.3796
 1219TIP3   OH2 3620   3.521   3.945   1.667  0.7332 -0.0963 -0.3473
 1219TIP3    H1 3621   3.465   3.983   1.600 -0.6329 -0.8846  0.2998
 1219TIP3    H2 3622   3.609   3.947   1.629  0.0579 -0.1531 -1.9925
 1220TIP3   OH2 3623   6.366   2.848   4.401  0.0988 -0.3790 -0.2167
 1220TIP3    H1 3624   6.392   2.928   4.448  1.2855  0.4571 -2.1508
 1220TIP3    H2 3625   6.440   2.789   4.412  0.5954  0.0033 -1.3746
 1221TIP3   OH2 3626   0.904   5.708   1.016  0.2651  0.0737  0.1663
 1221TIP3    H1 3627   0.919   5.795   0.981 -0.3637 -0.0504 -0.4235
 1221TIP3    H2 3628   0.981   5.690   1.070  1.2357  0.2923 -1.1114
 1222TIP3   OH2 3629   4.464   5.400   5.657 -0.5730 -0.1769 -0.7465
 1222TIP3    H1 3630   4.526   5.455   5.609 -0.0071  0.6685  0.8586
 1222TIP3    H2 3631   4.499   5.312   5.651  0.7648  0.2751  0.0579
 1223TIP3   OH2 3632   0.081   6.091   1.312  0.1387 -0.1701  0.4577
 1223TIP3    H1 3633   0.035   6.165   1.272  0.7613 -0.3185 -0.5631
 1223TIP3    H2 3634   0.029   6.070   1.390 -1.6054 -0.4304 -0.7288
 1224TIP3   OH2 3635   3.142   1.385   0.627  0.4265  0.1199  0.1555
 1224TIP3    H1 3636   3.075   1.439   0.670  1.0621 -0.1769  1.5919
 1224TIP3    H2 3637   3.191   1.346   0.699  0.9675 -1.1583 -0.8682
 1225TIP3   OH2 3638   0.752   2.555   2.976  0.3487  0.5533 -0.2669
 1225TIP3    H1 3639   0.657   2.552   2.962  0.1908  0.0684  0.8048
 1225TIP3    H2 3640   0.762   2.569   3.070  1.3210 -1.3227 -0.0408
 1226TIP3   OH2 3641   2.819   3.865   3.894 -0.1627 -0.0599 -0.0224
 1226TIP3    H1 3642   2.741   3.820   3.927  1.8278 -1.9577  2.5140
 1226TIP3    H2 3643   2.880   3.794   3.873  2.4008  1.3301  2.2054
 1227TIP3   OH2 3644   5.922   4.182   3.881 -0.2913  0.1182 -0.0377
 1227TIP3    H1 3645   5.978   4.141   3.947  0.6735 -0.4383 -1.1814
 1227TIP3    H2 3646   5.834   4.179   3.920  0.0496 -1.3756  0.6872
 1228TIP3   OH2 3647   5.912   5.545   1.173 -0.1604 -0.6943  0.4317
 1228TIP3    H1 3648   5.902   5.451   1.186 -0.5814 -0.6302  0.6156
 1228TIP3    H2 3649   5.838   5.569   1.117 -0.1946 -0.4371  0.5850
 1229TIP3   OH2 3650   4.345   6.267   2.499 -0.3609 -0.1173  0.3039
 1229TIP3    H1 3651   4.290   6.260   2.421  0.6159  2.1164 -0.6654
 1229TIP3    H2 3652   4.429   6.228   2.474 -0.7858 -1.6644  1.1204
 1230TIP3   OH2 3653   1.569   0.450   3.238  0.0742  0.5298 -0.4111
 1230TIP3    H1 3654   1.513   0.372   3.237 -0.7644  1.0787  0.8963
 1230TIP3    H2 3655   1.531   0.509   3.174 -0.6223  0.7319  0.1764
 1231TIP3   OH2 3656   4.181   1.148   4.601 -0.2446  0.3511 -0.1365
 1231TIP3    H1 3657   4.219   1.076   4.652 -0.0575  0.7077  0.2320
 1231TIP3    H2 3658   4.214   1.227   4.643  1.7592  0.6723 -2.1516
 1232TIP3   OH2 3659   5.042   0.154   2.089 -0.1456 -0.0072 -0.4038
 1232TIP3    H1 3660   5.119   0.117   2.045  0.2287  0.8294 -0.4769
 1232TIP3    H2 3661   4.987   0.187   2.019 -0.4037 -0.2715 -0.3301
 1233TIP3   OH2 3662   3.608   6.762   0.416  0.1870  0.2259 -0.2262
 1233TIP3    H1 3663   3.573   6.744   0.503 -0.0284  1.3423 -0.0584
 1233TIP3    H2 3664   3.586   6.685   0.364  0.5476 -0.5594  0.7727
 1234TIP3   OH2 3665   4.066   5.227   5.868  0.4940 -0.0851  0.6528
 1234TIP3    H1 3666   4.037   5.283   5.797  1.4473  0.7135  0.8621
 1234TIP3    H2 3667   4.152   5.195   5.840  1.0553  0.5566  1.6020
 1235TIP3   OH2 3668   3.204   5.588   2.456 -0.3597 -0.5217  0.0470
 1235TIP3    H1 3669   3.277   5.632   2.499 -0.8150 -1.1543  1.5340
 1235TIP3    H2 3670   3.161   5.657   2.404  0.3179  0.2214  0.4657
 1236TIP3   OH2 3671   5.793   0.169   5.643  0.6106 -0.3204  0.4118
 1236TIP3    H1 3672   5.822   0.178   5.553  0.2998 -0.9485  0.2368
 1236TIP3    H2 3673   5.858   0.216   5.695 -0.0612  1.4276 -0.2603
 1237TIP3   OH2 3674   2.999   6.395   5.171  0.2512  0.2193 -0.1417
 1237TIP3    H1 3675   2.945   6.330   5.216 -0.2245  0.3653 -0.4927
 1237TIP3    H2 3676   2.955   6.478   5.186  0.3356  0.3304 -0.4938
 1238TIP3   OH2 3677   1.228   5.344   1.463  0.2696 -0.1586 -0.2888
 1238TIP3    H1 3678   1.245   5.358   1.370  0.6523 -0.2591 -0.2330
 1238TIP3    H2 3679   1.139   5.377   1.475  0.1514 -0.3025 -0.7251
 1239TIP3   OH2 3680   6.329   3.970   2.025 -0.0218 -0.3398 -0.9175
 1239TIP3    H1 3681   6.398   4.037   2.031 -0.6343  0.3311 -1.2194
 1239TIP3    H2 3682   6.252   4.018   1.995 -1.5253 -0.4210  2.3715
 1240TIP3   OH2 3683   5.628   5.389   4.329 -0.5851  0.0198  0.2315
 1240TIP3    H1 3684   5.705   5.424   4.284 -1.6268  1.0187 -0.8567
 1240TIP3    H2 3685   5.592   5.325   4.267 -1.4924  0.7087  0.0186
 1241TIP3   OH2 3686   2.170   4.853   2.425 -0.2504  0.4852  0.0257
 1241TIP3    H1 3687   2.136   4.942   2.417 -0.3691  0.3943 -0.5073
 1241TIP3    H2 3688   2.244   4.861   2.486  0.5786  1.1908 -1.0277
 1242TIP3   OH2 3689   0.057   4.630   1.550 -0.1151 -0.5784 -0.0619
 1242TIP3    H1 3690   0.077   4.717   1.514 -2.2198 -0.2517 -0.6045
 1242TIP3    H2 3691   0.036   4.647   1.642 -0.9619 -0.4166 -0.2750
 1243TIP3   OH2 3692   6.452   4.383   4.856 -0.3113 -0.1668 -0.7756
 1243TIP3    H1 3693   6.532   4.361   4.905 -0.5140  0.2129 -0.2663
 1243TIP3    H2 3694   6.474   4.464   4.810 -0.9016  0.8315  0.6258
 1244TIP3   OH2 3695   6.545   3.071   2.984  0.3831  0.2566 -0.4176
 1244TIP3    H1 3696   6.462   3.025   2.972  0.6538 -0.5639  0.7288
 1244TIP3    H2 3697   6.525   3.162   2.962 -0.5437 -0.1114 -1.1973
 1245TIP3   OH2 3698   1.102   4.416   1.727  0.1369 -0.1670  0.0221
 1245TIP3    H1 3699   1.031   4.479   1.736  0.4418  0.1380  0.3237
 1245TIP3    H2 3700   1.154   4.449   1.654  0.3814  0.0169  0.2777
 1246TIP3   OH2 3701   4.332   1.370   4.701  0.3195 -0.1924  0.2037
 1246TIP3    H1 3702   4.298   1.350   4.788  1.3462 -0.0222  0.6644
 1246TIP3    H2 3703   4.388   1.447   4.715  1.3871 -0.8479 -0.3908
 1247TIP3   OH2 3704   1.457   2.748   2.387  0.2159  0.7245 -0.7294
 1247TIP3    H1 3705   1.483   2.790   2.468 -1.6339 -1.2228  1.0016
 1247TIP3    H2 3706   1.534   2.698   2.360  0.4194  0.2660  0.6277
 1248TIP3   OH2 3707   1.725   5.937   5.077  0.5962 -0.0454  0.0683
 1248TIP3    H1 3708   1.705   5.960   5.168  1.1780 -0.9732  0.4414
 1248TIP3    H2 3709   1.689   5.849   5.066  1.7024 -0.4783 -0.1880
 1249TIP3   OH2 3710  -0.013   1.909   4.305 -0.2731 -0.1703 -0.5738
 1249TIP3    H1 3711   0.020   1.953   4.227  1.9384 -0.1161  0.3322
 1249TIP3    H2 3712   0.059   1.913   4.367 -1.0071 -2.6044  0.5352
 1250TIP3   OH2 3713   5.473   0.437   3.336  0.3475 -0.0622 -0.6076
 1250TIP3    H1 3714   5.539   0.384   3.293 -0.1597 -1.4773  0.2821
 1250TIP3    H2 3715   5.513   0.464   3.419  0.1255 -0.2193 -0.4448
 1251TIP3   OH2 3716   4.982   1.473   5.617  0.1032 -0.1035  0.4423
 1251TIP3    H1 3717   4.937   1.446   5.537  0.8021  2.3365 -0.9066
 1251TIP3    H2 3718   5.014   1.392   5.656 -0.7462 -1.4308 -1.4663
 1252TIP3   OH2 3719   5.347   5.786   1.773  0.0764  0.2502  0.7092
 1252TIP3    H1 3720   5.253   5.774   1.756  0.0903  0.0091  0.8047
 1252TIP3    H2 3721   5.360   5.880   1.764  0.1039  0.1264 -0.6740
 1253TIP3   OH2 3722   0.860   0.125   1.811  0.5018  0.2881  0.0771
 1253TIP3    H1 3723   0.938   0.117   1.867  0.6134 -0.8664 -0.2193
 1253TIP3    H2 3724   0.791   0.154   1.871  1.1678  1.4548  0.3217
 1254TIP3   OH2 3725   2.379   5.323   0.492  0.5595 -0.1131 -0.7263
 1254TIP3    H1 3726   2.316   5.368   0.548  2.4370 -0.1187  1.5198
 1254TIP3    H2 3727   2.387   5.235   0.530  0.2634 -0.8929 -2.3641
 1255TIP3   OH2 3728   0.061   5.625   4.123  0.0715  0.2814 -0.5682
 1255TIP3    H1 3729   0.056   5.683   4.047 -2.3064 -0.4890 -1.0771
 1255TIP3    H2 3730   0.149   5.587   4.119  0.0819  0.4311 -2.8254
 1256TIP3   OH2 3731   5.807   5.686   3.881 -0.1733 -0.4059 -0.2704
 1256TIP3    H1 3732   5.722   5.645   3.901  0.5309 -1.4301  0.7643
 1256TIP3    H2 3733   5.811   5.762   3.938 -0.1073 -0.7490  0.1876
 1257TIP3   OH2 3734   4.831   4.744   1.532 -0.0335 -0.8131  0.1129
 1257TIP3    H1 3735   4.818   4.788   1.616 -1.0881 -2.3397  0.7774
 1257TIP3    H2 3736   4.796   4.656   1.545 -0.5898 -0.9610 -2.0573
 1258TIP3   OH2 3737   5.002   0.395   5.308  0.6865 -0.0103 -0.3185
 1258TIP3    H1 3738   4.978   0.366   5.396 -1.6402  1.8790 -0.2341
 1258TIP3    H2 3739   4.919   0.410   5.264  1.8007  0.1085 -2.5373
 1259TIP3   OH2 3740   3.249   2.103   5.352 -0.3517 -0.5196 -0.1801
 1259TIP3    H1 3741   3.239   2.194   5.381 -0.2800 -0.6079  0.1188
 1259TIP3    H2 3742   3.322   2.068   5.404 -0.9020 -0.9897  0.2895
 1260TIP3   OH2 3743   3.838   5.034   2.615 -0.4924 -0.5048 -0.0267
 1260TIP3    H1 3744   3.840   4.959   2.674 -2.4890 -0.6719 -0.1084
 1260TIP3    H2 3745   3.815   5.109   2.670 -1.0399 -0.4245 -0.3486
 1261TIP3   OH2 3746   4.557   0.366   1.778 -0.6799 -0.0773  0.0135
 1261TIP3    H1 3747   4.581   0.384   1.687  1.6355  0.5139  0.6685
 1261TIP3    H2 3748   4.495   0.293   1.773  0.2745 -0.8136 -1.9661
 1262TIP3   OH2 3749   0.444   4.210   4.468  0.2881 -0.7034 -0.1074
 1262TIP3    H1 3750   0.539   4.203   4.455  0.4817  2.3751 -1.3095
 1262TIP3    H2 3751   0.434   4.274   4.538 -0.8675  0.1772 -1.0341
 1263TIP3   OH2 3752   0.137   6.375   2.850 -0.1615  0.9254  0.6522
 1263TIP3    H1 3753   0.082   6.441   2.809 -0.1442  0.4489 -0.1640
 1263TIP3    H2 3754   0.091   6.292   2.833 -1.5630  0.8982  3.8648
 1264TIP3   OH2 3755   5.921   2.852   2.677  0.1484 -0.4135  0.0703
 1264TIP3    H1 3756   5.973   2.852   2.597 -2.9357  0.1626 -2.0910
 1264TIP3    H2 3757   5.917   2.943   2.704  2.8410 -0.8095  2.1842
 1265TIP3   OH2 3758   0.435   0.962   3.715  0.4605 -0.5800  0.0615
 1265TIP3    H1 3759   0.512   0.912   3.688  0.4041 -0.2917 -0.6596
 1265TIP3    H2 3760   0.419   1.023   3.643  0.0014 -0.1242  0.5343
 1266TIP3   OH2 3761   5.705   6.683   4.732  0.2122  0.1261 -0.3240
 1266TIP3    H1 3762   5.613   6.686   4.759  0.2319  0.6526 -0.2904
 1266TIP3    H2 3763   5.743   6.613   4.786  0.4220  1.6573  1.6586
 1267TIP3   OH2 3764   3.815   2.922   3.385 -0.0661  0.0743  0.0890
 1267TIP3    H1 3765   3.862   3.002   3.364 -0.6603  0.3540 -0.2154
 1267TIP3    H2 3766   3.754   2.910   3.312  3.3767 -3.4135 -2.6169
 1268TIP3   OH2 3767   6.149   2.578   2.546  0.3257  0.3192  0.4378
 1268TIP3    H1 3768   6.217   2.512   2.558  0.2695  0.2026  0.1238
 1268TIP3    H2 3769   6.115   2.593   2.634  1.0742  0.7249  0.6570
 1269TIP3   OH2 3770   2.786   1.434   0.959  0.3869 -0.6214  0.1826
 1269TIP3    H1 3771   2.739   1.435   1.043  0.9455  0.4533  0.5044
 1269TIP3    H2 3772   2.717   1.429   0.893 -0.1892  0.4892  0.6631
 1270TIP3   OH2 3773   2.189   0.626   4.960  0.0910 -0.0903  0.1589
 1270TIP3    H1 3774   2.171   0.720   4.963  0.0928 -0.1079  2.3413
 1270TIP3    H2 3775   2.155   0.598   4.874 -0.5214  1.7622 -0.2561
 1271TIP3   OH2 3776   4.980   0.358   3.586 -0.0530 -0.6127 -0.1653
 1271TIP3    H1 3777   4.962   0.344   3.680 -2.9739  1.1415 -0.3270
 1271TIP3    H2 3778   4.931   0.288   3.542 -0.7743  0.0227 -0.4055
 1272TIP3   OH2 3779   1.236   0.240   4.210 -0.1739  1.0743  0.3386
 1272TIP3    H1 3780   1.298   0.257   4.281 -2.8843  0.7614  3.0267
 1272TIP3    H2 3781   1.163   0.300   4.228 -2.6371 -1.6290  0.1933
 1273TIP3   OH2 3782   1.476   6.295   0.130 -0.5518  0.3432 -0.1515
 1273TIP3    H1 3783   1.532   6.218   0.123  0.4645  0.9140  1.1532
 1273TIP3    H2 3784   1.445   6.295   0.221 -3.1679 -0.2362 -0.9568
 1274TIP3   OH2 3785   6.846   5.013   5.359  0.4720 -0.2506  0.0218
 1274TIP3    H1 3786   6.878   5.076   5.423  1.0570  0.2601 -0.7482
 1274TIP3    H2 3787   6.912   4.943   5.360  0.1070 -0.5921  0.4843
 1275TIP3   OH2 3788   0.258   4.695   3.784 -0.3873 -0.0257  0.1744
 1275TIP3    H1 3789   0.333   4.745   3.814  1.1202  0.0115 -3.2152
 1275TIP3    H2 3790   0.270   4.608   3.821  0.6494  0.3216  0.6684
 1276TIP3   OH2 3791   3.375   4.483   1.954  0.3993 -0.5171  0.4224
 1276TIP3    H1 3792   3.365   4.577   1.970  0.5084 -0.5611  0.7750
 1276TIP3    H2 3793   3.293   4.455   1.915 -0.9634 -0.8954  3.2948
 1277TIP3   OH2 3794   4.373   0.144   1.740 -0.4132 -0.4644 -0.3137
 1277TIP3    H1 3795   4.331   0.137   1.825 -1.7001 -4.8634 -1.0509
 1277TIP3    H2 3796   4.457   0.099   1.750 -0.6884 -1.2595 -1.3903
 1278TIP3   OH2 3797   4.970   3.992   0.247  0.4737 -0.1573  0.3612
 1278TIP3    H1 3798   5.051   3.964   0.290  0.7623  0.4148  0.2172
 1278TIP3    H2 3799   4.922   4.041   0.314  0.2433 -0.5011  0.4479
 1279TIP3   OH2 3800   6.294   3.309   5.315 -0.2447 -0.6372 -0.1733
 1279TIP3    H1 3801   6.364   3.245   5.328  0.3265  0.1663  0.8639
 1279TIP3    H2 3802   6.218   3.268   5.356  0.1672 -0.5860  0.6697
 1280TIP3   OH2 3803   5.937   1.861   4.589  0.0317 -0.6548  0.3133
 1280TIP3    H1 3804   5.915   1.905   4.507  1.8169 -2.1543 -1.0591
 1280TIP3    H2 3805   5.945   1.932   4.653  3.0621  1.1576 -1.8421
 1281TIP3   OH2 3806   0.372   2.231   0.739 -0.1876  0.3334  0.3649
 1281TIP3    H1 3807   0.328   2.288   0.677 -0.1210 -0.8579 -0.8340
 1281TIP3    H2 3808   0.360   2.143   0.703  2.3456 -0.1350  0.4589
 1282TIP3   OH2 3809   4.731   6.664   3.867  0.8217 -0.2841  0.1619
 1282TIP3    H1 3810   4.707   6.699   3.782 -2.1922 -0.5946  0.7749
 1282TIP3    H2 3811   4.740   6.570   3.853  0.3116 -0.3370  0.1749
 1283TIP3   OH2 3812   0.664   1.868   1.714 -0.1582 -0.2071 -0.7591
 1283TIP3    H1 3813   0.599   1.800   1.731  0.9694 -1.1880 -0.2016
 1283TIP3    H2 3814   0.711   1.837   1.637  0.8078 -0.4226 -0.0988
 1284TIP3   OH2 3815   1.697   4.049   4.462  0.2585 -0.2855 -0.0705
 1284TIP3    H1 3816   1.789   4.034   4.441  0.2655 -0.4560  0.0791
 1284TIP3    H2 3817   1.657   3.962   4.460  0.2549 -0.3076  0.5892
 1285TIP3   OH2 3818   2.437   4.182   2.290  0.2902 -0.1674  0.2953
 1285TIP3    H1 3819   2.510   4.145   2.241  1.2459 -1.4815  2.5285
 1285TIP3    H2 3820   2.365   4.186   2.228  2.3217  1.6634 -2.1516
 1286TIP3   OH2 3821   4.599   0.486   0.890  0.3347  0.2828 -0.5855
 1286TIP3    H1 3822   4.650   0.425   0.837  1.7038  0.5231  0.4093
 1286TIP3    H2 3823   4.662   0.551   0.920 -0.1818 -0.2802  1.9592
 1287TIP3   OH2 3824   2.815   2.462   4.323  0.3434  1.1075  0.3396
 1287TIP3    H1 3825   2.767   2.432   4.246 -0.3402 -0.4903  1.3194
 1287TIP3    H2 3826   2.803   2.556   4.324 -1.1839  0.9497 -0.5119
 1288TIP3   OH2 3827   3.935   2.960   2.803  0.0664 -0.4615 -0.5693
 1288TIP3    H1 3828   3.863   3.014   2.769  0.4653 -0.6714 -1.8257
 1288TIP3    H2 3829   4.009   3.021   2.811  0.0825 -0.4964 -0.4522
 1289TIP3   OH2 3830   5.354   0.662   5.230  0.0114  0.3206 -0.4466
 1289TIP3    H1 3831   5.297   0.700   5.297 -1.6982 -3.1023  0.2487
 1289TIP3    H2 3832   5.295   0.637   5.159  1.4961  1.6859 -2.2623
 1290TIP3   OH2 3833   0.144   6.655   2.318  0.0746  0.3519 -0.6232
 1290TIP3    H1 3834   0.083   6.689   2.383  2.4235  2.1498  0.8073
 1290TIP3    H2 3835   0.132   6.712   2.242  0.7417  1.4550  0.0785
 1291TIP3   OH2 3836   4.138   5.117   4.552 -0.1224 -0.4281 -0.2312
 1291TIP3    H1 3837   4.193   5.150   4.481 -2.8799  0.3507 -2.1821
 1291TIP3    H2 3838   4.104   5.196   4.595 -0.9286 -0.8383 -0.0942
 1292TIP3   OH2 3839   7.108   5.788   0.116  0.2917  0.2319 -0.0576
 1292TIP3    H1 3840   7.091   5.872   0.073  0.5605 -0.3465 -1.3409
 1292TIP3    H2 3841   7.161   5.739   0.053 -1.8244 -1.7959 -0.3890
 1293TIP3   OH2 3842   4.425   2.237   2.376 -0.3203 -0.0697  0.2317
 1293TIP3    H1 3843   4.481   2.261   2.450 -0.7659 -0.1362  0.5939
 1293TIP3    H2 3844   4.429   2.313   2.318  0.4971 -0.2495  0.0365
 1294TIP3   OH2 3845   5.646   4.178   3.934 -0.1546 -0.3255  0.0315
 1294TIP3    H1 3846   5.573   4.128   3.970 -0.4585  0.9460  1.2609
 1294TIP3    H2 3847   5.604   4.247   3.883  0.2541 -0.8813 -1.0988
 1295TIP3   OH2 3848   6.988   2.156   0.645  0.5995 -0.0058 -0.0657
 1295TIP3    H1 3849   6.968   2.244   0.613 -1.7873 -0.5100 -0.1507
 1295TIP3    H2 3850   7.050   2.169   0.716  2.6876  1.4760 -2.0119
 1296TIP3   OH2 3851   1.444   5.208   2.339  0.0041  0.6486 -0.2087
 1296TIP3    H1 3852   1.495   5.128   2.333 -0.4190  0.4021 -0.6776
 1296TIP3    H2 3853   1.460   5.241   2.427  0.6960  0.3982 -0.2383
 1297TIP3   OH2 3854   1.868   2.073   1.038  0.0885  0.1338 -0.1639
 1297TIP3    H1 3855   1.845   2.058   0.946  0.6815  1.6974 -0.6022
 1297TIP3    H2 3856   1.960   2.049   1.044  0.8577  2.6840 -0.7135
 1298TIP3   OH2 3857   0.945   2.947   0.453  0.1427  0.3294 -0.9338
 1298TIP3    H1 3858   0.899   2.929   0.535  0.7818  2.4729 -0.0475
 1298TIP3    H2 3859   0.983   2.862   0.428  0.0229 -0.3487  1.0210
 1299TIP3   OH2 3860   1.062   3.657   2.705 -0.6184  0.4838 -0.7187
 1299TIP3    H1 3861   1.022   3.580   2.666 -1.2076  0.3252  0.1872
 1299TIP3    H2 3862   1.127   3.622   2.767  0.7454  0.7330 -1.9427
 1300TIP3   OH2 3863   0.636   3.463   3.169 -0.0960 -0.5348  0.5082
 1300TIP3    H1 3864   0.562   3.414   3.133 -0.6862  0.4352  0.3344
 1300TIP3    H2 3865   0.609   3.555   3.160  0.2346 -0.2237  2.3810
 1301TIP3   OH2 3866   1.341   1.434   5.533  0.2390  0.6438  0.1829
 1301TIP3    H1 3867   1.257   1.477   5.551 -0.6879 -0.8849 -0.2359
 1301TIP3    H2 3868   1.320   1.371   5.464  1.1120 -1.6021  1.8294
 1302TIP3   OH2 3869   6.778   0.967   1.544  0.2712 -0.3414  0.6297
 1302TIP3    H1 3870   6.762   0.960   1.450  0.1013 -0.9230  0.7014
 1302TIP3    H2 3871   6.836   0.894   1.565 -1.0079 -1.2106  1.2661
 1303TIP3   OH2 3872   5.818   2.527   5.277 -0.5388  0.0096  0.3331
 1303TIP3    H1 3873   5.767   2.446   5.285  0.7644 -0.7135  2.1302
 1303TIP3    H2 3874   5.906   2.497   5.254 -0.2449  1.0075  0.1211
 1304TIP3   OH2 3875   0.658   0.443   5.774  0.2750 -0.0346  0.7265
 1304TIP3    H1 3876   0.602   0.462   5.700  0.5445 -1.2929  0.1732
 1304TIP3    H2 3877   0.669   0.348   5.772  0.9671  0.0027  1.8795
 1305TIP3   OH2 3878   3.827   4.957   1.109 -0.1358  0.4397  0.0512
 1305TIP3    H1 3879   3.760   4.922   1.168 -0.7016 -1.9904 -1.8547
 1305TIP3    H2 3880   3.777   4.996   1.037  0.4678  0.2034 -0.5097
 1306TIP3   OH2 3881   5.564   3.161   4.689 -0.5055  0.2217 -0.3033
 1306TIP3    H1 3882   5.483   3.154   4.739 -0.8807  1.0273 -0.7838
 1306TIP3    H2 3883   5.617   3.224   4.739  0.2097 -0.9704  0.4959
 1307TIP3   OH2 3884   5.756   1.012   4.861  0.4253  0.0172 -0.6719
 1307TIP3    H1 3885   5.840   0.979   4.829  0.5060  0.3905 -0.8553
 1307TIP3    H2 3886   5.769   1.106   4.869  0.1306  0.0346 -0.3646
 1308TIP3   OH2 3887   0.188   5.591   2.641 -0.0973 -0.5799 -0.0861
 1308TIP3    H1 3888   0.214   5.577   2.550  1.5550 -0.4312  0.3401
 1308TIP3    H2 3889   0.244   5.532   2.692 -1.6631 -1.3856  0.7964
 1309TIP3   OH2 3890   6.947   6.398   3.067 -0.0866 -0.0918  1.3303
 1309TIP3    H1 3891   6.963   6.387   2.973 -0.5980 -0.5467  1.2914
 1309TIP3    H2 3892   6.935   6.492   3.079  0.6586  0.0494  1.0567
 1310TIP3   OH2 3893   6.938   0.955   3.470  0.3001  0.5364 -0.3136
 1310TIP3    H1 3894   6.918   1.036   3.517 -2.0670 -0.3257  0.2922
 1310TIP3    H2 3895   6.903   0.969   3.383 -0.4603  0.0407 -0.0936
 1311TIP3   OH2 3896   1.436   5.358   0.521 -0.4703  0.1842  0.2782
 1311TIP3    H1 3897   1.384   5.427   0.483  1.4346  1.6704  0.2070
 1311TIP3    H2 3898   1.468   5.307   0.446  0.9848  1.4072  0.0232
 1312TIP3   OH2 3899   2.546   2.109   4.330  0.4227  0.6091 -0.3820
 1312TIP3    H1 3900   2.554   2.015   4.346 -0.7584  0.6719  0.7607
 1312TIP3    H2 3901   2.622   2.147   4.374  1.2377  0.1638 -1.3609
 1313TIP3   OH2 3902   4.240   6.764   0.068 -0.1747  0.4741 -0.0647
 1313TIP3    H1 3903   4.197   6.726   0.145 -0.7324 -1.1862 -1.1291
 1313TIP3    H2 3904   4.168   6.786   0.009  0.2354  1.9510 -0.0504
 1314TIP3   OH2 3905   5.371   2.805   2.246 -0.9137  0.1825 -0.3918
 1314TIP3    H1 3906   5.378   2.860   2.167  0.0219 -0.7916 -1.0155
 1314TIP3    H2 3907   5.357   2.867   2.317  1.3137  1.3802 -0.9007
 1315TIP3   OH2 3908   6.935   1.884   2.560  0.2069  0.1050  0.2529
 1315TIP3    H1 3909   6.942   1.794   2.591 -2.0127 -0.0142  0.5971
 1315TIP3    H2 3910   6.927   1.937   2.640 -1.9602  0.1755  0.0604
 1316TIP3   OH2 3911   4.093   3.247   4.260 -0.5316  0.7523  0.2347
 1316TIP3    H1 3912   4.111   3.274   4.170 -2.3170  1.0492 -0.0795
 1316TIP3    H2 3913   4.007   3.207   4.256 -1.6663  2.7483  2.1247
 1317TIP3   OH2 3914   2.460   6.336   1.146 -0.2351 -0.0483  0.2273
 1317TIP3    H1 3915   2.483   6.264   1.088  1.7026  1.2477 -0.7351
 1317TIP3    H2 3916   2.544   6.367   1.181 -1.2188  0.0629  2.7586
 1318TIP3   OH2 3917   3.122   5.933   5.541 -0.4988 -0.0302  0.2962
 1318TIP3    H1 3918   3.126   5.942   5.445  1.8118 -1.3641  0.1969
 1318TIP3    H2 3919   3.206   5.966   5.571 -1.4589  1.0045  1.9887
 1319TIP3   OH2 3920   1.744   4.854   1.955 -0.3175 -0.3292 -0.0086
 1319TIP3    H1 3921   1.822   4.879   2.005 -1.5749 -0.6312  2.2614
 1319TIP3    H2 3922   1.697   4.795   2.013 -1.3963 -1.5803 -2.0414
 1320TIP3   OH2 3923   7.138   1.089   1.528  0.1094 -0.2226  0.0330
 1320TIP3    H1 3924   7.141   1.183   1.511  0.8584 -0.2164  0.1954
 1320TIP3    H2 3925   7.082   1.055   1.458 -0.1010  0.3274 -0.0763
 1321TIP3   OH2 3926   0.082   0.542   0.116  0.6209 -0.1108 -0.0579
 1321TIP3    H1 3927   0.074   0.637   0.119  1.3081 -0.0644  1.3062
 1321TIP3    H2 3928   0.156   0.523   0.174  0.6074 -1.4647 -0.4557
 1322TIP3   OH2 3929   4.412   3.004   5.175 -0.4270  0.2411  0.1293
 1322TIP3    H1 3930   4.356   2.965   5.243  0.3348  0.6774  1.0228
 1322TIP3    H2 3931   4.440   3.087   5.212 -0.1815  0.5934 -0.8299
 1323TIP3   OH2 3932   2.962   5.865   5.278  0.3110  0.3049 -0.2950
 1323TIP3    H1 3933   2.919   5.875   5.193  0.8484 -0.6139 -0.6908
 1323TIP3    H2 3934   2.935   5.779   5.309  0.6421  0.3639  0.1660
 1324TIP3   OH2 3935   3.670   0.477   5.617 -0.8564  0.1249 -0.1830
 1324TIP3    H1 3936   3.663   0.565   5.652 -0.7311  0.1622 -0.2502
 1324TIP3    H2 3937   3.598   0.429   5.657 -0.4133  0.0323  0.5211
 1325TIP3   OH2 3938   3.715   4.284   5.409  0.1863 -0.0147 -0.2791
 1325TIP3    H1 3939   3.683   4.351   5.470  0.8035 -1.1007  1.2786
 1325TIP3    H2 3940   3.678   4.310   5.325  0.8374  2.6131  0.1347
 1326TIP3   OH2 3941   3.216   1.086   0.383 -0.1367 -0.2720  0.7989
 1326TIP3    H1 3942   3.268   1.116   0.457 -0.6346 -0.5233  1.2490
 1326TIP3    H2 3943   3.160   1.017   0.418 -1.5537  0.7043  0.5754
 1327TIP3   OH2 3944   4.754   6.063   2.071 -0.1931  0.0112 -0.7015
 1327TIP3    H1 3945   4.814   6.055   2.145 -1.3231 -0.9543  0.1484
 1327TIP3    H2 3946   4.668   6.043   2.107 -0.6471 -1.6093 -2.4964
 1328TIP3   OH2 3947   4.798   2.563   2.099  0.2994 -0.7571  0.0826
 1328TIP3    H1 3948   4.811   2.529   2.188 -0.7158 -1.2299  0.0538
 1328TIP3    H2 3949   4.781   2.486   2.046 -0.3424 -0.3623 -0.2931
 1329TIP3   OH2 3950   2.554   3.959   1.440 -0.2909  0.1408 -0.8350
 1329TIP3    H1 3951   2.465   3.926   1.452  0.1716 -0.5428  1.1237
 1329TIP3    H2 3952   2.585   3.974   1.529  1.6995 -0.0120 -1.4665
 1330TIP3   OH2 3953   5.353   2.987   2.477  0.3379 -0.5978 -0.6292
 1330TIP3    H1 3954   5.300   3.066   2.463  0.6171  0.1690  2.0824
 1330TIP3    H2 3955   5.440   3.021   2.501  0.8466 -1.7764 -0.7430
 1331TIP3   OH2 3956   2.733   1.198   5.590 -0.3702 -0.2908  0.1867
 1331TIP3    H1 3957   2.820   1.186   5.551 -0.2142  0.7232  0.1858
 1331TIP3    H2 3958   2.726   1.293   5.602 -1.5698 -0.3447 -0.0210
 1332TIP3   OH2 3959   1.510   3.685   5.645  0.3037  0.4033  0.7400
 1332TIP3    H1 3960   1.558   3.755   5.600 -0.1640  0.0804 -0.2954
 1332TIP3    H2 3961   1.439   3.663   5.585  0.0616 -0.5168  1.3475
 1333TIP3   OH2 3962   1.396   2.614   3.592  0.0439  0.4015  0.0192
 1333TIP3    H1 3963   1.335   2.633   3.521  0.0490  1.9827  0.4021
 1333TIP3    H2 3964   1.347   2.633   3.672  0.5653  0.2483  0.3811
 1334TIP3   OH2 3965   2.085   4.003   3.720  0.0703 -0.4110  0.2172
 1334TIP3    H1 3966   2.101   3.964   3.634  0.5505 -1.6390  0.8565
 1334TIP3    H2 3967   2.078   3.929   3.780 -2.7966  0.2533  0.8758
 1335TIP3   OH2 3968   5.510   4.527   4.163  0.0873  0.0318  0.0794
 1335TIP3    H1 3969   5.506   4.589   4.235  1.9154 -1.9138  2.0074
 1335TIP3    H2 3970   5.596   4.541   4.123 -0.1684 -0.1312 -0.5364
 1336TIP3   OH2 3971   3.342   1.407   1.879 -0.0598  0.2848  0.1559
 1336TIP3    H1 3972   3.399   1.480   1.902 -0.5285  0.9562 -0.7728
 1336TIP3    H2 3973   3.335   1.410   1.784  1.7510 -2.3826 -0.1590
 1337TIP3   OH2 3974   2.804   0.151   0.071 -0.0432 -0.4167  0.1562
 1337TIP3    H1 3975   2.713   0.178   0.086 -0.1462  0.2011 -1.3389
 1337TIP3    H2 3976   2.798   0.059   0.046  0.0451 -1.1700  2.6266
 1338TIP3   OH2 3977   5.887   0.699   5.332  0.1879 -0.3843  0.1552
 1338TIP3    H1 3978   5.836   0.625   5.365 -1.3728 -0.3172 -1.9259
 1338TIP3    H2 3979   5.922   0.669   5.248 -0.3514  1.1542 -0.6664
 1339TIP3   OH2 3980   0.384   3.524   3.398  0.2356 -0.6376  0.3742
 1339TIP3    H1 3981   0.329   3.524   3.319 -0.3432 -2.8848  0.7138
 1339TIP3    H2 3982   0.434   3.605   3.391  0.5801 -0.9764 -2.5811
 1340TIP3   OH2 3983   0.643   4.832   0.639 -0.2506  0.1562  0.0922
 1340TIP3    H1 3984   0.659   4.799   0.727  0.0043 -0.9184 -0.3478
 1340TIP3    H2 3985   0.706   4.785   0.584  0.9999  2.2497 -0.3979
 1341TIP3   OH2 3986   4.925   3.181   3.443 -0.3763 -0.5598  0.1032
 1341TIP3    H1 3987   4.984   3.181   3.519  0.1141 -1.9062 -0.2521
 1341TIP3    H2 3988   4.984   3.176   3.368 -0.8986 -0.3306 -0.3259
 1342TIP3   OH2 3989   0.920   0.288   2.281  0.2577 -0.2331  0.2124
 1342TIP3    H1 3990   0.866   0.358   2.318  0.0436  0.7749 -1.8644
 1342TIP3    H2 3991   0.939   0.231   2.355 -1.5011  0.7696  1.5232
 1343TIP3   OH2 3992   3.128   3.369   0.169  0.4615  0.1091  0.5370
 1343TIP3    H1 3993   3.072   3.408   0.102  2.5217  0.2031 -1.2441
 1343TIP3    H2 3994   3.104   3.277   0.169 -0.0381  0.2340  0.1506
 1344TIP3   OH2 3995   0.394   2.380   2.870 -0.6258 -0.2554 -0.6782
 1344TIP3    H1 3996   0.371   2.303   2.922  0.7938 -1.8146 -2.2165
 1344TIP3    H2 3997   0.478   2.358   2.830 -1.5534  0.8500 -3.5061
 1345TIP3   OH2 3998   6.480   0.364   4.371  0.3913  0.8700 -0.3311
 1345TIP3    H1 3999   6.387   0.387   4.368  0.2698  0.3703 -0.4935
 1345TIP3    H2 4000   6.509   0.391   4.458 -0.5405 -1.3531  0.7526
 1346TIP3   OH2 4001   4.963   0.770   1.991 -0.2126 -0.3014 -0.3524
 1346TIP3    H1 4002   4.977   0.856   2.031 -0.6942 -1.4549  2.5331
 1346TIP3    H2 4003   4.870   0.768   1.970 -0.6846 -0.8625  1.6349
 1347TIP3   OH2 4004   3.382   3.844   2.633 -0.2288  0.0664  0.2061
 1347TIP3    H1 4005   3.387   3.887   2.548 -0.5060 -0.1591  0.0725
 1347TIP3    H2 4006   3.302   3.879   2.673 -0.2681 -0.0608  0.2408
 1348TIP3   OH2 4007   4.427   1.650   1.796  0.1523 -0.3522 -0.0217
 1348TIP3    H1 4008   4.505   1.595   1.791  1.0013  0.4984  2.4460
 1348TIP3    H2 4009   4.454   1.734   1.760  0.3024 -0.1583  0.5288
 1349TIP3   OH2 4010   2.697   0.158   1.960 -0.1813 -0.2196  0.1211
 1349TIP3    H1 4011   2.644   0.104   2.019  0.0265  1.1128  1.6074
 1349TIP3    H2 4012   2.675   0.126   1.873 -0.5771 -2.2160  0.8788
 1350TIP3   OH2 4013   3.038   4.104   5.219  0.0319  0.4164  0.2068
 1350TIP3    H1 4014   3.087   4.073   5.143  1.6646  0.4164  1.2132
 1350TIP3    H2 4015   3.105   4.136   5.280 -1.2816  1.2491  1.2873
 1351TIP3   OH2 4016   3.967   4.129   2.157  0.0061 -0.3873 -0.1889
 1351TIP3    H1 4017   3.969   4.062   2.088  0.8249  1.1216 -1.6816
 1351TIP3    H2 4018   3.873   4.145   2.171 -0.1822  0.1142 -1.8134
 1352TIP3   OH2 4019   1.201   6.634   4.175  0.1690 -0.3316 -0.0731
 1352TIP3    H1 4020   1.120   6.662   4.216  0.4434  0.0295  0.2255
 1352TIP3    H2 4021   1.222   6.703   4.113  0.1309 -0.5320 -0.3094
 1353TIP3   OH2 4022   4.922   2.547   1.119 -0.2352  0.1569 -0.2690
 1353TIP3    H1 4023   4.894   2.624   1.167  3.6195  0.8089  1.3055
 1353TIP3    H2 4024   5.014   2.563   1.099  0.0589 -2.9872 -2.1440
 1354TIP3   OH2 4025   4.581   5.751   4.395 -0.0369  0.1327 -0.1923
 1354TIP3    H1 4026   4.668   5.730   4.429 -0.3752 -1.5937 -0.2955
 1354TIP3    H2 4027   4.524   5.749   4.472  0.1680  2.6232  0.1113
 1355TIP3   OH2 4028   3.475   0.340   3.905 -0.3741  0.2558 -0.4426
 1355TIP3    H1 4029   3.525   0.264   3.936 -1.8773 -1.4431 -1.9793
 1355TIP3    H2 4030   3.395   0.340   3.958 -1.1136 -0.2468 -1.5287
 1356TIP3   OH2 4031   2.714   4.027   0.916  0.7403 -0.8450 -0.0937
 1356TIP3    H1 4032   2.788   3.969   0.901  0.6660 -0.7664 -0.7954
 1356TIP3    H2 4033   2.638   3.976   0.891  0.7573 -0.0904 -1.7781
 1357TIP3   OH2 4034   1.760   4.867   4.723 -0.3453  0.4892  0.0772
 1357TIP3    H1 4035   1.728   4.825   4.803 -2.7266  1.4504 -0.2689
 1357TIP3    H2 4036   1.850   4.891   4.743 -0.8825  0.7719  2.5280
 1358TIP3   OH2 4037   5.370   4.574   0.253 -0.1595 -0.1176 -0.3928
 1358TIP3    H1 4038   5.439   4.590   0.318  0.0753 -2.7566  0.1126
 1358TIP3    H2 4039   5.417   4.571   0.170  0.0118  0.1697 -0.3097
 1359TIP3   OH2 4040   7.195   5.047   2.361  0.7865  0.1363 -0.1442
 1359TIP3    H1 4041   7.206   4.982   2.430 -0.9207  1.8354  1.8482
 1359TIP3    H2 4042   7.177   4.996   2.282  3.4783 -1.8929  0.4110
 1360TIP3   OH2 4043   6.714   5.029   4.616  0.4766 -0.2373 -0.5498
 1360TIP3    H1 4044   6.786   4.965   4.622  0.3254 -0.3789 -0.2641
 1360TIP3    H2 4045   6.721   5.063   4.527  1.3070  0.2326 -0.3129
 1361TIP3   OH2 4046   6.036   3.807   0.317  0.3273  0.5470 -0.2981
 1361TIP3    H1 4047   6.070   3.782   0.403 -1.4486  1.9419  0.8899
 1361TIP3    H2 4048   5.980   3.735   0.291  0.4287  0.3706 -0.0311
 1362TIP3   OH2 4049   5.504   2.769   4.843 -0.0184  0.2096  0.0410
 1362TIP3    H1 4050   5.585   2.809   4.814 -0.5570  1.0640 -0.3393
 1362TIP3    H2 4051   5.437   2.808   4.787 -0.8477  0.4720  1.1791
 1363TIP3   OH2 4052   1.835   2.973   0.248  0.2322  0.1094 -0.0509
 1363TIP3    H1 4053   1.885   2.921   0.311 -1.1264  0.7925  1.6703
 1363TIP3    H2 4054   1.779   2.909   0.204 -0.6565 -0.0948  1.2974
 1364TIP3   OH2 4055   1.250   2.273   2.821  0.1307 -0.0065 -0.0821
 1364TIP3    H1 4056   1.313   2.202   2.831  0.2141 -0.3948 -2.6266
 1364TIP3    H2 4057   1.297   2.340   2.771 -1.0157  0.3094 -0.7839
 1365TIP3   OH2 4058   6.943   0.633   0.721  0.0026  0.7296  0.1659
 1365TIP3    H1 4059   7.019   0.616   0.665 -0.8444 -1.2480 -0.4635
 1365TIP3    H2 4060   6.961   0.719   0.760  1.9085  0.9234 -1.0030
 1366TIP3   OH2 4061   7.068   1.101   2.705 -0.1969 -0.2666 -0.6478
 1366TIP3    H1 4062   7.086   1.187   2.742 -0.1316 -0.3995 -0.3675
 1366TIP3    H2 4063   7.064   1.116   2.610 -3.8213  0.7295 -0.4560
 1367TIP3   OH2 4064   3.570   5.941   2.927 -0.3743 -0.2045  0.5048
 1367TIP3    H1 4065   3.504   5.947   2.858 -1.4469  1.1731  1.6025
 1367TIP3    H2 4066   3.520   5.928   3.007  0.6757  0.7638  1.3484
 1368TIP3   OH2 4067   1.568   1.512   1.684  0.2567  0.0349  0.0736
 1368TIP3    H1 4068   1.651   1.469   1.664 -0.2452 -1.0053  0.1334
 1368TIP3    H2 4069   1.580   1.602   1.656  1.5484  0.0100  0.4686
 1369TIP3   OH2 4070   4.099   6.260   0.475  0.3571  0.2182 -0.8223
 1369TIP3    H1 4071   4.084   6.300   0.390 -0.3506  1.1298 -0.2979
 1369TIP3    H2 4072   4.037   6.304   0.533  1.0089 -0.1877  0.2166
 1370TIP3   OH2 4073   0.075   1.151   2.084 -0.4817  0.4534  0.2381
 1370TIP3    H1 4074   0.004   1.149   2.019 -1.7363 -1.2177  1.5545
 1370TIP3    H2 4075   0.109   1.240   2.079 -0.4311  0.3725 -2.7541
 1371TIP3   OH2 4076   2.929   0.282   3.557 -0.0249  0.0916 -0.6718
 1371TIP3    H1 4077   2.926   0.231   3.476 -0.2052  2.1072 -2.0084
 1371TIP3    H2 4078   3.000   0.242   3.608 -0.2803 -1.5709 -1.5493
 1372TIP3   OH2 4079   2.492   2.165   2.318 -0.3788  0.0993  0.3475
 1372TIP3    H1 4080   2.518   2.134   2.231  0.4189  1.5113  0.0523
 1372TIP3    H2 4081   2.446   2.091   2.357 -0.4019 -0.6999 -1.1243
 1373TIP3   OH2 4082   2.168   2.108   3.557 -0.2557  0.3054 -0.1378
 1373TIP3    H1 4083   2.234   2.071   3.616 -3.2148 -0.1739  3.2177
 1373TIP3    H2 4084   2.156   2.040   3.490  0.7998 -0.7361  0.6620
 1374TIP3   OH2 4085   6.460   0.085   0.924  0.0808 -0.0341 -0.0651
 1374TIP3    H1 4086   6.456   0.173   0.960 -1.0957 -0.0820 -0.0130
 1374TIP3    H2 4087   6.467   0.028   1.001 -1.7904 -0.1009  0.1127
 1375TIP3   OH2 4088   0.895   3.113   2.925  0.5673  0.1975  0.4179
 1375TIP3    H1 4089   0.880   3.140   3.015 -0.9153 -1.6041  0.7530
 1375TIP3    H2 4090   0.811   3.129   2.881  1.1899  0.7928 -0.5937
 1376TIP3   OH2 4091   2.627   2.975   4.508  0.3742 -0.2170 -0.0465
 1376TIP3    H1 4092   2.548   3.015   4.545  1.9419  0.4290  2.9766
 1376TIP3    H2 4093   2.602   2.885   4.489 -1.0987 -0.0366  0.8770
 1377TIP3   OH2 4094   4.574   4.310   2.301  0.3027  0.1440 -0.2255
 1377TIP3    H1 4095   4.596   4.403   2.310 -3.1517  1.2934 -1.9140
 1377TIP3    H2 4096   4.589   4.274   2.388 -0.4049  2.8468  1.1437
 1378TIP3   OH2 4097   6.174   1.701   5.207 -0.1576 -0.0397  0.4238
 1378TIP3    H1 4098   6.164   1.719   5.300  0.4096  2.1734  0.1198
 1378TIP3    H2 4099   6.262   1.733   5.186 -0.9431  1.2264 -1.1943
 1379TIP3   OH2 4100   4.487   3.152   1.334  0.7166  0.4264 -0.3017
 1379TIP3    H1 4101   4.545   3.225   1.311 -0.9876  1.6581 -0.8362
 1379TIP3    H2 4102   4.466   3.167   1.426 -0.5176  1.2991 -0.6955
 1380TIP3   OH2 4103   6.378   0.820   0.055  0.5734  0.0416 -0.4550
 1380TIP3    H1 4104   6.419   0.881  -0.006 -0.2297 -1.0325 -2.1523
 1380TIP3    H2 4105   6.450   0.765   0.086  1.6291  2.7787  2.4401
 1381TIP3   OH2 4106   4.628   2.233   4.324 -0.0268 -0.5419  0.6537
 1381TIP3    H1 4107   4.695   2.268   4.384  0.1872 -0.2680  0.2629
 1381TIP3    H2 4108   4.554   2.293   4.333  0.0927 -0.3634  0.4782
 1382TIP3   OH2 4109   3.860   2.161   4.698  0.0887 -0.1715 -0.3017
 1382TIP3    H1 4110   3.810   2.199   4.770 -0.5899 -0.0646 -0.8215
 1382TIP3    H2 4111   3.805   2.173   4.621  0.8588 -0.1684 -0.8684
 1383TIP3   OH2 4112   4.134   2.044   3.979  0.1192 -0.4925 -0.0532
 1383TIP3    H1 4113   4.137   2.062   3.885  0.5846  0.5516  0.1382
 1383TIP3    H2 4114   4.200   2.103   4.016  0.7829 -1.7486  0.8008
 1384TIP3   OH2 4115   1.947   4.439   4.939 -0.0051 -0.2854 -0.3214
 1384TIP3    H1 4116   1.951   4.408   4.849 -1.0614  0.4315 -0.6264
 1384TIP3    H2 4117   2.033   4.480   4.954  0.3682 -0.8710 -0.8174
 1385TIP3   OH2 4118   5.434   5.042   5.303 -0.4799  0.3904  0.6666
 1385TIP3    H1 4119   5.422   5.026   5.209  1.5292  0.5531  0.3352
 1385TIP3    H2 4120   5.462   5.133   5.309  0.2117  0.1548  1.3163
 1386TIP3   OH2 4121   0.103   4.186   3.985 -0.3101  0.6905  0.0654
 1386TIP3    H1 4122   0.185   4.136   3.984 -0.0123  1.1453 -1.4570
 1386TIP3    H2 4123   0.035   4.121   3.998  0.2096  0.1284  0.0409
 1387TIP3   OH2 4124   6.281   6.188   2.197 -1.0047 -0.2197  0.0532
 1387TIP3    H1 4125   6.325   6.122   2.251  0.0527 -0.5848 -1.2117
 1387TIP3    H2 4126   6.350   6.250   2.174 -1.3840 -0.1800 -1.0335
 1388TIP3   OH2 4127   1.046   5.699   3.895  0.1497 -0.3605  0.2733
 1388TIP3    H1 4128   0.992   5.772   3.865 -0.5482 -0.7105  0.6435
 1388TIP3    H2 4129   1.048   5.709   3.990  0.7252 -0.3637  0.2620
 1389TIP3   OH2 4130   1.487   2.017   4.563  0.3195  0.2767  0.4528
 1389TIP3    H1 4131   1.566   2.069   4.577 -0.1227  1.7087 -1.8114
 1389TIP3    H2 4132   1.505   1.966   4.484 -0.0798 -1.3907  1.4039
 1390TIP3   OH2 4133   2.077   6.395   2.375  0.1972 -0.1148  0.3678
 1390TIP3    H1 4134   2.115   6.313   2.345  2.2648  0.9427 -0.1151
 1390TIP3    H2 4135   2.146   6.460   2.360 -1.9352  2.0266 -0.8762
 1391TIP3   OH2 4136   4.458   5.637   1.253  0.3534  0.3599 -0.8827
 1391TIP3    H1 4137   4.493   5.559   1.211  0.8289  0.7471 -1.2108
 1391TIP3    H2 4138   4.467   5.621   1.347  1.3644  0.4300 -0.9596
 1392TIP3   OH2 4139   1.754   2.115   5.143 -0.0046 -0.1635 -0.3130
 1392TIP3    H1 4140   1.726   2.151   5.059  0.8334 -1.1003 -1.0035
 1392TIP3    H2 4141   1.829   2.060   5.123  0.3842 -0.1907  1.0903
 1393TIP3   OH2 4142   2.704   3.308   3.537  0.0070  0.3517 -0.0443
 1393TIP3    H1 4143   2.667   3.306   3.449  0.3740  1.4614 -0.2414
 1393TIP3    H2 4144   2.766   3.381   3.535  1.5569 -0.8824  0.5299
 1394TIP3   OH2 4145   1.475   1.721   3.899  0.1510  0.0913  0.9021
 1394TIP3    H1 4146   1.436   1.657   3.960 -3.9203  1.6399  0.2856
 1394TIP3    H2 4147   1.468   1.679   3.813  1.4257 -0.2198  0.9343
 1395TIP3   OH2 4148   0.514   1.227   1.802 -0.3671  0.0649 -0.4631
 1395TIP3    H1 4149   0.440   1.167   1.792 -0.2066 -0.1926 -0.1165
 1395TIP3    H2 4150   0.564   1.217   1.721  0.2216 -1.0411  0.0209
 1396TIP3   OH2 4151   4.652   6.125   1.550 -0.3200  0.3890  0.1509
 1396TIP3    H1 4152   4.713   6.105   1.622  2.1693 -2.0299 -2.3702
 1396TIP3    H2 4153   4.580   6.064   1.563  0.3166 -0.3335  0.4146
 1397TIP3   OH2 4154   1.820   2.872   2.133  0.1478 -0.2551 -0.2224
 1397TIP3    H1 4155   1.740   2.906   2.093  0.0090  0.9941  1.0368
 1397TIP3    H2 4156   1.821   2.910   2.221  1.8100 -0.7629  0.0174
 1398TIP3   OH2 4157   5.576   3.644   0.993  0.2875  0.4636 -0.4871
 1398TIP3    H1 4158   5.499   3.634   1.048 -0.4291  1.7157 -1.2113
 1398TIP3    H2 4159   5.542   3.643   0.903  0.8537  2.6300 -0.8005
 1399TIP3   OH2 4160   5.735   5.225   4.773  0.0428  0.3354  0.0835
 1399TIP3    H1 4161   5.692   5.275   4.704 -0.2621 -1.2022 -0.9005
 1399TIP3    H2 4162   5.813   5.277   4.795 -0.3609  1.3260 -0.7437
 1400TIP3   OH2 4163   1.110   6.221   1.804 -0.6571 -0.0964 -0.1811
 1400TIP3    H1 4164   1.147   6.215   1.892  1.6933  1.5973 -0.9434
 1400TIP3    H2 4165   1.016   6.234   1.817 -0.7580 -2.3142  1.9612
 1401TIP3   OH2 4166   2.672   5.577   1.332 -0.2038  0.4159  0.1107
 1401TIP3    H1 4167   2.612   5.635   1.379 -2.0625  0.1114 -1.6924
 1401TIP3    H2 4168   2.709   5.632   1.263 -0.2263  0.0379 -0.2070
 1402TIP3   OH2 4169   0.152   0.159   3.910 -0.5597  0.0917 -0.0803
 1402TIP3    H1 4170   0.160   0.078   3.960  2.3181  0.4358  0.1482
 1402TIP3    H2 4171   0.175   0.228   3.971  3.8386  0.4715 -1.7843
 1403TIP3   OH2 4172   6.807   4.759   3.460  0.2884 -0.3109 -0.1460
 1403TIP3    H1 4173   6.781   4.739   3.550 -1.8477 -1.7789 -0.9904
 1403TIP3    H2 4174   6.781   4.681   3.410  0.8384  0.7120 -2.1202
 1404TIP3   OH2 4175   0.235   2.671   5.180 -0.2850 -0.3463 -0.2451
 1404TIP3    H1 4176   0.285   2.748   5.205 -0.0412 -0.6091  0.0775
 1404TIP3    H2 4177   0.144   2.693   5.203 -0.2224 -0.1384 -0.1962
 1405TIP3   OH2 4178   0.585   4.345   0.942 -0.3359 -0.0175  0.1689
 1405TIP3    H1 4179   0.596   4.415   1.006  0.6429 -0.7973  0.8739
 1405TIP3    H2 4180   0.515   4.290   0.978 -0.4497  0.0714  0.0850
 1406TIP3   OH2 4181   0.965   2.216   1.867 -0.4917 -0.4263 -0.3955
 1406TIP3    H1 4182   0.921   2.262   1.795 -0.5137  0.8786  0.4223
 1406TIP3    H2 4183   0.933   2.126   1.861 -2.2363  0.1726 -0.6627
 1407TIP3   OH2 4184   1.594   3.140   4.612  0.4178 -0.1936  0.0783
 1407TIP3    H1 4185   1.625   3.105   4.528 -1.1140 -0.1077 -0.5551
 1407TIP3    H2 4186   1.553   3.065   4.655 -0.4010  0.1698 -0.0555
 1408TIP3   OH2 4187   7.192   2.742   1.201  0.0502 -0.5814  0.0983
 1408TIP3    H1 4188   7.269   2.797   1.185  0.6932 -1.8611 -1.4292
 1408TIP3    H2 4189   7.171   2.758   1.294  0.8560  1.3755  0.0135
 1409TIP3   OH2 4190   5.401   3.457   1.386  0.5380  0.0372  0.0114
 1409TIP3    H1 4191   5.360   3.386   1.435 -0.2139  0.3068 -0.2084
 1409TIP3    H2 4192   5.453   3.412   1.319 -1.2990 -0.3353 -1.2401
 1410TIP3   OH2 4193   2.563   3.236   5.251  0.2621 -0.4823 -0.0527
 1410TIP3    H1 4194   2.605   3.267   5.332 -1.3234  0.9947  0.2862
 1410TIP3    H2 4195   2.478   3.202   5.280  0.7689 -2.5501 -0.8139
 1411TIP3   OH2 4196   1.904   4.590   5.365 -0.0355 -0.0155  0.5866
 1411TIP3    H1 4197   1.926   4.550   5.281 -0.1298 -0.3642  0.7221
 1411TIP3    H2 4198   1.977   4.568   5.423  0.5233  1.1122  0.3219
 1412TIP3   OH2 4199   2.210   4.673   2.820 -0.3062 -0.1691 -0.1883
 1412TIP3    H1 4200   2.271   4.728   2.772 -0.5386 -2.3490 -3.2156
 1412TIP3    H2 4201   2.132   4.669   2.765 -0.7935 -2.4415  0.5823
 1413TIP3   OH2 4202   3.142   1.125   2.539  0.0216 -0.1065  0.3834
 1413TIP3    H1 4203   3.128   1.175   2.459 -0.8180 -0.7920  0.0846
 1413TIP3    H2 4204   3.208   1.174   2.587 -0.5503  1.1124 -0.0467
 1414TIP3   OH2 4205   3.211   2.562   2.238  0.0476  0.8431  0.5610
 1414TIP3    H1 4206   3.227   2.644   2.192  0.7355  0.1240 -0.5594
 1414TIP3    H2 4207   3.125   2.533   2.206  1.0504 -0.2629 -1.3207
 1415TIP3   OH2 4208   2.382   4.361   4.184  0.0806  0.0133  0.1808
 1415TIP3    H1 4209   2.422   4.275   4.190 -0.4123 -0.2084  0.3794
 1415TIP3    H2 4210   2.456   4.422   4.183  0.4204 -0.3496  1.2050
 1416TIP3   OH2 4211   2.864   4.508   4.623  0.5327 -0.6800 -0.1132
 1416TIP3    H1 4212   2.863   4.418   4.592  0.5315 -0.4241 -0.8780
 1416TIP3    H2 4213   2.777   4.542   4.603  0.8576 -0.2036 -0.7887
 1417TIP3   OH2 4214  -0.004   3.579   2.393  0.4621 -0.4097  0.0252
 1417TIP3    H1 4215   0.084   3.576   2.356  0.2916 -0.4735 -0.3800
 1417TIP3    H2 4216  -0.055   3.516   2.341  0.0739 -0.0578 -0.0338
 1418TIP3   OH2 4217   2.671   3.980   4.129  0.3739 -0.5725 -1.1389
 1418TIP3    H1 4218   2.748   3.999   4.183 -0.1958  0.1221 -0.5492
 1418TIP3    H2 4219   2.630   3.904   4.172  0.3689 -0.5249 -1.0581
 1419TIP3   OH2 4220   5.309   2.588   1.700  0.4536 -0.8792 -0.6832
 1419TIP3    H1 4221   5.395   2.577   1.658  0.7382 -2.7613  0.3137
 1419TIP3    H2 4222   5.270   2.501   1.699 -1.6229 -0.0016 -1.3975
 1420TIP3   OH2 4223   1.968   3.191   4.996 -0.1870 -0.1100 -0.2192
 1420TIP3    H1 4224   2.031   3.259   5.022 -1.0179 -0.1824  2.3351
 1420TIP3    H2 4225   2.017   3.109   5.004 -0.1829 -0.0610  0.3010
 1421TIP3   OH2 4226   6.956   4.084   0.979 -0.4036 -0.6922 -0.2861
 1421TIP3    H1 4227   6.943   4.178   0.990 -2.4594 -0.9709  0.1543
 1421TIP3    H2 4228   6.944   4.048   1.067  2.0846 -1.2448 -0.1252
 1422TIP3   OH2 4229   4.574   3.986   3.744  0.4444  0.0479  0.0219
 1422TIP3    H1 4230   4.565   3.970   3.838  1.4513 -1.8317 -0.1398
 1422TIP3    H2 4231   4.500   3.939   3.705  0.3365  0.3698 -0.1628
 1423TIP3   OH2 4232   2.623   0.033   5.068 -0.5081 -0.4141 -0.4419
 1423TIP3    H1 4233   2.638   0.119   5.108 -0.3961 -0.7118  0.1655
 1423TIP3    H2 4234   2.701  -0.018   5.089 -0.1839 -0.4017 -1.5457
 1424TIP3   OH2 4235   5.305   1.125   3.243 -0.0136  0.1609  0.1673
 1424TIP3    H1 4236   5.389   1.166   3.222  0.5049 -1.6784 -1.7420
 1424TIP3    H2 4237   5.256   1.193   3.289  1.7315  1.9904 -0.4977
 1425TIP3   OH2 4238   0.983   4.497   2.873  0.1339 -0.1114  0.1492
 1425TIP3    H1 4239   1.053   4.451   2.918  0.3177  0.4491  0.4515
 1425TIP3    H2 4240   0.959   4.569   2.932 -0.2852  0.0593 -0.2166
 1426TIP3   OH2 4241   0.373   3.335   2.640 -0.3473  0.2245  0.0085
 1426TIP3    H1 4242   0.352   3.278   2.714  0.8046 -0.1717  0.0487
 1426TIP3    H2 4243   0.291   3.341   2.591 -0.3375 -2.0747 -0.4070
 1427TIP3   OH2 4244   1.941   4.035   5.243  0.8616  0.4290  0.0326
 1427TIP3    H1 4245   1.911   4.118   5.281 -1.2788  0.3034 -1.2251
 1427TIP3    H2 4246   1.957   3.978   5.319  1.4325  1.6691  0.8708
 1428TIP3   OH2 4247   2.778   6.700   2.901  0.4797  0.1945 -0.0894
 1428TIP3    H1 4248   2.725   6.630   2.937  0.7369 -0.7458 -1.4516
 1428TIP3    H2 4249   2.719   6.775   2.896 -0.3512 -0.4598 -0.3657
 1429TIP3   OH2 4250   7.169   6.121   0.142 -0.2947  0.1199  0.0063
 1429TIP3    H1 4251   7.252   6.130   0.096 -0.8696  0.9334 -0.9255
 1429TIP3    H2 4252   7.103   6.144   0.076 -1.1372  1.8080  1.3421
 1430TIP3   OH2 4253   1.844   0.630   1.002 -0.1880  0.3585 -0.2300
 1430TIP3    H1 4254   1.834   0.540   1.035 -0.1368  1.0106  1.6802
 1430TIP3    H2 4255   1.937   0.648   1.011 -0.3368  0.9051  0.2400
 1431TIP3   OH2 4256   2.542   4.104   4.607 -0.1407  0.0351  0.1156
 1431TIP3    H1 4257   2.484   4.050   4.660 -0.2060  0.3742  0.3941
 1431TIP3    H2 4258   2.610   4.043   4.576  0.0240 -0.1191  0.7749
 1432TIP3   OH2 4259   2.844   5.304   4.397 -0.0240 -0.4296 -0.1716
 1432TIP3    H1 4260   2.823   5.397   4.393 -0.4887 -0.5676 -1.3665
 1432TIP3    H2 4261   2.762   5.263   4.426  0.7751 -0.3018  2.4903
 1433TIP3   OH2 4262   3.071   6.415   4.872  0.1918  0.1638  0.7602
 1433TIP3    H1 4263   3.047   6.401   4.964  0.5517  0.3632  0.8844
 1433TIP3    H2 4264   2.988   6.437   4.829  0.1434  0.8153  1.1799
 1434TIP3   OH2 4265   5.423   4.192   3.025  0.0757  0.6483  0.3916
 1434TIP3    H1 4266   5.358   4.250   3.066 -0.1121  1.9291 -1.6011
 1434TIP3    H2 4267   5.464   4.246   2.957  1.7960 -0.7697  0.2285
 1435TIP3   OH2 4268   2.066   4.541   0.354  0.1523 -0.1333 -0.0187
 1435TIP3    H1 4269   2.042   4.594   0.430  0.3613  0.0153 -0.0574
 1435TIP3    H2 4270   2.136   4.590   0.311 -0.0946 -0.1260 -0.4123
 1436TIP3   OH2 4271   3.907   4.156   3.777 -0.5818  0.2468  0.0166
 1436TIP3    H1 4272   3.935   4.081   3.829 -1.7877 -1.2592 -1.4032
 1436TIP3    H2 4273   3.813   4.162   3.791 -0.4571  1.8091  0.4419
 1437TIP3   OH2 4274   6.489   3.661   2.929  0.7332  0.0685  0.1944
 1437TIP3    H1 4275   6.469   3.604   3.003  1.9080  0.5622  0.9271
 1437TIP3    H2 4276   6.454   3.747   2.953 -1.5451 -0.3997 -1.1544
 1438TIP3   OH2 4277   7.142   6.426   0.223  0.1522 -0.2793  0.1647
 1438TIP3    H1 4278   7.193   6.413   0.143 -1.3935 -0.1969 -0.8898
 1438TIP3    H2 4279   7.153   6.518   0.245 -1.5424  0.4020 -1.5601
 1439TIP3   OH2 4280   1.036   3.404   2.580  0.5934 -0.5045  0.1222
 1439TIP3    H1 4281   0.969   3.395   2.513  0.3326  1.3646  0.0693
 1439TIP3    H2 4282   1.105   3.455   2.538 -0.3847  2.3583  1.7295
 1440TIP3   OH2 4283   4.207   2.823   2.556  0.3803  0.1137 -0.0791
 1440TIP3    H1 4284   4.116   2.791   2.553  0.1924  0.6181  0.1223
 1440TIP3    H2 4285   4.244   2.796   2.472 -0.3310  0.9650 -0.6929
 1441TIP3   OH2 4286   0.650   6.537   3.166  0.3373 -0.0640  0.6297
 1441TIP3    H1 4287   0.735   6.500   3.144  1.3800  1.3979  2.0498
 1441TIP3    H2 4288   0.590   6.462   3.159  2.1019 -1.6972  1.8907
 1442TIP3   OH2 4289   2.416   6.037   5.665 -0.2166  0.0913  0.4458
 1442TIP3    H1 4290   2.334   6.015   5.620 -0.5521  2.1008 -0.0242
 1442TIP3    H2 4291   2.485   6.013   5.602 -0.6201  1.3479 -0.5304
 1443TIP3   OH2 4292   2.754   6.185   3.176 -0.7679 -0.1623 -0.2171
 1443TIP3    H1 4293   2.788   6.203   3.263 -1.0001  1.6814 -0.4596
 1443TIP3    H2 4294   2.676   6.241   3.168 -1.6955 -1.4935 -1.0311
 1444TIP3   OH2 4295   4.407   1.996   2.591 -0.0571  0.0824 -0.2153
 1444TIP3    H1 4296   4.349   2.066   2.620 -0.6075  0.2625 -1.6578
 1444TIP3    H2 4297   4.349   1.920   2.580  0.0950  0.0816 -1.0351
 1445TIP3   OH2 4298   1.578   3.575   0.189 -0.5618 -0.3067 -0.2043
 1445TIP3    H1 4299   1.583   3.662   0.228 -0.8584 -0.8997  1.1961
 1445TIP3    H2 4300   1.649   3.574   0.125 -1.3370  1.3991 -1.1860
 1446TIP3   OH2 4301   3.543   4.743   0.240  0.2286 -0.3526 -0.3675
 1446TIP3    H1 4302   3.580   4.817   0.190  0.9953  0.7272  1.6907
 1446TIP3    H2 4303   3.449   4.758   0.238  0.4170  1.2026  0.7184
 1447TIP3   OH2 4304   4.856   4.554   4.554  0.1522  0.4372  0.0399
 1447TIP3    H1 4305   4.821   4.599   4.630  2.0599 -0.3160  1.4518
 1447TIP3    H2 4306   4.872   4.465   4.584  3.3183  0.7468 -0.3920
 1448TIP3   OH2 4307   6.861   0.660   4.624  0.0269 -0.1842  0.3111
 1448TIP3    H1 4308   6.950   0.696   4.624  0.2018 -0.4445 -2.2782
 1448TIP3    H2 4309   6.869   0.576   4.579 -1.4275 -0.5890  0.7474
 1449TIP3   OH2 4310   5.796   6.332   0.784  0.0791 -0.1951 -0.2041
 1449TIP3    H1 4311   5.715   6.283   0.772  0.1976 -0.2323 -0.8876
 1449TIP3    H2 4312   5.769   6.414   0.826 -0.2350 -0.4485  0.0903
 1450TIP3   OH2 4313   1.017   2.669   4.136  0.2525  0.0843  0.4120
 1450TIP3    H1 4314   0.981   2.694   4.052  1.1382 -0.8128 -0.2639
 1450TIP3    H2 4315   1.030   2.751   4.183  1.1151  0.7215 -0.8961
 1451TIP3   OH2 4316   5.838   0.236   2.058  0.0156  0.0559  0.1046
 1451TIP3    H1 4317   5.829   0.174   2.131 -0.0854  0.4773  0.4511
 1451TIP3    H2 4318   5.779   0.308   2.081  0.8359  0.7176  0.1567
 1452TIP3   OH2 4319   7.059   1.854   3.317  0.0851 -0.1301 -0.6668
 1452TIP3    H1 4320   7.087   1.865   3.226  1.3228 -1.2995 -0.4666
 1452TIP3    H2 4321   7.094   1.929   3.363 -0.6825  0.5519 -1.1724
 1453TIP3   OH2 4322   4.004   1.967   1.198  0.9441 -0.0832 -0.2969
 1453TIP3    H1 4323   4.072   1.962   1.130  1.2688 -0.4071  0.0499
 1453TIP3    H2 4324   4.052   1.966   1.280  0.5580  0.5227 -0.0577
 1454TIP3   OH2 4325   0.268   5.315   4.703  0.2809  0.1404  0.4878
 1454TIP3    H1 4326   0.317   5.386   4.662 -0.6082  0.9716  0.8255
 1454TIP3    H2 4327   0.322   5.287   4.776  1.0817 -0.1972 -0.2140
 1455TIP3   OH2 4328   2.175   6.255   0.914 -0.2157  0.4650  0.2224
 1455TIP3    H1 4329   2.134   6.214   0.990 -0.5829 -0.7142 -0.5814
 1455TIP3    H2 4330   2.159   6.194   0.842 -1.0378  2.1802 -1.1144
 1456TIP3   OH2 4331   6.393   6.580   0.420 -0.2275  0.3191 -0.1743
 1456TIP3    H1 4332   6.452   6.585   0.495 -0.8855 -1.8408  0.5501
 1456TIP3    H2 4333   6.306   6.572   0.458 -0.8327  1.5712 -1.2189
 1457TIP3   OH2 4334   7.053   6.609   5.880  0.0285  0.3881 -0.0046
 1457TIP3    H1 4335   7.104   6.529   5.896  0.1305  0.5081  0.2700
 1457TIP3    H2 4336   7.113   6.666   5.831 -0.6989 -0.4732 -2.0030
 1458TIP3   OH2 4337   4.778   5.352   1.290  0.2212  0.3232 -0.4669
 1458TIP3    H1 4338   4.776   5.293   1.365  1.1939  1.7092  0.7328
 1458TIP3    H2 4339   4.825   5.430   1.322  0.1314  1.2224 -2.3374
 1459TIP3   OH2 4340   2.514   6.678   3.416 -0.8456  0.4478  0.4576
 1459TIP3    H1 4341   2.490   6.624   3.340  0.7796 -1.2878  1.0745
 1459TIP3    H2 4342   2.588   6.731   3.385  1.0146 -1.5553  1.1964
 1460TIP3   OH2 4343   2.257   0.452   0.225 -0.8773  0.8508 -0.3782
 1460TIP3    H1 4344   2.321   0.435   0.155  0.3255  0.4306  0.7679
 1460TIP3    H2 4345   2.253   0.369   0.274 -2.0801  0.9733 -0.2448
 1461TIP3   OH2 4346   7.170   2.222   0.413 -0.2242  0.4182  1.0775
 1461TIP3    H1 4347   7.088   2.244   0.368 -0.4462 -0.8900  0.7778
 1461TIP3    H2 4348   7.149   2.142   0.462  1.3282 -1.0743 -0.5288
 1462TIP3   OH2 4349   7.025   3.397   2.238 -0.3034  0.3840 -0.2980
 1462TIP3    H1 4350   7.079   3.362   2.167  1.2986  1.7685  0.1517
 1462TIP3    H2 4351   6.950   3.437   2.194  0.9709  1.7733 -1.3079
 1463TIP3   OH2 4352   0.198   2.851   5.771  0.8507 -0.4380  0.5872
 1463TIP3    H1 4353   0.155   2.783   5.719  2.4832 -0.4363 -0.8386
 1463TIP3    H2 4354   0.127   2.894   5.818 -0.8838  0.2774 -2.4361
 1464TIP3   OH2 4355   5.590   5.491   0.628 -0.3484  0.0140  0.2748
 1464TIP3    H1 4356   5.523   5.457   0.687  0.5774  0.2370  1.5125
 1464TIP3    H2 4357   5.576   5.446   0.545 -1.0438 -1.0880  0.9777
 1465TIP3   OH2 4358   0.336   0.748   4.721 -0.2881  0.0225 -0.0338
 1465TIP3    H1 4359   0.430   0.749   4.704 -0.0617  1.4658  1.0657
 1465TIP3    H2 4360   0.320   0.664   4.764  0.1304 -1.0752 -1.9046
 1466TIP3   OH2 4361   1.555   6.812   1.899  0.8510  0.4153 -0.6012
 1466TIP3    H1 4362   1.566   6.757   1.976  0.6866 -1.0861 -1.5987
 1466TIP3    H2 4363   1.468   6.787   1.865  1.2433  0.4808 -1.6807
 1467TIP3   OH2 4364   6.691   0.869   1.301 -0.2927  0.5518  0.0260
 1467TIP3    H1 4365   6.597   0.870   1.286 -0.5091  1.9657  1.2040
 1467TIP3    H2 4366   6.729   0.846   1.217 -1.7108 -1.5142 -0.1185
 1468TIP3   OH2 4367   4.804   0.123   1.352  0.0573  0.0209 -0.3936
 1468TIP3    H1 4368   4.794   0.218   1.352 -1.9535 -0.1358  0.0424
 1468TIP3    H2 4369   4.849   0.103   1.270  1.8745  1.4337  0.2063
 1469TIP3   OH2 4370   0.939   1.008   4.514 -0.4237  0.1889 -0.4787
 1469TIP3    H1 4371   1.002   1.026   4.444  0.3394 -1.8978 -0.4110
 1469TIP3    H2 4372   0.892   0.930   4.484 -0.1575 -0.6937  1.2384
 1470TIP3   OH2 4373   3.388   3.990   0.854  0.5855  0.4474 -0.0673
 1470TIP3    H1 4374   3.352   3.938   0.781 -0.1698  0.9987 -0.1080
 1470TIP3    H2 4375   3.393   3.928   0.927 -0.7712  0.4032  0.0264
 1471TIP3   OH2 4376   1.521   3.813   3.524 -0.8355 -0.7845  0.0571
 1471TIP3    H1 4377   1.483   3.727   3.504  0.8486 -1.5229 -0.1025
 1471TIP3    H2 4378   1.606   3.793   3.563 -0.7896  0.8114  0.8581
 1472TIP3   OH2 4379   5.089   2.829   5.605 -0.0251 -0.0600 -0.0332
 1472TIP3    H1 4380   5.097   2.901   5.542  1.2551 -0.5088 -0.4228
 1472TIP3    H2 4381   5.068   2.753   5.551 -0.6552 -0.1218  0.2936
 1473TIP3   OH2 4382   2.476   6.311   0.775 -0.6189 -0.4602  0.0617
 1473TIP3    H1 4383   2.472   6.232   0.829 -3.3132 -0.8882 -0.6126
 1473TIP3    H2 4384   2.416   6.372   0.818  0.3636  0.7315 -0.2112
 1474TIP3   OH2 4385   1.696   5.954   0.876  0.2141  0.1974 -0.1348
 1474TIP3    H1 4386   1.683   5.861   0.859  0.1158  0.1553  0.1616
 1474TIP3    H2 4387   1.706   5.960   0.971  0.5243  0.4525 -0.1817
 1475TIP3   OH2 4388   6.741   2.645   2.313  0.2842 -0.4450 -0.4769
 1475TIP3    H1 4389   6.726   2.680   2.401 -2.1338 -1.0172 -0.5796
 1475TIP3    H2 4390   6.833   2.619   2.312  0.6790  0.7012  1.4528
 1476TIP3   OH2 4391   2.278   3.009   0.925  0.3282  0.4547  0.3544
 1476TIP3    H1 4392   2.207   3.018   0.861 -0.8152  1.4665  1.7096
 1476TIP3    H2 4393   2.308   2.919   0.916 -0.0126  0.4691 -1.3602
 1477TIP3   OH2 4394   4.454   6.643   5.037  0.0003  0.0662  0.5022
 1477TIP3    H1 4395   4.367   6.675   5.062  0.0441  0.3564  0.2894
 1477TIP3    H2 4396   4.446   6.547   5.040 -0.1778  0.0937  0.9797
 1478TIP3   OH2 4397   1.988   2.349   2.048  0.1960 -0.0745  0.4517
 1478TIP3    H1 4398   1.992   2.256   2.028  0.3540 -0.3332  1.6155
 1478TIP3    H2 4399   2.069   2.385   2.012  0.0348 -0.3447 -0.1840
 1479TIP3   OH2 4400   6.230   2.012   4.395 -0.0123  0.2447  0.3844
 1479TIP3    H1 4401   6.280   2.024   4.476 -3.4584  1.7907  2.4951
 1479TIP3    H2 4402   6.252   2.088   4.342  2.8384 -1.1427 -0.6409
 1480TIP3   OH2 4403   2.389   5.661   1.996  0.0086  0.2914  0.0258
 1480TIP3    H1 4404   2.464   5.687   1.942  0.6637 -0.1216  0.7075
 1480TIP3    H2 4405   2.347   5.743   2.020  2.0615  0.8062  2.1739
 1481TIP3   OH2 4406   4.073   6.367   2.878 -0.0653  0.5464 -0.0995
 1481TIP3    H1 4407   4.047   6.346   2.788  1.6484  0.4244 -0.6020
 1481TIP3    H2 4408   4.124   6.448   2.870  2.7218 -1.0559  0.2735
 1482TIP3   OH2 4409   5.344   3.739   3.768  0.5013  0.4878  0.5457
 1482TIP3    H1 4410   5.366   3.647   3.762 -1.2419 -0.0223  1.2825
 1482TIP3    H2 4411   5.428   3.784   3.773  1.3861 -1.1999  2.0154
 1483TIP3   OH2 4412   3.121   2.004   4.414 -0.1913  0.0165  0.1657
 1483TIP3    H1 4413   3.133   1.934   4.478  1.9033  0.1163 -0.0439
 1483TIP3    H2 4414   3.160   1.971   4.334 -0.1990  0.9944 -0.2613
 1484TIP3   OH2 4415   5.929   3.658   2.039 -0.3535 -0.3902  0.0925
 1484TIP3    H1 4416   5.991   3.588   2.063 -0.2659 -0.4224 -0.2224
 1484TIP3    H2 4417   5.865   3.615   1.983  0.3225  0.0107 -1.0129
 1485TIP3   OH2 4418   7.160   2.195   0.876 -0.2326  0.0183 -0.7607
 1485TIP3    H1 4419   7.246   2.235   0.889 -1.0167  0.9497  2.2029
 1485TIP3    H2 4420   7.160   2.118   0.933 -1.6053  0.4820 -0.0888
 1486TIP3   OH2 4421   0.613   2.049   1.917  1.1261 -0.1344  0.2827
 1486TIP3    H1 4422   0.639   1.988   1.847  1.3879 -0.7438  0.9054
 1486TIP3    H2 4423   0.539   2.098   1.880  0.4633 -1.3125  0.0266
 1487TIP3   OH2 4424   3.087   4.623   5.425 -0.6771 -0.8202 -0.2504
 1487TIP3    H1 4425   3.081   4.717   5.444  0.9654 -0.7590  0.1568
 1487TIP3    H2 4426   3.054   4.614   5.335 -1.7637 -0.0233  0.0438
 1488TIP3   OH2 4427   6.031   6.230   5.301 -0.2224  0.5113 -0.0142
 1488TIP3    H1 4428   6.062   6.320   5.317  0.1128  0.7438 -1.7279
 1488TIP3    H2 4429   6.111   6.179   5.293 -0.4147  0.0496  0.8842
 1489TIP3   OH2 4430   0.556   5.971   0.924  0.5301  0.4775  0.6450
 1489TIP3    H1 4431   0.522   5.887   0.955  2.1243  0.3287  2.1455
 1489TIP3    H2 4432   0.631   5.949   0.869 -1.2084  0.8352 -2.0786
 1490TIP3   OH2 4433   2.508   3.181   0.936  0.6026  0.1592  0.3876
 1490TIP3    H1 4434   2.429   3.127   0.933 -0.2657  1.4084 -1.4904
 1490TIP3    H2 4435   2.478   3.265   0.972  1.0647  0.6532 -0.3615
 1491TIP3   OH2 4436   0.275   3.908   4.732 -0.2843  0.0382  0.1499
 1491TIP3    H1 4437   0.363   3.936   4.757 -0.6809  0.0181  1.6502
 1491TIP3    H2 4438   0.275   3.910   4.637  1.6305 -0.8533  0.0888
 1492TIP3   OH2 4439   4.196   1.829   0.357 -0.2057 -0.4218  0.1853
 1492TIP3    H1 4440   4.267   1.849   0.418  0.6037 -1.0701 -0.5205
 1492TIP3    H2 4441   4.198   1.734   0.348 -0.4913 -0.3525 -0.6423
 1493TIP3   OH2 4442   0.752   1.751   2.643  0.7155  0.1564  0.8623
 1493TIP3    H1 4443   0.836   1.788   2.615  0.1621  1.2028  0.5336
 1493TIP3    H2 4444   0.705   1.733   2.561  1.0397 -1.5007  1.0014
 1494TIP3   OH2 4445   4.999   2.342   0.958  0.0518 -0.3055  0.0053
 1494TIP3    H1 4446   4.924   2.337   1.016  1.1471  1.1445  1.6774
 1494TIP3    H2 4447   5.038   2.254   0.960  0.0789 -0.2730  1.5184
 1495TIP3   OH2 4448   0.173   4.686   4.998  0.8973 -0.2655  0.2656
 1495TIP3    H1 4449   0.138   4.741   5.068  3.4408  2.1844 -0.2378
 1495TIP3    H2 4450   0.096   4.642   4.962 -0.8282  0.3464  2.8840
 1496TIP3   OH2 4451   2.997   2.518   3.496 -0.0088  0.0194  0.5405
 1496TIP3    H1 4452   2.970   2.454   3.562 -2.1176 -0.7863 -0.9924
 1496TIP3    H2 4453   2.953   2.490   3.416  2.4581  0.9449 -1.2714
 1497TIP3   OH2 4454   4.397   4.596   2.556 -0.2109 -0.2168 -0.1501
 1497TIP3    H1 4455   4.372   4.537   2.486 -0.8002  0.2146 -0.3161
 1497TIP3    H2 4456   4.342   4.673   2.543  0.5156  0.3584  0.0762
 1498TIP3   OH2 4457   2.051   5.964   3.582  0.2321 -0.2812  0.2333
 1498TIP3    H1 4458   2.066   6.011   3.500  1.2639 -1.0493 -0.0404
 1498TIP3    H2 4459   2.134   5.972   3.630 -0.0920 -0.5244  0.8449
 1499TIP3   OH2 4460   0.570   1.148   3.201  0.2773  0.4469  0.2743
 1499TIP3    H1 4461   0.654   1.156   3.247  0.1287  2.4532  0.2905
 1499TIP3    H2 4462   0.569   1.221   3.139 -1.2968  0.2345 -0.0035
 1500TIP3   OH2 4463   5.352   2.814   0.956 -0.1102  0.2835  0.1833
 1500TIP3    H1 4464   5.297   2.879   0.912 -1.5477  1.0730  2.8647
 1500TIP3    H2 4465   5.427   2.864   0.988  0.0636  0.0973  0.0637
 1501TIP3   OH2 4466   4.898   0.334   4.975  0.6387  0.4382 -0.3259
 1501TIP3    H1 4467   4.881   0.392   4.901 -1.3535 -1.4192 -1.4315
 1501TIP3    H2 4468   4.842   0.368   5.045 -0.2156  0.0858 -0.8352
 1502TIP3   OH2 4469   5.583   1.667   3.247 -0.3425  0.3551  1.5200
 1502TIP3    H1 4470   5.557   1.728   3.178 -0.4648 -1.8565 -0.4882
 1502TIP3    H2 4471   5.677   1.680   3.257 -0.1085 -0.0909  0.0791
 1503TIP3   OH2 4472   2.862   1.278   3.965  0.5168  0.0875  0.2116
 1503TIP3    H1 4473   2.777   1.291   4.007 -0.0342  0.0587 -0.8484
 1503TIP3    H2 4474   2.911   1.223   4.026 -0.0906  0.4195  1.0060
 1504TIP3   OH2 4475   4.571   2.630   3.749 -0.4420 -0.5723 -0.1404
 1504TIP3    H1 4476   4.623   2.573   3.693 -1.3403 -0.5871 -0.9863
 1504TIP3    H2 4477   4.480   2.606   3.731 -0.7913  0.2675  0.4172
 1505TIP3   OH2 4478   2.611   1.494   0.749 -0.4318 -0.2822 -0.7068
 1505TIP3    H1 4479   2.619   1.584   0.720  0.3778 -0.4305 -0.9862
 1505TIP3    H2 4480   2.583   1.445   0.672 -0.6704 -0.3008 -0.6090
 1506TIP3   OH2 4481   5.860   5.476   4.507  0.1471 -0.0851  0.0493
 1506TIP3    H1 4482   5.844   5.476   4.413 -1.0861  0.4013  0.2449
 1506TIP3    H2 4483   5.784   5.432   4.545  1.0654 -1.1022  0.7643
 1507TIP3   OH2 4484   2.911   0.205   4.713 -0.3926  0.5821  0.1091
 1507TIP3    H1 4485   2.972   0.277   4.697  0.8382 -0.6554 -1.0882
 1507TIP3    H2 4486   2.866   0.192   4.629  0.8732 -1.3037 -0.3483
 1508TIP3   OH2 4487   1.828   4.813   0.232 -0.4336 -0.0839 -0.0483
 1508TIP3    H1 4488   1.886   4.839   0.160 -0.0880 -1.8431 -0.4599
 1508TIP3    H2 4489   1.817   4.892   0.284  1.5859  0.5455 -0.4938
 1509TIP3   OH2 4490   5.937   3.311   1.657 -0.7121  0.6064 -0.3538
 1509TIP3    H1 4491   5.916   3.217   1.661 -2.2580  0.9658  1.6150
 1509TIP3    H2 4492   6.029   3.316   1.683 -1.0004 -0.2894  0.9462
 1510TIP3   OH2 4493   2.032   1.938   3.758  0.8119  0.4428 -0.2118
 1510TIP3    H1 4494   2.121   1.969   3.774  0.3689  0.9991  1.4282
 1510TIP3    H2 4495   2.024   1.861   3.815 -0.3752  1.6031  1.2646
 1511TIP3   OH2 4496   4.056   0.595   3.894  0.1525 -0.3937  0.7278
 1511TIP3    H1 4497   3.997   0.531   3.855 -0.6454 -0.0876  1.3922
 1511TIP3    H2 4498   4.019   0.611   3.981  0.7011  0.4854  0.8094
 1512TIP3   OH2 4499   2.626   0.670   5.737 -0.6164 -0.1863  0.3831
 1512TIP3    H1 4500   2.594   0.586   5.705  0.3022  0.1573 -1.6080
 1512TIP3    H2 4501   2.610   0.732   5.666  1.7000  0.5989  0.4266
 1513TIP3   OH2 4502   5.363   2.643   3.379 -0.6543  0.0932 -0.1430
 1513TIP3    H1 4503   5.348   2.624   3.472  0.7628 -1.4968 -0.2131
 1513TIP3    H2 4504   5.454   2.621   3.364 -0.9473 -0.0048 -2.0087
 1514TIP3   OH2 4505   6.745   5.525   0.741 -0.2524  0.0576  0.4009
 1514TIP3    H1 4506   6.816   5.581   0.709  0.0751 -0.5290  0.0754
 1514TIP3    H2 4507   6.789   5.444   0.769 -0.8760 -0.7523 -0.8312
 1515TIP3   OH2 4508   4.400   5.389   3.202 -0.3331  0.3409 -0.2426
 1515TIP3    H1 4509   4.418   5.302   3.238 -0.3902 -0.2668 -1.6230
 1515TIP3    H2 4510   4.449   5.392   3.120  2.3937  2.9062  1.3117
 1516TIP3   OH2 4511   1.584   2.737   3.982  0.0341  0.0387 -0.4882
 1516TIP3    H1 4512   1.514   2.709   4.041 -0.3081  0.1454 -0.8392
 1516TIP3    H2 4513   1.649   2.668   3.987  0.2735  0.3231  0.4650
 1517TIP3   OH2 4514   6.636   0.541   5.073  0.2911 -0.2323  0.1384
 1517TIP3    H1 4515   6.579   0.471   5.104 -0.3378  1.1528  2.3228
 1517TIP3    H2 4516   6.644   0.600   5.148  1.6585  1.4934 -1.2865
 1518TIP3   OH2 4517   5.044   3.084   5.425  0.4533  0.0402  0.2923
 1518TIP3    H1 4518   5.069   3.127   5.507 -0.1039 -0.3321  0.6587
 1518TIP3    H2 4519   4.951   3.067   5.433  0.3886 -0.0006 -0.4255
 1519TIP3   OH2 4520   5.969   1.268   1.688 -0.0728  0.3344  0.9724
 1519TIP3    H1 4521   5.900   1.319   1.646 -0.2840 -2.6650 -2.8265
 1519TIP3    H2 4522   6.051   1.311   1.661 -0.3198  0.8908  1.0995
 1520TIP3   OH2 4523   4.014   1.529   0.219 -0.6918 -0.0797  0.2996
 1520TIP3    H1 4524   4.000   1.435   0.210  0.4115 -0.3773  1.5543
 1520TIP3    H2 4525   4.108   1.538   0.236 -0.5998  1.3319 -0.8045
 1521TIP3   OH2 4526   6.060   5.014   0.698 -0.1059  0.0888 -0.1426
 1521TIP3    H1 4527   6.040   5.071   0.624  0.9503  0.2795 -0.2994
 1521TIP3    H2 4528   6.057   4.925   0.662  1.0917  0.2180 -0.5983
 1522TIP3   OH2 4529   6.679   3.554   0.789 -0.3077  0.0191 -0.3307
 1522TIP3    H1 4530   6.732   3.486   0.829 -1.0631 -0.2953  0.1613
 1522TIP3    H2 4531   6.690   3.541   0.695  1.6758  0.9114 -0.2711
 1523TIP3   OH2 4532   1.470   1.917   2.531  0.1240 -0.2654 -0.0724
 1523TIP3    H1 4533   1.506   1.973   2.600  1.9361  0.2092 -1.3142
 1523TIP3    H2 4534   1.539   1.913   2.465 -1.8234 -0.0172 -2.2661
 1524TIP3   OH2 4535   1.972   6.447   4.190  0.5388 -0.2888  0.1506
 1524TIP3    H1 4536   2.007   6.448   4.279 -1.1578 -0.4161  0.8345
 1524TIP3    H2 4537   1.879   6.467   4.199  0.3821 -0.0001 -1.6250
 1525TIP3   OH2 4538   5.108   2.024   0.344  0.6087 -0.0570 -0.1324
 1525TIP3    H1 4539   5.109   2.014   0.249 -3.7153  1.3339 -0.5701
 1525TIP3    H2 4540   5.191   2.066   0.365  1.4862  0.1134 -3.3643
 1526TIP3   OH2 4541   2.190   4.487   2.037 -0.0560  0.4634  0.0846
 1526TIP3    H1 4542   2.210   4.510   1.946  1.6822  2.0377  0.8028
 1526TIP3    H2 4543   2.276   4.470   2.076 -0.8430 -1.1168  1.2343
 1527TIP3   OH2 4544   0.024   2.549   2.606 -0.1235 -0.0871  0.2166
 1527TIP3    H1 4545   0.038   2.607   2.531 -0.6866  0.4606  0.5218
 1527TIP3    H2 4546   0.108   2.505   2.619  0.8664  1.8961  1.0205
 1528TIP3   OH2 4547   3.933   5.964   0.995 -0.1162 -0.3458  0.0591
 1528TIP3    H1 4548   3.919   5.873   1.020 -0.5077 -0.1838  0.4458
 1528TIP3    H2 4549   4.024   5.967   0.966  0.7297 -0.3151  2.5392
 1529TIP3   OH2 4550   5.541   3.208   1.590  0.6048 -0.4395 -0.2556
 1529TIP3    H1 4551   5.579   3.132   1.545  1.0341 -1.2744  1.4258
 1529TIP3    H2 4552   5.447   3.194   1.586  0.6409 -0.5125 -0.8729
 1530TIP3   OH2 4553   1.834   3.649   1.226 -0.4436  0.7457  1.0186
 1530TIP3    H1 4554   1.920   3.673   1.260  0.2172 -1.0965  0.7556
 1530TIP3    H2 4555   1.775   3.658   1.301  0.7026 -1.7074  2.3288
 1531TIP3   OH2 4556   4.454   0.476   2.739 -0.2135 -0.5984 -0.2963
 1531TIP3    H1 4557   4.528   0.415   2.734 -0.2634 -0.7276  0.4324
 1531TIP3    H2 4558   4.461   0.515   2.826  0.6423  1.5223 -1.2527
 1532TIP3   OH2 4559   1.864   0.330   1.000 -0.2592 -0.4083 -0.0714
 1532TIP3    H1 4560   1.936   0.319   1.062 -0.3473  0.6702  0.2378
 1532TIP3    H2 4561   1.785   0.319   1.053 -0.3292 -0.6898 -0.2326
 1533TIP3   OH2 4562   6.389   2.323   3.419  0.0651 -0.6013 -1.0602
 1533TIP3    H1 4563   6.469   2.271   3.412  0.3760 -0.3721  0.5922
 1533TIP3    H2 4564   6.379   2.341   3.512 -1.2371  0.4494 -1.3701
 1534TIP3   OH2 4565   0.858   5.493   2.384 -0.0474  0.2322  0.5988
 1534TIP3    H1 4566   0.848   5.578   2.426  0.1000  0.5377  0.0170
 1534TIP3    H2 4567   0.864   5.512   2.291  0.5337 -0.3681  0.5060
 1535TIP3   OH2 4568   0.379   2.057   0.104 -0.6078 -0.4251 -0.3216
 1535TIP3    H1 4569   0.463   2.024   0.072 -0.4099 -1.4481  1.1536
 1535TIP3    H2 4570   0.324   2.061   0.027  0.5801 -0.4294 -1.2011
 1536TIP3   OH2 4571   4.951   6.384   2.216 -0.0160 -0.2234 -0.2627
 1536TIP3    H1 4572   4.928   6.298   2.251 -1.5255 -0.8676 -2.6192
 1536TIP3    H2 4573   4.896   6.394   2.138  0.8504  2.4573 -0.6384
 1537TIP3   OH2 4574   6.848   1.599   0.957  0.3908  0.4692  0.1071
 1537TIP3    H1 4575   6.800   1.676   0.925  0.4312  0.1908 -0.6540
 1537TIP3    H2 4576   6.909   1.634   1.021 -0.1752  0.9562  0.3950
 1538TIP3   OH2 4577   4.282   0.499   0.705  0.0739 -0.4777 -0.5025
 1538TIP3    H1 4578   4.310   0.415   0.669  0.9225 -0.0396 -0.8914
 1538TIP3    H2 4579   4.349   0.561   0.676  0.0024  0.1489  0.6191
 1539TIP3   OH2 4580   4.820   5.459   4.068 -0.2291 -0.6450  0.2567
 1539TIP3    H1 4581   4.897   5.479   4.122  0.9708 -0.5480 -1.4053
 1539TIP3    H2 4582   4.751   5.516   4.103  0.7876  0.1747  1.0055
 1540TIP3   OH2 4583   2.942   5.666   0.616 -0.2778 -0.3513  0.0597
 1540TIP3    H1 4584   3.026   5.694   0.652  0.5244 -1.1595 -1.1154
 1540TIP3    H2 4585   2.958   5.577   0.585 -2.1365 -1.3519  1.7037
 1541TIP3   OH2 4586   5.025   6.260   0.734  0.2472 -0.0767 -0.3617
 1541TIP3    H1 4587   5.038   6.312   0.655  2.0056 -0.5620 -0.4440
 1541TIP3    H2 4588   4.970   6.315   0.790  0.1658  0.8886 -1.3480
 1542TIP3   OH2 4589   3.869   1.028   3.316 -0.6167 -0.3230  0.3013
 1542TIP3    H1 4590   3.855   1.106   3.263  3.1100  0.7749  0.6175
 1542TIP3    H2 4591   3.892   0.960   3.253 -1.2306 -0.4185  0.1835
 1543TIP3   OH2 4592   4.790   5.442   0.820  0.0967  0.1546 -0.7536
 1543TIP3    H1 4593   4.852   5.500   0.775  0.9806  0.3483  0.6586
 1543TIP3    H2 4594   4.763   5.491   0.898 -0.3080 -0.7323 -0.3217
 1544TIP3   OH2 4595   4.683   1.722   2.006 -0.3066  0.4989  0.2044
 1544TIP3    H1 4596   4.655   1.704   2.096 -0.6328 -0.3031 -0.0484
 1544TIP3    H2 4597   4.733   1.803   2.012 -1.1017  0.9496  0.9659
 1545TIP3   OH2 4598   0.130   6.750   2.069  0.0966 -0.0049 -0.1654
 1545TIP3    H1 4599   0.035   6.749   2.056  0.1049 -1.6082 -0.3474
 1545TIP3    H2 4600   0.163   6.680   2.013  0.9149 -2.1905  2.7627
 1546TIP3   OH2 4601   6.690   3.814   2.304  0.0111  0.0759 -0.7477
 1546TIP3    H1 4602   6.624   3.878   2.280  0.1976  0.9266  0.8451
 1546TIP3    H2 4603   6.732   3.851   2.382  0.7045 -1.5879 -0.2807
 1547TIP3   OH2 4604   0.766   4.993   2.460 -0.5615  0.2229  0.0640
 1547TIP3    H1 4605   0.780   5.087   2.458 -1.2053  0.3261  0.2346
 1547TIP3    H2 4606   0.687   4.981   2.514  0.0298 -0.4720  0.8031
 1548TIP3   OH2 4607   6.081   2.513   5.163  0.0350  0.0531 -0.2429
 1548TIP3    H1 4608   6.076   2.599   5.122  1.6766  0.4085  0.2210
 1548TIP3    H2 4609   6.172   2.486   5.151 -0.1045 -1.0071  0.8353
 1549TIP3   OH2 4610   0.534   5.834   0.619  0.0976  0.6527 -0.7298
 1549TIP3    H1 4611   0.574   5.775   0.556 -0.0399  0.6552 -0.8200
 1549TIP3    H2 4612   0.600   5.901   0.634  0.4102  0.2503 -0.3123
 1550TIP3   OH2 4613   1.523   2.156   1.206 -0.5017  0.4951  0.6430
 1550TIP3    H1 4614   1.506   2.082   1.148  0.1095  1.1845 -0.4410
 1550TIP3    H2 4615   1.570   2.118   1.280  1.4953  0.0293 -0.7687
 1551TIP3   OH2 4616   4.206   3.258   0.903  0.3061  0.0748 -0.3961
 1551TIP3    H1 4617   4.180   3.168   0.883 -0.1400  0.1475 -0.1495
 1551TIP3    H2 4618   4.272   3.279   0.837  1.5754 -0.9834  0.4949
 1552TIP3   OH2 4619   2.843   2.765   5.397  0.5515 -0.0859  0.3444
 1552TIP3    H1 4620   2.787   2.707   5.449  2.0529 -1.9937 -0.0501
 1552TIP3    H2 4621   2.886   2.821   5.461  0.4239 -0.6440  0.9284
 1553TIP3   OH2 4622   5.318   3.410   2.671 -0.1646  0.4995 -0.9223
 1553TIP3    H1 4623   5.395   3.363   2.640  0.3168 -0.5796  1.6420
 1553TIP3    H2 4624   5.331   3.500   2.642  0.6911 -0.1818 -2.8295
 1554TIP3   OH2 4625   1.235   3.868   4.732 -0.0632 -0.0491  0.1322
 1554TIP3    H1 4626   1.156   3.830   4.694 -0.5550  0.4297  0.6552
 1554TIP3    H2 4627   1.213   3.883   4.824  1.5246 -2.3834  1.0065
 1555TIP3   OH2 4628   2.022   0.295   1.233 -0.6776 -0.1959 -0.8687
 1555TIP3    H1 4629   2.114   0.319   1.237 -0.6887 -0.2606 -0.0529
 1555TIP3    H2 4630   1.982   0.341   1.308 -1.0539 -1.2093 -0.4311
 1556TIP3   OH2 4631   6.529   6.489   3.873  0.2904 -0.2312 -0.0754
 1556TIP3    H1 4632   6.570   6.562   3.826 -0.8119  0.2078 -0.4005
 1556TIP3    H2 4633   6.448   6.527   3.910  0.7732 -0.7464  1.5939
 1557TIP3   OH2 4634   1.708   3.054   5.537 -0.2996  0.1603  0.2415
 1557TIP3    H1 4635   1.661   3.013   5.609 -1.0091 -0.0788 -0.3423
 1557TIP3    H2 4636   1.675   3.009   5.459  3.0617 -2.2131 -0.0537
 1558TIP3   OH2 4637   2.532   1.821   4.399  0.7719  0.4496  0.3770
 1558TIP3    H1 4638   2.500   1.797   4.486 -1.1001 -0.4445 -0.4872
 1558TIP3    H2 4639   2.495   1.754   4.341  1.1168  1.5958 -1.2262
 1559TIP3   OH2 4640   1.290   4.452   3.884  0.1050 -0.0029 -0.0931
 1559TIP3    H1 4641   1.272   4.546   3.889 -0.7055 -0.0318 -1.6814
 1559TIP3    H2 4642   1.307   4.425   3.974  1.1279  1.8106  0.2867
 1560TIP3   OH2 4643   0.777   2.141   0.860 -0.3667  0.4406 -0.1185
 1560TIP3    H1 4644   0.794   2.059   0.906 -0.8521  0.5927  0.3443
 1560TIP3    H2 4645   0.771   2.116   0.768 -2.8842 -0.4437  0.2251
 1561TIP3   OH2 4646   6.930   4.440   4.472  0.5249 -0.4245  0.3486
 1561TIP3    H1 4647   6.972   4.414   4.390 -1.4898  0.4919 -1.0557
 1561TIP3    H2 4648   6.836   4.426   4.457  0.1087 -0.5671  2.6438
 1562TIP3   OH2 4649   4.209   2.991   3.570  0.3492 -0.2904 -0.3752
 1562TIP3    H1 4650   4.301   2.964   3.568 -0.5285 -4.3232  1.7961
 1562TIP3    H2 4651   4.174   2.963   3.485  0.5787 -1.3878 -0.1221
 1563TIP3   OH2 4652   6.762   2.629   3.089  0.0446  0.2163  0.1310
 1563TIP3    H1 4653   6.711   2.550   3.071  0.5757  0.2090 -1.5048
 1563TIP3    H2 4654   6.853   2.600   3.082  0.2458  0.7872  0.3775
 1564TIP3   OH2 4655   6.974   5.506   4.341 -0.1255  0.9135 -1.0420
 1564TIP3    H1 4656   7.028   5.510   4.420 -1.9200  2.3696  0.1720
 1564TIP3    H2 4657   6.945   5.415   4.336  0.8263  0.5741 -0.6238
 1565TIP3   OH2 4658   2.104   1.345   3.291 -0.3596  0.0591  0.7821
 1565TIP3    H1 4659   2.139   1.434   3.299  0.5814 -0.1818 -0.4002
 1565TIP3    H2 4660   2.062   1.343   3.205 -0.3172 -0.6669  0.7749
 1566TIP3   OH2 4661   4.293   1.812   2.912 -0.1218  0.2890  0.3877
 1566TIP3    H1 4662   4.286   1.721   2.942 -4.1124  0.2223 -0.1801
 1566TIP3    H2 4663   4.301   1.805   2.817  0.2420  0.5390  0.3982
 1567TIP3   OH2 4664   4.724   6.638   0.898 -0.2975 -0.8480  0.1918
 1567TIP3    H1 4665   4.646   6.586   0.917 -0.6940  0.1192  1.3756
 1567TIP3    H2 4666   4.797   6.578   0.913 -0.7834 -1.9347 -1.4832
 1568TIP3   OH2 4667   3.327   3.690   1.774  0.4862 -0.2392 -0.1778
 1568TIP3    H1 4668   3.247   3.716   1.730  0.4871 -1.3368 -0.8537
 1568TIP3    H2 4669   3.302   3.681   1.866 -0.3972 -1.4193 -0.5062
 1569TIP3   OH2 4670   2.376   0.059   4.426  0.2880 -0.6394  0.3547
 1569TIP3    H1 4671   2.391  -0.034   4.406 -0.7311 -0.5649 -0.8850
 1569TIP3    H2 4672   2.358   0.060   4.520  0.8056 -1.6349  0.4800
 1570TIP3   OH2 4673   3.731   2.104   1.735 -0.7604 -0.3401 -0.5842
 1570TIP3    H1 4674   3.761   2.155   1.811 -0.0765  0.7097 -1.5086
 1570TIP3    H2 4675   3.636   2.099   1.745 -0.6028 -1.1267  0.8621
 1571TIP3   OH2 4676   5.509   6.268   0.715  0.3818 -0.3967  0.3335
 1571TIP3    H1 4677   5.462   6.330   0.770  1.0816  0.2138  0.2503
 1571TIP3    H2 4678   5.502   6.185   0.762 -1.8607 -0.6422 -0.2817
 1572TIP3   OH2 4679   3.247   6.538   5.698 -0.2071  0.3651 -0.1821
 1572TIP3    H1 4680   3.314   6.585   5.647  0.9424 -0.5460  0.4359
 1572TIP3    H2 4681   3.165   6.583   5.677  0.3041  0.3852 -2.3896
 1573TIP3   OH2 4682   5.346   6.513   0.787 -0.1395  0.6618 -0.2962
 1573TIP3    H1 4683   5.287   6.523   0.862  1.8993  1.8651  1.2723
 1573TIP3    H2 4684   5.353   6.602   0.751  0.8110  0.5898 -0.3164
 1574TIP3   OH2 4685   5.984   5.512   0.161 -0.3130  0.5516  0.0882
 1574TIP3    H1 4686   6.030   5.476   0.236  0.4590  0.6320 -0.3392
 1574TIP3    H2 4687   6.051   5.558   0.110 -1.3611  3.4026  1.0562
 1575TIP3   OH2 4688   2.836   6.643   0.058  0.1271 -0.1294 -0.4298
 1575TIP3    H1 4689   2.882   6.562   0.040  0.9624  0.2192  0.0633
 1575TIP3    H2 4690   2.744   6.618   0.065  0.4526 -1.1372  0.3824
 1576TIP3   OH2 4691   4.127   5.685   5.506 -0.5901  0.4075  0.5556
 1576TIP3    H1 4692   4.102   5.628   5.433 -2.1646  1.9549 -0.1774
 1576TIP3    H2 4693   4.045   5.709   5.548 -0.1728  3.3124 -0.0795
 1577TIP3   OH2 4694   6.421   3.636   4.727 -0.0389  0.5860  0.1345
 1577TIP3    H1 4695   6.516   3.624   4.735  0.0466  0.7919 -0.5145
 1577TIP3    H2 4696   6.410   3.730   4.714 -0.3536  0.5973  0.4736
 1578TIP3   OH2 4697   3.013   4.095   0.041 -0.3948 -0.2217 -0.3664
 1578TIP3    H1 4698   3.033   4.006   0.012 -0.7262  0.2821 -2.2746
 1578TIP3    H2 4699   2.918   4.101   0.037 -0.3270  0.4942 -1.1745
 1579TIP3   OH2 4700   0.821   4.933   0.859  0.0709  0.3108  0.3191
 1579TIP3    H1 4701   0.831   4.943   0.764  2.8548  0.0841  0.4816
 1579TIP3    H2 4702   0.728   4.943   0.875 -0.2705  2.4014 -2.2228
 1580TIP3   OH2 4703   1.270   6.443   3.626 -0.2689  0.3442  0.1168
 1580TIP3    H1 4704   1.303   6.407   3.544  0.7797  0.1353  0.6282
 1580TIP3    H2 4705   1.189   6.488   3.600 -0.6720 -0.8488 -0.8092
 1581TIP3   OH2 4706   2.404   1.541   0.926 -0.1493 -0.4663 -0.0951
 1581TIP3    H1 4707   2.372   1.452   0.941 -1.6352  0.0995  0.2069
 1581TIP3    H2 4708   2.486   1.529   0.877 -0.7425 -1.9783 -0.7770
 1582TIP3   OH2 4709   6.889   0.863   2.415 -0.0749  0.3874 -0.3818
 1582TIP3    H1 4710   6.934   0.810   2.349  0.7352  0.0639  0.4052
 1582TIP3    H2 4711   6.916   0.825   2.499  1.2936  2.6112  0.2577
 1583TIP3   OH2 4712   3.563   3.409   4.404  0.1958 -0.0290 -0.4357
 1583TIP3    H1 4713   3.609   3.332   4.438 -0.7401 -0.7124 -0.6761
 1583TIP3    H2 4714   3.511   3.440   4.478 -0.4382 -0.4235 -0.7093
 1584TIP3   OH2 4715   1.243   0.425   5.788  0.0420  0.3948  0.4144
 1584TIP3    H1 4716   1.231   0.436   5.694  1.2626 -0.9515  0.0546
 1584TIP3    H2 4717   1.337   0.434   5.801  0.0937 -1.0371  1.2397
 1585TIP3   OH2 4718   4.199   3.502   2.143  0.4108 -0.2548  0.1465
 1585TIP3    H1 4719   4.201   3.451   2.061  0.0149 -0.4994  0.2863
 1585TIP3    H2 4720   4.183   3.437   2.211 -1.2563  0.1838  0.2121
 1586TIP3   OH2 4721   1.619   5.570   2.678  0.1638  0.5045 -0.0446
 1586TIP3    H1 4722   1.632   5.540   2.588 -0.7526  2.7090 -0.9837
 1586TIP3    H2 4723   1.535   5.533   2.704 -0.4128  1.2661 -0.7678
 1587TIP3   OH2 4724   5.913   6.344   2.815  0.1760  0.4948 -0.1487
 1587TIP3    H1 4725   5.975   6.273   2.833 -0.4625 -0.5260 -1.7434
 1587TIP3    H2 4726   5.964   6.407   2.764  0.4886  0.7382  0.4550
 1588TIP3   OH2 4727   3.129   2.191   4.635 -0.2457  0.0918  0.2050
 1588TIP3    H1 4728   3.092   2.250   4.570 -0.2313  0.1017  0.2057
 1588TIP3    H2 4729   3.121   2.104   4.595  0.9688  0.2220 -0.3788
 1589TIP3   OH2 4730   0.513   5.476   4.328 -0.3132  0.0103  0.5480
 1589TIP3    H1 4731   0.435   5.521   4.359 -0.6987 -0.4686  0.2983
 1589TIP3    H2 4732   0.560   5.541   4.276 -1.6021 -0.2762 -1.0318
 1590TIP3   OH2 4733   5.948   0.644   5.067 -0.6869 -0.0026 -0.3471
 1590TIP3    H1 4734   6.005   0.571   5.044 -1.3918 -0.4027 -0.8617
 1590TIP3    H2 4735   5.942   0.696   4.987 -1.1390 -0.0303 -0.3338
 1591TIP3   OH2 4736   1.206   3.218   3.654  0.5559 -0.1493  0.5222
 1591TIP3    H1 4737   1.152   3.272   3.595 -0.4916 -0.7672  0.8978
 1591TIP3    H2 4738   1.292   3.260   3.651  0.3241  0.3062 -0.8264
 1592TIP3   OH2 4739   6.912   5.241   4.374  0.0533  0.1988  0.0471
 1592TIP3    H1 4740   6.948   5.178   4.310  1.5039  0.1156  0.8880
 1592TIP3    H2 4741   6.940   5.206   4.459  0.0165  1.4627  0.5898
 1593TIP3   OH2 4742   5.173   1.891   5.007  0.1938  0.1837 -0.0974
 1593TIP3    H1 4743   5.178   1.944   5.086 -0.4614  0.7287 -0.4140
 1593TIP3    H2 4744   5.253   1.913   4.959  1.3044 -1.2134  1.0499
 1594TIP3   OH2 4745   5.499   2.217   5.374 -0.2367  0.1009  0.3812
 1594TIP3    H1 4746   5.424   2.215   5.433  0.7310 -0.9514  1.6470
 1594TIP3    H2 4747   5.461   2.223   5.286 -1.7810 -0.3477  0.9931
 1595TIP3   OH2 4748   4.331   5.117   2.339 -0.2353 -0.2404  0.0226
 1595TIP3    H1 4749   4.288   5.088   2.419 -0.3735  0.1633  0.0977
 1595TIP3    H2 4750   4.285   5.070   2.269 -1.4148  0.8606  0.0264
 1596TIP3   OH2 4751   4.006   0.170   3.932  0.2921 -0.4712 -0.7909
 1596TIP3    H1 4752   4.101   0.167   3.929  0.3250 -0.0665 -3.7992
 1596TIP3    H2 4753   3.981   0.224   3.856 -2.3115  1.1515  1.0065
 1597TIP3   OH2 4754   3.757   5.919   3.619 -0.3731 -0.1116  0.2698
 1597TIP3    H1 4755   3.803   5.990   3.665 -1.2309 -0.4336  1.6861
 1597TIP3    H2 4756   3.827   5.866   3.582  0.2997  2.0381 -1.8196
 1598TIP3   OH2 4757   0.057   0.758   4.121 -0.1215 -0.0255  0.4551
 1598TIP3    H1 4758   0.063   0.843   4.166 -0.8733  0.2050  0.1321
 1598TIP3    H2 4759  -0.017   0.767   4.062  0.4528 -0.5454 -0.3748
 1599TIP3   OH2 4760   5.184   3.381   4.997  0.3456 -0.0470 -0.1652
 1599TIP3    H1 4761   5.109   3.340   5.039  0.5510 -0.7944 -0.5085
 1599TIP3    H2 4762   5.260   3.337   5.036  0.5593 -0.1876 -0.7241
 1600TIP3   OH2 4763   0.850   3.407   0.095  0.3603 -0.1276 -0.2063
 1600TIP3    H1 4764   0.862   3.466   0.169  0.2546  0.3072 -0.5311
 1600TIP3    H2 4765   0.915   3.435   0.031  1.8375 -1.7962  0.4977
 1601TIP3   OH2 4766   2.373   0.118   2.693 -0.5670  0.5671  0.2074
 1601TIP3    H1 4767   2.378   0.174   2.770  0.2669  1.6647 -0.5998
 1601TIP3    H2 4768   2.413   0.170   2.623 -1.6152 -0.2485 -1.0560
 1602TIP3   OH2 4769   3.765   2.749   2.215 -0.1343 -0.5310  0.3501
 1602TIP3    H1 4770   3.706   2.780   2.146 -0.2717 -2.1494 -0.3018
 1602TIP3    H2 4771   3.725   2.668   2.247  0.9509 -0.8498  0.9659
 1603TIP3   OH2 4772   1.650   2.462   2.704 -0.1811  0.4110  0.1002
 1603TIP3    H1 4773   1.618   2.378   2.670 -0.7272  1.0987 -1.1311
 1603TIP3    H2 4774   1.572   2.504   2.741  0.3695 -0.2459  2.1084
 1604TIP3   OH2 4775   3.922   3.594   1.531  0.1834  0.1921 -0.3686
 1604TIP3    H1 4776   4.016   3.583   1.547 -0.2725 -1.6330  1.4671
 1604TIP3    H2 4777   3.914   3.596   1.436  2.2771  2.7357 -0.6030
 1605TIP3   OH2 4778   6.882   6.622   2.939  0.6874  0.1504 -0.0176
 1605TIP3    H1 4779   6.916   6.624   2.849  1.4982 -0.6488  0.2525
 1605TIP3    H2 4780   6.788   6.633   2.929  0.8322  0.7715 -0.9125
 1606TIP3   OH2 4781   7.147   4.661   2.260  0.6496 -0.2062 -0.4812
 1606TIP3    H1 4782   7.108   4.748   2.257 -1.6249 -1.1717 -1.5144
 1606TIP3    H2 4783   7.147   4.631   2.169 -0.2447 -1.9120  0.0341
 1607TIP3   OH2 4784   1.709   0.493   2.598 -0.3130 -0.2814 -0.1785
 1607TIP3    H1 4785   1.798   0.470   2.627 -0.2492  0.5814  0.3664
 1607TIP3    H2 4786   1.658   0.496   2.679 -0.2088  1.8583 -0.1416
 1608TIP3   OH2 4787   2.338   1.501   0.477 -0.2047 -0.2004 -0.6546
 1608TIP3    H1 4788   2.243   1.512   0.491 -0.3637 -2.6002  0.6084
 1608TIP3    H2 4789   2.345   1.476   0.385 -0.8980 -0.8797 -0.5351
 1609TIP3   OH2 4790   3.779   3.722   4.314  0.2023 -0.1001  0.0467
 1609TIP3    H1 4791   3.829   3.796   4.280 -1.9879  0.9216 -1.2174
 1609TIP3    H2 4792   3.788   3.728   4.409  0.9705  1.1116 -0.0876
 1610TIP3   OH2 4793   3.510   6.376   5.777 -0.1343 -0.0720  0.2829
 1610TIP3    H1 4794   3.502   6.466   5.807 -1.1949 -0.2383  0.5653
 1610TIP3    H2 4795   3.513   6.383   5.681 -0.9719  0.2285  0.2713
 1611TIP3   OH2 4796   6.206   1.122   2.390 -0.0234  0.1001  0.3141
 1611TIP3    H1 4797   6.175   1.205   2.426  1.2298  1.0496 -0.6994
 1611TIP3    H2 4798   6.153   1.107   2.312  1.5325  1.4078 -1.0692
 1612TIP3   OH2 4799   2.482   5.928   2.146  0.3340  0.0751  0.2204
 1612TIP3    H1 4800   2.390   5.939   2.171  0.4853 -0.6212  1.1604
 1612TIP3    H2 4801   2.527   6.003   2.184  0.2253  0.1560  0.1876
 1613TIP3   OH2 4802   3.216  -0.010   2.428 -0.7357  0.3257 -0.5466
 1613TIP3    H1 4803   3.131   0.014   2.391 -0.8160 -1.5890 -1.6966
 1613TIP3    H2 4804   3.205   0.004   2.523 -2.3825 -0.0525 -0.6525
 1614TIP3   OH2 4805   5.415   5.451   5.851 -0.3567 -0.4554  0.0407
 1614TIP3    H1 4806   5.364   5.518   5.806 -0.8831 -0.1304  1.0913
 1614TIP3    H2 4807   5.466   5.498   5.916 -1.1929 -1.1152  1.2068
 1615TIP3   OH2 4808   1.152   1.212   0.513 -0.0650  0.4262  0.5183
 1615TIP3    H1 4809   1.201   1.240   0.590 -0.4563 -1.1017  1.3631
 1615TIP3    H2 4810   1.144   1.117   0.522 -2.2334  0.4769 -0.1392
 1616TIP3   OH2 4811   6.063   0.426   0.178  0.5120 -0.5395 -0.0135
 1616TIP3    H1 4812   6.080   0.351   0.235 -0.3587  0.5085  1.6994
 1616TIP3    H2 4813   6.115   0.408   0.099  2.4565 -1.6279  1.4168
 1617TIP3   OH2 4814   0.117   5.925   4.322 -0.0366 -0.1292 -0.5038
 1617TIP3    H1 4815   0.050   5.871   4.366 -0.3708  1.1407  0.5931
 1617TIP3    H2 4816   0.072   5.959   4.245 -0.0508 -0.8111 -0.8073
 1618TIP3   OH2 4817   2.531   4.282   5.244 -0.6360  0.1857  0.3044
 1618TIP3    H1 4818   2.483   4.259   5.165 -0.9652 -0.5311  0.6953
 1618TIP3    H2 4819   2.546   4.198   5.288 -0.0445  0.5207  0.7687
 1619TIP3   OH2 4820   4.355   3.346   4.964 -0.5243  0.1348 -0.1944
 1619TIP3    H1 4821   4.444   3.379   4.976 -0.7918  0.4468  1.0462
 1619TIP3    H2 4822   4.366   3.259   4.925  0.3405  0.0372  0.2588
 1620TIP3   OH2 4823   5.902   1.929   0.391 -0.2980  0.4443 -0.3318
 1620TIP3    H1 4824   5.939   2.002   0.441  0.7143 -1.5974  2.0991
 1620TIP3    H2 4825   5.821   1.907   0.437 -0.9904  0.4661 -1.4956
 1621TIP3   OH2 4826   0.899   5.922   5.676 -0.2263  0.1265 -0.3033
 1621TIP3    H1 4827   0.975   5.934   5.733 -0.8984  1.8613  0.2696
 1621TIP3    H2 4828   0.907   5.991   5.611 -0.2987 -0.8951 -1.4227
 1622TIP3   OH2 4829   1.974   6.647   1.131  0.3435 -0.1312 -0.3257
 1622TIP3    H1 4830   2.051   6.703   1.138  0.8558 -0.7440 -0.8239
 1622TIP3    H2 4831   1.904   6.706   1.103  1.4518 -0.0946 -3.4975
 1623TIP3   OH2 4832   2.234   1.610   0.203  0.0103  0.3422 -0.7868
 1623TIP3    H1 4833   2.235   1.706   0.204  1.0205  0.3617  0.6944
 1623TIP3    H2 4834   2.324   1.586   0.184  0.6487 -0.2206  2.4240
 1624TIP3   OH2 4835   1.116   6.254   2.076 -0.8837  0.4547 -0.5854
 1624TIP3    H1 4836   1.207   6.283   2.081 -0.1805 -1.7189  1.4303
 1624TIP3    H2 4837   1.065   6.332   2.097  0.7228  1.0518  1.5807
 1625TIP3   OH2 4838   0.837   3.138   0.936  0.2754 -0.4818 -0.1927
 1625TIP3    H1 4839   0.932   3.153   0.942 -0.0363  1.9031 -0.1830
 1625TIP3    H2 4840   0.822   3.120   0.843  0.8306 -1.9432 -0.0271
 1626TIP3   OH2 4841   5.844   0.897   0.251  0.3968 -0.5998 -0.1130
 1626TIP3    H1 4842   5.837   0.984   0.291  1.1692 -0.8494  0.5741
 1626TIP3    H2 4843   5.921   0.903   0.195  0.4464 -0.8504 -0.0698
 1627TIP3   OH2 4844   7.184   6.035   3.680 -0.4723  0.8958  0.1732
 1627TIP3    H1 4845   7.217   6.086   3.606 -1.3751 -1.1808 -1.7699
 1627TIP3    H2 4846   7.204   5.944   3.658  1.0493  0.2710  3.4870
 1628TIP3   OH2 4847   2.570   1.003   2.999 -0.6605 -0.1210 -0.0993
 1628TIP3    H1 4848   2.663   1.000   3.020 -0.7556 -0.5313  0.2676
 1628TIP3    H2 4849   2.531   1.053   3.070 -0.4983  1.5585 -1.1111
 1629TIP3   OH2 4850   4.881   5.158   2.530 -0.5106  0.0772 -0.3380
 1629TIP3    H1 4851   4.812   5.114   2.581 -1.2952  1.5690 -0.0646
 1629TIP3    H2 4852   4.884   5.247   2.566 -0.3980  0.8812 -2.2468
 1630TIP3   OH2 4853   3.647   6.407   5.160  0.2573  0.2231 -0.3374
 1630TIP3    H1 4854   3.690   6.380   5.241  0.9587  1.0432 -0.4201
 1630TIP3    H2 4855   3.558   6.429   5.185 -0.3646 -2.1377 -0.2689
 1631TIP3   OH2 4856   1.300   5.131   2.026 -0.5358  0.1191  0.4097
 1631TIP3    H1 4857   1.300   5.131   2.122  1.0713  1.9991  0.4844
 1631TIP3    H2 4858   1.358   5.059   2.002 -0.0106  0.3552  0.9209
 1632TIP3   OH2 4859   0.684   6.271   4.852  0.1860  0.2914 -0.1295
 1632TIP3    H1 4860   0.638   6.251   4.771  0.1286 -0.5820  0.1062
 1632TIP3    H2 4861   0.666   6.196   4.909 -0.0309  1.0345  0.8025
 1633TIP3   OH2 4862   1.209   4.546   5.123  0.1602  0.0555  0.0419
 1633TIP3    H1 4863   1.115   4.558   5.136  0.0581 -0.8708  0.2504
 1633TIP3    H2 4864   1.234   4.615   5.061 -0.8419 -0.2560 -0.7430
 1634TIP3   OH2 4865   6.943   4.929   5.036 -0.0006 -0.4719 -0.0467
 1634TIP3    H1 4866   6.865   4.985   5.034  0.2225  0.0505  2.5913
 1634TIP3    H2 4867   6.908   4.840   5.037 -0.7094 -0.2400  2.5171
 1635TIP3   OH2 4868   6.449   2.743   1.896 -0.5408  0.5819  0.1256
 1635TIP3    H1 4869   6.515   2.728   1.829 -3.1473  0.1620 -2.5541
 1635TIP3    H2 4870   6.499   2.760   1.976  2.7415 -0.7764 -1.4574
 1636TIP3   OH2 4871   6.175   5.793   2.138 -0.5662 -0.2775  0.4712
 1636TIP3    H1 4872   6.146   5.881   2.111 -0.4458 -0.1095  0.8779
 1636TIP3    H2 4873   6.265   5.787   2.105 -0.3870 -0.0367  0.9034
 1637TIP3   OH2 4874   1.883   4.151   0.172 -0.3668  0.2782  0.5839
 1637TIP3    H1 4875   1.868   4.198   0.254  3.4115  0.7611  1.1633
 1637TIP3    H2 4876   1.883   4.059   0.196 -0.1695  0.3746  0.9585
 1638TIP3   OH2 4877   3.046   4.139   0.682  0.2733  0.5538 -0.2780
 1638TIP3    H1 4878   3.004   4.215   0.640 -0.9537 -0.2442 -0.5420
 1638TIP3    H2 4879   3.138   4.165   0.691  0.1721  1.5156 -1.6636
 1639TIP3   OH2 4880   0.559   5.867   1.265 -0.2659 -0.1520 -0.3542
 1639TIP3    H1 4881   0.474   5.913   1.268 -1.2749 -1.9667  0.4466
 1639TIP3    H2 4882   0.585   5.859   1.356  0.1118 -0.7542 -0.5140
 1640TIP3   OH2 4883   0.978   3.213   5.106  0.0329 -0.2502 -0.0232
 1640TIP3    H1 4884   1.043   3.205   5.036 -1.2697 -0.5496 -1.2284
 1640TIP3    H2 4885   0.945   3.124   5.118 -0.0047 -0.1356  0.7311
 1641TIP3   OH2 4886   6.668   1.369   4.184  0.1485 -0.2120 -0.5451
 1641TIP3    H1 4887   6.737   1.402   4.242 -0.2597  1.6076 -1.0162
 1641TIP3    H2 4888   6.709   1.296   4.137  1.1907 -0.2756  0.4243
 1642TIP3   OH2 4889   3.109   3.466   4.294  0.3057  0.4128  0.2163
 1642TIP3    H1 4890   3.029   3.421   4.318  0.6201  0.5142  1.5050
 1642TIP3    H2 4891   3.080   3.553   4.266 -0.0039  0.6544  1.2395
 1643TIP3   OH2 4892   0.383   0.193   4.202 -0.5511 -0.2673  0.2330
 1643TIP3    H1 4893   0.318   0.255   4.167 -1.1846 -0.8306  0.3800
 1643TIP3    H2 4894   0.347   0.168   4.288 -1.3201 -2.3151 -0.6291
 1644TIP3   OH2 4895   1.386   2.827   3.266  0.0981  0.3345 -0.4563
 1644TIP3    H1 4896   1.416   2.844   3.177  0.0337 -0.1774 -0.5768
 1644TIP3    H2 4897   1.422   2.899   3.317 -0.9438  1.3501 -1.1113
 1645TIP3   OH2 4898   0.065   6.400   2.360 -0.1487 -0.2903  0.1901
 1645TIP3    H1 4899   0.113   6.483   2.360  1.2758 -1.0817 -0.7162
 1645TIP3    H2 4900   0.059   6.376   2.268 -0.7337 -1.1027  0.4278
 1646TIP3   OH2 4901   0.367   3.790   5.287  0.1004 -0.1199  0.7417
 1646TIP3    H1 4902   0.279   3.755   5.300  0.0818 -0.9843 -1.3271
 1646TIP3    H2 4903   0.356   3.885   5.296 -1.0835 -0.2045  0.3197
 1647TIP3   OH2 4904   2.614   1.432   0.434 -0.0020  0.1409  0.3855
 1647TIP3    H1 4905   2.527   1.429   0.474 -0.1329 -0.6716  0.0732
 1647TIP3    H2 4906   2.640   1.524   0.437 -0.9819  0.4242  0.2524
 1648TIP3   OH2 4907   1.855   5.143   3.474  0.2540 -0.1826 -0.2128
 1648TIP3    H1 4908   1.805   5.175   3.549 -1.2208  1.5085 -1.8307
 1648TIP3    H2 4909   1.945   5.137   3.506 -0.2258  1.0859  1.5104
 1649TIP3   OH2 4910   2.093   4.603   4.404  0.3787 -0.4853 -0.2320
 1649TIP3    H1 4911   2.004   4.635   4.417  0.5916 -0.0193  0.1194
 1649TIP3    H2 4912   2.093   4.569   4.314  0.5695  2.0502 -1.2844
 1650TIP3   OH2 4913   2.377   0.948   2.236  0.3366 -0.0298  0.4811
 1650TIP3    H1 4914   2.446   0.909   2.181 -0.3943 -0.8463  0.1199
 1650TIP3    H2 4915   2.420   1.020   2.281  1.4648 -0.5969  0.3449
 1651TIP3   OH2 4916   7.219   4.232   0.879 -0.0440 -0.3598 -0.6220
 1651TIP3    H1 4917   7.243   4.325   0.883  1.7963 -0.8157  0.0974
 1651TIP3    H2 4918   7.129   4.232   0.846  0.1419  1.6331 -1.2799
 1652TIP3   OH2 4919   1.864   5.415   4.741 -0.0066  0.0612 -0.1343
 1652TIP3    H1 4920   1.840   5.505   4.720 -1.4028 -0.2664 -0.0461
 1652TIP3    H2 4921   1.784   5.365   4.726 -0.0749 -0.7576  2.4907
 1653TIP3   OH2 4922   3.940   3.890   1.956 -0.0542  0.6667 -0.3447
 1653TIP3    H1 4923   3.908   3.809   1.917  0.8560  0.5298 -0.8265
 1653TIP3    H2 4924   4.003   3.862   2.022 -0.3126  0.9588  0.0310
 1654TIP3   OH2 4925   0.430   4.659   1.538 -0.2153 -0.7787 -0.4884
 1654TIP3    H1 4926   0.407   4.587   1.479  0.4551 -0.1447 -1.5637
 1654TIP3    H2 4927   0.397   4.632   1.623  0.8027 -2.7464 -0.6781
 1655TIP3   OH2 4928   1.834   4.177   2.615 -0.1236  0.0912 -0.1327
 1655TIP3    H1 4929   1.806   4.202   2.527 -1.5885  0.2925  0.3614
 1655TIP3    H2 4930   1.874   4.257   2.651  1.0207 -0.1634 -0.8090
 1656TIP3   OH2 4931   5.419   5.468   0.955  0.0666  0.4235 -0.0583
 1656TIP3    H1 4932   5.401   5.560   0.937 -2.3612 -0.0383 -0.3980
 1656TIP3    H2 4933   5.399   5.457   1.048  0.6391  0.2947  0.0525
 1657TIP3   OH2 4934   5.701   2.410   4.794 -0.3277  0.0708 -0.2878
 1657TIP3    H1 4935   5.620   2.395   4.842  0.2353  0.5867  0.8589
 1657TIP3    H2 4936   5.767   2.359   4.840  0.2720  0.7718 -0.3429
 1658TIP3   OH2 4937   6.525   0.265   4.924  0.0412  0.3570 -0.2133
 1658TIP3    H1 4938   6.612   0.231   4.946 -0.2098  0.1374  0.4658
 1658TIP3    H2 4939   6.481   0.192   4.881 -0.7418 -0.4578  1.8680
 1659TIP3   OH2 4940   6.850   1.332   2.610  0.1281  0.1177  0.4008
 1659TIP3    H1 4941   6.762   1.296   2.622  0.0276  0.4895  0.7734
 1659TIP3    H2 4942   6.898   1.262   2.566 -0.5786  0.2064 -0.5505
 1660TIP3   OH2 4943   2.196   4.995   2.008  0.0010 -0.4110 -0.3649
 1660TIP3    H1 4944   2.261   4.959   1.948 -0.0939  0.1415 -0.8031
 1660TIP3    H2 4945   2.211   5.089   2.007 -0.6093 -0.3096 -0.2362
 1661TIP3   OH2 4946   3.433   6.127   2.536  1.0715  0.0365  0.4248
 1661TIP3    H1 4947   3.480   6.159   2.459  0.8568 -0.0653  0.2517
 1661TIP3    H2 4948   3.355   6.084   2.501  0.0561  1.5067  0.7691
 1662TIP3   OH2 4949   3.205   6.143   1.897 -0.3342 -0.0196  0.1320
 1662TIP3    H1 4950   3.245   6.062   1.930  0.9790  0.1172 -1.0236
 1662TIP3    H2 4951   3.125   6.114   1.854 -0.2920 -0.6085  0.4329
 1663TIP3   OH2 4952   3.298   2.583   2.508  0.0225 -0.2731 -0.0793
 1663TIP3    H1 4953   3.279   2.676   2.520  1.2645 -0.1291  0.9850
 1663TIP3    H2 4954   3.286   2.568   2.414 -0.2128  0.9476 -0.2589
 1664TIP3   OH2 4955   1.967   3.637   4.847 -0.1076 -0.3668 -0.6504
 1664TIP3    H1 4956   1.886   3.665   4.889  0.1511  1.8642 -1.5108
 1664TIP3    H2 4957   1.960   3.541   4.844 -1.6391 -0.3814  1.3533
 1665TIP3   OH2 4958   3.314   1.409   1.598  0.0903 -0.0225  0.8213
 1665TIP3    H1 4959   3.368   1.352   1.544  0.1464  0.4702  0.3547
 1665TIP3    H2 4960   3.226   1.400   1.561  0.0228 -0.1263  1.0080
 1666TIP3   OH2 4961   0.575   4.278   3.773 -0.5685 -0.6906 -0.1185
 1666TIP3    H1 4962   0.636   4.224   3.825 -0.4525  0.0426  0.5186
 1666TIP3    H2 4963   0.552   4.350   3.831  1.3059  1.4151 -1.8264
 1667TIP3   OH2 4964   6.211   1.245   3.613  0.3853 -0.5440  0.2433
 1667TIP3    H1 4965   6.188   1.338   3.612  0.3020 -0.5587  0.5901
 1667TIP3    H2 4966   6.139   1.203   3.567  0.0195 -0.5191  0.7774
 1668TIP3   OH2 4967   6.834   2.034   5.000  0.2944  0.1849 -0.1094
 1668TIP3    H1 4968   6.750   2.005   4.966 -0.1460 -0.5554  1.5415
 1668TIP3    H2 4969   6.896   1.968   4.969  0.1906  0.4481 -0.8894
 1669TIP3   OH2 4970   4.438   0.402   1.101  0.1197  0.5239  0.0955
 1669TIP3    H1 4971   4.358   0.454   1.111  0.1029  0.1451  2.4848
 1669TIP3    H2 4972   4.486   0.445   1.031 -1.0392  2.2432  0.2919
 1670TIP3   OH2 4973   5.911   6.498   0.502  0.1054  0.1439 -0.1086
 1670TIP3    H1 4974   5.860   6.536   0.430  1.9278  2.2666 -0.3817
 1670TIP3    H2 4975   5.928   6.408   0.475 -0.9947  0.2834 -1.3560
 1671TIP3   OH2 4976   0.944   1.060   1.646 -0.7253  0.4844  0.5200
 1671TIP3    H1 4977   0.991   1.134   1.607 -0.6780 -0.6189 -1.6687
 1671TIP3    H2 4978   0.886   1.030   1.577 -3.1048  0.4100  2.4136
 1672TIP3   OH2 4979   6.301   5.277   4.866 -0.4246  0.0732 -0.0463
 1672TIP3    H1 4980   6.384   5.287   4.913 -0.1903 -1.1109 -0.1700
 1672TIP3    H2 4981   6.315   5.201   4.809 -1.1330  0.7094 -1.1049
 1673TIP3   OH2 4982   2.876   0.766   0.339  0.0445 -0.2158  0.0776
 1673TIP3    H1 4983   2.805   0.809   0.292  0.2957 -0.7895 -0.8561
 1673TIP3    H2 4984   2.837   0.684   0.370 -0.7522  1.0693  2.7834
 1674TIP3   OH2 4985   1.723   6.203   5.700  0.1423  0.2080 -0.0032
 1674TIP3    H1 4986   1.681   6.171   5.621 -0.6981 -0.4567  0.6950
 1674TIP3    H2 4987   1.757   6.125   5.744 -1.3494  0.2896  1.3838
 1675TIP3   OH2 4988   2.566   5.913   1.880 -0.7882 -0.4510  0.1775
 1675TIP3    H1 4989   2.601   6.002   1.881  1.3983 -1.2239  2.0497
 1675TIP3    H2 4990   2.572   5.884   1.971 -0.3913 -2.8632 -0.5421
 1676TIP3   OH2 4991   5.090   0.271   2.603  0.3859 -0.4751 -0.4486
 1676TIP3    H1 4992   5.020   0.336   2.607 -0.7822 -1.6959 -0.5373
 1676TIP3    H2 4993   5.111   0.264   2.509  0.7164 -0.0409 -0.4129
 1677TIP3   OH2 4994   4.179   0.584   1.645  0.0753  0.3242  0.1345
 1677TIP3    H1 4995   4.120   0.578   1.720  1.1976  0.0603  1.0160
 1677TIP3    H2 4996   4.263   0.552   1.677  1.1192  2.1440 -0.6454
 1678TIP3   OH2 4997   2.365   6.106   3.188 -0.0580 -0.7413  0.0309
 1678TIP3    H1 4998   2.453   6.068   3.178 -0.5365 -1.8434 -0.1253
 1678TIP3    H2 4999   2.350   6.154   3.107 -0.0423 -1.5099 -0.4410
 1679TIP3   OH2 5000   5.036   0.328   3.055 -0.4277  0.0272  0.4821
 1679TIP3    H1 5001   5.113   0.315   3.000 -1.0299  0.5242 -0.5067
 1679TIP3    H2 5002   5.071   0.336   3.144  0.4613 -2.0397  0.3660
 1680TIP3   OH2 5003   2.491   5.652   2.698  0.1535 -0.0935  0.2646
 1680TIP3    H1 5004   2.437   5.731   2.692 -0.4834 -0.4524  1.1147
 1680TIP3    H2 5005   2.473   5.606   2.616  0.4138  0.5632 -0.1708
 1681TIP3   OH2 5006   0.129   1.196   5.068 -0.0204  0.0536 -0.1311
 1681TIP3    H1 5007   0.049   1.242   5.043  1.3084  2.0534 -0.9649
 1681TIP3    H2 5008   0.173   1.257   5.128 -0.2589 -2.0753  2.3691
 1682TIP3   OH2 5009   2.422   1.611   5.293  0.1028  0.0970 -0.1045
 1682TIP3    H1 5010   2.326   1.614   5.291  0.0992 -0.1149 -0.4488
 1682TIP3    H2 5011   2.446   1.668   5.365 -0.2132  1.7489 -1.2602
 1683TIP3   OH2 5012   4.482   0.424   4.606 -0.0950 -0.3301 -0.5567
 1683TIP3    H1 5013   4.466   0.401   4.697  0.2803 -1.2434 -0.7006
 1683TIP3    H2 5014   4.395   0.441   4.570 -0.2414  0.0645 -0.0221
 1684TIP3   OH2 5015   5.730   3.387   1.029  0.3326 -0.5339 -0.1476
 1684TIP3    H1 5016   5.674   3.464   1.016  0.8448 -0.1785 -0.2597
 1684TIP3    H2 5017   5.807   3.404   0.975  1.2057 -0.3490  1.1084
 1685TIP3   OH2 5018   4.599   0.731   3.819 -0.2548 -0.0675 -0.3685
 1685TIP3    H1 5019   4.629   0.657   3.766  0.8889 -1.2954  1.8599
 1685TIP3    H2 5020   4.658   0.803   3.796  1.5024 -1.1407  0.5846
 1686TIP3   OH2 5021   2.187   2.062   2.318  0.1351  0.0681 -0.5078
 1686TIP3    H1 5022   2.140   2.015   2.387  1.0941  0.2941  0.3328
 1686TIP3    H2 5023   2.135   2.141   2.303 -0.5281 -0.3845 -0.6501
 1687TIP3   OH2 5024   1.387   4.432   5.415  0.1195  0.3443 -0.7591
 1687TIP3    H1 5025   1.412   4.477   5.334  1.1500 -1.6315 -1.6186
 1687TIP3    H2 5026   1.418   4.490   5.485  1.8856  0.7488 -1.8072
 1688TIP3   OH2 5027   1.393   4.817   4.178 -0.2110  0.3414 -0.1391
 1688TIP3    H1 5028   1.353   4.885   4.232  0.6082  0.9915 -0.3229
 1688TIP3    H2 5029   1.461   4.779   4.234  1.5842  1.9458 -1.0837
 1689TIP3   OH2 5030   6.778   1.420   1.545  0.0685 -0.3029 -0.5987
 1689TIP3    H1 5031   6.736   1.439   1.629  3.6048  3.2865  0.6566
 1689TIP3    H2 5032   6.838   1.348   1.565  0.7437  0.3953 -0.0322
 1690TIP3   OH2 5033   5.293   0.455   0.543  0.3189  0.7746 -0.2635
 1690TIP3    H1 5034   5.353   0.517   0.502 -0.6316  0.4146 -2.3798
 1690TIP3    H2 5035   5.346   0.409   0.608  1.5995  2.2920 -0.1881
 1691TIP3   OH2 5036   1.024   5.782   0.703  0.4832  0.3310  0.3103
 1691TIP3    H1 5037   1.053   5.692   0.692  0.0580  0.3380 -0.9674
 1691TIP3    H2 5038   1.097   5.826   0.747  0.7144 -0.6046  0.8926
 1692TIP3   OH2 5039   5.198   1.680   5.522  0.0934 -0.3764  0.7290
 1692TIP3    H1 5040   5.162   1.716   5.441 -0.0680  0.2138  1.0579
 1692TIP3    H2 5041   5.130   1.623   5.555 -0.8673  1.2464  1.6986
 1693TIP3   OH2 5042   4.480   5.479   5.206  0.7801  0.1265 -0.2130
 1693TIP3    H1 5043   4.400   5.491   5.154  1.1056  1.8289 -0.3765
 1693TIP3    H2 5044   4.515   5.394   5.177 -1.8433 -1.5465  1.1102
 1694TIP3   OH2 5045   3.232   6.379   0.711  0.9852  0.2961 -0.3472
 1694TIP3    H1 5046   3.221   6.376   0.616  0.4475  0.2446 -0.2843
 1694TIP3    H2 5047   3.224   6.472   0.733 -0.6432  0.1367 -0.1554
 1695TIP3   OH2 5048   1.233   2.101   4.911  0.0517  0.0679 -0.1709
 1695TIP3    H1 5049   1.298   2.171   4.907 -0.3231  0.7628  3.0834
 1695TIP3    H2 5050   1.273   2.028   4.864  1.9326  1.3902 -0.7160
 1696TIP3   OH2 5051   4.586   0.637   2.972 -0.8641 -0.5579  0.4782
 1696TIP3    H1 5052   4.679   0.624   2.992 -0.2262  1.6506 -0.7719
 1696TIP3    H2 5053   4.541   0.614   3.053  0.8228 -0.8313  1.3948
 1697TIP3   OH2 5054   1.550   1.990   1.898 -0.2462 -0.3238  0.3521
 1697TIP3    H1 5055   1.592   2.074   1.882 -0.9185  0.0799  0.6557
 1697TIP3    H2 5056   1.585   1.962   1.983 -0.5637  0.0075  0.5992
 1698TIP3   OH2 5057   0.664   6.688   0.959  0.2504 -0.2140 -0.3882
 1698TIP3    H1 5058   0.691   6.724   1.043  1.5178  1.7286 -1.5550
 1698TIP3    H2 5059   0.699   6.599   0.959 -2.6508 -1.5679  2.4261
 1699TIP3   OH2 5060   5.275   6.722   4.031 -0.0225 -0.2945 -0.3803
 1699TIP3    H1 5061   5.221   6.740   4.108 -1.0834 -1.7643 -0.7382
 1699TIP3    H2 5062   5.236   6.644   3.992  0.9062  0.0212 -2.0402
 1700TIP3   OH2 5063   6.404   6.108   3.414  0.6418  0.0399  0.0117
 1700TIP3    H1 5064   6.312   6.133   3.415  0.9671  1.3577  0.9373
 1700TIP3    H2 5065   6.426   6.093   3.506  1.0550 -1.5144 -0.3109
 1701TIP3   OH2 5066   6.716   6.376   4.033  0.1889 -0.3383 -1.0896
 1701TIP3    H1 5067   6.760   6.305   3.988  0.1902  0.6152 -2.6724
 1701TIP3    H2 5068   6.657   6.414   3.967 -1.6854 -0.4399  0.4207
 1702TIP3   OH2 5069   4.866   3.513   0.494  0.3775  0.1459  0.1861
 1702TIP3    H1 5070   4.841   3.569   0.568  1.7500  0.1085  0.7026
 1702TIP3    H2 5071   4.950   3.475   0.520  0.0409 -1.2400 -0.6646
 1703TIP3   OH2 5072   6.683   2.415   3.812 -0.1937  0.0126  0.9789
 1703TIP3    H1 5073   6.774   2.441   3.830  0.5751 -0.8127 -1.2902
 1703TIP3    H2 5074   6.651   2.382   3.895  1.5003  0.5511  1.9114
 1704TIP3   OH2 5075   3.242   1.390   2.297 -0.3847  0.1600 -0.6815
 1704TIP3    H1 5076   3.325   1.344   2.295 -0.6206 -0.3117  0.0823
 1704TIP3    H2 5077   3.176   1.321   2.293 -0.7583  0.5456 -1.7315
 1705TIP3   OH2 5078   6.208   4.226   0.161 -0.1226 -0.4117  0.5110
 1705TIP3    H1 5079   6.214   4.303   0.105 -0.0035 -0.8944 -0.1581
 1705TIP3    H2 5080   6.273   4.241   0.230 -1.6998  1.1301  1.7326
 1706TIP3   OH2 5081   5.255   2.091   2.449  0.6463 -0.4114 -0.3608
 1706TIP3    H1 5082   5.292   2.122   2.531  0.5398  0.1071 -0.5049
 1706TIP3    H2 5083   5.260   1.996   2.455  0.7283 -0.3750  0.2020
 1707TIP3   OH2 5084   4.227   5.450   0.230  0.1446  0.3793 -0.0231
 1707TIP3    H1 5085   4.241   5.541   0.203 -2.1032  0.0974 -2.6652
 1707TIP3    H2 5086   4.236   5.399   0.149  0.3053 -1.6313  1.1820
 1708TIP3   OH2 5087   5.267   4.649   5.244 -0.5009  0.1501 -0.1177
 1708TIP3    H1 5088   5.260   4.556   5.264  1.0707  0.0178  0.0032
 1708TIP3    H2 5089   5.351   4.675   5.284 -0.1317  1.2327 -1.5256
 1709TIP3   OH2 5090   6.781   1.714   4.551 -0.5871  0.5844 -0.7142
 1709TIP3    H1 5091   6.817   1.767   4.480 -1.2181  0.6751 -0.9731
 1709TIP3    H2 5092   6.789   1.624   4.519  2.5690  0.2333  0.6278
 1710TIP3   OH2 5093   5.305   5.180   4.015 -0.3615 -0.4116 -0.8412
 1710TIP3    H1 5094   5.216   5.166   4.048 -0.2687  3.5144  1.8310
 1710TIP3    H2 5095   5.293   5.214   3.927 -1.4289 -0.7197 -0.8295
 1711TIP3   OH2 5096   5.257   0.713   1.903 -0.2330  0.1476 -0.2753
 1711TIP3    H1 5097   5.241   0.620   1.887 -0.2273  0.2399 -0.8413
 1711TIP3    H2 5098   5.172   0.755   1.890  0.1383  0.4584 -1.8874
 1712TIP3   OH2 5099   1.855   3.256   1.245 -0.4219 -0.0272 -0.4886
 1712TIP3    H1 5100   1.900   3.186   1.198 -0.3246 -0.5758  0.3991
 1712TIP3    H2 5101   1.779   3.213   1.285  0.0944  0.1703  0.7647
 1713TIP3   OH2 5102   3.443   1.358   3.733 -0.1269  0.3844  0.2553
 1713TIP3    H1 5103   3.369   1.298   3.732  0.6463 -0.6147 -1.4076
 1713TIP3    H2 5104   3.509   1.314   3.786 -0.6039  1.1524  1.5145
 1714TIP3   OH2 5105   5.483   1.195   4.571 -0.1473  0.5799  0.3514
 1714TIP3    H1 5106   5.544   1.125   4.549 -0.9687 -0.1575  0.3699
 1714TIP3    H2 5107   5.476   1.192   4.666 -0.8185  0.1296  0.2939
 1715TIP3   OH2 5108   2.620   2.614   4.900  0.5244  0.1985  0.5895
 1715TIP3    H1 5109   2.701   2.596   4.949  2.2696 -0.0669 -2.1488
 1715TIP3    H2 5110   2.550   2.587   4.959  2.4576 -0.5684  2.7099
 1716TIP3   OH2 5111   6.384   3.488   5.491 -0.4759  0.4795  0.3675
 1716TIP3    H1 5112   6.347   3.430   5.424 -1.2730  2.1416 -0.7059
 1716TIP3    H2 5113   6.461   3.526   5.450 -0.5140  0.9158  0.6924
 1717TIP3   OH2 5114   4.449   5.153   3.957  0.4629 -0.0666  0.0064
 1717TIP3    H1 5115   4.487   5.067   3.975  1.3941  0.1752 -0.7112
 1717TIP3    H2 5116   4.372   5.158   4.013 -0.2144 -1.7938 -0.7033
 1718TIP3   OH2 5117   2.110   4.232   1.570 -0.1869 -0.1963 -0.2571
 1718TIP3    H1 5118   2.066   4.277   1.642 -0.5110 -3.9119  2.1421
 1718TIP3    H2 5119   2.077   4.274   1.491 -3.3307  1.1701  1.6225
 1719TIP3   OH2 5120   6.720   0.492   1.909  0.4847 -0.2105 -0.0190
 1719TIP3    H1 5121   6.773   0.422   1.871 -0.2788 -0.5445 -0.4849
 1719TIP3    H2 5122   6.637   0.450   1.931  0.9921 -0.1199  2.3554
 1720TIP3   OH2 5123   2.277   2.854   0.418 -0.1182 -0.1027  0.2793
 1720TIP3    H1 5124   2.183   2.838   0.409 -0.3244  0.6382  1.0455
 1720TIP3    H2 5125   2.293   2.934   0.368 -0.2489  0.8209  1.6605
 1721TIP3   OH2 5126   4.543   0.678   0.031 -0.4326 -0.0381 -0.4199
 1721TIP3    H1 5127   4.504   0.735   0.098  0.4147  0.4855 -0.3559
 1721TIP3    H2 5128   4.637   0.694   0.038  0.0344 -2.6212  0.7066
 1722TIP3   OH2 5129   2.238   0.033   5.629  0.0036 -0.0841 -0.4811
 1722TIP3    H1 5130   2.255   0.102   5.693  1.9152 -0.6934 -0.2910
 1722TIP3    H2 5131   2.142   0.029   5.624 -0.1779  0.9866  1.2127
 1723TIP3   OH2 5132   3.124   2.597   5.565 -0.1588 -0.0049 -0.2970
 1723TIP3    H1 5133   3.078   2.677   5.539 -0.6606 -0.3259 -0.4118
 1723TIP3    H2 5134   3.178   2.624   5.639 -0.1360  0.4954 -0.4915
 1724TIP3   OH2 5135   5.254   1.712   3.067  0.0960  0.0222 -0.0204
 1724TIP3    H1 5136   5.297   1.776   3.011 -0.6155 -0.0203 -0.6305
 1724TIP3    H2 5137   5.202   1.764   3.128  0.1826  0.0483  0.0307
 1725TIP3   OH2 5138   1.725   2.153   4.555 -0.0012 -0.4305  0.1982
 1725TIP3    H1 5139   1.760   2.228   4.604 -0.4124 -1.2095  1.7389
 1725TIP3    H2 5140   1.784   2.080   4.578 -0.9001 -1.0774  0.5039
 1726TIP3   OH2 5141   0.737   6.622   2.042 -0.2337  0.3056 -0.0002
 1726TIP3    H1 5142   0.750   6.707   2.083  1.0850 -0.4572  1.2275
 1726TIP3    H2 5143   0.673   6.639   1.972 -1.9068  1.8171  1.7911
 1727TIP3   OH2 5144   0.177   6.218   5.580 -0.8779 -0.3739  0.2287
 1727TIP3    H1 5145   0.219   6.223   5.665  0.2895 -1.6998 -0.2278
 1727TIP3    H2 5146   0.247   6.240   5.518 -1.3254 -0.8588 -0.4596
 1728TIP3   OH2 5147   7.234   1.717   4.085  0.1659  0.3018 -0.3241
 1728TIP3    H1 5148   7.194   1.715   4.172 -1.5644 -1.3073 -1.0693
 1728TIP3    H2 5149   7.196   1.794   4.043 -0.3744  0.1033 -0.2157
 1729TIP3   OH2 5150   2.290   6.175   4.305  0.9703  0.2240 -0.8010
 1729TIP3    H1 5151   2.297   6.239   4.234 -0.5844 -1.0020 -2.1420
 1729TIP3    H2 5152   2.349   6.105   4.280 -0.6397 -0.8709 -1.6892
 1730TIP3   OH2 5153   4.169   2.779   5.737 -0.3762  0.5914  0.5445
 1730TIP3    H1 5154   4.207   2.695   5.763  1.1380  1.1819  0.3501
 1730TIP3    H2 5155   4.192   2.838   5.808  0.7554  1.3991 -0.4482
 1731TIP3   OH2 5156   0.507   0.967   0.233 -0.0533  0.3885 -0.2955
 1731TIP3    H1 5157   0.466   1.047   0.199 -0.8420 -0.2556 -0.9071
 1731TIP3    H2 5158   0.434   0.914   0.264  0.4882  0.0225  0.3879
 1732TIP3   OH2 5159   2.144   5.062   0.449 -0.7715 -0.5208 -0.6387
 1732TIP3    H1 5160   2.172   4.980   0.490  0.6755  1.0166  1.7013
 1732TIP3    H2 5161   2.201   5.071   0.372 -1.2265 -1.8580 -1.1605
 1733TIP3   OH2 5162   3.418   5.641   0.864 -0.5964 -0.2960 -0.6045
 1733TIP3    H1 5163   3.461   5.642   0.779  0.5517  2.2429 -0.1090
 1733TIP3    H2 5164   3.411   5.734   0.888 -1.1816 -0.9129  1.9228
 1734TIP3   OH2 5165   4.069   3.455   1.846 -0.6251 -0.7976  0.2824
 1734TIP3    H1 5166   4.032   3.386   1.900 -2.4441  0.3393  0.5706
 1734TIP3    H2 5167   4.009   3.529   1.857  0.9976  0.6809 -0.3817
 1735TIP3   OH2 5168   2.533   2.866   5.505  0.2014 -0.6192  0.1821
 1735TIP3    H1 5169   2.541   2.861   5.410 -1.6062  0.7761 -0.1124
 1735TIP3    H2 5170   2.531   2.960   5.523  1.4916 -0.8526  1.7291
 1736TIP3   OH2 5171   1.468   1.434   4.638  0.0074 -0.2112  0.0646
 1736TIP3    H1 5172   1.440   1.351   4.598  0.8704 -0.6271  0.2996
 1736TIP3    H2 5173   1.484   1.412   4.729 -0.2054  0.3277  0.2357
 1737TIP3   OH2 5174   1.798   6.779   2.233 -0.1753  0.4772 -0.0076
 1737TIP3    H1 5175   1.763   6.803   2.147  1.2895  2.2657 -0.1504
 1737TIP3    H2 5176   1.732   6.809   2.295 -0.2508  1.1639 -0.4099
 1738TIP3   OH2 5177   0.470   2.491   1.468  0.4138  0.3366  0.4668
 1738TIP3    H1 5178   0.527   2.547   1.521  1.7572  0.8236 -1.3721
 1738TIP3    H2 5179   0.432   2.551   1.403 -0.1908 -0.4512  0.0733
 1739TIP3   OH2 5180   4.825   2.104   3.305 -0.1121 -0.0898 -0.3948
 1739TIP3    H1 5181   4.840   2.112   3.400 -1.4772 -2.2326  0.0807
 1739TIP3    H2 5182   4.913   2.102   3.267  0.5298 -0.7416  1.0110
 1740TIP3   OH2 5183   1.767   3.179   3.348 -0.0953 -0.6184  0.5108
 1740TIP3    H1 5184   1.853   3.203   3.313 -0.2483  1.2184  1.2495
 1740TIP3    H2 5185   1.785   3.148   3.437 -0.2697  0.9179  1.1077
 1741TIP3   OH2 5186   6.253   6.051   0.934  0.1405  0.5068  0.1727
 1741TIP3    H1 5187   6.285   6.007   1.013  1.4243 -1.4023 -1.3223
 1741TIP3    H2 5188   6.312   6.126   0.923  0.9441 -0.1152  0.1808
 1742TIP3   OH2 5189   0.713   4.692   3.650 -0.5057  0.1296 -0.4128
 1742TIP3    H1 5190   0.773   4.667   3.721 -1.7294 -0.0645  0.5929
 1742TIP3    H2 5191   0.730   4.785   3.636 -0.1621  0.1447  0.0604
 1743TIP3   OH2 5192   5.238   4.299   2.755 -0.8953  0.0917  0.3584
 1743TIP3    H1 5193   5.210   4.357   2.826 -0.6321  0.3329  0.2672
 1743TIP3    H2 5194   5.332   4.291   2.766 -1.0943 -1.3984  1.1676
 1744TIP3   OH2 5195   3.145   4.697   4.652 -0.3603  0.0679  0.5201
 1744TIP3    H1 5196   3.061   4.704   4.697 -1.1936  0.4624 -1.0469
 1744TIP3    H2 5197   3.199   4.767   4.689 -1.4779  1.2431 -0.0110
 1745TIP3   OH2 5198   6.674   0.661   0.836  0.6973 -0.5228 -0.6215
 1745TIP3    H1 5199   6.683   0.574   0.877  0.9843  0.9372  2.7111
 1745TIP3    H2 5200   6.748   0.665   0.775  1.6389 -2.0553  0.3257
 1746TIP3   OH2 5201   1.163   2.337   3.379 -0.0018  0.2174 -0.0665
 1746TIP3    H1 5202   1.158   2.433   3.379 -1.7233  0.1576 -0.1544
 1746TIP3    H2 5203   1.248   2.317   3.339  0.7273  1.7076  0.6705
 1747TIP3   OH2 5204   0.259   6.396   1.339  0.2695 -0.1948 -0.1523
 1747TIP3    H1 5205   0.348   6.368   1.316 -0.2015 -0.5676 -1.6216
 1747TIP3    H2 5206   0.202   6.336   1.292 -0.8630 -2.0352  3.2580
 1748TIP3   OH2 5207   6.944   4.041   1.800 -0.1668 -0.1193 -0.6197
 1748TIP3    H1 5208   6.940   3.968   1.861 -1.2623  0.2568 -0.2211
 1748TIP3    H2 5209   6.957   4.000   1.714  0.1229 -0.7187 -0.2925
 1749TIP3   OH2 5210   4.165   2.711   3.008  0.5721  0.1958  0.3982
 1749TIP3    H1 5211   4.175   2.753   3.094  1.6559  1.6372 -0.3869
 1749TIP3    H2 5212   4.224   2.760   2.951 -0.2173 -0.6698 -1.2117
 1750TIP3   OH2 5213   4.940   2.517   1.556 -0.0443  0.1347  0.2164
 1750TIP3    H1 5214   5.005   2.566   1.506  0.8910 -0.8091  0.4654
 1750TIP3    H2 5215   4.960   2.425   1.537 -1.0524 -0.1823  0.6259
 1751TIP3   OH2 5216   4.865   6.772   4.086 -0.1099  0.3515  0.2663
 1751TIP3    H1 5217   4.797   6.776   4.153 -0.0281  0.7768  0.3271
 1751TIP3    H2 5218   4.818   6.750   4.005 -0.6486  2.7097 -0.1277
 1752TIP3   OH2 5219   5.787   2.835   1.466  0.3523  0.2941  0.2175
 1752TIP3    H1 5220   5.843   2.790   1.403 -0.0167 -2.1887  1.5300
 1752TIP3    H2 5221   5.822   2.810   1.551 -2.5850 -1.2698  1.0981
 1753TIP3   OH2 5222   0.825   2.845   4.563  0.1778  0.5891 -0.0779
 1753TIP3    H1 5223   0.748   2.797   4.532  0.5502 -0.5239  0.6725
 1753TIP3    H2 5224   0.849   2.802   4.645  0.4735  2.1288  0.6926
 1754TIP3   OH2 5225   6.457   1.047   0.713  0.0837 -0.0007 -0.4294
 1754TIP3    H1 5226   6.468   1.112   0.783 -0.1584  0.5768 -0.9267
 1754TIP3    H2 5227   6.455   1.098   0.632  0.2019 -0.6536 -0.8509
 1755TIP3   OH2 5228   4.726   4.169   5.316 -0.6324  0.1073  0.1423
 1755TIP3    H1 5229   4.778   4.113   5.258 -2.6071  0.0220 -1.7191
 1755TIP3    H2 5230   4.771   4.253   5.315  0.2245 -0.3415 -0.2781
 1756TIP3   OH2 5231   2.232   3.585   1.080 -0.8974 -0.2332 -0.2556
 1756TIP3    H1 5232   2.285   3.518   1.036  1.0842 -0.0625  1.6688
 1756TIP3    H2 5233   2.200   3.541   1.159  0.9490  1.1543  1.3601
 1757TIP3   OH2 5234   3.744   0.229   5.726 -0.0317 -0.4555 -0.0902
 1757TIP3    H1 5235   3.750   0.306   5.670  0.8318  0.0722  0.6983
 1757TIP3    H2 5236   3.804   0.166   5.687  0.7056 -0.0231  0.3331
 1758TIP3   OH2 5237   0.851   5.231   2.475  0.1330  0.6995 -0.0019
 1758TIP3    H1 5238   0.914   5.237   2.546  0.2571  2.2260 -0.2216
 1758TIP3    H2 5239   0.824   5.321   2.458 -0.6522  0.2639 -1.2157
 1759TIP3   OH2 5240   7.179   3.493   5.307 -0.1046 -0.6603 -0.0606
 1759TIP3    H1 5241   7.125   3.440   5.248 -0.0463 -1.5578  0.6834
 1759TIP3    H2 5242   7.269   3.464   5.291 -0.0707 -0.7782  0.3407
 1760TIP3   OH2 5243   1.997   4.637   0.894 -0.2007 -0.2624  0.1053
 1760TIP3    H1 5244   2.068   4.655   0.956  0.2837  1.1330 -0.7812
 1760TIP3    H2 5245   1.940   4.714   0.900  0.4514  0.4509 -1.9058
 1761TIP3   OH2 5246   3.935   0.673   4.142 -0.0509  0.1522  0.6670
 1761TIP3    H1 5247   3.920   0.587   4.181  2.7216 -1.6429 -1.8743
 1761TIP3    H2 5248   3.976   0.724   4.211  2.2039 -2.0207  1.0369
 1762TIP3   OH2 5249   6.613   1.263   1.940  0.0114 -0.3031  0.0601
 1762TIP3    H1 5250   6.612   1.216   2.024 -1.3729 -0.4210 -0.0035
 1762TIP3    H2 5251   6.685   1.223   1.891 -0.0360 -1.1712  0.6747
 1763TIP3   OH2 5252   2.629   1.438   1.691 -0.0673 -0.2228  0.2381
 1763TIP3    H1 5253   2.715   1.444   1.732 -1.5742  0.9341  3.5058
 1763TIP3    H2 5254   2.614   1.524   1.654 -0.2939 -0.0445  0.7378
 1764TIP3   OH2 5255   1.221   3.921   5.617 -0.2194  0.0829 -0.2610
 1764TIP3    H1 5256   1.254   4.003   5.581  3.1639 -0.5375  1.0538
 1764TIP3    H2 5257   1.224   3.860   5.544  0.8500  0.2546 -0.3733
 1765TIP3   OH2 5258   4.407   1.101   1.262 -0.1682  0.9717  0.2111
 1765TIP3    H1 5259   4.456   1.019   1.261 -0.3286  0.8676  0.5997
 1765TIP3    H2 5260   4.360   1.100   1.345 -1.7145  0.5446 -0.6207
 1766TIP3   OH2 5261   2.380   4.233   5.013 -0.2744 -0.1404 -0.0272
 1766TIP3    H1 5262   2.327   4.160   5.044 -0.4649  0.0539  0.0988
 1766TIP3    H2 5263   2.458   4.191   4.977 -1.7049 -0.6421 -2.7903
 1767TIP3   OH2 5264   2.814   4.601   1.558 -0.2242  0.2509 -0.1291
 1767TIP3    H1 5265   2.731   4.647   1.557  0.3235  1.5700  2.8775
 1767TIP3    H2 5266   2.879   4.668   1.537  0.2482 -0.2640 -0.3461
 1768TIP3   OH2 5267   6.104   3.546   3.658 -0.0327  0.4744 -0.4396
 1768TIP3    H1 5268   6.179   3.489   3.677  0.8411  1.5928 -0.4546
 1768TIP3    H2 5269   6.097   3.602   3.734 -1.2708 -0.0241 -0.1621
 1769TIP3   OH2 5270   3.579   5.898   3.398 -0.2798  0.3438  0.0817
 1769TIP3    H1 5271   3.638   5.890   3.473 -0.6224  0.2772  0.3429
 1769TIP3    H2 5272   3.571   5.809   3.365  1.0406  0.5671 -0.9390
 1770TIP3   OH2 5273   7.205   1.650   2.062 -0.3775  0.4649 -0.3056
 1770TIP3    H1 5274   7.278   1.635   2.122  0.4841 -2.6980 -1.8952
 1770TIP3    H2 5275   7.150   1.715   2.106  1.5502  0.3194  2.5946
 1771TIP3   OH2 5276   1.914   3.225   0.727 -0.2738  0.0263  0.3320
 1771TIP3    H1 5277   1.997   3.185   0.701  0.5036  1.6969  0.1481
 1771TIP3    H2 5278   1.870   3.157   0.778  1.5388 -0.6420  1.0898
 1772TIP3   OH2 5279   1.587   1.922   4.330  0.0337 -0.9545 -0.2053
 1772TIP3    H1 5280   1.513   1.881   4.286 -1.9293 -0.2574  2.1722
 1772TIP3    H2 5281   1.657   1.857   4.327 -1.4258 -2.5779 -0.5703
 1773TIP3   OH2 5282   3.659   3.374   1.650 -0.4535 -0.3988 -0.6724
 1773TIP3    H1 5283   3.633   3.466   1.647  0.6020 -0.0729 -0.2478
 1773TIP3    H2 5284   3.619   3.335   1.571 -0.3124  0.5814 -1.2365
 1774TIP3   OH2 5285   4.425   0.761   3.210  0.3464 -0.4280 -0.2616
 1774TIP3    H1 5286   4.400   0.721   3.293  0.1438 -0.5833 -0.3957
 1774TIP3    H2 5287   4.519   0.779   3.218 -0.0345  1.3996  0.7863
 1775TIP3   OH2 5288   2.046   3.465   0.142  0.0775  0.0411  0.0931
 1775TIP3    H1 5289   2.095   3.440   0.063  1.1363  0.0600  0.7222
 1775TIP3    H2 5290   1.981   3.395   0.152 -0.1508  0.1036 -0.8596
 1776TIP3   OH2 5291   3.045   4.736   2.644  0.0685 -0.2260 -0.0399
 1776TIP3    H1 5292   3.053   4.802   2.575 -1.9081  1.5648  1.3183
 1776TIP3    H2 5293   2.975   4.678   2.615 -1.9975  1.5577  1.1217
 1777TIP3   OH2 5294   1.589   0.536   0.552 -0.2248 -0.2144 -0.0554
 1777TIP3    H1 5295   1.568   0.612   0.606  0.5599  0.2856 -0.4407
 1777TIP3    H2 5296   1.647   0.569   0.484  1.7316 -1.4917  0.8991
 1778TIP3   OH2 5297   3.000   2.367   4.482  0.2198  0.3069  0.4232
 1778TIP3    H1 5298   3.022   2.345   4.391  2.1541  2.1060  0.3673
 1778TIP3    H2 5299   2.914   2.409   4.477  0.4522  0.6784 -0.6333
 1779TIP3   OH2 5300   3.510   3.428   0.233 -0.4305  0.1171 -0.1160
 1779TIP3    H1 5301   3.600   3.453   0.251 -0.0870 -0.1096 -1.4613
 1779TIP3    H2 5302   3.484   3.376   0.310  0.6985 -0.1258  0.1098
 1780TIP3   OH2 5303   5.148   2.739   3.658  0.0827  0.0543 -0.2415
 1780TIP3    H1 5304   5.218   2.675   3.643  1.2573  1.0212  0.8614
 1780TIP3    H2 5305   5.191   2.824   3.650 -1.8601  0.9053 -3.9237
 1781TIP3   OH2 5306   1.555   5.757   5.667 -0.3634 -0.3999 -0.0995
 1781TIP3    H1 5307   1.500   5.778   5.742 -1.3071 -3.8083  0.3177
 1781TIP3    H2 5308   1.514   5.803   5.594 -1.3348  0.3728  0.8962
 1782TIP3   OH2 5309   4.455   6.271   3.071  0.5970  0.0273  0.1552
 1782TIP3    H1 5310   4.521   6.310   3.014  0.5790  1.3814  1.0188
 1782TIP3    H2 5311   4.497   6.193   3.107  1.7151  0.8622  0.6739
 1783TIP3   OH2 5312   3.266   5.278   1.654  0.9045 -0.2377  0.0425
 1783TIP3    H1 5313   3.216   5.222   1.595  0.5965 -1.3638  1.3369
 1783TIP3    H2 5314   3.220   5.272   1.738  1.6311  0.9125  0.5450
 1784TIP3   OH2 5315   3.471   2.117   1.487  0.0730 -0.1299  0.4732
 1784TIP3    H1 5316   3.445   2.208   1.475  0.4535  0.0801  1.1536
 1784TIP3    H2 5317   3.467   2.104   1.582 -0.6907 -1.0426  0.3332
 1785TIP3   OH2 5318   5.573   1.995   4.975  0.2482  0.0008  0.0617
 1785TIP3    H1 5319   5.639   2.024   5.038 -0.1275 -0.2728  0.5867
 1785TIP3    H2 5320   5.577   1.899   4.978  1.3246 -0.0443 -1.4955
 1786TIP3   OH2 5321   3.229   2.927   0.250 -0.3180 -0.2236  0.0377
 1786TIP3    H1 5322   3.278   2.982   0.312  0.3897  0.1006 -0.7947
 1786TIP3    H2 5323   3.163   2.986   0.214  0.3541  0.0717 -0.7537
 1787TIP3   OH2 5324   0.758   5.936   4.427 -0.1132 -0.3525 -0.7631
 1787TIP3    H1 5325   0.686   5.963   4.370 -0.9497 -2.3881 -0.7758
 1787TIP3    H2 5326   0.719   5.933   4.515  1.1713  2.7918  0.0511
 1788TIP3   OH2 5327   5.666   4.671   1.790  0.0114 -0.4078 -0.2291
 1788TIP3    H1 5328   5.582   4.704   1.757 -0.2567 -0.5542  0.2998
 1788TIP3    H2 5329   5.679   4.589   1.743  0.0605 -0.1884 -0.6088
 1789TIP3   OH2 5330   0.412   1.447   4.730 -0.0198 -0.6253 -0.4361
 1789TIP3    H1 5331   0.424   1.425   4.822 -2.1632 -1.7621 -0.3526
 1789TIP3    H2 5332   0.482   1.400   4.684  1.5929  0.6442  0.6334
 1790TIP3   OH2 5333   5.028   2.134   5.161 -0.9149  0.6734  0.4698
 1790TIP3    H1 5334   4.944   2.146   5.117 -1.6165  0.9550  1.8528
 1790TIP3    H2 5335   5.027   2.196   5.233 -0.7334 -1.2784  2.2345
 1791TIP3   OH2 5336   5.865   6.088   2.263 -0.5496  0.3753  0.5119
 1791TIP3    H1 5337   5.905   6.030   2.199  0.7607 -1.0767  2.5471
 1791TIP3    H2 5338   5.925   6.088   2.337 -0.3570  4.5479  0.5999
 1792TIP3   OH2 5339   6.781   4.944   5.760 -0.3170 -0.3135 -0.3895
 1792TIP3    H1 5340   6.815   5.031   5.783 -0.4578 -0.0274 -1.2331
 1792TIP3    H2 5341   6.698   4.963   5.716 -1.8604 -0.9989  2.0063
 1793TIP3   OH2 5342   6.584   1.742   4.096  0.1195 -0.5268 -0.5364
 1793TIP3    H1 5343   6.596   1.825   4.143  1.3003 -0.3199 -1.1633
 1793TIP3    H2 5344   6.537   1.686   4.157 -0.9171  0.6784 -0.1874
 1794TIP3   OH2 5345   6.378   2.968   0.081 -0.1241  0.0533 -0.0299
 1794TIP3    H1 5346   6.358   2.874   0.079 -1.2364  0.2486  1.0064
 1794TIP3    H2 5347   6.468   2.973   0.113  0.1033 -0.6735 -0.5332
 1795TIP3   OH2 5348   7.077   3.286   0.731 -0.1486 -0.3637 -0.2527
 1795TIP3    H1 5349   7.060   3.289   0.637 -1.9307  0.5490  0.0610
 1795TIP3    H2 5350   7.126   3.366   0.749 -1.7408  0.6198 -0.0996
 1796TIP3   OH2 5351   6.530   5.504   5.341  0.5828  0.2922  0.2772
 1796TIP3    H1 5352   6.493   5.419   5.366  0.3271  0.4530  0.4617
 1796TIP3    H2 5353   6.624   5.495   5.355  0.5332  0.1046  0.5011
 1797TIP3   OH2 5354   4.294   2.751   0.727 -0.0708  0.2122 -0.3082
 1797TIP3    H1 5355   4.322   2.681   0.667  0.0599 -0.0934  0.1002
 1797TIP3    H2 5356   4.338   2.829   0.695  2.4557 -0.4965  1.1222
 1798TIP3   OH2 5357   3.698   4.866   4.137  0.2527 -0.1204 -0.4310
 1798TIP3    H1 5358   3.709   4.795   4.074 -1.2799  0.3469 -1.2727
 1798TIP3    H2 5359   3.605   4.865   4.159  0.1057  1.8126 -0.7413
 1799TIP3   OH2 5360   6.235   4.133   1.530  0.0809 -0.0191  0.2109
 1799TIP3    H1 5361   6.242   4.185   1.610 -1.7055  1.9845 -0.8354
 1799TIP3    H2 5362   6.307   4.070   1.537  0.9976  1.1359  2.6065
 1800TIP3   OH2 5363   5.834   3.204   3.064 -0.1422  0.1739 -0.1577
 1800TIP3    H1 5364   5.866   3.160   3.142  1.8112  0.7195 -0.5806
 1800TIP3    H2 5365   5.749   3.239   3.089  0.3472  0.1736  1.6547
 1801TIP3   OH2 5366   1.522   0.896   2.956  0.4266  0.3515  0.3709
 1801TIP3    H1 5367   1.601   0.949   2.945 -0.0749  0.9492 -0.5118
 1801TIP3    H2 5368   1.450   0.959   2.956 -0.2826 -0.3446 -1.8806
 1802TIP3   OH2 5369   5.778   6.212   0.363  0.3751  0.1623  0.4753
 1802TIP3    H1 5370   5.833   6.227   0.440 -2.0143  1.3928  2.0455
 1802TIP3    H2 5371   5.691   6.242   0.389 -1.6347 -3.5727 -1.1637
 1803TIP3   OH2 5372   2.943   1.937   0.421 -0.6215  0.3882 -0.0823
 1803TIP3    H1 5373   2.934   1.852   0.377  0.3409 -0.9569  2.1254
 1803TIP3    H2 5374   3.036   1.942   0.444 -0.9714  1.2491  1.2733
 1804TIP3   OH2 5375   3.684   1.489   0.827 -0.2348  0.3210  0.5932
 1804TIP3    H1 5376   3.699   1.530   0.912 -0.0218  0.2178  0.6074
 1804TIP3    H2 5377   3.700   1.396   0.842  0.7090  0.4095  0.2387
 1805TIP3   OH2 5378   4.034   2.439   3.017  0.6673 -0.1507 -1.3144
 1805TIP3    H1 5379   4.092   2.404   2.949  0.8711 -0.8529 -0.7929
 1805TIP3    H2 5380   4.055   2.532   3.022  3.0710 -0.6808  0.1070
 1806TIP3   OH2 5381   2.732   3.481   4.510 -0.4893 -0.2441  0.5118
 1806TIP3    H1 5382   2.792   3.409   4.529  0.7015  0.4785 -0.3611
 1806TIP3    H2 5383   2.752   3.505   4.419 -0.8487  1.2016  0.7992
 1807TIP3   OH2 5384   6.606   6.733   3.722  0.0475 -0.1631  0.0937
 1807TIP3    H1 5385   6.659   6.812   3.735  0.3769 -0.3459 -0.1384
 1807TIP3    H2 5386   6.518   6.759   3.750 -0.1808  0.7510 -1.3772
 1808TIP3   OH2 5387   0.016   1.976   3.741  0.2659 -0.3855  0.1809
 1808TIP3    H1 5388   0.041   2.035   3.812  0.0793 -0.4070  0.2663
 1808TIP3    H2 5389   0.092   1.918   3.730  0.7148  0.2994 -0.3670
 1809TIP3   OH2 5390   5.141   6.761   0.013  0.1337 -0.4788  0.0525
 1809TIP3    H1 5391   5.141   6.683  -0.043  0.1604 -0.9911  0.7562
 1809TIP3    H2 5392   5.054   6.761   0.053  0.4267 -0.6184  0.6984
 1810TIP3   OH2 5393   0.429   6.406   0.910 -0.2151  0.2099 -0.6117
 1810TIP3    H1 5394   0.421   6.367   0.822 -0.9346 -1.1603  0.0299
 1810TIP3    H2 5395   0.417   6.332   0.970  1.2751  0.9410  0.6546
 1811TIP3   OH2 5396   1.190   2.162   4.193 -0.1563  0.6622 -0.5360
 1811TIP3    H1 5397   1.237   2.176   4.275 -1.2015 -1.3770  0.4965
 1811TIP3    H2 5398   1.098   2.176   4.215 -0.3571  1.3183 -1.6984
 1812TIP3   OH2 5399   4.292   6.627   1.652  0.3317 -0.6892 -0.2805
 1812TIP3    H1 5400   4.248   6.568   1.713  0.2563  0.4826  0.8389
 1812TIP3    H2 5401   4.262   6.598   1.565  0.7618 -2.6468  0.1682
 1813TIP3   OH2 5402   3.029   3.934   3.561 -0.2984  0.8018 -0.0366
 1813TIP3    H1 5403   2.962   3.974   3.505  2.1328  2.4125 -1.9704
 1813TIP3    H2 5404   3.019   3.980   3.645 -1.8406  0.6877 -0.1153
 1814TIP3   OH2 5405   6.709   1.065   2.563  0.7168 -0.2734 -0.1204
 1814TIP3    H1 5406   6.622   1.057   2.522  0.2972  0.5477  0.5671
 1814TIP3    H2 5407   6.757   0.987   2.533 -0.3154 -0.8366 -0.3741
 1815TIP3   OH2 5408   2.865   5.194   4.022  0.5606  0.4619  0.5173
 1815TIP3    H1 5409   2.823   5.133   4.082  0.2332  1.0093  0.8568
 1815TIP3    H2 5410   2.900   5.263   4.079  0.7859  0.6709  0.1311
 1816TIP3   OH2 5411   4.536   3.177   2.051  0.4964  0.1433  0.2205
 1816TIP3    H1 5412   4.441   3.183   2.042  0.6637  0.7487 -1.4278
 1816TIP3    H2 5413   4.550   3.105   2.113 -1.0260  0.3913  0.8921
 1817TIP3   OH2 5414   4.635   1.778   5.279  0.2804  0.0885 -0.0742
 1817TIP3    H1 5415   4.677   1.742   5.357  0.8026  0.0812 -0.3542
 1817TIP3    H2 5416   4.616   1.869   5.302 -1.1481 -0.3582  0.6764
 1818TIP3   OH2 5417   3.941   0.776   0.363  0.0391 -0.0020  0.0646
 1818TIP3    H1 5418   3.991   0.831   0.302 -0.7057  0.5134 -0.0877
 1818TIP3    H2 5419   4.002   0.706   0.387  0.3387 -0.2126 -1.2592
 1819TIP3   OH2 5420   5.081   5.000   3.081  0.2115  0.0204  0.5838
 1819TIP3    H1 5421   5.051   4.957   3.001 -0.3932  0.6207  0.4815
 1819TIP3    H2 5422   5.001   5.012   3.133  0.6652 -0.8090  1.4952
 1820TIP3   OH2 5423   5.653   6.575   2.467 -0.2378 -0.6499  0.0622
 1820TIP3    H1 5424   5.716   6.604   2.533 -1.4598 -0.6722  1.2847
 1820TIP3    H2 5425   5.575   6.629   2.482 -0.2050  0.0806 -2.0779
 1821TIP3   OH2 5426   6.719   3.897   1.448 -0.4238 -0.0813  0.1647
 1821TIP3    H1 5427   6.657   3.833   1.412 -0.1581  0.2905 -1.0038
 1821TIP3    H2 5428   6.709   3.974   1.392 -0.0138  0.5469  0.9355
 1822TIP3   OH2 5429   5.989   5.160   4.086  0.0807  0.4577  0.8880
 1822TIP3    H1 5430   6.049   5.132   4.017  0.0539  0.2354  0.9542
 1822TIP3    H2 5431   5.985   5.255   4.077 -1.0425  0.3133 -0.3331
 1823TIP3   OH2 5432   2.431   5.040   2.449  0.0837  0.1110 -0.2995
 1823TIP3    H1 5433   2.396   5.080   2.370  0.4520 -1.0851 -1.1017
 1823TIP3    H2 5434   2.392   5.089   2.521 -0.1000  1.3501 -1.2215
 1824TIP3   OH2 5435   4.525   0.855   1.197  0.0363  0.4220 -0.2199
 1824TIP3    H1 5436   4.522   0.790   1.268  0.6506 -0.6120 -1.0944
 1824TIP3    H2 5437   4.576   0.811   1.128  1.9270  2.4702 -0.2283
 1825TIP3   OH2 5438   2.007   0.740   3.110 -0.1423  0.1565  0.7070
 1825TIP3    H1 5439   2.058   0.791   3.172  0.2811 -0.1230  0.5895
 1825TIP3    H2 5440   1.918   0.741   3.145  0.1452 -0.2319  1.4631
 1826TIP3   OH2 5441   5.022   2.016   3.064  0.3189 -0.5337  0.0885
 1826TIP3    H1 5442   5.114   2.013   3.037  0.5806 -0.7359  0.9558
 1826TIP3    H2 5443   4.974   2.041   2.985  0.9181 -2.2006 -0.8454
 1827TIP3   OH2 5444   5.355   1.065   1.529 -0.4049 -0.0506 -0.5705
 1827TIP3    H1 5445   5.384   0.985   1.484  0.9997  0.2771 -0.2925
 1827TIP3    H2 5446   5.323   1.121   1.458 -1.6692 -0.9414 -0.7415
 1828TIP3   OH2 5447   3.637   2.934   3.188 -0.1540 -0.0239  0.2543
 1828TIP3    H1 5448   3.636   2.955   3.095  1.3186 -0.8074  0.0377
 1828TIP3    H2 5449   3.550   2.898   3.205  0.4147 -2.5317 -1.5054
 1829TIP3   OH2 5450   2.556   2.990   0.303  0.0972  0.3068  0.3505
 1829TIP3    H1 5451   2.626   3.051   0.328 -0.2263  0.6718  0.3820
 1829TIP3    H2 5452   2.579   2.908   0.347 -0.2262  0.8129  1.5284
 1830TIP3   OH2 5453   2.582   6.627   1.963  0.0989  0.0225  0.3266
 1830TIP3    H1 5454   2.634   6.594   2.036 -0.5359 -0.4187  0.5893
 1830TIP3    H2 5455   2.557   6.715   1.990  1.1454  0.4376 -0.0345
 1831TIP3   OH2 5456   0.270   2.414   1.691  0.0730  0.2978 -0.0220
 1831TIP3    H1 5457   0.310   2.443   1.609 -2.0424  0.2483 -1.1389
 1831TIP3    H2 5458   0.187   2.374   1.664 -0.0902 -0.8931  2.0520
 1832TIP3   OH2 5459   5.249   2.329   3.364  0.3590  0.2006 -1.0092
 1832TIP3    H1 5460   5.287   2.417   3.357 -1.9734  1.1954 -1.9946
 1832TIP3    H2 5461   5.219   2.323   3.455  1.5276 -0.0635 -0.6175
 1833TIP3   OH2 5462   4.900   5.027   3.278  0.1272 -0.3257  0.1978
 1833TIP3    H1 5463   4.930   4.954   3.331 -1.4731 -1.0048  0.2247
 1833TIP3    H2 5464   4.901   5.102   3.337  0.9344 -0.5105  0.4197
 1834TIP3   OH2 5465   5.308   0.653   4.144  0.5247  0.0590 -0.0316
 1834TIP3    H1 5466   5.258   0.735   4.133 -0.3894 -0.7971 -4.1939
 1834TIP3    H2 5467   5.251   0.597   4.196 -0.6901  0.7742 -0.5441
 1835TIP3   OH2 5468   6.383   2.633   5.906 -0.5011 -0.0055 -0.7836
 1835TIP3    H1 5469   6.438   2.630   5.828  1.2916  0.0872  0.4044
 1835TIP3    H2 5470   6.294   2.644   5.873  0.4025  2.2376 -2.7319
 1836TIP3   OH2 5471   0.449   2.868   4.188 -0.2231 -0.0545  0.1931
 1836TIP3    H1 5472   0.482   2.936   4.247  0.9529 -0.0478 -0.4285
 1836TIP3    H2 5473   0.528   2.830   4.149 -0.7770 -2.4836  1.2773
 1837TIP3   OH2 5474   1.573   0.145   0.969  0.2601 -0.5780  0.3077
 1837TIP3    H1 5475   1.618   0.064   0.994  1.2955  0.5288  2.2183
 1837TIP3    H2 5476   1.571   0.197   1.049 -2.4060  0.4094 -0.2841
 1838TIP3   OH2 5477   1.655   1.383   3.647 -0.2520 -0.0483  0.0854
 1838TIP3    H1 5478   1.706   1.374   3.727 -0.9400  1.2598  0.6953
 1838TIP3    H2 5479   1.721   1.400   3.579  0.1662  1.5423  0.8413
 1839TIP3   OH2 5480   6.336   0.419   3.213 -0.0287  0.2244 -0.0262
 1839TIP3    H1 5481   6.277   0.488   3.183 -0.5838 -0.4174 -0.4430
 1839TIP3    H2 5482   6.284   0.339   3.207  0.7520 -0.2929  0.0173
 1840TIP3   OH2 5483   2.739   3.355   2.689  0.2780  0.2413 -0.2072
 1840TIP3    H1 5484   2.675   3.349   2.618  0.6346  1.5094 -0.6638
 1840TIP3    H2 5485   2.798   3.281   2.674 -0.7129 -0.6033 -0.1223
 1841TIP3   OH2 5486   6.044   1.200   1.161  0.2101  0.1916  0.0116
 1841TIP3    H1 5487   6.082   1.159   1.238 -0.6384  0.2100  0.4539
 1841TIP3    H2 5488   6.016   1.127   1.106 -1.2950  0.1456  0.7963
 1842TIP3   OH2 5489   6.105   5.711   0.888  0.4743 -0.0875 -0.0600
 1842TIP3    H1 5490   6.055   5.633   0.910  0.5173  0.5074  2.4321
 1842TIP3    H2 5491   6.041   5.782   0.887  0.9100  0.3240  0.8417
 1843TIP3   OH2 5492   0.590   3.100   0.365 -0.3615  0.7128 -0.4281
 1843TIP3    H1 5493   0.596   3.079   0.458 -0.3144  0.8997 -0.3898
 1843TIP3    H2 5494   0.661   3.050   0.324 -1.1126 -0.3219 -0.5269
 1844TIP3   OH2 5495   3.994   0.715   2.124 -0.1036  0.2349  0.6417
 1844TIP3    H1 5496   4.024   0.803   2.106  0.3145  0.0489  0.4228
 1844TIP3    H2 5497   3.901   0.715   2.101  0.7254 -0.5015 -3.4426
 1845TIP3   OH2 5498   1.963   2.079   2.656  0.0338 -0.1219  0.3941
 1845TIP3    H1 5499   2.008   2.147   2.707 -0.9648 -0.3840  1.6578
 1845TIP3    H2 5500   2.024   2.005   2.658  0.5096  0.2583  0.2206
 1846TIP3   OH2 5501   3.596   1.912   0.566  0.6338  0.4257  0.4304
 1846TIP3    H1 5502   3.626   1.971   0.636  0.2268 -0.6638  1.5632
 1846TIP3    H2 5503   3.518   1.871   0.602  0.3402 -0.0838 -0.7393
 1847TIP3   OH2 5504   1.158   0.423   4.877  0.4216  0.5433  0.2345
 1847TIP3    H1 5505   1.136   0.460   4.792 -0.6124 -0.2070  0.1548
 1847TIP3    H2 5506   1.081   0.442   4.932  0.5256 -0.1088  0.6204
 1848TIP3   OH2 5507   2.518   1.392   5.621  0.6246  0.4018 -0.1193
 1848TIP3    H1 5508   2.490   1.301   5.629  1.6181  0.1173  0.1898
 1848TIP3    H2 5509   2.448   1.443   5.662 -1.0878 -0.0272 -2.3262
 1849TIP3   OH2 5510   0.485   6.213   3.432  0.6543 -0.6601  0.3421
 1849TIP3    H1 5511   0.494   6.297   3.476  1.7364 -0.7684  0.3743
 1849TIP3    H2 5512   0.443   6.234   3.349  0.2198 -0.1964  0.6764
 1850TIP3   OH2 5513   4.975   4.212   1.372  0.3593  0.2256  0.2317
 1850TIP3    H1 5514   4.964   4.139   1.432 -0.5776  2.0361  2.4295
 1850TIP3    H2 5515   4.892   4.217   1.323  0.6301 -0.4692 -0.3098
 1851TIP3   OH2 5516   3.424   6.006   1.686  0.0733  0.4911 -0.8504
 1851TIP3    H1 5517   3.393   5.935   1.630  1.1791 -0.0638 -0.7644
 1851TIP3    H2 5518   3.372   5.997   1.766 -0.3461  0.2728 -1.1420
 1852TIP3   OH2 5519   4.526   4.141   5.851  0.1760  0.0340  0.0660
 1852TIP3    H1 5520   4.554   4.051   5.868 -0.1406  0.2053  1.6008
 1852TIP3    H2 5521   4.588   4.173   5.785  1.8632 -0.5117  1.3149
 1853TIP3   OH2 5522   2.655   1.301   4.621 -0.2038  0.6130  0.1020
 1853TIP3    H1 5523   2.564   1.324   4.601  0.1245  1.0815 -0.9394
 1853TIP3    H2 5524   2.705   1.331   4.544  0.6955 -0.5289  0.2094
 1854TIP3   OH2 5525   1.884   2.202   1.628 -0.4193 -0.1897 -0.2202
 1854TIP3    H1 5526   1.932   2.147   1.690 -0.7199 -0.3871 -0.1575
 1854TIP3    H2 5527   1.885   2.153   1.546 -0.4589 -0.1650 -0.2355
 1855TIP3   OH2 5528   3.101   3.599   0.698  0.2017  0.0397 -0.2536
 1855TIP3    H1 5529   3.136   3.528   0.752  0.5610  0.6789  0.3548
 1855TIP3    H2 5530   3.116   3.569   0.608  1.1139 -0.2787 -0.0021
 1856TIP3   OH2 5531   6.737   5.106   3.745 -0.2540 -0.2517 -0.2532
 1856TIP3    H1 5532   6.726   5.171   3.814 -1.6733 -1.6156  0.8602
 1856TIP3    H2 5533   6.648   5.073   3.728  0.4213 -1.9116 -0.7659
 1857TIP3   OH2 5534   2.738   0.272   4.512 -0.2476 -0.3846  0.1624
 1857TIP3    H1 5535   2.745   0.350   4.457  1.0882  0.8280  1.9632
 1857TIP3    H2 5536   2.725   0.200   4.450  1.9260  0.8087 -1.8240
 1858TIP3   OH2 5537   4.905   6.184   2.906 -0.2640 -0.3231 -0.1252
 1858TIP3    H1 5538   4.964   6.109   2.914 -0.9748 -1.1268 -1.7558
 1858TIP3    H2 5539   4.962   6.261   2.906  0.8490 -1.0816 -1.9318
 1859TIP3   OH2 5540   0.538   0.088   5.877 -0.0582 -0.0432  0.0917
 1859TIP3    H1 5541   0.492   0.094   5.793  0.0745  1.9842  0.1316
 1859TIP3    H2 5542   0.469   0.070   5.941 -1.0143  3.4827  0.2304
 1860TIP3   OH2 5543   3.790   6.236   0.087 -0.6752  0.2168  0.0299
 1860TIP3    H1 5544   3.818   6.159   0.036 -2.4585  0.6178 -1.6665
 1860TIP3    H2 5545   3.870   6.288   0.098  0.2329 -1.0749 -0.2161
 1861TIP3   OH2 5546   0.213   2.287   0.485 -0.3069  0.4065  0.5881
 1861TIP3    H1 5547   0.135   2.256   0.438  0.1356 -1.0306  0.7560
 1861TIP3    H2 5548   0.282   2.226   0.460  0.6543  1.3428  0.8670
 1862TIP3   OH2 5549   3.005   1.104   0.197  0.2876 -0.4795  0.1391
 1862TIP3    H1 5550   2.936   1.158   0.236  0.1930 -1.5405  1.5396
 1862TIP3    H2 5551   3.086   1.139   0.234  0.5362  0.7727 -1.5141
 1863TIP3   OH2 5552   3.929   4.246   5.770  0.1726 -0.2850 -0.0433
 1863TIP3    H1 5553   3.885   4.199   5.840  0.9719  2.0181  2.1458
 1863TIP3    H2 5554   3.952   4.331   5.808  2.3782  0.3610 -2.4938
 1864TIP3   OH2 5555   3.080   2.183   3.581 -0.3517  0.1703 -0.3445
 1864TIP3    H1 5556   3.043   2.142   3.660  0.5811 -2.3284 -1.1119
 1864TIP3    H2 5557   3.162   2.221   3.611 -0.0572 -0.6685 -0.0363
 1865TIP3   OH2 5558   1.380   5.640   2.877 -0.0717 -0.1343 -0.0484
 1865TIP3    H1 5559   1.454   5.610   2.930 -1.1825 -1.3737  0.8809
 1865TIP3    H2 5560   1.403   5.729   2.851  1.3452 -0.1820  0.9417
 1866TIP3   OH2 5561   0.186   1.069   4.105 -0.5065  0.2876 -0.4037
 1866TIP3    H1 5562   0.199   1.123   4.182  3.1217 -1.0654  0.0965
 1866TIP3    H2 5563   0.097   1.091   4.075  0.0327  5.1044  0.7456
 1867TIP3   OH2 5564   5.244   5.011   2.098  0.2043 -0.0517  0.1330
 1867TIP3    H1 5565   5.298   5.005   2.177 -1.3861  1.1502  1.3782
 1867TIP3    H2 5566   5.267   5.096   2.060  0.0343 -0.0637  0.0038
 1868TIP3   OH2 5567   2.919   0.586   3.626 -0.3351  0.0002  0.3959
 1868TIP3    H1 5568   2.897   0.496   3.601 -3.1950  0.4452  0.8932
 1868TIP3    H2 5569   2.846   0.638   3.594 -0.7603  1.5723  3.4733
 1869TIP3   OH2 5570   5.271   2.763   0.259 -0.2876  0.1708 -0.0213
 1869TIP3    H1 5571   5.214   2.716   0.320  0.3476 -1.9184 -0.9445
 1869TIP3    H2 5572   5.236   2.741   0.173  0.2739  1.1214 -0.5043
 1870TIP3   OH2 5573   2.138   2.047   1.196  0.4705 -0.7274  0.0957
 1870TIP3    H1 5574   2.141   1.954   1.220 -0.5516 -0.6254  0.6957
 1870TIP3    H2 5575   2.205   2.057   1.129  0.1150 -2.0454 -0.4838
 1871TIP3   OH2 5576   1.012   5.971   3.776  0.4361 -0.2696  0.6043
 1871TIP3    H1 5577   0.942   6.024   3.739  0.6294 -0.3713  0.0743
 1871TIP3    H2 5578   1.074   6.035   3.812  2.1143  0.1092 -2.5612
 1872TIP3   OH2 5579   3.880   6.565   5.621 -0.1001  0.1528  0.0426
 1872TIP3    H1 5580   3.892   6.566   5.526 -0.8407  0.5301 -0.0555
 1872TIP3    H2 5581   3.796   6.608   5.635  0.6594  1.4417  0.9736
 1873TIP3   OH2 5582   0.973   5.492   2.687  0.4764  0.3148 -0.4927
 1873TIP3    H1 5583   1.007   5.452   2.767  0.4954  0.7831 -0.2617
 1873TIP3    H2 5584   1.021   5.450   2.616 -0.3016 -0.8940 -0.3341
 1874TIP3   OH2 5585   6.593   2.198   4.345 -0.3655 -0.3597  0.1140
 1874TIP3    H1 5586   6.538   2.172   4.271 -0.8214  0.3361  0.1923
 1874TIP3    H2 5587   6.679   2.160   4.326 -0.8494 -1.4297 -0.0382
 1875TIP3   OH2 5588   3.633   2.249   2.635 -0.7188  0.0940  0.5407
 1875TIP3    H1 5589   3.691   2.301   2.690 -2.8673  1.1420  1.9497
 1875TIP3    H2 5590   3.546   2.285   2.651 -1.7839 -1.3473 -1.5353
 1876TIP3   OH2 5591   3.446   1.247   0.800  0.3138 -0.4223 -0.3011
 1876TIP3    H1 5592   3.397   1.192   0.739  1.1476 -0.3365 -1.0628
 1876TIP3    H2 5593   3.510   1.188   0.840 -0.9937 -0.7536  1.4038
 1877TIP3   OH2 5594   3.552   0.101   4.014  0.0268 -0.0715  0.1172
 1877TIP3    H1 5595   3.501   0.023   3.993 -0.1230  0.3061 -1.0354
 1877TIP3    H2 5596   3.643   0.073   4.006  0.0189 -0.6751  1.8970
 1878TIP3   OH2 5597   3.275   3.401   4.939 -0.5517  0.3830 -0.6565
 1878TIP3    H1 5598   3.293   3.364   5.025 -0.8638  1.1368 -0.2566
 1878TIP3    H2 5599   3.226   3.481   4.957 -0.0738  0.8833 -1.5001
 1879TIP3   OH2 5600   4.087   3.163   5.399  0.3472  0.7654  0.1595
 1879TIP3    H1 5601   4.084   3.162   5.304 -1.1914  1.0974  0.1699
 1879TIP3    H2 5602   4.102   3.254   5.422  2.2725  0.4687  0.2560
 1880TIP3   OH2 5603   3.584   3.290   1.899  0.1725 -0.0112  0.2495
 1880TIP3    H1 5604   3.625   3.307   1.814  1.6288 -0.7231  0.7787
 1880TIP3    H2 5605   3.593   3.196   1.911 -0.9350 -0.0653  0.7619
 1881TIP3   OH2 5606   2.177   1.252   2.968  0.2850 -0.3886 -0.2649
 1881TIP3    H1 5607   2.242   1.208   3.022 -0.2344 -1.0824 -0.1890
 1881TIP3    H2 5608   2.215   1.252   2.880  1.9194  2.2945  0.3427
 1882TIP3   OH2 5609   4.645   2.227   2.860 -0.0705  0.0836 -0.7491
 1882TIP3    H1 5610   4.584   2.195   2.927  0.4434 -0.0930 -0.3558
 1882TIP3    H2 5611   4.706   2.283   2.908 -0.4142  0.9323 -1.2814
 1883TIP3   OH2 5612   0.442   2.476   0.177  0.4408 -0.6364  0.4335
 1883TIP3    H1 5613   0.482   2.557   0.208 -2.1109 -0.1122  2.7672
 1883TIP3    H2 5614   0.404   2.498   0.092 -0.7798  0.8754  1.3246
 1884TIP3   OH2 5615   6.613   6.569   1.776  0.0181 -0.2130  0.3775
 1884TIP3    H1 5616   6.638   6.602   1.862 -1.0600  1.0051  0.2704
 1884TIP3    H2 5617   6.653   6.631   1.715  0.4452 -0.8385  0.0193
 1885TIP3   OH2 5618   1.071   4.424   3.326  0.2395 -0.3781  0.0602
 1885TIP3    H1 5619   1.130   4.456   3.395 -0.2280 -0.5940  0.5711
 1885TIP3    H2 5620   0.987   4.465   3.346  0.1092 -0.4067 -0.4163
 1886TIP3   OH2 5621   4.141   0.200   0.534 -0.9688  0.3137 -0.1278
 1886TIP3    H1 5622   4.227   0.236   0.555 -0.7737 -1.0964  1.7039
 1886TIP3    H2 5623   4.157   0.140   0.462 -0.6586  1.0577 -0.6880
 1887TIP3   OH2 5624   1.954   6.642   2.033  0.1406 -0.0431  0.8235
 1887TIP3    H1 5625   1.931   6.674   2.120 -1.2610 -1.7231  1.1088
 1887TIP3    H2 5626   1.894   6.688   1.974  1.5666  1.6452  0.5878
 1888TIP3   OH2 5627   2.414   3.172   0.439 -0.2291 -0.3529  0.1721
 1888TIP3    H1 5628   2.453   3.092   0.405  1.0057  0.1734  0.2944
 1888TIP3    H2 5629   2.411   3.232   0.365  1.2401  0.3399  0.6259
 1889TIP3   OH2 5630   2.754   2.684   0.766 -0.5786  0.1366 -0.4921
 1889TIP3    H1 5631   2.824   2.734   0.724 -0.6004  0.6906  0.1220
 1889TIP3    H2 5632   2.722   2.741   0.836  0.3856 -1.2868  1.2162
 1890TIP3   OH2 5633   3.136   6.761   2.421 -0.5181 -0.2750  0.1963
 1890TIP3    H1 5634   3.109   6.671   2.403  0.8893 -0.7769  0.5263
 1890TIP3    H2 5635   3.119   6.772   2.515 -3.7138  0.9036 -0.4078
 1891TIP3   OH2 5636   2.826   6.255   0.047 -0.0888  0.4016 -0.3391
 1891TIP3    H1 5637   2.777   6.201   0.109  1.7915  0.1627  1.0418
 1891TIP3    H2 5638   2.766   6.269  -0.026 -2.5477  1.0317  1.6727
 1892TIP3   OH2 5639   3.517   2.878   2.090  0.0014  0.0071  0.2950
 1892TIP3    H1 5640   3.426   2.854   2.073 -1.0125  2.2604  2.0903
 1892TIP3    H2 5641   3.542   2.932   2.015 -0.5494  0.4012  0.3943
 1893TIP3   OH2 5642   3.232   2.867   2.050 -0.0052  0.2593 -0.0373
 1893TIP3    H1 5643   3.242   2.953   2.008  0.9831  0.2717  0.2114
 1893TIP3    H2 5644   3.144   2.869   2.087 -0.0306  1.1326 -0.1186
 1894TIP3   OH2 5645   6.615   5.842   4.867 -0.6816  0.4230  0.3037
 1894TIP3    H1 5646   6.703   5.872   4.845 -0.3544 -0.0130  0.9807
 1894TIP3    H2 5647   6.629   5.776   4.934 -1.5927  1.2446  1.3353
 1895TIP3   OH2 5648   0.041   1.584   0.903 -0.3518 -0.3122 -0.2287
 1895TIP3    H1 5649   0.071   1.503   0.861 -1.4025 -0.0369 -1.5976
 1895TIP3    H2 5650   0.086   1.586   0.987 -0.3676 -2.3750 -0.1157
 1896TIP3   OH2 5651   0.382   0.218   2.698  0.0507 -0.6200 -0.3135
 1896TIP3    H1 5652   0.340   0.201   2.614 -0.0918 -0.0361 -0.3670
 1896TIP3    H2 5653   0.337   0.161   2.760  0.3574 -1.2719 -0.6826
 1897TIP3   OH2 5654   1.759   4.350   0.794  0.0292  0.2897  0.1994
 1897TIP3    H1 5655   1.671   4.321   0.772  0.5958 -0.9154 -0.5675
 1897TIP3    H2 5656   1.788   4.290   0.862  1.2925 -1.2130 -1.5499
 1898TIP3   OH2 5657   2.387   5.773   4.866  0.5542  0.1550 -0.1000
 1898TIP3    H1 5658   2.388   5.687   4.822 -0.5399 -0.7665  1.5527
 1898TIP3    H2 5659   2.335   5.829   4.808  1.2669 -0.2769 -1.1991
 1899TIP3   OH2 5660   3.778   4.401   4.083 -0.6435 -0.6219 -0.5656
 1899TIP3    H1 5661   3.840   4.452   4.031  1.0732 -2.5347 -0.5218
 1899TIP3    H2 5662   3.699   4.397   4.029 -0.7450  1.6925 -0.7183
 1900TIP3   OH2 5663   1.940   1.033   4.926 -0.1592  0.0335 -0.1631
 1900TIP3    H1 5664   1.893   0.974   4.867  2.2930 -0.7207 -1.5219
 1900TIP3    H2 5665   1.985   1.095   4.868  1.7637 -0.2712  0.8918
 1901TIP3   OH2 5666   5.528   2.065   4.015  0.1119  0.2854  0.0273
 1901TIP3    H1 5667   5.531   2.015   4.096 -1.1039  1.4330  0.8296
 1901TIP3    H2 5668   5.598   2.028   3.961 -0.3146 -1.8205  0.8111
 1902TIP3   OH2 5669   5.882   1.380   0.194 -0.3019  0.3753  0.1306
 1902TIP3    H1 5670   5.850   1.434   0.266  1.0448  0.3660  0.7676
 1902TIP3    H2 5671   5.968   1.351   0.222 -0.3766 -0.8823 -0.8549
 1903TIP3   OH2 5672   4.779   1.158   0.806 -0.2618 -0.0150  0.6239
 1903TIP3    H1 5673   4.687   1.146   0.781 -0.5537 -1.0891  2.0429
 1903TIP3    H2 5674   4.815   1.070   0.808  0.9842  0.4498 -0.4762
 1904TIP3   OH2 5675   0.444   4.836   4.836  0.5788 -0.3896  0.0962
 1904TIP3    H1 5676   0.534   4.852   4.808  0.4196 -0.0871 -0.2559
 1904TIP3    H2 5677   0.423   4.910   4.894  0.7045 -0.6959  0.5405
 1905TIP3   OH2 5678   2.053   4.244   2.930  0.1644 -0.1233 -0.8113
 1905TIP3    H1 5679   2.126   4.304   2.946  0.0938 -0.0982 -0.5896
 1905TIP3    H2 5680   2.001   4.287   2.862 -1.3017  1.3032  1.1196
 1906TIP3   OH2 5681   5.795   4.900   1.828  0.4300 -0.5627  0.4312
 1906TIP3    H1 5682   5.743   4.825   1.800  0.2238  0.0284 -0.8657
 1906TIP3    H2 5683   5.731   4.960   1.866  0.3841 -0.4662  0.2036
 1907TIP3   OH2 5684   3.134   3.191   1.522  0.4185  0.0100 -0.4055
 1907TIP3    H1 5685   3.180   3.269   1.553 -1.0602  0.9766 -0.5705
 1907TIP3    H2 5686   3.159   3.183   1.430  0.9307  0.0051 -0.2722
 1908TIP3   OH2 5687   5.324   1.194   2.259  0.1135 -0.0043  0.2461
 1908TIP3    H1 5688   5.377   1.208   2.338  0.7042 -0.7290 -0.0091
 1908TIP3    H2 5689   5.235   1.216   2.286  0.3293 -0.1054  1.0800
 1909TIP3   OH2 5690   0.509   6.681   2.840 -0.2464  0.2707  0.7594
 1909TIP3    H1 5691   0.590   6.639   2.809 -0.4807 -0.5709  1.2528
 1909TIP3    H2 5692   0.507   6.764   2.793  0.6096  0.0554  0.2957
 1910TIP3   OH2 5693   5.615   1.730   4.895 -0.1357 -0.1654 -0.8317
 1910TIP3    H1 5694   5.551   1.665   4.922 -0.3088  0.1964 -0.3616
 1910TIP3    H2 5695   5.629   1.712   4.802  1.2505 -2.0841 -0.3035
 1911TIP3   OH2 5696   6.490   1.366   4.765 -0.0686  0.5247  0.1629
 1911TIP3    H1 5697   6.464   1.287   4.812 -1.4276  1.2300  0.6571
 1911TIP3    H2 5698   6.414   1.424   4.772  0.1839  1.1760 -1.7618
 1912TIP3   OH2 5699   6.333   5.653   3.987 -0.5597 -0.1082 -0.0184
 1912TIP3    H1 5700   6.359   5.587   3.923 -1.5866 -0.2338 -0.3338
 1912TIP3    H2 5701   6.244   5.677   3.961 -0.3478  1.1028  0.3458
 1913TIP3   OH2 5702   6.116   4.248   2.108 -0.8092 -0.3923  0.0871
 1913TIP3    H1 5703   6.056   4.275   2.178 -0.4960 -1.2747  0.7106
 1913TIP3    H2 5704   6.195   4.221   2.154 -0.2163  0.0057 -0.6843
 1914TIP3   OH2 5705   2.013   3.700   2.839  0.0624 -0.0505 -0.0424
 1914TIP3    H1 5706   1.928   3.726   2.805 -0.1881  0.5053  0.9750
 1914TIP3    H2 5707   2.049   3.779   2.879  0.3884 -0.6293  0.8722
 1915TIP3   OH2 5708   6.301   4.307   0.804  0.7763 -0.1570 -0.0116
 1915TIP3    H1 5709   6.337   4.360   0.732  1.1277  1.0407  1.0013
 1915TIP3    H2 5710   6.362   4.322   0.877 -0.3470 -0.2016  0.9600
 1916TIP3   OH2 5711   6.546   3.081   5.585 -0.4338  0.6519  0.5284
 1916TIP3    H1 5712   6.473   3.047   5.636  0.6085 -0.8769  1.0913
 1916TIP3    H2 5713   6.612   3.104   5.651  0.7065 -0.7952 -0.0538
 1917TIP3   OH2 5714   0.395   4.879   3.282  0.5081  0.1242  0.1129
 1917TIP3    H1 5715   0.320   4.886   3.222  0.8586  0.8604 -0.2603
 1917TIP3    H2 5716   0.358   4.898   3.368  0.5253  2.0958 -0.2681
 1918TIP3   OH2 5717   0.489   2.439   4.467 -0.6960  0.1507 -0.2140
 1918TIP3    H1 5718   0.437   2.504   4.419 -2.3569 -0.9245  0.0479
 1918TIP3    H2 5719   0.548   2.403   4.402 -1.2561  0.4028 -0.8738
 1919TIP3   OH2 5720   5.305   2.177   0.462 -0.1304  0.5934 -0.1706
 1919TIP3    H1 5721   5.339   2.101   0.509 -1.4869 -0.2824 -0.5452
 1919TIP3    H2 5722   5.291   2.243   0.530 -0.3553 -0.0291  0.4010
 1920TIP3   OH2 5723   2.672   6.393   4.392 -1.0543 -0.2644  0.3873
 1920TIP3    H1 5724   2.696   6.325   4.328 -0.0301  0.3137  0.1442
 1920TIP3    H2 5725   2.663   6.345   4.474  0.3927 -0.6197  0.3749
 1921TIP3   OH2 5726   3.699   4.887   4.882  0.8003 -0.3257 -0.1296
 1921TIP3    H1 5727   3.676   4.850   4.797  0.4301  0.3420 -0.3247
 1921TIP3    H2 5728   3.642   4.963   4.891  2.2212  0.7667 -0.1548
 1922TIP3   OH2 5729   4.993   6.539   5.338 -0.0915  0.1382  0.3950
 1922TIP3    H1 5730   5.063   6.566   5.279 -0.4577 -0.1446 -0.1751
 1922TIP3    H2 5731   4.948   6.620   5.360  0.1450  0.2655  0.4187
 1923TIP3   OH2 5732   5.229   4.714   3.938 -0.4474 -0.4086 -0.0086
 1923TIP3    H1 5733   5.265   4.740   3.853  0.1534 -1.9581 -0.2592
 1923TIP3    H2 5734   5.270   4.773   4.001 -0.9929  0.8385 -0.7929
 1924TIP3   OH2 5735   0.024   4.416   3.324 -0.5276  0.3634 -0.7247
 1924TIP3    H1 5736   0.095   4.356   3.347 -0.1862  1.0224  0.0249
 1924TIP3    H2 5737  -0.051   4.387   3.375 -0.5679  0.1551 -0.9012
 1925TIP3   OH2 5738   1.181   0.658   3.146 -0.2801 -0.5409 -0.1781
 1925TIP3    H1 5739   1.224   0.589   3.196  0.0051  0.5559  1.1387
 1925TIP3    H2 5740   1.111   0.613   3.098  0.5339 -1.8880 -0.1500
 1926TIP3   OH2 5741   5.579   0.914   3.768 -0.2961 -0.5605 -0.4454
 1926TIP3    H1 5742   5.533   0.832   3.785 -1.1080  0.0073  0.2147
 1926TIP3    H2 5743   5.540   0.946   3.686  0.0943 -0.8773 -0.7580
 1927TIP3   OH2 5744   6.019   4.804   3.205  0.2542  0.1928  0.2732
 1927TIP3    H1 5745   6.008   4.856   3.284 -0.9213  1.5453 -0.7381
 1927TIP3    H2 5746   6.095   4.842   3.161  1.6673 -1.3251  1.2769
 1928TIP3   OH2 5747   2.282   4.671   3.483  0.2505  0.2752  0.3747
 1928TIP3    H1 5748   2.273   4.593   3.538  0.2867 -1.2604 -1.6867
 1928TIP3    H2 5749   2.194   4.706   3.476  0.3667  0.9940  2.0376
 1929TIP3   OH2 5750   6.616   1.679   0.587 -0.4773  0.2494 -0.6480
 1929TIP3    H1 5751   6.682   1.615   0.561  2.8133  3.0660  0.0185
 1929TIP3    H2 5752   6.638   1.701   0.678 -2.2237  1.4807 -0.4632
 1930TIP3   OH2 5753   6.188   3.700   3.870  0.0348  0.3651  0.2751
 1930TIP3    H1 5754   6.212   3.777   3.818  0.7841 -0.8720 -1.2825
 1930TIP3    H2 5755   6.266   3.644   3.866 -0.5846 -0.5871  1.1962
 1931TIP3   OH2 5756   2.282   1.067   0.005 -0.2744  1.0146 -0.2614
 1931TIP3    H1 5757   2.289   0.995   0.068  0.9056  1.1946 -0.1720
 1931TIP3    H2 5758   2.221   1.128   0.047 -1.9450 -0.2854 -0.7148
 1932TIP3   OH2 5759   3.496   1.013   1.101  0.5091 -0.4647 -0.2887
 1932TIP3    H1 5760   3.589   1.020   1.124  0.2719 -0.6130  0.7578
 1932TIP3    H2 5761   3.496   1.002   1.006  1.5065  0.7254 -0.4530
 1933TIP3   OH2 5762   0.090   5.107   0.470 -0.4147  0.1066  0.6758
 1933TIP3    H1 5763   0.177   5.133   0.441  0.1672  0.0482  2.2823
 1933TIP3    H2 5764   0.031   5.169   0.426  0.3341 -0.2429 -0.9238
 1934TIP3   OH2 5765   4.867   4.866   4.793  0.1100 -0.1480  0.0952
 1934TIP3    H1 5766   4.904   4.809   4.861 -1.4833  0.8378  1.8727
 1934TIP3    H2 5767   4.783   4.895   4.829 -0.3104  1.2556 -1.8717
 1935TIP3   OH2 5768   3.238   0.378   4.377 -0.2727  0.7209  0.9439
 1935TIP3    H1 5769   3.144   0.392   4.376 -0.5996 -1.2287  0.9256
 1935TIP3    H2 5770   3.269   0.412   4.293 -0.8469  1.9150  1.1993
 1936TIP3   OH2 5771   6.374   3.299   2.981 -0.1500 -0.4005  0.1572
 1936TIP3    H1 5772   6.415   3.335   3.059 -1.0677 -2.4087  1.6668
 1936TIP3    H2 5773   6.280   3.308   2.997 -0.4103 -2.7410  0.3435
 1937TIP3   OH2 5774   4.720   0.821   0.752  0.4442 -0.0573  0.3247
 1937TIP3    H1 5775   4.628   0.827   0.779  0.5503  2.9583  0.2651
 1937TIP3    H2 5776   4.767   0.798   0.832 -0.2158 -0.4521  0.6118
 1938TIP3   OH2 5777   4.813   2.654   5.613 -0.0969 -0.3888  0.4395
 1938TIP3    H1 5778   4.768   2.586   5.663  0.7859 -0.3545  1.3198
 1938TIP3    H2 5779   4.854   2.606   5.541 -3.3389 -0.1365 -1.7755
 1939TIP3   OH2 5780   0.815   6.167   3.712  0.0413 -0.1501 -0.6671
 1939TIP3    H1 5781   0.753   6.239   3.723  1.0079  0.8469 -1.5016
 1939TIP3    H2 5782   0.818   6.153   3.617 -0.0971 -1.2709 -0.5141
 1940TIP3   OH2 5783   5.930   3.670   0.674 -0.1886 -0.0605 -0.0925
 1940TIP3    H1 5784   5.873   3.631   0.609 -0.2939  0.9662 -0.6408
 1940TIP3    H2 5785   6.013   3.622   0.667 -0.8013 -1.2153  0.3533
 1941TIP3   OH2 5786   0.195   1.503   5.720 -1.2129 -0.0047  0.2956
 1941TIP3    H1 5787   0.151   1.442   5.661 -0.2006  0.8826 -1.4430
 1941TIP3    H2 5788   0.234   1.447   5.787 -0.2966 -1.3108 -1.2692
 1942TIP3   OH2 5789   3.869   2.836   0.435 -0.0476  0.0556  0.3532
 1942TIP3    H1 5790   3.825   2.781   0.500 -1.5560  1.5100  0.6327
 1942TIP3    H2 5791   3.894   2.775   0.365 -2.3579 -0.8996  0.2699
 1943TIP3   OH2 5792   6.481   1.868   5.381 -0.8061  0.1496 -0.4895
 1943TIP3    H1 5793   6.544   1.815   5.430 -0.8906  0.2171 -0.3079
 1943TIP3    H2 5794   6.434   1.918   5.448 -1.6252 -0.5077 -0.5478
 1944TIP3   OH2 5795   0.320   2.813   0.141  0.2508 -0.8083  0.1157
 1944TIP3    H1 5796   0.395   2.791   0.197  0.5875  0.9583  0.4133
 1944TIP3    H2 5797   0.357   2.868   0.072 -1.1089  2.7055  1.9530
 1945TIP3   OH2 5798   1.714   5.965   4.806 -0.6113 -0.3024 -0.0295
 1945TIP3    H1 5799   1.636   5.937   4.758 -1.6598  0.9689  0.8319
 1945TIP3    H2 5800   1.679   6.004   4.887  0.8230  1.4397 -0.1889
 1946TIP3   OH2 5801   4.646   5.338   3.666 -0.2701 -0.0859  0.0281
 1946TIP3    H1 5802   4.552   5.353   3.655 -0.6140 -1.1487  1.2622
 1946TIP3    H2 5803   4.664   5.366   3.756  0.6224  0.2102 -0.2357
 1947TIP3   OH2 5804   4.280   1.521   0.319  0.4407  0.1914  0.1422
 1947TIP3    H1 5805   4.330   1.440   0.325  0.5511  0.1050 -1.4657
 1947TIP3    H2 5806   4.340   1.583   0.277 -0.2921  0.5286 -0.4247
 1948TIP3   OH2 5807   5.462   2.528   4.646  0.6194 -0.2518 -0.0791
 1948TIP3    H1 5808   5.445   2.597   4.710 -0.9117 -1.0968  0.4627
 1948TIP3    H2 5809   5.556   2.512   4.653  0.8765  1.2668  0.2866
 1949TIP3   OH2 5810   2.493   6.223   0.349 -0.1240 -0.4938 -0.1347
 1949TIP3    H1 5811   2.565   6.165   0.326 -1.7814 -2.7962  0.1142
 1949TIP3    H2 5812   2.520   6.265   0.430  1.1308 -0.8932 -0.3315
 1950TIP3   OH2 5813   3.923   5.493   0.786 -0.0020  0.1489  0.3970
 1950TIP3    H1 5814   4.009   5.524   0.813  0.4366  0.8945 -1.6914
 1950TIP3    H2 5815   3.861   5.549   0.833  0.6824  0.4252  0.9721
 1951TIP3   OH2 5816   4.790   6.514   1.193 -0.0220  0.6830 -0.0112
 1951TIP3    H1 5817   4.846   6.545   1.264 -0.7764  1.6256  0.2011
 1951TIP3    H2 5818   4.701   6.523   1.227 -0.2959 -1.9974  0.1292
 1952TIP3   OH2 5819   2.938   2.333   2.312 -0.5616 -0.2132 -0.0791
 1952TIP3    H1 5820   2.845   2.320   2.331 -0.9203  2.2519  0.1355
 1952TIP3    H2 5821   2.966   2.401   2.373  0.6781  1.0421 -1.9253
 1953TIP3   OH2 5822   2.095   3.052   1.523  0.2830 -0.2067  0.4961
 1953TIP3    H1 5823   2.184   3.086   1.512  0.7402 -0.8507  1.9436
 1953TIP3    H2 5824   2.098   2.964   1.486  0.2830 -0.2814  0.6745
 1954TIP3   OH2 5825   4.996   3.959   4.126 -0.3455 -0.6306  0.1845
 1954TIP3    H1 5826   5.033   3.968   4.214 -0.5144  0.2161  0.1760
 1954TIP3    H2 5827   5.072   3.951   4.069 -0.2180 -0.4334  0.3251
 1955TIP3   OH2 5828   6.386   0.565   3.569 -0.0841  0.3191 -0.0821
 1955TIP3    H1 5829   6.357   0.634   3.510  0.2112  0.9363  0.4801
 1955TIP3    H2 5830   6.335   0.579   3.649  0.7069  0.5305  0.4032
 1956TIP3   OH2 5831   6.321   6.295   0.432  0.5311  0.3982 -0.2329
 1956TIP3    H1 5832   6.260   6.273   0.361 -0.2087 -1.0804  0.8115
 1956TIP3    H2 5833   6.340   6.388   0.419 -0.4300  0.4214 -1.7234
 1957TIP3   OH2 5834   4.321   2.116   5.380  0.4131  0.4043 -0.1261
 1957TIP3    H1 5835   4.262   2.142   5.451  1.9976  2.0133  0.6989
 1957TIP3    H2 5836   4.265   2.112   5.303 -1.2351 -0.7123  1.0522
 1958TIP3   OH2 5837   5.518   4.739   5.376  0.7989  0.6956 -0.3140
 1958TIP3    H1 5838   5.604   4.767   5.345  0.5463  1.7275 -0.1266
 1958TIP3    H2 5839   5.474   4.820   5.400 -0.2352  0.1794 -0.4120
 1959TIP3   OH2 5840   7.145   2.840   2.198 -0.6910 -0.4104 -0.3418
 1959TIP3    H1 5841   7.098   2.921   2.181 -0.2016  0.3613  1.6467
 1959TIP3    H2 5842   7.152   2.836   2.294  1.6878 -1.4163 -0.4834
 1960TIP3   OH2 5843   7.039   4.469   3.532 -0.7650 -0.0642 -0.4184
 1960TIP3    H1 5844   6.976   4.426   3.589  1.1755  1.7270  3.4523
 1960TIP3    H2 5845   7.028   4.562   3.549  1.6120  0.4040 -0.9909
 1961TIP3   OH2 5846   3.858   1.079   2.198  0.2398  0.6206  0.0036
 1961TIP3    H1 5847   3.854   1.001   2.253  1.2394  0.9213  0.5225
 1961TIP3    H2 5848   3.870   1.046   2.109 -0.6779  0.1521  0.0472
 1962TIP3   OH2 5849   1.205   2.654   3.380 -0.0126 -0.0965 -0.1654
 1962TIP3    H1 5850   1.123   2.701   3.395 -0.0380 -0.0620 -0.4167
 1962TIP3    H2 5851   1.263   2.719   3.342 -0.4330 -0.5638 -1.6810
 1963TIP3   OH2 5852   3.803   3.046   2.546 -0.0141 -0.4163  0.0555
 1963TIP3    H1 5853   3.781   3.093   2.626 -1.3902  1.4139 -1.3051
 1963TIP3    H2 5854   3.746   2.968   2.547  1.3083 -1.4251  1.6737
 1964TIP3   OH2 5855   1.348   2.928   0.382  0.3161 -0.1569  0.6391
 1964TIP3    H1 5856   1.358   3.021   0.360  0.1416 -0.5475 -1.2540
 1964TIP3    H2 5857   1.410   2.883   0.325  0.5948 -1.2069  1.7334
 1965TIP3   OH2 5858   1.676   4.569   1.786  0.1713  0.3722  0.4418
 1965TIP3    H1 5859   1.756   4.610   1.817  1.3733 -2.2597  1.1357
 1965TIP3    H2 5860   1.609   4.592   1.850  1.0754  0.3312  1.4120
 1966TIP3   OH2 5861   1.999   6.143   0.023 -0.3337 -0.1855 -0.3093
 1966TIP3    H1 5862   2.024   6.094   0.101 -0.4094 -0.5284 -0.4979
 1966TIP3    H2 5863   1.938   6.210   0.055 -3.2346 -2.5321 -0.5047
 1967TIP3   OH2 5864   6.142   0.833   2.771 -0.1814  0.2319 -0.7908
 1967TIP3    H1 5865   6.063   0.862   2.816 -0.0533 -0.5099 -0.0487
 1967TIP3    H2 5866   6.191   0.913   2.754 -0.4509  0.5797 -0.0011
 1968TIP3   OH2 5867   0.599   2.190   0.520  0.0243  0.3908 -0.1652
 1968TIP3    H1 5868   0.540   2.123   0.555  0.4607  0.6447  1.1011
 1968TIP3    H2 5869   0.551   2.228   0.446 -0.0315 -1.6405 -1.2576
 1969TIP3   OH2 5870   5.906   1.092   4.167  0.6213  0.1818 -0.4778
 1969TIP3    H1 5871   5.843   1.090   4.094 -2.1420 -0.3102  1.7410
 1969TIP3    H2 5872   5.896   1.179   4.205  2.2705  0.5474 -0.8062
 1970TIP3   OH2 5873   3.070   0.196   0.756 -0.4734 -0.0298  0.3237
 1970TIP3    H1 5874   3.050   0.286   0.779  0.4539  0.4998 -0.8692
 1970TIP3    H2 5875   2.986   0.160   0.727 -0.9793  0.2271  1.3812
 1971TIP3   OH2 5876   3.402   5.450   0.497 -0.1156  0.5148  0.1434
 1971TIP3    H1 5877   3.347   5.413   0.565  0.7712 -1.2545 -0.0587
 1971TIP3    H2 5878   3.343   5.505   0.446 -1.4124 -0.3363  0.6820
 1972TIP3   OH2 5879   1.973   5.179   2.765 -0.8593 -0.0977  0.2845
 1972TIP3    H1 5880   2.036   5.180   2.837  1.3761  0.4335 -1.5601
 1972TIP3    H2 5881   1.972   5.269   2.733 -1.0761 -0.5195 -0.9392
 1973TIP3   OH2 5882   5.085   1.780   5.291 -0.3299  0.0303 -0.2805
 1973TIP3    H1 5883   5.037   1.698   5.287  0.5022 -0.4380 -1.2598
 1973TIP3    H2 5884   5.018   1.846   5.312 -0.9596 -0.9075  0.7797
 1974TIP3   OH2 5885   0.264   2.135   4.746 -0.3114 -0.5643  0.3030
 1974TIP3    H1 5886   0.177   2.125   4.708  0.2837 -0.1490 -1.2395
 1974TIP3    H2 5887   0.324   2.104   4.678  0.7580 -0.6494  1.2560
 1975TIP3   OH2 5888   5.538   6.559   3.543  0.5067  0.4449  0.9815
 1975TIP3    H1 5889   5.564   6.625   3.608  0.8330 -1.3798  2.7957
 1975TIP3    H2 5890   5.493   6.491   3.595  0.0312 -0.6916 -0.8424
 1976TIP3   OH2 5891   3.768   3.439   5.349 -0.0801 -0.0858 -0.3286
 1976TIP3    H1 5892   3.752   3.452   5.443 -1.5266  0.2113 -0.6054
 1976TIP3    H2 5893   3.795   3.347   5.342  1.1416  0.1840  0.4987
 1977TIP3   OH2 5894   4.385   3.254   0.494 -0.0763  1.1317 -0.7624
 1977TIP3    H1 5895   4.428   3.316   0.435  2.3953 -0.2574 -0.5673
 1977TIP3    H2 5896   4.455   3.223   0.552 -1.4467 -0.9492 -0.0819
 1978TIP3   OH2 5897   1.704   3.502   2.870  0.4740  0.6835  0.0386
 1978TIP3    H1 5898   1.647   3.536   2.801 -0.9726 -0.8061  0.4225
 1978TIP3    H2 5899   1.764   3.444   2.825 -1.1491 -1.1258  0.0588
 1979TIP3   OH2 5900   4.712   1.512   3.028 -0.4010 -0.6240  0.3547
 1979TIP3    H1 5901   4.762   1.591   3.050 -0.8449 -0.0681 -0.5790
 1979TIP3    H2 5902   4.687   1.475   3.113  0.2789 -0.0609  0.8099
 1980TIP3   OH2 5903   0.448   5.557   1.545 -0.3648  0.2108 -0.4201
 1980TIP3    H1 5904   0.504   5.481   1.557  1.1714  0.8509 -2.7253
 1980TIP3    H2 5905   0.460   5.609   1.624  0.7840 -0.6057 -0.0321
 1981TIP3   OH2 5906   3.111   2.167   0.591 -0.0873  0.1681 -0.5107
 1981TIP3    H1 5907   3.169   2.205   0.657 -0.3822  0.4283 -0.3979
 1981TIP3    H2 5908   3.165   2.102   0.546  0.0179 -0.2409  0.1983
 1982TIP3   OH2 5909   1.407   0.229   3.244  0.5948  0.3718  0.1375
 1982TIP3    H1 5910   1.373   0.152   3.198  1.8995 -0.7126  0.9108
 1982TIP3    H2 5911   1.331   0.287   3.253 -0.8426 -1.5346  0.9817
 1983TIP3   OH2 5912   0.956   5.318   0.491  0.2406 -0.2221 -0.6330
 1983TIP3    H1 5913   0.948   5.399   0.440  0.6228  0.5552  0.5023
 1983TIP3    H2 5914   1.047   5.316   0.519  0.4713 -1.5296 -1.3872
 1984TIP3   OH2 5915   0.049   0.478   5.693  0.1141 -0.4704 -0.1740
 1984TIP3    H1 5916  -0.022   0.511   5.638  0.6591 -0.5641 -0.9445
 1984TIP3    H2 5917   0.126   0.527   5.666  0.4908 -0.8653  0.1612
 1985TIP3   OH2 5918   3.628   1.219   4.804 -0.1665 -0.0046  0.7946
 1985TIP3    H1 5919   3.632   1.124   4.793  0.3730  0.1117 -0.0806
 1985TIP3    H2 5920   3.601   1.251   4.718  1.2787  0.7470  0.6023
 1986TIP3   OH2 5921   1.120   2.424   0.578  0.2352 -0.1246  0.0326
 1986TIP3    H1 5922   1.159   2.461   0.658 -1.9840 -0.0919  1.1659
 1986TIP3    H2 5923   1.109   2.331   0.598 -0.4675 -0.0868 -0.1734
 1987TIP3   OH2 5924   4.667   4.264   2.562  0.5846 -0.5032 -0.0417
 1987TIP3    H1 5925   4.686   4.281   2.654  1.5259 -0.5959 -0.2108
 1987TIP3    H2 5926   4.737   4.206   2.533  0.6069 -0.0365 -0.9626
 1988TIP3   OH2 5927   1.662   4.985   4.247 -0.2269  0.2211 -0.3919
 1988TIP3    H1 5928   1.680   4.901   4.289 -1.0015 -0.2540 -0.9944
 1988TIP3    H2 5929   1.700   4.978   4.160 -1.3475  0.0317 -0.8777
 1989TIP3   OH2 5930   0.994   2.865   4.348 -0.1519  0.4095 -0.4212
 1989TIP3    H1 5931   0.939   2.889   4.423  0.7009 -0.6591  0.5804
 1989TIP3    H2 5932   1.081   2.897   4.370  0.2892 -0.6631 -0.5489
 1990TIP3   OH2 5933   0.135   4.333   4.217  0.2572 -0.0396 -0.3806
 1990TIP3    H1 5934   0.227   4.304   4.218  0.0827 -0.5947  0.0446
 1990TIP3    H2 5935   0.095   4.282   4.147 -0.2898 -1.6494  1.0228
 1991TIP3   OH2 5936   4.734   3.665   1.724 -0.0726  0.2776 -0.5698
 1991TIP3    H1 5937   4.719   3.581   1.767 -1.3922  0.1612 -1.2037
 1991TIP3    H2 5938   4.827   3.681   1.736 -0.0594 -0.6101  0.7443
 1992TIP3   OH2 5939   5.586   1.231   0.230 -0.2354 -0.8646  0.0704
 1992TIP3    H1 5940   5.534   1.293   0.179  0.3294 -0.4736 -0.0504
 1992TIP3    H2 5941   5.531   1.154   0.239 -1.2831 -0.0601  0.9100
 1993TIP3   OH2 5942   1.540   6.099   5.514 -0.9219 -0.1329  0.4060
 1993TIP3    H1 5943   1.614   6.067   5.462 -0.4929  1.2961  0.0708
 1993TIP3    H2 5944   1.479   6.135   5.449 -1.7338 -0.9420  0.7100
 1994TIP3   OH2 5945   3.404   3.736   0.217  0.4240 -0.5249  0.1522
 1994TIP3    H1 5946   3.448   3.759   0.299 -1.4723 -1.4965  1.5078
 1994TIP3    H2 5947   3.452   3.660   0.184  0.7974 -0.5294  0.6905
 1995TIP3   OH2 5948   3.010   6.787   4.248  0.2480 -0.5079 -0.0962
 1995TIP3    H1 5949   2.972   6.858   4.197 -0.5936 -0.1562  0.9818
 1995TIP3    H2 5950   2.934   6.739   4.282  0.7995 -1.1823  0.2050
 1996TIP3   OH2 5951   5.939   1.440   2.873 -0.2002  1.0428 -0.2763
 1996TIP3    H1 5952   6.021   1.392   2.871 -0.4426  0.5013  1.3443
 1996TIP3    H2 5953   5.887   1.402   2.801 -1.2865 -2.9231  2.2779
 1997TIP3   OH2 5954   3.391   4.124   1.508 -0.2463 -0.1132  0.3996
 1997TIP3    H1 5955   3.437   4.208   1.505 -0.4109 -0.0404 -2.0109
 1997TIP3    H2 5956   3.327   4.129   1.437 -1.5130 -1.6207  1.3589
 1998TIP3   OH2 5957   0.577   1.825   4.731 -0.3932 -0.2352 -0.0603
 1998TIP3    H1 5958   0.534   1.783   4.806 -0.7764 -0.2703 -0.2988
 1998TIP3    H2 5959   0.607   1.909   4.766  0.2008 -0.6105  0.3642
 1999TIP3   OH2 5960   4.451   6.448   2.679  0.2074  0.3670 -0.1859
 1999TIP3    H1 5961   4.395   6.389   2.628 -2.9749  2.3512  0.7473
 1999TIP3    H2 5962   4.479   6.395   2.754 -2.8673 -0.0197  0.8343
 2000TIP3   OH2 5963   2.685   1.341   4.993  0.0811  0.2343  0.2030
 2000TIP3    H1 5964   2.641   1.419   5.027  1.3816  0.3969  1.6646
 2000TIP3    H2 5965   2.630   1.311   4.921 -1.0049  1.8897  0.2915
 2001TIP3   OH2 5966   6.845   4.229   4.668 -0.1194  0.4253  0.8152
 2001TIP3    H1 5967   6.928   4.274   4.684  2.0644 -2.6648 -0.6096
 2001TIP3    H2 5968   6.834   4.233   4.573 -0.2292 -1.2622  0.7206
 2002TIP3   OH2 5969   5.449   2.950   3.111 -0.5957  0.0552  0.0151
 2002TIP3    H1 5970   5.420   2.931   3.201  0.4481  1.0380  0.5866
 2002TIP3    H2 5971   5.370   2.982   3.067 -1.6528 -2.4200 -0.0930
 2003TIP3   OH2 5972   2.862   2.146   0.697  0.8362  0.2141  0.0046
 2003TIP3    H1 5973   2.949   2.144   0.657  0.8306  0.3523 -0.0147
 2003TIP3    H2 5974   2.804   2.172   0.626  1.0375  2.0943  0.4793
 2004TIP3   OH2 5975   6.449   2.332   5.686 -0.0860  0.0185  0.3778
 2004TIP3    H1 5976   6.531   2.362   5.646 -1.2951  1.0787 -1.4401
 2004TIP3    H2 5977   6.476   2.297   5.771  2.5648 -1.8772 -1.0853
 2005TIP3   OH2 5978   2.075   5.665   3.734  0.8236 -0.0279  0.6529
 2005TIP3    H1 5979   2.154   5.679   3.785  0.2841  0.4076  1.3888
 2005TIP3    H2 5980   2.003   5.684   3.794  0.1000 -2.2217  0.5776
 2006TIP3   OH2 5981   0.875   2.407   4.518 -0.1822  0.3405 -0.1167
 2006TIP3    H1 5982   0.920   2.458   4.450 -1.1805  0.5959 -0.6087
 2006TIP3    H2 5983   0.888   2.316   4.492 -0.6085  0.4392 -0.6966
 2007TIP3   OH2 5984   5.939   4.829   4.009  0.2546 -0.0586  0.3334
 2007TIP3    H1 5985   5.882   4.763   4.046 -0.6515  0.2398 -0.4923
 2007TIP3    H2 5986   6.018   4.827   4.064 -0.2217 -1.0195  0.9980
 2008TIP3   OH2 5987   4.905   1.995   0.964 -0.3187  0.3711  0.3278
 2008TIP3    H1 5988   4.993   1.972   0.994 -0.2762 -0.6258 -0.5266
 2008TIP3    H2 5989   4.854   1.915   0.975 -1.3154  1.1258  1.4580
 2009TIP3   OH2 5990   5.439   4.288   5.407  0.2761 -0.4400 -0.6384
 2009TIP3    H1 5991   5.500   4.358   5.384 -0.8041  0.9211  0.4178
 2009TIP3    H2 5992   5.482   4.240   5.478 -0.5087  1.6319  1.3876
 2010TIP3   OH2 5993   1.397   3.300   5.670  0.0296 -0.5276  0.1337
 2010TIP3    H1 5994   1.432   3.279   5.583  1.5941  1.0042  0.3359
 2010TIP3    H2 5995   1.366   3.217   5.705  0.6363 -1.4026 -1.3393
 2011TIP3   OH2 5996   6.552   4.832   3.118 -0.2634 -0.4182 -0.7680
 2011TIP3    H1 5997   6.499   4.752   3.119 -2.5232  0.9623  1.7852
 2011TIP3    H2 5998   6.527   4.877   3.038  1.2929 -2.2956 -2.4231
 2012TIP3   OH2 5999   5.191   0.021   4.063 -0.1049 -0.4633 -0.6777
 2012TIP3    H1 6000   5.099  -0.007   4.055  0.7483 -3.1690 -2.3319
 2012TIP3    H2 6001   5.204   0.082   3.990 -0.4732 -0.4631 -0.7463
 2013TIP3   OH2 6002   1.702   0.171   1.534 -1.1392  0.0329 -0.5515
 2013TIP3    H1 6003   1.687   0.076   1.538 -0.5422 -0.0117  1.6079
 2013TIP3    H2 6004   1.634   0.203   1.475 -2.5891 -1.5003  0.1968
 2014TIP3   OH2 6005   0.731   0.397   3.624  0.0611 -0.1611 -0.3647
 2014TIP3    H1 6006   0.757   0.403   3.531 -1.0618  2.1273 -0.5925
 2014TIP3    H2 6007   0.811   0.420   3.672 -0.7232  5.1219 -1.0199
 2015TIP3   OH2 6008   1.386   4.330   5.047 -0.1243 -0.3174 -0.1310
 2015TIP3    H1 6009   1.353   4.399   5.105 -2.3405 -0.9808 -0.4853
 2015TIP3    H2 6010   1.418   4.376   4.970 -0.5206  0.3768  0.1103
 2016TIP3   OH2 6011   3.111   1.989   5.776 -1.0040 -0.1365 -0.4022
 2016TIP3    H1 6012   3.127   2.078   5.744 -0.5202 -0.1863 -0.3131
 2016TIP3    H2 6013   3.177   1.977   5.845  0.0777 -1.1875 -1.5777
 2017TIP3   OH2 6014   5.224   0.357   2.837  0.4109 -0.1936  0.0353
 2017TIP3    H1 6015   5.176   0.309   2.769 -0.2309 -1.3193  1.2451
 2017TIP3    H2 6016   5.315   0.354   2.807  0.7282 -3.7982  0.8608
 2018TIP3   OH2 6017   5.588   4.215   4.778 -0.7392 -0.0673 -0.2009
 2018TIP3    H1 6018   5.676   4.197   4.810 -1.2523  0.1580  1.4624
 2018TIP3    H2 6019   5.596   4.215   4.683  1.0030 -0.2660 -0.0849
 2019TIP3   OH2 6020   0.096   4.785   1.128  0.1175 -0.0688 -0.1863
 2019TIP3    H1 6021   0.023   4.775   1.189  0.6375  0.0012  0.4669
 2019TIP3    H2 6022   0.155   4.713   1.150 -0.1992 -0.7214 -1.3687
 2020TIP3   OH2 6023   6.969   6.162   5.344  0.0230 -0.4158 -0.4408
 2020TIP3    H1 6024   6.971   6.250   5.306 -0.5790 -0.5343 -0.7754
 2020TIP3    H2 6025   6.879   6.132   5.327  0.4612 -1.4116 -1.0729
 2021TIP3   OH2 6026   3.097   4.423   1.040 -0.5803  0.3983 -0.1331
 2021TIP3    H1 6027   3.169   4.445   1.099 -0.3586  2.2419 -1.0246
 2021TIP3    H2 6028   3.113   4.331   1.017  0.9658  0.4937  0.4016
 2022TIP3   OH2 6029   6.992   0.241   3.058  0.1537  0.1627 -0.1353
 2022TIP3    H1 6030   7.001   0.335   3.050 -0.2037  0.2182  0.0684
 2022TIP3    H2 6031   7.010   0.207   2.971 -2.2787  0.6235 -0.8931
 2023TIP3   OH2 6032   0.397   6.613   2.207 -0.5087  0.2880 -0.0839
 2023TIP3    H1 6033   0.324   6.662   2.244 -0.5500  1.4914 -1.6349
 2023TIP3    H2 6034   0.373   6.597   2.115  0.7135 -0.1904 -0.3543
 2024TIP3   OH2 6035   5.615   3.560   4.660 -0.1106 -0.1621  0.5403
 2024TIP3    H1 6036   5.574   3.512   4.732 -0.0147  0.0871  0.7632
 2024TIP3    H2 6037   5.709   3.556   4.679 -0.1024  0.1220  0.5691
 2025TIP3   OH2 6038   0.156   1.363   1.690  0.7120  0.1509  1.0059
 2025TIP3    H1 6039   0.061   1.372   1.688  0.6209 -0.6649  1.6146
 2025TIP3    H2 6040   0.172   1.271   1.710  1.6379  0.0418 -0.1138
 2026TIP3   OH2 6041   2.717   1.987   3.489  0.0698  0.0298 -0.1294
 2026TIP3    H1 6042   2.688   2.071   3.456  0.3174 -0.3443 -1.3262
 2026TIP3    H2 6043   2.651   1.924   3.460 -0.3661 -0.1488  1.1571
 2027TIP3   OH2 6044   6.215   6.663   2.914  0.1605  0.0015  0.0398
 2027TIP3    H1 6045   6.178   6.644   2.828 -1.6988  1.3614  0.4695
 2027TIP3    H2 6046   6.182   6.593   2.970 -2.9717  1.8178  0.6766
 2028TIP3   OH2 6047   1.916   3.544   2.442 -0.1921 -0.0275 -0.0145
 2028TIP3    H1 6048   1.860   3.578   2.373 -3.5606  1.1443  2.9998
 2028TIP3    H2 6049   1.973   3.617   2.465 -0.1561  0.0819 -0.4407
 2029TIP3   OH2 6050   5.137   2.367   5.335  0.2278 -0.0961  0.1883
 2029TIP3    H1 6051   5.206   2.355   5.270 -0.4862  0.4649 -0.6870
 2029TIP3    H2 6052   5.170   2.322   5.413  0.9088 -1.1411 -0.6785
 2030TIP3   OH2 6053   3.073   3.157   0.466  0.0491 -0.1994 -0.0326
 2030TIP3    H1 6054   3.028   3.218   0.524  1.6475  1.5383 -0.5353
 2030TIP3    H2 6055   3.139   3.116   0.523  0.2506 -0.0205 -0.1358
 2031TIP3   OH2 6056   4.779   4.778   0.434 -0.3758  0.0484 -0.6379
 2031TIP3    H1 6057   4.848   4.747   0.493 -0.0618  0.7369 -0.6290
 2031TIP3    H2 6058   4.698   4.761   0.481 -0.0832  1.5989  0.5202
 2032TIP3   OH2 6059   6.895   0.381   1.137 -0.3176  0.1218  0.1949
 2032TIP3    H1 6060   6.852   0.317   1.194 -1.7950  1.7487  0.9970
 2032TIP3    H2 6061   6.989   0.365   1.150 -0.5858  0.3055  3.0033
 2033TIP3   OH2 6062   1.161   1.417   4.522 -0.3601 -0.1403  0.0740
 2033TIP3    H1 6063   1.122   1.436   4.607 -1.9914  0.6505 -0.8145
 2033TIP3    H2 6064   1.210   1.496   4.500 -0.6378 -0.0190 -0.1054
 2034TIP3   OH2 6065   2.782   5.437   3.225  0.2459  0.8531 -1.0863
 2034TIP3    H1 6066   2.818   5.395   3.147  0.0504 -1.1291 -0.1768
 2034TIP3    H2 6067   2.705   5.384   3.247  1.6139 -0.1282  1.7780
 2035TIP3   OH2 6068   2.906   5.009   1.824  0.3455 -0.0520  0.3278
 2035TIP3    H1 6069   2.888   5.007   1.918 -0.2323  1.5751  0.2936
 2035TIP3    H2 6070   2.822   5.033   1.785  1.4218  3.3460 -0.2336
 2036TIP3   OH2 6071   4.264   6.404   0.054  0.6055 -0.1638  0.2771
 2036TIP3    H1 6072   4.245   6.448  -0.029  1.3307  3.7939  1.9448
 2036TIP3    H2 6073   4.352   6.435   0.077  1.0937 -2.4601  1.8078
 2037TIP3   OH2 6074   4.888   3.784   0.619 -0.3187  0.2909  0.2084
 2037TIP3    H1 6075   4.904   3.878   0.609 -0.0827  0.3515  1.0481
 2037TIP3    H2 6076   4.802   3.779   0.662 -0.6421  0.0937 -0.4409
 2038TIP3   OH2 6077   6.784   0.616   3.942  0.0266 -0.4106 -0.7146
 2038TIP3    H1 6078   6.879   0.605   3.934 -0.0126 -0.7610 -0.7174
 2038TIP3    H2 6079   6.748   0.574   3.864 -0.1039  0.2077 -0.9925
 2039TIP3   OH2 6080   6.367   3.399   0.490  0.0341 -0.2074 -0.2567
 2039TIP3    H1 6081   6.427   3.395   0.565 -0.9047  1.1269  0.6231
 2039TIP3    H2 6082   6.399   3.473   0.439 -0.5403  0.1834 -0.0587
 2040TIP3   OH2 6083   6.501   5.933   1.541  0.2899  0.1059 -1.0415
 2040TIP3    H1 6084   6.542   5.937   1.455  2.1288  1.2270 -0.1728
 2040TIP3    H2 6085   6.566   5.970   1.601 -0.3885 -1.8590  1.0516
 2041TIP3   OH2 6086   6.661   2.485   1.650 -0.1938  0.2691  0.3027
 2041TIP3    H1 6087   6.704   2.447   1.573 -0.6336 -0.0097  0.1832
 2041TIP3    H2 6088   6.606   2.555   1.614 -0.0893  0.4085  0.4136
 2042TIP3   OH2 6089   2.671   1.720   0.451  0.0258  0.3583 -0.1864
 2042TIP3    H1 6090   2.765   1.731   0.465  0.1912 -0.9448 -0.1615
 2042TIP3    H2 6091   2.631   1.745   0.534  0.2015  2.3595 -0.6446
 2043TIP3   OH2 6092   6.193   2.455   3.262  0.0193 -0.1409 -0.2469
 2043TIP3    H1 6093   6.276   2.417   3.293  1.4525  1.8285 -1.4404
 2043TIP3    H2 6094   6.160   2.504   3.338  0.9950  0.6759 -0.3301
 2044TIP3   OH2 6095   6.903   4.142   1.259  0.2971  0.2155 -0.6984
 2044TIP3    H1 6096   6.897   4.223   1.208 -0.5381  0.0166 -0.9338
 2044TIP3    H2 6097   6.828   4.144   1.317  0.7244 -0.0120 -0.1249
 2045TIP3   OH2 6098   3.865   5.522   4.608  0.5134 -0.0956  0.3896
 2045TIP3    H1 6099   3.815   5.456   4.559  1.7126  0.2881 -1.4807
 2045TIP3    H2 6100   3.807   5.598   4.611  0.4662 -0.0691 -0.6501
 2046TIP3   OH2 6101   1.935   3.963   1.860 -0.1033  0.4588 -0.2667
 2046TIP3    H1 6102   1.986   3.951   1.941  0.1654  0.8410 -0.3759
 2046TIP3    H2 6103   1.847   3.985   1.890 -0.0244  0.5215 -0.0783
 2047TIP3   OH2 6104   6.982   5.601   3.633  0.3244 -0.0878 -0.0154
 2047TIP3    H1 6105   6.954   5.540   3.564  0.1778 -0.6481  0.5276
 2047TIP3    H2 6106   6.922   5.584   3.706 -0.4258  1.4902 -0.2245
 2048TIP3   OH2 6107   5.697   3.873   2.564  0.1273 -1.0090 -0.4778
 2048TIP3    H1 6108   5.779   3.916   2.543  0.8388 -1.7156  0.7470
 2048TIP3    H2 6109   5.647   3.875   2.483  1.0196  0.1628 -1.0143
 2049TIP3   OH2 6110   6.637   3.593   1.401 -0.4494 -0.9092 -0.1271
 2049TIP3    H1 6111   6.686   3.575   1.321  0.2426 -3.1195  0.7211
 2049TIP3    H2 6112   6.699   3.577   1.472 -1.5178 -0.6225  0.9126
 2050TIP3   OH2 6113   2.125   6.509   3.375  0.4872  0.0071  0.4229
 2050TIP3    H1 6114   2.032   6.530   3.372  0.7596  1.1741 -1.2148
 2050TIP3    H2 6115   2.133   6.429   3.324  0.4557  0.3168 -0.0800
 2051TIP3   OH2 6116   4.844   1.973   4.404  0.7047  0.3024 -0.0878
 2051TIP3    H1 6117   4.804   1.911   4.343 -0.0934  1.9744 -1.3295
 2051TIP3    H2 6118   4.774   1.994   4.466  0.7605  0.5167 -0.0980
 2052TIP3   OH2 6119   3.993   5.399   4.998 -0.0293  0.4363 -0.1106
 2052TIP3    H1 6120   3.980   5.493   4.988 -1.0455  0.2582 -0.6459
 2052TIP3    H2 6121   4.086   5.389   5.020  0.9154  1.3627 -3.1813
 2053TIP3   OH2 6122   6.361   1.009   2.741  0.9306 -0.4656 -0.0328
 2053TIP3    H1 6123   6.396   1.006   2.651  1.1256  0.5573 -0.0064
 2053TIP3    H2 6124   6.424   0.959   2.792  0.8582 -0.9965 -0.4501
 2054TIP3   OH2 6125   0.728   3.627   5.866 -0.2951 -0.4370  0.0827
 2054TIP3    H1 6126   0.719   3.709   5.915 -0.8942 -0.2113 -0.3987
 2054TIP3    H2 6127   0.639   3.592   5.861  0.1403 -1.9259  1.6359
 2055TIP3   OH2 6128   5.573   4.585   0.439 -0.1176  0.2881 -0.0844
 2055TIP3    H1 6129   5.570   4.568   0.533  0.6181  0.8994  0.0641
 2055TIP3    H2 6130   5.606   4.503   0.401 -1.3223 -0.2843  0.0779
 2056TIP3   OH2 6131   1.395   4.344   3.199  0.1467 -0.0261  0.5140
 2056TIP3    H1 6132   1.394   4.292   3.280 -0.5335  1.1531  1.2814
 2056TIP3    H2 6133   1.456   4.297   3.142  0.5848 -0.9272  1.6770
 2057TIP3   OH2 6134   6.409   1.660   3.399  0.2442  0.0887 -0.3166
 2057TIP3    H1 6135   6.454   1.594   3.451 -0.1201  0.1441  0.0725
 2057TIP3    H2 6136   6.341   1.612   3.351 -0.3007  0.2398  0.2932
 2058TIP3   OH2 6137   1.684   6.726   5.421  0.9245  0.4483 -0.3844
 2058TIP3    H1 6138   1.688   6.631   5.408 -1.3823  0.2592 -0.1712
 2058TIP3    H2 6139   1.645   6.760   5.340  0.4454  1.0375  0.0797
 2059TIP3   OH2 6140   6.215   3.450   1.139  0.5241  0.4329  0.0858
 2059TIP3    H1 6141   6.158   3.522   1.112  2.4106  2.7645  1.8902
 2059TIP3    H2 6142   6.200   3.440   1.232  2.6337  0.8109  0.5275
 2060TIP3   OH2 6143   1.619   3.759   5.339  0.0699 -0.0166 -0.6051
 2060TIP3    H1 6144   1.536   3.748   5.292  0.1117  3.0029 -1.5391
 2060TIP3    H2 6145   1.595   3.802   5.421  0.4832 -1.4325  0.2942
 2061TIP3   OH2 6146   3.801   6.450   3.305  0.1990 -0.1121 -0.0671
 2061TIP3    H1 6147   3.886   6.488   3.324  0.3535  0.0892 -1.0965
 2061TIP3    H2 6148   3.807   6.422   3.213 -0.7515 -0.3392 -0.0738
 2062TIP3   OH2 6149   1.490   5.238   2.638  0.2810 -0.1000 -0.6008
 2062TIP3    H1 6150   1.584   5.247   2.620 -0.2312  1.4310 -3.0142
 2062TIP3    H2 6151   1.482   5.152   2.678  2.9058  0.4811  1.4818
 2063TIP3   OH2 6152   1.722   4.210   3.210 -0.2146  0.1204  0.4043
 2063TIP3    H1 6153   1.799   4.236   3.261  1.9142 -0.5489 -2.2244
 2063TIP3    H2 6154   1.728   4.114   3.205 -1.3653  0.0404  0.3510
 2064TIP3   OH2 6155   4.251   0.424   5.307  0.7433 -0.1815  0.5976
 2064TIP3    H1 6156   4.189   0.353   5.295  1.8582 -1.2325  0.8938
 2064TIP3    H2 6157   4.264   0.429   5.401 -0.9232  1.8712  0.8081
 2065TIP3   OH2 6158   3.582   0.167   1.874  0.0478 -0.0333  0.1275
 2065TIP3    H1 6159   3.642   0.241   1.884 -1.1981  0.8604  1.4606
 2065TIP3    H2 6160   3.586   0.122   1.958 -0.2962 -0.6244 -0.1728
 2066TIP3   OH2 6161   4.688   3.612   0.823 -0.2081 -1.0003 -0.7397
 2066TIP3    H1 6162   4.687   3.540   0.886 -0.6336  0.3452  0.8432
 2066TIP3    H2 6163   4.606   3.659   0.839 -0.2670 -0.5464 -2.2319
 2067TIP3   OH2 6164   4.558   1.411   5.562  0.3724 -0.2321  0.2183
 2067TIP3    H1 6165   4.517   1.354   5.496 -0.6272 -0.4008  0.9656
 2067TIP3    H2 6166   4.487   1.468   5.591  1.1134  0.6765  0.2607
 2068TIP3   OH2 6167   6.303   3.571   4.975  0.1809 -0.6477  0.2327
 2068TIP3    H1 6168   6.340   3.602   4.892 -0.5553 -0.7003 -0.1185
 2068TIP3    H2 6169   6.304   3.476   4.968 -3.4395 -0.7010 -1.3675
 2069TIP3   OH2 6170   4.577   1.638   4.431  0.3478  0.6130  0.3432
 2069TIP3    H1 6171   4.671   1.657   4.440  0.5811 -0.1614 -0.2910
 2069TIP3    H2 6172   4.570   1.595   4.346 -0.6118  0.7857  0.3254
 2070TIP3   OH2 6173   6.078   6.476   1.240 -0.5759 -0.1674 -0.0065
 2070TIP3    H1 6174   6.126   6.445   1.163  0.0319  0.0225  0.2979
 2070TIP3    H2 6175   5.986   6.476   1.212 -0.8196 -3.6137  0.3893
 2071TIP3   OH2 6176   6.313   3.370   3.892  0.1519  0.1243  0.4961
 2071TIP3    H1 6177   6.231   3.354   3.940 -0.7205  0.0619 -0.9347
 2071TIP3    H2 6178   6.306   3.313   3.815  1.4876  0.2379  0.2708
 2072TIP3   OH2 6179   3.585   0.308   2.769  0.1096 -0.3074  0.5040
 2072TIP3    H1 6180   3.654   0.256   2.728 -0.4557 -1.3385  0.8165
 2072TIP3    H2 6181   3.518   0.316   2.701  0.3535  0.3308  0.3373
 2073TIP3   OH2 6182   4.052   3.596   4.221 -0.0144 -0.4949  0.3401
 2073TIP3    H1 6183   4.059   3.570   4.313  1.7319 -1.6833 -0.0752
 2073TIP3    H2 6184   4.037   3.691   4.225 -1.2757 -0.7192  1.8405
 2074TIP3   OH2 6185   0.819   1.420   5.141  0.3013  0.1764 -0.3223
 2074TIP3    H1 6186   0.805   1.327   5.158  0.7201  0.3338  1.0031
 2074TIP3    H2 6187   0.814   1.429   5.046  0.8780 -1.2918 -0.5005
 2075TIP3   OH2 6188   1.098   1.584   2.704  0.5615  0.0919 -0.4880
 2075TIP3    H1 6189   1.141   1.584   2.789  1.6475 -0.1809 -1.0326
 2075TIP3    H2 6190   1.144   1.651   2.654  0.1055  0.0592 -0.9616
 2076TIP3   OH2 6191   2.672   4.218   1.895 -0.1850  0.3363 -0.1019
 2076TIP3    H1 6192   2.728   4.288   1.862 -0.6095  1.2308  1.0372
 2076TIP3    H2 6193   2.733   4.152   1.928  0.2030  0.8042  0.1163
 2077TIP3   OH2 6194   0.721   0.195   2.683  0.2385 -0.4276 -0.5753
 2077TIP3    H1 6195   0.630   0.219   2.700  0.2568 -1.2515  0.9045
 2077TIP3    H2 6196   0.738   0.124   2.745  1.4370 -1.3357 -1.8895
 2078TIP3   OH2 6197   3.499   0.329   5.372  0.2978  0.0674  0.0292
 2078TIP3    H1 6198   3.431   0.277   5.413 -2.0604  3.3449  0.6638
 2078TIP3    H2 6199   3.534   0.384   5.443  1.7927  0.2758 -0.8216
 2079TIP3   OH2 6200   5.055   0.902   1.163 -0.6339 -0.6783 -0.2512
 2079TIP3    H1 6201   4.998   0.828   1.142 -3.5042  0.5870  2.3429
 2079TIP3    H2 6202   5.020   0.975   1.111 -0.0813 -0.3341 -0.1496
 2080TIP3   OH2 6203   2.969   3.040   0.780  0.0756  0.6448  0.6979
 2080TIP3    H1 6204   2.898   3.015   0.839 -1.3002  1.7448 -0.4235
 2080TIP3    H2 6205   3.000   3.123   0.815 -0.9926  1.4879 -0.2798
 2081TIP3   OH2 6206   6.873   1.919   0.564 -0.1032  0.2748 -0.2044
 2081TIP3    H1 6207   6.897   2.007   0.595 -0.8935  0.0452  1.1197
 2081TIP3    H2 6208   6.906   1.860   0.632 -0.2142 -0.4079 -0.7315
 2082TIP3   OH2 6209   1.828   3.323   4.164 -0.3168  0.3302 -0.3216
 2082TIP3    H1 6210   1.912   3.309   4.209 -0.5525 -0.9050 -0.2388
 2082TIP3    H2 6211   1.796   3.406   4.200  0.8690  0.8350 -0.3679
 2083TIP3   OH2 6212   1.593   5.671   5.037  0.1779 -0.0181  0.3704
 2083TIP3    H1 6213   1.564   5.640   5.122 -0.7046 -0.0335  0.0716
 2083TIP3    H2 6214   1.541   5.621   4.974 -0.2040  0.9969 -0.1436
 2084TIP3   OH2 6215   6.941   6.701   3.400 -0.1308  0.7167 -0.2170
 2084TIP3    H1 6216   6.912   6.610   3.415 -1.9361  1.1256 -0.8789
 2084TIP3    H2 6217   6.957   6.705   3.306 -0.7003  1.2433 -0.2966
 2085TIP3   OH2 6218   1.229   3.040   5.766 -0.0672 -0.2034 -0.2360
 2085TIP3    H1 6219   1.165   3.102   5.733 -0.1782  0.2651  0.7974
 2085TIP3    H2 6220   1.180   2.958   5.776  0.0390 -0.4286 -1.4489
 2086TIP3   OH2 6221   0.196   5.233   3.169 -0.1549 -0.4474 -0.7228
 2086TIP3    H1 6222   0.100   5.239   3.178 -0.0142  1.2332  0.2144
 2086TIP3    H2 6223   0.226   5.214   3.258  0.4396  0.3485 -0.7452
 2087TIP3   OH2 6224   5.915   0.277   1.595  0.0943  0.0160 -0.0094
 2087TIP3    H1 6225   5.955   0.241   1.674  1.0688  1.4089  0.1771
 2087TIP3    H2 6226   5.845   0.216   1.573  0.5732 -1.0275  1.2445
 2088TIP3   OH2 6227   5.866   3.044   4.484  0.3237 -0.1842  0.5075
 2088TIP3    H1 6228   5.891   2.952   4.479 -0.5433 -0.4747  1.1601
 2088TIP3    H2 6229   5.776   3.042   4.517  0.8578  0.9456  2.1605
 2089TIP3   OH2 6230   1.643   2.573   3.452  0.7015  0.1978 -0.2631
 2089TIP3    H1 6231   1.647   2.481   3.426 -0.6706 -0.0578  0.3481
 2089TIP3    H2 6232   1.560   2.581   3.498  0.6679  1.8149 -0.5580
 2090TIP3   OH2 6233   5.145   4.109   4.671  0.0432 -0.1734 -0.3417
 2090TIP3    H1 6234   5.199   4.142   4.600  0.1508  0.2589 -0.0607
 2090TIP3    H2 6235   5.198   4.039   4.710 -0.1434 -0.6161 -0.8730
 2091TIP3   OH2 6236   6.887   0.495   2.137 -0.9183  0.0719  0.3204
 2091TIP3    H1 6237   6.825   0.503   2.064 -1.4888  1.6640  0.9553
 2091TIP3    H2 6238   6.970   0.473   2.095 -1.4084  0.1683 -0.7302
 2092TIP3   OH2 6239   0.647   4.988   1.861 -0.0358 -0.3204  0.2209
 2092TIP3    H1 6240   0.658   5.082   1.849  1.4417 -0.3024  1.4018
 2092TIP3    H2 6241   0.734   4.957   1.888 -1.1349 -1.5363  2.6713
 2093TIP3   OH2 6242   4.212   1.543   5.036 -0.0196  0.5545  0.8573
 2093TIP3    H1 6243   4.274   1.584   4.976  0.5271  0.2838  1.2297
 2093TIP3    H2 6244   4.128   1.586   5.017  0.0194  0.0758 -0.4952
 2094TIP3   OH2 6245   0.226   2.964   0.883 -0.0524 -0.1556  0.0023
 2094TIP3    H1 6246   0.136   2.949   0.854 -1.1121  1.6264  2.0987
 2094TIP3    H2 6247   0.251   2.881   0.925 -1.8235  0.2308  1.9551
 2095TIP3   OH2 6248   0.075   4.487   0.862 -0.7733  0.5687  0.1044
 2095TIP3    H1 6249   0.141   4.523   0.802  0.4918  1.5694  1.9971
 2095TIP3    H2 6250  -0.001   4.545   0.851  0.2560  2.1591  1.0690
 2096TIP3   OH2 6251   2.606   4.224   1.349 -0.3026 -0.0550 -0.1277
 2096TIP3    H1 6252   2.595   4.137   1.387  0.4506  0.8934  2.5274
 2096TIP3    H2 6253   2.587   4.212   1.256 -1.2109 -2.8231  0.2984
 2097TIP3   OH2 6254   1.694   5.181   4.751  0.3911 -0.8009  0.1791
 2097TIP3    H1 6255   1.675   5.163   4.659  1.6651 -0.9955 -0.0642
 2097TIP3    H2 6256   1.723   5.096   4.786 -1.7253 -1.1555  1.2321
 2098TIP3   OH2 6257   4.224   6.156   2.971  0.1433  0.4829 -0.1495
 2098TIP3    H1 6258   4.184   6.231   2.929 -2.1872 -0.0614  0.9605
 2098TIP3    H2 6259   4.309   6.188   3.003  0.1904  1.9630 -1.6426
 2099TIP3   OH2 6260   0.900   2.522   3.538  0.0091 -0.3894 -0.9006
 2099TIP3    H1 6261   0.829   2.498   3.479 -1.2991  0.7149  0.1374
 2099TIP3    H2 6262   0.930   2.608   3.507  1.2911 -1.0848 -1.6554
 2100TIP3   OH2 6263   0.881   3.370   2.354 -0.2744  0.8160 -0.0044
 2100TIP3    H1 6264   0.806   3.420   2.321 -1.5082 -0.6845  0.3840
 2100TIP3    H2 6265   0.918   3.327   2.277 -2.2591 -1.5190  0.2041
 2101TIP3   OH2 6266   5.109   0.065   3.400 -0.2938 -0.6184  0.0977
 2101TIP3    H1 6267   5.191   0.023   3.428  0.7325 -0.0840 -1.9254
 2101TIP3    H2 6268   5.137   0.147   3.360 -1.7895 -0.5590 -0.8871
 2102TIP3   OH2 6269   5.758   6.029   0.159  0.1151  0.3091  0.1803
 2102TIP3    H1 6270   5.759   6.080   0.240  0.1270  0.6066 -0.0093
 2102TIP3    H2 6271   5.819   5.956   0.177  0.0278  0.3073  0.4798
 2103TIP3   OH2 6272   2.306   2.106   5.124 -0.3569  0.1799 -0.4634
 2103TIP3    H1 6273   2.251   2.181   5.099  0.4061  0.0132 -2.8179
 2103TIP3    H2 6274   2.278   2.035   5.066 -1.0644 -1.4339  1.7197
 2104TIP3   OH2 6275   1.944   6.566   4.570 -0.2882 -0.0332 -0.0966
 2104TIP3    H1 6276   1.856   6.528   4.564 -0.2072 -0.4529  1.0343
 2104TIP3    H2 6277   1.937   6.630   4.640 -0.3434  1.9247 -1.7913
 2105TIP3   OH2 6278   7.175   2.906   2.520  0.2168  0.0512  0.6217
 2105TIP3    H1 6279   7.261   2.874   2.493  0.2431  0.3419  0.3556
 2105TIP3    H2 6280   7.163   2.871   2.608  0.9373  0.6431  0.9663
 2106TIP3   OH2 6281   2.171   2.584   0.837 -0.2632  0.4229  0.3353
 2106TIP3    H1 6282   2.233   2.515   0.818 -1.3318 -0.0347 -1.7693
 2106TIP3    H2 6283   2.113   2.547   0.904  0.6322  0.2064  0.9992
 2107TIP3   OH2 6284   5.411   2.543   2.338 -0.0698  0.1016 -0.0322
 2107TIP3    H1 6285   5.408   2.638   2.343  0.5174  0.1136  0.1777
 2107TIP3    H2 6286   5.347   2.520   2.270  1.6898  0.8267 -2.0463
 2108TIP3   OH2 6287   5.629   5.083   3.239  0.5261  0.0778 -0.4777
 2108TIP3    H1 6288   5.703   5.070   3.179  1.9673  2.1669  0.6915
 2108TIP3    H2 6289   5.660   5.050   3.323  0.2415  1.1241  0.0622
 2109TIP3   OH2 6290   7.119   0.426   1.364  0.1572  0.5500 -0.1965
 2109TIP3    H1 6291   7.030   0.429   1.398  0.2708 -0.9640  0.2829
 2109TIP3    H2 6292   7.170   0.382   1.432  1.1912  1.0242 -0.6403
 2110TIP3   OH2 6293   5.447   0.276   5.876  0.1711 -0.5506  0.5295
 2110TIP3    H1 6294   5.469   0.203   5.819  0.8819 -1.3647  1.7948
 2110TIP3    H2 6295   5.355   0.294   5.859  0.3290 -0.8558 -0.7497
 2111TIP3   OH2 6296   5.744   6.613   2.832 -0.2825 -0.2197 -0.1516
 2111TIP3    H1 6297   5.798   6.593   2.908  0.5298 -1.2751 -0.9752
 2111TIP3    H2 6298   5.711   6.528   2.803 -1.0795  0.2437 -0.6093
 2112TIP3   OH2 6299   6.985   0.250   5.480  0.3546 -0.3050  0.3741
 2112TIP3    H1 6300   6.936   0.319   5.524 -2.9045 -0.3595 -2.6560
 2112TIP3    H2 6301   6.932   0.171   5.492 -0.3151 -0.4611 -2.7552
 2113TIP3   OH2 6302   3.403   4.375   5.282  0.6475  0.5632  0.1661
 2113TIP3    H1 6303   3.362   4.450   5.327 -0.3804  0.2069 -0.1528
 2113TIP3    H2 6304   3.439   4.412   5.201  3.6748  1.4859  1.7686
 2114TIP3   OH2 6305   2.667   5.842   2.614  0.3773  0.2912 -0.1875
 2114TIP3    H1 6306   2.646   5.752   2.637 -1.6302  0.3464 -1.4517
 2114TIP3    H2 6307   2.756   5.839   2.581  1.7541 -0.5114  3.2164
 2115TIP3   OH2 6308   4.952   3.401   2.046  0.8792  0.1973  0.2618
 2115TIP3    H1 6309   4.978   3.416   2.137  0.6972  1.9804  0.0460
 2115TIP3    H2 6310   5.027   3.430   1.994 -0.3360  2.6965 -0.2483
 2116TIP3   OH2 6311   1.454   4.521   4.816  0.4318 -0.2913  0.2427
 2116TIP3    H1 6312   1.456   4.518   4.720 -0.6732  2.0775  0.0600
 2116TIP3    H2 6313   1.496   4.605   4.837 -0.9794  0.0775  1.7083
 2117TIP3   OH2 6314   4.717   2.109   4.084  0.1857 -0.0174 -0.7504
 2117TIP3    H1 6315   4.668   2.169   4.027 -2.7005 -1.7584 -0.3356
 2117TIP3    H2 6316   4.706   2.145   4.172 -2.0874 -1.3224 -0.4177
 2118TIP3   OH2 6317   3.136   3.918   4.454  0.0063  0.2770  0.4183
 2118TIP3    H1 6318   3.158   3.867   4.532 -0.9478 -0.3803  0.2642
 2118TIP3    H2 6319   3.221   3.937   4.413  0.3619 -1.8266  0.0686
 2119TIP3   OH2 6320   6.456   4.776   5.122 -0.0815 -0.1440  0.4890
 2119TIP3    H1 6321   6.504   4.828   5.186 -1.7008  0.1884  1.4656
 2119TIP3    H2 6322   6.370   4.818   5.115 -0.9292 -1.8352  0.2229
 2120TIP3   OH2 6323   0.257   1.100   1.772  0.2593 -0.1620 -0.0245
 2120TIP3    H1 6324   0.302   1.032   1.822  1.3851  1.9513  2.0619
 2120TIP3    H2 6325   0.171   1.106   1.812  0.7130  0.6553  0.8759
 2121TIP3   OH2 6326   2.688   2.404   5.648  0.3507  0.1556  0.3858
 2121TIP3    H1 6327   2.768   2.368   5.687  0.4227  1.3410  1.3760
 2121TIP3    H2 6328   2.708   2.496   5.632 -0.4943  0.2391 -0.2867
 2122TIP3   OH2 6329   6.306   3.938   5.910  0.2974 -0.1447 -0.0449
 2122TIP3    H1 6330   6.269   4.009   5.858  0.3351 -0.7103 -0.8609
 2122TIP3    H2 6331   6.397   3.931   5.880  0.5436  0.0206  0.6398
 2123TIP3   OH2 6332   5.865   3.427   1.295  0.7589  0.1038  0.0429
 2123TIP3    H1 6333   5.828   3.416   1.207 -1.5359 -0.3874  1.0171
 2123TIP3    H2 6334   5.854   3.520   1.314 -0.9923 -0.1918  0.6926
 2124TIP3   OH2 6335   1.296   5.273   2.873  0.2482  0.0060 -0.2413
 2124TIP3    H1 6336   1.236   5.344   2.895  1.1308  0.1063  2.2219
 2124TIP3    H2 6337   1.329   5.295   2.786 -0.0686  2.2130  0.1429
 2125TIP3   OH2 6338   5.730   5.094   3.991  0.0605  0.3787  0.6344
 2125TIP3    H1 6339   5.717   5.158   3.921 -1.1434 -2.0225 -1.4872
 2125TIP3    H2 6340   5.825   5.084   3.997  0.1913 -0.2121 -1.5698
 2126TIP3   OH2 6341   2.669   4.541   5.207  0.6703 -0.1224  0.2084
 2126TIP3    H1 6342   2.716   4.537   5.291 -0.7317  0.1504  1.0321
 2126TIP3    H2 6343   2.604   4.471   5.213  0.4447  0.0157 -0.5806
 2127TIP3   OH2 6344   3.706   1.862   3.673 -0.5990 -0.1208  0.2748
 2127TIP3    H1 6345   3.704   1.802   3.598  0.7723 -0.9032  0.8162
 2127TIP3    H2 6346   3.731   1.946   3.636 -1.5401 -0.0982 -0.3559
 2128TIP3   OH2 6347   2.947   0.536   0.157  0.1164  0.7204 -0.4347
 2128TIP3    H1 6348   3.022   0.533   0.098  0.7971 -0.0252  0.4391
 2128TIP3    H2 6349   2.938   0.629   0.179  1.8557  0.6751  0.7337
 2129TIP3   OH2 6350   3.962   5.353   2.906  0.1077  0.3988  0.0397
 2129TIP3    H1 6351   4.034   5.352   2.843 -0.9053 -1.2006 -1.1659
 2129TIP3    H2 6352   3.975   5.433   2.956  1.8474  0.9189 -1.1671
 2130TIP3   OH2 6353   5.268   1.634   5.116  1.2117  0.5814 -0.7637
 2130TIP3    H1 6354   5.232   1.665   5.033 -1.8561 -2.0626 -0.5746
 2130TIP3    H2 6355   5.228   1.691   5.182  1.3668  0.8193 -0.8706
 2131TIP3   OH2 6356   6.586   0.850   2.808 -0.2222 -0.0013 -0.2391
 2131TIP3    H1 6357   6.611   0.788   2.876 -0.7337  0.4417  0.3663
 2131TIP3    H2 6358   6.583   0.798   2.728 -0.3873 -0.7035  0.2118
 2132TIP3   OH2 6359   3.569   5.612   4.841 -0.1523  0.2935  0.3684
 2132TIP3    H1 6360   3.641   5.673   4.827  0.3596  0.1246  2.1151
 2132TIP3    H2 6361   3.491   5.668   4.844 -0.1353  0.4773 -1.5099
 2133TIP3   OH2 6362   2.254   6.622   2.488  0.5136  0.2017 -0.1445
 2133TIP3    H1 6363   2.172   6.657   2.452  0.6025 -0.3629 -0.9259
 2133TIP3    H2 6364   2.255   6.652   2.579  0.0590  1.2875 -0.4819
 2134TIP3   OH2 6365   5.059   6.533   4.088 -0.2693 -0.0685  0.5599
 2134TIP3    H1 6366   5.013   6.454   4.059 -0.7608 -0.3598  2.0518
 2134TIP3    H2 6367   4.993   6.603   4.083 -0.8708 -0.4448  2.4937
 2135TIP3   OH2 6368   1.022   2.011   3.741 -0.1903 -0.3306  0.6152
 2135TIP3    H1 6369   1.004   2.099   3.707 -1.0939 -0.3886  0.9089
 2135TIP3    H2 6370   0.972   2.007   3.823 -0.2098 -1.1359  0.5691
 2136TIP3   OH2 6371   4.382   6.433   3.327 -0.7694 -0.2055  0.4933
 2136TIP3    H1 6372   4.321   6.505   3.314  1.6200  1.5401 -2.2047
 2136TIP3    H2 6373   4.389   6.392   3.241  2.3008  0.1194  0.4891
 2137TIP3   OH2 6374   2.217   6.766   3.249 -0.1557  0.0994 -0.4747
 2137TIP3    H1 6375   2.134   6.732   3.215  0.2687 -1.2448 -0.2453
 2137TIP3    H2 6376   2.252   6.694   3.302  1.1612  0.6334 -0.5825
 2138TIP3   OH2 6377   1.619   2.356   2.085  0.4997  0.4026 -0.3180
 2138TIP3    H1 6378   1.561   2.402   2.024 -1.1168 -3.1533 -1.7018
 2138TIP3    H2 6379   1.705   2.362   2.045  0.0584  0.8868 -1.2253
 2139TIP3   OH2 6380   5.761   1.454   1.578  0.7520 -0.2254 -0.4245
 2139TIP3    H1 6381   5.759   1.545   1.608  1.9461  0.0320 -1.0520
 2139TIP3    H2 6382   5.708   1.452   1.499 -1.9021 -0.7771  1.2532
 2140TIP3   OH2 6383   2.424   1.665   1.197 -0.5515 -0.9993  0.0749
 2140TIP3    H1 6384   2.432   1.633   1.107  0.0749  0.5017 -0.4371
 2140TIP3    H2 6385   2.416   1.586   1.250 -3.4117 -1.9040 -1.5001
 2141TIP3   OH2 6386   2.200   6.004   5.495  0.0763 -0.2434 -0.2526
 2141TIP3    H1 6387   2.210   6.005   5.400  1.4288  0.2698 -0.1280
 2141TIP3    H2 6388   2.124   5.947   5.511 -1.5474  1.3695 -1.7243
 2142TIP3   OH2 6389   0.024   0.532   3.721  0.6542 -0.1227  0.1814
 2142TIP3    H1 6390   0.054   0.561   3.635  2.3875 -0.9263  0.4804
 2142TIP3    H2 6391  -0.012   0.445   3.706 -0.1005  0.1939  0.0983
 2143TIP3   OH2 6392   2.896   1.976   2.814 -0.7453  0.2450  0.3261
 2143TIP3    H1 6393   2.828   2.025   2.860 -0.6589 -0.3166  1.0564
 2143TIP3    H2 6394   2.856   1.892   2.795  0.1414 -0.5712  1.8951
 2144TIP3   OH2 6395   2.057   6.009   0.279 -0.3957  0.4896  0.4729
 2144TIP3    H1 6396   2.151   6.014   0.300 -0.1177  1.5555 -0.8536
 2144TIP3    H2 6397   2.013   6.054   0.351  0.3910  2.7201 -0.3515
 2145TIP3   OH2 6398   2.388   5.532   4.757 -0.2224 -0.2599 -0.4781
 2145TIP3    H1 6399   2.303   5.499   4.788  0.7074 -1.7811  0.5654
 2145TIP3    H2 6400   2.443   5.455   4.752  1.0848  0.6936 -1.2737
 2146TIP3   OH2 6401   6.859   6.776   4.342  0.8870  0.2851 -0.1427
 2146TIP3    H1 6402   6.852   6.871   4.334 -0.5621  0.3212  1.1222
 2146TIP3    H2 6403   6.771   6.743   4.322  1.0472 -0.6717  0.6199
 2147TIP3   OH2 6404   2.073   4.000   2.643  0.3634  0.2516 -0.0891
 2147TIP3    H1 6405   1.990   4.042   2.667 -0.2263 -0.5258 -0.7521
 2147TIP3    H2 6406   2.124   4.071   2.602 -0.0312  0.6932  0.1713
 2148TIP3   OH2 6407   4.790   3.960   3.583  0.3387  0.0604 -0.2108
 2148TIP3    H1 6408   4.861   3.957   3.648  1.3225  1.2756 -1.1788
 2148TIP3    H2 6409   4.711   3.944   3.634  1.2813 -1.3363  0.9074
 2149TIP3   OH2 6410   4.630   5.029   2.090 -0.4201  0.2248  0.5112
 2149TIP3    H1 6411   4.700   4.967   2.110 -1.8791 -1.2411  1.3282
 2149TIP3    H2 6412   4.615   5.076   2.172 -0.5107  0.4192  0.3838
 2150TIP3   OH2 6413   2.381   3.834   3.833  0.3144 -0.1213  0.0166
 2150TIP3    H1 6414   2.292   3.799   3.834  0.3378 -0.4159  3.2872
 2150TIP3    H2 6415   2.436   3.759   3.857  1.0675  0.7012  0.9487
 2151TIP3   OH2 6416   0.615   0.574   0.797  0.9463  0.0162 -0.6643
 2151TIP3    H1 6417   0.665   0.509   0.846 -0.9601 -1.2884 -0.3144
 2151TIP3    H2 6418   0.544   0.600   0.857  0.3816  0.7535 -1.6124
 2152TIP3   OH2 6419   4.876   6.570   2.753 -0.4965 -0.3140 -0.0237
 2152TIP3    H1 6420   4.897   6.501   2.690  1.2865  1.1286 -1.0779
 2152TIP3    H2 6421   4.780   6.577   2.750 -0.6292 -1.9955 -0.6527
 2153TIP3   OH2 6422   6.061   6.005   2.456  0.1319 -0.8215  0.1549
 2153TIP3    H1 6423   6.081   5.928   2.509  0.5523 -0.3275  0.7194
 2153TIP3    H2 6424   6.098   6.078   2.505 -2.1344  0.0273  0.7304
 2154TIP3   OH2 6425   7.122   3.062   5.774  0.2706 -0.0754 -0.0239
 2154TIP3    H1 6426   7.102   3.002   5.846 -1.8901  0.8951  0.2783
 2154TIP3    H2 6427   7.044   3.059   5.718  0.5448  1.6339 -0.5516
 2155TIP3   OH2 6428   5.656   4.776   0.920 -0.4247  0.5451 -0.4366
 2155TIP3    H1 6429   5.692   4.745   0.837  0.7619  0.3043  0.1562
 2155TIP3    H2 6430   5.730   4.817   0.965 -0.7729 -0.3401  0.9976
 2156TIP3   OH2 6431   6.679   2.718   5.671 -0.3358 -0.4443 -0.0405
 2156TIP3    H1 6432   6.765   2.730   5.631 -0.6108 -0.5841 -0.6872
 2156TIP3    H2 6433   6.692   2.742   5.763  0.5937 -1.2736  0.0599
 2157TIP3   OH2 6434   5.520   0.634   2.873 -0.5032  0.5020  0.1192
 2157TIP3    H1 6435   5.515   0.541   2.895  2.0669 -0.2807 -2.1375
 2157TIP3    H2 6436   5.462   0.644   2.797  0.3297  0.4023 -0.5379
 2158TIP3   OH2 6437   4.457   0.269   3.172 -0.2570 -0.6545 -0.5644
 2158TIP3    H1 6438   4.417   0.259   3.086  1.5207  0.8781 -1.6293
 2158TIP3    H2 6439   4.532   0.210   3.171 -0.2587 -0.6705 -0.0498
 2159TIP3   OH2 6440   0.598   1.813   5.165  0.2388 -0.0158  0.1675
 2159TIP3    H1 6441   0.620   1.883   5.226  0.6283 -0.2135  0.2565
 2159TIP3    H2 6442   0.682   1.781   5.133  0.0437  0.0247 -0.4125
 2160TIP3   OH2 6443   6.438   1.996   1.094  0.2814 -0.2549  0.1939
 2160TIP3    H1 6444   6.418   1.927   1.157  0.4601 -1.1550 -0.7128
 2160TIP3    H2 6445   6.361   2.053   1.096 -0.0295 -0.6825  0.6733
 2161TIP3   OH2 6446   6.770   5.392   0.181 -0.3015  0.6047  0.2819
 2161TIP3    H1 6447   6.829   5.365   0.111  1.0845  3.8245  0.0122
 2161TIP3    H2 6448   6.751   5.312   0.230  1.6999 -1.0928 -1.5502
 2162TIP3   OH2 6449   0.753   5.735   2.473 -0.1095 -0.5495 -0.1080
 2162TIP3    H1 6450   0.780   5.809   2.526  0.3101 -1.8411  1.5593
 2162TIP3    H2 6451   0.722   5.774   2.391  1.2876  1.3520  0.2189
 2163TIP3   OH2 6452   0.541   4.000   2.166  0.0082 -0.3814  0.0532
 2163TIP3    H1 6453   0.614   3.965   2.115  0.2688  0.1106  0.0844
 2163TIP3    H2 6454   0.491   4.053   2.103  0.3867  0.3104  0.3201
 2164TIP3   OH2 6455   6.243   4.749   3.566 -0.0936 -0.1778  0.1573
 2164TIP3    H1 6456   6.312   4.686   3.589 -0.7961 -1.1920 -0.4399
 2164TIP3    H2 6457   6.285   4.807   3.502  0.4003 -0.3790  0.2912
 2165TIP3   OH2 6458   1.881   4.574   0.077 -0.0679  0.3561 -0.5250
 2165TIP3    H1 6459   1.875   4.571   0.173  1.4761  0.9269 -0.3974
 2165TIP3    H2 6460   1.815   4.639   0.051 -0.4235  0.2739  0.1395
 2166TIP3   OH2 6461   4.670   3.961   1.050 -0.6595  0.1966 -0.1721
 2166TIP3    H1 6462   4.639   4.038   1.097  0.6239  0.7370 -0.1569
 2166TIP3    H2 6463   4.669   3.891   1.116 -1.7910  0.2028 -0.1758
 2167TIP3   OH2 6464   0.468   0.705   1.007  0.5884  0.0366 -0.4953
 2167TIP3    H1 6465   0.496   0.778   0.952  0.0999 -0.3900 -1.3236
 2167TIP3    H2 6466   0.455   0.744   1.094  0.0619  0.9840 -0.9879
 2168TIP3   OH2 6467   2.925   2.690   1.310 -0.2059 -0.3653  0.3907
 2168TIP3    H1 6468   2.906   2.640   1.390  2.4360 -0.8138  0.8444
 2168TIP3    H2 6469   2.961   2.624   1.249  0.3901  0.4361 -0.1426
 2169TIP3   OH2 6470   3.490   1.999   2.774  0.4621  0.2006  0.8607
 2169TIP3    H1 6471   3.545   2.060   2.823  0.5288  1.5829 -0.8625
 2169TIP3    H2 6472   3.423   1.970   2.837 -0.1393  2.7901  1.5025
 2170TIP3   OH2 6473   1.759   6.530   1.616 -0.1472 -0.5528 -0.6629
 2170TIP3    H1 6474   1.782   6.508   1.526  0.6170 -0.6455 -0.4520
 2170TIP3    H2 6475   1.663   6.540   1.615 -0.1754 -0.8523 -1.4131
 2171TIP3   OH2 6476   6.540   3.456   2.040 -0.0617 -0.4921  0.2414
 2171TIP3    H1 6477   6.626   3.447   1.999  0.0764 -0.2588  0.4735
 2171TIP3    H2 6478   6.538   3.388   2.107  0.7917  0.8213  1.6737
 2172TIP3   OH2 6479   5.585   4.286   0.027 -0.0590 -0.5554  0.2444
 2172TIP3    H1 6480   5.672   4.297  -0.011  1.4892 -0.5728  3.4451
 2172TIP3    H2 6481   5.545   4.373   0.022  0.7734 -0.1693  0.1747
 2173TIP3   OH2 6482   1.682   2.922   3.193  0.5130  0.3916 -0.4899
 2173TIP3    H1 6483   1.727   2.974   3.126 -0.3244  1.4219 -0.2993
 2173TIP3    H2 6484   1.625   2.986   3.237 -0.6969 -0.7406 -0.3653
 2174TIP3   OH2 6485   4.426   0.079   0.796 -0.1003  0.0811  0.2723
 2174TIP3    H1 6486   4.357   0.016   0.817  0.7891 -0.7126  0.8812
 2174TIP3    H2 6487   4.485   0.076   0.871  0.1123  1.4574  0.1955
 2175TIP3   OH2 6488   3.100   5.800   2.309 -0.2711 -0.3445 -0.1981
 2175TIP3    H1 6489   3.062   5.835   2.229 -0.1825  2.9224  1.0368
 2175TIP3    H2 6490   3.193   5.822   2.303 -0.0959 -0.9004  0.4062
 2176TIP3   OH2 6491   4.627   4.539   0.944 -0.6866  0.0588 -0.8048
 2176TIP3    H1 6492   4.631   4.561   1.037  0.9779  2.3938 -1.3353
 2176TIP3    H2 6493   4.678   4.458   0.936 -1.0337 -0.2911  0.3101
 2177TIP3   OH2 6494   5.581   5.044   1.973  0.7250  0.1521  0.2673
 2177TIP3    H1 6495   5.500   5.000   1.947  0.2049  0.7604  0.8111
 2177TIP3    H2 6496   5.595   5.018   2.064  1.0909  0.1164  0.2014
 2178TIP3   OH2 6497   3.557   0.295   4.892  0.1532  0.3633 -0.4865
 2178TIP3    H1 6498   3.636   0.341   4.862 -0.7852  2.3669 -0.0637
 2178TIP3    H2 6499   3.539   0.331   4.979 -1.6661  0.5929 -0.9025
 2179TIP3   OH2 6500   5.534   3.661   4.034 -0.3127  0.5573  0.1473
 2179TIP3    H1 6501   5.524   3.615   3.951 -0.3077  1.2897 -0.2671
 2179TIP3    H2 6502   5.613   3.713   4.023  0.4603 -0.3659  1.1095
 2180TIP3   OH2 6503   6.325   1.562   1.756 -0.0563  0.2130 -0.2271
 2180TIP3    H1 6504   6.335   1.471   1.727 -0.9011 -0.0445  0.2556
 2180TIP3    H2 6505   6.250   1.595   1.706 -0.0895  0.4785 -0.0036
 2181TIP3   OH2 6506   1.934   5.235   4.366  0.3385  0.4207 -0.2335
 2181TIP3    H1 6507   1.887   5.152   4.376 -1.4717  1.4776  0.4163
 2181TIP3    H2 6508   1.903   5.271   4.283  0.6691  0.7485 -0.2185
 2182TIP3   OH2 6509   5.371   4.267   5.148 -0.0849 -0.8120  0.3753
 2182TIP3    H1 6510   5.357   4.266   5.243  0.4678 -0.3221  0.4705
 2182TIP3    H2 6511   5.285   4.289   5.112 -0.8105 -3.0200  0.6290
 2183TIP3   OH2 6512   1.935   5.806   0.513  0.5111 -0.2560 -0.1133
 2183TIP3    H1 6513   2.010   5.797   0.454  1.3061 -0.0345  0.8330
 2183TIP3    H2 6514   1.907   5.716   0.529 -1.6265 -0.2609 -3.1283
 2184TIP3   OH2 6515   3.174   5.172   2.979  0.1248  0.1493 -0.4226
 2184TIP3    H1 6516   3.145   5.084   2.957 -1.9715  0.4333  0.8825
 2184TIP3    H2 6517   3.240   5.159   3.047 -1.0630 -0.4251  0.6619
 2185TIP3   OH2 6518   2.404   2.405   0.577 -0.5510 -0.0146  0.0987
 2185TIP3    H1 6519   2.427   2.489   0.617 -2.0931  1.8706 -2.6485
 2185TIP3    H2 6520   2.486   2.374   0.537 -0.0492  0.3353  0.8371
 2186TIP3   OH2 6521   5.968   3.864   4.338  0.3354 -0.9055 -0.1949
 2186TIP3    H1 6522   6.025   3.848   4.263 -0.1168 -0.6043 -0.6005
 2186TIP3    H2 6523   6.014   3.931   4.388  0.8099 -1.3597 -0.0102
 2187TIP3   OH2 6524   5.528   3.209   4.436  0.0917  0.0048  0.3376
 2187TIP3    H1 6525   5.496   3.122   4.415 -0.0085  0.2984 -0.8210
 2187TIP3    H2 6526   5.551   3.205   4.528  1.5749 -1.6979 -0.0639
 2188TIP3   OH2 6527   3.659   6.744   5.319  0.6280 -0.0577  0.3123
 2188TIP3    H1 6528   3.647   6.819   5.378  1.4980  1.0114 -0.7984
 2188TIP3    H2 6529   3.573   6.730   5.280 -0.7325 -2.5641  3.7206
 2189TIP3   OH2 6530   2.481   1.560   2.632 -0.0815 -0.2101  0.3000
 2189TIP3    H1 6531   2.553   1.498   2.646  3.1605  2.8772 -1.2228
 2189TIP3    H2 6532   2.459   1.591   2.719  1.5412 -0.1194  0.7019
 2190TIP3   OH2 6533   4.077   6.009   2.241  0.2392  0.0964  0.1940
 2190TIP3    H1 6534   4.013   5.943   2.267 -2.7124  1.4638 -2.7718
 2190TIP3    H2 6535   4.132   5.965   2.177 -1.8139  0.3218 -1.8893
 2191TIP3   OH2 6536   3.621   3.343   1.024 -0.1712  0.0971  0.1930
 2191TIP3    H1 6537   3.713   3.328   1.047 -0.2169 -0.3748  0.0810
 2191TIP3    H2 6538   3.623   3.375   0.934 -0.1404 -0.3161  0.0448
 2192TIP3   OH2 6539   3.211   5.860   0.601 -0.1091 -0.4385  0.1400
 2192TIP3    H1 6540   3.251   5.873   0.687  0.0831  0.8184 -0.1193
 2192TIP3    H2 6541   3.274   5.805   0.554  0.9772  0.8589  0.0124
 2193TIP3   OH2 6542   1.257   0.312   2.442 -0.0763 -0.0937 -0.0698
 2193TIP3    H1 6543   1.250   0.228   2.397 -1.2851  1.1143 -2.3507
 2193TIP3    H2 6544   1.337   0.351   2.407  0.5556 -0.3041  1.0839
 2194TIP3   OH2 6545   2.114   3.813   3.146  0.0223 -0.3277  0.6203
 2194TIP3    H1 6546   2.086   3.755   3.217  0.2220  1.2869  2.1036
 2194TIP3    H2 6547   2.210   3.807   3.146  0.0074 -0.5743  0.2621
 2195TIP3   OH2 6548   6.218   2.122   1.438 -1.1493 -0.3343 -0.0037
 2195TIP3    H1 6549   6.301   2.161   1.466 -0.4564 -0.5610 -1.6537
 2195TIP3    H2 6550   6.151   2.171   1.487 -0.0229 -1.0440  2.3750
 2196TIP3   OH2 6551   2.742   1.039   4.695 -0.2690 -0.4101 -0.1009
 2196TIP3    H1 6552   2.781   1.038   4.783 -0.8319  0.3341  0.1728
 2196TIP3    H2 6553   2.718   1.131   4.681  0.9895 -0.2569 -1.5702
 2197TIP3   OH2 6554   0.225   1.135   3.204 -0.0744  0.3336  0.3749
 2197TIP3    H1 6555   0.178   1.104   3.127  1.4632  1.0755 -0.9385
 2197TIP3    H2 6556   0.158   1.170   3.262 -1.1173  1.9550 -1.6885
 2198TIP3   OH2 6557   3.606   1.532   4.365 -0.3099  0.1197  0.0693
 2198TIP3    H1 6558   3.551   1.457   4.341  1.5699 -1.1024 -0.6152
 2198TIP3    H2 6559   3.625   1.575   4.282 -0.9776  1.1083  0.4122
 2199TIP3   OH2 6560   2.351   1.239   2.104 -0.2592 -0.1866  0.4830
 2199TIP3    H1 6561   2.309   1.282   2.179 -2.8070 -1.8080  0.0997
 2199TIP3    H2 6562   2.399   1.165   2.143  1.1868  0.8742  0.7862
 2200TIP3   OH2 6563   0.836   4.759   1.522  0.4518 -0.2451 -0.2500
 2200TIP3    H1 6564   0.784   4.830   1.559  0.2807  0.1214 -1.1616
 2200TIP3    H2 6565   0.771   4.692   1.497  0.4317  0.0693 -1.0786
 2201TIP3   OH2 6566   4.439   3.512   3.245  0.3892  0.0600  0.1991
 2201TIP3    H1 6567   4.448   3.543   3.155  2.1716  0.4252  0.4570
 2201TIP3    H2 6568   4.510   3.449   3.256  0.3590  0.2088  1.4269
 2202TIP3   OH2 6569   1.806   3.616   3.525 -0.3375 -0.1123  0.0258
 2202TIP3    H1 6570   1.774   3.692   3.574 -0.9069 -0.2335 -0.1555
 2202TIP3    H2 6571   1.778   3.541   3.577  1.8829 -0.1905  1.2421
 2203TIP3   OH2 6572   6.557   4.154   2.070  0.4950  0.5526 -0.1149
 2203TIP3    H1 6573   6.601   4.140   1.986 -1.3350  1.4682 -1.2855
 2203TIP3    H2 6574   6.611   4.107   2.133  1.5077 -0.8216 -1.9073
 2204TIP3   OH2 6575   7.156   5.011   5.669  0.0299  0.1624  0.0371
 2204TIP3    H1 6576   7.186   5.091   5.712  0.0252  0.2125 -0.0528
 2204TIP3    H2 6577   7.217   4.943   5.700  0.5244  0.3479 -0.4958
 2205TIP3   OH2 6578   2.887   0.130   2.721 -0.3327 -0.7872  0.1500
 2205TIP3    H1 6579   2.835   0.110   2.643  0.2518  1.4848 -0.9403
 2205TIP3    H2 6580   2.828   0.180   2.777 -0.5442 -1.8205  0.8627
 2206TIP3   OH2 6581   1.776   2.310   4.329 -0.1798 -0.3737 -0.5605
 2206TIP3    H1 6582   1.868   2.291   4.312 -0.0655  0.7751 -1.3136
 2206TIP3    H2 6583   1.748   2.240   4.389  0.7497 -1.6491 -1.5566
 2207TIP3   OH2 6584   3.649   2.089   0.349  0.0839  0.3872  0.3133
 2207TIP3    H1 6585   3.618   2.007   0.388  0.7277  0.2296  0.5057
 2207TIP3    H2 6586   3.739   2.099   0.381  0.5216  0.4224 -0.8715
 2208TIP3   OH2 6587   6.554   2.563   0.979  0.4943  0.4010  0.2454
 2208TIP3    H1 6588   6.599   2.508   0.916  0.5372 -0.2967  0.8652
 2208TIP3    H2 6589   6.546   2.648   0.936  0.9470  0.0751 -0.5003
 2209TIP3   OH2 6590   3.955   2.026   3.330  0.2757 -0.2656 -0.5638
 2209TIP3    H1 6591   3.938   2.101   3.273  1.8728  1.0037  0.5103
 2209TIP3    H2 6592   4.016   1.972   3.280  1.0358  0.4272 -0.4163
 2210TIP3   OH2 6593   5.938   0.911   1.356  0.1227 -0.0927  0.4698
 2210TIP3    H1 6594   6.011   0.973   1.352  0.5915 -0.5829  1.2089
 2210TIP3    H2 6595   5.929   0.889   1.449 -1.5206  0.5945  0.5042
 2211TIP3   OH2 6596   2.868   3.128   1.863  1.0059  0.3521  0.1561
 2211TIP3    H1 6597   2.922   3.204   1.885 -0.5466  2.0688 -1.5782
 2211TIP3    H2 6598   2.861   3.131   1.767 -0.8021 -0.7570  0.2181
 2212TIP3   OH2 6599   5.139   6.109   5.393  0.0864  0.5463 -0.5841
 2212TIP3    H1 6600   5.145   6.028   5.445  0.8773  0.3321 -0.9883
 2212TIP3    H2 6601   5.076   6.089   5.324  2.0284 -0.5976 -2.1398
 2213TIP3   OH2 6602   7.142   2.376   1.267 -0.1286  0.2737  0.3157
 2213TIP3    H1 6603   7.219   2.428   1.244  0.8409 -0.2749  2.1442
 2213TIP3    H2 6604   7.079   2.440   1.299  0.2358  0.5461  0.4931
 2214TIP3   OH2 6605   4.656   0.279   2.627  0.1545  0.1887 -0.3146
 2214TIP3    H1 6606   4.737   0.328   2.635 -1.4222  3.2621 -1.3836
 2214TIP3    H2 6607   4.658   0.242   2.539  0.6994 -0.4034 -0.0580
 2215TIP3   OH2 6608   2.879   1.853   3.653  0.0886  0.3895 -0.6749
 2215TIP3    H1 6609   2.816   1.890   3.592 -0.5613 -1.9582 -1.5181
 2215TIP3    H2 6610   2.834   1.855   3.738 -0.4346  0.3484 -0.9472
 2216TIP3   OH2 6611   2.790   2.929   1.229  0.4844 -0.3278 -0.2658
 2216TIP3    H1 6612   2.716   2.876   1.200 -0.4980 -0.3246  2.0186
 2216TIP3    H2 6613   2.822   2.885   1.308  1.1815  1.1601  0.3220
 2217TIP3   OH2 6614   3.321   6.241   5.463  0.2550  0.4699  0.7654
 2217TIP3    H1 6615   3.301   6.200   5.547  0.0612  0.6386  0.8037
 2217TIP3    H2 6616   3.406   6.283   5.476  1.6696 -1.9895 -0.0148
 2218TIP3   OH2 6617   1.044   4.037   0.034  0.1337 -0.0648  0.3581
 2218TIP3    H1 6618   1.048   3.948   0.069  2.4921  0.0388  0.5114
 2218TIP3    H2 6619   1.082   4.031  -0.053  2.1805  1.0575  1.0987
 2219TIP3   OH2 6620   0.667   5.298   2.881  0.0283  0.2109  0.3957
 2219TIP3    H1 6621   0.727   5.228   2.906  0.3651  0.0580 -0.7747
 2219TIP3    H2 6622   0.606   5.256   2.820 -1.9052  0.1158  2.2610
 2220TIP3   OH2 6623   1.009   5.401   0.993  0.8344  0.1519 -0.4913
 2220TIP3    H1 6624   0.932   5.446   0.959  0.4286  0.6568  1.0055
 2220TIP3    H2 6625   0.974   5.325   1.038  1.0072  1.1715  1.5008
 2221TIP3   OH2 6626   5.138   6.177   1.137  0.6626 -0.2169  0.0521
 2221TIP3    H1 6627   5.058   6.148   1.094 -0.3649 -1.0605  2.3817
 2221TIP3    H2 6628   5.109   6.213   1.220  2.5893  0.9740  0.2750
 2222TIP3   OH2 6629   5.492   4.756   3.838 -0.3092  0.2519  0.2177
 2222TIP3    H1 6630   5.562   4.725   3.781 -1.8389 -0.3574 -1.4408
 2222TIP3    H2 6631   5.530   4.755   3.926  1.4536 -0.9621 -0.5004
 2223TIP3   OH2 6632   2.115   2.307   2.413 -0.2996 -0.5108  0.2506
 2223TIP3    H1 6633   2.022   2.290   2.431 -0.0351 -1.1610  1.0286
 2223TIP3    H2 6634   2.114   2.359   2.332 -1.3680  0.0807  0.6222
 2224TIP3   OH2 6635   5.800   1.206  -0.025  0.1919 -0.2801 -0.2093
 2224TIP3    H1 6636   5.741   1.131  -0.016  0.8137 -0.7429  0.0233
 2224TIP3    H2 6637   5.809   1.241   0.063 -0.8443  0.6618 -0.4490
 2225TIP3   OH2 6638   6.439   1.634   4.301  0.2093 -0.0142 -0.5474
 2225TIP3    H1 6639   6.375   1.601   4.238 -1.4905  1.4516  0.3291
 2225TIP3    H2 6640   6.457   1.560   4.358 -0.5319 -0.5194 -0.9563
 2226TIP3   OH2 6641   2.085   3.638   4.412 -0.5890 -0.1942 -0.2231
 2226TIP3    H1 6642   2.172   3.679   4.410 -1.0010  0.6750 -1.6129
 2226TIP3    H2 6643   2.039   3.684   4.482  0.1303 -0.8226  0.6868
 2227TIP3   OH2 6644   0.709   0.663   1.254  0.2083 -0.2263 -0.2478
 2227TIP3    H1 6645   0.630   0.651   1.307  0.8705 -0.9343  0.6054
 2227TIP3    H2 6646   0.703   0.594   1.187 -0.5955  0.6290 -1.0924
 2228TIP3   OH2 6647   3.045   4.724   0.484  0.3262 -0.1969 -0.4917
 2228TIP3    H1 6648   3.109   4.708   0.553 -1.7014 -2.1063  1.0852
 2228TIP3    H2 6649   3.010   4.811   0.504 -0.3875 -0.8184  1.0516
 2229TIP3   OH2 6650   4.041   6.585   1.528 -0.5344 -0.6799  0.0810
 2229TIP3    H1 6651   3.953   6.612   1.503 -0.3902 -0.8499 -0.6356
 2229TIP3    H2 6652   4.028   6.527   1.603 -0.9319  0.3579  0.8411
 2230TIP3   OH2 6653   5.822   0.588   1.964 -0.3039  0.4515 -0.5875
 2230TIP3    H1 6654   5.811   0.569   1.871  0.7490  0.5351 -0.7400
 2230TIP3    H2 6655   5.843   0.681   1.967 -0.9354  0.5908 -0.2038
 2231TIP3   OH2 6656   1.699   1.804   3.610 -0.1161  0.1373 -0.2406
 2231TIP3    H1 6657   1.782   1.777   3.571 -0.3378 -1.1577  0.1482
 2231TIP3    H2 6658   1.711   1.792   3.704 -0.8734 -0.4397 -0.2101
 2232TIP3   OH2 6659   5.557   1.368   0.530  0.5266  0.3549 -0.5874
 2232TIP3    H1 6660   5.553   1.272   0.532  0.3325  0.3184 -1.7550
 2232TIP3    H2 6661   5.619   1.391   0.599  0.3215 -0.5915 -0.0693
 2233TIP3   OH2 6662   5.036   3.737   3.569  0.0695 -0.2020  0.3135
 2233TIP3    H1 6663   5.033   3.811   3.629 -0.6432 -0.0500  0.0998
 2233TIP3    H2 6664   4.976   3.761   3.498  0.2042 -0.7732 -0.0009
 2234TIP3   OH2 6665   5.782   6.322   2.173 -0.0342 -0.1229 -0.2508
 2234TIP3    H1 6666   5.812   6.237   2.207  0.5685  0.7245  1.4746
 2234TIP3    H2 6667   5.863   6.368   2.149 -0.3195  0.1892 -0.6234
 2235TIP3   OH2 6668   1.562   6.103   1.920 -0.2569  0.3782 -0.4794
 2235TIP3    H1 6669   1.471   6.116   1.948 -0.1650 -0.0451  0.0330
 2235TIP3    H2 6670   1.607   6.183   1.949 -0.3179  0.2662 -0.0584
 2236TIP3   OH2 6671   2.640   1.722   1.378 -0.1989 -0.4117 -0.6284
 2236TIP3    H1 6672   2.686   1.796   1.339  0.1157 -0.3473 -0.1578
 2236TIP3    H2 6673   2.559   1.714   1.329 -1.1041  1.4041  0.4721
 2237TIP3   OH2 6674   5.017   2.545   0.760  0.0996 -0.8046 -0.4805
 2237TIP3    H1 6675   4.926   2.577   0.763 -0.4397 -2.2045 -1.0806
 2237TIP3    H2 6676   5.017   2.467   0.814  0.7995 -1.1663 -0.9860
 2238TIP3   OH2 6677   0.164   4.563   5.303  0.0595  0.6040 -0.4481
 2238TIP3    H1 6678   0.157   4.658   5.309  0.0515  0.6570 -1.2660
 2238TIP3    H2 6679   0.257   4.545   5.320  0.1204  0.7782 -0.6017
 2239TIP3   OH2 6680   7.152   4.379   3.813 -0.3880 -0.7134 -0.8461
 2239TIP3    H1 6681   7.065   4.343   3.795 -1.4029  0.1406  1.8673
 2239TIP3    H2 6682   7.184   4.329   3.888 -0.4174  1.7179  0.8955
 2240TIP3   OH2 6683   4.706   6.680   1.909  0.3060  0.0010  0.4372
 2240TIP3    H1 6684   4.727   6.589   1.886 -1.8142 -0.8188  1.4246
 2240TIP3    H2 6685   4.630   6.701   1.855  0.4315  0.9985  0.6365
 2241TIP3   OH2 6686   5.537   6.747   5.468 -0.0228  0.8161  0.4294
 2241TIP3    H1 6687   5.549   6.828   5.419  0.4906  1.2820  1.2913
 2241TIP3    H2 6688   5.566   6.678   5.409 -1.9246  1.0810 -0.9015
 2242TIP3   OH2 6689   3.622   1.730   4.149 -0.8427  0.1757 -0.5197
 2242TIP3    H1 6690   3.578   1.744   4.066 -1.5973 -0.2469 -0.2031
 2242TIP3    H2 6691   3.703   1.684   4.127 -1.3978 -0.6188 -0.9627
 2243TIP3   OH2 6692   5.743   6.496   1.568  0.2460  0.0125  0.0481
 2243TIP3    H1 6693   5.659   6.477   1.527 -0.3413  0.3722  1.0566
 2243TIP3    H2 6694   5.789   6.412   1.568  0.3514  0.0391 -1.4971
 2244TIP3   OH2 6695   5.181   2.828   1.788 -0.0088  0.0707  0.2639
 2244TIP3    H1 6696   5.211   2.740   1.766 -1.4524 -0.4486  0.2788
 2244TIP3    H2 6697   5.115   2.815   1.855 -0.2407  1.1713  0.2639
 2245TIP3   OH2 6698   5.584   4.421   3.810  0.4861 -0.0702  0.0536
 2245TIP3    H1 6699   5.607   4.503   3.854 -1.0865  1.1539 -1.3046
 2245TIP3    H2 6700   5.650   4.412   3.741  1.4587 -0.6938  1.0257
 2246TIP3   OH2 6701   1.229   5.277   5.639 -0.5738  0.6486  0.3703
 2246TIP3    H1 6702   1.240   5.371   5.655 -0.3622  0.7133 -0.1311
 2246TIP3    H2 6703   1.293   5.257   5.572 -1.3926  0.3724 -0.3426
 2247TIP3   OH2 6704   0.232   5.512   5.048  0.6776 -0.6753 -0.4082
 2247TIP3    H1 6705   0.225   5.471   5.135  1.4303 -0.3334 -0.1851
 2247TIP3    H2 6706   0.228   5.606   5.065 -1.7198 -0.6021 -0.9775
 2248TIP3   OH2 6707   5.306   1.633   4.283 -0.0403  0.3494  0.0013
 2248TIP3    H1 6708   5.340   1.580   4.355 -0.1505  1.7657  1.1451
 2248TIP3    H2 6709   5.241   1.690   4.324 -0.9604  0.3849 -1.4477
 2249TIP3   OH2 6710   6.644   6.592   1.413  0.2121 -0.0095 -0.2172
 2249TIP3    H1 6711   6.690   6.670   1.381 -0.0645  0.1971 -0.1083
 2249TIP3    H2 6712   6.568   6.625   1.459  0.0843 -0.3465 -0.1804
 2250TIP3   OH2 6713   0.465   5.335   0.369 -0.2312 -0.8118  0.3412
 2250TIP3    H1 6714   0.381   5.380   0.356  0.0833 -0.9234 -3.4412
 2250TIP3    H2 6715   0.493   5.361   0.457 -4.1284 -0.7267  1.7568
 2251TIP3   OH2 6716   5.577   2.555   5.159  0.0674  0.3378  0.3998
 2251TIP3    H1 6717   5.561   2.491   5.089 -0.1074 -0.7534  1.3961
 2251TIP3    H2 6718   5.672   2.562   5.163  0.0679  1.2168 -0.6257
 2252TIP3   OH2 6719   2.454   4.537   2.115 -0.2357 -0.7680 -0.0122
 2252TIP3    H1 6720   2.481   4.583   2.194  0.1804 -0.6334 -0.2314
 2252TIP3    H2 6721   2.536   4.517   2.069 -0.4927 -0.4063 -0.6515
 2253TIP3   OH2 6722   5.469   2.427   2.602  0.2255 -0.0004  0.6840
 2253TIP3    H1 6723   5.382   2.420   2.642  0.5828 -2.5691  1.1749
 2253TIP3    H2 6724   5.452   2.459   2.514 -1.1186  0.4957  1.0941
 2254TIP3   OH2 6725   5.898   3.565   0.240 -0.3678 -0.5682 -0.1535
 2254TIP3    H1 6726   5.913   3.563   0.146  2.3838 -0.5043  0.2041
 2254TIP3    H2 6727   5.949   3.492   0.274  0.4732  0.6955  1.4539
 2255TIP3   OH2 6728   1.438   5.646   0.921 -0.1774  0.2318 -0.0737
 2255TIP3    H1 6729   1.520   5.677   0.885  0.2750 -0.5798  0.2360
 2255TIP3    H2 6730   1.396   5.599   0.849  0.2290 -0.4644  0.1416
 2256TIP3   OH2 6731   0.995   1.929   5.687  0.1743 -0.4622  0.2990
 2256TIP3    H1 6732   1.074   1.966   5.728  0.6143 -0.2760 -0.6973
 2256TIP3    H2 6733   1.020   1.914   5.596 -1.2445  0.5024 -0.2812
 2257TIP3   OH2 6734   0.199   3.859   4.989  0.4836  0.5929  0.0705
 2257TIP3    H1 6735   0.245   3.930   5.034  0.6886  1.2889 -1.2017
 2257TIP3    H2 6736   0.225   3.868   4.898 -0.0232 -0.7179 -0.2202
 2258TIP3   OH2 6737   5.583   2.827   4.204  0.2055  0.1032 -0.0184
 2258TIP3    H1 6738   5.492   2.804   4.226  0.8941 -0.5476  2.4874
 2258TIP3    H2 6739   5.613   2.754   4.150 -0.4752 -0.1901 -0.0116
 2259TIP3   OH2 6740   0.913   0.139   0.682  0.0304 -0.0076  0.1982
 2259TIP3    H1 6741   0.966   0.218   0.693 -2.0085  1.2766  1.3576
 2259TIP3    H2 6742   0.944   0.101   0.599  2.5176  0.7762  0.6763
 2260TIP3   OH2 6743   2.923   4.875   3.117 -0.0239 -0.6594  0.2868
 2260TIP3    H1 6744   2.829   4.862   3.126  0.1923 -1.7841  1.2875
 2260TIP3    H2 6745   2.943   4.950   3.172 -0.0494 -1.8455  2.0087
 2261TIP3   OH2 6746   1.137   5.220   3.674  0.0182 -0.4211  0.0108
 2261TIP3    H1 6747   1.215   5.233   3.728  0.6431  2.7961 -1.3726
 2261TIP3    H2 6748   1.169   5.169   3.599  0.7169  0.4236 -0.2891
 2262TIP3   OH2 6749   3.392   6.102   0.368 -0.3061 -0.2246 -0.2404
 2262TIP3    H1 6750   3.479   6.137   0.387 -0.4187 -1.0415  2.2465
 2262TIP3    H2 6751   3.407   6.009   0.352 -0.6712 -0.2721 -0.3003
 2263TIP3   OH2 6752   5.609   3.865   0.366 -0.0109  0.0499  0.6443
 2263TIP3    H1 6753   5.615   3.841   0.274  1.3049  0.9364  0.4673
 2263TIP3    H2 6754   5.695   3.902   0.387 -0.3839  0.1483  2.1479
 2264TIP3   OH2 6755   0.065   2.287   5.101 -0.2590 -0.2392 -0.3177
 2264TIP3    H1 6756   0.124   2.351   5.062 -1.7400  2.1252  1.0886
 2264TIP3    H2 6757   0.109   2.260   5.182 -0.1500 -0.1130 -0.3352
 2265TIP3   OH2 6758   4.442   6.124   4.659  0.3566  0.3136  0.2761
 2265TIP3    H1 6759   4.391   6.101   4.581 -1.3613  3.3122  0.3717
 2265TIP3    H2 6760   4.400   6.075   4.729 -0.8532  0.8484 -0.0491
 2266TIP3   OH2 6761   1.710   1.378   2.388 -0.1598 -0.4595 -0.2053
 2266TIP3    H1 6762   1.768   1.315   2.431 -1.1653 -0.8643  0.6160
 2266TIP3    H2 6763   1.622   1.351   2.415 -0.7769 -0.2341 -1.9093
 2267TIP3   OH2 6764   0.742   6.420   0.979 -0.3846 -0.1062 -0.0301
 2267TIP3    H1 6765   0.778   6.345   1.026  0.1670  0.4139  0.4072
 2267TIP3    H2 6766   0.654   6.394   0.954  0.1568 -1.2878 -0.8011
 2268TIP3   OH2 6767   0.777   4.460   2.650  0.2570  0.0180  0.5576
 2268TIP3    H1 6768   0.860   4.504   2.632  0.0101 -0.0014 -0.7505
 2268TIP3    H2 6769   0.741   4.507   2.725  0.4570  1.4545 -0.2025
 2269TIP3   OH2 6770   2.977   3.977   4.118  0.2579  0.6228 -0.2950
 2269TIP3    H1 6771   3.051   4.009   4.066 -0.4533 -1.9544 -3.2484
 2269TIP3    H2 6772   2.918   3.937   4.053 -0.5594 -3.2997  2.4653
 2270TIP3   OH2 6773   5.424   5.709   1.343 -0.2200  0.7017  0.0044
 2270TIP3    H1 6774   5.362   5.638   1.326 -1.1056  1.5649 -0.4534
 2270TIP3    H2 6775   5.486   5.672   1.407  0.1652 -0.9230 -1.2473
 2271TIP3   OH2 6776   4.832   0.718   2.793 -0.0318 -0.6142  0.1404
 2271TIP3    H1 6777   4.827   0.806   2.830 -2.6708 -1.1393  1.3080
 2271TIP3    H2 6778   4.775   0.721   2.716  0.4692 -1.1094 -0.2556
 2272TIP3   OH2 6779   3.083   0.182   0.108 -0.3282  0.0408  0.1395
 2272TIP3    H1 6780   3.046   0.225   0.030 -2.1053 -0.7512  0.4854
 2272TIP3    H2 6781   3.007   0.171   0.166  0.4034 -1.9856  0.7785
 2273TIP3   OH2 6782   4.813   4.939   5.368 -0.5904  0.4733 -0.2102
 2273TIP3    H1 6783   4.739   4.879   5.368 -0.6110  0.4977 -0.9166
 2273TIP3    H2 6784   4.890   4.883   5.378 -0.6412  0.3688 -0.4025
 2274TIP3   OH2 6785   3.869   6.150   3.709 -0.1195  0.4238  0.0500
 2274TIP3    H1 6786   3.789   6.201   3.709 -1.6879 -1.8516  1.8469
 2274TIP3    H2 6787   3.896   6.146   3.801  1.0829 -0.3115 -0.3007
 2275TIP3   OH2 6788   6.454   3.694   3.452  0.1119 -0.5089  0.0768
 2275TIP3    H1 6789   6.362   3.719   3.462 -0.9876 -4.0227  0.0310
 2275TIP3    H2 6790   6.452   3.601   3.428  3.6449 -0.2472 -1.9504
 2276TIP3   OH2 6791   6.390   5.948   4.711  1.2482  0.0772 -0.0080
 2276TIP3    H1 6792   6.314   5.890   4.717  0.7109  0.7523 -0.1868
 2276TIP3    H2 6793   6.460   5.901   4.756  0.1837  0.3252  2.0487
 2277TIP3   OH2 6794   1.555   3.149   0.081  0.3205 -0.4662 -0.0500
 2277TIP3    H1 6795   1.469   3.191   0.096  0.6560  0.5027 -0.7329
 2277TIP3    H2 6796   1.534   3.066   0.039 -0.3789 -1.1151  1.4943
 2278TIP3   OH2 6797   0.812   3.673   3.670  0.5367  0.6233  0.1929
 2278TIP3    H1 6798   0.826   3.657   3.577  2.0828  0.1272  0.4822
 2278TIP3    H2 6799   0.752   3.748   3.673 -2.6356 -1.6539 -1.1672
 2279TIP3   OH2 6800   5.956   1.239   5.062 -0.6800  0.4596  0.0622
 2279TIP3    H1 6801   5.929   1.312   5.117  1.4249  1.6207 -0.3248
 2279TIP3    H2 6802   5.943   1.269   4.972 -1.3432 -0.3019 -0.1112
 2280TIP3   OH2 6803   0.676   0.262   3.926  0.1110 -0.1944  0.5945
 2280TIP3    H1 6804   0.709   0.347   3.895  1.8110  0.1899  3.1932
 2280TIP3    H2 6805   0.750   0.202   3.916  0.0569 -0.5220  1.9989
 2281TIP3   OH2 6806   3.864   6.112   5.116 -0.1764  0.2093  0.0154
 2281TIP3    H1 6807   3.769   6.109   5.108 -0.6069  3.0535  2.3565
 2281TIP3    H2 6808   3.891   6.179   5.053  0.3217 -0.5966 -0.6506
 2282TIP3   OH2 6809   0.887   1.784   4.783  0.7658  0.0850 -0.0363
 2282TIP3    H1 6810   0.824   1.723   4.820  0.9161 -1.0643 -1.5708
 2282TIP3    H2 6811   0.896   1.853   4.849 -1.1019 -0.3839  0.7732
 2283TIP3   OH2 6812   2.660   3.744   0.460  0.5255  0.1166  0.0437
 2283TIP3    H1 6813   2.617   3.755   0.375  2.6691  1.7812 -0.9158
 2283TIP3    H2 6814   2.747   3.708   0.439  1.6335  1.8642  1.3609
 2284TIP3   OH2 6815   2.902   4.852   1.312  0.0052  0.5090  0.3566
 2284TIP3    H1 6816   2.880   4.764   1.284 -0.9851  0.7463  0.3500
 2284TIP3    H2 6817   2.923   4.843   1.405 -1.9381  0.5216  0.8473
 2285TIP3   OH2 6818   0.501   3.463   5.318 -0.1824 -0.3829 -0.0256
 2285TIP3    H1 6819   0.547   3.519   5.380  0.0968 -0.9892  0.3284
 2285TIP3    H2 6820   0.561   3.389   5.303  0.5992  0.6198 -2.4506
 2286TIP3   OH2 6821   5.304   2.000   5.893 -0.5880  0.4093  0.1294
 2286TIP3    H1 6822   5.359   2.006   5.815 -2.0321 -2.1008 -1.2312
 2286TIP3    H2 6823   5.330   2.074   5.947  0.4005  2.3518 -2.7972
 2287TIP3   OH2 6824   7.113   0.580   4.262  0.2473  0.1605  0.1004
 2287TIP3    H1 6825   7.170   0.610   4.190 -0.7678 -0.0520 -0.8183
 2287TIP3    H2 6826   7.047   0.648   4.270  0.3720  0.1943  0.8694
 2288TIP3   OH2 6827   4.688   6.521   2.511  0.1644  0.2731 -0.4765
 2288TIP3    H1 6828   4.606   6.508   2.558 -0.4305  1.2290 -1.2332
 2288TIP3    H2 6829   4.739   6.442   2.531 -0.8896 -0.2902  0.0788
 2289TIP3   OH2 6830   2.138   4.884   4.146 -0.1061 -0.0543 -0.1660
 2289TIP3    H1 6831   2.108   4.916   4.231 -1.9523  0.3391 -0.9140
 2289TIP3    H2 6832   2.068   4.827   4.116  0.7770 -0.6386 -1.1917
 2290TIP3   OH2 6833   2.465   6.224   2.933  0.0745 -0.0990 -0.5009
 2290TIP3    H1 6834   2.474   6.143   2.883  1.6038 -0.2506 -0.0296
 2290TIP3    H2 6835   2.554   6.246   2.960 -0.4492  1.1448  0.3271
 2291TIP3   OH2 6836   1.250   4.490   1.430 -0.2056  0.6207 -0.3670
 2291TIP3    H1 6837   1.288   4.452   1.510  1.2021 -0.0722 -1.3323
 2291TIP3    H2 6838   1.325   4.527   1.384 -1.2215  2.3959 -0.6597
 2292TIP3   OH2 6839   2.682   2.666   3.727  0.4042  0.4998 -0.3619
 2292TIP3    H1 6840   2.727   2.750   3.742 -0.0968  0.3990  2.0407
 2292TIP3    H2 6841   2.747   2.600   3.749 -0.1231  0.3177  0.6805
 2293TIP3   OH2 6842   3.898   2.370   5.423  0.1265  0.1045 -0.3836
 2293TIP3    H1 6843   3.813   2.411   5.436  0.6550  1.8801 -2.0409
 2293TIP3    H2 6844   3.878   2.279   5.401 -1.1306 -0.4419  2.5315
 2294TIP3   OH2 6845   3.510   1.857   5.629 -0.3153 -0.6753 -0.4671
 2294TIP3    H1 6846   3.510   1.936   5.575 -0.0045  0.3876  1.0280
 2294TIP3    H2 6847   3.567   1.796   5.581  1.1080  0.7332 -0.6597
 2295TIP3   OH2 6848   1.451   4.391   2.154 -0.1650 -0.5680  0.1161
 2295TIP3    H1 6849   1.473   4.484   2.147  0.1805 -0.5981  0.7691
 2295TIP3    H2 6850   1.404   4.372   2.073  0.7265 -0.0860 -0.5388
 2296TIP3   OH2 6851   0.318   3.564   1.401  0.0925 -0.5812 -0.4824
 2296TIP3    H1 6852   0.325   3.573   1.496  0.2970  0.2466 -0.5736
 2296TIP3    H2 6853   0.298   3.471   1.388  0.4346 -0.7842  0.3468
 2297TIP3   OH2 6854   0.194   4.117   5.347  0.7492  0.6345  0.2766
 2297TIP3    H1 6855   0.136   4.150   5.278  1.1038  0.3636 -0.1557
 2297TIP3    H2 6856   0.265   4.075   5.300  0.4170 -0.5628  0.8157
 2298TIP3   OH2 6857   3.941   1.019   3.573 -0.0852  0.4435  0.0172
 2298TIP3    H1 6858   3.906   1.025   3.484 -0.2364  0.0257  0.0489
 2298TIP3    H2 6859   4.002   0.945   3.570  1.7974  1.9334 -0.3774
 2299TIP3   OH2 6860   5.447   4.705   2.435  0.8036  0.4260 -0.1078
 2299TIP3    H1 6861   5.448   4.686   2.341 -0.3717  0.5460 -0.1588
 2299TIP3    H2 6862   5.361   4.675   2.465 -0.1675  3.3532  0.2878
 2300TIP3   OH2 6863   2.923   4.644   2.017 -0.2719 -0.2897 -0.0959
 2300TIP3    H1 6864   2.969   4.678   1.940 -0.2845 -0.8181 -0.3450
 2300TIP3    H2 6865   2.988   4.591   2.063 -0.7039 -1.3022 -0.6201
 2301TIP3   OH2 6866   2.777   0.507   4.664 -0.0434 -0.2424 -0.0507
 2301TIP3    H1 6867   2.709   0.558   4.709 -0.3419 -0.7421  0.0755
 2301TIP3    H2 6868   2.734   0.474   4.585  0.6062  0.9962 -0.9471
 2302TIP3   OH2 6869   1.278   3.119   4.377  0.6688 -0.2431 -0.4447
 2302TIP3    H1 6870   1.276   3.215   4.373 -3.9693 -0.1307 -1.5949
 2302TIP3    H2 6871   1.310   3.093   4.290  0.3281  0.3042 -0.7415
 2303TIP3   OH2 6872   5.423   5.930   3.932 -0.5595  0.1658  0.0750
 2303TIP3    H1 6873   5.347   5.952   3.987 -0.2477 -0.2506  0.6858
 2303TIP3    H2 6874   5.493   5.911   3.995 -0.8775 -2.8671 -0.3462
 2304TIP3   OH2 6875   0.789   2.997   4.997 -0.2294 -0.0115 -0.3648
 2304TIP3    H1 6876   0.723   2.927   4.995 -1.8311  1.3558 -3.3643
 2304TIP3    H2 6877   0.739   3.076   5.016  0.2705  1.1567 -3.3100
 2305TIP3   OH2 6878   6.403   3.297   4.980 -0.1698  0.4107 -0.2867
 2305TIP3    H1 6879   6.356   3.276   5.060 -0.0645  2.2300  0.2958
 2305TIP3    H2 6880   6.490   3.258   4.992  0.1028  1.3205  0.8471
 2306TIP3   OH2 6881   5.114   0.448   5.717 -0.1274  0.4654  0.4591
 2306TIP3    H1 6882   5.074   0.483   5.796 -1.7189  0.6247 -0.3743
 2306TIP3    H2 6883   5.157   0.524   5.676  0.9270  0.3288  1.2626
 2307TIP3   OH2 6884   5.201   0.512   3.453 -0.2645 -0.0510  0.0560
 2307TIP3    H1 6885   5.270   0.448   3.436 -0.8460 -0.7836  0.3937
 2307TIP3    H2 6886   5.135   0.463   3.501 -1.4003  0.4215 -0.9884
 2308TIP3   OH2 6887   1.825   5.019   2.320  0.4001  0.0400 -0.3003
 2308TIP3    H1 6888   1.898   5.050   2.374  0.6094  0.9054 -1.0493
 2308TIP3    H2 6889   1.865   4.989   2.239 -0.0406  0.1503 -0.5664
 2309TIP3   OH2 6890   0.993   4.578   5.383  0.0550  0.4894  0.0217
 2309TIP3    H1 6891   0.974   4.577   5.289 -0.2229 -0.9598  0.0635
 2309TIP3    H2 6892   0.923   4.632   5.420  0.2158  1.1489 -0.6013
 2310TIP3   OH2 6893   3.945   1.631   0.612 -0.2284 -0.3131 -0.0247
 2310TIP3    H1 6894   3.997   1.587   0.545 -0.5663 -0.9817  0.1510
 2310TIP3    H2 6895   3.937   1.566   0.682  1.6412  0.9430  1.4667
 2311TIP3   OH2 6896   4.862   6.387   3.887  0.5819 -0.2886  0.2357
 2311TIP3    H1 6897   4.852   6.361   3.795  1.7966 -0.2729  0.0722
 2311TIP3    H2 6898   4.811   6.323   3.936  0.3203 -0.5960 -0.4279
 2312TIP3   OH2 6899   1.360   2.866   2.143  0.4168 -0.2076  0.0634
 2312TIP3    H1 6900   1.356   2.801   2.214 -0.3331 -1.0402 -0.7003
 2312TIP3    H2 6901   1.274   2.909   2.146 -0.1284 -1.1362 -1.1061
 2313TIP3   OH2 6902   0.391   3.668   3.010 -0.2669  0.6183 -0.0559
 2313TIP3    H1 6903   0.330   3.618   3.064  1.0725 -0.3680  0.6130
 2313TIP3    H2 6904   0.466   3.684   3.068 -0.6014  3.3589 -0.2732
 2314TIP3   OH2 6905   5.581   2.906   5.125 -0.3836  0.3201 -0.4450
 2314TIP3    H1 6906   5.667   2.929   5.159 -0.5741 -2.0522  1.9779
 2314TIP3    H2 6907   5.599   2.842   5.056 -0.1869  1.1539 -1.1861
 2315TIP3   OH2 6908   4.331   4.680   0.947 -0.0209  0.6768  0.3022
 2315TIP3    H1 6909   4.347   4.774   0.956 -0.3478  0.5914  2.1526
 2315TIP3    H2 6910   4.417   4.640   0.957 -0.2628  0.6378  2.7598
 2316TIP3   OH2 6911   6.335   4.743   2.248  0.8845  0.5584 -0.2946
 2316TIP3    H1 6912   6.406   4.807   2.253  0.9452  0.4330  0.6775
 2316TIP3    H2 6913   6.256   4.791   2.272  0.5134  0.8532 -2.0037
 2317TIP3   OH2 6914   3.100   6.448   1.916  0.1750 -0.3721 -0.4921
 2317TIP3    H1 6915   3.194   6.429   1.927  0.2785  0.7186  0.6551
 2317TIP3    H2 6916   3.058   6.403   1.989  0.1122  1.2676  0.5282
 2318TIP3   OH2 6917   6.725   3.039   3.487  0.1496 -0.1271 -0.1666
 2318TIP3    H1 6918   6.733   3.110   3.423  1.7078 -0.7812 -0.7579
 2318TIP3    H2 6919   6.787   3.063   3.556  0.9998 -1.0837 -0.5718
 2319TIP3   OH2 6920   6.636   4.553   3.297  0.1546 -0.0430 -0.5032
 2319TIP3    H1 6921   6.568   4.540   3.231 -0.8136  0.2082  0.4229
 2319TIP3    H2 6922   6.699   4.483   3.280 -1.1764 -1.3388 -0.3446
 2320TIP3   OH2 6923   4.541   1.687   2.557  0.4959 -0.6203  0.2193
 2320TIP3    H1 6924   4.629   1.714   2.531  0.5354 -0.0656  0.8956
 2320TIP3    H2 6925   4.554   1.639   2.639 -0.0973  2.5156  2.3287
 2321TIP3   OH2 6926   1.575   4.581   5.255  0.4191 -0.2314  0.3494
 2321TIP3    H1 6927   1.636   4.594   5.327  0.9329 -2.1876  0.3322
 2321TIP3    H2 6928   1.624   4.528   5.192 -0.3856  0.5173 -0.9414
 2322TIP3   OH2 6929   0.415   0.431   0.067 -0.4452  0.1140  0.2256
 2322TIP3    H1 6930   0.386   0.455  -0.021  0.6640 -1.5775 -0.6625
 2322TIP3    H2 6931   0.417   0.335   0.066  1.3088  0.0941  1.4828
 2323TIP3   OH2 6932   2.944   0.287   5.170  0.7494 -0.4888 -0.3503
 2323TIP3    H1 6933   2.929   0.322   5.082  0.2484  0.4880  0.1206
 2323TIP3    H2 6934   2.858   0.284   5.211  1.0924 -0.0437  0.4367
 2324TIP3   OH2 6935   3.904   5.795   2.268  0.0595  0.2559  0.1660
 2324TIP3    H1 6936   3.911   5.701   2.251  0.5158  0.1389  0.9563
 2324TIP3    H2 6937   3.833   5.802   2.332  0.9573  0.3042  1.1755
 2325TIP3   OH2 6938   6.131   3.449   2.214  0.4632  0.5154  0.2764
 2325TIP3    H1 6939   6.175   3.364   2.216  0.4638  0.5164  0.3180
 2325TIP3    H2 6940   6.070   3.445   2.288 -0.7454 -0.0968 -0.7262
 2326TIP3   OH2 6941   3.445   3.201   0.813 -0.6153  0.3227 -0.7658
 2326TIP3    H1 6942   3.523   3.167   0.856  1.2068  0.5902 -3.5895
 2326TIP3    H2 6943   3.388   3.124   0.805  1.4005 -1.1123 -2.7712
 2327TIP3   OH2 6944   1.916   6.201   4.286 -0.1887  0.0438 -0.1912
 2327TIP3    H1 6945   1.918   6.262   4.212 -1.2453  0.9126  0.4658
 2327TIP3    H2 6946   1.975   6.240   4.351  0.3650 -0.4731 -0.3692
 2328TIP3   OH2 6947   2.709   5.541   0.201 -0.1851  0.2098  0.2403
 2328TIP3    H1 6948   2.641   5.558   0.136  1.5905 -0.9116 -2.0845
 2328TIP3    H2 6949   2.663   5.541   0.285 -2.7308  1.0264 -1.0373
 2329TIP3   OH2 6950   3.719   1.008   2.979  0.0817 -0.5059  0.1397
 2329TIP3    H1 6951   3.648   1.003   3.044  1.3610  0.6275  1.6920
 2329TIP3    H2 6952   3.729   0.917   2.949 -1.8752 -0.7310 -0.0070
 2330TIP3   OH2 6953   2.783   3.984   4.786  0.5158  0.4100 -0.5425
 2330TIP3    H1 6954   2.742   3.908   4.744  0.5752  0.3499 -0.4933
 2330TIP3    H2 6955   2.865   3.949   4.822  0.3102  0.3885 -0.0959
 2331TIP3   OH2 6956   1.307   4.818   2.950  0.3703  0.1500  0.0967
 2331TIP3    H1 6957   1.315   4.752   3.019 -0.9787 -1.0506 -0.8311
 2331TIP3    H2 6958   1.260   4.891   2.992  0.2813 -0.2244  0.6541
 2332TIP3   OH2 6959   2.840   4.415   1.793  0.0485 -0.4249  0.5722
 2332TIP3    H1 6960   2.822   4.493   1.740 -0.7143  0.7991  2.5074
 2332TIP3    H2 6961   2.932   4.394   1.775  0.3781  1.1513  0.2714
 2333TIP3   OH2 6962   2.449   0.891   0.438 -0.2800 -0.4950  0.0299
 2333TIP3    H1 6963   2.388   0.939   0.382  1.0483 -0.7943 -1.7685
 2333TIP3    H2 6964   2.396   0.824   0.480 -1.4351  0.0980 -0.4489
 2334TIP3   OH2 6965   2.608   5.964   3.146 -0.2072  0.1111 -0.3852
 2334TIP3    H1 6966   2.667   6.040   3.147  0.7521 -0.4719 -3.3087
 2334TIP3    H2 6967   2.652   5.898   3.200  0.9703  0.3040 -1.0746
 2335TIP3   OH2 6968   3.390   3.183   4.814 -0.6786 -0.0939  0.4032
 2335TIP3    H1 6969   3.377   3.271   4.851  1.4320 -0.0415  1.1361
 2335TIP3    H2 6970   3.477   3.157   4.844 -0.2498 -1.4492 -1.8214
 2336TIP3   OH2 6971   2.001   2.819   0.440  0.1696 -0.0207 -0.4593
 2336TIP3    H1 6972   1.943   2.806   0.515  0.9449 -0.1069  0.1312
 2336TIP3    H2 6973   1.998   2.736   0.392 -0.1617 -0.0381 -0.4076
 2337TIP3   OH2 6974   0.532   4.020   0.247 -0.1171 -0.1074  0.5433
 2337TIP3    H1 6975   0.622   3.987   0.242  1.3326  3.5848 -1.2013
 2337TIP3    H2 6976   0.491   3.988   0.167  1.1166  1.6747 -0.8873
 2338TIP3   OH2 6977   3.790   4.201   4.538  0.4589  0.4089  0.1951
 2338TIP3    H1 6978   3.760   4.291   4.555  0.2357  0.1410  1.3449
 2338TIP3    H2 6979   3.885   4.209   4.530  0.3037  0.9587 -1.2776
 2339TIP3   OH2 6980   1.590   5.678   3.063 -0.3768 -0.1618  0.3882
 2339TIP3    H1 6981   1.594   5.766   3.026 -1.6906 -0.4416 -0.4806
 2339TIP3    H2 6982   1.675   5.639   3.043 -0.2298  0.4974 -0.2855
 2340TIP3   OH2 6983   1.640   1.749   2.098 -0.2917  0.5144  0.2897
 2340TIP3    H1 6984   1.585   1.757   2.176 -0.7459 -3.9870  0.7162
 2340TIP3    H2 6985   1.579   1.739   2.025 -0.0073 -0.0425  0.1136
 2341TIP3   OH2 6986   4.417   5.788   3.041  0.0639  0.1622 -0.0941
 2341TIP3    H1 6987   4.403   5.849   3.113  0.1928 -2.1698  2.0637
 2341TIP3    H2 6988   4.330   5.775   3.003 -0.1080  0.9992  0.0131
 2342TIP3   OH2 6989   1.467   5.174   4.179  0.2360  0.7391 -0.2047
 2342TIP3    H1 6990   1.449   5.228   4.256  1.7724  0.9444  0.0442
 2342TIP3    H2 6991   1.527   5.106   4.210 -0.8252 -0.4838 -0.7644
 2343TIP3   OH2 6992   4.019   0.325   4.618 -0.2691 -0.0800 -0.2485
 2343TIP3    H1 6993   4.060   0.319   4.704 -1.5564  0.1756  0.4116
 2343TIP3    H2 6994   3.960   0.400   4.625 -0.3841 -0.0523 -1.3628
 2344TIP3   OH2 6995   2.407   3.465   2.208  0.0603 -0.2400 -0.4011
 2344TIP3    H1 6996   2.402   3.406   2.133  0.8553  1.4632 -1.8644
 2344TIP3    H2 6997   2.495   3.452   2.242 -0.8073 -2.1762  1.3207
 2345TIP3   OH2 6998   5.373   6.016   4.858  0.0472 -0.3552 -0.0152
 2345TIP3    H1 6999   5.435   5.957   4.815  1.6520  1.5074 -0.4260
 2345TIP3    H2 7000   5.412   6.032   4.944  0.9813  1.9325 -0.7913
 2346TIP3   OH2 7001   0.396   6.429   2.963  0.3382 -0.1147  0.1426
 2346TIP3    H1 7002   0.391   6.519   2.931 -2.7780  0.2304  1.2491
 2346TIP3    H2 7003   0.325   6.384   2.917 -0.3989 -1.0773  2.1344
 2347TIP3   OH2 7004   5.217   2.336   1.707  0.1729 -0.2699  0.1172
 2347TIP3    H1 7005   5.276   2.262   1.717 -1.7805 -1.7925  0.8306
 2347TIP3    H2 7006   5.160   2.312   1.634 -0.2348  0.7286  0.0829
 2348TIP3   OH2 7007   6.980   0.801   5.120  0.1795  0.1664  0.2687
 2348TIP3    H1 7008   6.955   0.889   5.093 -0.0001  0.2197  0.6049
 2348TIP3    H2 7009   7.075   0.800   5.115  0.1151 -0.4641 -2.3840
 2349TIP3   OH2 7010   2.159   0.270   4.949  0.6703  0.1570  0.6646
 2349TIP3    H1 7011   2.104   0.316   5.013  0.1438 -0.2924  0.5392
 2349TIP3    H2 7012   2.199   0.199   4.999  0.4500 -0.0464  0.5531
 2350TIP3   OH2 7013   3.321   2.179   0.027 -0.4426  0.3319  0.2398
 2350TIP3    H1 7014   3.385   2.188   0.098 -0.1642  1.3166 -0.1198
 2350TIP3    H2 7015   3.369   2.207  -0.051 -0.2355 -2.2016 -0.6367
 2351TIP3   OH2 7016   6.886   5.171   3.540  0.4002  0.1182  0.0831
 2351TIP3    H1 7017   6.854   5.142   3.455  0.3918 -0.5172  0.2921
 2351TIP3    H2 7018   6.830   5.126   3.603  0.9267 -0.0567  0.4329
 2352TIP3   OH2 7019   4.549   2.290   1.212  0.3115 -0.2058 -0.1308
 2352TIP3    H1 7020   4.568   2.383   1.200 -0.0166  0.0028  0.9194
 2352TIP3    H2 7021   4.454   2.283   1.203  0.4593 -0.6639 -1.5680
 2353TIP3   OH2 7022   1.349   4.014   3.437 -0.1196  0.1164  0.1195
 2353TIP3    H1 7023   1.404   4.093   3.432  0.1995 -0.1496 -0.9144
 2353TIP3    H2 7024   1.400   3.953   3.490 -0.3149  0.5564  0.8271
 2354TIP3   OH2 7025   5.537   5.783   4.346 -0.2828 -0.5023 -0.2496
 2354TIP3    H1 7026   5.443   5.800   4.353 -0.2118  0.2693 -0.9527
 2354TIP3    H2 7027   5.570   5.853   4.289  1.1177  0.6582  1.8324
 2355TIP3   OH2 7028   5.881   5.981   5.278  0.1380  0.6177  0.4676
 2355TIP3    H1 7029   5.887   6.073   5.306  0.3871  0.2790  1.5878
 2355TIP3    H2 7030   5.957   5.968   5.222 -1.1590  1.7127 -1.6857
 2356TIP3   OH2 7031   2.729   4.960   4.147 -0.1759  0.1786  0.5863
 2356TIP3    H1 7032   2.633   4.959   4.150 -0.3460 -0.5456 -2.1342
 2356TIP3    H2 7033   2.755   4.903   4.219 -1.9796 -2.1999 -0.4924
 2357TIP3   OH2 7034   5.241   5.371   2.384  0.0349  0.9341  0.2108
 2357TIP3    H1 7035   5.247   5.354   2.290 -0.3547  0.9111  0.1878
 2357TIP3    H2 7036   5.332   5.377   2.413  0.1545  1.1650 -0.2075
 2358TIP3   OH2 7037   0.639   6.309   1.595  0.3860 -0.1981  0.0946
 2358TIP3    H1 7038   0.696   6.296   1.520 -0.9945 -1.6831 -0.7585
 2358TIP3    H2 7039   0.565   6.361   1.561  0.0490 -0.3530  0.5765
 2359TIP3   OH2 7040   4.632   3.917   0.677  0.3427 -0.3673  0.0002
 2359TIP3    H1 7041   4.601   4.007   0.679  1.4069  0.0094  0.1593
 2359TIP3    H2 7042   4.582   3.873   0.746  1.2627  0.5966  1.3289
 2360TIP3   OH2 7043   4.628   2.968   2.194  0.0675  0.4994  0.0496
 2360TIP3    H1 7044   4.713   2.945   2.156 -0.7481  0.1345 -1.6485
 2360TIP3    H2 7045   4.612   2.899   2.259  1.3250  0.9306  0.8734
 2361TIP3   OH2 7046   5.481   1.903   3.614  0.4584 -0.2868  0.5949
 2361TIP3    H1 7047   5.572   1.930   3.629 -0.5665  2.4918  2.5688
 2361TIP3    H2 7048   5.432   1.985   3.608 -1.9522 -1.7023 -0.6284
 2362TIP3   OH2 7049   4.819   3.490   2.804 -0.0424  0.4669  0.6030
 2362TIP3    H1 7050   4.857   3.531   2.726 -0.0657  2.0925  1.4122
 2362TIP3    H2 7051   4.759   3.423   2.769 -0.4417  1.5039 -0.7985
 2363TIP3   OH2 7052   3.993   0.982   5.489 -0.5448 -0.5737 -0.5186
 2363TIP3    H1 7053   3.918   0.945   5.535 -0.6981  0.3175 -0.0466
 2363TIP3    H2 7054   3.991   0.939   5.403 -1.1643 -1.0908 -0.2560
 2364TIP3   OH2 7055   0.894   5.380   3.631 -0.0633  0.1090 -0.0542
 2364TIP3    H1 7056   0.883   5.313   3.698  1.4157 -0.5660 -0.4434
 2364TIP3    H2 7057   0.980   5.361   3.592 -0.4083  1.1419 -1.3913
 2365TIP3   OH2 7058   0.635   3.081   2.792 -0.0344 -0.0467 -0.3316
 2365TIP3    H1 7059   0.543   3.108   2.797  0.4714  1.7885 -0.2491
 2365TIP3    H2 7060   0.636   2.994   2.832 -1.3846  0.8434  1.8592
 2366TIP3   OH2 7061   5.373   2.950   0.650 -0.8303 -0.4673  0.5827
 2366TIP3    H1 7062   5.428   2.973   0.575 -1.6705 -1.0237 -0.2297
 2366TIP3    H2 7063   5.377   2.854   0.654 -1.7444 -0.5124  0.5073
 2367TIP3   OH2 7064   3.480   5.547   3.778 -0.2020 -0.3933  0.2434
 2367TIP3    H1 7065   3.519   5.517   3.861  1.3947 -1.6495 -0.8964
 2367TIP3    H2 7066   3.461   5.466   3.731 -0.4793  0.3222 -0.8909
 2368TIP3   OH2 7067   4.511   6.713   2.766  0.1804  0.0453 -0.0705
 2368TIP3    H1 7068   4.456   6.657   2.712  0.0132 -0.6568  0.8067
 2368TIP3    H2 7069   4.557   6.653   2.825  1.0709  0.7134 -0.0543
 2369TIP3   OH2 7070   0.558   2.938   3.243 -0.1176  0.4480 -0.3790
 2369TIP3    H1 7071   0.468   2.972   3.243  0.4120  2.0411  1.5754
 2369TIP3    H2 7072   0.603   2.989   3.310  2.1042 -0.7650 -0.8466
 2370TIP3   OH2 7073   5.894   5.251   1.193  0.3942 -0.3531 -0.4062
 2370TIP3    H1 7074   5.915   5.161   1.217 -0.6126 -0.9788 -1.7673
 2370TIP3    H2 7075   5.805   5.247   1.159  0.6340  1.0164 -1.2770
 2371TIP3   OH2 7076   3.375   6.813   3.463  0.0099 -0.0988 -0.4119
 2371TIP3    H1 7077   3.468   6.794   3.445  1.1317  1.9016  2.5088
 2371TIP3    H2 7078   3.347   6.741   3.520 -0.4271 -0.9195 -1.6147
 2372TIP3   OH2 7079   0.435   6.465   3.556 -0.3433 -0.0871 -0.7257
 2372TIP3    H1 7080   0.438   6.512   3.639  1.7805 -1.1841 -0.0959
 2372TIP3    H2 7081   0.345   6.432   3.549 -0.6396  0.2862  0.9802
 2373TIP3   OH2 7082   1.368   1.579   0.449 -0.0349  0.4593 -0.2503
 2373TIP3    H1 7083   1.416   1.497   0.438 -2.3356 -0.9613 -0.3986
 2373TIP3    H2 7084   1.396   1.613   0.534  0.2632 -1.0073  0.2551
 2374TIP3   OH2 7085   1.388   5.842   1.532 -0.7170 -0.0763  0.5832
 2374TIP3    H1 7086   1.422   5.752   1.535 -0.6928 -0.0422  3.7168
 2374TIP3    H2 7087   1.463   5.897   1.556 -0.7856  0.8327 -1.1279
 2375TIP3   OH2 7088   5.523   2.905   3.772 -0.0704  0.4570  0.4079
 2375TIP3    H1 7089   5.445   2.875   3.819  0.5419 -0.0204  1.1401
 2375TIP3    H2 7090   5.596   2.862   3.817  0.7138  1.8360  0.5030
 2376TIP3   OH2 7091   4.795   6.227   0.496 -0.1164  0.1857  0.1777
 2376TIP3    H1 7092   4.879   6.200   0.458 -0.9804  0.5085 -2.1326
 2376TIP3    H2 7093   4.786   6.174   0.575  1.9859 -0.2647  0.1838
 2377TIP3   OH2 7094   5.608   2.982   0.496  0.1440  0.4383 -0.4848
 2377TIP3    H1 7095   5.586   2.891   0.477 -0.4645  0.6092 -0.6210
 2377TIP3    H2 7096   5.702   2.988   0.478  0.3986 -0.3936  0.4490
 2378TIP3   OH2 7097   4.894   3.154   0.508  0.4536 -0.2966  0.6245
 2378TIP3    H1 7098   4.855   3.163   0.421  1.4605 -1.9270 -0.0422
 2378TIP3    H2 7099   4.982   3.190   0.499  0.0848  0.8844  1.4011
 2379TIP3   OH2 7100   7.030   0.608   5.592 -0.1990 -0.2857 -0.1071
 2379TIP3    H1 7101   7.041   0.677   5.527 -0.3336  0.5897  0.7806
 2379TIP3    H2 7102   7.016   0.654   5.675  0.8247 -1.3592  0.7043
 2380TIP3   OH2 7103   3.901   6.561   0.327  0.2777 -0.3218 -0.5564
 2380TIP3    H1 7104   3.865   6.639   0.368  0.1055  0.0781 -1.4556
 2380TIP3    H2 7105   3.851   6.489   0.364  1.7200 -0.2512  1.7941
 2381TIP3   OH2 7106   5.916   3.976   2.483  0.0437 -0.0770  0.6174
 2381TIP3    H1 7107   5.999   3.985   2.529  0.1360  0.9218  0.2780
 2381TIP3    H2 7108   5.935   3.916   2.411  0.7374  0.9106 -0.0485
 2382TIP3   OH2 7109   0.964   5.023   2.763  0.2623 -0.0531  0.3611
 2382TIP3    H1 7110   0.954   4.929   2.754 -0.2227 -0.1499  1.6548
 2382TIP3    H2 7111   1.050   5.042   2.726 -0.2512 -0.7636 -1.2681
 2383TIP3   OH2 7112   5.547   2.258   5.696  0.1254  0.3322 -0.5089
 2383TIP3    H1 7113   5.629   2.307   5.692 -0.4673  1.4751  0.5040
 2383TIP3    H2 7114   5.481   2.319   5.663 -0.3860 -0.4317 -0.9283
 2384TIP3   OH2 7115   4.021   3.819   5.293 -0.1961 -0.3870  0.0114
 2384TIP3    H1 7116   4.026   3.831   5.387 -1.0845 -1.1990  0.1859
 2384TIP3    H2 7117   4.055   3.730   5.278 -0.9673 -0.6431 -0.3032
 2385TIP3   OH2 7118   2.036   0.152   0.571 -0.2073 -0.0451  0.0814
 2385TIP3    H1 7119   2.003   0.130   0.659 -0.6246  1.6052  0.3802
 2385TIP3    H2 7120   1.970   0.212   0.535  1.0344  1.0573 -0.4611
 2386TIP3   OH2 7121   3.679   0.123   4.654 -0.2641  0.2269 -0.4746
 2386TIP3    H1 7122   3.773   0.132   4.639  0.3665 -1.5677  1.8464
 2386TIP3    H2 7123   3.659   0.190   4.720 -0.1293 -0.7465  0.5856
 2387TIP3   OH2 7124   5.403   0.883   5.003 -0.7747 -0.1634  0.5867
 2387TIP3    H1 7125   5.478   0.839   5.042  0.1115  0.2658 -0.5776
 2387TIP3    H2 7126   5.330   0.822   5.015 -0.4855 -0.1790  2.5965
 2388TIP3   OH2 7127   4.420   5.593   2.558  0.0771 -0.3833 -0.1916
 2388TIP3    H1 7128   4.328   5.612   2.543  0.4634  1.9346 -0.0299
 2388TIP3    H2 7129   4.448   5.542   2.482 -0.2186  3.0634 -2.8487
 2389TIP3   OH2 7130   0.886   1.170   5.595 -0.1512  0.5566 -0.0200
 2389TIP3    H1 7131   0.933   1.090   5.574 -0.6482 -0.0090  0.9205
 2389TIP3    H2 7132   0.911   1.190   5.685 -1.3556  0.4809  0.3520
 2390TIP3   OH2 7133   0.576   3.381   0.294  0.1220 -0.5878  0.2440
 2390TIP3    H1 7134   0.625   3.300   0.305 -0.5837 -1.0916 -0.3301
 2390TIP3    H2 7135   0.537   3.397   0.380  3.4140  1.2741  1.6024
 2391TIP3   OH2 7136   1.420   1.744   0.673 -0.1262  0.7774  0.4729
 2391TIP3    H1 7137   1.384   1.697   0.748  1.1404 -1.3185 -0.1546
 2391TIP3    H2 7138   1.509   1.768   0.701  0.5757 -0.5560 -0.5147
 2392TIP3   OH2 7139   1.138   5.842   5.129  0.4707  0.2389  0.2045
 2392TIP3    H1 7140   1.079   5.918   5.121 -0.8751 -0.6660  1.2128
 2392TIP3    H2 7141   1.114   5.786   5.055 -0.5422 -0.5089  1.0746
 2393TIP3   OH2 7142   4.842   5.856   5.339  0.3832 -0.7664 -0.2665
 2393TIP3    H1 7143   4.863   5.816   5.423  0.0471 -0.2383  0.0742
 2393TIP3    H2 7144   4.757   5.819   5.315  0.8632 -1.5710 -0.8021
 2394TIP3   OH2 7145   4.757   1.002   1.359 -0.3726 -0.2888  0.3558
 2394TIP3    H1 7146   4.764   0.965   1.272  1.5264 -0.2401  0.4481
 2394TIP3    H2 7147   4.731   1.093   1.344 -0.4858 -0.3980 -0.1261
 2395TIP3   OH2 7148   6.453   0.267   0.114 -0.3527 -0.0961  0.1174
 2395TIP3    H1 7149   6.381   0.209   0.139 -2.0948  2.1749  0.7202
 2395TIP3    H2 7150   6.491   0.295   0.198 -1.6162  1.9955  0.0922
 2396TIP3   OH2 7151   4.714   4.577   1.757  0.2274 -0.1462 -0.3725
 2396TIP3    H1 7152   4.783   4.515   1.733  0.8401  0.5783 -0.5238
 2396TIP3    H2 7153   4.681   4.545   1.840  0.2266 -0.9276 -0.6640
 2397TIP3   OH2 7154   6.718   2.334   4.790 -0.1138 -0.0270 -0.3508
 2397TIP3    H1 7155   6.665   2.341   4.870 -0.8874  1.7148 -0.9664
 2397TIP3    H2 7156   6.685   2.256   4.746 -1.2996  0.2909 -0.0745
 2398TIP3   OH2 7157   1.933   5.746   3.136 -0.9010  0.3408  0.3390
 2398TIP3    H1 7158   1.976   5.807   3.076  0.4080 -0.0694  0.8238
 2398TIP3    H2 7159   1.906   5.800   3.210 -0.3809  0.4567  0.4483
 2399TIP3   OH2 7160   1.023   0.411   3.688  0.0250 -0.1073  0.4595
 2399TIP3    H1 7161   1.029   0.332   3.635  0.7711  0.9608 -1.1175
 2399TIP3    H2 7162   1.043   0.382   3.777 -0.1257 -1.7519 -0.0157
 2400TIP3   OH2 7163   1.830   1.255   1.399  0.1877  0.3731 -0.5017
 2400TIP3    H1 7164   1.914   1.299   1.384  0.7753 -1.0626 -1.7295
 2400TIP3    H2 7165   1.813   1.207   1.317 -1.8261  0.6064 -0.2714
 2401TIP3   OH2 7166   0.826   1.984   4.988  0.4466 -0.4289  0.0652
 2401TIP3    H1 7167   0.773   2.030   4.923  0.8791  0.0915  0.0724
 2401TIP3    H2 7168   0.803   2.023   5.072 -1.3580 -2.2381  0.4910
 2402TIP3   OH2 7169   2.700   0.497   3.978 -0.0833  0.1484  0.3419
 2402TIP3    H1 7170   2.767   0.550   3.933  0.5759 -0.7686  0.2215
 2402TIP3    H2 7171   2.619   0.546   3.964  0.5077  1.1548  0.2710
 2403TIP3   OH2 7172   1.940   4.512   3.432 -0.3675  0.0412 -0.0055
 2403TIP3    H1 7173   1.910   4.575   3.497 -0.4701 -1.2740  1.2648
 2403TIP3    H2 7174   1.908   4.428   3.463  1.4182 -0.9108 -0.6201
 2404TIP3   OH2 7175   1.592   1.953   3.090  0.4012  0.1726 -0.0086
 2404TIP3    H1 7176   1.617   2.036   3.130 -2.1275  0.9044  0.2164
 2404TIP3    H2 7177   1.609   1.888   3.159  0.5409  0.7787  0.5398
 2405TIP3   OH2 7178   4.865   3.798   3.135 -0.2196 -0.0425 -0.5394
 2405TIP3    H1 7179   4.825   3.857   3.071 -1.4967  0.3959  0.6216
 2405TIP3    H2 7180   4.896   3.724   3.083  0.4866  1.1540 -1.8957
 2406TIP3   OH2 7181   0.946   4.819   0.211 -0.1500  0.2567  0.2522
 2406TIP3    H1 7182   0.945   4.766   0.131  2.4776 -0.4765  0.5765
 2406TIP3    H2 7183   0.929   4.908   0.181 -1.1131 -0.2692 -0.8356
 2407TIP3   OH2 7184   3.944   4.731   0.427 -0.7872  0.0373 -0.5006
 2407TIP3    H1 7185   4.002   4.676   0.480  2.0771 -0.2181 -3.5808
 2407TIP3    H2 7186   3.860   4.685   0.428  0.6906 -2.8877 -0.6344
 2408TIP3   OH2 7187   4.095   0.776   4.365 -0.4188  0.2486 -0.3903
 2408TIP3    H1 7188   4.120   0.691   4.404  0.1811 -0.4487 -2.1839
 2408TIP3    H2 7189   4.168   0.797   4.307 -0.7883  1.7941 -0.3201
 2409TIP3   OH2 7190   7.010   2.145   1.776  0.3779  0.0371 -0.0031
 2409TIP3    H1 7191   6.935   2.204   1.781  1.2994  1.5186 -2.1929
 2409TIP3    H2 7192   6.972   2.057   1.772 -1.0566  0.4722  2.3150
 2410TIP3   OH2 7193   4.478   4.661   0.255 -0.4901 -0.4197 -0.4044
 2410TIP3    H1 7194   4.514   4.750   0.262  0.8446 -0.9731  0.2549
 2410TIP3    H2 7195   4.384   4.674   0.246 -0.4935  1.0381  1.0817
 2411TIP3   OH2 7196   1.895   1.378   3.512 -0.1065  0.1110 -0.1338
 2411TIP3    H1 7197   1.915   1.291   3.548 -5.0909 -1.3264 -0.1556
 2411TIP3    H2 7198   1.926   1.374   3.421 -0.6483 -1.9151 -0.2783
 2412TIP3   OH2 7199   1.195   0.632   0.321 -0.1691  0.6719 -1.1754
 2412TIP3    H1 7200   1.187   0.579   0.242 -1.1385 -0.7902 -0.1522
 2412TIP3    H2 7201   1.119   0.689   0.320 -1.4763 -0.9854 -0.1718
 2413TIP3   OH2 7202   3.898   5.938   1.339  0.3986 -0.0252  0.5905
 2413TIP3    H1 7203   3.946   6.016   1.313 -1.0230  0.1024 -1.9066
 2413TIP3    H2 7204   3.811   5.970   1.365 -0.4472 -0.7517 -1.1613
 2414TIP3   OH2 7205   6.172   1.970   3.161  0.1307 -0.6176 -0.4840
 2414TIP3    H1 7206   6.141   1.907   3.096  1.4242 -1.5306 -0.2654
 2414TIP3    H2 7207   6.258   1.937   3.187  0.5674  0.8979  0.1224
 2415TIP3   OH2 7208   1.824   3.225   1.964  0.4027  0.3316  0.1000
 2415TIP3    H1 7209   1.872   3.146   1.939 -0.4783  0.0975 -0.9109
 2415TIP3    H2 7210   1.857   3.246   2.052  1.6323 -0.3687 -0.1683
 2416TIP3   OH2 7211   4.795   2.345   3.126  0.3598  0.0137  0.3276
 2416TIP3    H1 7212   4.722   2.319   3.181  0.4831 -0.9424  0.0728
 2416TIP3    H2 7213   4.873   2.321   3.176  0.6061  3.0231  1.5635
 2417TIP3   OH2 7214   1.908   1.041   5.498  0.3033  0.2815  0.2956
 2417TIP3    H1 7215   1.884   0.952   5.524 -0.8559  0.6985  0.7336
 2417TIP3    H2 7216   2.003   1.040   5.492  0.2164 -1.5627 -1.8069
 2418TIP3   OH2 7217   1.180   0.897   1.331 -0.1971  0.5421 -0.2581
 2418TIP3    H1 7218   1.191   0.803   1.314  0.5018  0.1872  1.8413
 2418TIP3    H2 7219   1.158   0.902   1.424 -0.8719  2.4462 -0.4767
 2419TIP3   OH2 7220   3.675   5.727   4.578 -0.1705  0.4767  1.2878
 2419TIP3    H1 7221   3.626   5.787   4.521  0.4176  0.0585  0.3260
 2419TIP3    H2 7222   3.630   5.643   4.568  1.5724 -0.2907 -0.7823
 2420TIP3   OH2 7223   0.008   1.286   2.318 -0.2988  0.7247 -0.2421
 2420TIP3    H1 7224   0.013   1.364   2.263  3.1047  1.8961  1.4065
 2420TIP3    H2 7225   0.028   1.213   2.259 -0.8664  1.3982 -1.2964
 2421TIP3   OH2 7226   6.784   0.818   1.037 -0.5041 -0.2572 -0.5208
 2421TIP3    H1 7227   6.711   0.776   0.992 -0.3543  0.9719 -1.9715
 2421TIP3    H2 7228   6.841   0.851   0.967  0.4882  0.4452  0.5677
 2422TIP3   OH2 7229   0.025   0.040   1.252 -0.1380 -0.1614 -0.2161
 2422TIP3    H1 7230  -0.060   0.053   1.211 -0.6727 -1.3848  0.4709
 2422TIP3    H2 7231   0.066   0.127   1.250 -1.4337  0.4604 -0.4562
 2423TIP3   OH2 7232   1.454   3.105   0.923  0.2638  0.1472 -0.1367
 2423TIP3    H1 7233   1.453   3.192   0.963  2.9679 -0.2664  1.0594
 2423TIP3    H2 7234   1.387   3.056   0.970  0.0201  1.0681  0.5034
 2424TIP3   OH2 7235   3.495   5.055   5.745  0.4603  0.4727 -0.0490
 2424TIP3    H1 7236   3.550   5.129   5.769  1.4748  0.2454 -1.5488
 2424TIP3    H2 7237   3.426   5.092   5.689  0.4137  0.4195 -0.0275
 2425TIP3   OH2 7238   2.400   4.197   2.681 -0.6629  0.0951 -0.3061
 2425TIP3    H1 7239   2.339   4.134   2.719 -0.8012  1.0517  1.1331
 2425TIP3    H2 7240   2.475   4.144   2.654 -1.7388 -0.9889 -1.3390
 2426TIP3   OH2 7241   4.682   1.976   3.621  0.4258  0.0344 -0.4026
 2426TIP3    H1 7242   4.594   1.965   3.658  0.6642 -1.0369 -0.1151
 2426TIP3    H2 7243   4.734   1.906   3.661  0.7670 -1.0400 -2.5421
 2427TIP3   OH2 7244   2.539   6.134   0.992  0.2272  0.2957 -0.9458
 2427TIP3    H1 7245   2.538   6.048   1.035 -0.2464 -0.4533 -2.3889
 2427TIP3    H2 7246   2.632   6.151   0.975  0.3893  0.4381  0.0103
 2428TIP3   OH2 7247   3.922   2.736   2.537 -0.0086 -0.0183 -0.3570
 2428TIP3    H1 7248   3.933   2.672   2.467 -0.2657  3.4565 -3.9351
 2428TIP3    H2 7249   3.830   2.763   2.530  0.1030  0.7862  1.0156
 2429TIP3   OH2 7250   3.450   1.333   4.276 -0.3213  0.2193 -0.0618
 2429TIP3    H1 7251   3.429   1.280   4.198 -0.3991  1.1435 -0.6792
 2429TIP3    H2 7252   3.384   1.308   4.340 -0.7186 -0.0004 -0.5491
 2430TIP3   OH2 7253   6.515   3.879   1.226 -0.7949 -0.5307  0.1972
 2430TIP3    H1 7254   6.520   3.825   1.147  0.0697  0.7013 -0.6299
 2430TIP3    H2 7255   6.507   3.969   1.193  0.4576  0.0976  1.4974
 2431TIP3   OH2 7256   6.579   1.123   0.380 -0.3130  0.2739 -0.2558
 2431TIP3    H1 7257   6.547   1.059   0.317 -2.8861  1.0308  0.1754
 2431TIP3    H2 7258   6.538   1.205   0.355  0.5578  1.1350  0.9719
 2432TIP3   OH2 7259  -0.018   2.102   2.175 -0.4473 -0.0075 -0.5820
 2432TIP3    H1 7260   0.064   2.137   2.141 -0.6933 -0.8935 -2.1527
 2432TIP3    H2 7261  -0.001   2.009   2.190  0.1478  0.5674  3.4004
 2433TIP3   OH2 7262   6.599   0.253   1.474 -0.0332 -0.5054 -0.1060
 2433TIP3    H1 7263   6.605   0.237   1.568  1.0172  0.1148 -0.0503
 2433TIP3    H2 7264   6.534   0.323   1.467 -0.5627 -0.9671  0.0990
 2434TIP3   OH2 7265   5.407   1.833   1.844  0.5190  1.0411  0.4102
 2434TIP3    H1 7266   5.473   1.786   1.894 -1.6067 -1.5380  1.0377
 2434TIP3    H2 7267   5.347   1.868   1.910 -0.7191  0.1502 -0.2103
 2435TIP3   OH2 7268   3.784   6.514   1.462 -0.3881 -0.1522 -0.6951
 2435TIP3    H1 7269   3.814   6.425   1.483  3.4531  0.7445 -1.6011
 2435TIP3    H2 7270   3.739   6.504   1.378 -0.8305 -1.3358 -0.3497
 2436TIP3   OH2 7271   3.031   3.549   5.685 -0.5212  0.7675 -0.6012
 2436TIP3    H1 7272   3.047   3.587   5.599 -0.3843  0.2348 -0.8209
 2436TIP3    H2 7273   3.003   3.459   5.666 -2.4446  1.2206 -0.1823
 2437TIP3   OH2 7274   1.287   1.342   5.796 -0.3785  0.0109 -0.3421
 2437TIP3    H1 7275   1.340   1.341   5.716 -0.3809  0.5542 -0.3577
 2437TIP3    H2 7276   1.348   1.370   5.865 -0.0880 -1.5535  0.0748
 2438TIP3   OH2 7277   0.864   2.373   0.095  0.0537 -0.2524  0.3162
 2438TIP3    H1 7278   0.790   2.433   0.089 -0.7029 -1.2223 -0.4410
 2438TIP3    H2 7279   0.825   2.286   0.082  1.3234 -0.7837 -0.0734
 2439TIP3   OH2 7280   2.875   0.709   3.855 -0.2772 -0.0201 -0.3092
 2439TIP3    H1 7281   2.809   0.776   3.844  1.2641  1.3896 -1.4697
 2439TIP3    H2 7282   2.915   0.700   3.769 -0.4687 -2.5078 -0.2070
 2440TIP3   OH2 7283   0.237   6.715   4.717 -0.0954 -0.3477 -0.6681
 2440TIP3    H1 7284   0.270   6.794   4.759 -0.2810 -0.9906  0.7496
 2440TIP3    H2 7285   0.314   6.673   4.679 -0.2576  1.5995 -3.4892
 2441TIP3   OH2 7286   3.743   2.910   0.013  0.3070 -0.7910  0.3891
 2441TIP3    H1 7287   3.670   2.892   0.072  0.0789  0.7388  0.6085
 2441TIP3    H2 7288   3.790   2.982   0.055 -0.1544  0.7064 -1.5173
 2442TIP3   OH2 7289   5.221   0.666   5.603  0.4471  0.1490  0.8220
 2442TIP3    H1 7290   5.313   0.657   5.628  0.4950 -0.4914  0.4546
 2442TIP3    H2 7291   5.222   0.711   5.518  0.3814  0.7717  1.1500
 2443TIP3   OH2 7292   3.029   2.567   4.729 -0.9196 -0.3139  0.1716
 2443TIP3    H1 7293   2.961   2.610   4.677 -0.1046  0.5845 -0.1688
 2443TIP3    H2 7294   3.026   2.475   4.701 -0.5587  0.1386 -1.4121
 2444TIP3   OH2 7295   1.906   3.033   3.801 -0.1309 -0.3854  0.0537
 2444TIP3    H1 7296   1.953   2.958   3.763 -0.4363 -0.4767 -0.1476
 2444TIP3    H2 7297   1.817   3.025   3.767 -0.1099  0.1920 -0.1406
 2445TIP3   OH2 7298   5.276   5.148   1.508 -0.1615 -0.4070  0.3404
 2445TIP3    H1 7299   5.198   5.121   1.460  0.3645 -0.1333 -0.6952
 2445TIP3    H2 7300   5.325   5.203   1.447  1.5113 -1.6682  0.4552
 2446TIP3   OH2 7301   3.530   4.369   1.209 -0.2381 -0.4434 -0.1576
 2446TIP3    H1 7302   3.509   4.282   1.176 -0.2225 -1.0456  1.3199
 2446TIP3    H2 7303   3.553   4.354   1.301  1.2315  0.9199 -0.2567
 2447TIP3   OH2 7304   4.523   5.974   2.794 -0.9723  0.2595 -0.1164
 2447TIP3    H1 7305   4.449   5.914   2.794 -0.6467 -0.1542  0.3183
 2447TIP3    H2 7306   4.600   5.917   2.795 -0.6060  0.6625 -1.8592
 2448TIP3   OH2 7307   4.962   6.186   0.194 -0.7842  0.9885 -0.1779
 2448TIP3    H1 7308   4.868   6.167   0.196 -0.7753  0.9518 -0.1108
 2448TIP3    H2 7309   4.997   6.142   0.271 -0.7933  1.4537  0.0921
 2449TIP3   OH2 7310   3.830   6.608   2.439  0.2230 -0.1905 -0.0344
 2449TIP3    H1 7311   3.869   6.608   2.351 -1.7497  0.9180 -0.9728
 2449TIP3    H2 7312   3.754   6.666   2.431  0.1286  0.1218  2.4850
 2450TIP3   OH2 7313   0.594   2.545   0.684  0.9992 -0.4327  0.0919
 2450TIP3    H1 7314   0.650   2.502   0.619 -1.4363 -0.0988 -2.3923
 2450TIP3    H2 7315   0.593   2.484   0.758  2.9661 -1.3889 -0.5883
 2451TIP3   OH2 7316   6.193   3.734   3.474  0.5052 -0.5582 -0.2384
 2451TIP3    H1 7317   6.154   3.671   3.536 -0.6222  0.0102 -0.3436
 2451TIP3    H2 7318   6.136   3.730   3.397  1.5753 -0.8458 -1.0376
 2452TIP3   OH2 7319   2.850   6.242   5.354 -0.2629 -0.7037 -0.0928
 2452TIP3    H1 7320   2.855   6.236   5.449  0.6852 -1.2429 -0.1673
 2452TIP3    H2 7321   2.775   6.299   5.338  0.6115  0.8222  1.0164
 2453TIP3   OH2 7322   6.320   5.829   5.064  0.2477 -0.2352 -0.2330
 2453TIP3    H1 7323   6.327   5.756   5.002 -0.2873 -2.2047  1.8922
 2453TIP3    H2 7324   6.409   5.841   5.096  0.4460  0.4926 -1.0238
 2454TIP3   OH2 7325   4.864   6.780   1.698  0.3026 -0.1238  0.3902
 2454TIP3    H1 7326   4.830   6.736   1.777  0.2755 -0.2302  0.3191
 2454TIP3    H2 7327   4.959   6.772   1.706  0.3304  0.4476  0.7476
 2455TIP3   OH2 7328   4.870   4.758   0.699  0.8900 -0.2455 -0.4134
 2455TIP3    H1 7329   4.906   4.670   0.694  0.6853 -0.3245 -0.5339
 2455TIP3    H2 7330   4.830   4.763   0.786 -1.2556 -1.1315 -1.2765
 2456TIP3   OH2 7331   1.733   5.188   3.700  0.5636  0.0613 -0.4361
 2456TIP3    H1 7332   1.647   5.195   3.659 -0.7404  0.0806  2.0964
 2456TIP3    H2 7333   1.729   5.248   3.775  1.2460 -2.7874  2.0990
 2457TIP3   OH2 7334   0.421   4.275   4.894  0.0650 -0.1506  0.2317
 2457TIP3    H1 7335   0.476   4.199   4.873  1.5119  0.6306  0.9931
 2457TIP3    H2 7336   0.406   4.267   4.989 -2.7615 -1.3394 -0.2245
 2458TIP3   OH2 7337   0.682   0.484   2.697  0.2679 -0.1054  0.1682
 2458TIP3    H1 7338   0.644   0.510   2.613  1.0473 -0.0589 -0.1853
 2458TIP3    H2 7339   0.691   0.389   2.690  0.0386 -0.1386  0.3274
 2459TIP3   OH2 7340   6.882   5.407   5.176  0.2086  0.7953  0.4464
 2459TIP3    H1 7341   6.974   5.387   5.160 -0.4689 -1.6590 -1.0467
 2459TIP3    H2 7342   6.850   5.439   5.091 -0.4532  1.0092  0.7730
 2460TIP3   OH2 7343   3.089   2.530   4.160 -0.3737  0.0963  0.8270
 2460TIP3    H1 7344   3.138   2.532   4.078 -0.3479  0.6107  0.8508
 2460TIP3    H2 7345   3.079   2.622   4.184  1.2917 -0.0738  2.3947
 2461TIP3   OH2 7346   3.403   5.453   2.318 -0.1336 -0.4036  0.2282
 2461TIP3    H1 7347   3.325   5.490   2.359 -0.9574 -0.1972 -1.4440
 2461TIP3    H2 7348   3.434   5.523   2.259 -0.2308 -1.4079 -1.0650
 2462TIP3   OH2 7349   3.616   0.745   3.229 -0.3505  0.3739  0.1610
 2462TIP3    H1 7350   3.701   0.784   3.249 -0.7446  1.1117  0.3928
 2462TIP3    H2 7351   3.587   0.707   3.312 -0.6979  0.9842  0.3207
 2463TIP3   OH2 7352   2.305   1.989   1.431 -0.1504 -0.1185  0.2359
 2463TIP3    H1 7353   2.373   1.995   1.364 -2.0309  1.1668 -1.6994
 2463TIP3    H2 7354   2.267   1.902   1.419  0.1089 -0.2303  0.2269
 2464TIP3   OH2 7355   1.907   1.061   4.465 -0.1542  0.2650 -0.5194
 2464TIP3    H1 7356   1.836   1.117   4.434  0.5172  0.9483 -0.8588
 2464TIP3    H2 7357   1.916   0.994   4.397 -1.0697 -0.3812 -0.0328
 2465TIP3   OH2 7358   5.889   6.325   0.104  0.3239  0.1374  0.2258
 2465TIP3    H1 7359   5.833   6.268   0.156 -1.3073 -0.3117 -1.8843
 2465TIP3    H2 7360   5.859   6.414   0.124 -1.3233 -0.1059 -0.9916
 2466TIP3   OH2 7361   2.074   0.339   4.526  0.2574  0.0549 -0.5817
 2466TIP3    H1 7362   2.111   0.306   4.444  0.8736  0.9251 -0.6701
 2466TIP3    H2 7363   2.149   0.373   4.574 -0.3809  1.7976 -0.7382
 2467TIP3   OH2 7364   2.769   4.021   5.152  0.0154  0.1848  0.4901
 2467TIP3    H1 7365   2.734   4.063   5.074  0.7815  1.0316  0.5942
 2467TIP3    H2 7366   2.852   4.065   5.169 -0.2464  0.1837  1.9262
 2468TIP3   OH2 7367   4.657   2.027   1.284 -0.2572  0.1278 -0.8721
 2468TIP3    H1 7368   4.751   2.026   1.266 -0.4134 -1.1740 -1.7938
 2468TIP3    H2 7369   4.632   2.119   1.279  0.9706  0.4925 -0.5919
 2469TIP3   OH2 7370   3.938   3.278   0.387  0.3720  0.5357  0.0380
 2469TIP3    H1 7371   3.933   3.222   0.310  1.5184 -0.9946  1.0425
 2469TIP3    H2 7372   3.962   3.364   0.352  0.7882 -0.1074 -1.3199
 2470TIP3   OH2 7373   5.294   1.262   3.754 -0.2101  0.6613 -0.3837
 2470TIP3    H1 7374   5.209   1.280   3.795  0.2528 -0.4185  1.1704
 2470TIP3    H2 7375   5.309   1.335   3.695 -2.2543  0.8339 -0.7503
 2471TIP3   OH2 7376   2.555   0.867   2.034 -0.2630  0.1565  0.0607
 2471TIP3    H1 7377   2.592   0.817   1.961  2.2165 -0.6471  1.7403
 2471TIP3    H2 7378   2.565   0.959   2.008  1.5110 -0.0855 -0.2467
 2472TIP3   OH2 7379   4.363   3.387   5.808 -0.4596  0.1493  0.1184
 2472TIP3    H1 7380   4.306   3.339   5.869  2.0297 -2.2525  0.7354
 2472TIP3    H2 7381   4.332   3.360   5.721 -1.1353 -0.0393  0.4080
 2473TIP3   OH2 7382   4.001   5.427   4.347 -0.0488  0.1337 -0.2306
 2473TIP3    H1 7383   4.040   5.371   4.280 -0.2918  1.0612 -1.1773
 2473TIP3    H2 7384   3.923   5.380   4.376  0.5310 -0.6734  0.0262
 2474TIP3   OH2 7385   2.848   3.090   3.619 -0.3125  0.2621  0.5600
 2474TIP3    H1 7386   2.799   3.163   3.581 -0.4678 -0.7208 -1.2350
 2474TIP3    H2 7387   2.935   3.127   3.637 -0.7127  1.1605  0.6856
 2475TIP3   OH2 7388   1.941   2.787   4.378 -0.0498  0.3496  0.1897
 2475TIP3    H1 7389   1.856   2.763   4.340  0.6948 -0.3905 -1.1220
 2475TIP3    H2 7390   1.963   2.871   4.337  1.2448 -0.9543 -2.0012
 2476TIP3   OH2 7391   4.849   4.816   2.288 -0.5781  0.0961 -0.0541
 2476TIP3    H1 7392   4.818   4.763   2.215  0.4893  0.6910 -0.9844
 2476TIP3    H2 7393   4.905   4.882   2.247 -0.9168  1.2032  1.1888
 2477TIP3   OH2 7394   1.941   0.658   4.786  0.2327 -0.1663  0.4152
 2477TIP3    H1 7395   1.899   0.735   4.747 -2.0642 -0.9507  1.1638
 2477TIP3    H2 7396   1.910   0.585   4.732  2.0571 -0.6460 -0.0345
 2478TIP3   OH2 7397   2.557   5.573   3.461  0.4159 -0.4161 -0.5634
 2478TIP3    H1 7398   2.550   5.571   3.365 -0.9636  0.3839 -0.4992
 2478TIP3    H2 7399   2.503   5.647   3.488  1.7339  0.1112  0.7782
 2479TIP3   OH2 7400   6.856   3.003   1.961  0.6898 -0.0066 -0.3019
 2479TIP3    H1 7401   6.880   2.914   1.935  0.5416 -0.0546 -0.2789
 2479TIP3    H2 7402   6.894   3.013   2.048  0.5441 -0.1168 -0.2247
 2480TIP3   OH2 7403   1.264   3.870   4.364  0.6338  0.0628  0.0456
 2480TIP3    H1 7404   1.342   3.874   4.418  2.0046 -2.0729 -1.6114
 2480TIP3    H2 7405   1.296   3.882   4.274 -0.9125 -1.0217 -0.6931
 2481TIP3   OH2 7406   4.491   6.630   3.150 -0.3844  0.0755  0.0118
 2481TIP3    H1 7407   4.528   6.647   3.237 -0.7799  0.8156  0.0424
 2481TIP3    H2 7408   4.399   6.654   3.158 -0.2252  1.0095 -0.8622
 2482TIP3   OH2 7409   1.868   3.852   2.148 -0.2942 -0.3784 -0.2242
 2482TIP3    H1 7410   1.875   3.762   2.115 -1.2476 -1.7210  2.8646
 2482TIP3    H2 7411   1.912   3.850   2.233  0.3498  2.3360 -0.4191
 2483TIP3   OH2 7412   3.176   2.554   5.132  0.1220  0.1560  0.0587
 2483TIP3    H1 7413   3.253   2.564   5.075  1.6190 -0.8168  1.7729
 2483TIP3    H2 7414   3.179   2.630   5.190  0.5634 -0.4989  0.9309
 2484TIP3   OH2 7415   1.066   5.365   5.369  0.0946 -0.6879  0.0790
 2484TIP3    H1 7416   1.015   5.349   5.290  0.5505 -0.8260 -0.1863
 2484TIP3    H2 7417   1.120   5.441   5.348  1.2716 -1.5909 -0.2547
 2485TIP3   OH2 7418   5.171   3.831   3.952  0.5747  0.0696  0.0157
 2485TIP3    H1 7419   5.235   3.814   3.883  0.5683 -4.2817  0.8361
 2485TIP3    H2 7420   5.216   3.808   4.033 -1.0562 -0.0414  0.9295
 2486TIP3   OH2 7421   6.258   1.837   4.851  0.4698  0.3557  0.1889
 2486TIP3    H1 7422   6.314   1.816   4.925 -0.5009 -3.8923 -0.0301
 2486TIP3    H2 7423   6.267   1.762   4.792 -2.8771  1.0115 -1.3898
 2487TIP3   OH2 7424   6.914   2.775   3.626  0.1250  0.0326 -0.2957
 2487TIP3    H1 7425   6.878   2.753   3.712  0.3298  0.2607 -0.1523
 2487TIP3    H2 7426   6.839   2.768   3.567 -0.0937  0.2289 -0.0422
 2488TIP3   OH2 7427   1.554   0.456   1.705 -0.1269  0.0208 -0.3099
 2488TIP3    H1 7428   1.578   0.481   1.616  1.3687  0.5761  0.2104
 2488TIP3    H2 7429   1.594   0.523   1.760 -1.1700 -0.2208  0.7749
 2489TIP3   OH2 7430   5.397   6.403   1.100 -0.1782  0.4765  0.2948
 2489TIP3    H1 7431   5.347   6.328   1.132 -1.1485 -0.3991 -2.9643
 2489TIP3    H2 7432   5.331   6.469   1.079  0.3718  0.8672 -0.2532
 2490TIP3   OH2 7433   2.817   4.478   2.972  0.3303 -0.3022 -0.2819
 2490TIP3    H1 7434   2.882   4.509   3.035 -0.5839  0.1254  0.4902
 2490TIP3    H2 7435   2.804   4.386   2.993  0.8757 -0.4569 -0.6144
 2491TIP3   OH2 7436   7.002   0.540   3.011  0.4611 -0.2004  0.4853
 2491TIP3    H1 7437   6.987   0.495   2.928 -0.1616  0.1416  0.4106
 2491TIP3    H2 7438   6.969   0.629   2.997 -0.5540 -0.4213  1.4062
 2492TIP3   OH2 7439   1.820   5.333   0.005  0.1090 -0.3928  0.0334
 2492TIP3    H1 7440   1.750   5.396   0.024  0.6955  0.5407 -0.7848
 2492TIP3    H2 7441   1.897   5.370   0.049 -0.0329 -1.7887  1.5539
 2493TIP3   OH2 7442   0.248   3.322   1.153  0.4269 -0.4356 -0.0997
 2493TIP3    H1 7443   0.165   3.343   1.195  0.9196 -0.0735  0.7181
 2493TIP3    H2 7444   0.252   3.377   1.075  1.2149  1.7974  1.4252
 2494TIP3   OH2 7445   3.631   6.161   0.559  0.0486 -0.6467 -0.2749
 2494TIP3    H1 7446   3.558   6.120   0.607 -0.0389  0.8607  0.9576
 2494TIP3    H2 7447   3.708   6.110   0.584 -0.4710 -2.0132 -1.2859
 2495TIP3   OH2 7448   6.851   4.440   3.692  0.3265 -0.4761  0.2045
 2495TIP3    H1 7449   6.869   4.394   3.774  1.5209  0.1464  0.3111
 2495TIP3    H2 7450   6.781   4.389   3.651  0.5813 -1.5163  1.0164
 2496TIP3   OH2 7451   6.530   2.991   0.670 -0.2493 -0.1607  0.2241
 2496TIP3    H1 7452   6.456   3.040   0.634  0.0344  0.0732 -0.0475
 2496TIP3    H2 7453   6.603   3.053   0.669  0.1732 -0.6507 -0.3383
 2497TIP3   OH2 7454   5.057   1.036   0.805 -0.0274  0.1153  0.6686
 2497TIP3    H1 7455   5.076   0.946   0.831 -1.8053 -0.5639 -0.2971
 2497TIP3    H2 7456   5.013   1.074   0.881 -1.3860 -0.5737  0.2532
 2498TIP3   OH2 7457   4.658   2.397   5.596  0.2428  0.3085 -0.1842
 2498TIP3    H1 7458   4.578   2.361   5.634  0.4158 -0.3620 -0.4357
 2498TIP3    H2 7459   4.636   2.417   5.505  0.2427  0.5205 -0.1381
 2499TIP3   OH2 7460   7.041   3.353   5.100  0.0884 -0.0660 -0.2427
 2499TIP3    H1 7461   6.994   3.271   5.085  0.0499  0.0498 -0.7563
 2499TIP3    H2 7462   7.069   3.382   5.013 -0.6013  0.8864 -0.1682
 2500TIP3   OH2 7463   5.072   5.588   0.748  0.0799 -0.3619 -0.7834
 2500TIP3    H1 7464   5.137   5.575   0.679  1.3589 -0.7654  0.4405
 2500TIP3    H2 7465   5.094   5.522   0.814 -1.1958 -0.0842 -0.0452
 2501TIP3   OH2 7466   4.113   4.517   0.519  0.4869  0.6237 -0.3791
 2501TIP3    H1 7467   4.055   4.495   0.592  0.2307 -0.9525 -1.0206
 2501TIP3    H2 7468   4.185   4.566   0.560  1.6699 -2.3087  1.4245
 2502TIP3   OH2 7469   2.763   2.177   4.485  0.0528  0.1516  0.4418
 2502TIP3    H1 7470   2.811   2.226   4.418 -0.2599 -0.1732 -0.0298
 2502TIP3    H2 7471   2.742   2.241   4.552 -0.6287  0.7335 -0.3126
 2503TIP3   OH2 7472   1.809   2.707   5.841 -0.3534 -0.4341  0.0416
 2503TIP3    H1 7473   1.755   2.774   5.799 -0.4314 -1.0316 -0.8315
 2503TIP3    H2 7474   1.872   2.681   5.774 -0.8685 -1.8458  0.0752
 2504TIP3   OH2 7475   5.488   0.685   5.669  0.2268  0.1761  0.0211
 2504TIP3    H1 7476   5.510   0.777   5.686  0.0885 -0.0761  1.7027
 2504TIP3    H2 7477   5.573   0.644   5.650  0.0996  1.0090 -2.9970
 2505TIP3   OH2 7478   6.365   5.361   0.115 -0.3209 -1.0724 -0.3550
 2505TIP3    H1 7479   6.335   5.450   0.129  0.1170 -1.0127  0.2457
 2505TIP3    H2 7480   6.384   5.327   0.202  0.4575 -1.4174 -0.6439
 2506TIP3   OH2 7481   5.584   2.447   1.144 -0.3423  0.4694 -0.3049
 2506TIP3    H1 7482   5.528   2.458   1.067  0.1928  0.0216 -0.7708
 2506TIP3    H2 7483   5.668   2.486   1.119 -0.4889  1.2907  0.4459
 2507TIP3   OH2 7484   7.156   6.413   4.965 -0.2299  0.0436  0.1055
 2507TIP3    H1 7485   7.138   6.331   4.919 -1.6182  0.6893 -0.5745
 2507TIP3    H2 7486   7.245   6.437   4.938  0.4817 -1.5574  0.8650
 2508TIP3   OH2 7487   0.739   4.403   4.899  0.1679  0.1976  0.5116
 2508TIP3    H1 7488   0.665   4.415   4.839  1.2140  1.1879 -0.6212
 2508TIP3    H2 7489   0.812   4.448   4.857  1.3480 -0.4695  1.7730
 2509TIP3   OH2 7490   5.068   5.176   4.655  0.9063 -0.1515 -0.7778
 2509TIP3    H1 7491   5.067   5.215   4.742  0.0191  0.0338 -0.8622
 2509TIP3    H2 7492   5.125   5.234   4.603  0.6358  0.3041 -0.5713
 2510TIP3   OH2 7493   0.725   6.568   1.716  0.4235 -0.2908 -0.3469
 2510TIP3    H1 7494   0.680   6.616   1.785  1.6332 -0.2020  0.4094
 2510TIP3    H2 7495   0.678   6.485   1.710 -0.9785  0.5258 -0.8776
 2511TIP3   OH2 7496   2.666   3.669   0.960 -0.1784 -0.2321  0.3191
 2511TIP3    H1 7497   2.581   3.660   0.916  0.0092  0.4863 -0.2125
 2511TIP3    H2 7498   2.727   3.690   0.890  0.3246 -0.1185  0.7832
 2512TIP3   OH2 7499   4.674   0.401   3.945  0.0562 -0.0332 -0.2468
 2512TIP3    H1 7500   4.673   0.427   3.853  0.2538 -0.5823 -0.4093
 2512TIP3    H2 7501   4.584   0.378   3.965  0.3403 -1.8507 -0.8822
 2513TIP3   OH2 7502   2.384   1.981   2.640  0.2129 -0.3687  0.1895
 2513TIP3    H1 7503   2.357   2.064   2.602 -3.5216 -2.4463 -2.4068
 2513TIP3    H2 7504   2.425   2.004   2.723 -1.3358  3.9640 -0.0149
 2514TIP3   OH2 7505   0.189   3.999   0.550  0.0284 -0.1868 -0.7191
 2514TIP3    H1 7506   0.242   3.924   0.577  0.6543  0.2295 -0.7738
 2514TIP3    H2 7507   0.253   4.066   0.526 -0.5240  0.1243 -1.3490
 2515TIP3   OH2 7508   2.394   2.049   2.960  0.0275  0.5481  0.4402
 2515TIP3    H1 7509   2.442   1.966   2.961 -0.3960  0.2980  0.5902
 2515TIP3    H2 7510   2.302   2.023   2.951  0.0184  1.0600 -1.3663
 2516TIP3   OH2 7511   6.525   1.714   5.734  0.3366 -0.2688  0.7542
 2516TIP3    H1 7512   6.431   1.703   5.751 -0.0271  1.4240  0.0391
 2516TIP3    H2 7513   6.553   1.779   5.799  0.9802 -0.5923  0.8105
 2517TIP3   OH2 7514   0.929   0.480   5.370 -0.3175  0.8482  0.2350
 2517TIP3    H1 7515   0.908   0.403   5.423 -1.7860  2.1584  1.6338
 2517TIP3    H2 7516   1.025   0.480   5.365 -0.2065 -0.0755  1.7539
 2518TIP3   OH2 7517   6.670   6.517   3.218 -0.2823 -0.3322 -0.2331
 2518TIP3    H1 7518   6.612   6.525   3.294 -0.7284  1.2975 -0.6970
 2518TIP3    H2 7519   6.616   6.545   3.144  0.1283 -1.9470 -1.1897
 2519TIP3   OH2 7520   0.345   6.489   4.580 -0.3503 -0.2517  0.3649
 2519TIP3    H1 7521   0.382   6.444   4.656 -0.3844  0.1970  0.6509
 2519TIP3    H2 7522   0.399   6.568   4.570 -1.1168  0.3244  0.6860
 2520TIP3   OH2 7523   0.746   6.233   0.702 -0.1955 -0.2344  0.0415
 2520TIP3    H1 7524   0.777   6.285   0.776  1.0398 -1.1022  0.1814
 2520TIP3    H2 7525   0.797   6.152   0.707  0.4758 -0.0310 -2.1648
 2521TIP3   OH2 7526   2.096   4.649   2.257 -0.3953 -0.3523 -0.1220
 2521TIP3    H1 7527   2.151   4.606   2.192 -0.0879  0.8614 -0.6917
 2521TIP3    H2 7528   2.155   4.709   2.303 -0.6544 -1.0267  1.1422
 2522TIP3   OH2 7529   3.780   3.559   0.353 -0.1919 -0.2178 -0.0870
 2522TIP3    H1 7530   3.792   3.637   0.406  0.0513 -0.6505  0.5087
 2522TIP3    H2 7531   3.857   3.556   0.297  0.3651 -0.6290  0.6785
 2523TIP3   OH2 7532   4.177   0.014   0.341 -0.0485  0.2688  0.5603
 2523TIP3    H1 7533   4.141   0.010   0.253 -1.8354  2.5010  1.0934
 2523TIP3    H2 7534   4.272   0.007   0.328 -0.3636 -1.4491 -1.3065
 2524TIP3   OH2 7535   6.177   6.595   0.606 -0.3394  0.1021  0.0298
 2524TIP3    H1 7536   6.223   6.615   0.688  2.3867  0.5425 -1.4637
 2524TIP3    H2 7537   6.115   6.667   0.596  0.2770  0.8127  1.0491
 2525TIP3   OH2 7538   4.013   4.050   4.885  0.1793  0.2532  0.3517
 2525TIP3    H1 7539   3.968   4.131   4.906  0.6761  0.8090 -0.6427
 2525TIP3    H2 7540   4.079   4.075   4.820 -1.2281 -1.2974 -1.8355
 2526TIP3   OH2 7541   4.534   4.837   3.988 -0.0370  0.7332  0.1451
 2526TIP3    H1 7542   4.486   4.840   4.070  0.2660 -0.3516  0.3770
 2526TIP3    H2 7543   4.624   4.858   4.012 -0.1136  1.3111 -0.0582
 2527TIP3   OH2 7544   3.204   3.814   0.421 -0.0033  0.1230  0.2806
 2527TIP3    H1 7545   3.242   3.870   0.353 -0.8479  0.9022  0.4267
 2527TIP3    H2 7546   3.230   3.725   0.397 -0.7876  0.3056 -1.4254
 2528TIP3   OH2 7547   6.235   4.533   1.527 -0.1276  0.1651 -0.8228
 2528TIP3    H1 7548   6.190   4.589   1.591 -3.4121 -1.8378 -1.1561
 2528TIP3    H2 7549   6.189   4.550   1.445  1.6513  0.0263 -1.8952
 2529TIP3   OH2 7550   0.557   3.441   4.872  0.3078  0.0067 -0.1714
 2529TIP3    H1 7551   0.637   3.442   4.819  1.6159  1.2889  1.6970
 2529TIP3    H2 7552   0.575   3.378   4.942 -0.2801  0.3747  0.3181
 2530TIP3   OH2 7553   2.955   2.660   2.718  0.2208 -0.2467  0.2143
 2530TIP3    H1 7554   3.017   2.628   2.653  0.4580  0.4052  0.1080
 2530TIP3    H2 7555   2.968   2.755   2.719  0.2602 -0.2547  1.2589
 2531TIP3   OH2 7556   4.978   3.342   2.574  0.3419 -0.2308 -0.5415
 2531TIP3    H1 7557   4.902   3.298   2.535 -0.0495  1.1497 -1.4222
 2531TIP3    H2 7558   4.989   3.421   2.520  2.7483 -0.6721 -0.7850
 2532TIP3   OH2 7559   0.359   1.694   4.596  0.7560  0.0803 -0.4113
 2532TIP3    H1 7560   0.442   1.732   4.568  1.2789  0.0217  0.9700
 2532TIP3    H2 7561   0.382   1.612   4.638  0.3981  1.3488  2.5753
 2533TIP3   OH2 7562   1.773   4.485   3.836 -0.6611 -0.0213 -0.3397
 2533TIP3    H1 7563   1.797   4.567   3.792  0.1665  0.1961  0.4992
 2533TIP3    H2 7564   1.714   4.511   3.906 -1.2672 -0.2707 -0.7505
 2534TIP3   OH2 7565   3.747   0.466   2.463 -0.2003  0.0545 -0.2115
 2534TIP3    H1 7566   3.797   0.520   2.524  0.1429  0.2203 -0.6343
 2534TIP3    H2 7567   3.668   0.517   2.444 -0.3424 -0.0304  0.1503
 2535TIP3   OH2 7568   4.037   5.285   2.105 -0.1307 -0.0846 -0.1526
 2535TIP3    H1 7569   4.019   5.192   2.118  0.5227 -0.0983  0.6809
 2535TIP3    H2 7570   3.970   5.313   2.042 -0.4998 -1.0496 -0.2094
 2536TIP3   OH2 7571   3.094   5.841   1.823  0.1322 -0.3775  0.3363
 2536TIP3    H1 7572   3.155   5.848   1.749 -0.9032 -1.3462 -0.6694
 2536TIP3    H2 7573   3.008   5.858   1.784 -0.2856  0.7017  1.6609
 2537TIP3   OH2 7574   1.184   6.631   0.354  0.0455 -0.0194 -0.2259
 2537TIP3    H1 7575   1.252   6.696   0.338 -0.4808  0.4918 -0.4247
 2537TIP3    H2 7576   1.108   6.683   0.381 -0.5866 -0.4961 -1.0765
 2538TIP3   OH2 7577   0.530   5.648   3.481 -0.1356 -0.7786  0.0850
 2538TIP3    H1 7578   0.598   5.596   3.523  0.1787  0.8029  1.6430
 2538TIP3    H2 7579   0.572   5.731   3.458 -1.7595  0.8295  2.4048
 2539TIP3   OH2 7580   0.699   1.108   4.040 -0.0492  0.1805 -0.6984
 2539TIP3    H1 7581   0.612   1.073   4.020  0.0701 -0.8119  0.4018
 2539TIP3    H2 7582   0.695   1.131   4.133  1.2660 -1.2072 -0.2525
 2540TIP3   OH2 7583   3.845   5.415   3.287 -0.3133 -0.4987  0.3478
 2540TIP3    H1 7584   3.935   5.412   3.256 -0.6202 -2.1469 -0.4881
 2540TIP3    H2 7585   3.841   5.351   3.358 -0.9706 -0.9152 -0.0520
 2541TIP3   OH2 7586   0.411   4.438   2.094  0.3098 -0.5334  0.2183
 2541TIP3    H1 7587   0.425   4.531   2.077 -1.0199 -0.6372 -1.7221
 2541TIP3    H2 7588   0.317   4.429   2.108  0.4140 -1.6015  0.3972
 2542TIP3   OH2 7589   3.267   3.827   0.684 -0.0259  0.1027 -0.1657
 2542TIP3    H1 7590   3.283   3.735   0.700 -0.3546  0.0134 -0.3291
 2542TIP3    H2 7591   3.243   3.832   0.591 -0.8022  0.2316  0.0264
 2543TIP3   OH2 7592   6.360   1.791   2.386  0.3490  0.1622  0.1914
 2543TIP3    H1 7593   6.359   1.857   2.316 -1.0040  2.0454  1.8519
 2543TIP3    H2 7594   6.433   1.819   2.443 -0.5029  0.5232  1.1311
 2544TIP3   OH2 7595   2.754   0.064   2.487 -0.7489 -0.1995 -0.3268
 2544TIP3    H1 7596   2.717  -0.024   2.481  1.0492 -1.1672  1.5209
 2544TIP3    H2 7597   2.844   0.055   2.456 -0.4133  0.8787  0.2735
 2545TIP3   OH2 7598   1.383   1.345   1.584  0.0587 -0.3537  0.1843
 2545TIP3    H1 7599   1.438   1.328   1.508 -0.3792  1.4220 -0.5769
 2545TIP3    H2 7600   1.429   1.413   1.633 -1.0249  0.5664 -0.0304
 2546TIP3   OH2 7601   2.365   5.073   0.253 -0.4174 -0.7293  0.3148
 2546TIP3    H1 7602   2.444   5.122   0.272  0.2526 -1.6757  0.0253
 2546TIP3    H2 7603   2.369   5.056   0.159  0.3525 -2.9431  0.6694
 2547TIP3   OH2 7604   1.742   1.666   0.515  0.2978  0.3105 -0.0549
 2547TIP3    H1 7605   1.698   1.725   0.576  0.5286 -0.7230  1.1346
 2547TIP3    H2 7606   1.798   1.723   0.463 -1.3041  1.4714 -0.6156
 2548TIP3   OH2 7607   1.212   4.040   1.001  0.2733 -0.2619 -0.6662
 2548TIP3    H1 7608   1.163   4.081   0.930  0.8493  1.1620 -0.2889
 2548TIP3    H2 7609   1.236   4.113   1.059  1.8855 -1.0503 -0.2757
 2549TIP3   OH2 7610   0.805   0.480   4.866 -0.1898 -0.0862  0.0887
 2549TIP3    H1 7611   0.715   0.459   4.840 -0.9798  0.8262  1.8898
 2549TIP3    H2 7612   0.849   0.503   4.784 -2.0495  1.0487 -0.6511
 2550TIP3   OH2 7613   6.749   6.244   5.527 -0.2274 -0.1386 -0.2647
 2550TIP3    H1 7614   6.840   6.231   5.552 -0.0449 -0.1418 -0.9026
 2550TIP3    H2 7615   6.725   6.163   5.483 -0.2590  0.1889 -0.8741
 2551TIP3   OH2 7616   4.859   4.919   2.855 -0.2565 -0.6294 -0.1139
 2551TIP3    H1 7617   4.766   4.925   2.878 -0.0941  0.9316  0.1987
 2551TIP3    H2 7618   4.883   5.007   2.826  0.6602 -1.4654 -2.0897
 2552TIP3   OH2 7619   0.461   5.518   4.655  0.1388  0.0114  0.0918
 2552TIP3    H1 7620   0.546   5.561   4.655 -0.1940  0.6966 -0.2579
 2552TIP3    H2 7621   0.403   5.579   4.702  0.0767 -0.9697  1.3590
 2553TIP3   OH2 7622   5.777   4.701   1.225  0.5615 -0.1437 -0.0883
 2553TIP3    H1 7623   5.795   4.773   1.164  3.4558  1.1826  2.0607
 2553TIP3    H2 7624   5.795   4.622   1.176  1.0085  0.7763 -1.4593
 2554TIP3   OH2 7625   1.713   6.750   1.153  0.5735 -0.0247 -0.3173
 2554TIP3    H1 7626   1.682   6.814   1.089  0.0108 -0.4866 -0.5152
 2554TIP3    H2 7627   1.668   6.773   1.234 -1.7819 -1.7926 -1.0298
 2555TIP3   OH2 7628   4.964   0.660   3.924  0.3090  0.6076  0.2195
 2555TIP3    H1 7629   4.895   0.660   3.857  1.2712  0.0791 -0.7948
 2555TIP3    H2 7630   5.023   0.731   3.898  0.6854  0.4063  0.5132
 2556TIP3   OH2 7631   6.664   4.400   0.321  0.2832  0.1373 -0.1877
 2556TIP3    H1 7632   6.665   4.440   0.234  1.5173 -0.6709 -0.5661
 2556TIP3    H2 7633   6.700   4.467   0.379  1.1395  0.0434 -0.6038
 2557TIP3   OH2 7634   1.310   2.440   3.035  0.4943  0.1963 -0.1901
 2557TIP3    H1 7635   1.298   2.345   3.034  0.8991  0.1449 -0.4298
 2557TIP3    H2 7636   1.365   2.456   3.111 -0.0578  0.3047  0.1943
 2558TIP3   OH2 7637   1.078   2.677   1.865 -0.3046  0.0526  0.6545
 2558TIP3    H1 7638   1.010   2.743   1.879 -1.7115 -1.1357 -0.2854
 2558TIP3    H2 7639   1.039   2.614   1.804  2.6303  0.7915 -2.2859
 2559TIP3   OH2 7640   2.972   1.940   1.377  0.5214 -0.0188  0.0598
 2559TIP3    H1 7641   2.885   1.953   1.415  0.4018  0.3173 -0.3218
 2559TIP3    H2 7642   2.994   2.024   1.337  0.1932 -0.6336 -1.5078
 2560TIP3   OH2 7643   2.680   3.015   5.120 -0.6220 -0.1900 -0.1041
 2560TIP3    H1 7644   2.739   3.081   5.084  0.4118 -1.9127 -1.7825
 2560TIP3    H2 7645   2.610   3.065   5.162 -0.0011  1.9428 -1.4641
 2561TIP3   OH2 7646   1.456   6.228   2.601  0.1311  0.1594 -0.3527
 2561TIP3    H1 7647   1.430   6.255   2.689 -0.7506  0.5933 -0.7348
 2561TIP3    H2 7648   1.373   6.211   2.555  0.6022 -0.8442 -0.8592
 2562TIP3   OH2 7649   3.523   5.587   1.568  0.6716 -0.7835  0.1270
 2562TIP3    H1 7650   3.476   5.584   1.651  0.5216 -3.2599 -0.0020
 2562TIP3    H2 7651   3.589   5.656   1.581  1.0217 -1.4814  2.5038
 2563TIP3   OH2 7652   1.820   6.081   3.676 -0.1345 -0.6209  0.2425
 2563TIP3    H1 7653   1.817   6.131   3.594  1.1099 -0.3833  0.3247
 2563TIP3    H2 7654   1.896   6.023   3.666  0.0883 -0.5233  1.2601
 2564TIP3   OH2 7655   6.648   1.037   1.770 -0.1432 -1.0175  0.2305
 2564TIP3    H1 7656   6.677   1.021   1.680 -2.0736 -0.5372 -0.5092
 2564TIP3    H2 7657   6.710   0.988   1.824  1.4471 -0.7855 -1.3023
 2565TIP3   OH2 7658   6.790   0.941   0.623 -0.7401 -0.3324 -0.3354
 2565TIP3    H1 7659   6.719   0.991   0.583 -0.6237 -1.1198 -1.5633
 2565TIP3    H2 7660   6.821   0.883   0.553  1.0200 -0.1040  0.2106
 2566TIP3   OH2 7661   5.891   2.600   3.805 -0.2066 -0.3100 -0.4106
 2566TIP3    H1 7662   5.883   2.572   3.714 -0.9188 -1.4633 -0.0184
 2566TIP3    H2 7663   5.969   2.555   3.837  0.3503  0.5092 -0.5778
 2567TIP3   OH2 7664   1.335   2.597   5.306 -0.1046 -0.5487  0.3607
 2567TIP3    H1 7665   1.383   2.618   5.386 -0.2989 -1.2782  0.6732
 2567TIP3    H2 7666   1.259   2.656   5.307 -0.9066 -1.5595  1.4817
 2568TIP3   OH2 7667   3.796   1.771   0.446 -0.1990  0.1842 -0.2794
 2568TIP3    H1 7668   3.709   1.790   0.481  1.0516  0.8005  2.7922
 2568TIP3    H2 7669   3.836   1.714   0.512  0.8371 -2.4547 -2.9326
 2569TIP3   OH2 7670   2.800   1.259   5.238  0.3903 -0.2128  0.2180
 2569TIP3    H1 7671   2.788   1.272   5.143 -1.7260 -1.6869  0.2163
 2569TIP3    H2 7672   2.736   1.318   5.278  1.7722  0.9362  0.8042
 2570TIP3   OH2 7673   7.180   0.853   2.763 -0.3080  0.0478  0.3815
 2570TIP3    H1 7674   7.107   0.810   2.719  0.3755  0.2809 -1.0275
 2570TIP3    H2 7675   7.164   0.947   2.750  0.9091  0.0883 -1.1334
 2571TIP3   OH2 7676   2.744   5.838   2.265  0.4787  0.2139 -0.4508
 2571TIP3    H1 7677   2.737   5.924   2.223  0.4733 -0.2451 -1.4203
 2571TIP3    H2 7678   2.824   5.843   2.317  2.0009 -0.0456 -2.6247
 2572TIP3   OH2 7679   4.805   2.578   4.678 -0.4398  0.1250  0.1978
 2572TIP3    H1 7680   4.869   2.644   4.652  1.5655 -1.5801  0.4691
 2572TIP3    H2 7681   4.722   2.625   4.684 -0.1536  1.6336 -4.3096
 2573TIP3   OH2 7682   4.462   5.503   1.928  0.7547 -0.4343 -0.0160
 2573TIP3    H1 7683   4.503   5.476   2.010 -0.6617  0.7587  1.1506
 2573TIP3    H2 7684   4.531   5.549   1.881  1.1475  0.3434  1.2701
 2574TIP3   OH2 7685   2.561   0.391   5.715 -0.1546 -0.2851  0.3408
 2574TIP3    H1 7686   2.529   0.450   5.784  1.6581  1.6674 -0.3847
 2574TIP3    H2 7687   2.498   0.403   5.643  1.1346  2.2614 -0.4696
 2575TIP3   OH2 7688   5.459   6.471   4.078  0.0894 -0.5640  0.0870
 2575TIP3    H1 7689   5.373   6.510   4.097  0.1165  0.4983 -1.6738
 2575TIP3    H2 7690   5.521   6.543   4.094  0.6878 -1.3379  1.3899
 2576TIP3   OH2 7691   1.747   1.598   5.292  0.2217  0.6013  0.2969
 2576TIP3    H1 7692   1.719   1.626   5.205  0.0936  1.3042  0.5585
 2576TIP3    H2 7693   1.780   1.677   5.333  1.3613  0.0489  0.4865
 2577TIP3   OH2 7694   5.510   6.117   4.483 -0.0427  0.0881  0.3543
 2577TIP3    H1 7695   5.444   6.165   4.534 -0.7321  1.3025 -1.5522
 2577TIP3    H2 7696   5.464   6.039   4.452  0.2754 -0.4750  1.2571
 2578TIP3   OH2 7697   2.040   2.521   2.904 -0.1907 -0.4811  0.0969
 2578TIP3    H1 7698   2.022   2.527   2.810  0.1134  2.9932  0.1037
 2578TIP3    H2 7699   2.135   2.506   2.909 -0.4543 -2.3870 -0.0841
 2579TIP3   OH2 7700   6.994   5.234   0.641 -0.2433  0.2544 -0.0627
 2579TIP3    H1 7701   7.038   5.232   0.726  1.9828  1.0005 -1.1047
 2579TIP3    H2 7702   6.954   5.148   0.632 -0.9418  0.3320  1.9203
 2580TIP3   OH2 7703   1.263   4.753   4.958 -0.2879 -0.2716  0.1253
 2580TIP3    H1 7704   1.269   4.727   4.866  0.2270 -0.6126  0.2494
 2580TIP3    H2 7705   1.314   4.833   4.964 -1.4715  0.5250 -0.1587
 2581TIP3   OH2 7706   4.422   3.394   4.130 -0.0918 -0.4606  0.0900
 2581TIP3    H1 7707   4.461   3.347   4.057  0.5285  0.4002 -0.1560
 2581TIP3    H2 7708   4.330   3.406   4.106  0.1557  0.0020 -0.6617
 2582TIP3   OH2 7709   5.831   5.398   2.296  0.1424 -0.3069 -0.0006
 2582TIP3    H1 7710   5.836   5.456   2.221 -0.5245 -1.2644 -0.8130
 2582TIP3    H2 7711   5.882   5.442   2.364  2.0247 -0.1133 -1.4543
 2583TIP3   OH2 7712   3.503   3.603   5.113 -0.1298 -0.6020 -0.2733
 2583TIP3    H1 7713   3.586   3.622   5.157  1.3585 -1.6417 -2.4607
 2583TIP3    H2 7714   3.527   3.554   5.035 -3.0155 -2.9742  0.1430
 2584TIP3   OH2 7715   5.156   5.490   1.539 -0.5434 -0.2690  0.2171
 2584TIP3    H1 7716   5.224   5.521   1.600 -0.0895 -2.0274  0.6477
 2584TIP3    H2 7717   5.203   5.440   1.473 -0.9355  2.1905 -2.1110
 2585TIP3   OH2 7718   4.754   3.790   2.313 -0.0086 -0.1236  0.2892
 2585TIP3    H1 7719   4.816   3.857   2.284 -0.3651  0.8601  1.7234
 2585TIP3    H2 7720   4.777   3.713   2.260 -0.7320  1.5348 -2.7113
 2586TIP3   OH2 7721   2.491   2.885   0.063 -0.5458 -0.1880 -0.3904
 2586TIP3    H1 7722   2.528   2.970   0.040  0.3957 -0.6390 -0.5684
 2586TIP3    H2 7723   2.467   2.894   0.156 -1.1400  0.4954 -0.5936
 2587TIP3   OH2 7724   5.886   1.754   4.905  0.5034  0.2718 -0.0940
 2587TIP3    H1 7725   5.887   1.823   4.838  1.4945  1.5643  1.1880
 2587TIP3    H2 7726   5.794   1.735   4.919  0.2025  1.3666 -0.4650
 2588TIP3   OH2 7727   6.898   4.236   3.848  0.0983  0.6475 -0.4343
 2588TIP3    H1 7728   6.912   4.156   3.798 -2.9320 -0.0302 -0.3851
 2588TIP3    H2 7729   6.864   4.207   3.932 -0.8996  1.9671 -0.3444
 2589TIP3   OH2 7730   3.567   4.375   0.042 -0.1348 -0.2437 -0.0868
 2589TIP3    H1 7731   3.608   4.392   0.127  0.3895 -2.1012  0.0874
 2589TIP3    H2 7732   3.640   4.358  -0.016 -0.5370 -0.0042 -0.6671
 2590TIP3   OH2 7733   0.391   3.176   2.874  0.0289  0.1651 -0.2873
 2590TIP3    H1 7734   0.443   3.193   2.952 -1.2742  0.1002  0.6338
 2590TIP3    H2 7735   0.368   3.083   2.880  0.8642 -0.1350 -1.3681
 2591TIP3   OH2 7736   1.226   5.547   3.067 -0.2226  0.1490 -0.4859
 2591TIP3    H1 7737   1.280   5.583   2.996 -1.2691 -1.0808 -1.9627
 2591TIP3    H2 7738   1.288   5.527   3.137  0.7083  2.4069 -0.5835
 2592TIP3   OH2 7739   5.010   4.417   2.318 -0.0652 -0.1250  0.2633
 2592TIP3    H1 7740   4.994   4.493   2.375 -0.3566 -0.9224  1.2870
 2592TIP3    H2 7741   5.030   4.345   2.379 -0.9335 -1.1456 -0.6052
 2593TIP3   OH2 7742   4.161   6.068   0.226  0.1533  0.2156 -0.6080
 2593TIP3    H1 7743   4.101   6.142   0.236 -1.2233 -0.8263 -0.9561
 2593TIP3    H2 7744   4.187   6.070   0.134 -1.1214 -0.6354 -1.0054
 2594TIP3   OH2 7745   3.641   4.379   0.317 -0.2839  0.0044 -0.2365
 2594TIP3    H1 7746   3.654   4.452   0.377  2.0162  0.1838 -0.8743
 2594TIP3    H2 7747   3.648   4.301   0.372 -1.5945  0.2088  0.2529
 2595TIP3   OH2 7748   4.459   1.888   0.434 -0.2236  0.0123 -0.4957
 2595TIP3    H1 7749   4.518   1.955   0.467  0.2345 -0.3829 -0.5028
 2595TIP3    H2 7750   4.485   1.875   0.343 -0.9358  0.4975 -0.7757
 2596TIP3   OH2 7751   3.976   3.844   2.642  0.3425 -0.4735  0.0205
 2596TIP3    H1 7752   4.022   3.864   2.561  0.5465 -2.1998 -0.3367
 2596TIP3    H2 7753   3.907   3.910   2.648  0.1883 -0.4432 -1.6864
 2597TIP3   OH2 7754   4.009   1.237   2.492  0.1913  0.4029  0.1811
 2597TIP3    H1 7755   3.983   1.326   2.470  0.7477  0.3449 -0.7684
 2597TIP3    H2 7756   3.961   1.182   2.431  0.4212  0.1046  0.2656
 2598TIP3   OH2 7757   2.540   6.376   3.236  0.7992  0.0178 -0.1968
 2598TIP3    H1 7758   2.575   6.464   3.223  0.1862  0.6314  1.8700
 2598TIP3    H2 7759   2.454   6.379   3.193  1.4663 -0.1495 -1.6001
 2599TIP3   OH2 7760   2.873   1.771   4.845  0.2835  0.1570 -1.0877
 2599TIP3    H1 7761   2.870   1.842   4.781 -1.0911  0.1915 -1.0154
 2599TIP3    H2 7762   2.808   1.708   4.814 -1.2049  0.6603  0.8042
 2600TIP3   OH2 7763   5.252   6.325   5.127 -0.3720  0.7098 -0.2453
 2600TIP3    H1 7764   5.226   6.354   5.214  3.4287  1.4858  0.8130
 2600TIP3    H2 7765   5.248   6.404   5.073 -0.2064  0.8165 -0.1008
 2601TIP3   OH2 7766   6.221   0.533   1.089  0.6289 -0.4751 -0.2726
 2601TIP3    H1 7767   6.273   0.525   1.169 -2.2361 -1.3938  1.6298
 2601TIP3    H2 7768   6.204   0.626   1.081 -0.4518 -0.5079  1.2134
 2602TIP3   OH2 7769   6.196   6.621   2.195 -0.7135 -0.2358  0.2471
 2602TIP3    H1 7770   6.200   6.606   2.100 -1.7270 -2.1901  0.4458
 2602TIP3    H2 7771   6.109   6.590   2.220 -0.6518  0.7169  1.7655
 2603TIP3   OH2 7772   1.668   0.942   1.709 -0.1541  0.2841 -0.0110
 2603TIP3    H1 7773   1.667   0.921   1.616  0.6660  0.0652  0.0224
 2603TIP3    H2 7774   1.606   1.015   1.718  1.6726  2.1000 -1.1616
 2604TIP3   OH2 7775   5.183   4.421   4.673  0.4782  0.2919 -0.1709
 2604TIP3    H1 7776   5.186   4.343   4.619  0.2161 -0.5027  0.9354
 2604TIP3    H2 7777   5.262   4.416   4.728  0.0968  0.4283  0.4037
 2605TIP3   OH2 7778   3.887   4.100   0.891  0.5089  0.4767  0.2427
 2605TIP3    H1 7779   3.791   4.101   0.888  0.5120  0.0022 -0.1167
 2605TIP3    H2 7780   3.908   4.136   0.977  0.0324  1.2279  0.0524
 2606TIP3   OH2 7781   1.295   2.285   0.399 -0.0229  0.8035  0.2558
 2606TIP3    H1 7782   1.259   2.336   0.471 -0.1289  0.6800  0.2922
 2606TIP3    H2 7783   1.225   2.285   0.333  0.0498  0.8646  0.1788
 2607TIP3   OH2 7784   0.801   4.152   0.963  0.4024  0.3200 -0.6786
 2607TIP3    H1 7785   0.882   4.195   0.935  0.9514  0.0400  0.4380
 2607TIP3    H2 7786   0.745   4.224   0.990  1.9139  0.3855  2.7590
 2608TIP3   OH2 7787   7.080   2.490   5.074  0.7182  0.1248  0.1740
 2608TIP3    H1 7788   7.111   2.402   5.095  0.5097 -0.1310 -0.5514
 2608TIP3    H2 7789   7.114   2.507   4.987  0.6283  0.7052  0.2497
 2609TIP3   OH2 7790   6.821   4.711   4.958  0.6872  0.0446  0.0205
 2609TIP3    H1 7791   6.818   4.667   4.873  0.1467 -0.0104  0.0598
 2609TIP3    H2 7792   6.827   4.639   5.021  0.7847  0.0714  0.0415
 2610TIP3   OH2 7793   6.335   1.018   2.107  0.3611 -0.2726  0.4259
 2610TIP3    H1 7794   6.307   0.944   2.055  1.6129 -0.9683  0.6851
 2610TIP3    H2 7795   6.265   1.083   2.099 -0.2142 -1.0273 -0.7373
 2611TIP3   OH2 7796   6.739   3.240   0.324 -0.1094 -0.5905  0.1788
 2611TIP3    H1 7797   6.699   3.314   0.277  0.0944 -0.3601  0.3638
 2611TIP3    H2 7798   6.695   3.163   0.289  0.4308 -0.4659 -0.7908
 2612TIP3   OH2 7799   1.377   0.883   3.513 -0.0281  0.1319 -0.0255
 2612TIP3    H1 7800   1.434   0.902   3.588 -0.0181 -1.0732  0.2851
 2612TIP3    H2 7801   1.383   0.962   3.459  0.3738  0.8179  0.9748
 2613TIP3   OH2 7802   3.725   0.107   3.688  0.2198  0.1507  0.1691
 2613TIP3    H1 7803   3.749   0.024   3.730  0.9752  0.1368 -0.2717
 2613TIP3    H2 7804   3.770   0.105   3.604 -0.3137  0.7105 -0.1378
 2614TIP3   OH2 7805   3.730   3.740   3.386  0.6699 -0.5342 -0.4073
 2614TIP3    H1 7806   3.703   3.785   3.306 -2.3799 -0.8498  0.3086
 2614TIP3    H2 7807   3.720   3.806   3.455  1.4101 -0.8006 -0.0392
 2615TIP3   OH2 7808   3.837   0.037   3.443  0.5764 -0.3646  0.0859
 2615TIP3    H1 7809   3.835  -0.020   3.366  0.9016  1.0262 -0.9871
 2615TIP3    H2 7810   3.905  -0.002   3.499  1.7075 -0.3446 -1.2040
 2616TIP3   OH2 7811   0.047   5.505   2.939 -0.3967 -0.0736 -0.2260
 2616TIP3    H1 7812  -0.032   5.471   2.981 -1.8977  2.2962 -0.9211
 2616TIP3    H2 7813   0.096   5.548   3.010 -2.3879  2.9641 -0.5061
 2617TIP3   OH2 7814   1.218   1.920   0.964  0.1997 -0.6471 -0.0588
 2617TIP3    H1 7815   1.180   1.953   1.045 -0.5200 -0.7930 -0.3287
 2617TIP3    H2 7816   1.216   1.825   0.974  1.6765 -0.6503  0.4490
 2618TIP3   OH2 7817   0.960   5.250   5.603 -0.1029  0.5168  0.2338
 2618TIP3    H1 7818   0.978   5.299   5.523 -0.2012 -0.0224 -0.1258
 2618TIP3    H2 7819   1.042   5.254   5.652  0.1021  0.4783 -0.0980
 2619TIP3   OH2 7820   3.385   3.412  -0.014  0.5601 -0.3528  0.4486
 2619TIP3    H1 7821   3.448   3.421   0.057  1.0181 -1.1667  0.1604
 2619TIP3    H2 7822   3.340   3.329   0.003 -0.3590  0.1507  0.5788
 2620TIP3   OH2 7823   2.929   1.157   3.648  0.0288 -0.1671 -0.0665
 2620TIP3    H1 7824   2.856   1.152   3.586 -0.0116 -0.5874  0.0127
 2620TIP3    H2 7825   2.892   1.202   3.724  0.5027  1.8411 -0.9336
 2621TIP3   OH2 7826   6.189   1.028   3.336  0.2000 -0.2382  0.3237
 2621TIP3    H1 7827   6.132   1.007   3.410  0.7474  0.0062  0.8272
 2621TIP3    H2 7828   6.149   0.984   3.261  0.8561 -2.4057  1.1640
 2622TIP3   OH2 7829   3.991   2.350   3.842  0.0330  0.0732 -0.0032
 2622TIP3    H1 7830   4.069   2.295   3.832  0.0825 -0.4924  2.7059
 2622TIP3    H2 7831   3.949   2.348   3.757  2.1772 -0.8493 -1.1156
 2623TIP3   OH2 7832   6.041   5.580   3.748  0.0210 -0.8171  0.0605
 2623TIP3    H1 7833   5.962   5.633   3.766 -0.0182 -0.0953 -1.9635
 2623TIP3    H2 7834   6.111   5.628   3.792 -0.4523 -0.7009  0.7154
 2624TIP3   OH2 7835   6.284   5.421   2.422 -0.3602 -0.1499 -0.1496
 2624TIP3    H1 7836   6.256   5.379   2.340 -1.9062 -0.0179  0.2737
 2624TIP3    H2 7837   6.277   5.514   2.404 -1.9582 -0.1141  0.4954
 2625TIP3   OH2 7838   3.541   4.538   0.714  0.1635  0.4042  0.4279
 2625TIP3    H1 7839   3.479   4.585   0.770  0.1777 -0.6307  1.3408
 2625TIP3    H2 7840   3.627   4.559   0.751  0.1799 -0.1949  0.7396
 2626TIP3   OH2 7841   2.602   1.308   4.081 -0.1450 -0.1119  0.7503
 2626TIP3    H1 7842   2.580   1.222   4.118  1.1634 -1.0883 -0.6270
 2626TIP3    H2 7843   2.518   1.344   4.053 -0.6820 -1.0845  1.0466
 2627TIP3   OH2 7844   1.780   6.298   4.800 -0.0470 -0.3194  0.0444
 2627TIP3    H1 7845   1.850   6.358   4.827 -1.2094  1.9556 -1.6217
 2627TIP3    H2 7846   1.735   6.275   4.881  0.0170  1.7087  0.7231
 2628TIP3   OH2 7847   3.762   1.620   0.100 -0.1315 -0.1868 -0.4404
 2628TIP3    H1 7848   3.819   1.557   0.143 -0.9121 -0.1387  0.7176
 2628TIP3    H2 7849   3.821   1.676   0.050  0.8532 -0.0963  0.7615
 2629TIP3   OH2 7850   0.907   3.603   3.091  0.1021 -0.4254  0.4499
 2629TIP3    H1 7851   0.899   3.633   3.001 -0.1716 -2.1039 -0.0997
 2629TIP3    H2 7852   0.820   3.567   3.112 -0.8380  2.5815  2.4202
 2630TIP3   OH2 7853   5.314   1.988   1.355  0.0963 -0.0840 -0.5090
 2630TIP3    H1 7854   5.283   2.079   1.351 -1.4265 -0.5469 -0.0888
 2630TIP3    H2 7855   5.248   1.943   1.409  0.8391 -1.4342 -0.6874
 2631TIP3   OH2 7856   3.677   5.805   1.602 -0.1772  0.2127 -0.5295
 2631TIP3    H1 7857   3.673   5.894   1.566  0.4388  0.2803 -0.4348
 2631TIP3    H2 7858   3.770   5.786   1.609 -0.3055 -0.4890 -0.6569
 2632TIP3   OH2 7859   6.422   6.265   5.156  0.1366 -0.2600 -0.4622
 2632TIP3    H1 7860   6.407   6.281   5.063  3.9204 -2.2705 -1.6155
 2632TIP3    H2 7861   6.379   6.182   5.174 -0.4774  0.0597 -0.4557
 2633TIP3   OH2 7862   2.990   5.459   1.070  0.2749 -0.4873 -0.0742
 2633TIP3    H1 7863   2.999   5.366   1.049 -0.1871 -0.8494  1.2792
 2633TIP3    H2 7864   3.040   5.503   1.001  0.4781 -1.7249 -0.7551
 2634TIP3   OH2 7865   0.080   6.445   0.815 -0.1681  0.1596  0.2816
 2634TIP3    H1 7866   0.119   6.476   0.896 -1.0106 -0.4871  0.9594
 2634TIP3    H2 7867  -0.002   6.403   0.842 -0.7658  0.4600 -0.9615
 2635TIP3   OH2 7868   1.801   1.280   3.209 -0.4945  0.2056  0.2982
 2635TIP3    H1 7869   1.769   1.359   3.253 -3.0264 -0.6826  0.1988
 2635TIP3    H2 7870   1.839   1.313   3.127 -1.7714  1.3436  0.1119
 2636TIP3   OH2 7871   6.148   6.194   1.604 -0.3456  0.1545 -0.2251
 2636TIP3    H1 7872   6.182   6.271   1.558 -1.9705  0.4228 -1.0277
 2636TIP3    H2 7873   6.173   6.120   1.548 -2.3238  0.4802 -1.6363
 2637TIP3   OH2 7874   7.133   0.704   4.558 -0.5650 -0.1686  0.6281
 2637TIP3    H1 7875   7.197   0.639   4.589 -0.7138 -0.6552 -0.0557
 2637TIP3    H2 7876   7.177   0.747   4.484 -0.8030 -0.1080  0.5202
 2638TIP3   OH2 7877   1.493   1.095   0.018  0.0688  0.1835 -0.2525
 2638TIP3    H1 7878   1.490   1.140  -0.067 -0.0685  0.4914 -0.0873
 2638TIP3    H2 7879   1.517   1.163   0.080 -2.1695  0.5413  0.3274
 2639TIP3   OH2 7880   3.510   5.317   1.497  0.1287 -0.1585  0.1004
 2639TIP3    H1 7881   3.422   5.301   1.530 -0.4002 -0.4399 -1.3809
 2639TIP3    H2 7882   3.518   5.413   1.496 -0.7302 -0.0661 -1.0924
 2640TIP3   OH2 7883   1.149   1.176   4.418 -0.1538 -0.1236  0.5563
 2640TIP3    H1 7884   1.182   1.181   4.329  0.3136 -1.4891  0.6218
 2640TIP3    H2 7885   1.130   1.266   4.442  0.6016  0.3652 -0.5891
 2641TIP3   OH2 7886   3.743   5.276   5.370  0.5965  0.7055  0.0484
 2641TIP3    H1 7887   3.677   5.343   5.387  0.2073  0.4953 -0.5685
 2641TIP3    H2 7888   3.709   5.198   5.413  0.6218  0.6894  0.0389
 2642TIP3   OH2 7889   4.070   1.240   3.154 -0.3400 -0.5983 -0.6212
 2642TIP3    H1 7890   4.139   1.175   3.143 -0.4819 -0.7448 -0.6327
 2642TIP3    H2 7891   4.077   1.296   3.076 -1.0938 -1.4026 -1.2829
 2643TIP3   OH2 7892   0.272   0.508   1.120  0.2936 -0.0191 -0.4780
 2643TIP3    H1 7893   0.344   0.541   1.067 -0.3937  0.5995 -1.0387
 2643TIP3    H2 7894   0.209   0.580   1.125  0.2329 -0.1352  0.9861
 2644TIP3   OH2 7895   3.142   1.374   0.992 -0.2094  0.0303 -0.0305
 2644TIP3    H1 7896   3.092   1.439   0.942 -1.3137 -1.0682 -0.3995
 2644TIP3    H2 7897   3.232   1.386   0.963 -0.6879  0.0964 -1.5713
 2645TIP3   OH2 7898   1.491   6.713   2.625 -0.1133  0.1884  0.1600
 2645TIP3    H1 7899   1.456   6.798   2.600 -0.1011  0.1821  0.1209
 2645TIP3    H2 7900   1.579   6.711   2.588 -0.4959 -0.2656 -0.7530
 2646TIP3   OH2 7901   6.940   3.484   0.451 -0.3821  0.1356  0.1614
 2646TIP3    H1 7902   6.978   3.396   0.458  0.1813  0.4390  1.0610
 2646TIP3    H2 7903   7.016   3.541   0.441 -0.7477  0.5273 -0.3998
 2647TIP3   OH2 7904   3.924   1.310   0.127 -0.2772  0.0301 -0.4195
 2647TIP3    H1 7905   3.984   1.253   0.080  0.4742  0.5443 -0.1185
 2647TIP3    H2 7906   3.854   1.329   0.065  1.3715  1.8103 -1.8751
 2648TIP3   OH2 7907   2.690   6.671   1.363  0.0597  0.2036  0.3046
 2648TIP3    H1 7908   2.666   6.738   1.426 -0.6968  0.9768 -0.7639
 2648TIP3    H2 7909   2.735   6.719   1.293 -2.1964 -0.0337 -1.4307
 2649TIP3   OH2 7910   4.574   2.755   5.831 -0.1237  0.5588  0.1914
 2649TIP3    H1 7911   4.544   2.680   5.779 -1.9024  0.7758  0.8517
 2649TIP3    H2 7912   4.558   2.831   5.776 -0.3286  0.6317  0.3496
 2650TIP3   OH2 7913   1.717   4.920   3.618 -0.4756  0.2108 -0.0142
 2650TIP3    H1 7914   1.714   4.994   3.679 -0.5428 -0.2653  0.5597
 2650TIP3    H2 7915   1.725   4.962   3.532 -3.1782  1.0174  0.0358
 2651TIP3   OH2 7916   0.214   5.784   5.136 -0.0258  0.3148  0.1106
 2651TIP3    H1 7917   0.131   5.803   5.179 -0.0146 -0.1766  0.3488
 2651TIP3    H2 7918   0.242   5.868   5.099 -1.1471  0.2769 -0.8807
 2652TIP3   OH2 7919   3.782   4.972   1.429  0.1352  0.2723  0.0380
 2652TIP3    H1 7920   3.863   4.929   1.454 -0.5851 -2.4882 -1.8968
 2652TIP3    H2 7921   3.808   5.062   1.407  2.7750 -0.6529 -1.0113
 2653TIP3   OH2 7922   1.679   4.257   2.030  0.2649  0.1406 -0.1029
 2653TIP3    H1 7923   1.755   4.313   2.043 -0.3847  1.0118  0.0054
 2653TIP3    H2 7924   1.617   4.284   2.099 -0.6261  0.2960 -0.9419
 2654TIP3   OH2 7925   4.716   6.713   4.290  0.1686 -0.3260  0.2333
 2654TIP3    H1 7926   4.764   6.714   4.373  1.3010 -0.9242 -0.3974
 2654TIP3    H2 7927   4.652   6.643   4.300  0.1157 -0.2170  0.6945
 2655TIP3   OH2 7928   0.812   3.442   5.057 -0.0735  0.2720 -0.1388
 2655TIP3    H1 7929   0.868   3.381   5.104 -1.3901 -0.8112  0.0891
 2655TIP3    H2 7930   0.872   3.505   5.017  1.2877 -0.8679  0.0600
 2656TIP3   OH2 7931   3.519   3.659   4.244 -0.1792  0.4948  0.7090
 2656TIP3    H1 7932   3.602   3.706   4.258  0.0746 -0.0730  1.1446
 2656TIP3    H2 7933   3.531   3.576   4.290 -1.4656  0.9296  1.9108
 2657TIP3   OH2 7934   4.877   3.093   1.398  0.1393 -0.0388  0.0075
 2657TIP3    H1 7935   4.803   3.065   1.452 -0.6257 -1.7091 -1.7786
 2657TIP3    H2 7936   4.849   3.076   1.308  2.1570  0.6667 -0.8234
 2658TIP3   OH2 7937   4.673   3.501   4.291 -0.2389  0.1174 -0.0154
 2658TIP3    H1 7938   4.732   3.572   4.264  0.1277  0.2027  0.9806
 2658TIP3    H2 7939   4.620   3.484   4.213  2.7083 -1.6511 -1.8660
 2659TIP3   OH2 7940   3.819   6.706   2.763  0.0026  0.1048  0.0643
 2659TIP3    H1 7941   3.801   6.613   2.772 -0.1744  0.1493  0.1708
 2659TIP3    H2 7942   3.846   6.734   2.851  0.6407  0.0294 -0.1028
 2660TIP3   OH2 7943   2.072   1.298   1.713  0.0219  0.0550  0.3185
 2660TIP3    H1 7944   2.159   1.289   1.675  0.2541 -1.4686  1.1041
 2660TIP3    H2 7945   2.071   1.234   1.784 -2.0020 -0.5195 -0.1686
 2661TIP3   OH2 7946   4.198   1.590   4.127 -0.4526  0.2447 -0.0252
 2661TIP3    H1 7947   4.134   1.634   4.071  0.2939  0.0609 -1.0534
 2661TIP3    H2 7948   4.254   1.661   4.160 -0.2798  0.2548 -0.3325
 2662TIP3   OH2 7949   1.997   1.785   0.429 -0.1722  0.7130  0.8363
 2662TIP3    H1 7950   2.075   1.830   0.459  1.2999 -1.2075  0.1009
 2662TIP3    H2 7951   2.016   1.692   0.443 -1.7315  0.1094 -0.6846
 2663TIP3   OH2 7952   1.433   2.675   1.552 -0.2373 -0.2521  0.0058
 2663TIP3    H1 7953   1.447   2.680   1.647  0.1914 -1.6495  0.0447
 2663TIP3    H2 7954   1.476   2.753   1.517 -3.0863  1.9991  1.1801
 2664TIP3   OH2 7955   3.307   4.062   3.102  0.2278 -0.1414  0.1346
 2664TIP3    H1 7956   3.270   4.150   3.098 -0.1861 -0.3372 -0.5957
 2664TIP3    H2 7957   3.320   4.037   3.010  3.4283  0.4344  0.2974
 2665TIP3   OH2 7958   6.376   3.659   5.748 -0.2837  0.5638 -0.5289
 2665TIP3    H1 7959   6.401   3.610   5.669 -0.8649 -0.3847 -0.1397
 2665TIP3    H2 7960   6.282   3.642   5.758 -0.0848  0.0953  0.7483
 2666TIP3   OH2 7961   5.415   3.663   1.766 -0.6281 -0.0228  0.6485
 2666TIP3    H1 7962   5.339   3.620   1.804 -0.4977 -1.4209 -0.5826
 2666TIP3    H2 7963   5.386   3.689   1.678 -0.2772  1.2073  0.8826
 2667TIP3   OH2 7964   0.349   3.321   3.940  0.3727 -0.4510  0.0943
 2667TIP3    H1 7965   0.368   3.230   3.962  0.3594  0.1011  2.6538
 2667TIP3    H2 7966   0.420   3.371   3.979 -1.0693  0.8287  1.2142
 2668TIP3   OH2 7967   0.267   2.541   0.388 -0.5704  0.6785 -0.3398
 2668TIP3    H1 7968   0.344   2.536   0.331 -0.0116  2.6776  0.1525
 2668TIP3    H2 7969   0.269   2.460   0.439 -0.2863 -0.5042 -2.1468
 2669TIP3   OH2 7970   1.467   3.886   4.552  0.5397 -0.0520  0.4667
 2669TIP3    H1 7971   1.543   3.857   4.602 -0.1073 -1.0196  0.9383
 2669TIP3    H2 7972   1.393   3.878   4.613 -0.0767 -0.0645 -0.2565
 2670TIP3   OH2 7973   4.563   1.580   2.819 -0.1959  0.5446  0.0341
 2670TIP3    H1 7974   4.473   1.600   2.847 -1.1500 -0.8286 -1.8023
 2670TIP3    H2 7975   4.608   1.554   2.898 -1.5634  0.8003  0.9353
 2671TIP3   OH2 7976   5.601   1.998   1.358  0.0351  0.0378  0.5451
 2671TIP3    H1 7977   5.514   2.003   1.397  0.0312 -1.9702  0.9231
 2671TIP3    H2 7978   5.604   1.911   1.318  1.5781  0.3903 -0.1877
 2672TIP3   OH2 7979   6.853   4.824   3.140  0.2447  0.2609 -0.9200
 2672TIP3    H1 7980   6.766   4.788   3.158  0.1417  1.5079  1.4228
 2672TIP3    H2 7981   6.913   4.760   3.177  0.2118  0.5696 -0.3212
 2673TIP3   OH2 7982   2.999   6.517   4.522  0.3468  0.3855  0.1241
 2673TIP3    H1 7983   3.027   6.429   4.549  0.7018  0.7667  1.0258
 2673TIP3    H2 7984   3.036   6.528   4.434 -0.7177 -0.8261 -0.5277
 2674TIP3   OH2 7985   3.848   2.118   5.378  0.3221  0.3390  0.7257
 2674TIP3    H1 7986   3.793   2.041   5.386  1.5150 -0.7168 -0.6616
 2674TIP3    H2 7987   3.896   2.106   5.296  0.9072  2.3252  0.7021
 2675TIP3   OH2 7988   4.659   3.832   4.524  0.3404 -0.1435  0.2032
 2675TIP3    H1 7989   4.641   3.818   4.431  0.9754 -0.8494  0.1799
 2675TIP3    H2 7990   4.753   3.846   4.528  0.2713  0.2031  0.7130
 2676TIP3   OH2 7991   3.122   4.716   1.819  0.0688 -0.6401  0.0550
 2676TIP3    H1 7992   3.187   4.758   1.876  1.0032 -0.5519 -1.0472
 2676TIP3    H2 7993   3.172   4.689   1.742 -1.2401 -0.3909 -0.9105
 2677TIP3   OH2 7994   0.536   2.919   2.192 -0.1753 -0.0231  0.0127
 2677TIP3    H1 7995   0.596   2.989   2.166  0.5586  0.0463  1.7643
 2677TIP3    H2 7996   0.479   2.959   2.257 -1.7163 -0.2879 -1.1296
 2678TIP3   OH2 7997   5.402   3.659   2.087  0.4077 -0.1330 -0.2653
 2678TIP3    H1 7998   5.444   3.711   2.156  1.4206 -0.5734 -0.5219
 2678TIP3    H2 7999   5.475   3.631   2.032 -0.3843  0.2695 -1.5641
 2679TIP3   OH2 8000   1.626   1.353   1.002  0.6265  0.5527  0.0385
 2679TIP3    H1 8001   1.636   1.277   1.058  0.8525  0.4049 -0.2032
 2679TIP3    H2 8002   1.532   1.372   1.004  0.8196  1.4946  1.7029
 2680TIP3   OH2 8003   6.279   3.348   0.070  0.1404  0.8611 -0.6226
 2680TIP3    H1 8004   6.318   3.294   0.139  0.3668  0.6758 -0.8941
 2680TIP3    H2 8005   6.264   3.287  -0.002 -1.0039  0.8409 -0.3970
 2681TIP3   OH2 8006   3.332   3.889   5.559  0.0612 -0.2795  0.4714
 2681TIP3    H1 8007   3.263   3.869   5.622  0.1321  0.4732  0.7937
 2681TIP3    H2 8008   3.304   3.970   5.517  0.1021 -0.6799 -0.3463
 2682TIP3   OH2 8009   6.976   5.956   2.893 -0.3206 -0.1854  0.2655
 2682TIP3    H1 8010   6.894   5.975   2.846  0.0282 -0.0427 -0.2932
 2682TIP3    H2 8011   7.000   5.869   2.863 -1.1082 -0.9106  1.6592
 2683TIP3   OH2 8012   6.019   5.261   2.978 -0.3315 -0.7384 -0.3718
 2683TIP3    H1 8013   6.047   5.217   2.897  2.2177 -1.0990  0.5858
 2683TIP3    H2 8014   6.100   5.270   3.028 -1.3086  2.2356  0.8638
 2684TIP3   OH2 8015   0.857   5.184   3.071 -0.7679 -0.0839  0.1052
 2684TIP3    H1 8016   0.787   5.129   3.106  0.3745 -2.2219 -0.7964
 2684TIP3    H2 8017   0.872   5.250   3.139 -2.1365 -0.9228  1.2747
 2685TIP3   OH2 8018   5.098   2.308   3.121 -0.0289  0.6218  0.1451
 2685TIP3    H1 8019   5.077   2.215   3.134  1.0048  0.1769 -1.1372
 2685TIP3    H2 8020   5.120   2.340   3.208 -0.0945 -0.4206  0.5557
 2686TIP3   OH2 8021   3.747   6.374   0.424 -0.2596  0.4064  0.2360
 2686TIP3    H1 8022   3.720   6.317   0.496  0.1386 -0.0819 -0.0007
 2686TIP3    H2 8023   3.680   6.362   0.357 -0.9794  1.3405  0.7607
 2687TIP3   OH2 8024   6.185   3.636   2.990  0.1008 -0.4758 -0.1628
 2687TIP3    H1 8025   6.254   3.626   2.924 -1.7213  1.0138 -2.4416
 2687TIP3    H2 8026   6.146   3.549   2.997  2.0032 -1.3093  1.0607
 2688TIP3   OH2 8027   4.242   3.912   5.816 -0.0599  0.3128  0.2181
 2688TIP3    H1 8028   4.217   3.821   5.801  0.0364  0.4788 -1.0460
 2688TIP3    H2 8029   4.316   3.907   5.876  1.3647 -0.5905 -1.5391
 2689TIP3   OH2 8030   5.095   0.308   1.261 -0.3134  0.1094  0.0658
 2689TIP3    H1 8031   5.015   0.336   1.305 -0.3760  0.7081 -0.4155
 2689TIP3    H2 8032   5.090   0.349   1.175  0.3234 -0.1716 -0.1085
 2690TIP3   OH2 8033   4.740   3.477   1.259 -0.3694 -0.7648 -0.2870
 2690TIP3    H1 8034   4.722   3.476   1.353  0.3494  0.5807 -0.1178
 2690TIP3    H2 8035   4.813   3.416   1.248  0.0198 -0.3852  0.1453
 2691TIP3   OH2 8036   5.187   5.650   5.407  0.3262 -0.8861 -0.7640
 2691TIP3    H1 8037   5.120   5.670   5.343 -1.5944 -0.9308  1.1239
 2691TIP3    H2 8038   5.191   5.554   5.409 -0.1088 -0.8969 -0.3409
 2692TIP3   OH2 8039   0.372   5.848   3.739  0.2621  0.4459 -0.0158
 2692TIP3    H1 8040   0.463   5.819   3.742  1.1633  2.8393 -1.2977
 2692TIP3    H2 8041   0.378   5.943   3.725 -2.4440  0.7259  0.2198
 2693TIP3   OH2 8042   5.027   2.141   2.088  0.1164 -0.1265  0.1108
 2693TIP3    H1 8043   5.039   2.162   2.181 -0.7085  4.1391 -0.5387
 2693TIP3    H2 8044   5.107   2.170   2.046 -0.2421 -0.2909 -0.6985
 2694TIP3   OH2 8045   2.264   0.873   3.836  0.1562 -0.1024 -0.3724
 2694TIP3    H1 8046   2.239   0.880   3.928 -1.2715 -0.3838 -0.7268
 2694TIP3    H2 8047   2.214   0.799   3.803 -0.1186  0.6219 -1.6341
 2695TIP3   OH2 8048   6.638   1.312   5.615 -0.1776 -0.3809  0.7027
 2695TIP3    H1 8049   6.686   1.367   5.554  2.7911  0.4730  3.4920
 2695TIP3    H2 8050   6.690   1.231   5.621 -2.1289 -1.7666 -0.1389
 2696TIP3   OH2 8051   4.526   3.135   2.435  1.1815  0.3071  0.0951
 2696TIP3    H1 8052   4.528   3.053   2.485  0.9206  1.0933  1.4370
 2696TIP3    H2 8053   4.433   3.157   2.427  1.2400  2.8555  3.9148
 2697TIP3   OH2 8054   2.111   0.638   0.882  0.1881  0.3349  0.0070
 2697TIP3    H1 8055   2.111   0.614   0.974  0.3309 -2.2908 -0.5859
 2697TIP3    H2 8056   2.203   0.646   0.858  0.1692  0.4133 -0.0420
 2698TIP3   OH2 8057   5.228   3.813   0.443  0.5591  0.0141  0.2904
 2698TIP3    H1 8058   5.230   3.892   0.389  2.4207  0.4958  0.9762
 2698TIP3    H2 8059   5.156   3.761   0.407  1.5554  0.3972 -2.5502
 2699TIP3   OH2 8060   4.325   1.668   4.803  0.5332  0.4986 -0.0477
 2699TIP3    H1 8061   4.230   1.664   4.792  0.6576 -1.9860 -0.9679
 2699TIP3    H2 8062   4.356   1.718   4.727 -0.0562  2.0605  0.7074
 2700TIP3   OH2 8063   5.816   4.292   2.274  0.0788  0.0504  0.1164
 2700TIP3    H1 8064   5.816   4.199   2.251  1.6851  0.3493 -1.3096
 2700TIP3    H2 8065   5.724   4.316   2.279 -0.3540 -1.2638 -1.0516
 2701TIP3   OH2 8066   6.479   4.660   4.865  0.2852 -0.1834 -0.2890
 2701TIP3    H1 8067   6.483   4.702   4.951  0.0196  0.0494 -0.3885
 2701TIP3    H2 8068   6.464   4.732   4.804  1.1343 -0.2656 -0.6094
 2702TIP3   OH2 8069   4.771   4.654   5.410  0.0283 -0.2862  0.4181
 2702TIP3    H1 8070   4.695   4.713   5.409  0.5824  0.4516  0.7543
 2702TIP3    H2 8071   4.744   4.581   5.465 -1.3333 -1.2767 -1.4387
 2703TIP3   OH2 8072   1.640   1.024   3.270  0.1709  0.7489 -0.4002
 2703TIP3    H1 8073   1.579   1.056   3.337  0.4824  0.9885 -0.2250
 2703TIP3    H2 8074   1.708   1.091   3.267  1.1762 -0.1852  0.4192
 2704TIP3   OH2 8075   5.886   1.783   3.503  0.3286 -0.4855  0.3893
 2704TIP3    H1 8076   5.897   1.689   3.491  1.3385 -0.4896  1.1782
 2704TIP3    H2 8077   5.861   1.816   3.417  1.1820 -1.3165 -0.2002
 2705TIP3   OH2 8078   0.492   0.072   0.906 -0.2244  0.7000  0.1121
 2705TIP3    H1 8079   0.446   0.002   0.952  0.9303  0.4226  0.8934
 2705TIP3    H2 8080   0.484   0.049   0.814  3.1243 -2.5375  0.3953
 2706TIP3   OH2 8081   0.684   1.239   3.611 -0.0664 -0.0718 -0.2443
 2706TIP3    H1 8082   0.750   1.249   3.680  0.0549 -1.5775 -0.1150
 2706TIP3    H2 8083   0.601   1.263   3.654  0.0978 -0.3484  0.2272
 2707TIP3   OH2 8084   5.676   6.042   2.607  0.0061  0.2640 -0.0174
 2707TIP3    H1 8085   5.685   6.095   2.528  0.6346  0.1299 -0.0423
 2707TIP3    H2 8086   5.682   6.105   2.679 -1.4810  0.5117 -0.0714
 2708TIP3   OH2 8087   6.896   0.459   5.267  0.0241  0.3247  0.1648
 2708TIP3    H1 8088   6.854   0.511   5.199  2.2174  0.0144 -1.5793
 2708TIP3    H2 8089   6.860   0.492   5.349 -1.7647  1.6359 -1.0676
 2709TIP3   OH2 8090   5.744   3.402   4.376 -0.1644 -0.3258 -0.6544
 2709TIP3    H1 8091   5.700   3.485   4.364 -1.1579 -0.6106  0.7716
 2709TIP3    H2 8092   5.677   3.336   4.360  0.1676 -0.8104 -0.0983
 2710TIP3   OH2 8093   4.579   5.884   1.121 -0.1977 -0.1258 -0.6131
 2710TIP3    H1 8094   4.606   5.833   1.197 -0.3473 -2.2037 -1.8707
 2710TIP3    H2 8095   4.531   5.958   1.157  1.2192 -0.0811  1.3652
 2711TIP3   OH2 8096   6.947   2.239   0.255  0.1621 -0.7641  0.0087
 2711TIP3    H1 8097   6.868   2.237   0.309  0.7971  1.7170  1.2005
 2711TIP3    H2 8098   6.929   2.306   0.189  1.2656 -0.1019  0.3466
 2712TIP3   OH2 8099   3.420   4.749   2.285  0.0692  0.0029 -0.2281
 2712TIP3    H1 8100   3.389   4.832   2.322  1.3099  0.6314 -0.5461
 2712TIP3    H2 8101   3.510   4.742   2.315 -0.3462 -1.8135  0.7246
 2713TIP3   OH2 8102   4.958   3.832   1.269 -0.1461  0.3026  0.9137
 2713TIP3    H1 8103   4.982   3.854   1.358  0.5736 -0.3959  0.8996
 2713TIP3    H2 8104   5.037   3.848   1.217 -1.1046  2.7059  0.0052
 2714TIP3   OH2 8105   3.542   4.936   3.754 -0.5835 -0.3765 -0.4587
 2714TIP3    H1 8106   3.637   4.933   3.757 -0.5534  0.6038  1.8476
 2714TIP3    H2 8107   3.514   4.852   3.789 -0.5897 -0.7479 -1.3338
 2715TIP3   OH2 8108   5.351   1.897   2.125  0.0321  0.4133  0.0996
 2715TIP3    H1 8109   5.333   1.988   2.152 -0.4372  0.1897  0.5505
 2715TIP3    H2 8110   5.430   1.873   2.174  0.6082  0.8237 -0.5966
 2716TIP3   OH2 8111   3.168   6.126   3.561  0.1107 -0.0830  0.0748
 2716TIP3    H1 8112   3.075   6.149   3.551 -0.1013 -1.1865 -0.7251
 2716TIP3    H2 8113   3.215   6.198   3.518 -0.5475 -1.2311 -2.7644
 2717TIP3   OH2 8114   6.065   6.181   4.540  0.3986 -0.2025 -0.3092
 2717TIP3    H1 8115   6.051   6.131   4.620  0.4395  0.0864 -0.1191
 2717TIP3    H2 8116   5.996   6.152   4.480  0.0461 -0.0285  0.0158
 2718TIP3   OH2 8117   4.249   0.403   1.383 -0.3943 -0.1524  0.1056
 2718TIP3    H1 8118   4.191   0.376   1.311 -1.2346  1.8963 -0.0722
 2718TIP3    H2 8119   4.191   0.446   1.446  0.8282  1.6343  0.1108
 2719TIP3   OH2 8120   3.366   1.335   5.346  0.8778  0.6282  0.1201
 2719TIP3    H1 8121   3.459   1.357   5.340  0.8543  0.5128 -0.7050
 2719TIP3    H2 8122   3.348   1.281   5.269  0.6910 -1.4660  1.5168
 2720TIP3   OH2 8123   1.456   5.907   4.810  0.6369  0.0424 -0.4819
 2720TIP3    H1 8124   1.374   5.858   4.818  0.6419  0.2730  1.4638
 2720TIP3    H2 8125   1.429   5.994   4.782  0.2438  0.0194 -0.1819
 2721TIP3   OH2 8126   5.163   6.174   3.273  0.0038 -0.1888 -0.2819
 2721TIP3    H1 8127   5.158   6.255   3.324 -0.6964  0.7199 -1.6940
 2721TIP3    H2 8128   5.108   6.112   3.321  0.6382  0.1150  0.8815
 2722TIP3   OH2 8129   0.632   6.757   4.844  1.0384  0.0230  0.6971
 2722TIP3    H1 8130   0.609   6.849   4.832 -0.7456 -0.5048 -0.5245
 2722TIP3    H2 8131   0.601   6.715   4.764  0.7251 -1.8257  1.7369
 2723TIP3   OH2 8132   4.777   5.295   2.172 -0.1593  0.2915  0.1305
 2723TIP3    H1 8133   4.700   5.266   2.221 -0.3034 -1.0244 -0.8304
 2723TIP3    H2 8134   4.851   5.261   2.221 -0.2793 -0.4647 -0.2099
 2724TIP3   OH2 8135   4.386   4.963   0.925  0.1167  0.1415 -0.1096
 2724TIP3    H1 8136   4.468   4.972   0.877  0.3280  0.3353  0.2832
 2724TIP3    H2 8137   4.326   5.022   0.880  0.3137  0.3186 -0.1413
 2725TIP3   OH2 8138   1.684   2.036   5.489  0.4638 -0.7746  0.1108
 2725TIP3    H1 8139   1.642   2.095   5.426 -0.6674 -2.3548 -0.7087
 2725TIP3    H2 8140   1.732   2.094   5.548  0.0703  0.8907 -1.1143
 2726TIP3   OH2 8141   6.330   6.801   5.200 -0.5375 -0.1211  0.2258
 2726TIP3    H1 8142   6.402   6.842   5.248 -0.9798  3.5126 -1.9164
 2726TIP3    H2 8143   6.333   6.709   5.228  3.8786  0.1411  1.4209
 2727TIP3   OH2 8144   1.294   5.537   5.669  0.2681  0.1019 -0.4353
 2727TIP3    H1 8145   1.354   5.612   5.678 -0.0309  0.2889  0.0192
 2727TIP3    H2 8146   1.231   5.548   5.740 -0.0859 -0.3016 -0.6845
 2728TIP3   OH2 8147   0.800   4.931   4.460 -0.3749  0.3421 -0.9048
 2728TIP3    H1 8148   0.718   4.899   4.424 -2.1859  2.6963  0.8118
 2728TIP3    H2 8149   0.826   4.866   4.525 -0.0774 -1.0981 -2.4076
 2729TIP3   OH2 8150   1.500   4.836   5.185 -0.7462 -0.1956  0.2000
 2729TIP3    H1 8151   1.474   4.886   5.262 -0.1778  0.0083  0.2666
 2729TIP3    H2 8152   1.522   4.749   5.218  1.0946  0.3555  0.5411
 2730TIP3   OH2 8153   3.722   5.789   0.816 -0.1775  0.1568 -0.1480
 2730TIP3    H1 8154   3.715   5.746   0.731  1.2368 -0.2007 -0.1057
 2730TIP3    H2 8155   3.758   5.721   0.874 -0.4352  0.6141  0.5542
 2731TIP3   OH2 8156   2.318   6.001   0.407  0.1547  0.5911  0.3707
 2731TIP3    H1 8157   2.363   6.081   0.381  1.5338 -0.0888  0.5403
 2731TIP3    H2 8158   2.385   5.951   0.454 -0.9644 -0.2227  1.1514
 2732TIP3   OH2 8159   3.206   4.577   2.301  0.1525  0.4103  0.1228
 2732TIP3    H1 8160   3.188   4.538   2.387 -0.4711 -0.1186 -0.2450
 2732TIP3    H2 8161   3.301   4.571   2.291  0.0215 -1.5753 -0.1850
 2733TIP3   OH2 8162   2.073   3.267   0.430 -0.3087  0.5837  0.2544
 2733TIP3    H1 8163   2.096   3.206   0.500  2.4290  1.1875 -0.0109
 2733TIP3    H2 8164   2.111   3.228   0.351 -1.3198  1.0781 -0.5081
 2734TIP3   OH2 8165   4.708   4.067   3.248 -0.0012 -0.2077 -0.3966
 2734TIP3    H1 8166   4.719   4.039   3.157 -0.1717 -0.2573 -0.4020
 2734TIP3    H2 8167   4.618   4.043   3.270 -0.5351  1.3555 -0.7544
 2735TIP3   OH2 8168   3.253   2.523   3.354 -0.1410 -0.0470  0.7207
 2735TIP3    H1 8169   3.217   2.500   3.440 -1.5570  1.5481  0.6006
 2735TIP3    H2 8170   3.261   2.618   3.356  0.9133 -0.0892 -0.5082
 2736TIP3   OH2 8171   2.754   1.729   2.456  0.1554 -0.0613  0.1552
 2736TIP3    H1 8172   2.660   1.727   2.438  0.4876  0.2325 -1.8391
 2736TIP3    H2 8173   2.774   1.821   2.472  0.1498 -0.0993  0.3932
 2737TIP3   OH2 8174   5.626   5.897   3.265  0.2828 -0.4389  0.4330
 2737TIP3    H1 8175   5.548   5.846   3.286  1.1092 -0.9362  2.6295
 2737TIP3    H2 8176   5.593   5.975   3.219 -1.3346 -1.3067  0.0711
 2738TIP3   OH2 8177   0.916   3.834   2.192  0.0993  0.8300 -0.0251
 2738TIP3    H1 8178   0.917   3.845   2.097  0.5490  1.7640  0.0786
 2738TIP3    H2 8179   0.908   3.923   2.226 -0.0193  0.5034  0.8177
 2739TIP3   OH2 8180   0.759   0.236   4.591 -0.2763 -0.0957 -0.2706
 2739TIP3    H1 8181   0.714   0.302   4.539  1.8992  0.3036 -1.7952
 2739TIP3    H2 8182   0.804   0.181   4.527  2.1098  0.1128  1.0966
 2740TIP3   OH2 8183   1.177   0.493   0.038  0.4199  0.2213  0.1039
 2740TIP3    H1 8184   1.204   0.403   0.057  1.1968  0.6985  1.3069
 2740TIP3    H2 8185   1.138   0.488  -0.050  0.8954 -1.1934 -0.0428
 2741TIP3   OH2 8186   5.553   0.702   0.153  0.0206 -0.1989  0.1602
 2741TIP3    H1 8187   5.532   0.790   0.184 -1.0366 -0.5664  0.5242
 2741TIP3    H2 8188   5.530   0.645   0.227 -2.9191 -1.1558 -1.3486
 2742TIP3   OH2 8189   3.911   1.549   2.555 -0.1034  0.4070 -0.1313
 2742TIP3    H1 8190   3.868   1.597   2.626 -0.2134 -0.0996  0.1456
 2742TIP3    H2 8191   3.927   1.616   2.488 -0.9271  0.6947 -0.0597
 2743TIP3   OH2 8192   0.089   5.090   4.130  0.1467 -0.1738 -0.4833
 2743TIP3    H1 8193   0.082   5.182   4.104  0.5097 -0.3802 -1.3625
 2743TIP3    H2 8194   0.053   5.087   4.219  0.7297  0.9332 -0.1910
 2744TIP3   OH2 8195   3.881   2.059   4.980  0.2530  0.3694 -0.0881
 2744TIP3    H1 8196   3.945   2.130   4.981  1.7307 -0.9184 -0.7073
 2744TIP3    H2 8197   3.841   2.063   4.893  0.9110 -0.0299 -0.4183
 2745TIP3   OH2 8198   2.298   6.611   5.077 -0.2584 -0.1228  0.3810
 2745TIP3    H1 8199   2.280   6.701   5.103  0.1188 -0.1338  0.6931
 2745TIP3    H2 8200   2.270   6.558   5.152 -0.9335 -0.3066  0.0069
 2746TIP3   OH2 8201   4.537   2.441   2.218 -0.3931  0.2349 -0.1045
 2746TIP3    H1 8202   4.584   2.488   2.288 -0.2140 -0.2988  0.1460
 2746TIP3    H2 8203   4.593   2.365   2.200  0.0316  0.8616 -1.4971
 2747TIP3   OH2 8204   3.811   4.598   1.454  0.4313 -0.1888  0.0449
 2747TIP3    H1 8205   3.828   4.604   1.548 -0.6151 -0.5323  0.2626
 2747TIP3    H2 8206   3.892   4.629   1.414  0.6596  0.5871  1.0534
 2748TIP3   OH2 8207   4.215   2.335   3.215 -0.6902 -0.3188  0.1462
 2748TIP3    H1 8208   4.214   2.428   3.239  1.4714  0.2940 -1.8102
 2748TIP3    H2 8209   4.176   2.333   3.127 -1.7805 -1.4547  0.6328
 2749TIP3   OH2 8210   4.635   5.798   4.964 -0.2537  0.2652 -0.2489
 2749TIP3    H1 8211   4.621   5.801   5.059  1.4912  2.1613  0.0262
 2749TIP3    H2 8212   4.719   5.754   4.954 -1.3328 -1.6939 -1.1029
 2750TIP3   OH2 8213   1.298   4.644   2.409  0.1022  0.3086  0.0532
 2750TIP3    H1 8214   1.239   4.706   2.367 -0.2754  0.0861  0.2422
 2750TIP3    H2 8215   1.368   4.630   2.346 -1.2765 -1.2694 -1.2235
 2751TIP3   OH2 8216   0.233   1.373   2.646 -0.4057  0.2611 -0.1436
 2751TIP3    H1 8217   0.265   1.316   2.576 -0.9974 -0.3529  0.0675
 2751TIP3    H2 8218   0.174   1.434   2.601  2.0363  2.3053 -0.7614
 2752TIP3   OH2 8219   0.409   1.907   3.067 -0.5528  0.3111  0.1406
 2752TIP3    H1 8220   0.390   1.819   3.036  2.0670 -0.1830 -0.3234
 2752TIP3    H2 8221   0.473   1.895   3.137 -1.2930  1.7876  1.1361
 2753TIP3   OH2 8222   7.063   5.535   0.222 -0.1049 -0.0393  0.0469
 2753TIP3    H1 8223   7.085   5.609   0.166  1.8349 -0.6881 -0.1315
 2753TIP3    H2 8224   6.996   5.487   0.173  1.6347 -0.6578 -1.8494
 2754TIP3   OH2 8225   2.956   2.723   1.801 -0.0319  0.2295 -0.3300
 2754TIP3    H1 8226   2.970   2.810   1.763 -1.1378  0.9107  0.7523
 2754TIP3    H2 8227   2.954   2.738   1.895 -0.8682 -0.8735 -0.1555
 2755TIP3   OH2 8228   6.489   1.297   5.079  0.4372 -0.1109 -0.1127
 2755TIP3    H1 8229   6.506   1.382   5.120 -0.3180 -1.1179  2.4792
 2755TIP3    H2 8230   6.399   1.305   5.045  0.2964  0.0816  0.2912
 2756TIP3   OH2 8231   1.496   0.447   4.166 -0.5226 -0.2360  0.4213
 2756TIP3    H1 8232   1.473   0.539   4.152  0.5870  0.3340  2.0147
 2756TIP3    H2 8233   1.443   0.399   4.102 -2.7664  1.3236  0.9754
 2757TIP3   OH2 8234   3.666   5.186   0.719  0.0293 -0.1169 -0.6988
 2757TIP3    H1 8235   3.714   5.259   0.680  0.3215  1.2569  2.0054
 2757TIP3    H2 8236   3.735   5.128   0.752 -0.1769 -0.1633 -0.3452
 2758TIP3   OH2 8237   3.007   1.380   0.404 -0.6453  0.4039  0.5659
 2758TIP3    H1 8238   2.932   1.352   0.456 -0.8788  1.1065  0.6175
 2758TIP3    H2 8239   3.081   1.373   0.464 -0.6933 -0.0907  0.5756
 2759TIP3   OH2 8240   0.232   0.072   3.377  0.3083  0.2960  0.4280
 2759TIP3    H1 8241   0.210   0.127   3.453  2.6489  1.3674  0.4040
 2759TIP3    H2 8242   0.205   0.125   3.302 -0.7103 -0.1624  0.4524
 2760TIP3   OH2 8243   7.122   0.165   0.441  0.0801  0.1764  0.0820
 2760TIP3    H1 8244   7.087   0.140   0.527 -1.0905  0.2999 -0.3445
 2760TIP3    H2 8245   7.217   0.171   0.455 -0.0585 -0.1167  1.2838
 2761TIP3   OH2 8246   2.076   4.815   3.352 -0.1867 -0.1093  0.2414
 2761TIP3    H1 8247   2.110   4.778   3.271 -1.5147 -0.6282 -0.0991
 2761TIP3    H2 8248   1.983   4.829   3.335 -0.4218  0.0696  1.5708
 2762TIP3   OH2 8249   1.027   0.890   5.633 -0.6543 -0.1582  0.3618
 2762TIP3    H1 8250   1.044   0.829   5.562 -1.0191  0.1946 -0.0387
 2762TIP3    H2 8251   1.110   0.898   5.680 -0.3903 -0.3266 -0.0795
 2763TIP3   OH2 8252   5.686   3.922   0.083 -0.1520 -0.0598  0.0151
 2763TIP3    H1 8253   5.780   3.936   0.091  0.0382 -0.8764 -0.6543
 2763TIP3    H2 8254   5.669   3.925  -0.012 -0.6098 -1.0077  0.0540
 2764TIP3   OH2 8255   5.228   4.990   5.472  0.1493 -0.4965  0.1227
 2764TIP3    H1 8256   5.313   5.012   5.434 -0.0065  0.4996  0.3303
 2764TIP3    H2 8257   5.178   4.951   5.400  0.1352  0.6366 -0.4892
 2765TIP3   OH2 8258   6.104   5.459   3.387 -0.4891 -0.0042  0.3680
 2765TIP3    H1 8259   6.033   5.408   3.347  0.0676  0.4530 -1.2825
 2765TIP3    H2 8260   6.066   5.546   3.401 -1.2896 -0.6633  2.7415
 2766TIP3   OH2 8261   6.130   0.384   0.866 -0.0352 -0.0815 -0.2181
 2766TIP3    H1 8262   6.223   0.405   0.868  0.1681 -0.9662 -0.0162
 2766TIP3    H2 8263   6.095   0.422   0.947 -0.0591  1.1020 -0.7559
 2767TIP3   OH2 8264   3.423   1.849   2.554  0.1326  0.1411  0.3630
 2767TIP3    H1 8265   3.384   1.887   2.476  1.1709 -1.0953 -0.8005
 2767TIP3    H2 8266   3.432   1.922   2.615 -1.1407  1.0299 -0.4711
 2768TIP3   OH2 8267   6.701   5.075   1.473  0.5015  0.9650  0.1884
 2768TIP3    H1 8268   6.619   5.050   1.515 -1.9536  1.0843 -3.9587
 2768TIP3    H2 8269   6.744   4.991   1.451  0.8404  0.8734  1.1727
 2769TIP3   OH2 8270   0.217   2.090   1.852 -0.4233 -0.0835 -0.3145
 2769TIP3    H1 8271   0.229   2.121   1.942  0.1653  0.1516 -0.4703
 2769TIP3    H2 8272   0.265   2.153   1.798 -1.7347  0.4573 -0.9113
 2770TIP3   OH2 8273   4.431   0.860   2.674  0.2151 -0.2496  0.4376
 2770TIP3    H1 8274   4.470   0.878   2.588  0.2868 -0.4085  0.4362
 2770TIP3    H2 8275   4.371   0.787   2.658 -1.1665  0.9060  0.1430
 2771TIP3   OH2 8276   4.607   5.323   0.050  0.5172  0.1415 -0.0886
 2771TIP3    H1 8277   4.667   5.313   0.124 -0.6538 -0.3596  0.8254
 2771TIP3    H2 8278   4.570   5.236   0.038 -1.1141  0.7501  0.3468
 2772TIP3   OH2 8279   2.563   1.569   5.063 -0.5232  0.0167 -0.1715
 2772TIP3    H1 8280   2.561   1.644   5.003  0.3096 -0.3037 -0.6262
 2772TIP3    H2 8281   2.521   1.600   5.142 -0.6072  0.8230 -0.5255
 2773TIP3   OH2 8282   3.194   2.815   1.351  0.8673 -0.3747  0.5970
 2773TIP3    H1 8283   3.106   2.789   1.377  1.1157 -1.3307  0.4979
 2773TIP3    H2 8284   3.182   2.898   1.305  0.0107 -0.5292  0.5307
 2774TIP3   OH2 8285   6.306   3.778   1.822  0.1945  0.2474 -0.7323
 2774TIP3    H1 8286   6.309   3.698   1.875  0.8856  1.3132  0.9142
 2774TIP3    H2 8287   6.308   3.849   1.886 -1.9048  1.6329 -2.0567
 2775TIP3   OH2 8288   6.173   3.908   2.949 -0.2954  0.3874 -0.0572
 2775TIP3    H1 8289   6.176   3.813   2.965 -0.9080  0.3888  0.1006
 2775TIP3    H2 8290   6.083   3.933   2.972 -1.4416  0.3394 -3.8198
 2776TIP3   OH2 8291   2.621   3.594   1.241  0.3550  0.0239  0.4791
 2776TIP3    H1 8292   2.629   3.573   1.148 -0.9530  1.7769 -0.0886
 2776TIP3    H2 8293   2.640   3.688   1.245 -0.6345  0.1900  1.8106
 2777TIP3   OH2 8294   6.829   1.453   5.451  0.2664 -0.0425 -0.3163
 2777TIP3    H1 8295   6.885   1.386   5.490  0.2756 -0.7636 -1.5459
 2777TIP3    H2 8296   6.874   1.478   5.371  0.3562  1.5811  0.2027
 2778TIP3   OH2 8297   5.449   3.270   1.191 -0.3035 -0.0153  0.2092
 2778TIP3    H1 8298   5.530   3.222   1.175  0.2205  0.9015 -0.0097
 2778TIP3    H2 8299   5.416   3.291   1.103 -0.4458  0.1399  0.2987
 2779TIP3   OH2 8300   1.367   0.152   2.936 -0.7827  0.3236  0.0241
 2779TIP3    H1 8301   1.393   0.060   2.934 -1.6180  0.0715  0.5544
 2779TIP3    H2 8302   1.369   0.179   2.844 -1.5444 -0.5144 -0.2540
 2780TIP3   OH2 8303   2.406   3.205   0.143  0.0677  0.2652 -0.0891
 2780TIP3    H1 8304   2.423   3.297   0.163  0.4036 -0.2364  2.2864
 2780TIP3    H2 8305   2.491   3.169   0.118  0.1325  0.3912 -0.0466
 2781TIP3   OH2 8306   6.426   1.754   1.503 -0.2808 -0.5589 -0.4478
 2781TIP3    H1 8307   6.517   1.725   1.498 -0.8799 -2.4667 -1.0881
 2781TIP3    H2 8308   6.387   1.725   1.421 -1.3682  0.6415 -0.3853
 2782TIP3   OH2 8309   3.739   1.054   4.364 -0.0890  0.4549  0.2044
 2782TIP3    H1 8310   3.678   1.049   4.437 -1.3644 -0.5900 -0.8743
 2782TIP3    H2 8311   3.817   1.098   4.399 -1.7787  2.6519  1.4180
 2783TIP3   OH2 8312   0.280   6.568   1.953 -0.4229  0.4824  0.3240
 2783TIP3    H1 8313   0.363   6.544   1.912  0.2197  2.3508  0.4577
 2783TIP3    H2 8314   0.216   6.510   1.911  0.7361 -0.0773 -0.7585
 2784TIP3   OH2 8315   2.931   3.702   0.416  0.0681 -0.0351 -0.4961
 2784TIP3    H1 8316   2.998   3.759   0.454 -0.6116 -0.3427  1.2530
 2784TIP3    H2 8317   2.964   3.681   0.328  2.5707 -0.6696  0.5159
 2785TIP3   OH2 8318   1.821   6.472   2.815 -0.5905  0.5285 -0.3473
 2785TIP3    H1 8319   1.872   6.533   2.760  1.1536  0.0162  0.6210
 2785TIP3    H2 8320   1.860   6.480   2.902 -2.3039  0.1983  0.4952
 2786TIP3   OH2 8321   5.894   5.661   0.475  0.1835  0.4335 -0.1565
 2786TIP3    H1 8322   5.905   5.711   0.556 -1.0999 -1.2766  1.1624
 2786TIP3    H2 8323   5.954   5.587   0.485  1.8985  1.5008 -1.9796
 2787TIP3   OH2 8324   0.199   5.455   5.308  0.1850  0.4435  0.3323
 2787TIP3    H1 8325   0.254   5.404   5.367 -1.2316  0.7574  2.0276
 2787TIP3    H2 8326   0.229   5.545   5.319 -0.0084  0.4882  0.5064
 2788TIP3   OH2 8327   6.465   0.817   3.811  0.3621  0.4794 -0.0279
 2788TIP3    H1 8328   6.493   0.863   3.890  0.0084  1.0879 -0.2450
 2788TIP3    H2 8329   6.488   0.875   3.739 -2.3245  1.5371 -0.1648
 2789TIP3   OH2 8330   1.706   4.610   0.950 -0.2381 -0.1151  0.0968
 2789TIP3    H1 8331   1.783   4.584   0.898 -0.9837  1.2361 -1.8067
 2789TIP3    H2 8332   1.635   4.613   0.886 -1.6628 -0.2575  1.6187
 2790TIP3   OH2 8333   6.728   5.969   3.561 -0.3504 -0.0613  0.6302
 2790TIP3    H1 8334   6.664   5.898   3.567  0.8007 -1.0182  2.4137
 2790TIP3    H2 8335   6.809   5.926   3.532 -0.4118  1.1029 -1.4492
 2791TIP3   OH2 8336   3.499   1.338   5.017 -0.1536  0.0914 -0.0975
 2791TIP3    H1 8337   3.410   1.328   4.984 -0.7114 -0.4423  1.4607
 2791TIP3    H2 8338   3.555   1.298   4.950 -1.2023 -0.8015 -0.4612
 2792TIP3   OH2 8339   5.670   3.285   0.458 -0.5259  0.0249  0.4589
 2792TIP3    H1 8340   5.695   3.205   0.505 -2.5658  0.1995  2.0300
 2792TIP3    H2 8341   5.579   3.300   0.485 -0.6384  2.1245 -0.8861
 2793TIP3   OH2 8342   4.583   0.042   1.974 -0.3968  0.2100  0.2055
 2793TIP3    H1 8343   4.499   0.014   2.010  0.4022 -0.4375  1.6105
 2793TIP3    H2 8344   4.640  -0.034   1.983 -0.3516 -0.3971 -3.3687
 2794TIP3   OH2 8345   5.255   3.980   0.686  0.8501  0.5174  0.2232
 2794TIP3    H1 8346   5.201   3.980   0.607  1.7610 -1.1439 -0.4540
 2794TIP3    H2 8347   5.330   3.925   0.664  0.2689 -1.5256  2.7956
 2795TIP3   OH2 8348   5.289   5.560   0.161 -0.4062  0.0997 -0.1888
 2795TIP3    H1 8349   5.261   5.648   0.187  0.9070  0.4592  0.0549
 2795TIP3    H2 8350   5.255   5.551   0.071  0.3281  1.2802 -0.6144
 2796TIP3   OH2 8351   0.230   2.114   4.411 -0.4570 -0.3275  0.0217
 2796TIP3    H1 8352   0.263   2.139   4.325 -1.8170  0.4693 -0.2955
 2796TIP3    H2 8353   0.307   2.083   4.459 -0.0926 -4.0499 -2.5561
 2797TIP3   OH2 8354   6.570   0.452   3.401  0.1209 -0.8321  0.1903
 2797TIP3    H1 8355   6.538   0.451   3.492  1.5702  0.8870  0.7712
 2797TIP3    H2 8356   6.499   0.492   3.352 -0.5139 -1.3998  0.6197
 2798TIP3   OH2 8357   1.573   3.752   3.904 -0.7776  0.1354 -0.1504
 2798TIP3    H1 8358   1.490   3.738   3.859 -1.3285  2.0907  0.1684
 2798TIP3    H2 8359   1.630   3.793   3.839 -1.3121  2.2113  0.5989
 2799TIP3   OH2 8360   5.407   0.667   3.855  0.0744 -0.1910 -0.1074
 2799TIP3    H1 8361   5.411   0.622   3.940  0.8442  0.5777  0.2762
 2799TIP3    H2 8362   5.317   0.654   3.826  0.0359 -1.2127  0.4111
 2800TIP3   OH2 8363   5.295   2.272   1.368 -0.3989  0.1246  0.2894
 2800TIP3    H1 8364   5.365   2.336   1.366 -0.1127 -0.1788  0.4624
 2800TIP3    H2 8365   5.241   2.298   1.443 -0.7318  0.6249 -0.1190
 2801TIP3   OH2 8366   5.001   4.817   3.435 -0.0754  0.5244 -0.2297
 2801TIP3    H1 8367   5.052   4.885   3.479  0.7343 -0.0964 -0.1919
 2801TIP3    H2 8368   5.028   4.735   3.477  0.5288 -0.0577 -1.7052
 2802TIP3   OH2 8369   2.768   6.319   1.772  0.2227  0.1913  0.0788
 2802TIP3    H1 8370   2.776   6.252   1.703 -0.4181  0.7125 -0.5109
 2802TIP3    H2 8371   2.694   6.372   1.745  0.6751  1.0987  0.5869
 2803TIP3   OH2 8372   5.275   3.572   0.657  0.3777 -0.5162  0.7446
 2803TIP3    H1 8373   5.293   3.643   0.595  0.1167 -1.3098 -0.2627
 2803TIP3    H2 8374   5.209   3.607   0.716 -0.9319 -0.4451 -0.7223
 2804TIP3   OH2 8375   6.006   1.810   1.289 -0.0535  0.4049  0.4389
 2804TIP3    H1 8376   5.958   1.727   1.287  0.7919 -0.1018  0.5389
 2804TIP3    H2 8377   5.959   1.864   1.353 -0.4491 -0.0956  0.5788
 2805TIP3   OH2 8378   5.658   6.278   4.107  0.3060 -0.5319  0.1422
 2805TIP3    H1 8379   5.567   6.305   4.103 -0.1057 -1.8408  0.1838
 2805TIP3    H2 8380   5.703   6.349   4.152 -0.1853  1.3632 -2.1580
 2806TIP3   OH2 8381   4.176   0.948   2.264 -0.2503 -0.2347 -0.1170
 2806TIP3    H1 8382   4.189   1.033   2.222 -0.1823 -0.6765 -1.0078
 2806TIP3    H2 8383   4.120   0.967   2.339  0.1290  0.6660 -0.0496
 2807TIP3   OH2 8384   6.494   0.078   0.636 -0.0418 -0.0299 -0.0104
 2807TIP3    H1 8385   6.481   0.053   0.727 -0.9136  2.8364  0.7442
 2807TIP3    H2 8386   6.408   0.107   0.606  0.0573 -1.5561 -2.0269
 2808TIP3   OH2 8387   5.853   0.689   4.661  0.1192 -0.0306 -0.2242
 2808TIP3    H1 8388   5.804   0.694   4.743 -2.1850  0.7030 -1.5761
 2808TIP3    H2 8389   5.914   0.616   4.674 -2.1286 -1.7739  1.1325
 2809TIP3   OH2 8390   6.388   0.829   5.797  0.2572 -0.1684 -0.3601
 2809TIP3    H1 8391   6.481   0.849   5.800  0.2599 -0.3142  0.8078
 2809TIP3    H2 8392   6.345   0.907   5.832  0.0114 -0.5566  0.2071
 2810TIP3   OH2 8393   3.995   4.928   0.262 -0.2316 -0.1838 -0.4665
 2810TIP3    H1 8394   4.080   4.971   0.263 -0.1563 -0.3433 -0.0350
 2810TIP3    H2 8395   4.007   4.849   0.315 -0.6139 -0.2715 -0.5054
 2811TIP3   OH2 8396   4.819   2.249   0.133  0.6426 -0.6130 -0.4416
 2811TIP3    H1 8397   4.872   2.183   0.088 -0.8810 -0.8080 -2.0650
 2811TIP3    H2 8398   4.780   2.202   0.207 -0.4266 -1.5841 -1.5829
 2812TIP3   OH2 8399   6.216   4.402   3.671 -0.2973 -0.7823 -0.0094
 2812TIP3    H1 8400   6.233   4.368   3.759 -0.3002 -0.0337  0.2851
 2812TIP3    H2 8401   6.293   4.455   3.650 -0.0757 -1.3332 -0.6637
 2813TIP3   OH2 8402   6.166   1.117   4.419 -0.3430 -0.3199 -0.0794
 2813TIP3    H1 8403   6.158   1.212   4.430  0.4250 -0.0436 -1.6142
 2813TIP3    H2 8404   6.076   1.085   4.420 -0.5511  0.1948  2.0133
 2814TIP3   OH2 8405   6.506   1.164   4.518 -0.2804  0.3323  0.0477
 2814TIP3    H1 8406   6.472   1.075   4.513 -1.0814  0.6899 -1.4009
 2814TIP3    H2 8407   6.517   1.180   4.612 -1.8726 -0.6525  0.4473
 2815TIP3   OH2 8408   5.671   3.765   3.151 -0.6758 -0.0594 -0.0834
 2815TIP3    H1 8409   5.637   3.732   3.068  0.0763 -0.2376 -0.3296
 2815TIP3    H2 8410   5.625   3.848   3.165 -0.4789  0.2002 -0.9136
 2816TIP3   OH2 8411   4.076   0.375   1.180  0.1625  0.6785 -0.3906
 2816TIP3    H1 8412   4.029   0.326   1.247  0.1572 -0.5716 -1.2687
 2816TIP3    H2 8413   4.013   0.385   1.108  0.0333  2.3536 -0.0832
 2817TIP3   OH2 8414   3.512   3.201   2.314  0.7732 -0.0131  0.2191
 2817TIP3    H1 8415   3.474   3.214   2.401 -0.6139 -0.2194 -0.3262
 2817TIP3    H2 8416   3.521   3.106   2.306  0.9994  0.0113  0.1755
 2818TIP3   OH2 8417   5.521   2.478   3.817  0.0247 -0.2733 -0.3800
 2818TIP3    H1 8418   5.538   2.420   3.891  1.0822 -0.1259 -0.4882
 2818TIP3    H2 8419   5.508   2.564   3.856  3.3556  0.3786 -0.4588
 2819TIP3   OH2 8420   4.461   3.990   3.109 -0.0489  0.0040 -0.5087
 2819TIP3    H1 8421   4.464   4.084   3.094  0.5324  0.0033 -0.4065
 2819TIP3    H2 8422   4.368   3.968   3.104 -0.2430  0.6757  0.0663
 2820TIP3   OH2 8423   0.837   0.798   1.548 -0.9153 -0.6244 -0.0811
 2820TIP3    H1 8424   0.829   0.867   1.482 -0.1506 -1.0007 -0.5779
 2820TIP3    H2 8425   0.747   0.766   1.560 -1.5805  1.6247  1.4502
 2821TIP3   OH2 8426   7.205   2.345   5.525  0.8229 -0.0994 -0.3495
 2821TIP3    H1 8427   7.137   2.406   5.553  1.7373  0.8079 -0.0261
 2821TIP3    H2 8428   7.173   2.259   5.551  0.5729  0.4849  1.3438
 2822TIP3   OH2 8429   4.665   2.536   2.874  0.2898 -0.4077  0.2567
 2822TIP3    H1 8430   4.652   2.604   2.940 -1.9427 -1.0568  0.5647
 2822TIP3    H2 8431   4.759   2.539   2.855  0.5582  1.5146  1.5718
 2823TIP3   OH2 8432   1.214   4.781   0.440  0.1185  0.5272  0.3759
 2823TIP3    H1 8433   1.195   4.699   0.487 -0.6960  0.2520 -0.3898
 2823TIP3    H2 8434   1.215   4.848   0.508  0.2047 -0.0328  0.9406
 2824TIP3   OH2 8435   2.319   5.564   2.959  0.6492 -0.3695 -0.3749
 2824TIP3    H1 8436   2.319   5.659   2.955  0.7467 -0.3652 -0.2966
 2824TIP3    H2 8437   2.316   5.536   2.868 -1.6325 -0.3123 -0.3755
 2825TIP3   OH2 8438   5.085   5.417   3.418  0.1269  0.5136  0.3588
 2825TIP3    H1 8439   5.061   5.392   3.507 -0.1701 -0.8341 -0.0818
 2825TIP3    H2 8440   5.147   5.489   3.429  1.5822 -0.8919  1.7186
 2826TIP3   OH2 8441   5.279   5.506   0.601 -0.0272 -0.4557  0.0316
 2826TIP3    H1 8442   5.261   5.484   0.509 -1.4975  0.6175  0.0201
 2826TIP3    H2 8443   5.347   5.444   0.628  0.5715 -0.6705 -1.8338
 2827TIP3   OH2 8444   2.471   1.482   0.173  0.3720  0.4854  0.7393
 2827TIP3    H1 8445   2.537   1.466   0.105 -2.3424 -1.1605 -1.7491
 2827TIP3    H2 8446   2.436   1.395   0.193 -0.4337  1.2032  2.6470
 2828TIP3   OH2 8447   4.989   0.071   4.999 -0.2713 -0.2734 -0.2600
 2828TIP3    H1 8448   5.000   0.162   4.972 -1.1422 -0.4647 -1.3108
 2828TIP3    H2 8449   5.001   0.073   5.094  0.1218  0.8597 -0.3135
 2829TIP3   OH2 8450   6.441   1.717   3.003 -0.8546 -0.5140 -0.4024
 2829TIP3    H1 8451   6.419   1.792   3.057 -1.3133 -0.1578 -1.0686
 2829TIP3    H2 8452   6.518   1.678   3.045 -1.1323 -0.1757  0.4194
 2830TIP3   OH2 8453   7.063   2.188   1.450 -0.4539  0.4843  0.3819
 2830TIP3    H1 8454   7.099   2.254   1.391 -1.0784 -2.0746 -3.2123
 2830TIP3    H2 8455   6.968   2.199   1.445 -0.4946  0.9481  1.8763
 2831TIP3   OH2 8456   0.960   0.175   2.525 -0.5431  0.3848  0.1169
 2831TIP3    H1 8457   1.018   0.129   2.586 -0.2753 -0.2429 -0.5911
 2831TIP3    H2 8458   0.885   0.201   2.578  0.0628  0.5976  0.8973
 2832TIP3   OH2 8459   4.651   1.294   2.024  0.7603  0.1529  0.0211
 2832TIP3    H1 8460   4.697   1.331   2.099  1.1366 -0.4639  0.1005
 2832TIP3    H2 8461   4.560   1.289   2.052  0.4290  2.3410 -0.5059
 2833TIP3   OH2 8462   0.428   1.325   2.438  0.0455  0.2372 -0.0562
 2833TIP3    H1 8463   0.518   1.318   2.470  0.3030  1.6305 -0.4339
 2833TIP3    H2 8464   0.437   1.326   2.343 -0.3498  0.6520 -0.0875
 2834TIP3   OH2 8465   3.394   3.985   3.888 -0.1376  0.1664 -0.2132
 2834TIP3    H1 8466   3.430   3.898   3.905  0.3102  0.5784  1.0497
 2834TIP3    H2 8467   3.471   4.043   3.882 -0.4555  0.5800 -0.3711
 2835TIP3   OH2 8468   5.180   5.399   3.159  0.3405  0.8627  0.1139
 2835TIP3    H1 8469   5.126   5.404   3.237  0.8886 -0.7749  0.6287
 2835TIP3    H2 8470   5.254   5.344   3.184  0.1526 -0.3262 -1.7433
 2836TIP3   OH2 8471   1.542   2.732   0.920 -0.5872 -0.1117 -0.1257
 2836TIP3    H1 8472   1.531   2.810   0.866  0.2000  1.0137  1.2611
 2836TIP3    H2 8473   1.636   2.725   0.933 -0.8210  0.6096  2.3832
 2837TIP3   OH2 8474   5.262   3.867   3.056 -0.0932 -0.1413  0.1575
 2837TIP3    H1 8475   5.215   3.924   3.116 -0.4769 -0.9384  0.6291
 2837TIP3    H2 8476   5.224   3.887   2.970  1.6056  2.1977 -0.1236
 2838TIP3   OH2 8477   1.581   3.693   0.698 -0.4060 -0.0636 -0.6340
 2838TIP3    H1 8478   1.604   3.697   0.791 -0.1288 -0.5545 -0.6826
 2838TIP3    H2 8479   1.612   3.608   0.669 -0.5881  0.0461 -1.1548
 2839TIP3   OH2 8480   0.323   1.203   4.338  0.0228  0.8719  0.1865
 2839TIP3    H1 8481   0.312   1.212   4.433 -1.7611 -0.3129  0.1446
 2839TIP3    H2 8482   0.276   1.278   4.301  0.5212  1.2065  0.2247
 2840TIP3   OH2 8483   4.749   1.695   0.642 -0.4052 -0.7515  0.2623
 2840TIP3    H1 8484   4.831   1.727   0.604  1.4920 -2.0036  3.0286
 2840TIP3    H2 8485   4.708   1.774   0.678  0.8664 -0.4281  1.0649
 2841TIP3   OH2 8486   3.137   5.947   4.496 -0.2237  0.0513 -0.1839
 2841TIP3    H1 8487   3.046   5.933   4.471 -0.3493  1.4568 -0.6005
 2841TIP3    H2 8488   3.136   6.028   4.547  0.9483  0.8058 -1.2862
 2842TIP3   OH2 8489   0.088   4.093   4.771  0.1563 -0.1761  0.3478
 2842TIP3    H1 8490   0.153   4.026   4.748 -1.4267 -1.6990  0.1369
 2842TIP3    H2 8491   0.094   4.157   4.700  1.4153 -0.2905  0.3284
 2843TIP3   OH2 8492   2.363   1.130   3.759 -0.6799 -0.2693 -0.2010
 2843TIP3    H1 8493   2.345   1.041   3.789 -2.0587 -0.1948 -0.7185
 2843TIP3    H2 8494   2.284   1.179   3.781 -1.1575  0.1282 -2.5443
 2844TIP3   OH2 8495   1.840   5.360   5.605 -0.0728  0.1547  0.3709
 2844TIP3    H1 8496   1.776   5.430   5.614  0.1164  0.2568  0.9561
 2844TIP3    H2 8497   1.851   5.350   5.511  0.5552  1.5068  0.2876
 2845TIP3   OH2 8498   2.083   1.914   4.271  0.1791  0.1166 -0.7952
 2845TIP3    H1 8499   2.119   1.913   4.182  0.2206 -0.2377 -0.7770
 2845TIP3    H2 8500   2.147   1.962   4.322 -0.7102  1.9404 -1.3092
 2846TIP3   OH2 8501   0.194   2.782   2.412 -0.8282  0.1843  0.4273
 2846TIP3    H1 8502   0.273   2.728   2.402 -1.8678 -1.0037 -2.3441
 2846TIP3    H2 8503   0.215   2.863   2.367 -0.5736  0.6408  1.3419
 2847TIP3   OH2 8504   3.411   5.443   1.077 -0.0984 -0.1588 -0.0343
 2847TIP3    H1 8505   3.385   5.503   1.147 -1.2377 -0.3128 -0.2927
 2847TIP3    H2 8506   3.432   5.500   1.003  0.6152 -0.0164  0.2712
 2848TIP3   OH2 8507   5.209   1.298   4.739 -0.1675 -0.2355 -0.9360
 2848TIP3    H1 8508   5.259   1.217   4.739 -0.1934 -0.2680 -2.3360
 2848TIP3    H2 8509   5.231   1.340   4.823 -1.0551 -2.2028  0.3537
 2849TIP3   OH2 8510   3.472   0.686   5.018  0.1289 -0.1389  0.5070
 2849TIP3    H1 8511   3.489   0.593   5.033  2.4518  0.1187 -0.1391
 2849TIP3    H2 8512   3.467   0.694   4.923 -1.2785  0.2535  0.5864
 2850TIP3   OH2 8513   2.029   2.592   4.846 -0.0126 -0.6147 -0.0678
 2850TIP3    H1 8514   2.008   2.503   4.817 -0.1855 -0.8477  0.7353
 2850TIP3    H2 8515   2.003   2.648   4.773  0.2619 -1.2366 -0.6514
 2851TIP3   OH2 8516   4.191   3.139   2.781 -0.0567  0.0131  0.1017
 2851TIP3    H1 8517   4.255   3.092   2.834 -0.2573 -0.0677  0.2728
 2851TIP3    H2 8518   4.190   3.228   2.817  0.1107  0.0710 -0.0353
 2852TIP3   OH2 8519   0.779   2.774   0.597 -0.0458 -0.3752 -0.1608
 2852TIP3    H1 8520   0.796   2.713   0.526  0.4378 -0.9510  0.4392
 2852TIP3    H2 8521   0.824   2.737   0.672 -1.8384 -0.5873  0.8586
 2853TIP3   OH2 8522   0.626   2.569   1.116  0.4711  0.2351 -0.1649
 2853TIP3    H1 8523   0.612   2.644   1.174 -1.3250 -0.4857  0.4026
 2853TIP3    H2 8524   0.569   2.586   1.041 -1.8650 -1.6053  1.0515
 2854TIP3   OH2 8525   1.537   2.326   4.186 -0.3885  0.4843  0.9113
 2854TIP3    H1 8526   1.502   2.411   4.213  0.1764  1.2236 -0.5860
 2854TIP3    H2 8527   1.606   2.308   4.250  1.0194  2.2597 -0.0284
 2855TIP3   OH2 8528   5.920   2.943   3.963 -0.3314 -0.6443 -0.1070
 2855TIP3    H1 8529   6.001   2.920   4.008 -0.4621  0.8603  0.9682
 2855TIP3    H2 8530   5.885   3.017   4.013 -1.4118 -0.0695 -1.6446
 2856TIP3   OH2 8531   6.067   4.188   3.641 -0.1551  0.2928 -0.8475
 2856TIP3    H1 8532   6.007   4.194   3.715  1.2086  0.3437  0.3055
 2856TIP3    H2 8533   6.114   4.272   3.642  1.3131 -0.5057 -0.4545
 2857TIP3   OH2 8534   0.465   5.743   4.945 -0.4960 -0.2097  0.0690
 2857TIP3    H1 8535   0.393   5.721   4.886  1.6567 -2.0586 -2.0608
 2857TIP3    H2 8536   0.452   5.835   4.966 -2.9755 -0.2765 -0.9066
 2858TIP3   OH2 8537   4.211   0.818   5.035  0.1146  0.0389 -0.2924
 2858TIP3    H1 8538   4.166   0.793   5.115  0.8728 -0.5816 -0.0458
 2858TIP3    H2 8539   4.187   0.750   4.972  0.5806 -0.2226 -0.1972
 2859TIP3   OH2 8540   2.552   5.112   3.488 -0.6213 -0.5027 -0.5586
 2859TIP3    H1 8541   2.533   5.020   3.467  0.1734 -0.5019 -1.3506
 2859TIP3    H2 8542   2.630   5.132   3.437 -1.9668  1.2462 -2.0288
 2860TIP3   OH2 8543   0.812   4.768   4.692 -0.1541  0.2847  0.2098
 2860TIP3    H1 8544   0.838   4.795   4.780 -1.3975  0.3226  0.5886
 2860TIP3    H2 8545   0.887   4.718   4.659  0.2659  0.1300  1.3545
 2861TIP3   OH2 8546   5.337   5.241   2.001 -0.5505 -0.6108 -0.3627
 2861TIP3    H1 8547   5.402   5.273   2.063 -0.1140 -1.3065 -0.4440
 2861TIP3    H2 8548   5.305   5.319   1.957 -1.8903  0.0829  1.6795
 2862TIP3   OH2 8549   6.343   3.060   3.957  0.1620 -0.7606 -0.6311
 2862TIP3    H1 8550   6.264   3.094   4.000  0.8026 -0.3720  0.2878
 2862TIP3    H2 8551   6.384   3.005   4.023  0.9540 -0.5016 -0.8941
 2863TIP3   OH2 8552   4.223   0.180   2.011  0.6623  0.1120  0.0597
 2863TIP3    H1 8553   4.144   0.187   1.957  0.8363 -0.7645 -0.3408
 2863TIP3    H2 8554   4.222   0.257   2.067 -0.8387 -0.2364  0.5396
 2864TIP3   OH2 8555   0.336   5.107   5.267  0.0883  0.2130  0.0105
 2864TIP3    H1 8556   0.259   5.095   5.323 -1.2481  0.3451 -1.7250
 2864TIP3    H2 8557   0.361   5.198   5.280  1.9857 -0.5765  2.9743
 2865TIP3   OH2 8558   5.302   4.395   2.366 -0.1738  0.1757  0.1621
 2865TIP3    H1 8559   5.249   4.451   2.424  0.6603  1.5344 -0.3297
 2865TIP3    H2 8560   5.240   4.359   2.303 -0.5573  1.6729 -0.3542
 2866TIP3   OH2 8561   0.336   1.180   3.485  0.1181 -0.4293  0.0808
 2866TIP3    H1 8562   0.368   1.270   3.491  1.2452 -0.8615  0.8714
 2866TIP3    H2 8563   0.251   1.187   3.442  0.8105  0.8686 -1.1345
 2867TIP3   OH2 8564   3.313   3.964   2.184 -0.3482 -0.1432 -0.0133
 2867TIP3    H1 8565   3.288   3.897   2.120 -2.0340 -0.5974  1.0484
 2867TIP3    H2 8566   3.266   3.939   2.263 -1.9963  2.9163  0.1264
 2868TIP3   OH2 8567   3.508   2.446   1.637 -0.5909  0.1584  0.3778
 2868TIP3    H1 8568   3.421   2.424   1.602 -1.2718  0.8925  1.5083
 2868TIP3    H2 8569   3.507   2.541   1.644 -1.1211  0.0577  3.6780
 2869TIP3   OH2 8570   4.105   1.353   3.463  0.5058  0.0064 -0.5739
 2869TIP3    H1 8571   4.095   1.301   3.383  1.7212 -0.5393 -0.3865
 2869TIP3    H2 8572   4.176   1.311   3.510 -2.2018 -1.7182  2.3913
 2870TIP3   OH2 8573   2.915   0.350   1.180  0.2730  0.0515  0.3600
 2870TIP3    H1 8574   2.909   0.382   1.089  0.2710 -2.8632 -0.7789
 2870TIP3    H2 8575   2.936   0.428   1.231  1.6768  1.6196 -2.3375
 2871TIP3   OH2 8576   1.387   3.654   1.702 -0.2915 -0.2470  0.0035
 2871TIP3    H1 8577   1.480   3.636   1.686  0.0783  1.4289  0.0334
 2871TIP3    H2 8578   1.385   3.698   1.787 -1.0479  0.1593 -0.2104
 2872TIP3   OH2 8579   4.577   0.077   4.057  0.1713  0.2142  0.1338
 2872TIP3    H1 8580   4.625   0.064   4.139 -1.4920 -0.5762  1.0205
 2872TIP3    H2 8581   4.561   0.172   4.054 -1.3922  0.0411  1.7258
 2873TIP3   OH2 8582   4.380   3.822   3.594 -0.1475 -0.5686  0.0768
 2873TIP3    H1 8583   4.345   3.756   3.535  0.9879 -0.7156 -0.4681
 2873TIP3    H2 8584   4.305   3.851   3.646 -1.0096 -1.0214 -0.8801
 2874TIP3   OH2 8585   4.648   3.772   4.860 -0.1873  0.4537 -0.8746
 2874TIP3    H1 8586   4.617   3.857   4.829 -0.5434  0.2122 -1.1897
 2874TIP3    H2 8587   4.691   3.790   4.943  0.1371  1.0098 -1.1612
 2875TIP3   OH2 8588   2.009   3.135   5.339 -0.5063 -0.1632  0.3897
 2875TIP3    H1 8589   2.023   3.225   5.368  1.1493 -0.1389 -0.3984
 2875TIP3    H2 8590   1.916   3.133   5.313 -1.2716  0.5859  2.7901
 2876TIP3   OH2 8591   5.047   5.204   5.691 -0.4508  0.0558  0.2076
 2876TIP3    H1 8592   4.999   5.201   5.609 -3.1468 -0.3697  1.6970
 2876TIP3    H2 8593   5.089   5.118   5.697  0.8276  0.5426 -1.2564
 2877TIP3   OH2 8594   6.253   1.598   2.159 -0.5521  0.2892 -0.0182
 2877TIP3    H1 8595   6.320   1.645   2.209 -0.7103 -0.0597  0.5283
 2877TIP3    H2 8596   6.303   1.546   2.096 -0.2727 -0.2769  0.6462
 2878TIP3   OH2 8597   0.381   0.430   1.849  0.0708 -0.0648 -0.2031
 2878TIP3    H1 8598   0.323   0.356   1.868  0.1137 -0.1300 -0.3230
 2878TIP3    H2 8599   0.469   0.390   1.844 -0.0998 -0.2950 -1.9634
 2879TIP3   OH2 8600   1.160   6.623   2.772  0.2378  0.2088 -0.8206
 2879TIP3    H1 8601   1.154   6.610   2.677  0.4268 -1.5205 -0.6229
 2879TIP3    H2 8602   1.073   6.600   2.805  0.3319  0.2902 -0.5118
 2880TIP3   OH2 8603   0.430   2.231   0.312  0.0110 -0.1073  0.1825
 2880TIP3    H1 8604   0.458   2.309   0.264  3.9994 -2.6531 -2.2072
 2880TIP3    H2 8605   0.424   2.163   0.246 -0.6946 -2.4557  2.5014
 2881TIP3   OH2 8606   2.632   5.539   2.931 -0.5626 -0.3307  0.0705
 2881TIP3    H1 8607   2.615   5.558   2.839 -3.6745 -0.3199  0.5431
 2881TIP3    H2 8608   2.576   5.464   2.951  1.2488 -1.3567  1.6162
 2882TIP3   OH2 8609   2.123   0.638   2.042  0.1560 -0.2648  0.4080
 2882TIP3    H1 8610   2.062   0.694   1.994  0.5603 -1.5657 -1.7781
 2882TIP3    H2 8611   2.071   0.602   2.114 -0.1842  2.6041  1.7273
 2883TIP3   OH2 8612   6.523   2.011   1.439  0.3508  0.0369 -0.0456
 2883TIP3    H1 8613   6.613   1.987   1.414  1.1160  1.8347  0.7576
 2883TIP3    H2 8614   6.489   1.933   1.482  1.5981 -0.6313 -0.2040
 2884TIP3   OH2 8615   2.083   6.108   2.055  0.0208 -0.4485 -0.0718
 2884TIP3    H1 8616   2.123   6.116   2.142 -1.0966 -1.0212  0.5172
 2884TIP3    H2 8617   2.073   6.199   2.025 -0.9910 -0.1553  1.0740
 2885TIP3   OH2 8618   5.186   0.851   5.376 -0.1744 -0.1961 -0.1893
 2885TIP3    H1 8619   5.137   0.888   5.303 -1.0816  1.1031  1.0077
 2885TIP3    H2 8620   5.245   0.921   5.403 -0.1432 -0.4951  0.5628
 2886TIP3   OH2 8621   4.311   3.637   5.043 -0.0943 -0.3347 -0.3168
 2886TIP3    H1 8622   4.327   3.570   4.976  0.8852 -0.1466 -0.2972
 2886TIP3    H2 8623   4.261   3.705   4.998  0.2735 -0.3603 -0.7698
 2887TIP3   OH2 8624   7.212   0.841   0.772 -0.2941 -0.2882 -0.0720
 2887TIP3    H1 8625   7.125   0.880   0.785 -0.0283 -0.0084  0.9592
 2887TIP3    H2 8626   7.222   0.837   0.677 -0.5931  1.5828 -0.2233
 2888TIP3   OH2 8627   6.265   0.854   1.124 -0.0218  0.0003 -0.4925
 2888TIP3    H1 8628   6.330   0.899   1.069 -0.4946  0.7421 -0.4596
 2888TIP3    H2 8629   6.181   0.875   1.082 -0.5165  1.6141  1.1863
 2889TIP3   OH2 8630   0.185   0.102   0.681 -0.1006  0.4036  0.0296
 2889TIP3    H1 8631   0.196   0.015   0.719  0.5819  0.5586  0.2083
 2889TIP3    H2 8632   0.159   0.157   0.755  3.1120  1.1154  0.7893
 2890TIP3   OH2 8633   3.305   5.264   4.957  0.4336  0.3046 -1.4428
 2890TIP3    H1 8634   3.254   5.313   4.893 -0.0557 -0.6660 -1.8061
 2890TIP3    H2 8635   3.368   5.328   4.991 -0.8708  1.4675 -1.1281
 2891TIP3   OH2 8636   2.331   2.495   5.254 -0.1538  0.2053  0.4816
 2891TIP3    H1 8637   2.360   2.545   5.178 -0.4572  0.2307  0.3783
 2891TIP3    H2 8638   2.238   2.519   5.265 -0.3684 -0.5029  0.2903
 2892TIP3   OH2 8639   4.323   4.133   5.230 -0.3481 -0.4438  0.1813
 2892TIP3    H1 8640   4.267   4.107   5.303 -0.8854 -0.1130 -0.1129
 2892TIP3    H2 8641   4.365   4.051   5.202 -0.1192 -0.5715  0.8680
 2893TIP3   OH2 8642   0.927   3.843   4.283  0.4241  0.2588  0.5845
 2893TIP3    H1 8643   0.961   3.881   4.364  0.0795  1.5372  0.1540
 2893TIP3    H2 8644   0.842   3.806   4.307  0.4729  0.3331  0.8726
 2894TIP3   OH2 8645   3.414   5.768   5.758 -0.1794  0.0396  0.3522
 2894TIP3    H1 8646   3.369   5.699   5.710 -0.2031 -0.2087  0.7303
 2894TIP3    H2 8647   3.375   5.766   5.845 -2.2926  2.4558 -0.4074
 2895TIP3   OH2 8648   6.377   5.453   3.785  0.4582  0.4305  0.0745
 2895TIP3    H1 8649   6.447   5.443   3.721  0.2735 -0.5850  0.0062
 2895TIP3    H2 8650   6.310   5.390   3.757  0.1460  0.3522  0.9560
 2896TIP3   OH2 8651   2.940   5.650   0.201 -0.1092 -0.2632  0.3833
 2896TIP3    H1 8652   2.984   5.584   0.147  0.3209 -0.5967  1.1383
 2896TIP3    H2 8653   2.848   5.626   0.198 -0.1891  0.0843 -0.7050
 2897TIP3   OH2 8654   4.914   6.727   2.246 -0.0055  0.0340 -0.1079
 2897TIP3    H1 8655   4.942   6.742   2.336 -2.4803  0.9291  0.5978
 2897TIP3    H2 8656   4.991   6.692   2.202  1.2870 -0.4122  2.3451
 2898TIP3   OH2 8657   0.831   4.966   3.633 -0.2462 -0.2232 -0.7206
 2898TIP3    H1 8658   0.814   5.028   3.562  0.2676  0.8748  0.0804
 2898TIP3    H2 8659   0.865   5.020   3.704  0.3034 -1.4485 -0.0194
 2899TIP3   OH2 8660   5.148   4.376   5.289 -0.2990  0.5618 -0.0957
 2899TIP3    H1 8661   5.152   4.378   5.385 -1.4269  2.1312 -0.0474
 2899TIP3    H2 8662   5.055   4.382   5.269  0.0047  1.7276 -1.2913
 2900TIP3   OH2 8663   0.394   6.125   3.680 -0.4027 -0.0328 -0.6802
 2900TIP3    H1 8664   0.434   6.151   3.597  2.1921 -2.2102 -0.2536
 2900TIP3    H2 8665   0.438   6.180   3.745 -0.8866  0.2004 -0.5517
 2901TIP3   OH2 8666   0.181   0.269   0.209  0.0638 -0.6923 -0.1408
 2901TIP3    H1 8667   0.181   0.208   0.282  0.2358 -1.3444 -0.6801
 2901TIP3    H2 8668   0.200   0.354   0.249  1.3940 -1.2356  0.4157
 2902TIP3   OH2 8669   3.754   4.961   2.155  0.1939  0.5691  0.4080
 2902TIP3    H1 8670   3.817   5.004   2.213 -1.2223  1.0140  1.6834
 2902TIP3    H2 8671   3.688   5.029   2.138 -0.5682 -0.2331  0.1048
 2903TIP3   OH2 8672   0.835   0.031   1.562  0.3022  0.2321  0.2716
 2903TIP3    H1 8673   0.892  -0.045   1.555 -0.2775 -0.1332 -0.6895
 2903TIP3    H2 8674   0.830   0.049   1.656  0.7709 -0.6630  0.4790
 2904TIP3   OH2 8675   6.964   0.907   0.824 -0.3666 -0.3759 -0.3286
 2904TIP3    H1 8676   6.948   0.988   0.872  0.3590  1.4730 -2.9778
 2904TIP3    H2 8677   6.899   0.908   0.754 -0.1403 -1.9371 -0.5839
 2905TIP3   OH2 8678   5.230   1.664   1.636  0.1278 -0.2446  0.3278
 2905TIP3    H1 8679   5.188   1.740   1.596  0.8019 -0.2700 -0.4542
 2905TIP3    H2 8680   5.222   1.679   1.731 -1.9478 -0.4490  0.2144
 2906TIP3   OH2 8681   1.324   0.401   3.931  0.2617 -0.2481 -0.2724
 2906TIP3    H1 8682   1.324   0.474   3.869 -0.6704 -0.0835 -0.0935
 2906TIP3    H2 8683   1.322   0.323   3.875  1.9529 -0.1803 -0.4781
 2907TIP3   OH2 8684   3.806   0.984   0.136  0.1499 -0.1110 -0.0753
 2907TIP3    H1 8685   3.891   0.949   0.162 -1.3558 -2.0689  2.8261
 2907TIP3    H2 8686   3.772   1.026   0.215 -1.6208  0.5287 -1.1068
 2908TIP3   OH2 8687   1.970   2.397   5.863 -0.1312 -0.2541 -0.2281
 2908TIP3    H1 8688   1.982   2.430   5.774  0.5734  0.1833  0.0137
 2908TIP3    H2 8689   2.059   2.394   5.899 -0.4326 -0.1666  0.5483
 2909TIP3   OH2 8690   3.813   4.939   3.858  0.1395 -0.7721  0.3266
 2909TIP3    H1 8691   3.889   4.977   3.902  0.0126 -0.3283  0.1661
 2909TIP3    H2 8692   3.799   4.856   3.903  0.1031 -0.3925  1.0312
 2910TIP3   OH2 8693   4.300   0.648   3.778  0.8553 -0.2250 -0.2930
 2910TIP3    H1 8694   4.370   0.643   3.843  0.5740  0.6449  0.0926
 2910TIP3    H2 8695   4.220   0.628   3.827  0.4858  1.6111 -0.0567
 2911TIP3   OH2 8696   3.021   5.392   4.152  0.4717  0.0516 -0.5326
 2911TIP3    H1 8697   3.079   5.454   4.107  0.6489  0.4693  0.2541
 2911TIP3    H2 8698   3.028   5.416   4.244 -0.0583 -0.6516 -0.3052
 2912TIP3   OH2 8699   2.940   0.477   4.941  0.9767  0.3053 -0.1663
 2912TIP3    H1 8700   3.003   0.537   4.981  1.2120 -0.1405  0.1305
 2912TIP3    H2 8701   2.960   0.480   4.848  1.3211  0.2939 -0.0920
 2913TIP3   OH2 8702   5.132   2.567   3.283  0.1315 -0.1359 -0.2874
 2913TIP3    H1 8703   5.107   2.597   3.196 -0.7762 -1.0521 -0.3694
 2913TIP3    H2 8704   5.221   2.599   3.296  0.0197  0.5977 -1.2671
 2914TIP3   OH2 8705   5.965   3.939   5.345 -0.1374  0.2100 -0.5530
 2914TIP3    H1 8706   6.014   3.867   5.303 -2.1359 -0.9166 -1.0964
 2914TIP3    H2 8707   5.974   4.012   5.284  0.6400 -0.0457 -0.7629
 2915TIP3   OH2 8708   2.254   0.938   2.758  0.4446 -0.1945 -0.0638
 2915TIP3    H1 8709   2.279   1.026   2.729  2.4286 -1.1150 -1.3658
 2915TIP3    H2 8710   2.331   0.905   2.804 -0.8402 -0.7225  1.8391
 2916TIP3   OH2 8711   2.669   2.937   3.473  0.0107  0.5280  0.1278
 2916TIP3    H1 8712   2.716   2.998   3.528 -1.0217  0.4095  1.1825
 2916TIP3    H2 8713   2.737   2.893   3.422  0.8466  1.7951  0.1078
 2917TIP3   OH2 8714   7.161   1.939   5.243 -0.6023 -0.1605 -0.0570
 2917TIP3    H1 8715   7.104   2.016   5.233 -1.1536 -0.3633  1.2259
 2917TIP3    H2 8716   7.162   1.898   5.156  0.1082  1.5414 -0.8963
 2918TIP3   OH2 8717   1.157   0.777   2.774  0.1333 -0.1828 -0.0137
 2918TIP3    H1 8718   1.149   0.684   2.793 -2.0982 -0.2136 -0.8298
 2918TIP3    H2 8719   1.245   0.786   2.735  1.2440 -1.5285  1.9975
 2919TIP3   OH2 8720   6.413   6.815   2.255  0.0917 -0.1135  0.3604
 2919TIP3    H1 8721   6.391   6.731   2.214  1.3217 -1.8464  3.0073
 2919TIP3    H2 8722   6.508   6.815   2.262  0.2699  2.2148 -0.8335
 2920TIP3   OH2 8723   1.297   6.309   1.301 -0.2226  0.5346 -0.1692
 2920TIP3    H1 8724   1.277   6.238   1.363  0.7238  0.2989 -0.1170
 2920TIP3    H2 8725   1.322   6.382   1.357 -0.9170  0.8254 -0.2333
 2921TIP3   OH2 8726   0.088   1.615   4.529  0.9105 -0.2044 -0.7192
 2921TIP3    H1 8727   0.025   1.682   4.555  0.3465 -0.3294 -1.7137
 2921TIP3    H2 8728   0.174   1.657   4.538  0.7130 -0.1020  0.8531
 2922TIP3   OH2 8729   3.526   4.628   5.808 -0.3409 -0.7643 -0.4641
 2922TIP3    H1 8730   3.491   4.689   5.872  1.4382 -0.7606  0.5833
 2922TIP3    H2 8731   3.487   4.544   5.832  1.5479 -1.1133  1.7933
 2923TIP3   OH2 8732   6.448   1.866   3.581  0.6190 -0.5520  0.2138
 2923TIP3    H1 8733   6.443   1.771   3.571 -0.4490 -0.6870  1.7331
 2923TIP3    H2 8734   6.362   1.897   3.552 -0.2982 -0.4159  2.8401
 2924TIP3   OH2 8735   2.697   6.466   1.176  0.0091  0.7782 -0.2461
 2924TIP3    H1 8736   2.731   6.503   1.094  0.3107 -0.1830 -0.5779
 2924TIP3    H2 8737   2.688   6.541   1.235  1.6739  1.2248 -0.5092
 2925TIP3   OH2 8738   6.729   3.505   2.851  0.3693  0.1781  0.2116
 2925TIP3    H1 8739   6.640   3.527   2.875  0.8188  1.4425  0.8091
 2925TIP3    H2 8740   6.777   3.588   2.856  1.6614 -0.5381  0.3124
 2926TIP3   OH2 8741   5.706   0.423   2.586  0.0819 -0.0529 -0.2205
 2926TIP3    H1 8742   5.702   0.490   2.517  2.0179 -0.5552 -0.9049
 2926TIP3    H2 8743   5.742   0.469   2.662  3.3427 -0.6042 -1.2699
 2927TIP3   OH2 8744   2.988   2.023   3.366 -0.2759 -0.5738 -0.0866
 2927TIP3    H1 8745   2.927   1.987   3.430 -0.7073  1.3674  0.6453
 2927TIP3    H2 8746   3.012   2.109   3.400 -0.1933  0.3589 -2.3234
 2928TIP3   OH2 8747   7.187   4.908   1.601 -0.1967 -0.6061 -0.1975
 2928TIP3    H1 8748   7.116   4.871   1.653  0.7113 -0.9048  0.8709
 2928TIP3    H2 8749   7.265   4.897   1.656  0.4169  1.1978 -0.6374
 2929TIP3   OH2 8750   6.506   5.957   4.454  0.1343 -0.0708 -0.0270
 2929TIP3    H1 8751   6.565   6.031   4.467  1.1192 -0.8598  0.1565
 2929TIP3    H2 8752   6.470   5.939   4.540  1.6048 -1.1676  0.4021
 2930TIP3   OH2 8753   1.644   0.294   2.220 -0.4274 -0.6141  0.1292
 2930TIP3    H1 8754   1.593   0.360   2.267 -1.1557  0.7570 -2.3785
 2930TIP3    H2 8755   1.612   0.211   2.254 -1.0070  0.2868  1.8943
 2931TIP3   OH2 8756   6.025   0.999   5.781 -0.6050 -0.1238  0.6762
 2931TIP3    H1 8757   6.057   0.917   5.818 -1.6835  0.2243  2.4653
 2931TIP3    H2 8758   5.932   1.001   5.802 -1.5407 -0.2308 -2.7659
 2932TIP3   OH2 8759   1.887   1.502   5.830 -0.5261  0.4010 -0.2738
 2932TIP3    H1 8760   1.889   1.418   5.783 -1.5818 -0.1951  0.7093
 2932TIP3    H2 8761   1.813   1.549   5.793 -1.0828  0.1166  0.4578
 2933TIP3   OH2 8762   5.742   2.449   5.804 -0.7824  0.4537  0.4241
 2933TIP3    H1 8763   5.654   2.450   5.841 -0.0187  0.7321  2.3679
 2933TIP3    H2 8764   5.787   2.522   5.847  0.9363 -0.8222  0.9532
 2934TIP3   OH2 8765   2.917   3.065   4.523  0.7051 -0.4627 -0.0744
 2934TIP3    H1 8766   2.906   3.125   4.449 -0.0361 -0.2491  0.2063
 2934TIP3    H2 8767   3.010   3.041   4.519  0.6678 -0.5009 -1.1047
 2935TIP3   OH2 8768   6.589   2.151   4.605 -0.3356 -0.2151  0.1443
 2935TIP3    H1 8769   6.588   2.173   4.512 -0.8133 -1.8876 -0.2875
 2935TIP3    H2 8770   6.540   2.069   4.610 -1.3526  0.4523  2.0425
 2936TIP3   OH2 8771   6.984   5.959   0.771 -0.2415 -0.2713 -0.0731
 2936TIP3    H1 8772   7.047   6.003   0.829 -0.5185 -1.0120  0.8200
 2936TIP3    H2 8773   6.927   6.029   0.740 -0.9869 -0.0238  1.7209
 2937TIP3   OH2 8774   4.990   6.463   0.527  0.3211 -0.0299 -0.0686
 2937TIP3    H1 8775   4.912   6.420   0.494  0.4125  0.7992 -1.4455
 2937TIP3    H2 8776   5.063   6.422   0.480  0.5516  0.4020 -0.1024
 2938TIP3   OH2 8777   0.835   0.916   2.998  0.1770  0.1953 -0.6161
 2938TIP3    H1 8778   0.845   0.927   2.903 -0.4991  0.8158 -0.6188
 2938TIP3    H2 8779   0.766   0.977   3.022 -0.0732 -0.3928  0.1888
 2939TIP3   OH2 8780   3.289   2.549   0.450  0.2802  0.5797 -0.1077
 2939TIP3    H1 8781   3.382   2.565   0.465  0.5605 -0.9287 -0.0602
 2939TIP3    H2 8782   3.283   2.524   0.358 -0.2630  1.7658 -0.4164
 2940TIP3   OH2 8783   5.403   4.864   1.026  0.7742  0.3774 -0.7475
 2940TIP3    H1 8784   5.436   4.902   1.108  1.8096 -2.4725  0.2637
 2940TIP3    H2 8785   5.481   4.832   0.982 -0.0990 -1.5102 -0.9987
 2941TIP3   OH2 8786   1.038   1.487   4.784 -0.0574 -0.4836 -0.3449
 2941TIP3    H1 8787   1.060   1.568   4.830 -3.3768  0.1735  0.3939
 2941TIP3    H2 8788   1.076   1.417   4.837 -0.0093  0.4654  0.8927
 2942TIP3   OH2 8789   0.657   6.393   4.388 -1.3352  0.7334  0.4097
 2942TIP3    H1 8790   0.601   6.327   4.347 -0.0414 -0.2079  0.0932
 2942TIP3    H2 8791   0.676   6.455   4.318 -1.0056  0.3908  0.1927
 2943TIP3   OH2 8792   0.883   6.087   4.237 -0.2618  0.4385 -0.2588
 2943TIP3    H1 8793   0.958   6.142   4.260  1.8586 -2.2494 -0.3625
 2943TIP3    H2 8794   0.847   6.059   4.321  1.9134 -2.1175 -0.0793
 2944TIP3   OH2 8795   4.382   3.459   0.717  0.6490  0.2053 -0.1408
 2944TIP3    H1 8796   4.421   3.508   0.645  0.9697  0.8309  0.4426
 2944TIP3    H2 8797   4.303   3.509   0.740 -0.7282 -1.2367 -1.5356
 2945TIP3   OH2 8798   0.000   0.248   1.587  0.0643 -0.6866  0.2241
 2945TIP3    H1 8799   0.045   0.213   1.665  0.4789  0.2684  0.4338
 2945TIP3    H2 8800  -0.004   0.174   1.527  1.0169 -1.0799  0.6076
 2946TIP3   OH2 8801   1.521   4.450   0.090 -0.8132 -0.1100 -0.7085
 2946TIP3    H1 8802   1.599   4.488   0.131  0.7024  0.0498 -3.4829
 2946TIP3    H2 8803   1.472   4.411   0.163  2.3877 -1.1891  1.0669
 2947TIP3   OH2 8804   0.099   4.464   2.365  0.0878  0.6918  0.2791
 2947TIP3    H1 8805   0.135   4.434   2.282  1.0943  0.7472  0.6719
 2947TIP3    H2 8806   0.046   4.540   2.343  1.3724  1.4913 -0.1793
 2948TIP3   OH2 8807   2.695   5.439   5.043 -0.1471 -0.1002  0.5557
 2948TIP3    H1 8808   2.731   5.367   4.991 -2.5478 -0.4936 -0.7462
 2948TIP3    H2 8809   2.691   5.513   4.981 -4.0630 -0.8703 -0.4110
 2949TIP3   OH2 8810   1.198   4.077   2.330 -0.6996  0.1930  0.1233
 2949TIP3    H1 8811   1.128   4.033   2.377 -0.9437 -0.2218 -0.6142
 2949TIP3    H2 8812   1.214   4.023   2.252 -0.5379  1.0295 -0.4480
 2950TIP3   OH2 8813   7.048   6.111   5.836 -0.1683 -0.2952  0.0002
 2950TIP3    H1 8814   7.052   6.169   5.760 -1.4421 -0.2609 -0.0673
 2950TIP3    H2 8815   7.134   6.070   5.840  0.2723  0.5135 -0.8125
 2951TIP3   OH2 8816   1.969   2.458   1.488  0.5578  0.5965 -0.0626
 2951TIP3    H1 8817   2.055   2.489   1.518  1.0780 -1.2654  0.5165
 2951TIP3    H2 8818   1.973   2.363   1.499 -0.1264 -0.0086 -3.8040
 2952TIP3   OH2 8819   2.384   0.300   5.269 -0.0485  0.0899 -0.1799
 2952TIP3    H1 8820   2.421   0.308   5.181 -0.0191 -0.5527 -0.2323
 2952TIP3    H2 8821   2.291   0.281   5.254 -0.1864  0.6437 -0.0595
 2953TIP3   OH2 8822   1.545   3.857   2.825 -0.0206  0.4413 -0.1821
 2953TIP3    H1 8823   1.466   3.899   2.792 -1.3852 -0.7238  1.4263
 2953TIP3    H2 8824   1.535   3.765   2.804  0.4351  0.1260  0.8891
 2954TIP3   OH2 8825   3.212   0.021   2.689  0.4171  0.1524  0.0851
 2954TIP3    H1 8826   3.157   0.061   2.755 -0.3108 -0.7270  0.0381
 2954TIP3    H2 8827   3.255  -0.051   2.734  1.7847  1.0121  0.1974
 2955TIP3   OH2 8828   1.671   3.434   0.782  0.4161  0.4171 -0.3197
 2955TIP3    H1 8829   1.729   3.361   0.760  0.7412  1.0229 -1.5943
 2955TIP3    H2 8830   1.699   3.461   0.869 -0.3466 -1.5635  0.5988
 2956TIP3   OH2 8831   4.657   1.862   4.187  0.5680 -0.6076 -0.1318
 2956TIP3    H1 8832   4.671   1.943   4.138  3.7879 -1.0966 -0.2618
 2956TIP3    H2 8833   4.659   1.794   4.120  1.2345 -1.0056  0.2818
 2957TIP3   OH2 8834   1.316   5.119   3.485  0.0244  0.2260  0.2333
 2957TIP3    H1 8835   1.399   5.167   3.476  0.1429  0.2072  1.1205
 2957TIP3    H2 8836   1.338   5.029   3.460  0.0007  0.4450 -0.6104
 2958TIP3   OH2 8837   4.217   3.256   5.175 -0.5913 -0.5330  0.1085
 2958TIP3    H1 8838   4.283   3.254   5.244 -0.6027 -1.3353  0.0978
 2958TIP3    H2 8839   4.257   3.306   5.105  1.6206 -4.1923 -1.5086
 2959TIP3   OH2 8840   2.013   2.800   3.726  0.0454  0.7287  0.0653
 2959TIP3    H1 8841   2.017   2.733   3.795  1.1691  1.9425  1.2397
 2959TIP3    H2 8842   1.925   2.791   3.689  0.8639 -2.9331 -1.4610
 2960TIP3   OH2 8843   4.832   1.686   2.720  0.5409  0.2300  0.5811
 2960TIP3    H1 8844   4.748   1.706   2.761  0.7822 -0.3034  1.3529
 2960TIP3    H2 8845   4.896   1.696   2.791  1.0339 -0.1804  0.1995
 2961TIP3   OH2 8846   3.588   1.817   3.079 -0.1235  0.2358 -0.5126
 2961TIP3    H1 8847   3.601   1.905   3.042 -2.9779  0.0505 -2.3079
 2961TIP3    H2 8848   3.615   1.758   3.009  2.6551 -0.4504  1.0159
 2962TIP3   OH2 8849   3.766   1.102   1.123 -0.2230  0.0896  0.5913
 2962TIP3    H1 8850   3.845   1.049   1.112 -1.6349 -1.8765 -0.6893
 2962TIP3    H2 8851   3.756   1.111   1.218  0.5150 -1.2399  0.8134
 2963TIP3   OH2 8852   7.126   5.277   3.615 -0.5729  0.1443 -0.0226
 2963TIP3    H1 8853   7.130   5.308   3.705  0.3196  0.8938 -0.3086
 2963TIP3    H2 8854   7.035   5.250   3.603 -0.2809 -1.8749  1.7155
 2964TIP3   OH2 8855   7.173   1.042   5.253  0.1978 -0.0967  0.3453
 2964TIP3    H1 8856   7.098   1.025   5.197  0.3701  1.5345 -0.4524
 2964TIP3    H2 8857   7.240   1.076   5.193  1.6428 -1.6558  1.0054
 2965TIP3   OH2 8858   4.017   4.098   2.432 -0.1386 -0.1984 -0.5420
 2965TIP3    H1 8859   4.015   4.123   2.340  1.1005  2.5186  0.0534
 2965TIP3    H2 8860   4.110   4.080   2.450 -0.4121 -1.0524  0.1002
 2966TIP3   OH2 8861   4.773   2.591   0.579 -0.1076 -0.4577 -1.1214
 2966TIP3    H1 8862   4.702   2.579   0.516  0.4223  1.1512 -2.1068
 2966TIP3    H2 8863   4.848   2.615   0.525  0.0457  2.3134  0.1351
 2967TIP3   OH2 8864   1.930   5.999   1.322 -0.5418  0.1588  0.5014
 2967TIP3    H1 8865   1.991   5.935   1.284 -1.0183 -0.6501  1.0633
 2967TIP3    H2 8866   1.970   6.023   1.405 -0.3803  0.5847  0.3054
 2968TIP3   OH2 8867   6.782   5.314   0.970  0.1218 -0.4439 -0.4017
 2968TIP3    H1 8868   6.748   5.259   1.041 -1.5463  0.7881 -0.1796
 2968TIP3    H2 8869   6.875   5.323   0.989  0.3057 -2.5265 -0.0323
 2969TIP3   OH2 8870   1.533   3.339   4.088  0.8754  0.4020 -0.0556
 2969TIP3    H1 8871   1.517   3.411   4.149 -0.0747 -0.5236  0.8356
 2969TIP3    H2 8872   1.616   3.300   4.117 -0.1700 -0.8080  1.5082
 2970TIP3   OH2 8873   5.605   1.010   0.011  0.6727 -0.7760  0.2243
 2970TIP3    H1 8874   5.545   0.994   0.083  0.9417  0.7133  0.8247
 2970TIP3    H2 8875   5.606   0.928  -0.039  0.0547 -1.6388  1.5831
 2971TIP3   OH2 8876   0.740   1.661   1.230  0.3856  0.3653  0.1947
 2971TIP3    H1 8877   0.666   1.663   1.170  0.3483  1.0223  0.2524
 2971TIP3    H2 8878   0.710   1.712   1.306  1.3051  1.6135 -0.2637
 2972TIP3   OH2 8879   6.054   6.546   1.566 -0.2768 -0.5612 -0.0758
 2972TIP3    H1 8880   5.967   6.537   1.528 -0.0915 -1.9777 -0.2113
 2972TIP3    H2 8881   6.037   6.564   1.659 -0.7046  0.3276 -0.3137
 2973TIP3   OH2 8882   5.472   2.071   0.129  0.5344 -0.1499  0.0224
 2973TIP3    H1 8883   5.457   1.996   0.187 -1.0214 -0.9097 -1.2893
 2973TIP3    H2 8884   5.385   2.107   0.112  1.1312  1.1616 -0.4213
 2974TIP3   OH2 8885   2.389   5.439   5.471  0.2945 -0.2684 -0.2247
 2974TIP3    H1 8886   2.351   5.517   5.429  0.6668  0.3562  0.5715
 2974TIP3    H2 8887   2.429   5.390   5.399 -1.8208 -0.8576 -1.0705
 2975TIP3   OH2 8888   4.965   0.438   1.063  0.0458  0.3742 -0.1627
 2975TIP3    H1 8889   4.964   0.373   0.993  1.2930  0.7939 -0.6024
 2975TIP3    H2 8890   4.908   0.508   1.032  0.2010  0.3346 -0.5456
 2976TIP3   OH2 8891   2.833   3.505   3.101 -0.2698  0.8105  0.1263
 2976TIP3    H1 8892   2.800   3.417   3.120 -0.2602  0.7405 -0.1805
 2976TIP3    H2 8893   2.756   3.561   3.105 -0.4981  0.5963 -0.9415
 2977TIP3   OH2 8894   0.809   3.444   1.896  0.3599 -0.3948  0.0390
 2977TIP3    H1 8895   0.852   3.390   1.829  1.3290  0.1732  0.1755
 2977TIP3    H2 8896   0.839   3.533   1.878 -3.6069  0.7397 -2.1185
 2978TIP3   OH2 8897   1.056   6.211   1.161  0.5677 -0.5376 -0.7437
 2978TIP3    H1 8898   0.999   6.165   1.223 -0.5658  0.0805 -1.2794
 2978TIP3    H2 8899   1.141   6.215   1.205  0.1113 -1.1698  0.2487
 2979TIP3   OH2 8900   0.181   3.526   0.551 -0.0622 -0.5270  1.1121
 2979TIP3    H1 8901   0.188   3.561   0.640  1.3178 -1.6342  1.4661
 2979TIP3    H2 8902   0.266   3.486   0.534 -0.7313 -1.4495 -0.2314
 2980TIP3   OH2 8903   3.392   6.393   2.985  0.1309 -0.5118 -0.2193
 2980TIP3    H1 8904   3.375   6.368   2.894  0.6183 -0.0941 -0.4327
 2980TIP3    H2 8905   3.307   6.388   3.028 -0.3365  0.5199 -1.0003
 2981TIP3   OH2 8906   4.725   6.366   4.913  1.1058 -0.0481  0.2565
 2981TIP3    H1 8907   4.645   6.385   4.864  0.1768 -1.1581  1.2818
 2981TIP3    H2 8908   4.752   6.452   4.948 -0.1619  0.2198  0.6464
 2982TIP3   OH2 8909   3.607   1.997   1.300  0.3752 -0.0777 -0.3683
 2982TIP3    H1 8910   3.552   2.046   1.361  2.0701  1.0199  0.3430
 2982TIP3    H2 8911   3.655   1.936   1.356  0.3307 -0.6066 -0.9010
 2983TIP3   OH2 8912   2.718   6.347   4.664  0.1303 -0.5029 -0.2010
 2983TIP3    H1 8913   2.648   6.307   4.715  0.3963 -1.7857 -0.8074
 2983TIP3    H2 8914   2.735   6.431   4.708 -0.0542 -1.2979  1.4686
 2984TIP3   OH2 8915   5.263   5.304   0.190 -0.0186  0.4639  0.1391
 2984TIP3    H1 8916   5.229   5.285   0.278 -3.5039  0.3285 -1.0840
 2984TIP3    H2 8917   5.284   5.397   0.192 -0.2974  0.5172  1.0257
 2985TIP3   OH2 8918   0.465   5.375   5.701  0.7014 -0.0503 -0.4024
 2985TIP3    H1 8919   0.547   5.327   5.708  2.3691  2.5967 -0.3292
 2985TIP3    H2 8920   0.484   5.446   5.640 -1.3953  0.9012 -0.0289
 2986TIP3   OH2 8921   6.197   2.284   4.323 -0.1657 -0.0882  0.7179
 2986TIP3    H1 8922   6.149   2.351   4.372 -0.8427 -0.0045 -0.0274
 2986TIP3    H2 8923   6.221   2.327   4.241  1.0973 -0.1741  1.0262
 2987TIP3   OH2 8924   5.836   3.600   4.045  0.2369  0.2113  0.8575
 2987TIP3    H1 8925   5.809   3.639   3.962 -0.8729  0.0061  1.0959
 2987TIP3    H2 8926   5.821   3.506   4.033  0.7634  0.1004  1.0486
 2988TIP3   OH2 8927   3.704   2.518   2.624  0.6141  0.1302  0.3951
 2988TIP3    H1 8928   3.663   2.501   2.539  0.7003 -0.5388  0.4809
 2988TIP3    H2 8929   3.651   2.587   2.662  0.3779  0.2102 -0.0658
 2989TIP3   OH2 8930   2.788   1.800   3.900 -0.8855 -0.2033  0.1355
 2989TIP3    H1 8931   2.851   1.745   3.947 -0.3995 -0.5314 -0.8749
 2989TIP3    H2 8932   2.769   1.871   3.961 -0.6713 -0.8821  1.0344
 2990TIP3   OH2 8933   0.269   0.249   5.482 -0.0377  0.2738  0.8852
 2990TIP3    H1 8934   0.187   0.233   5.435  1.5448  0.5946 -2.2562
 2990TIP3    H2 8935   0.266   0.341   5.505  0.3758  0.9282 -1.4259
 2991TIP3   OH2 8936   5.538   0.865   4.326  0.0238  0.2724  0.1074
 2991TIP3    H1 8937   5.482   0.917   4.269 -1.0348 -1.4029 -0.4605
 2991TIP3    H2 8938   5.602   0.826   4.266  0.8209  0.9006  0.5275
 2992TIP3   OH2 8939   1.860   6.276   3.464  0.2634 -0.2042  0.5576
 2992TIP3    H1 8940   1.815   6.358   3.485 -3.2013 -1.7195 -0.3108
 2992TIP3    H2 8941   1.912   6.296   3.386 -0.9855  1.0452  0.0177
 2993TIP3   OH2 8942   6.610   3.805   0.400 -0.0338 -0.0208  0.0292
 2993TIP3    H1 8943   6.696   3.772   0.377  0.7571  1.0910  1.1953
 2993TIP3    H2 8944   6.595   3.773   0.489  0.3898  1.9498  0.8647
 2994TIP3   OH2 8945   2.942   5.062   2.179  0.1674 -0.2280 -0.4966
 2994TIP3    H1 8946   2.939   4.975   2.220 -0.3512  0.7896  1.7832
 2994TIP3    H2 8947   2.860   5.104   2.206  0.8331  1.2961 -0.7445
 2995TIP3   OH2 8948   5.280   0.818   4.605 -0.2893 -0.8908 -0.6307
 2995TIP3    H1 8949   5.203   0.824   4.662 -0.3011 -1.6383 -0.5597
 2995TIP3    H2 8950   5.293   0.907   4.573 -1.1638 -0.7456 -0.6154
 2996TIP3   OH2 8951   3.974   4.883   4.136 -0.3377 -0.4795  0.3706
 2996TIP3    H1 8952   3.981   4.851   4.226 -0.4285 -0.5328  0.3588
 2996TIP3    H2 8953   3.882   4.910   4.128 -0.1417  0.2795  0.5497
 2997TIP3   OH2 8954   5.977   3.142   2.790 -0.0189 -0.0872 -1.0622
 2997TIP3    H1 8955   5.960   3.232   2.761 -3.0974 -0.1284  0.2228
 2997TIP3    H2 8956   5.979   3.148   2.885 -1.1102 -1.4538 -0.9197
 2998TIP3   OH2 8957   0.398   1.044   5.306 -0.0280 -0.7429  0.1849
 2998TIP3    H1 8958   0.444   0.963   5.328 -1.1681 -1.5194 -0.1775
 2998TIP3    H2 8959   0.353   1.068   5.387  0.7453 -0.1551  0.4500
 2999TIP3   OH2 8960   1.946   2.483   3.751 -0.2339  0.2750 -0.0707
 2999TIP3    H1 8961   1.911   2.397   3.774  1.0161 -0.5008 -0.9725
 2999TIP3    H2 8962   1.962   2.526   3.836 -0.0186 -0.7373  0.4174
 3000TIP3   OH2 8963   1.840   5.022   5.748 -0.3033  0.3257 -0.0913
 3000TIP3    H1 8964   1.762   5.051   5.794  0.4423  0.5908  1.0399
 3000TIP3    H2 8965   1.910   5.027   5.813  0.7694  0.6172 -1.2238
 3001TIP3   OH2 8966   1.696   3.782   4.678 -0.2705  0.0232 -0.2132
 3001TIP3    H1 8967   1.692   3.751   4.768  0.7153 -0.4117 -0.3157
 3001TIP3    H2 8968   1.728   3.707   4.628 -2.1150 -0.2067 -1.1624
 3002TIP3   OH2 8969   2.635   0.714   0.907 -0.1297  0.3463 -0.5834
 3002TIP3    H1 8970   2.587   0.716   0.825 -1.2355  3.6686 -0.0212
 3002TIP3    H2 8971   2.571   0.739   0.974  1.2712  0.1080  0.9219
 3003TIP3   OH2 8972   1.275   1.534   0.782 -0.0654  0.4329  0.3765
 3003TIP3    H1 8973   1.201   1.547   0.722  0.5819  0.8229 -0.3529
 3003TIP3    H2 8974   1.252   1.456   0.831 -1.4826  1.1684  0.9490
 3004TIP3   OH2 8975   5.375   6.261   2.420  0.1235 -0.5360 -0.5535
 3004TIP3    H1 8976   5.333   6.333   2.372 -0.5271 -0.7480 -0.3160
 3004TIP3    H2 8977   5.454   6.242   2.370  0.1372  0.1285 -0.8004
 3005TIP3   OH2 8978   6.984   1.591   0.647  0.5547 -0.1810  0.1204
 3005TIP3    H1 8979   6.911   1.582   0.586  0.7316 -0.1932 -0.0900
 3005TIP3    H2 8980   6.957   1.542   0.724  0.5377 -0.5741 -0.1340
 3006TIP3   OH2 8981   1.021   4.282   0.854 -0.7348 -0.1056 -0.8538
 3006TIP3    H1 8982   1.088   4.239   0.800  0.7061  1.1661 -0.1607
 3006TIP3    H2 8983   1.056   4.369   0.871 -1.4903 -0.1724  1.4683
 3007TIP3   OH2 8984   3.855   2.945   1.665  0.6036  0.3802  0.4470
 3007TIP3    H1 8985   3.859   3.024   1.610 -0.7351  0.7406  0.8283
 3007TIP3    H2 8986   3.858   2.873   1.602  1.0117  0.7408  0.0397
 3008TIP3   OH2 8987   3.666   3.040   0.911 -0.2833  0.1755 -0.1879
 3008TIP3    H1 8988   3.727   2.972   0.942 -1.0648 -0.4809 -0.0482
 3008TIP3    H2 8989   3.721   3.100   0.861  0.1997 -1.4128 -1.6973
 3009TIP3   OH2 8990   2.530   2.194   3.141 -0.4945  0.1157  0.6580
 3009TIP3    H1 8991   2.460   2.144   3.099 -0.1978 -0.9418  1.3954
 3009TIP3    H2 8992   2.606   2.181   3.085 -0.9943  1.7734 -0.4884
 3010TIP3   OH2 8993   3.277   6.767   4.328  0.1193 -0.0075  0.3687
 3010TIP3    H1 8994   3.254   6.829   4.397 -0.4983  1.0934 -0.7900
 3010TIP3    H2 8995   3.196   6.753   4.280  1.0689  1.4806 -1.8611
 3011TIP3   OH2 8996   5.757   1.796   0.599  0.1264 -0.1717 -0.2862
 3011TIP3    H1 8997   5.830   1.841   0.641 -1.0092  0.4662  1.0827
 3011TIP3    H2 8998   5.686   1.860   0.597 -0.4465 -0.8034 -1.5109
 3012TIP3   OH2 8999   5.975   2.370   2.727 -0.1775 -0.2470  0.2622
 3012TIP3    H1 9000   6.004   2.461   2.737 -1.6784  0.4480 -1.2438
 3012TIP3    H2 9001   5.882   2.376   2.708  0.3768 -1.7833 -3.9122
 3013TIP3   OH2 9002   3.063   5.231   3.511  0.0951  0.1404 -0.1042
 3013TIP3    H1 9003   2.980   5.273   3.533  0.0079 -0.4057  0.6501
 3013TIP3    H2 9004   3.097   5.200   3.595  0.0355 -1.5103 -0.6561
 3014TIP3   OH2 9005   4.461   3.544   1.704  0.3519  0.7243  0.3195
 3014TIP3    H1 9006   4.418   3.626   1.728  1.7294  1.2415  1.1501
 3014TIP3    H2 9007   4.506   3.516   1.783 -0.2243 -0.9591  0.1057
 3015TIP3   OH2 9008   5.597   4.100   5.061  0.2574 -0.5039 -0.3950
 3015TIP3    H1 9009   5.554   4.036   5.004 -0.2534 -0.7356  0.2453
 3015TIP3    H2 9010   5.526   4.153   5.096  0.5603 -0.4208  0.1027
 3016TIP3   OH2 9011   1.774   6.261   0.256 -0.1046  0.3307 -0.1944
 3016TIP3    H1 9012   1.691   6.238   0.297 -0.0190 -1.7398 -1.0635
 3016TIP3    H2 9013   1.840   6.231   0.318  0.0325  1.5231  0.2658
 3017TIP3   OH2 9014   7.112   3.672   0.666  0.3301 -0.4838  0.6202
 3017TIP3    H1 9015   7.197   3.677   0.709  1.2448 -1.8853 -0.9132
 3017TIP3    H2 9016   7.056   3.626   0.728  1.0426 -0.6614  1.1358
 3018TIP3   OH2 9017   5.258   1.801   2.488 -0.2943  0.1172  0.2779
 3018TIP3    H1 9018   5.265   1.724   2.545  0.9819  0.5836  0.7940
 3018TIP3    H2 9019   5.347   1.837   2.486 -0.4035  0.3912 -1.6381
 3019TIP3   OH2 9020   4.258   1.680   0.825 -0.1680 -0.2879 -0.1901
 3019TIP3    H1 9021   4.253   1.620   0.750 -1.8319 -3.2951  2.0701
 3019TIP3    H2 9022   4.344   1.663   0.863 -0.5423 -1.1354  0.3074
 3020TIP3   OH2 9023   4.211   3.358   3.249 -0.0797 -0.2575  0.5001
 3020TIP3    H1 9024   4.286   3.417   3.255  0.0777 -0.0349 -2.1418
 3020TIP3    H2 9025   4.137   3.409   3.281  0.5396  0.2985  1.0665
 3021TIP3   OH2 9026   1.152   0.599   5.119  0.2600 -0.0855  0.0117
 3021TIP3    H1 9027   1.124   0.690   5.134 -0.9840 -0.5201  0.4533
 3021TIP3    H2 9028   1.240   0.607   5.083  0.0046  1.3161 -0.3725
 3022TIP3   OH2 9029   5.581   6.358   0.476  0.3627  0.3997  0.5727
 3022TIP3    H1 9030   5.506   6.408   0.443  0.1881  0.1398  0.5755
 3022TIP3    H2 9031   5.548   6.312   0.552  0.2492 -0.5063 -0.0098
 3023TIP3   OH2 9032   5.072   6.165   2.052  0.5941 -0.6361  0.4397
 3023TIP3    H1 9033   5.152   6.131   2.012  0.7359  0.4781 -0.2484
 3023TIP3    H2 9034   5.038   6.091   2.102 -0.0198 -2.3879 -2.3309
 3024TIP3   OH2 9035   2.011   3.085   4.483  0.4505 -0.1646  0.4514
 3024TIP3    H1 9036   1.957   3.153   4.523  0.6327  0.8112 -0.9135
 3024TIP3    H2 9037   1.957   3.049   4.413  0.2201 -1.7053  1.3755
 3025TIP3   OH2 9038   0.697   2.522   2.388 -0.4038 -0.0919  0.6318
 3025TIP3    H1 9039   0.715   2.570   2.308  0.1387  0.0370  0.8270
 3025TIP3    H2 9040   0.783   2.505   2.426 -0.7163  1.4895  2.1445
 3026TIP3   OH2 9041   4.709   0.294   4.515 -0.1191 -0.0255  0.3187
 3026TIP3    H1 9042   4.706   0.206   4.551  0.3215 -0.1937 -0.0486
 3026TIP3    H2 9043   4.634   0.338   4.554  1.1239  0.2481  2.5670
 3027TIP3   OH2 9044   1.841   0.001   2.777  0.1249 -0.1805  0.2446
 3027TIP3    H1 9045   1.917   0.058   2.787  0.6290 -0.8378  0.2626
 3027TIP3    H2 9046   1.765   0.058   2.791  0.6389  0.1813  1.8117
 3028TIP3   OH2 9047   2.568   2.512   3.475 -0.1369 -0.2356 -0.1532
 3028TIP3    H1 9048   2.586   2.548   3.561 -2.1807 -0.0614  0.2587
 3028TIP3    H2 9049   2.574   2.587   3.416  0.5967 -0.2259 -0.0742
 3029TIP3   OH2 9050   4.378   1.556   5.734 -0.1462 -0.2474 -0.4041
 3029TIP3    H1 9051   4.304   1.509   5.695  0.2574 -1.2540  0.0243
 3029TIP3    H2 9052   4.341   1.640   5.760 -1.3022 -0.9507  0.3243
 3030TIP3   OH2 9053   4.528   1.566   3.546  0.2853  0.3132 -0.1402
 3030TIP3    H1 9054   4.480   1.510   3.608  1.2601  0.5445  0.8538
 3030TIP3    H2 9055   4.512   1.655   3.577 -0.0052  0.4987 -0.8093
 3031TIP3   OH2 9056   6.343   2.034   0.180  0.4252 -0.5720  0.2380
 3031TIP3    H1 9057   6.404   2.022   0.108  1.1513 -0.5024  0.8289
 3031TIP3    H2 9058   6.265   1.984   0.154 -0.5466  1.8561 -1.9707
 3032TIP3   OH2 9059   4.845   5.545   2.573 -0.1038  0.7150  0.9094
 3032TIP3    H1 9060   4.935   5.514   2.559 -0.2154  0.4594  0.7642
 3032TIP3    H2 9061   4.827   5.602   2.498  0.2228  1.4147  1.3480
 3033TIP3   OH2 9062   6.337   0.672   5.180  0.2538 -0.8467 -0.0749
 3033TIP3    H1 9063   6.246   0.664   5.206 -1.2086  0.9576 -3.8627
 3033TIP3    H2 9064   6.362   0.584   5.152 -0.8879 -1.0541 -0.4924
 3034TIP3   OH2 9065   5.950   3.073   4.841 -0.0084  0.2460  0.1199
 3034TIP3    H1 9066   5.879   3.137   4.837 -0.8982 -0.3270  3.7947
 3034TIP3    H2 9067   6.010   3.107   4.908  1.6329 -0.8204 -0.7145
 3035TIP3   OH2 9068   4.262   1.767   2.646 -0.0125 -0.1669 -0.0633
 3035TIP3    H1 9069   4.197   1.753   2.577 -0.6004  1.3746  0.1331
 3035TIP3    H2 9070   4.346   1.743   2.606 -0.4614 -0.2505 -0.9804
 3036TIP3   OH2 9071   2.212   4.691   4.817 -0.6514 -0.5631  0.3936
 3036TIP3    H1 9072   2.231   4.617   4.873 -1.4618 -1.7375 -0.8066
 3036TIP3    H2 9073   2.228   4.659   4.728  0.2424  1.1140 -0.1004
 3037TIP3   OH2 9074   0.666   4.295   4.068  0.8757 -0.2253 -0.5794
 3037TIP3    H1 9075   0.743   4.327   4.021  0.2514 -1.6203 -2.6707
 3037TIP3    H2 9076   0.692   4.208   4.099  0.8712  0.2088  0.7278
 3038TIP3   OH2 9077   6.017   4.844   1.975 -0.5395  0.0905 -0.4382
 3038TIP3    H1 9078   6.009   4.764   2.027 -0.2877 -0.4532 -1.2350
 3038TIP3    H2 9079   5.933   4.853   1.931 -0.7043  0.4831 -0.0630
 3039TIP3   OH2 9080   1.494   0.601   1.202 -0.1313  0.0984 -0.3461
 3039TIP3    H1 9081   1.400   0.590   1.220  0.0979 -1.4759  0.0450
 3039TIP3    H2 9082   1.502   0.691   1.170 -1.7762  0.2483 -0.4197
 3040TIP3   OH2 9083   0.300   0.253   3.686  0.4195 -0.2510  0.0207
 3040TIP3    H1 9084   0.371   0.199   3.722  0.5466 -0.1687 -0.1067
 3040TIP3    H2 9085   0.251   0.282   3.762 -0.7420 -2.0468  0.0061
 3041TIP3   OH2 9086   0.949   4.140   3.055  0.3729 -0.0326 -0.1211
 3041TIP3    H1 9087   1.023   4.139   3.117  1.8427  0.0435 -1.8051
 3041TIP3    H2 9088   0.872   4.126   3.110  1.5624  0.5430  1.7898
 3042TIP3   OH2 9089   0.432   1.051   3.971  0.3919  0.0119  0.5525
 3042TIP3    H1 9090   0.346   1.029   4.006 -0.5079  2.2177 -0.1409
 3042TIP3    H2 9091   0.430   1.020   3.880  0.1069  0.5551  0.3699
 3043TIP3   OH2 9092   2.888   3.363   2.145  0.5042  0.0506  0.4884
 3043TIP3    H1 9093   2.966   3.372   2.199  0.8497 -0.3723  0.0684
 3043TIP3    H2 9094   2.921   3.346   2.057 -0.0374  1.6500 -0.0506
 3044TIP3   OH2 9095   0.145   5.829   2.773  0.1385  0.0484  0.4208
 3044TIP3    H1 9096   0.180   5.752   2.729  0.6221  0.1010  0.6995
 3044TIP3    H2 9097   0.188   5.829   2.859 -0.1167  0.4350  0.5512
 3045TIP3   OH2 9098   3.539   1.493   1.265 -0.6143 -0.1859 -0.2568
 3045TIP3    H1 9099   3.588   1.560   1.313  2.4337 -0.7375 -2.2789
 3045TIP3    H2 9100   3.454   1.532   1.249  0.5872  2.7082 -0.2673
 3046TIP3   OH2 9101   1.098   5.094   2.352 -0.5196 -0.1724 -0.0307
 3046TIP3    H1 9102   1.007   5.117   2.372 -0.7039 -0.2309 -0.7750
 3046TIP3    H2 9103   1.143   5.178   2.347 -0.1829 -0.1847  1.8305
 3047TIP3   OH2 9104   5.111   3.274   2.845  0.5002 -0.0112 -0.1797
 3047TIP3    H1 9105   5.036   3.310   2.798 -0.6205  1.1732  2.3117
 3047TIP3    H2 9106   5.184   3.329   2.818  0.2509 -0.3677 -1.6831
 3048TIP3   OH2 9107   4.901   4.221   4.407 -0.1776  0.4972  0.1295
 3048TIP3    H1 9108   4.831   4.183   4.460 -2.1327  1.9635 -1.2690
 3048TIP3    H2 9109   4.891   4.179   4.321  0.0221  1.4551 -0.3705
 3049TIP3   OH2 9110   5.920   1.160   2.232  0.1329 -0.2666  0.0516
 3049TIP3    H1 9111   5.878   1.246   2.234 -2.5843 -1.2990 -2.9194
 3049TIP3    H2 9112   5.936   1.144   2.139 -0.5376 -3.3933  0.3645
 3050TIP3   OH2 9113   5.931   0.254   5.408  0.5035  0.1194 -0.0979
 3050TIP3    H1 9114   5.941   0.240   5.313 -1.1810  2.3876 -0.6789
 3050TIP3    H2 9115   6.013   0.221   5.445  2.1810  1.1856 -2.5951
 3051TIP3   OH2 9116   4.710   4.624   1.200  0.5379  0.4842  0.1657
 3051TIP3    H1 9117   4.731   4.715   1.219 -2.0361  0.7132  2.6810
 3051TIP3    H2 9118   4.740   4.576   1.277  1.7621 -0.8287 -1.0797
 3052TIP3   OH2 9119   6.641   2.901   4.085 -0.3845  0.7764 -0.5974
 3052TIP3    H1 9120   6.645   2.960   4.160 -1.1419  0.3480 -0.2146
 3052TIP3    H2 9121   6.552   2.867   4.085  0.5428 -1.8800  0.3665
 3053TIP3   OH2 9122   1.827   2.620   0.936  0.1573 -0.6360  0.2787
 3053TIP3    H1 9123   1.864   2.544   0.981 -0.8738 -0.1469  2.0554
 3053TIP3    H2 9124   1.833   2.598   0.843  1.4904 -2.1201  0.6716
 3054TIP3   OH2 9125   5.656   4.260   0.939  0.2828 -0.1400 -0.7609
 3054TIP3    H1 9126   5.621   4.219   1.018  1.3865 -1.5934 -0.9782
 3054TIP3    H2 9127   5.591   4.243   0.871  0.9676 -2.1309 -0.9836
 3055TIP3   OH2 9128   4.212   5.893   2.489  0.2960  0.6711 -0.3275
 3055TIP3    H1 9129   4.224   5.935   2.574 -1.2290  0.5735 -0.0287
 3055TIP3    H2 9130   4.195   5.966   2.429  2.5661  0.8568 -0.8529
 3056TIP3   OH2 9131   0.171   2.798   3.888 -0.5162 -0.0311 -0.3013
 3056TIP3    H1 9132   0.096   2.739   3.891 -1.2543  0.8367 -1.2012
 3056TIP3    H2 9133   0.133   2.885   3.876  0.5860  0.5617  0.3091
 3057TIP3   OH2 9134   4.179   1.253   1.194 -0.6588 -0.9123  0.2281
 3057TIP3    H1 9135   4.266   1.221   1.215 -1.3180 -1.4386  2.5169
 3057TIP3    H2 9136   4.154   1.306   1.271 -1.8521  0.3060 -0.9371
 3058TIP3   OH2 9137   1.689   4.472   5.033 -0.2771  0.0191  0.4145
 3058TIP3    H1 9138   1.784   4.464   5.022 -0.2944 -1.2428  1.0033
 3058TIP3    H2 9139   1.652   4.403   4.978 -0.8956  0.9372 -0.3401
 3059TIP3   OH2 9140   6.679   6.080   2.519  0.2067  0.3098 -0.0060
 3059TIP3    H1 9141   6.598   6.038   2.491 -0.8774  2.5523 -0.4239
 3059TIP3    H2 9142   6.744   6.050   2.455  0.1340 -2.5787  1.0927
 3060TIP3   OH2 9143   5.970   0.211   3.600 -0.1384  0.7223 -0.5014
 3060TIP3    H1 9144   5.904   0.159   3.554 -0.3345  1.2908 -0.8733
 3060TIP3    H2 9145   5.937   0.219   3.689  0.1117 -0.1614 -0.3178
 3061TIP3   OH2 9146   1.000   4.468   4.305 -0.3727  0.4837  0.0474
 3061TIP3    H1 9147   0.962   4.402   4.363  0.1935 -0.3535 -0.4971
 3061TIP3    H2 9148   1.095   4.455   4.313 -0.2749  0.7043 -0.6668
 3062TIP3   OH2 9149   0.802   5.992   5.276 -0.0297  0.0522  0.1058
 3062TIP3    H1 9150   0.872   6.038   5.230  1.0984 -1.3763  0.3273
 3062TIP3    H2 9151   0.792   6.040   5.358 -0.3433  1.1450 -0.5588
 3063TIP3   OH2 9152   6.348   2.292   5.329 -0.1158 -0.1561  0.2153
 3063TIP3    H1 9153   6.406   2.367   5.339 -0.4621 -0.0082  1.3150
 3063TIP3    H2 9154   6.267   2.318   5.374 -0.5315 -0.8813 -0.0873
 3064TIP3   OH2 9155   2.115   4.768   3.761  0.5567 -0.0494 -0.0968
 3064TIP3    H1 9156   2.133   4.675   3.747  1.3314  0.0173  0.4077
 3064TIP3    H2 9157   2.193   4.801   3.805 -0.4089  0.4704  1.3115
 3065TIP3   OH2 9158   0.743   3.851   1.180  0.6719 -0.0852  0.2846
 3065TIP3    H1 9159   0.808   3.917   1.153 -0.4526  0.4610 -1.2744
 3065TIP3    H2 9160   0.792   3.769   1.185  1.7624  0.5670  0.5890
 3066TIP3   OH2 9161   2.921   5.135   2.471  0.1988  0.2783 -0.1091
 3066TIP3    H1 9162   2.860   5.066   2.445  2.0542 -1.0274 -1.1884
 3066TIP3    H2 9163   2.876   5.216   2.449 -1.2239 -0.6296 -0.6848
 3067TIP3   OH2 9164   3.480   1.271   1.421 -0.3222 -0.3802 -0.3861
 3067TIP3    H1 9165   3.478   1.323   1.341  0.7821 -0.4682 -0.4887
 3067TIP3    H2 9166   3.561   1.298   1.465 -0.9568 -0.2615  0.7516
 3068TIP3   OH2 9167   6.395   1.735   2.737  0.6515 -0.4655 -0.4957
 3068TIP3    H1 9168   6.331   1.807   2.731 -1.0622 -1.8979 -0.2735
 3068TIP3    H2 9169   6.416   1.731   2.831  0.4084 -0.5322 -0.4424
 3069TIP3   OH2 9170   5.039   4.245   3.471 -0.8604  0.3499 -0.0315
 3069TIP3    H1 9171   5.054   4.333   3.437 -0.9894  0.4507  0.1706
 3069TIP3    H2 9172   5.126   4.209   3.483 -0.7892  0.6686  0.4501
 3070TIP3   OH2 9173   1.295   5.833   1.836  0.3769  0.0620  0.0496
 3070TIP3    H1 9174   1.278   5.913   1.786  1.5157  0.1300 -0.2623
 3070TIP3    H2 9175   1.390   5.832   1.847  0.2778 -0.7355  0.9292
 3071TIP3   OH2 9176   3.999   1.514   1.896  0.7030 -0.3351  0.3945
 3071TIP3    H1 9177   3.975   1.566   1.973  2.7508  0.3758  0.6169
 3071TIP3    H2 9178   4.050   1.573   1.841 -1.2981 -0.6245 -1.9199
 3072TIP3   OH2 9179   3.195   2.886   3.779 -0.1210 -0.5612 -0.3787
 3072TIP3    H1 9180   3.106   2.854   3.793 -0.1644 -0.7921 -1.1328
 3072TIP3    H2 9181   3.231   2.896   3.867 -1.0200 -0.0895 -0.0569
 3073TIP3   OH2 9182   3.981   2.703   3.349  0.3246  0.1798  0.1843
 3073TIP3    H1 9183   3.903   2.721   3.401  1.8250  0.6744  2.3959
 3073TIP3    H2 9184   3.947   2.685   3.261 -2.2509  0.3986  1.0377
 3074TIP3   OH2 9185   4.048   1.337   4.070  0.4390 -0.0181 -0.7896
 3074TIP3    H1 9186   4.064   1.311   3.979 -0.7496  1.9740 -1.6494
 3074TIP3    H2 9187   4.096   1.420   4.080  3.0658 -1.6564  1.4255
 3075TIP3   OH2 9188   4.430   0.360   5.823 -0.7942  0.1686  0.3460
 3075TIP3    H1 9189   4.498   0.427   5.829  1.6297 -2.1800  0.6882
 3075TIP3    H2 9190   4.395   0.353   5.911 -1.0166  0.8989  0.3238
 3076TIP3   OH2 9191   4.251   2.042   0.168 -0.0520  0.6065  0.0531
 3076TIP3    H1 9192   4.242   1.958   0.213 -1.6585  1.1373  0.8253
 3076TIP3    H2 9193   4.270   2.104   0.238 -0.9701  1.1977 -0.2008
 3077TIP3   OH2 9194   3.941   2.750   1.473  0.4651 -0.1519  0.5005
 3077TIP3    H1 9195   3.885   2.696   1.418 -0.2849 -1.0450  2.0509
 3077TIP3    H2 9196   4.021   2.762   1.422 -1.3895  1.9859 -2.2256
 3078TIP3   OH2 9197   3.303   0.871   2.235  0.2656  0.2635 -0.3220
 3078TIP3    H1 9198   3.248   0.867   2.156  0.9437  0.6233 -0.8245
 3078TIP3    H2 9199   3.370   0.936   2.214  0.4208  0.4111  0.5852
 3079TIP3   OH2 9200   0.924   6.676   0.468  0.2321 -0.2957  0.0053
 3079TIP3    H1 9201   0.873   6.595   0.476  0.5464 -0.5002 -0.0364
 3079TIP3    H2 9202   0.863   6.739   0.430  0.4695 -0.9707 -1.5435
 3080TIP3   OH2 9203   1.365   3.501   1.952 -0.1486  0.3702  0.1365
 3080TIP3    H1 9204   1.353   3.465   1.864  0.9946 -0.3766  0.2511
 3080TIP3    H2 9205   1.459   3.522   1.956  0.3160 -1.5977  1.8501
 3081TIP3   OH2 9206   6.721   5.844   3.248  0.0858  0.1153  0.1012
 3081TIP3    H1 9207   6.747   5.932   3.219 -1.6136  1.1957  1.6399
 3081TIP3    H2 9208   6.795   5.815   3.303 -0.4702  1.8181  1.8682
 3082TIP3   OH2 9209   5.510   4.515   5.614  0.0015  0.0563  0.0672
 3082TIP3    H1 9210   5.430   4.483   5.657 -0.4042 -0.3583 -0.9713
 3082TIP3    H2 9211   5.505   4.610   5.622 -0.7709  0.0506 -0.2807
 3083TIP3   OH2 9212   2.774   2.140   0.411  0.0162  0.0650 -0.0141
 3083TIP3    H1 9213   2.701   2.092   0.373 -0.3810  0.0507  0.7591
 3083TIP3    H2 9214   2.841   2.074   0.426 -0.2976 -0.1507  0.4686
 3084TIP3   OH2 9215   4.341   1.863   3.481 -0.1135 -0.3433 -0.1974
 3084TIP3    H1 9216   4.371   1.949   3.450 -0.1819  0.1892  1.1547
 3084TIP3    H2 9217   4.248   1.876   3.502 -0.0953 -0.7111  0.1264
 3085TIP3   OH2 9218   1.630   1.623   0.172  0.4023 -0.2921 -0.1059
 3085TIP3    H1 9219   1.634   1.713   0.139 -0.2668 -0.2118  0.0104
 3085TIP3    H2 9220   1.705   1.579   0.131  0.2193  0.0843 -0.8755
 3086TIP3   OH2 9221   3.020   6.677   5.601  0.1469  0.0103  0.3994
 3086TIP3    H1 9222   2.933   6.689   5.639  0.1851  2.6564 -0.1419
 3086TIP3    H2 9223   3.059   6.765   5.603  1.5069 -0.4093 -2.3805
 3087TIP3   OH2 9224   5.644   0.990   4.537 -0.1397  0.0569  0.3427
 3087TIP3    H1 9225   5.651   0.921   4.603  1.8879 -0.6136 -0.4848
 3087TIP3    H2 9226   5.602   0.948   4.462  1.9866 -0.6855 -0.5333
 3088TIP3   OH2 9227   0.509   2.644   4.914 -0.1722  0.2336 -0.1333
 3088TIP3    H1 9228   0.458   2.604   4.845  0.1138  0.1634 -0.3049
 3088TIP3    H2 9229   0.540   2.726   4.877 -1.8145  1.2630  0.6394
 3089TIP3   OH2 9230   5.101   3.400   0.547 -0.1330  0.0734  1.1396
 3089TIP3    H1 9231   5.134   3.310   0.547  2.0757  0.7839 -0.0864
 3089TIP3    H2 9232   5.159   3.446   0.607  2.1264  1.6103 -1.9284
 3090TIP3   OH2 9233   4.570   5.531   1.500  0.0041  0.0414  0.0385
 3090TIP3    H1 9234   4.631   5.464   1.530  0.7617  0.4799 -0.4773
 3090TIP3    H2 9235   4.494   5.522   1.557 -0.6903 -2.4144 -1.1385
 3091TIP3   OH2 9236   0.690   5.334   0.224  0.4453 -0.1621  0.2056
 3091TIP3    H1 9237   0.713   5.426   0.236 -1.7555  0.8497 -2.3041
 3091TIP3    H2 9238   0.602   5.327   0.262  0.6229 -1.2796  0.4427
 3092TIP3   OH2 9239   4.104   1.469   2.217 -0.0899 -0.0132 -0.1278
 3092TIP3    H1 9240   4.096   1.564   2.213 -0.3831 -0.0737 -1.5777
 3092TIP3    H2 9241   4.015   1.438   2.233  0.0961 -0.0411  0.9365
 3093TIP3   OH2 9242   1.295   6.022   4.394 -0.1468 -0.0577 -0.1418
 3093TIP3    H1 9243   1.328   6.002   4.307  0.5230  0.2083  0.0485
 3093TIP3    H2 9244   1.300   5.938   4.441  1.0572  0.1493  0.1375
 3094TIP3   OH2 9245   6.117   2.762   4.331  0.1537  0.1134  0.7015
 3094TIP3    H1 9246   6.097   2.845   4.289  0.9718  0.0817  0.2182
 3094TIP3    H2 9247   6.203   2.775   4.371 -0.2389 -0.1294  1.6492
 3095TIP3   OH2 9248   1.457   3.627   1.165 -0.7259  0.3549 -0.4955
 3095TIP3    H1 9249   1.453   3.714   1.204  0.2546  0.2835 -0.2100
 3095TIP3    H2 9250   1.480   3.569   1.237 -0.0087  0.0584 -0.9549
 3096TIP3   OH2 9251   4.399   4.129   4.184  0.4994  0.0753 -0.0552
 3096TIP3    H1 9252   4.408   4.126   4.089  1.3059 -0.6977  0.0312
 3096TIP3    H2 9253   4.489   4.119   4.217  0.1000 -0.8896  0.7944
 3097TIP3   OH2 9254   6.990   5.034   2.916  0.1579 -0.3664 -0.1297
 3097TIP3    H1 9255   7.003   5.081   2.834  0.1246  0.3158  0.2406
 3097TIP3    H2 9256   6.932   5.091   2.967  1.4925  0.0349  1.0184
 3098TIP3   OH2 9257   2.668   6.015   0.753 -0.2259 -0.1479  0.7048
 3098TIP3    H1 9258   2.701   5.990   0.667  1.1825  0.1097  1.1478
 3098TIP3    H2 9259   2.742   6.057   0.796 -1.1024  0.3174  1.8095
 3099TIP3   OH2 9260   6.735   3.246   2.762  0.5111  0.2332 -0.4981
 3099TIP3    H1 9261   6.779   3.184   2.820 -1.6334  0.5839  1.6814
 3099TIP3    H2 9262   6.753   3.332   2.800  1.0665  0.7271 -1.8144
 3100TIP3   OH2 9263   4.907   2.985   3.952 -0.0099 -0.8196  0.0974
 3100TIP3    H1 9264   4.857   2.912   3.916 -0.5093 -0.5211  0.1691
 3100TIP3    H2 9265   4.852   3.018   4.023 -0.3367  0.3631 -0.6792
 3101TIP3   OH2 9266   4.565   3.417   3.754 -0.6271 -0.1569 -0.4098
 3101TIP3    H1 9267   4.599   3.486   3.698  0.7643 -0.1471  0.3879
 3101TIP3    H2 9268   4.550   3.343   3.695 -0.3195  0.2287 -0.9755
 3102TIP3   OH2 9269   5.924   6.608   2.314 -0.4064  0.0323  0.3145
 3102TIP3    H1 9270   5.854   6.566   2.364 -1.4501  0.8673 -0.3933
 3102TIP3    H2 9271   5.880   6.642   2.236  0.9990 -0.3557 -0.6829
 3103TIP3   OH2 9272   5.517   1.066   2.507  0.2572  0.9253 -0.5510
 3103TIP3    H1 9273   5.599   1.033   2.470  0.1730 -0.0751  0.1195
 3103TIP3    H2 9274   5.458   0.991   2.506 -0.1268  1.1930  0.4841
 3104TIP3   OH2 9275   6.723   4.815   2.490 -0.2542 -0.0537 -0.2017
 3104TIP3    H1 9276   6.810   4.786   2.516 -0.0567  2.2977  2.1105
 3104TIP3    H2 9277   6.665   4.744   2.520  0.6196 -0.3656  0.8218
 3105TIP3   OH2 9278   4.103   4.080   5.665 -0.0695  0.0063  0.5256
 3105TIP3    H1 9279   4.147   4.046   5.742  0.3403  0.7502  0.6268
 3105TIP3    H2 9280   4.042   4.146   5.699 -0.1344  0.0931  0.2443
 3106TIP3   OH2 9281   0.258   6.645   0.475  0.1525 -0.0453 -0.2404
 3106TIP3    H1 9282   0.242   6.680   0.563  0.9822 -0.2973  0.0163
 3106TIP3    H2 9283   0.252   6.550   0.485 -1.6678 -0.0414 -0.8535
 3107TIP3   OH2 9284   6.389   5.289   0.441  0.3321  0.1824 -0.1799
 3107TIP3    H1 9285   6.448   5.363   0.451  0.2296  0.1089  1.0604
 3107TIP3    H2 9286   6.441   5.212   0.466  1.3373 -0.6089 -4.0729
 3108TIP3   OH2 9287   4.312   0.465   5.557 -0.3434  0.1888 -0.0419
 3108TIP3    H1 9288   4.350   0.553   5.552  1.3168 -0.4826  0.0508
 3108TIP3    H2 9289   4.287   0.455   5.649  0.4239  0.1937  0.1702
 3109TIP3   OH2 9290   2.958   2.410   5.692 -0.4772 -0.3388 -0.4908
 3109TIP3    H1 9291   3.007   2.406   5.774  0.7502  0.6291 -1.1526
 3109TIP3    H2 9292   3.010   2.466   5.635 -1.0665 -1.3413 -2.1048
 3110TIP3   OH2 9293   4.712   3.400   1.818  0.1530  0.3096  0.6810
 3110TIP3    H1 9294   4.647   3.408   1.888 -0.3393 -2.1128  0.5955
 3110TIP3    H2 9295   4.670   3.344   1.752  1.5273  0.4838 -0.3961
 3111TIP3   OH2 9296   5.501   3.491   2.322  0.4908  0.0180 -0.1922
 3111TIP3    H1 9297   5.498   3.582   2.294 -0.0776 -0.8818 -3.4743
 3111TIP3    H2 9298   5.555   3.492   2.401  1.3226  3.0549 -0.6689
 3112TIP3   OH2 9299   0.003   1.773   0.450  0.2708 -0.4933  0.0988
 3112TIP3    H1 9300  -0.031   1.790   0.538 -0.6379  2.6536 -0.7434
 3112TIP3    H2 9301   0.080   1.830   0.443  0.3794 -0.7694 -1.1394
 3113TIP3   OH2 9302   3.194   6.651   3.642 -0.3685 -0.2111  0.2508
 3113TIP3    H1 9303   3.171   6.576   3.697  0.8084 -0.1934  0.7919
 3113TIP3    H2 9304   3.249   6.706   3.698  1.0548 -0.3023 -0.9886
 3114TIP3   OH2 9305   1.597   4.712   1.536  0.2010  0.2504 -1.2059
 3114TIP3    H1 9306   1.643   4.663   1.605 -0.2138 -0.6086 -1.5203
 3114TIP3    H2 9307   1.537   4.769   1.584  0.2529  0.0024 -0.8378
 3115TIP3   OH2 9308   4.389   5.499   4.095 -0.2857  0.7923  0.2373
 3115TIP3    H1 9309   4.327   5.427   4.084  1.7488 -1.4008  1.8873
 3115TIP3    H2 9310   4.443   5.497   4.016  0.3502 -0.1696  0.6770
 3116TIP3   OH2 9311   0.237   5.758   1.098 -0.2058 -0.1510  0.2710
 3116TIP3    H1 9312   0.327   5.729   1.109  0.2058  0.9656 -0.0894
 3116TIP3    H2 9313   0.202   5.761   1.187  0.3602  0.2137  0.4856
 3117TIP3   OH2 9314   1.724   3.976   0.789  0.2429  0.4584  0.4468
 3117TIP3    H1 9315   1.688   3.916   0.855 -0.8927 -1.7893 -2.0269
 3117TIP3    H2 9316   1.817   3.953   0.784  0.4238  0.9117  1.4708
 3118TIP3   OH2 9317   1.924   3.971   3.329 -0.0425  0.3328 -0.2159
 3118TIP3    H1 9318   1.912   3.887   3.284  0.5859 -1.1107  2.0905
 3118TIP3    H2 9319   2.019   3.980   3.337 -0.1082  1.2747 -0.4125
 3119TIP3   OH2 9320   5.876   6.278   1.464 -0.5589 -0.6315  0.7636
 3119TIP3    H1 9321   5.958   6.315   1.430 -0.6480 -1.8998 -1.0153
 3119TIP3    H2 9322   5.888   6.184   1.456 -2.2582 -0.8387  0.2467
 3120TIP3   OH2 9323   3.314   0.107   3.332  0.5215 -0.2435 -0.0404
 3120TIP3    H1 9324   3.335   0.084   3.242 -0.4251  1.1560 -0.6361
 3120TIP3    H2 9325   3.400   0.113   3.375  0.9375 -1.9677 -0.5445
 3121TIP3   OH2 9326   2.290   2.591   1.226  0.2794 -0.1137 -0.2121
 3121TIP3    H1 9327   2.236   2.512   1.217  1.3364 -1.0573  1.2416
 3121TIP3    H2 9328   2.366   2.574   1.170  1.3393 -0.9334  1.4138
 3122TIP3   OH2 9329   5.464   2.143   0.741 -0.8732 -0.0885 -0.2662
 3122TIP3    H1 9330   5.477   2.057   0.783 -1.9540 -1.3300 -2.3263
 3122TIP3    H2 9331   5.369   2.150   0.732 -0.8187  1.5366  0.1999
 3123TIP3   OH2 9332   0.345   4.346   5.137  0.2130  0.1108  0.1570
 3123TIP3    H1 9333   0.350   4.431   5.093  0.4970 -0.2521 -0.5154
 3123TIP3    H2 9334   0.339   4.368   5.230 -1.2123  0.9124 -0.0889
 3124TIP3   OH2 9335   0.526   2.765   3.009 -0.3442  0.2574 -0.2328
 3124TIP3    H1 9336   0.618   2.772   2.985 -0.4825  0.0345 -0.8322
 3124TIP3    H2 9337   0.512   2.837   3.071  0.0351  0.7986 -0.7679
 3125TIP3   OH2 9338   2.541   2.330   1.333  0.4238  0.5927 -0.3510
 3125TIP3    H1 9339   2.530   2.240   1.301  0.9895  0.4220 -0.0741
 3125TIP3    H2 9340   2.455   2.352   1.370  0.4467 -0.0539  0.1171
 3126TIP3   OH2 9341   3.482   0.698   4.082 -0.0348 -0.3982 -0.1327
 3126TIP3    H1 9342   3.546   0.767   4.095 -1.0020  0.4585  0.2314
 3126TIP3    H2 9343   3.472   0.691   3.987 -0.6112  0.6434 -0.1706
 3127TIP3   OH2 9344   0.011   4.550   0.103  0.0328 -0.2650  0.4516
 3127TIP3    H1 9345   0.038   4.503   0.183  0.9644  0.4232  0.5580
 3127TIP3    H2 9346   0.057   4.634   0.108 -1.8978  0.8407  0.4563
 3128TIP3   OH2 9347   2.211   1.839   0.079 -0.1471  0.1195 -0.5651
 3128TIP3    H1 9348   2.287   1.798   0.038 -0.6719 -0.5085 -0.9281
 3128TIP3    H2 9349   2.164   1.881   0.006  0.8444  2.1677 -0.0900
 3129TIP3   OH2 9350   3.925   1.206   0.711  0.1009 -0.3141  0.2360
 3129TIP3    H1 9351   3.906   1.113   0.719 -1.3169 -0.0803 -0.0150
 3129TIP3    H2 9352   3.986   1.225   0.783  0.3005 -1.3939  0.3704
 3130TIP3   OH2 9353   3.732   6.231   4.491 -0.0352 -0.2288  0.4502
 3130TIP3    H1 9354   3.742   6.290   4.566  0.8298  0.3325 -0.0964
 3130TIP3    H2 9355   3.642   6.199   4.499  0.3673 -1.0504  2.3407
 3131TIP3   OH2 9356   5.078   2.712   4.811 -0.0997 -0.1860 -0.0978
 3131TIP3    H1 9357   5.017   2.723   4.738 -0.2756 -2.8215 -0.4566
 3131TIP3    H2 9358   5.163   2.697   4.769 -0.2517 -2.0007  0.1629
 3132TIP3   OH2 9359   6.619   4.447   4.500  0.1591 -0.8613  0.2451
 3132TIP3    H1 9360   6.637   4.353   4.507 -0.8117 -0.9403  2.4388
 3132TIP3    H2 9361   6.534   4.451   4.455  0.5816 -0.9615 -0.5927
 3133TIP3   OH2 9362   5.818   4.031   4.673 -0.3700  0.0363  0.3926
 3133TIP3    H1 9363   5.835   4.003   4.583 -1.0234 -3.8365  1.3274
 3133TIP3    H2 9364   5.898   4.008   4.721 -0.7765  0.2500  1.1838
 3134TIP3   OH2 9365   3.584   3.371   5.921 -0.1718  0.2067  0.3819
 3134TIP3    H1 9366   3.649   3.355   5.853 -1.6889 -2.3245 -0.6070
 3134TIP3    H2 9367   3.506   3.400   5.874 -0.7126  0.1467  1.2161
 3135TIP3   OH2 9368   0.775   0.820   4.389  0.4585 -0.5331 -0.5142
 3135TIP3    H1 9369   0.833   0.749   4.365 -0.8098 -1.6185 -0.4961
 3135TIP3    H2 9370   0.706   0.818   4.323 -0.8365 -0.8501  0.7965
 3136TIP3   OH2 9371   1.044   1.732   3.673  0.0173 -0.0409 -0.3557
 3136TIP3    H1 9372   1.057   1.826   3.658  0.0854 -0.3284 -2.3164
 3136TIP3    H2 9373   1.009   1.727   3.762 -0.2785  1.8661 -0.3180
 3137TIP3   OH2 9374   4.679   0.093   5.043  0.4458 -0.1484 -0.2781
 3137TIP3    H1 9375   4.762   0.120   5.003  0.7580 -2.0130 -0.9555
 3137TIP3    H2 9376   4.670   0.152   5.119  2.3414  0.1508 -0.2142
 3138TIP3   OH2 9377   4.127   3.576   5.232  0.4057 -0.0005  0.0015
 3138TIP3    H1 9378   4.186   3.618   5.169 -2.1869  1.6021 -1.5509
 3138TIP3    H2 9379   4.115   3.487   5.198  0.3577  0.3198 -0.8413
 3139TIP3   OH2 9380   0.621   5.085   4.698  0.7084 -0.0088 -0.6479
 3139TIP3    H1 9381   0.622   5.004   4.647  0.5264 -0.7309  0.4617
 3139TIP3    H2 9382   0.616   5.155   4.633 -0.9357 -0.9411 -1.5688
 3140TIP3   OH2 9383   7.171   6.275   2.124 -0.2974 -0.7078  0.1445
 3140TIP3    H1 9384   7.220   6.197   2.147  1.0594  0.2593  0.6930
 3140TIP3    H2 9385   7.201   6.299   2.037  0.2306 -0.1102  0.4817
 3141TIP3   OH2 9386   2.183   5.084   3.366  0.1636 -0.1295  0.2236
 3141TIP3    H1 9387   2.188   5.110   3.458  1.5579 -1.2935  0.5108
 3141TIP3    H2 9388   2.165   4.990   3.368  3.1557 -0.8244 -0.5672
 3142TIP3   OH2 9389   1.184   3.507   5.663 -0.6506 -0.0020  0.1915
 3142TIP3    H1 9390   1.213   3.500   5.754 -0.5402  1.1997  0.2667
 3142TIP3    H2 9391   1.224   3.432   5.619 -1.6882 -1.2788  1.3637
 3143TIP3   OH2 9392   1.527   2.424   0.775  0.6172 -0.3781 -0.4754
 3143TIP3    H1 9393   1.562   2.403   0.862  0.8073 -0.0297 -0.4657
 3143TIP3    H2 9394   1.462   2.492   0.791  1.4873  0.5232 -0.7318
 3144TIP3   OH2 9395   6.464   2.454   3.660  0.2213  0.1433  0.0073
 3144TIP3    H1 9396   6.525   2.501   3.717 -2.9358  1.7682  2.3147
 3144TIP3    H2 9397   6.410   2.522   3.621 -2.2772 -1.3135  0.7527
 3145TIP3   OH2 9398   2.594   6.035   2.785 -0.0876  0.2718 -0.4884
 3145TIP3    H1 9399   2.685   6.065   2.780 -0.5445  1.6001 -1.4140
 3145TIP3    H2 9400   2.586   5.971   2.714  1.1673 -3.0875  2.1163
 3146TIP3   OH2 9401   4.672   4.553   2.362 -0.1124  0.6288  0.8751
 3146TIP3    H1 9402   4.612   4.567   2.435 -0.4199 -0.3324  0.8197
 3146TIP3    H2 9403   4.759   4.568   2.399 -0.3184  1.0021  1.2132
 3147TIP3   OH2 9404   5.106   3.227   3.634 -0.0023 -0.7716  0.3226
 3147TIP3    H1 9405   5.119   3.320   3.614  2.4615 -0.9820  0.5465
 3147TIP3    H2 9406   5.040   3.226   3.703 -2.6723  0.5082 -2.0287
 3148TIP3   OH2 9407   4.316   5.737   3.323  0.3922  0.4936  0.2626
 3148TIP3    H1 9408   4.289   5.710   3.411  0.6371 -0.7842 -0.0350
 3148TIP3    H2 9409   4.404   5.700   3.313 -0.3887 -1.0920 -1.2336
 3149TIP3   OH2 9410   0.248   5.574   4.399  0.0135  0.4916 -0.1396
 3149TIP3    H1 9411   0.270   5.666   4.410  0.7181  0.3918 -0.6864
 3149TIP3    H2 9412   0.252   5.558   4.305  1.2767 -0.4264  0.0406
 3150TIP3   OH2 9413   5.983   3.328   5.115 -1.1951 -0.3734 -0.1276
 3150TIP3    H1 9414   5.907   3.345   5.172 -0.6913 -1.8759  1.0640
 3150TIP3    H2 9415   5.975   3.392   5.045 -2.9854  0.1990  0.5404
 3151TIP3   OH2 9416   5.252   1.320   1.817  0.3197 -0.1495  0.4740
 3151TIP3    H1 9417   5.315   1.364   1.874 -1.1959  1.6781  0.8377
 3151TIP3    H2 9418   5.166   1.344   1.853 -0.6226 -1.3563 -0.8635
 3152TIP3   OH2 9419   3.649   1.879   4.433  0.0266  0.1764  0.1733
 3152TIP3    H1 9420   3.572   1.911   4.480 -0.3566 -3.1983  2.1769
 3152TIP3    H2 9421   3.615   1.811   4.375  1.2415  0.2652 -0.6830
 3153TIP3   OH2 9422   4.838   6.671   5.651 -0.4252 -0.1086  0.0648
 3153TIP3    H1 9423   4.841   6.755   5.606  0.5853  0.7576  1.6530
 3153TIP3    H2 9424   4.791   6.613   5.591 -0.4154  1.3549 -1.4263
 3154TIP3   OH2 9425   2.489   4.207   3.579 -0.0356 -0.0400  0.2169
 3154TIP3    H1 9426   2.459   4.276   3.519 -0.5090  0.0694  0.5799
 3154TIP3    H2 9427   2.578   4.188   3.549 -0.3196 -0.1021 -0.6312
 3155TIP3   OH2 9428   5.674   0.418   0.843  0.2331 -0.6440 -0.4140
 3155TIP3    H1 9429   5.637   0.499   0.808  1.8256 -0.0702 -0.8590
 3155TIP3    H2 9430   5.616   0.349   0.810  0.1708  0.1157 -1.9685
 3156TIP3   OH2 9431   4.869   6.164   4.396  0.1507 -0.5640  0.0118
 3156TIP3    H1 9432   4.783   6.134   4.365 -0.7617 -0.2407  2.0550
 3156TIP3    H2 9433   4.907   6.087   4.439  1.2118 -0.8822 -1.3949
 3157TIP3   OH2 9434   4.547   3.291   0.807  0.4024  0.4322  0.0916
 3157TIP3    H1 9435   4.472   3.337   0.768 -0.1201  0.1299  0.7130
 3157TIP3    H2 9436   4.591   3.357   0.860  0.6862  0.6583 -0.4250
 3158TIP3   OH2 9437   4.066   0.223   5.254  0.7398  0.5765 -0.0514
 3158TIP3    H1 9438   4.022   0.138   5.256  2.4196 -0.3398  0.0477
 3158TIP3    H2 9439   4.013   0.276   5.194 -0.7647 -0.2683  0.4720
 3159TIP3   OH2 9440   6.412   5.264   5.387  0.2475 -0.1707 -0.0113
 3159TIP3    H1 9441   6.487   5.206   5.380 -0.0593 -0.4849 -0.7948
 3159TIP3    H2 9442   6.351   5.233   5.320 -0.8914 -0.3780  1.0765
 3160TIP3   OH2 9443   6.877   6.798   1.064 -0.1380 -0.3456 -0.4103
 3160TIP3    H1 9444   6.923   6.715   1.052  2.1163  0.7676  0.0557
 3160TIP3    H2 9445   6.940   6.854   1.108 -2.9462  0.4224  3.0847
 3161TIP3   OH2 9446   3.110   4.921   2.883  0.2981  0.1325  0.0895
 3161TIP3    H1 9447   3.104   4.829   2.855  0.1773  0.6758 -1.8262
 3161TIP3    H2 9448   3.128   4.969   2.802  1.5811  1.6872  1.2332
 3162TIP3   OH2 9449   4.296   6.407   0.594  0.2097  0.1438  0.2001
 3162TIP3    H1 9450   4.255   6.487   0.626 -0.4805  1.5699 -3.7013
 3162TIP3    H2 9451   4.223   6.355   0.560  1.0073  0.0465 -1.4825
 3163TIP3   OH2 9452   4.015   2.899   0.160 -0.4253 -0.4596  0.0818
 3163TIP3    H1 9453   4.018   2.868   0.069 -1.2070  0.6610 -0.3418
 3163TIP3    H2 9454   4.082   2.847   0.205  1.5957  0.5192 -1.6104
 3164TIP3   OH2 9455   2.835   1.940   4.396 -0.2761  0.3728 -0.4245
 3164TIP3    H1 9456   2.790   1.995   4.460 -0.5583  1.5653 -1.6089
 3164TIP3    H2 9457   2.926   1.969   4.399 -0.3382  0.6047 -0.7320
 3165TIP3   OH2 9458   2.065   0.639   1.148 -0.0499 -0.4670  0.1202
 3165TIP3    H1 9459   1.995   0.660   1.210 -0.1708 -0.5600  0.0156
 3165TIP3    H2 9460   2.142   0.628   1.203 -0.2699 -1.0908  0.3191
 3166TIP3   OH2 9461   1.220   0.638   1.229 -0.0077  0.2267 -0.3927
 3166TIP3    H1 9462   1.155   0.641   1.159 -0.7965  1.1269  0.3549
 3166TIP3    H2 9463   1.175   0.596   1.302  0.4708  0.2461 -0.0826
 3167TIP3   OH2 9464   5.513   0.305   0.637  0.3423 -0.0755 -0.5866
 3167TIP3    H1 9465   5.476   0.217   0.647  0.9192 -0.2825 -0.1454
 3167TIP3    H2 9466   5.569   0.298   0.560  2.0575 -0.7272  0.6387
 3168TIP3   OH2 9467   4.629   5.101   1.081 -0.4958  0.3805 -0.2638
 3168TIP3    H1 9468   4.605   5.112   1.173  1.3745 -0.3178  0.3490
 3168TIP3    H2 9469   4.629   5.190   1.045  0.3687  0.8487  0.8531
 3169TIP3   OH2 9470   0.636   3.610   1.246  0.0244  0.1787 -0.3404
 3169TIP3    H1 9471   0.620   3.689   1.194  2.6097 -0.9159 -3.1227
 3169TIP3    H2 9472   0.562   3.554   1.226 -1.0279  1.2578  0.3942
 3170TIP3   OH2 9473   3.535   4.149   1.843 -0.0817  0.5418 -0.2503
 3170TIP3    H1 9474   3.562   4.093   1.771 -0.8848  0.6172 -0.6153
 3170TIP3    H2 9475   3.561   4.237   1.815 -0.7695  0.6273 -0.6458
 3171TIP3   OH2 9476   0.907   3.686   5.335 -0.2709 -0.7059 -0.5102
 3171TIP3    H1 9477   0.849   3.759   5.360  0.4991  0.0448 -0.8672
 3171TIP3    H2 9478   0.858   3.608   5.359  0.2246 -0.0958  3.0869
 3172TIP3   OH2 9479   3.755   6.493   3.619 -0.3879  0.1462  0.1629
 3172TIP3    H1 9480   3.835   6.525   3.577 -1.3291  1.8336 -0.4562
 3172TIP3    H2 9481   3.776   6.493   3.713  0.9979 -1.5063 -0.0970
 3173TIP3   OH2 9482   0.390   5.733   2.441  0.5385 -0.1178 -0.5348
 3173TIP3    H1 9483   0.348   5.819   2.440 -2.8130 -1.5518  0.9993
 3173TIP3    H2 9484   0.435   5.729   2.526  0.4730  0.0094 -0.4940
 3174TIP3   OH2 9485   1.522   4.469   4.481 -0.3333  0.4171  0.2732
 3174TIP3    H1 9486   1.572   4.538   4.437 -0.2845 -0.2573 -0.7749
 3174TIP3    H2 9487   1.523   4.396   4.419  0.9517 -1.1068  1.9474
 3175TIP3   OH2 9488   5.075   1.111   3.064 -0.1901  0.5268  0.2184
 3175TIP3    H1 9489   5.135   1.115   3.139  2.0449  1.9749 -1.5011
 3175TIP3    H2 9490   5.109   1.040   3.010 -0.1305  1.2255 -0.6813
 3176TIP3   OH2 9491   5.858   3.369   1.983  0.4080 -0.2623 -0.0987
 3176TIP3    H1 9492   5.827   3.384   1.894  0.4116  0.3835  0.0039
 3176TIP3    H2 9493   5.950   3.343   1.973  0.5239  0.2120 -0.2566
 3177TIP3   OH2 9494   0.249   1.272   4.598 -0.0746  0.4641 -0.3879
 3177TIP3    H1 9495   0.299   1.334   4.651 -0.9736 -0.3499  1.4891
 3177TIP3    H2 9496   0.226   1.201   4.658 -1.3706 -0.3880 -1.8083
 3178TIP3   OH2 9497   4.393   2.374   1.517 -0.2684  0.6206  0.0985
 3178TIP3    H1 9498   4.413   2.283   1.536  0.2719  0.7221  0.0129
 3178TIP3    H2 9499   4.471   2.408   1.474 -0.1371  1.3568  0.8921
 3179TIP3   OH2 9500   3.176   4.203   4.520 -0.4609  0.1083  0.3846
 3179TIP3    H1 9501   3.152   4.113   4.498 -1.3892  0.2190  0.8981
 3179TIP3    H2 9502   3.244   4.194   4.586 -1.3765 -0.2339  1.3072
 3180TIP3   OH2 9503   1.889   4.724   2.415 -0.8710  0.4133  0.0399
 3180TIP3    H1 9504   1.968   4.702   2.366 -0.3351 -0.3401  1.2038
 3180TIP3    H2 9505   1.898   4.817   2.435 -0.5689  0.4664 -0.3311
 3181TIP3   OH2 9506   3.259   2.417   1.566  0.1463  0.3283  0.4969
 3181TIP3    H1 9507   3.182   2.361   1.573 -0.3767  0.9050 -0.4109
 3181TIP3    H2 9508   3.233   2.499   1.609  0.6893  0.1100  1.2676
 3182TIP3   OH2 9509   4.899   1.449   2.526  1.0173  0.1894  0.1984
 3182TIP3    H1 9510   4.861   1.531   2.556 -0.7695 -0.7554  0.6514
 3182TIP3    H2 9511   4.944   1.414   2.602 -1.1150 -0.8354  1.0731
 3183TIP3   OH2 9512   1.539   4.102   5.660  0.1058 -0.0993 -0.4368
 3183TIP3    H1 9513   1.570   4.145   5.740 -0.7757 -0.3056  0.0277
 3183TIP3    H2 9514   1.462   4.152   5.634 -0.1265 -0.5626 -0.6574
 3184TIP3   OH2 9515   3.898   4.552   2.093 -0.1018 -0.6526  0.0864
 3184TIP3    H1 9516   3.860   4.620   2.037  0.7028  0.7637  1.2069
 3184TIP3    H2 9517   3.831   4.536   2.159 -0.9108 -2.0780 -1.0321
 3185TIP3   OH2 9518   3.116   3.003   3.426 -0.2964  0.5613 -0.0567
 3185TIP3    H1 9519   3.096   3.081   3.373 -0.6488  0.9186  0.5947
 3185TIP3    H2 9520   3.126   3.036   3.515 -1.9582 -0.3349  0.4960
 3186TIP3   OH2 9521   2.599   1.257   2.283 -0.2535 -0.5224 -0.3501
 3186TIP3    H1 9522   2.678   1.311   2.292  0.0271 -1.1320  1.1416
 3186TIP3    H2 9523   2.620   1.175   2.327 -1.9030 -0.4764  0.6537
 3187TIP3   OH2 9524   1.114   3.640   4.390 -0.2302  0.2053  0.2610
 3187TIP3    H1 9525   1.158   3.718   4.358  0.0170  0.9027  2.2336
 3187TIP3    H2 9526   1.032   3.637   4.340  0.7271  0.4349 -1.4266
 3188TIP3   OH2 9527   1.422   4.245   3.755 -0.4047 -0.0178  0.8169
 3188TIP3    H1 9528   1.423   4.332   3.795  0.8483 -0.1773  1.1834
 3188TIP3    H2 9529   1.339   4.241   3.708  0.0820  1.9164 -0.3726
 3189TIP3   OH2 9530   3.564   3.473   3.926 -0.1755  0.2923 -0.1987
 3189TIP3    H1 9531   3.615   3.480   4.006  0.7296  1.4022 -0.8417
 3189TIP3    H2 9532   3.625   3.498   3.856 -0.2555 -2.6927 -1.5360
 3190TIP3   OH2 9533   6.576   4.268   1.644 -0.1071  0.0537  0.0507
 3190TIP3    H1 9534   6.491   4.311   1.656  0.5506  1.1681  0.8329
 3190TIP3    H2 9535   6.561   4.177   1.671 -0.8052  0.4732  1.1415
 3191TIP3   OH2 9536   4.889   6.057   3.602 -0.2438 -0.4767 -0.0166
 3191TIP3    H1 9537   4.926   6.098   3.680  0.1365  1.9314 -1.3599
 3191TIP3    H2 9538   4.796   6.078   3.606 -0.0872  0.3889 -0.5871
 3192TIP3   OH2 9539   5.170   2.421   4.436 -0.3684 -0.3768  0.3323
 3192TIP3    H1 9540   5.127   2.503   4.412  0.6722 -0.7362 -3.3270
 3192TIP3    H2 9541   5.109   2.380   4.498 -2.3329  1.8235  0.0078
 3193TIP3   OH2 9542   5.811   0.163   2.598  0.2621 -0.2499 -0.4855
 3193TIP3    H1 9543   5.893   0.191   2.638 -0.4846 -0.1793  1.0886
 3193TIP3    H2 9544   5.765   0.244   2.576  0.5569 -0.2896 -1.2990
 3194TIP3   OH2 9545   4.357   5.716   5.690 -0.0614 -0.3836  0.2353
 3194TIP3    H1 9546   4.289   5.750   5.631 -1.2826  1.9345  2.7331
 3194TIP3    H2 9547   4.308   5.674   5.760  1.3644 -3.2560 -0.3464
 3195TIP3   OH2 9548   2.928   0.710   3.038 -0.0839 -0.6285  0.2212
 3195TIP3    H1 9549   2.921   0.690   2.944 -2.6643  1.6707 -0.2116
 3195TIP3    H2 9550   3.022   0.721   3.053  0.3738 -0.6700 -2.1980
 3196TIP3   OH2 9551   4.811   2.059   4.689 -0.1312  0.0636  0.0189
 3196TIP3    H1 9552   4.808   1.964   4.698 -1.6919 -0.0800 -1.4580
 3196TIP3    H2 9553   4.898   2.083   4.719 -0.1259 -1.6845  1.5922
 3197TIP3   OH2 9554   1.947   6.483   4.913  0.0440 -0.1812 -0.5832
 3197TIP3    H1 9555   2.038   6.475   4.884  0.4176 -2.9848  1.0120
 3197TIP3    H2 9556   1.949   6.554   4.978  1.4105 -0.9971  0.3245
 3198TIP3   OH2 9557   1.096   1.385   1.309 -0.4299  0.0766 -0.0632
 3198TIP3    H1 9558   1.189   1.374   1.291 -0.1335  2.0386  0.0779
 3198TIP3    H2 9559   1.080   1.329   1.386  0.4904 -0.6721 -0.3931
 3199TIP3   OH2 9560   4.011   2.685   0.734 -0.5239 -0.4083 -0.1977
 3199TIP3    H1 9561   4.105   2.704   0.737 -0.6897  0.4781 -0.2692
 3199TIP3    H2 9562   3.993   2.670   0.642 -0.7765  1.2520 -0.4481
 3200TIP3   OH2 9563   4.477   2.073   3.371 -0.1693  0.1211  0.0828
 3200TIP3    H1 9564   4.550   2.134   3.357  0.8220 -1.2108 -0.8300
 3200TIP3    H2 9565   4.437   2.064   3.285 -2.3239  1.8545  0.8120
 3201TIP3   OH2 9566   0.255   5.477   3.537 -0.3446 -0.2705  0.3731
 3201TIP3    H1 9567   0.249   5.518   3.624 -2.6280 -0.5074  0.3910
 3201TIP3    H2 9568   0.322   5.528   3.491 -0.0801  0.7463  1.8149
 3202TIP3   OH2 9569   5.034   1.159   1.677 -0.0596  0.3656  0.2721
 3202TIP3    H1 9570   5.116   1.158   1.726  0.1621 -0.3257 -0.0962
 3202TIP3    H2 9571   5.032   1.074   1.632 -1.1427  0.2345  0.5471
 3203TIP3   OH2 9572   0.475   0.520   5.503 -0.1286 -0.1189 -0.4310
 3203TIP3    H1 9573   0.499   0.613   5.504 -1.4305  0.2438 -0.5857
 3203TIP3    H2 9574   0.441   0.505   5.415  1.3095 -1.1063 -0.8535
 3204TIP3   OH2 9575   4.388   5.922   4.864 -0.0512  0.0723 -0.1757
 3204TIP3    H1 9576   4.346   5.939   4.948 -0.1630 -0.7870 -0.0454
 3204TIP3    H2 9577   4.458   5.860   4.884  0.5338  0.5975 -0.5750
 3205TIP3   OH2 9578   5.410   2.957   5.482  0.2766 -0.0563 -0.2499
 3205TIP3    H1 9579   5.321   2.931   5.507  0.9905 -1.0811  1.3186
 3205TIP3    H2 9580   5.438   2.890   5.420 -0.6444  1.2538 -2.2303
 3206TIP3   OH2 9581   1.918   5.611   3.495  0.0217  0.4360  0.1325
 3206TIP3    H1 9582   1.967   5.541   3.451  0.6716  0.2057  1.1685
 3206TIP3    H2 9583   1.954   5.612   3.584 -0.8366  1.2757  0.4834
 3207TIP3   OH2 9584   1.374   3.892   3.743 -0.0595 -0.0224  0.2803
 3207TIP3    H1 9585   1.450   3.949   3.729 -0.4173 -0.0809 -2.2457
 3207TIP3    H2 9586   1.384   3.822   3.678 -0.4192 -2.0720  2.3077
 3208TIP3   OH2 9587   6.394   1.284   2.271  0.4232  0.0046  0.0675
 3208TIP3    H1 9588   6.351   1.214   2.321 -0.8374  0.9600  0.3698
 3208TIP3    H2 9589   6.345   1.287   2.189 -0.4287  1.4108  0.5946
 3209TIP3   OH2 9590   2.383   5.437   1.746  0.3336  0.1284  0.2440
 3209TIP3    H1 9591   2.373   5.469   1.656 -1.7923 -0.9186  0.0505
 3209TIP3    H2 9592   2.355   5.510   1.801 -1.3491 -0.2344 -0.0833
 3210TIP3   OH2 9593   6.635   4.371   0.912  0.3400 -0.1068  0.1761
 3210TIP3    H1 9594   6.581   4.343   0.986  2.6670  1.2768  2.5562
 3210TIP3    H2 9595   6.685   4.445   0.944  1.3479  0.7262 -2.9104
 3211TIP3   OH2 9596   0.756   1.614   3.006 -0.4291  0.6236 -0.2382
 3211TIP3    H1 9597   0.716   1.701   2.998 -3.2191 -0.5079  0.4343
 3211TIP3    H2 9598   0.762   1.582   2.916 -0.0768  1.2038 -0.4270
 3212TIP3   OH2 9599   1.418   4.407   4.131  0.1750  0.1782  0.1452
 3212TIP3    H1 9600   1.432   4.319   4.164 -2.4465 -0.3961 -0.0881
 3212TIP3    H2 9601   1.379   4.455   4.204 -2.7902 -0.2449 -1.0166
 3213TIP3   OH2 9602   1.159   4.870   1.648  0.1640 -0.5639  0.3408
 3213TIP3    H1 9603   1.098   4.835   1.583  1.4618 -0.7625 -0.8016
 3213TIP3    H2 9604   1.194   4.949   1.609 -0.8452  0.7007  1.8610
 3214TIP3   OH2 9605   4.142   1.848   3.262 -0.4854  0.3415  0.8769
 3214TIP3    H1 9606   4.142   1.753   3.261 -1.2208  0.2706 -2.4001
 3214TIP3    H2 9607   4.232   1.872   3.280  0.2182 -1.0483 -0.5695
 3215TIP3   OH2 9608   4.703   4.464   1.438  0.0625 -0.6779  0.1847
 3215TIP3    H1 9609   4.716   4.418   1.521 -0.3287 -2.3870 -0.6552
 3215TIP3    H2 9610   4.735   4.402   1.372  2.8565  1.6478 -0.8277
 3216TIP3   OH2 9611   4.887   4.358   3.198  0.5267 -0.3551  0.3671
 3216TIP3    H1 9612   4.817   4.300   3.229  0.3804 -0.2602  0.2199
 3216TIP3    H2 9613   4.902   4.419   3.270 -1.2534  1.1859 -0.4724
 3217TIP3   OH2 9614   2.288   2.270   1.378 -0.0708  0.1275  0.0377
 3217TIP3    H1 9615   2.268   2.283   1.285  0.1771 -0.1950 -0.0620
 3217TIP3    H2 9616   2.233   2.197   1.404 -1.2002  1.1209  0.5094
 3218TIP3   OH2 9617   6.884   0.432   0.494  0.1202 -0.0282  0.0715
 3218TIP3    H1 9618   6.892   0.340   0.517  0.5168  0.1419  0.6181
 3218TIP3    H2 9619   6.953   0.476   0.544  0.3289  0.4837 -0.6414
 3219TIP3   OH2 9620   5.569   0.592   1.277  0.8700 -0.0608 -0.0841
 3219TIP3    H1 9621   5.645   0.647   1.257  0.8995 -0.1463 -0.2106
 3219TIP3    H2 9622   5.568   0.527   1.207  1.8400 -1.2884  0.9899
 3220TIP3   OH2 9623   0.278   2.989   5.527  0.1402 -0.3690  0.4174
 3220TIP3    H1 9624   0.337   3.050   5.572  1.1560 -0.6100 -0.5631
 3220TIP3    H2 9625   0.245   2.933   5.597  0.3729  0.3289  1.1140
 3221TIP3   OH2 9626   0.652   4.321   1.322  0.1044 -0.1158 -0.1217
 3221TIP3    H1 9627   0.575   4.272   1.352  0.6361 -0.2606  1.0503
 3221TIP3    H2 9628   0.615   4.395   1.273 -0.7285 -1.1101 -1.0545
 3222TIP3   OH2 9629   3.921   6.567   3.016 -0.6228 -0.7771 -0.2740
 3222TIP3    H1 9630   3.865   6.490   3.024 -1.4426 -0.0952  1.0207
 3222TIP3    H2 9631   4.001   6.535   2.976 -1.8044 -1.8585 -1.8909
 3223TIP3   OH2 9632   2.833   0.041   0.904  0.4255  0.2113 -0.3026
 3223TIP3    H1 9633   2.773  -0.017   0.857 -1.7758  1.7722  0.3739
 3223TIP3    H2 9634   2.911  -0.011   0.918  0.1803 -1.1978 -3.3021
 3224TIP3   OH2 9635   6.120   6.408   2.021 -0.4855  0.4919 -0.1133
 3224TIP3    H1 9636   6.215   6.409   2.034 -0.4407 -0.1612 -0.3729
 3224TIP3    H2 9637   6.106   6.347   1.949 -1.0063  1.5135 -0.8910
 3225TIP3   OH2 9638   3.671   2.663   0.567 -0.1473 -0.0739  0.2035
 3225TIP3    H1 9639   3.619   2.701   0.638  0.0586 -1.5298  1.1687
 3225TIP3    H2 9640   3.723   2.594   0.608  1.6937  0.5288 -0.9537
 3226TIP3   OH2 9641   3.996   0.208   3.267  0.1314  0.2984 -0.2770
 3226TIP3    H1 9642   3.922   0.202   3.327 -1.0128  0.1958 -1.6428
 3226TIP3    H2 9643   3.982   0.138   3.204  0.6150  1.1577 -1.3821
 3227TIP3   OH2 9644   3.291   0.255   4.779 -0.0680  0.2245 -0.7647
 3227TIP3    H1 9645   3.368   0.310   4.795  0.4937 -0.2120 -1.8687
 3227TIP3    H2 9646   3.285   0.200   4.857 -0.1411  1.2658 -0.0191
 3228TIP3   OH2 9647   0.288   5.321   0.838 -0.3809 -0.1517 -0.4737
 3228TIP3    H1 9648   0.333   5.262   0.777  0.9855  1.9548 -1.6161
 3228TIP3    H2 9649   0.241   5.382   0.782  1.3982  2.2199  0.4600
 3229TIP3   OH2 9650   1.644   3.255   4.881  0.2267  0.1539  0.2529
 3229TIP3    H1 9651   1.639   3.213   4.795 -0.0015  0.9958 -0.1635
 3229TIP3    H2 9652   1.704   3.200   4.931 -0.8667 -1.2438  0.0867
 3230TIP3   OH2 9653   4.671   1.440   4.599  0.1604  0.3082 -0.2121
 3230TIP3    H1 9654   4.636   1.528   4.612 -0.4401  0.1323 -0.6300
 3230TIP3    H2 9655   4.718   1.444   4.516 -0.3659  0.0864 -0.5257
 3231TIP3   OH2 9656   4.401   1.684   1.481 -0.1165  0.4030  0.4808
 3231TIP3    H1 9657   4.408   1.589   1.493  1.3854  0.6601  2.0406
 3231TIP3    H2 9658   4.484   1.718   1.514 -0.6276  2.2677 -0.0766
 3232TIP3   OH2 9659   3.908   4.149   4.197 -0.5429 -0.1750  0.4649
 3232TIP3    H1 9660   3.849   4.204   4.145 -0.2104 -0.2372  0.0225
 3232TIP3    H2 9661   3.877   4.161   4.287 -1.5018 -0.5326  0.2004
 3233TIP3   OH2 9662   1.868   2.431   0.711  0.3068  0.1894  0.2510
 3233TIP3    H1 9663   1.802   2.383   0.661 -0.1614  0.4763  0.5848
 3233TIP3    H2 9664   1.952   2.396   0.681  0.1163  1.3087 -1.7592
 3234TIP3   OH2 9665   3.130   3.486   3.066  0.3033 -0.1242  0.4596
 3234TIP3    H1 9666   3.163   3.508   3.153  0.2075 -1.4771  0.8557
 3234TIP3    H2 9667   3.035   3.488   3.074  0.2608  1.4988 -0.0938
 3235TIP3   OH2 9668   0.227   0.631   0.776 -0.1484  0.1055  0.5988
 3235TIP3    H1 9669   0.142   0.588   0.786 -0.9895  1.7531  0.7682
 3235TIP3    H2 9670   0.238   0.681   0.856  0.3208  1.0259 -0.0342
 3236TIP3   OH2 9671   6.152   2.570   3.522  0.4078 -0.2608  0.3888
 3236TIP3    H1 9672   6.173   2.585   3.614  1.1030  0.7461  0.0770
 3236TIP3    H2 9673   6.056   2.562   3.520  0.4330 -0.8607  1.2662
 3237TIP3   OH2 9674   5.740   1.106   1.428 -0.1449 -0.2400  0.4400
 3237TIP3    H1 9675   5.820   1.061   1.400  0.1374  0.0845  0.7178
 3237TIP3    H2 9676   5.698   1.133   1.347 -0.0091 -0.4797  0.2896
 3238TIP3   OH2 9677   1.666   6.746   4.252 -0.3721  0.0960 -0.6325
 3238TIP3    H1 9678   1.632   6.796   4.326  0.5716  0.4071 -0.4010
 3238TIP3    H2 9679   1.657   6.654   4.279  2.6107  0.1964  1.1548
 3239TIP3   OH2 9680   3.712   3.344   2.159 -0.4628  0.5488 -0.3340
 3239TIP3    H1 9681   3.632   3.353   2.212 -2.1680 -4.9086 -1.3865
 3239TIP3    H2 9682   3.683   3.363   2.069 -0.4813 -0.7368 -0.6213
 3240TIP3   OH2 9683   1.900   0.126   2.291 -0.5472  0.4399 -0.1108
 3240TIP3    H1 9684   1.859   0.126   2.378 -1.0245  1.1922 -0.3349
 3240TIP3    H2 9685   1.846   0.185   2.239 -0.6592 -0.5181 -1.1144
 3241TIP3   OH2 9686   3.114   0.117   1.605  0.0199  0.1047 -0.6121
 3241TIP3    H1 9687   3.104   0.206   1.572 -0.3584  0.2793 -0.0461
 3241TIP3    H2 9688   3.182   0.123   1.672 -0.6604  0.1598  0.0908
 3242TIP3   OH2 9689   6.595   2.634   1.239 -0.2450 -0.3312 -0.2186
 3242TIP3    H1 9690   6.682   2.596   1.255 -0.1792 -0.1697 -0.1905
 3242TIP3    H2 9691   6.576   2.614   1.148 -0.0133 -0.0350 -0.3327
 3243TIP3   OH2 9692   1.028   1.063   3.871 -0.0692  0.5377 -0.2558
 3243TIP3    H1 9693   0.957   1.000   3.877 -1.0039  1.5009 -0.8670
 3243TIP3    H2 9694   1.078   1.036   3.794 -0.3230  0.4017 -0.3730
 3244TIP3   OH2 9695   3.684   1.366   1.072 -0.6415  0.2892 -0.3474
 3244TIP3    H1 9696   3.638   1.400   1.149 -1.3584  1.2481 -1.1765
 3244TIP3    H2 9697   3.706   1.276   1.096  0.2074  0.9153  1.4354
 3245TIP3   OH2 9698   2.553   4.518   1.797 -0.0277  0.0479  0.2191
 3245TIP3    H1 9699   2.480   4.458   1.787  0.6435 -0.5555 -1.4966
 3245TIP3    H2 9700   2.604   4.483   1.870 -0.5047 -0.5594  0.2627
 3246TIP3   OH2 9701   0.182   1.687   2.907  0.0646  0.0609 -0.2643
 3246TIP3    H1 9702   0.178   1.615   2.969  0.2497 -0.4960 -0.8765
 3246TIP3    H2 9703   0.106   1.741   2.926 -0.3104 -0.5312 -0.0749
 3247TIP3   OH2 9704   0.997   2.999   4.823  0.1545 -0.4811 -0.4689
 3247TIP3    H1 9705   0.923   3.030   4.876  0.2541  0.2756 -0.7628
 3247TIP3    H2 9706   1.005   3.064   4.753  0.3743 -1.1785 -1.0962
 3248TIP3   OH2 9707   3.498   3.871   1.936  0.2543  0.6070  0.5598
 3248TIP3    H1 9708   3.510   3.884   1.841 -2.5293  1.1825  0.2007
 3248TIP3    H2 9709   3.439   3.797   1.942  0.0150  0.8872  1.8498
 3249TIP3   OH2 9710   0.387   5.086   2.342  0.1109  0.0175  0.3414
 3249TIP3    H1 9711   0.436   5.068   2.262  0.9272  0.7071  0.6702
 3249TIP3    H2 9712   0.435   5.041   2.411  0.2570  0.6365  0.6540
 3250TIP3   OH2 9713   1.134   4.144   2.021 -0.3123 -0.4563  0.1311
 3250TIP3    H1 9714   1.169   4.056   2.033 -0.6615 -0.8877 -1.7750
 3250TIP3    H2 9715   1.077   4.157   2.097 -0.3129 -1.8926  0.4064
 3251TIP3   OH2 9716   7.201   0.475   0.794  0.0932  0.2374  0.2884
 3251TIP3    H1 9717   7.114   0.435   0.788 -0.5475  1.3452  1.5942
 3251TIP3    H2 9718   7.194   0.534   0.869  1.9003  0.5563  0.2318
 3252TIP3   OH2 9719   3.507   6.565   0.652 -0.5005 -0.7266 -0.3690
 3252TIP3    H1 9720   3.520   6.480   0.695 -0.4857 -0.2527  0.5788
 3252TIP3    H2 9721   3.476   6.542   0.564 -1.0520 -1.6970  0.0618
 3253TIP3   OH2 9722   4.100   4.380   2.110 -0.2645 -0.2039 -0.4021
 3253TIP3    H1 9723   4.049   4.300   2.121 -0.4235 -0.4071 -2.3068
 3253TIP3    H2 9724   4.035   4.449   2.097 -0.1284 -0.3696 -2.2488
 3254TIP3   OH2 9725   5.510   2.359   4.077 -0.1140 -0.2267 -0.3135
 3254TIP3    H1 9726   5.487   2.352   4.170 -0.1574 -1.0027 -0.3705
 3254TIP3    H2 9727   5.549   2.274   4.056  1.8968  0.6936 -0.4878
 3255TIP3   OH2 9728   6.199   5.714   5.330  0.2915  0.4591 -0.0961
 3255TIP3    H1 9729   6.290   5.741   5.315  0.6531  0.3226  1.5999
 3255TIP3    H2 9730   6.181   5.743   5.419 -0.5660 -1.5465  0.4178
 3256TIP3   OH2 9731   5.479   2.686   2.696 -0.1304  0.7180 -0.5429
 3256TIP3    H1 9732   5.471   2.593   2.677  0.6368  0.9402 -2.1100
 3256TIP3    H2 9733   5.533   2.721   2.624  0.3619  2.2027  0.5032
 3257TIP3   OH2 9734   2.336   3.587   4.841 -0.4259  0.0110  0.4119
 3257TIP3    H1 9735   2.351   3.648   4.913  1.1357  1.0789 -0.7412
 3257TIP3    H2 9736   2.337   3.642   4.762  0.2485 -1.3942 -0.6055
 3258TIP3   OH2 9737   2.710   2.378   1.562 -0.3204 -0.0527 -0.0912
 3258TIP3    H1 9738   2.636   2.365   1.503 -0.8375  0.2689  0.4657
 3258TIP3    H2 9739   2.748   2.461   1.533 -0.2893 -0.1261 -0.2630
 3259TIP3   OH2 9740   0.952   0.982   2.719 -0.0626 -0.4228  0.1782
 3259TIP3    H1 9741   1.036   0.937   2.728  0.4811  0.4436 -0.4858
 3259TIP3    H2 9742   0.896   0.919   2.673  1.0910  0.0292 -1.9779
 3260TIP3   OH2 9743   1.011   4.851   4.199  0.1661  0.0796 -0.2846
 3260TIP3    H1 9744   0.947   4.916   4.229 -0.8139 -1.7728  1.8910
 3260TIP3    H2 9745   1.092   4.901   4.186 -0.7479  1.8538  0.4641
 3261TIP3   OH2 9746   2.726   1.362   3.691 -0.0658  0.0290  0.7090
 3261TIP3    H1 9747   2.786   1.415   3.639  1.5353 -0.9660  1.4984
 3261TIP3    H2 9748   2.736   1.396   3.780  1.3288 -1.8367  1.3162
 3262TIP3   OH2 9749   2.674   3.893   4.493 -0.5262  0.6316 -0.1212
 3262TIP3    H1 9750   2.752   3.926   4.448  1.0906 -3.1062 -0.4985
 3262TIP3    H2 9751   2.610   3.881   4.423 -0.2577  0.6552 -0.3740
 3263TIP3   OH2 9752   0.403   4.101   1.947 -0.4304  0.2667  0.3518
 3263TIP3    H1 9753   0.320   4.149   1.955 -1.0354 -0.7859  0.6205
 3263TIP3    H2 9754   0.411   4.084   1.853 -1.0266 -0.4629  0.4213
 3264TIP3   OH2 9755   2.008   5.064   1.251 -0.2950  0.1234  0.0346
 3264TIP3    H1 9756   1.937   5.001   1.266 -1.9724  1.8599 -0.1722
 3264TIP3    H2 9757   2.038   5.088   1.339  0.9140 -1.4790  0.1088
 3265TIP3   OH2 9758   4.194   5.348   3.988  0.4252 -0.0188 -0.5588
 3265TIP3    H1 9759   4.188   5.252   3.989 -0.1166 -0.0688  2.6521
 3265TIP3    H2 9760   4.138   5.374   3.914 -4.0892 -2.0903  1.6721
 3266TIP3   OH2 9761   3.725   5.001   0.192 -0.0088  0.4215 -0.1754
 3266TIP3    H1 9762   3.690   5.038   0.274 -1.1990 -1.0448  0.0171
 3266TIP3    H2 9763   3.819   4.992   0.209  0.0726  1.8859  0.3194
 3267TIP3   OH2 9764   1.938   1.288   5.664 -0.3895  0.2699 -0.0983
 3267TIP3    H1 9765   1.901   1.227   5.728  0.7136  0.0323  0.3517
 3267TIP3    H2 9766   1.918   1.250   5.579 -0.6903 -0.1322  0.1523
 3268TIP3   OH2 9767   5.663   0.032   0.383  0.6794  0.2118 -0.3875
 3268TIP3    H1 9768   5.623  -0.025   0.317  0.1429 -0.8814  0.8466
 3268TIP3    H2 9769   5.601   0.030   0.457  0.9629  1.8891 -0.0630
 3269TIP3   OH2 9770   0.534   5.740   2.667  0.6615 -0.8731  0.5446
 3269TIP3    H1 9771   0.581   5.657   2.659  4.2646  0.9527  0.7114
 3269TIP3    H2 9772   0.503   5.742   2.757  2.0598 -1.3339  1.0577
 3270TIP3   OH2 9773   6.880   6.603   3.701  0.5767  0.0070  0.4596
 3270TIP3    H1 9774   6.792   6.639   3.708  0.8087  0.3274  1.8789
 3270TIP3    H2 9775   6.922   6.657   3.633  0.5688  1.7597  1.7707
 3271TIP3   OH2 9776   3.353   1.662   2.159 -0.3419 -0.7127  0.5739
 3271TIP3    H1 9777   3.260   1.640   2.154 -0.5379  0.2758 -0.4925
 3271TIP3    H2 9778   3.355   1.743   2.212 -0.2910  0.2642 -0.8719
 3272TIP3   OH2 9779   3.568   1.013   0.843 -0.1034  0.3963 -0.3823
 3272TIP3    H1 9780   3.589   0.920   0.834 -1.4738 -0.0080  0.3549
 3272TIP3    H2 9781   3.611   1.054   0.768  2.4752 -0.4576  0.5211
 3273TIP3   OH2 9782   0.787   6.281   1.351 -0.6240 -0.0285 -0.1611
 3273TIP3    H1 9783   0.844   6.339   1.301 -0.4849 -0.5612 -0.6331
 3273TIP3    H2 9784   0.844   6.208   1.377 -1.2751 -1.0938 -1.5170
 3274TIP3   OH2 9785   4.506   6.178   0.052 -0.1265 -0.3438  0.2369
 3274TIP3    H1 9786   4.525   6.211   0.139  2.5026 -0.9028 -0.0460
 3274TIP3    H2 9787   4.415   6.204   0.035 -0.3990  0.5364  2.7495
 3275TIP3   OH2 9788   6.702   4.282   3.554 -0.1513  0.2254 -0.4313
 3275TIP3    H1 9789   6.740   4.198   3.529  1.2577  1.0797 -1.2788
 3275TIP3    H2 9790   6.607   4.267   3.548  0.0717 -1.0221 -1.5321
 3276TIP3   OH2 9791   3.118   6.201   4.619  0.3160 -0.0324  0.1469
 3276TIP3    H1 9792   3.185   6.232   4.679  1.0232 -1.0903 -0.0734
 3276TIP3    H2 9793   3.043   6.179   4.675  0.1559  1.0829  0.3972
 3277TIP3   OH2 9794   3.725   1.738   2.158 -0.1224 -0.3046 -0.3065
 3277TIP3    H1 9795   3.669   1.663   2.135 -1.7924  0.2008  1.8044
 3277TIP3    H2 9796   3.720   1.743   2.253  2.5809  0.5716 -0.1259
 3278TIP3   OH2 9797   4.305   4.039   4.693  0.4014 -0.0659 -0.5531
 3278TIP3    H1 9798   4.339   4.028   4.782  1.2805  0.1009 -0.8602
 3278TIP3    H2 9799   4.344   3.966   4.644  0.0132 -0.0888 -0.8288
 3279TIP3   OH2 9800   3.056   3.814   5.241 -0.3731 -0.1432 -0.3550
 3279TIP3    H1 9801   3.022   3.893   5.199 -2.6265 -1.5982 -1.4518
 3279TIP3    H2 9802   3.059   3.836   5.334  0.2708  1.6173 -0.7477
 3280TIP3   OH2 9803   4.441   6.077   3.983 -0.3236 -0.1479 -0.1167
 3280TIP3    H1 9804   4.454   6.155   4.036  0.4532  0.1455 -0.7156
 3280TIP3    H2 9805   4.529   6.042   3.970 -0.4821 -0.1605 -1.2654
 3281TIP3   OH2 9806   4.233   1.946   1.026 -0.6026  0.0786  0.3815
 3281TIP3    H1 9807   4.310   1.896   1.053 -0.3352 -0.4124 -1.2044
 3281TIP3    H2 9808   4.215   1.916   0.938 -0.3508  2.8574 -0.7242
 3282TIP3   OH2 9809   5.420   6.341   0.002  0.0233 -0.6121  0.2448
 3282TIP3    H1 9810   5.410   6.350   0.096  0.4814 -0.5993  0.2960
 3282TIP3    H2 9811   5.470   6.418  -0.025 -0.8587 -0.1625 -0.1425
 3283TIP3   OH2 9812   6.462   2.776   5.519 -0.5259 -0.6003  0.3473
 3283TIP3    H1 9813   6.539   2.748   5.568 -0.0927  0.4020  0.2632
 3283TIP3    H2 9814   6.405   2.816   5.585 -0.2266  0.1701  0.1426
 3284TIP3   OH2 9815   0.956   0.345   1.170 -0.0838 -0.5641  0.5257
 3284TIP3    H1 9816   0.926   0.256   1.190  0.1133 -0.8082 -0.2315
 3284TIP3    H2 9817   1.028   0.333   1.108 -1.5275  0.1863 -1.4264
 3285TIP3   OH2 9818   0.915   3.951   4.549  0.4325  0.5908  0.2448
 3285TIP3    H1 9819   0.964   4.027   4.579 -0.0752  0.0660  2.6126
 3285TIP3    H2 9820   0.957   3.877   4.593 -1.1962 -0.0817  0.7699
 3286TIP3   OH2 9821   5.306   2.907   2.748 -0.4130  0.1262  0.4018
 3286TIP3    H1 9822   5.294   2.936   2.658  0.1583  2.3119  0.9837
 3286TIP3    H2 9823   5.354   2.824   2.740  1.2000  1.1499 -1.2554
 3287TIP3   OH2 9824   4.935   6.077   5.213  0.3598  0.2699  0.1785
 3287TIP3    H1 9825   4.882   6.025   5.272  0.9985  0.4113  0.8950
 3287TIP3    H2 9826   4.905   6.053   5.126 -0.3846 -0.1679  0.5455
 3288TIP3   OH2 9827   2.007   4.478   3.179  0.3653 -0.3565 -0.2950
 3288TIP3    H1 9828   2.071   4.408   3.195 -0.8285 -1.3560  0.2383
 3288TIP3    H2 9829   1.973   4.500   3.265  0.6701  0.8702 -0.4617
 3289TIP3   OH2 9830   6.651   6.116   4.996  0.2046  0.3524  0.0433
 3289TIP3    H1 9831   6.576   6.155   4.951 -0.2104 -1.8734 -1.3621
 3289TIP3    H2 9832   6.685   6.051   4.934  2.1673  0.0053  1.3870
 3290TIP3   OH2 9833   6.102   1.575   4.968 -0.2432  0.7200 -0.0216
 3290TIP3    H1 9834   6.020   1.622   4.954  0.2752  2.0025  1.0485
 3290TIP3    H2 9835   6.137   1.612   5.049  1.1389 -0.1726 -0.1880
 3291TIP3   OH2 9836   6.418   5.394   2.835  0.1138 -0.3816 -0.0915
 3291TIP3    H1 9837   6.457   5.363   2.754  0.7864 -0.1020  0.1166
 3291TIP3    H2 9838   6.489   5.386   2.900 -0.5632 -1.0918  0.5804
 3292TIP3   OH2 9839   1.213   6.173   5.137  0.0506 -0.6097 -0.3247
 3292TIP3    H1 9840   1.261   6.163   5.055  0.9277 -0.8662  0.2069
 3292TIP3    H2 9841   1.124   6.193   5.110  0.1955 -1.2637 -1.3481
 3293TIP3   OH2 9842   3.883   3.221   0.718  0.2070 -0.1515  0.0307
 3293TIP3    H1 9843   3.851   3.309   0.697 -0.4634  0.1026  1.8913
 3293TIP3    H2 9844   3.966   3.214   0.671  0.1970  1.4097 -0.2895
 3294TIP3   OH2 9845   2.210   5.936   4.695 -0.4311 -0.1233  0.1038
 3294TIP3    H1 9846   2.130   5.983   4.720  0.7510  1.6221  0.8103
 3294TIP3    H2 9847   2.201   5.923   4.601 -0.5422  2.1531 -0.2547
 3295TIP3   OH2 9848   2.165   4.256   0.718  0.0661  0.2037 -0.7321
 3295TIP3    H1 9849   2.236   4.192   0.712  0.1996  0.4639 -2.4756
 3295TIP3    H2 9850   2.144   4.277   0.627 -0.6347  1.9194 -0.2158
 3296TIP3   OH2 9851   6.529   5.106   0.561  0.4372  0.1769  0.1216
 3296TIP3    H1 9852   6.447   5.079   0.601 -0.0542 -0.0252 -0.9821
 3296TIP3    H2 9853   6.596   5.054   0.606  0.0320  0.7136  1.3832
 3297TIP3   OH2 9854   2.728   1.393   2.715  0.2793 -0.1237  0.0317
 3297TIP3    H1 9855   2.783   1.326   2.755  0.2107  0.3367  0.9308
 3297TIP3    H2 9856   2.786   1.441   2.657 -0.0894 -2.1793 -2.2189
 3298TIP3   OH2 9857   0.353   4.651   0.926 -0.0483  0.0111 -0.6900
 3298TIP3    H1 9858   0.327   4.577   0.981  2.6448 -0.3782  0.2388
 3298TIP3    H2 9859   0.310   4.727   0.966 -0.5129 -0.6703  0.1311
 3299TIP3   OH2 9860   2.103   6.385   1.688 -0.2059  0.0749 -0.7655
 3299TIP3    H1 9861   2.093   6.433   1.606  0.9355 -0.8004 -1.4624
 3299TIP3    H2 9862   2.023   6.333   1.695  0.1709 -0.7032 -1.9412
 3300TIP3   OH2 9863   5.632   4.206   2.616  0.1192 -0.1823  0.0520
 3300TIP3    H1 9864   5.721   4.243   2.622 -0.3609  1.0334  0.0302
 3300TIP3    H2 9865   5.644   4.124   2.569  1.4208 -0.7267  1.2548
 3301TIP3   OH2 9866   2.460   2.743   3.178  0.0220 -0.1876 -0.3955
 3301TIP3    H1 9867   2.439   2.650   3.167 -1.7721 -0.0334  1.2701
 3301TIP3    H2 9868   2.447   2.760   3.271  0.6739  1.6827 -0.5933
 3302TIP3   OH2 9869   2.737   3.534   5.683 -0.1436 -0.4083  0.1169
 3302TIP3    H1 9870   2.832   3.542   5.692 -0.1904  1.1776 -0.5805
 3302TIP3    H2 9871   2.706   3.515   5.772  0.7702 -0.3650  0.4533
 3303TIP3   OH2 9872   0.639   3.723   4.075  0.3574  0.5789 -0.0421
 3303TIP3    H1 9873   0.656   3.708   4.168 -0.8785  0.4581  0.1901
 3303TIP3    H2 9874   0.643   3.818   4.066  0.2810  0.6051  0.1818
 3304TIP3   OH2 9875   1.641   6.503   2.235  0.1020 -0.1915  0.0909
 3304TIP3    H1 9876   1.684   6.449   2.168  1.9940  0.8322  0.4158
 3304TIP3    H2 9877   1.713   6.540   2.286 -1.1503  2.0152  0.3812
 3305TIP3   OH2 9878   3.955   5.088   0.512 -0.4207 -0.5067  0.2391
 3305TIP3    H1 9879   3.877   5.141   0.494  0.3625  0.2998 -0.9065
 3305TIP3    H2 9880   3.963   5.029   0.437  0.8004  0.3426 -0.3366
 3306TIP3   OH2 9881   0.175   1.012   0.892 -0.2480 -0.3125  0.4153
 3306TIP3    H1 9882   0.114   0.940   0.877 -1.6380  1.0236 -0.7843
 3306TIP3    H2 9883   0.139   1.059   0.968 -0.1592 -0.0883  0.3209
 3307TIP3   OH2 9884   4.498   0.346   1.489 -0.1475 -0.0768  0.1090
 3307TIP3    H1 9885   4.406   0.362   1.465 -1.1551  0.7803  3.8502
 3307TIP3    H2 9886   4.511   0.253   1.473 -1.5914 -0.1544 -0.7967
 3308TIP3   OH2 9887  -0.028   5.176   1.531  0.4971  0.1237 -0.1127
 3308TIP3    H1 9888   0.063   5.175   1.500  0.8406  1.5862  0.7241
 3308TIP3    H2 9889  -0.028   5.119   1.608  0.3450 -1.0825 -0.9968
 3309TIP3   OH2 9890   4.121   2.262   5.528 -0.4093  0.0673  0.2173
 3309TIP3    H1 9891   4.030   2.288   5.519 -0.2452  0.2380 -1.1900
 3309TIP3    H2 9892   4.168   2.343   5.547 -0.3383  0.2765 -0.7957
 3310TIP3   OH2 9893   6.596   0.999   5.604 -0.2498 -0.0177 -0.0221
 3310TIP3    H1 9894   6.509   1.038   5.595  0.2476  2.0199  2.6710
 3310TIP3    H2 9895   6.598   0.964   5.693  1.2179 -1.3919 -0.5399
 3311TIP3   OH2 9896   6.155   1.412   4.410  0.1826  0.0441  0.0914
 3311TIP3    H1 9897   6.135   1.491   4.460  1.2831  0.4210 -0.0267
 3311TIP3    H2 9898   6.236   1.378   4.449 -0.5253 -1.3076  0.4491
 3312TIP3   OH2 9899   3.123   0.865   0.081 -0.1165  0.0738  0.1389
 3312TIP3    H1 9900   3.065   0.911   0.141  0.6197  1.2467 -0.0153
 3312TIP3    H2 9901   3.211   0.894   0.106  0.2401  0.1439 -1.1295
 3313TIP3   OH2 9902   6.377   5.409   3.413 -0.1257  1.0450 -0.0385
 3313TIP3    H1 9903   6.408   5.493   3.379  1.4876  0.8011  0.7277
 3313TIP3    H2 9904   6.282   5.417   3.415 -0.1612  1.9116 -2.3453
 3314TIP3   OH2 9905   4.361   5.346   3.650 -0.3318  0.4436  0.1758
 3314TIP3    H1 9906   4.287   5.388   3.606  1.5788  3.2495 -0.5959
 3314TIP3    H2 9907   4.328   5.260   3.675 -3.1702  0.7508 -2.0285
 3315TIP3   OH2 9908   5.833   4.149   3.256  0.1298  0.1109  0.2876
 3315TIP3    H1 9909   5.909   4.106   3.294 -0.6498 -0.6242  1.0630
 3315TIP3    H2 9910   5.760   4.090   3.275 -0.1819 -0.9958 -3.4649
 3316TIP3   OH2 9911   3.706   3.694   2.473  0.3634  0.2066 -0.1834
 3316TIP3    H1 9912   3.738   3.736   2.393  1.4788 -0.1697  0.0482
 3316TIP3    H2 9913   3.744   3.606   2.471 -0.9443 -0.3832 -0.0549
 3317TIP3   OH2 9914   0.015   2.404   2.227  0.5293  0.3395  0.2667
 3317TIP3    H1 9915   0.009   2.310   2.216 -0.2459  0.0307  2.6750
 3317TIP3    H2 9916   0.107   2.420   2.252  0.3963  0.0544  0.9620
 3318TIP3   OH2 9917   6.155   5.260   1.423 -0.0954  0.4340  0.4701
 3318TIP3    H1 9918   6.090   5.318   1.384  0.5217  0.5300 -0.4543
 3318TIP3    H2 9919   6.189   5.308   1.498 -1.3059  0.2517  1.1500
 3319TIP3   OH2 9920   6.815   5.949   2.301 -0.6795 -0.6024 -0.1923
 3319TIP3    H1 9921   6.853   6.022   2.252  1.5479 -1.8264 -0.4026
 3319TIP3    H2 9922   6.750   5.912   2.241 -0.8321  0.3301 -0.6332
 3320TIP3   OH2 9923   3.390   2.362   1.984  0.0750 -0.2677 -0.2140
 3320TIP3    H1 9924   3.315   2.395   1.934  0.6230 -1.6412 -2.0475
 3320TIP3    H2 9925   3.451   2.436   1.987  0.9279 -0.7039 -3.5096
 3321TIP3   OH2 9926   2.157   2.234   2.808  0.1859  0.0253 -0.0946
 3321TIP3    H1 9927   2.149   2.162   2.871 -1.4433  0.0595 -0.2341
 3321TIP3    H2 9928   2.192   2.307   2.859  0.3952 -0.4109  0.3974
 3322TIP3   OH2 9929   1.621   4.214   4.911 -0.0692  0.2717  0.1952
 3322TIP3    H1 9930   1.640   4.251   4.824 -2.2307 -0.4072 -0.6228
 3322TIP3    H2 9931   1.691   4.150   4.925 -0.0235 -0.0657 -1.3477
 3323TIP3   OH2 9932   3.815   5.653   0.470  0.0821 -0.0900  0.4846
 3323TIP3    H1 9933   3.888   5.695   0.517 -1.1537  1.1905  1.3302
 3323TIP3    H2 9934   3.846   5.646   0.380  1.2470  0.4736  0.8161
 3324TIP3   OH2 9935   2.412   2.044   5.523 -0.2446  0.1485  0.6212
 3324TIP3    H1 9936   2.491   2.080   5.564  0.2248 -0.9944  0.7359
 3324TIP3    H2 9937   2.376   2.118   5.474  0.1615  1.0425  1.6350
 3325TIP3   OH2 9938   0.230   2.202   1.164 -0.0475  0.0071  0.6906
 3325TIP3    H1 9939   0.235   2.254   1.084  1.2768 -0.2903  0.5668
 3325TIP3    H2 9940   0.244   2.265   1.235  0.1155  0.0508  0.6193
 3326TIP3   OH2 9941   1.337   1.443   3.217  0.6052  0.3231  0.1549
 3326TIP3    H1 9942   1.377   1.441   3.304  0.8091  1.7574  0.1141
 3326TIP3    H2 9943   1.338   1.351   3.188  0.7094 -0.1447  1.5716
 3327TIP3   OH2 9944   6.808   5.444   3.204 -0.0837 -0.5989 -0.0362
 3327TIP3    H1 9945   6.795   5.431   3.298  0.3852  0.6498  0.2182
 3327TIP3    H2 9946   6.803   5.538   3.191  2.6176 -0.4566 -0.7963
 3328TIP3   OH2 9947   6.745   6.377   1.553 -0.0078 -0.7138  0.2253
 3328TIP3    H1 9948   6.733   6.472   1.553 -0.5249 -0.7488 -1.5653
 3328TIP3    H2 9949   6.657   6.342   1.549  0.2286 -1.2235 -0.8158
 3329TIP3   OH2 9950   1.701   4.320   3.611 -0.0401 -0.2881 -0.1812
 3329TIP3    H1 9951   1.758   4.248   3.584  0.1261  0.0128 -0.6390
 3329TIP3    H2 9952   1.738   4.351   3.693 -0.1085 -0.7184  0.0155
 3330TIP3   OH2 9953   4.897   2.407   0.354 -0.3924  0.1730  0.2346
 3330TIP3    H1 9954   4.882   2.390   0.261  1.2930  0.7824 -0.1843
 3330TIP3    H2 9955   4.823   2.364   0.398 -0.2582 -1.7183 -1.2501
 3331TIP3   OH2 9956   1.789   0.185   5.717 -0.2659  0.5800  0.2361
 3331TIP3    H1 9957   1.814   0.223   5.633 -1.6718 -0.4152 -0.6818
 3331TIP3    H2 9958   1.814   0.251   5.782  0.1388  1.7070 -1.0277
 3332TIP3   OH2 9959   2.577   2.161   0.950 -0.2510 -0.6084  0.1373
 3332TIP3    H1 9960   2.607   2.250   0.932  1.1003 -0.6543  1.8653
 3332TIP3    H2 9961   2.605   2.110   0.875 -0.7714  0.3462 -0.7328
 3333TIP3   OH2 9962   3.990   6.470   4.784 -0.3244  0.5389  0.3814
 3333TIP3    H1 9963   4.041   6.541   4.745 -0.4793  1.4891  1.8289
 3333TIP3    H2 9964   4.049   6.395   4.781  1.0033  1.4695  1.4724
 3334TIP3   OH2 9965   3.438   0.371   5.666  0.2206 -0.0384  0.0926
 3334TIP3    H1 9966   3.400   0.458   5.656 -1.7999 -1.0024 -1.1197
 3334TIP3    H2 9967   3.373   0.321   5.714  1.9287 -0.5928  1.9850
 3335TIP3   OH2 9968   2.100   6.088   3.339 -0.2491 -0.2027 -0.1431
 3335TIP3    H1 9969   2.158   6.046   3.275  1.1141  1.0702  0.2128
 3335TIP3    H2 9970   2.068   6.166   3.294 -2.3166 -1.2283 -0.5899
 3336TIP3   OH2 9971   1.004   1.124   1.051  0.5776 -0.6455  0.0617
 3336TIP3    H1 9972   1.074   1.068   1.018  2.5216  2.3398 -1.3438
 3336TIP3    H2 9973   0.956   1.151   0.973 -0.7821 -0.8618  0.7841
 3337TIP3   OH2 9974   4.180   1.679   3.680 -0.6062  0.3515  0.0503
 3337TIP3    H1 9975   4.152   1.757   3.632  1.7629  0.3526 -1.4933
 3337TIP3    H2 9976   4.248   1.710   3.739  1.3530 -0.6320 -1.5527
 3338TIP3   OH2 9977   2.176   2.036   0.294  0.1046 -0.5094  0.3089
 3338TIP3    H1 9978   2.194   1.965   0.233  0.2696  1.6788 -2.3859
 3338TIP3    H2 9979   2.256   2.044   0.347  1.6072  0.0037 -1.9011
 3339TIP3   OH2 9980   2.738   4.280   4.398 -0.1637  0.1808 -0.0962
 3339TIP3    H1 9981   2.780   4.241   4.474 -1.4530 -0.1653  0.4637
 3339TIP3    H2 9982   2.646   4.288   4.423 -0.4804  0.6987 -1.3630
 3340TIP3   OH2 9983   3.250   4.593   2.828  0.0488  0.6864 -0.4940
 3340TIP3    H1 9984   3.171   4.580   2.776 -0.5806 -0.7160  0.7217
 3340TIP3    H2 9985   3.220   4.641   2.906  0.4898  0.5475 -0.2335
 3341TIP3   OH2 9986   4.471   5.959   0.880 -0.0799  0.0783  0.4064
 3341TIP3    H1 9987   4.512   5.922   0.959  2.4313  0.8351 -0.4582
 3341TIP3    H2 9988   4.523   5.924   0.808 -0.0219  2.2700 -0.6669
 3342TIP3   OH2 9989   5.729   6.090   5.698  0.2928  0.0898  0.3200
 3342TIP3    H1 9990   5.679   6.011   5.675  1.8531 -0.9739  0.4399
 3342TIP3    H2 9991   5.696   6.114   5.785 -1.2480  0.4893 -0.3296
 3343TIP3   OH2 9992   2.274   1.803   0.524 -0.4636  0.0130  0.3997
 3343TIP3    H1 9993   2.315   1.729   0.480 -0.7419  0.1038 -0.0152
 3343TIP3    H2 9994   2.271   1.777   0.616  0.8680  0.1627  0.5087
 3344TIP3   OH2 9995   5.887   2.160   0.212 -0.1682  0.2546 -0.3889
 3344TIP3    H1 9996   5.901   2.083   0.267 -3.3656  0.2344  0.5845
 3344TIP3    H2 9997   5.926   2.232   0.261 -0.0445 -0.2581  0.2765
 3345TIP3   OH2 9998   3.982   1.715   1.061 -0.1759 -0.2142  0.0337
 3345TIP3    H1 9999   3.967   1.787   1.121 -1.4774 -0.6543  0.2617
 3345TIP3    H210000   4.075   1.720   1.040 -0.2916  1.6643 -0.1459
 3346TIP3   OH210001   0.013   6.706   0.333 -0.0187 -0.4096  0.2790
 3346TIP3    H110002   0.069   6.734   0.405  2.0790  0.6339 -1.6297
 3346TIP3    H210003  -0.075   6.704   0.370  0.8775  0.7411  2.6623
 3347TIP3   OH210004   3.286   4.809   0.095 -0.2766  0.4986 -0.8141
 3347TIP3    H110005   3.198   4.782   0.068 -1.0408  1.8307  0.2097
 3347TIP3    H210006   3.343   4.738   0.066 -1.8799 -1.1345 -0.1782
 3348TIP3   OH210007   3.849   0.624   5.074  0.2338  0.0858  0.3618
 3348TIP3    H110008   3.920   0.649   5.134  0.6522  0.1859 -0.1732
 3348TIP3    H210009   3.840   0.699   5.015 -1.8422  1.0653  1.7989
 3349TIP3   OH210010   3.573   5.797   4.317  0.4353  0.7820  0.6392
 3349TIP3    H110011   3.590   5.788   4.223  1.2239 -0.9458  0.9076
 3349TIP3    H210012   3.478   5.782   4.325  0.4908  0.1334  0.1883
 3350TIP3   OH210013   6.181   4.970   1.576  0.6834  0.1675 -0.4074
 3350TIP3    H110014   6.206   4.878   1.584 -1.0040 -0.4187 -1.3555
 3350TIP3    H210015   6.087   4.968   1.557  1.0580  1.9584 -3.0006
 3351TIP3   OH210016   6.423   3.176   1.808 -0.1707  0.2620  0.4064
 3351TIP3    H110017   6.503   3.179   1.860 -0.0252  1.7221  0.1476
 3351TIP3    H210018   6.392   3.267   1.807 -1.7636 -0.2502  0.3936
 3352TIP3   OH210019   4.050   2.587   0.465  0.2739  0.2240  0.6480
 3352TIP3    H110020   4.060   2.493   0.483 -0.6572 -0.0606 -0.2240
 3352TIP3    H210021   4.005   2.590   0.381 -2.0690  1.4379  1.8651
 3353TIP3   OH210022   3.661   3.764   0.980  0.5030 -0.0091 -0.4405
 3353TIP3    H110023   3.702   3.823   1.043 -2.8256  1.4859  0.5606
 3353TIP3    H210024   3.585   3.729   1.026 -0.2771 -1.3603 -2.6222
 3354TIP3   OH210025   4.264   1.750   2.353 -0.2462 -0.3011 -0.4167
 3354TIP3    H110026   4.233   1.710   2.272 -1.1874  0.9346 -0.7121
 3354TIP3    H210027   4.290   1.839   2.327  2.1730 -0.7865  0.1249
 3355TIP3   OH210028   6.570   2.847   0.874 -0.4915  0.2022  0.1999
 3355TIP3    H110029   6.531   2.882   0.794 -1.3445  1.3007  1.0627
 3355TIP3    H210030   6.531   2.899   0.944  0.8324 -0.2039  1.2773
 3356TIP3   OH210031   0.218   6.130   4.810 -0.2778 -1.0441  0.2502
 3356TIP3    H110032   0.305   6.119   4.769 -0.4455 -0.9183 -0.1494
 3356TIP3    H210033   0.170   6.184   4.747  0.0684  0.8100  1.4816
 3357TIP3   OH210034   4.099   1.699   5.515 -0.0037  0.7558  0.6060
 3357TIP3    H110035   4.183   1.744   5.521  0.7113 -0.4969  0.2913
 3357TIP3    H210036   4.114   1.615   5.558 -1.3650  0.8719  1.3605
 3358TIP3   OH210037   2.636   4.726   4.333 -0.2298 -0.4327 -0.4402
 3358TIP3    H110038   2.617   4.640   4.296  0.6468 -0.6494 -0.4184
 3358TIP3    H210039   2.551   4.767   4.344 -0.8267 -2.0129  1.3026
 3359TIP3   OH210040   1.505   3.644   3.180  0.2517  0.1722 -0.1201
 3359TIP3    H110041   1.497   3.551   3.158  0.9092  0.0354  0.1879
 3359TIP3    H210042   1.582   3.673   3.132  0.7821  0.2489  0.7589
 3360TIP3   OH210043   4.224   1.512   0.584  0.3116 -0.1559 -0.1738
 3360TIP3    H110044   4.244   1.514   0.490  3.5463  1.8627  0.3914
 3360TIP3    H210045   4.277   1.441   0.618 -1.3077 -1.2713  0.1085
 3361TIP3   OH210046   0.714   0.414   0.123 -0.3416  0.3235  0.1707
 3361TIP3    H110047   0.621   0.417   0.098  0.4572  1.4721 -3.1341
 3361TIP3    H210048   0.744   0.505   0.115  0.9053  0.1422  2.1675
 3362TIP3   OH210049   0.466   6.014   1.870 -0.8035  0.3514 -0.4628
 3362TIP3    H110050   0.529   6.086   1.877 -1.2293  0.6148  1.0039
 3362TIP3    H210051   0.433   6.002   1.959 -1.8957 -0.6288 -0.9682
 3363TIP3   OH210052   0.622   0.013   4.658 -0.1470  0.1194  0.4469
 3363TIP3    H110053   0.557   0.047   4.719 -1.5228 -0.5215 -0.6151
 3363TIP3    H210054   0.678   0.088   4.638 -2.3735  1.5576 -0.8980
 3364TIP3   OH210055   2.716   2.688   2.054  0.4092  1.0751 -0.0364
 3364TIP3    H110056   2.680   2.619   1.999 -1.3490  0.2698  1.9703
 3364TIP3    H210057   2.740   2.757   1.993 -0.2408 -0.2575 -1.8916
 3365TIP3   OH210058   6.191   0.665   3.158 -0.0829  0.6759 -0.0808
 3365TIP3    H110059   6.132   0.737   3.182 -0.0312  0.5144  0.5588
 3365TIP3    H210060   6.157   0.632   3.075  0.4108  2.0075 -0.8401
 3366TIP3   OH210061   6.418   1.845   5.121  0.0468 -0.1202  0.0447
 3366TIP3    H110062   6.458   1.837   5.208 -1.2849 -0.5075  0.6668
 3366TIP3    H210063   6.365   1.925   5.127 -1.6711 -1.2302  0.3245
 3367TIP3   OH210064   3.394   1.733   5.342  0.0638  1.0137 -0.7349
 3367TIP3    H110065   3.406   1.790   5.267  1.6433  1.4623 -0.1766
 3367TIP3    H210066   3.482   1.708   5.368 -0.5152 -0.2442  0.1390
 3368TIP3   OH210067   1.390   5.279   5.214  0.5844 -0.3689  0.4290
 3368TIP3    H110068   1.467   5.274   5.158  0.9299 -0.0931  0.8759
 3368TIP3    H210069   1.403   5.359   5.266 -0.5416  0.3113 -0.2886
 3369TIP3   OH210070   6.301   6.636   3.842 -0.1247 -0.6971 -0.8996
 3369TIP3    H110071   6.252   6.658   3.921  0.5719 -1.4647 -0.2292
 3369TIP3    H210072   6.326   6.721   3.805  0.9794 -0.2897  0.6389
 3370TIP3   OH210073   6.428   1.735   0.951  0.7656  0.3295 -0.2970
 3370TIP3    H110074   6.481   1.692   1.019  0.0503  1.0271  0.7260
 3370TIP3    H210075   6.419   1.825   0.981  1.8832  1.1363 -2.2014
 3371TIP3   OH210076   2.165   2.136   0.681  0.3904  0.4528  0.0350
 3371TIP3    H110077   2.128   2.216   0.643  1.7412  0.6500 -0.9600
 3371TIP3    H210078   2.095   2.072   0.675  0.0890  0.8759 -1.5450
 3372TIP3   OH210079   0.487   3.214   1.881 -0.1498  0.4208  0.5505
 3372TIP3    H110080   0.466   3.126   1.911 -1.7420  0.8738  0.8845
 3372TIP3    H210081   0.496   3.265   1.961 -0.6026  0.8323  0.3464
 3373TIP3   OH210082   0.107   6.652   4.239  0.3098  0.0257  0.1863
 3373TIP3    H110083   0.037   6.588   4.251  1.0299 -1.0971 -1.2674
 3373TIP3    H210084   0.188   6.602   4.253  0.8568  1.1429  1.1722
 3374TIP3   OH210085   7.105   1.704   3.714 -0.0200  0.1933 -0.1379
 3374TIP3    H110086   7.190   1.692   3.671 -0.7256  0.0400 -1.5688
 3374TIP3    H210087   7.102   1.797   3.736 -0.2004  0.5981 -1.7577
 3375TIP3   OH210088   6.732   0.172   0.841 -0.0768  0.3278  0.1303
 3375TIP3    H110089   6.765   0.082   0.840  2.0442  1.0645 -0.1609
 3375TIP3    H210090   6.664   0.173   0.773 -0.1662 -1.0495  0.1678
 3376TIP3   OH210091   0.706   0.250   0.847  0.5714 -1.0302 -0.1244
 3376TIP3    H110092   0.657   0.167   0.848  0.5364 -1.0917 -2.4960
 3376TIP3    H210093   0.766   0.242   0.773  0.2540  1.2472 -0.7022
 3377TIP3   OH210094   0.341   0.081   1.375 -0.2373  0.2299  0.2761
 3377TIP3    H110095   0.345   0.155   1.435 -0.6711  1.9207 -1.6661
 3377TIP3    H210096   0.376   0.115   1.292  0.7147 -2.1116 -0.3675
 3378TIP3   OH210097   1.147   1.182   3.342  0.1011  0.0087 -0.2217
 3378TIP3    H110098   1.160   1.276   3.328 -0.2921 -0.0282 -0.8727
 3378TIP3    H210099   1.206   1.140   3.279  0.6281 -0.1941  0.3920
 3379TIP3   OH210100   4.053   4.131   3.547  0.0575 -0.3176  0.0487
 3379TIP3    H110101   3.982   4.152   3.608  1.2384  1.4734  0.9033
 3379TIP3    H210102   4.019   4.157   3.461 -0.9522 -1.1608  0.1693
 3380TIP3   OH210103   1.580   6.024   2.239  0.0928 -0.3262  0.2317
 3380TIP3    H110104   1.634   5.994   2.312 -0.8161  0.6024  1.3266
 3380TIP3    H210105   1.571   6.118   2.253 -0.3497 -0.1745 -0.9328
 3381TIP3   OH210106   4.245   0.652   2.662  0.1594 -0.1638  0.3081
 3381TIP3    H110107   4.297   0.577   2.693 -1.5400 -1.0869  1.0518
 3381TIP3    H210108   4.199   0.619   2.585 -0.2019  0.2789  0.3331
 3382TIP3   OH210109   4.960   0.489   2.021  0.1621 -1.3095  0.1390
 3382TIP3    H110110   4.932   0.576   1.994  2.2199 -0.9723 -1.1580
 3382TIP3    H210111   5.003   0.502   2.105  2.8504 -0.5002 -1.2419
 3383TIP3   OH210112   4.691   0.085   0.599 -0.3150 -0.0859 -0.3045
 3383TIP3    H110113   4.619   0.023   0.593  0.2156 -0.6053 -1.7682
 3383TIP3    H210114   4.725   0.091   0.510  0.7787  0.9583  0.1536
 3384TIP3   OH210115   4.688   4.666   3.011 -0.1052  0.5680 -0.2340
 3384TIP3    H110116   4.602   4.627   3.002  0.6252 -1.6205  1.4859
 3384TIP3    H210117   4.678   4.731   3.081  0.0441 -1.3015  1.6294
 3385TIP3   OH210118   3.838   6.705   2.058 -0.3278 -0.5796 -0.3202
 3385TIP3    H110119   3.852   6.799   2.072  0.8749 -0.6138 -1.1207
 3385TIP3    H210120   3.838   6.695   1.962  1.0991 -1.5760 -0.2502
 3386TIP3   OH210121   2.606   3.398   4.865  0.0946  0.2417 -0.3046
 3386TIP3    H110122   2.521   3.427   4.832  0.1908 -0.6768 -1.4223
 3386TIP3    H210123   2.661   3.476   4.861  0.1790  0.1478 -2.6676
 3387TIP3   OH210124   0.893   6.409   3.554 -0.3962 -0.0404  0.2196
 3387TIP3    H110125   0.862   6.471   3.487 -1.9429  0.0889  1.0158
 3387TIP3    H210126   0.817   6.396   3.611  0.9018 -0.1066  1.9889
 3388TIP3   OH210127   6.859   3.569   1.560  0.2106  0.1231  0.2061
 3388TIP3    H110128   6.840   3.643   1.618  0.2123 -0.0489  0.4237
 3388TIP3    H210129   6.953   3.577   1.542  0.2698  0.0076  0.4593
 3389TIP3   OH210130   4.347   1.829   4.170  0.3421  0.1614  0.4907
 3389TIP3    H110131   4.440   1.849   4.177  0.0142  3.1368 -1.6604
 3389TIP3    H210132   4.302   1.908   4.201 -1.3117  0.3386 -1.9917
 3390TIP3   OH210133   4.461   6.078   1.296  0.2474  0.2412 -0.2595
 3390TIP3    H110134   4.386   6.124   1.335  0.4973 -0.9160  1.7278
 3390TIP3    H210135   4.486   6.013   1.362  1.3270 -1.2184 -2.0236
 3391TIP3   OH210136   6.227   6.233   2.976 -0.5952 -0.0762 -0.3235
 3391TIP3    H110137   6.138   6.196   2.978 -0.9818  0.8294  0.8473
 3391TIP3    H210138   6.280   6.166   2.934 -1.8455 -0.6268 -1.0875
 3392TIP3   OH210139   2.105   5.140   3.627  0.2378 -0.1467  0.7528
 3392TIP3    H110140   2.085   5.075   3.693  0.8847 -0.6562  0.4539
 3392TIP3    H210141   2.150   5.210   3.674 -2.1862  1.0659  1.4629
 3393TIP3   OH210142   3.020   3.368   1.910  0.7780  0.0664  0.5609
 3393TIP3    H110143   3.115   3.368   1.922  1.1362  1.5101 -1.7283
 3393TIP3    H210144   2.999   3.456   1.881 -1.2277 -0.3355  0.6541
 3394TIP3   OH210145   3.532   3.414   3.163  0.0172  0.1193 -0.5281
 3394TIP3    H110146   3.482   3.341   3.199  1.3371 -0.6322 -0.1545
 3394TIP3    H210147   3.491   3.492   3.201  0.6233 -0.5801  1.7742
 3395TIP3   OH210148   7.037   5.387   1.410 -0.3390 -0.2031  0.5012
 3395TIP3    H110149   7.045   5.452   1.480 -1.4063  0.9919 -0.4462
 3395TIP3    H210150   7.093   5.314   1.439  1.8244  1.5584  1.0609
 3396TIP3   OH210151   4.526   5.727   0.708 -0.2170 -0.2163 -0.6472
 3396TIP3    H110152   4.494   5.655   0.762  0.8652 -0.7385 -0.6789
 3396TIP3    H210153   4.607   5.756   0.750 -0.5837  0.9243 -0.6918
 3397TIP3   OH210154   1.472   0.873   1.127  0.0814 -0.4090 -0.3526
 3397TIP3    H110155   1.539   0.940   1.140 -0.0403  0.1600 -2.3344
 3397TIP3    H210156   1.492   0.836   1.041 -2.0639 -0.3137 -0.9392
 3398TIP3   OH210157   2.989   2.357   1.627  0.2280 -0.1862  0.4886
 3398TIP3    H110158   2.897   2.381   1.618  0.2014 -0.3800  0.2611
 3398TIP3    H210159   2.996   2.322   1.716  0.1826  0.2769  0.6819
 3399TIP3   OH210160   3.541   0.987   2.264  0.9156 -0.1365  0.8000
 3399TIP3    H110161   3.545   1.052   2.334 -1.8365 -0.8044  1.6944
 3399TIP3    H210162   3.612   0.926   2.284 -0.3279 -0.8226  3.6488
 3400TIP3   OH210163   3.360   3.342   4.213  0.3192 -0.2572 -0.3536
 3400TIP3    H110164   3.280   3.376   4.253  0.3263  0.1745 -0.7044
 3400TIP3    H210165   3.428   3.404   4.239 -0.0860  1.4217 -3.0119
 3401TIP3   OH210166   6.792   5.363   2.340  0.2667 -0.2202  0.1790
 3401TIP3    H110167   6.749   5.280   2.362 -0.6264  1.0314  3.9476
 3401TIP3    H210168   6.729   5.408   2.284  0.1080 -1.4660 -0.6816
 3402TIP3   OH210169   3.664   4.113   0.155 -0.0154  0.5476 -0.2785
 3402TIP3    H110170   3.675   4.103   0.250  0.1001 -2.3211 -0.4981
 3402TIP3    H210171   3.753   4.128   0.123  0.0960  0.4247 -0.0349
 3403TIP3   OH210172   2.902   3.109   5.374  0.1389 -0.1158 -0.0724
 3403TIP3    H110173   2.908   3.118   5.278  1.2701  2.3941  0.1495
 3403TIP3    H210174   2.820   3.062   5.388 -0.2496 -0.2271 -2.2663
 3404TIP3   OH210175   4.652   6.299   5.766 -0.0416  0.0474 -0.1154
 3404TIP3    H110176   4.596   6.348   5.826  1.9634  3.1870 -0.5615
 3404TIP3    H210177   4.618   6.319   5.679  0.2369 -0.1420 -0.2700
 3405TIP3   OH210178   3.980   3.866   0.090  0.0483  0.0832  0.4618
 3405TIP3    H110179   4.019   3.907   0.168  0.4261 -0.6288  0.6542
 3405TIP3    H210180   3.983   3.772   0.108 -0.9827 -0.0368  0.1100
 3406TIP3   OH210181   4.746   2.819   1.969  0.1717 -0.2029 -0.4039
 3406TIP3    H110182   4.762   2.759   2.042 -1.5823 -0.1765  0.0488
 3406TIP3    H210183   4.833   2.853   1.946  0.7903 -0.3175  1.5674
 3407TIP3   OH210184   4.399   2.541   5.716  0.2757  0.1532 -0.0884
 3407TIP3    H110185   4.396   2.457   5.760  2.5224 -0.4711 -1.0153
 3407TIP3    H210186   4.320   2.542   5.661 -1.1656 -0.1553  1.8829
 3408TIP3   OH210187   5.098   6.393   2.918  0.0045 -0.6984  0.1106
 3408TIP3    H110188   5.149   6.447   2.858  1.1894 -1.1213  0.7127
 3408TIP3    H210189   5.069   6.453   2.986  0.2332 -0.5756  0.1000
 3409TIP3   OH210190   6.576   5.248   4.598 -0.4548 -0.3651  1.1661
 3409TIP3    H110191   6.492   5.226   4.556 -0.1263  0.3894  0.0798
 3409TIP3    H210192   6.600   5.169   4.646 -0.5846 -1.4760 -0.5201
 3410TIP3   OH210193   4.195   3.924   3.056 -0.1757  0.3505  0.3561
 3410TIP3    H110194   4.211   3.955   2.967 -1.3950  0.5278  0.1783
 3410TIP3    H210195   4.105   3.951   3.075 -0.4424 -0.9721  1.0919
 3411TIP3   OH210196   2.435   4.107   4.296  0.2253 -0.4609 -0.0356
 3411TIP3    H110197   2.392   4.065   4.370 -1.9727 -1.6128 -1.8583
 3411TIP3    H210198   2.498   4.043   4.264  1.1547  0.0260  0.7555
 3412TIP3   OH210199   4.013   1.989   2.039  0.0849  0.1474 -0.2994
 3412TIP3    H110200   3.935   2.043   2.043  0.3507  0.4394  1.8164
 3412TIP3    H210201   4.072   2.026   2.104  0.2218 -2.7265  1.4018
 3413TIP3   OH210202   6.863   4.347   1.081 -0.2689  0.0706 -0.7910
 3413TIP3    H110203   6.871   4.417   1.145  2.7517 -0.1845 -0.7200
 3413TIP3    H210204   6.878   4.390   0.997 -0.4171 -0.1699 -0.9396
 3414TIP3   OH210205   0.739   6.762   2.993 -0.4023  0.3589  0.1842
 3414TIP3    H110206   0.665   6.820   2.981 -2.2583 -1.6458  1.1887
 3414TIP3    H210207   0.711   6.701   3.061  1.6846 -1.2745 -0.3050
 3415TIP3   OH210208   1.346   2.861   4.524 -0.1239 -0.3553 -0.4823
 3415TIP3    H110209   1.266   2.842   4.573 -0.3056  0.9699 -0.2080
 3415TIP3    H210210   1.331   2.948   4.487  1.4198  0.1961  0.0776
 3416TIP3   OH210211   3.389   6.705   5.537 -0.2305  0.8235  0.2492
 3416TIP3    H110212   3.329   6.777   5.559 -1.8838 -0.6253  0.6930
 3416TIP3    H210213   3.385   6.700   5.442 -1.7991 -0.0002  0.3179
 3417TIP3   OH210214   6.679   2.458   4.515  0.0932  0.1361 -0.4983
 3417TIP3    H110215   6.690   2.383   4.456 -0.7601 -0.3597 -0.0518
 3417TIP3    H210216   6.704   2.424   4.601 -2.5187 -0.3717  0.1345
 3418TIP3   OH210217   6.820   3.305   1.652 -0.2533 -0.3192 -0.0139
 3418TIP3    H110218   6.792   3.329   1.740 -1.2136 -1.2070 -0.0524
 3418TIP3    H210219   6.798   3.381   1.599  0.3984  0.2497  0.5171
 3419TIP3   OH210220   0.740   4.756   1.133 -0.0626  0.4203  0.1561
 3419TIP3    H110221   0.737   4.752   1.037 -1.4363  0.7950  0.1509
 3419TIP3    H210222   0.668   4.815   1.156 -1.0152 -1.1627  1.4858
 3420TIP3   OH210223   2.538   0.467   3.540  0.0313 -0.1537 -0.1238
 3420TIP3    H110224   2.555   0.552   3.581 -1.0837 -0.7835  1.7677
 3420TIP3    H210225   2.592   0.467   3.461  1.6123  1.4855  0.8842
 3421TIP3   OH210226   4.232   4.809   2.992 -0.5581 -0.1330  0.2738
 3421TIP3    H110227   4.232   4.889   3.044 -0.5973 -0.8813  1.4610
 3421TIP3    H210228   4.309   4.761   3.022  0.0873 -0.0688 -1.2041
 3422TIP3   OH210229   4.203   1.238   5.239  0.6818  0.1674 -0.0980
 3422TIP3    H110230   4.114   1.230   5.204  1.6130  1.5114 -3.0818
 3422TIP3    H210231   4.260   1.220   5.165  2.9412  0.0220  1.5604
 3423TIP3   OH210232   6.933   3.769   4.682 -0.1315 -0.3646  0.0007
 3423TIP3    H110233   6.996   3.733   4.620  1.3511  1.6785  0.2254
 3423TIP3    H210234   6.969   3.854   4.706 -3.0533  0.9726  0.0607
 3424TIP3   OH210235   0.654   3.373   2.588 -0.6135  0.1721 -0.4247
 3424TIP3    H110236   0.686   3.449   2.539 -0.4657 -1.0191 -2.2593
 3424TIP3    H210237   0.559   3.381   2.585 -0.6055  1.1359  0.8534
 3425TIP3   OH210238   1.196   1.693   1.497 -0.6420 -0.0122  0.2692
 3425TIP3    H110239   1.148   1.672   1.416  0.5455 -0.7518 -0.2674
 3425TIP3    H210240   1.281   1.725   1.467 -1.0481  2.0497  1.1856
 3426TIP3   OH210241   3.228   4.072   1.259  0.2211 -0.7899  0.1717
 3426TIP3    H110242   3.139   4.072   1.293 -0.5927  0.0629 -1.8102
 3426TIP3    H210243   3.266   3.990   1.292 -1.3490 -1.2697  0.8745
 3427TIP3   OH210244   0.987   0.682   3.702  0.0470 -0.0677 -0.3641
 3427TIP3    H110245   1.011   0.590   3.691  0.6838 -0.2320  1.7728
 3427TIP3    H210246   0.933   0.683   3.781 -0.0284  1.3815 -0.4085
 3428TIP3   OH210247   4.705   6.760   0.011 -0.2347 -0.6717 -0.0041
 3428TIP3    H110248   4.765   6.828  -0.020  0.0557  0.0434  1.9839
 3428TIP3    H210249   4.755   6.713   0.078 -1.5810 -0.6225  1.0717
 3429TIP3   OH210250   3.008   6.452  -0.014 -0.0703 -0.1887 -0.7508
 3429TIP3    H110251   2.974   6.365   0.007  1.2667 -0.8874 -1.3660
 3429TIP3    H210252   3.065   6.473   0.060 -0.8801  0.4585 -0.2960
 3430TIP3   OH210253   6.251   4.935   5.007  0.0215 -0.2941  0.3884
 3430TIP3    H110254   6.172   4.951   5.059 -0.4440  0.5717 -0.5571
 3430TIP3    H210255   6.227   4.961   4.918  1.5285  0.4582  0.1726
 3431TIP3   OH210256   6.364   6.214   4.031 -0.6628 -0.2205 -0.0784
 3431TIP3    H110257   6.352   6.206   4.126 -0.1945  0.0699  0.0054
 3431TIP3    H210258   6.286   6.261   4.001 -1.0183 -0.6818  0.1003
 3432TIP3   OH210259   2.627   5.494   5.764 -0.2524 -0.2287 -0.2408
 3432TIP3    H110260   2.693   5.563   5.756 -0.0991 -0.3222  0.2165
 3432TIP3    H210261   2.547   5.534   5.731 -0.6421  0.8521  1.8722
 3433TIP3   OH210262   5.155   0.947   0.126 -0.6944 -0.3692  0.5736
 3433TIP3    H110263   5.176   0.853   0.122 -0.7971 -0.3545 -0.7554
 3433TIP3    H210264   5.094   0.961   0.054  0.2728  0.9523 -0.0267
 3434TIP3   OH210265   0.288   0.841   3.440 -0.3456 -0.3480 -0.0288
 3434TIP3    H110266   0.258   0.758   3.477  0.8907 -0.3178  1.1179
 3434TIP3    H210267   0.333   0.817   3.359  0.7222 -0.9270  0.7062
 3435TIP3   OH210268   7.208   5.994   4.079 -1.1025  0.6385 -0.1920
 3435TIP3    H110269   7.236   5.957   3.996 -0.3005  1.0432 -0.1080
 3435TIP3    H210270   7.114   6.012   4.067 -1.3745 -0.7866 -0.4465
 3436TIP3   OH210271   0.041   3.536   0.868 -0.2479 -0.1251  0.1679
 3436TIP3    H110272   0.124   3.569   0.903 -0.3424  1.4102 -0.9413
 3436TIP3    H210273   0.018   3.463   0.925  1.0227  0.4824  1.5168
 3437TIP3   OH210274   1.735   3.837   1.439 -0.4984  0.0536 -0.1874
 3437TIP3    H110275   1.715   3.887   1.360 -1.9006 -0.2288 -0.0331
 3437TIP3    H210276   1.794   3.894   1.489  0.6748  0.1051 -1.5551
 3438TIP3   OH210277   5.746   2.040   3.643 -0.1383  0.2528 -0.1288
 3438TIP3    H110278   5.805   2.029   3.567 -0.2569 -0.5795 -0.1100
 3438TIP3    H210279   5.804   2.031   3.719 -0.2205 -0.1549 -0.1135
 3439TIP3   OH210280   1.107   4.132   3.270  0.2488 -0.1690 -0.5283
 3439TIP3    H110281   1.122   4.226   3.285 -1.6690  0.2888 -1.2292
 3439TIP3    H210282   1.186   4.090   3.304  1.0218  1.6685  0.0950
 3440TIP3   OH210283   6.774   0.864  -0.017  0.8215  0.2802 -0.8227
 3440TIP3    H110284   6.734   0.946   0.012 -0.7189 -0.0900 -1.7352
 3440TIP3    H210285   6.718   0.796   0.020  1.0616 -0.2886 -1.4767
 3441TIP3   OH210286   5.645   0.840   3.314 -0.2268  0.1325  0.0114
 3441TIP3    H110287   5.690   0.770   3.361 -1.6968  0.0950  1.4539
 3441TIP3    H210288   5.709   0.911   3.308  0.2391 -0.1385  1.4426
 3442TIP3   OH210289   0.287   4.788   5.414  0.7926 -0.0918  0.2230
 3442TIP3    H110290   0.237   4.868   5.429  0.0191 -0.3386 -0.9331
 3442TIP3    H210291   0.356   4.814   5.353  1.1820 -0.0838  0.6612
 3443TIP3   OH210292   4.257   0.132   5.087 -0.4867  0.0252  0.1661
 3443TIP3    H110293   4.226   0.043   5.077 -1.3909  0.1416  1.6027
 3443TIP3    H210294   4.208   0.166   5.162  0.4835  1.4303  0.2041
 3444TIP3   OH210295   2.938   5.543   2.171 -0.5063  0.2096 -0.2986
 3444TIP3    H110296   2.983   5.615   2.216  1.0307  0.0120 -1.4571
 3444TIP3    H210297   2.972   5.545   2.082 -2.5743 -0.1785 -1.1567
 3445TIP3   OH210298   2.671   4.769   1.875  0.2780  0.3836  0.9296
 3445TIP3    H110299   2.716   4.716   1.941  1.9556  0.2966 -0.2266
 3445TIP3    H210300   2.598   4.715   1.846 -0.0632  0.1365  2.1883
 3446TIP3   OH210301   6.370   1.655   0.023  0.0361 -0.0655  0.7939
 3446TIP3    H110302   6.293   1.598   0.018 -0.2298  0.2980  0.6607
 3446TIP3    H210303   6.333   1.744   0.032  0.4264  0.1948 -0.0841
 3447TIP3   OH210304   3.949   6.187   1.233 -0.4767  0.2461  0.4734
 3447TIP3    H110305   3.930   6.158   1.144  1.4996  2.1999 -0.7011
 3447TIP3    H210306   3.865   6.215   1.268 -1.4903 -1.6349 -0.2906
 3448TIP3   OH210307   4.493   6.552   0.096  0.4067  0.2797  0.2518
 3448TIP3    H110308   4.452   6.555   0.182  0.9467  0.1553  0.5229
 3448TIP3    H210309   4.550   6.475   0.099  1.3816  0.9686  0.2376
 3449TIP3   OH210310   2.983   2.795   5.168 -0.7482  0.2197  0.1755
 3449TIP3    H110311   2.964   2.726   5.105  0.3960  0.8379 -0.9053
 3449TIP3    H210312   2.941   2.767   5.249  0.7261 -2.3821  0.1561
 3450TIP3   OH210313   0.488   3.182   1.413  0.4373  0.4055  0.0335
 3450TIP3    H110314   0.432   3.138   1.348  1.7201 -2.5616  0.7883
 3450TIP3    H210315   0.562   3.215   1.362 -0.0735  0.8604 -0.4246
 3451TIP3   OH210316   6.680   5.534   4.752  0.2016  0.9008  0.3363
 3451TIP3    H110317   6.675   5.596   4.680 -1.9161  0.2968 -0.1034
 3451TIP3    H210318   6.701   5.450   4.711  1.5682  1.0103  0.7575
 3452TIP3   OH210319   3.609   0.715   1.710  0.7014 -0.3667  0.0538
 3452TIP3    H110320   3.546   0.722   1.782 -0.0002 -0.2783 -0.5637
 3452TIP3    H210321   3.562   0.748   1.633  1.6305  0.0837 -0.3419
 3453TIP3   OH210322   0.998   2.785   0.163  0.5829 -0.1601  0.5193
 3453TIP3    H110323   1.010   2.733   0.242  0.2852 -0.6718  0.2315
 3453TIP3    H210324   1.076   2.766   0.110  0.3318 -0.5519  0.2848
 3454TIP3   OH210325   3.460   2.486   4.676  0.3231 -0.8982  0.1893
 3454TIP3    H110326   3.529   2.511   4.737  0.0384 -0.9150  0.5185
 3454TIP3    H210327   3.422   2.407   4.714 -1.1385  0.1474  1.0223
 3455TIP3   OH210328   3.867   0.257   1.687  0.0965 -0.6382 -0.1168
 3455TIP3    H110329   3.816   0.177   1.677  0.6692 -1.0393  0.0898
 3455TIP3    H210330   3.941   0.232   1.744  0.2540  0.0463 -0.0019
 3456TIP3   OH210331   1.702   3.890   5.566  0.9907  0.3090  0.2692
 3456TIP3    H110332   1.788   3.885   5.525 -0.3981 -0.3916 -2.7951
 3456TIP3    H210333   1.676   3.981   5.556  0.8548  0.2437  0.0177
 3457TIP3   OH210334   6.188   6.480   3.094  0.0788 -0.7252 -0.3141
 3457TIP3    H110335   6.120   6.443   3.151 -1.6564  1.4386 -0.8354
 3457TIP3    H210336   6.219   6.405   3.042 -1.8238 -1.8397  0.0537
 3458TIP3   OH210337   0.684   1.740   3.262  0.6182 -0.1684  0.2286
 3458TIP3    H110338   0.682   1.667   3.201  0.9894  0.2836 -0.3244
 3458TIP3    H210339   0.729   1.810   3.215  0.7279  0.2488  0.9413
 3459TIP3   OH210340   1.271   5.558   5.367 -0.5682 -0.6587  0.4407
 3459TIP3    H110341   1.270   5.549   5.462 -0.2670 -3.4318  0.2506
 3459TIP3    H210342   1.348   5.614   5.349  0.3047 -1.3991  1.7585
 3460TIP3   OH210343   4.761   1.249   3.355  0.3320  0.1754  0.3484
 3460TIP3    H110344   4.752   1.344   3.347 -0.8485  0.1874  1.4350
 3460TIP3    H210345   4.783   1.219   3.267  1.0212  1.4750  0.0492
 3461TIP3   OH210346   0.843   4.207   5.712  0.3011  0.0593  0.0754
 3461TIP3    H110347   0.932   4.242   5.709 -0.6982  2.8306  0.5161
 3461TIP3    H210348   0.814   4.209   5.621  0.2744  0.2828  0.0888
 3462TIP3   OH210349   6.251   2.762   5.280  0.1198  0.1462  0.0642
 3462TIP3    H110350   6.162   2.732   5.298  0.2420 -1.3475 -1.5605
 3462TIP3    H210351   6.302   2.735   5.357 -0.7063  0.6161  0.8021
 3463TIP3   OH210352   2.064   4.937   4.434 -0.4354 -0.5902 -0.7087
 3463TIP3    H110353   2.095   5.014   4.480 -1.1641 -0.1502 -0.9345
 3463TIP3    H210354   1.989   4.907   4.485  0.0976 -1.4025 -0.3885
 3464TIP3   OH210355   0.385   2.194   2.520 -0.3175  0.6489  0.8358
 3464TIP3    H110356   0.455   2.235   2.469 -0.4899 -0.3735 -0.2621
 3464TIP3    H210357   0.426   2.171   2.603 -0.0021  2.2469  1.1706
 3465TIP3   OH210358   1.319   5.325   4.841  0.1068  0.3395  0.0663
 3465TIP3    H110359   1.275   5.361   4.918  0.3055 -0.8029  0.7227
 3465TIP3    H210360   1.406   5.366   4.843 -0.4847  1.6911 -0.5776
 3466TIP3   OH210361   1.262   5.618   2.098  0.2129  0.2183 -0.1162
 3466TIP3    H110362   1.180   5.658   2.068  0.4583 -0.2243 -1.4782
 3466TIP3    H210363   1.320   5.692   2.114 -0.0869  0.4939 -0.2898
 3467TIP3   OH210364   1.330   2.581   4.459 -0.0988 -0.6228  0.2744
 3467TIP3    H110365   1.318   2.672   4.488 -0.5717 -0.1940 -1.1549
 3467TIP3    H210366   1.344   2.532   4.539 -0.9545  0.5486  1.1768
 3468TIP3   OH210367   6.306   0.318   3.873  0.2355 -0.7173  0.8148
 3468TIP3    H110368   6.282   0.410   3.879 -0.0778 -0.7948  0.7279
 3468TIP3    H210369   6.244   0.272   3.929 -0.7663 -1.0877 -0.5373
 3469TIP3   OH210370   2.382   2.505   3.839  0.3623  0.2701 -0.0866
 3469TIP3    H110371   2.372   2.414   3.866 -1.1632  0.4552  0.0881
 3469TIP3    H210372   2.475   2.516   3.824  0.5144 -1.4499 -0.5912
 3470TIP3   OH210373   1.281   1.975   1.863 -0.1044  0.8248 -0.8263
 3470TIP3    H110374   1.236   1.897   1.897 -0.0582  0.5109 -1.4610
 3470TIP3    H210375   1.373   1.959   1.882 -0.3152  1.9535  1.4341
 3471TIP3   OH210376   3.593   0.428   1.012 -0.6734 -0.3560 -0.0717
 3471TIP3    H110377   3.542   0.470   0.942  0.3605 -0.3281 -0.8398
 3471TIP3    H210378   3.585   0.488   1.086  0.5378  1.1198 -1.0618
 3472TIP3   OH210379   3.375   6.491   3.894  0.3016 -0.2221 -0.3250
 3472TIP3    H110380   3.407   6.453   3.976  0.5740  0.7074  0.0129
 3472TIP3    H210381   3.294   6.536   3.919  0.0652 -0.4346 -0.6920
 3473TIP3   OH210382   3.732   4.002   5.443 -0.3805  0.5640  0.3931
 3473TIP3    H110383   3.779   4.008   5.360  0.1127 -3.0922  0.2488
 3473TIP3    H210384   3.730   4.092   5.476  0.7918  1.8962 -2.7804
 3474TIP3   OH210385   2.930   2.790   3.405 -0.1267  0.0160 -0.5512
 3474TIP3    H110386   3.012   2.840   3.411 -0.1316 -0.1086  0.8603
 3474TIP3    H210387   2.942   2.717   3.465 -0.5968 -1.0303 -1.6828
 3475TIP3   OH210388   7.122   3.682   5.609  0.3054 -0.4461  0.3796
 3475TIP3    H110389   7.043   3.712   5.655  0.5027  1.5889 -0.5286
 3475TIP3    H210390   7.096   3.674   5.518  1.4708  1.6973 -0.1955
 3476TIP3   OH210391   4.577   1.143   3.548  0.0974 -0.6091 -0.1229
 3476TIP3    H110392   4.638   1.167   3.477  2.2714 -1.6424  1.2870
 3476TIP3    H210393   4.550   1.054   3.526  2.0659 -1.5802  1.0602
 3477TIP3   OH210394   5.731   0.621   4.422 -0.0123  0.7275 -0.2383
 3477TIP3    H110395   5.776   0.634   4.506 -1.1126 -1.4004  0.7841
 3477TIP3    H210396   5.640   0.642   4.441  0.0254  2.2581 -1.5271
 3478TIP3   OH210397   1.182   1.575   1.751 -0.1687  0.0232  0.1324
 3478TIP3    H110398   1.204   1.578   1.658 -0.0535 -1.3768  0.0980
 3478TIP3    H210399   1.107   1.516   1.756 -0.1900  0.1102  0.9233
 3479TIP3   OH210400   6.512   1.376   5.850 -0.0759  0.2589  0.2763
 3479TIP3    H110401   6.549   1.345   5.768 -0.6353 -1.9473  0.7779
 3479TIP3    H210402   6.556   1.459   5.868  0.5078  0.4645 -1.9035
 3480TIP3   OH210403   6.317   5.209   3.013 -0.1978  0.0071  0.0926
 3480TIP3    H110404   6.336   5.264   2.937 -0.2566 -2.0529 -1.5001
 3480TIP3    H210405   6.403   5.187   3.049 -0.2058  2.0644  1.5068
 3481TIP3   OH210406   3.999   2.756   4.574 -0.0451  0.0570  0.1037
 3481TIP3    H110407   4.024   2.749   4.482 -0.6117  2.1366 -0.2556
 3481TIP3    H210408   4.050   2.830   4.607 -1.2428  0.5461  0.9292
 3482TIP3   OH210409   5.306   5.506   4.984 -0.5836  0.6690 -0.2610
 3482TIP3    H110410   5.352   5.480   5.064 -0.5720 -0.3940 -0.6055
 3482TIP3    H210411   5.347   5.455   4.915 -1.2399  0.8703 -0.8103
 3483TIP3   OH210412   0.796   2.849   2.966 -0.1813 -0.6221 -0.2925
 3483TIP3    H110413   0.860   2.901   2.918 -0.2509 -2.1978 -2.2124
 3483TIP3    H210414   0.848   2.798   3.028  0.1368 -0.0673 -0.0971
 3484TIP3   OH210415   0.126   1.844   0.103 -0.0440  0.0416 -0.5921
 3484TIP3    H110416   0.114   1.935   0.128  1.9366  0.3897 -0.7350
 3484TIP3    H210417   0.117   1.795   0.184  1.5612  0.6760  0.0072
 3485TIP3   OH210418   1.137   4.862   5.181 -0.5977  0.1866 -0.5288
 3485TIP3    H110419   1.160   4.949   5.149  1.5148  0.1073  0.5638
 3485TIP3    H210420   1.180   4.802   5.120 -1.7009 -0.0915 -1.0432
 3486TIP3   OH210421   3.844   5.642   4.069 -0.1349  0.1694 -0.5977
 3486TIP3    H110422   3.845   5.570   4.006  1.2637  1.4143 -2.1056
 3486TIP3    H210423   3.903   5.708   4.031 -1.1438  2.0029  0.8400
 3487TIP3   OH210424   1.739   2.344   5.500 -0.2342  0.0924  0.1119
 3487TIP3    H110425   1.801   2.335   5.427  0.6245 -1.4913  0.9918
 3487TIP3    H210426   1.664   2.389   5.461  0.8444  0.7286 -1.3524
 3488TIP3   OH210427   4.781   1.227   5.679 -0.0311 -0.1260 -0.4788
 3488TIP3    H110428   4.807   1.247   5.769  0.1988 -1.7755 -0.1514
 3488TIP3    H210429   4.714   1.293   5.658 -1.5645 -0.9174  1.6165
 3489TIP3   OH210430   6.174   2.159   3.382  0.1798  0.2645  0.1331
 3489TIP3    H110431   6.242   2.227   3.386 -0.8968  1.3644  0.5976
 3489TIP3    H210432   6.148   2.157   3.290 -0.2165  0.9650  0.2161
 3490TIP3   OH210433   1.667   5.438   1.510  0.2448 -0.1569  0.0553
 3490TIP3    H110434   1.578   5.475   1.512  0.2069 -0.0108 -2.1440
 3490TIP3    H210435   1.717   5.493   1.569 -0.9400  0.2615  0.7104
 3491TIP3   OH210436   0.476   0.546   2.085  0.6882  1.0237  0.3650
 3491TIP3    H110437   0.527   0.616   2.043  0.8554  0.7119  0.0389
 3491TIP3    H210438   0.444   0.493   2.012  2.7793 -0.7959  0.6466
 3492TIP3   OH210439   5.099   4.107   3.113  0.8524  0.4980 -0.1735
 3492TIP3    H110440   5.158   4.179   3.132  0.9195  0.4385 -0.1565
 3492TIP3    H210441   5.062   4.128   3.027 -1.2633  1.9954  1.0091
 3493TIP3   OH210442   2.667   4.300   3.959  0.2941 -0.4269  0.0943
 3493TIP3    H110443   2.615   4.225   3.931  1.2584 -0.3658 -2.0891
 3493TIP3    H210444   2.758   4.270   3.952  0.7338  1.1150 -1.5559
 3494TIP3   OH210445   0.484   6.718   4.567  0.6516 -0.2497  0.1544
 3494TIP3    H110446   0.560   6.721   4.509  0.9421 -1.4130  0.4459
 3494TIP3    H210447   0.418   6.773   4.524  1.5679  0.5770 -0.2138
 3495TIP3   OH210448   4.554   4.820   5.379  0.0765 -0.0502 -0.0200
 3495TIP3    H110449   4.522   4.899   5.421 -1.8043 -0.3540 -0.7853
 3495TIP3    H210450   4.489   4.800   5.311  0.8285 -1.8853 -0.2743
 3496TIP3   OH210451   6.238   4.546   4.969 -1.3722 -0.3649 -0.3070
 3496TIP3    H110452   6.285   4.620   4.929 -3.1146  0.7970 -0.2835
 3496TIP3    H210453   6.293   4.470   4.949  0.7325  0.9629  0.1015
 3497TIP3   OH210454   6.566   3.455   3.718  0.6119  0.6751  0.6875
 3497TIP3    H110455   6.524   3.480   3.801  1.9676  0.7151  1.3967
 3497TIP3    H210456   6.655   3.489   3.726  1.5303 -1.4624  0.2845
 3498TIP3   OH210457   4.531   4.331   3.986  0.2206  0.2658  0.1831
 3498TIP3    H110458   4.469   4.269   3.949 -0.8035  2.4057 -1.9434
 3498TIP3    H210459   4.479   4.409   4.003  2.1031  1.8070 -0.7282
 3499TIP3   OH210460   0.449   3.606   2.437 -0.1754 -0.1037 -0.1076
 3499TIP3    H110461   0.400   3.591   2.517  0.3232 -0.5779  0.1178
 3499TIP3    H210462   0.389   3.654   2.380 -0.4833  0.3528  0.5939
 3500TIP3   OH210463   0.786   0.191   5.817 -0.1817 -0.2037  0.2136
 3500TIP3    H110464   0.727   0.116   5.817 -0.1052 -0.3101  2.0502
 3500TIP3    H210465   0.865   0.160   5.862  0.5451  0.4882 -0.5244
 3501TIP3   OH210466   7.132   5.037   4.354  0.0069  0.1497  0.1157
 3501TIP3    H110467   7.079   4.965   4.320 -0.1555  0.6429 -0.7122
 3501TIP3    H210468   7.109   5.042   4.447  0.6284 -1.3686  0.3768
 3502TIP3   OH210469   6.279   6.528   4.146 -0.7355 -0.3754 -0.3992
 3502TIP3    H110470   6.366   6.488   4.139 -0.0547  1.1017 -0.8216
 3502TIP3    H210471   6.220   6.466   4.102  0.3550 -0.6599 -1.5187
 3503TIP3   OH210472   5.684   2.118   4.378 -0.1621 -0.0630  0.0777
 3503TIP3    H110473   5.704   2.067   4.300  0.6456 -1.5704  1.1987
 3503TIP3    H210474   5.770   2.132   4.420 -0.7597 -1.7261  2.0755
 3504TIP3   OH210475   2.566   1.828   4.962  0.0335  0.5171  0.2227
 3504TIP3    H110476   2.580   1.887   4.888  1.0958 -0.1778 -0.1576
 3504TIP3    H210477   2.472   1.830   4.977 -0.3611 -0.1218 -1.8396
 3505TIP3   OH210478   5.844   6.758   0.531  0.4176  0.0395 -0.2472
 3505TIP3    H110479   5.890   6.677   0.550 -0.6050 -0.4849  0.0356
 3505TIP3    H210480   5.832   6.757   0.436  1.1594  0.2868 -0.3524
 3506TIP3   OH210481   1.632   1.025   4.930 -0.0797 -0.3430  0.0663
 3506TIP3    H110482   1.702   1.090   4.927 -1.0442  0.8561  1.5894
 3506TIP3    H210483   1.630   0.987   4.843  1.7571  0.3448 -0.3142
 3507TIP3   OH210484   5.378   0.516   4.830 -0.4378 -0.4250  0.1003
 3507TIP3    H110485   5.284   0.532   4.829 -0.4472  0.2282  2.7804
 3507TIP3    H210486   5.418   0.603   4.825 -0.0108 -0.6302 -0.1180
 3508TIP3   OH210487   3.252   3.695   5.769  0.5693  0.6211 -0.7068
 3508TIP3    H110488   3.185   3.633   5.739  1.0278 -0.8965  1.2148
 3508TIP3    H210489   3.210   3.743   5.841  1.6390 -0.7111  0.8682
 3509TIP3   OH210490   0.681   3.312   5.643 -0.1045  0.3695  0.1719
 3509TIP3    H110491   0.747   3.297   5.712 -1.2607  0.0734  1.2537
 3509TIP3    H210492   0.626   3.382   5.678 -1.5520 -0.7293  0.1937
 3510TIP3   OH210493   0.960   4.795   2.424  0.6886  0.0740  0.4321
 3510TIP3    H110494   0.909   4.872   2.450  0.8360  0.6439 -0.9309
 3510TIP3    H210495   1.049   4.813   2.453  0.8045  0.6046 -0.2389
 3511TIP3   OH210496   5.836   3.634   5.245  0.3090  0.0684  0.4980
 3511TIP3    H110497   5.896   3.601   5.311 -0.4901  0.3222  1.3891
 3511TIP3    H210498   5.864   3.724   5.230 -0.0731  0.3196  1.2177
 3512TIP3   OH210499   3.721   6.073   1.805 -0.2963  0.4580  0.2185
 3512TIP3    H110500   3.729   5.981   1.831  0.5984  0.8623  1.4345
 3512TIP3    H210501   3.632   6.097   1.832  0.1817  0.5165  1.8656
 3513TIP3   OH210502   0.069   4.931   1.986 -0.6312 -0.9860 -0.0880
 3513TIP3    H110503  -0.020   4.965   1.977 -0.3809 -0.4085 -0.4608
 3513TIP3    H210504   0.087   4.935   2.080 -1.1387 -1.4843  0.0382
 3514TIP3   OH210505   3.818   1.803   3.932 -0.0541  0.8344  0.0349
 3514TIP3    H110506   3.793   1.879   3.985 -0.1202  0.8208  0.0229
 3514TIP3    H210507   3.763   1.808   3.854 -0.6324  0.3316  0.3991
 3515TIP3   OH210508   1.811   3.861   2.742 -0.4387  0.4925  0.3134
 3515TIP3    H110509   1.842   3.874   2.832 -1.1571 -1.2644  0.8536
 3515TIP3    H210510   1.717   3.876   2.747 -0.8615 -1.8405  0.3939
 3516TIP3   OH210511   4.029   5.310   3.767  0.3875 -0.1751  0.4311
 3516TIP3    H110512   4.059   5.364   3.694  2.8700 -2.1566 -0.1656
 3516TIP3    H210513   3.995   5.231   3.725  0.0833 -0.5612  1.3891
 3517TIP3   OH210514   3.197   6.295   1.352  0.7184 -0.1910 -0.0575
 3517TIP3    H110515   3.208   6.371   1.410  1.0992  0.1894 -0.6063
 3517TIP3    H210516   3.103   6.293   1.332  0.7566  0.3739 -0.3339
 3518TIP3   OH210517   4.725   4.870   0.953  0.1276 -0.6132 -0.2306
 3518TIP3    H110518   4.673   4.929   1.009  0.5426 -0.0160 -0.4644
 3518TIP3    H210519   4.815   4.882   0.983  0.0050 -3.0296  1.4593
 3519TIP3   OH210520   0.826   4.009   0.540 -0.6689 -0.1940 -0.1428
 3519TIP3    H110521   0.792   3.996   0.629  0.9378 -0.7595  0.4414
 3519TIP3    H210522   0.791   3.936   0.490 -0.3938 -0.7211  0.4171
 3520TIP3   OH210523   6.067   3.652   1.059  0.0210 -0.3367 -0.0298
 3520TIP3    H110524   5.972   3.651   1.051 -0.0938 -1.6341  1.2271
 3520TIP3    H210525   6.086   3.729   1.112 -0.3375 -0.1830 -0.1215
 3521TIP3   OH210526   4.154   6.029   5.716 -0.2231 -0.5790  0.0767
 3521TIP3    H110527   4.099   6.022   5.639  0.7754  2.1190 -1.0080
 3521TIP3    H210528   4.098   6.067   5.784  0.0858  1.8481 -0.9240
 3522TIP3   OH210529   2.112   5.847   5.159  0.2211  0.2047 -0.1701
 3522TIP3    H110530   2.037   5.854   5.100 -0.4063  2.1121  0.7725
 3522TIP3    H210531   2.076   5.810   5.239  0.4080  0.6133  0.1022
 3523TIP3   OH210532   4.513   1.618   0.931  0.0198  0.2524 -0.2320
 3523TIP3    H110533   4.546   1.530   0.913  0.5986  0.5560 -0.7138
 3523TIP3    H210534   4.523   1.629   1.025 -0.2286 -0.2686 -0.1476
 3524TIP3   OH210535   5.512   5.834   1.112  0.2322 -0.2811  0.2453
 3524TIP3    H110536   5.494   5.927   1.128  1.7779 -0.1094  1.3021
 3524TIP3    H210537   5.475   5.789   1.188  0.5105 -0.3782  0.3275
 3525TIP3   OH210538   3.402   3.566   4.619 -0.0635 -0.3237 -0.3773
 3525TIP3    H110539   3.457   3.638   4.588 -0.9588 -0.1277 -1.6201
 3525TIP3    H210540   3.420   3.560   4.713  0.1357  1.4222 -0.2718
 3526TIP3   OH210541   5.629   2.353   0.700 -0.0126  0.2014 -0.1084
 3526TIP3    H110542   5.587   2.396   0.625 -0.2889 -1.0416 -0.6810
 3526TIP3    H210543   5.573   2.278   0.719 -0.4757  1.0137  1.9687
 3527TIP3   OH210544   2.835   5.669   3.537 -0.2680  0.2464  0.8840
 3527TIP3    H110545   2.754   5.663   3.485 -1.0707 -1.7144  2.2442
 3527TIP3    H210546   2.904   5.678   3.471 -1.5655  2.5041 -0.3106
 3528TIP3   OH210547   2.241   4.428   4.908 -0.1873 -0.2877 -0.6372
 3528TIP3    H110548   2.230   4.372   4.831  3.3058 -0.3409 -1.2698
 3528TIP3    H210549   2.306   4.382   4.961 -1.0665  0.7239  1.4133
 3529TIP3   OH210550   2.771   3.683   2.093 -0.2665 -0.4677 -0.4111
 3529TIP3    H110551   2.725   3.746   2.149  0.9844  1.0844 -1.0591
 3529TIP3    H210552   2.806   3.618   2.155  1.2601  1.3214  0.7070
 3530TIP3   OH210553   5.011   6.580   5.869  0.0596  0.4554  0.3501
 3530TIP3    H110554   4.928   6.600   5.826 -0.1794  0.2870  0.7309
 3530TIP3    H210555   5.071   6.559   5.797  0.3349  2.4915 -0.1025
 3531TIP3   OH210556   2.732   5.785   5.058 -0.3958 -0.6630 -0.0623
 3531TIP3    H110557   2.661   5.765   4.997 -0.9282  0.4986  0.1474
 3531TIP3    H210558   2.697   5.855   5.113  0.6877 -0.5290  0.4838
 3532TIP3   OH210559   5.393   3.589   4.510  0.6352 -0.1638  0.2461
 3532TIP3    H110560   5.423   3.556   4.425 -2.0322  0.0116 -0.8930
 3532TIP3    H210561   5.468   3.580   4.568  2.3545 -0.9358 -1.9628
 3533TIP3   OH210562   0.469   0.154   0.133  0.8572 -0.5749  0.4981
 3533TIP3    H110563   0.450   0.155   0.227 -1.4911  1.8157  0.1383
 3533TIP3    H210564   0.421   0.078   0.100 -1.8825  0.9018  0.7751
 3534TIP3   OH210565   6.224   0.674   5.612 -0.3769  0.2582 -0.3116
 3534TIP3    H110566   6.278   0.701   5.685 -0.1535  1.0448 -0.7598
 3534TIP3    H210567   6.260   0.721   5.536 -0.3187 -0.8730 -1.0141
 3535TIP3   OH210568   2.629   4.522   3.448  0.0973  0.1850  0.2403
 3535TIP3    H110569   2.656   4.469   3.523  0.2035 -0.9325 -0.5486
 3535TIP3    H210570   2.691   4.595   3.446  0.7822 -0.3758  0.6001
 3536TIP3   OH210571   5.359   5.919   2.176 -0.0680 -0.2564 -0.6082
 3536TIP3    H110572   5.430   5.951   2.231  0.5294  0.6840 -1.8561
 3536TIP3    H210573   5.396   5.843   2.130  0.2762  0.4244 -1.4970
 3537TIP3   OH210574   6.263   5.107   2.490  0.8194  0.5374 -0.1413
 3537TIP3    H110575   6.183   5.055   2.496  1.0815  0.0791 -0.4967
 3537TIP3    H210576   6.237   5.185   2.441  0.2809  1.0491  0.9223
 3538TIP3   OH210577   5.437   1.479   4.949  0.1367  0.0364 -0.0494
 3538TIP3    H110578   5.418   1.526   5.030  0.7091  2.0084 -1.0022
 3538TIP3    H210579   5.484   1.400   4.978  0.0367  0.5257  1.5534
 3539TIP3   OH210580   6.065   1.658   3.988  0.0037  0.4711  0.6210
 3539TIP3    H110581   6.065   1.727   4.055  0.9163 -0.6239  1.8098
 3539TIP3    H210582   6.087   1.704   3.907 -2.3878  2.0491  0.7650
 3540TIP3   OH210583   4.410   3.228   3.070 -0.6002 -0.1149 -0.2545
 3540TIP3    H110584   4.332   3.279   3.093 -0.8227 -0.3822 -0.4081
 3540TIP3    H210585   4.473   3.294   3.041  0.0510  0.3363  2.0320
 3541TIP3   OH210586   1.779   5.333   0.306 -0.1374 -0.2957 -0.5943
 3541TIP3    H110587   1.872   5.332   0.286 -0.3456  0.4567 -1.6645
 3541TIP3    H210588   1.775   5.334   0.402  0.9122 -2.9688 -0.4101
 3542TIP3   OH210589   5.830   1.811   2.003 -0.2219  0.0333  0.5148
 3542TIP3    H110590   5.925   1.801   2.001 -0.3452 -1.1482 -0.5521
 3542TIP3    H210591   5.814   1.897   1.964  0.3723 -0.1002 -0.0331
 3543TIP3   OH210592   2.096   3.750   3.856  0.6657  0.2854  0.5115
 3543TIP3    H110593   2.054   3.743   3.941  0.5743 -0.0250  0.4406
 3543TIP3    H210594   2.086   3.664   3.816  0.3745  0.5262  0.0366
 3544TIP3   OH210595   0.575   3.338   3.551 -0.4726  0.5657  0.4691
 3544TIP3    H110596   0.641   3.273   3.526  0.9760  1.9362  0.5317
 3544TIP3    H210597   0.558   3.387   3.471 -2.7464 -0.8259  0.0291
 3545TIP3   OH210598   2.507   5.676   4.530 -0.2767  0.4007 -0.7887
 3545TIP3    H110599   2.435   5.672   4.593  1.2202  2.4092  1.1718
 3545TIP3    H210600   2.463   5.679   4.445 -2.5982  2.4915  0.3694
 3546TIP3   OH210601   1.777   5.451   0.918  0.5231 -0.6855 -0.0749
 3546TIP3    H110602   1.709   5.391   0.887  0.3644 -1.3840  1.5333
 3546TIP3    H210603   1.797   5.421   1.007  2.7279 -0.2888 -0.3946
 3547TIP3   OH210604   0.894   6.547   2.758 -0.3153  0.1001  0.0433
 3547TIP3    H110605   0.916   6.492   2.683  0.2835  1.6186 -0.9501
 3547TIP3    H210606   0.844   6.490   2.816  0.4294 -1.5235 -0.8363
 3548TIP3   OH210607   5.156   4.469   1.882  0.2428 -0.5326  0.4339
 3548TIP3    H110608   5.184   4.545   1.932 -0.4581  2.6516 -3.4579
 3548TIP3    H210609   5.231   4.447   1.827 -0.2542 -1.2993  0.0469
 3549TIP3   OH210610   3.733   3.815   3.075  0.1822  0.2075  0.5595
 3549TIP3    H110611   3.754   3.750   3.007  1.0312  0.8262  0.2024
 3549TIP3    H210612   3.639   3.805   3.089 -0.1151  0.3793 -1.0647
 3550TIP3   OH210613   4.016   5.086   2.911  0.1490  0.4303  0.3210
 3550TIP3    H110614   4.058   5.071   2.996  1.7176  1.8653 -0.1502
 3550TIP3    H210615   3.995   5.180   2.911 -0.3740  0.3229 -0.6528
 3551TIP3   OH210616   2.816   1.165   4.315  0.0309 -0.4926 -0.0168
 3551TIP3    H110617   2.834   1.258   4.306  2.0512 -0.7603  0.7207
 3551TIP3    H210618   2.882   1.122   4.259 -0.5731 -1.4835  0.0045
 3552TIP3   OH210619   6.727   5.950   2.769  0.2969 -0.3086 -0.1867
 3552TIP3    H110620   6.700   5.979   2.682 -0.6747  0.1328  0.2583
 3552TIP3    H210621   6.688   5.863   2.779 -1.0263  0.3402  0.4662
 3553TIP3   OH210622   0.259   6.273   5.831  0.4984 -0.0537  0.2969
 3553TIP3    H110623   0.304   6.357   5.833 -0.6752  0.6008  0.3755
 3553TIP3    H210624   0.329   6.208   5.823  1.4041  0.9393 -0.0818
 3554TIP3   OH210625   0.619   2.981   3.719  0.5981 -0.8022 -0.2421
 3554TIP3    H110626   0.599   2.903   3.770  0.2058  0.5465  1.7549
 3554TIP3    H210627   0.705   3.009   3.751 -0.1408  0.6857  0.5229
 3555TIP3   OH210628   0.262   4.908   1.765 -0.0484 -0.1019 -0.1502
 3555TIP3    H110629   0.208   4.949   1.833  1.2345 -1.3250  1.6780
 3555TIP3    H210630   0.283   4.822   1.799  2.7790  0.1822 -0.9339
 3556TIP3   OH210631   6.683   3.700   4.448  0.2820 -0.2652  0.0418
 3556TIP3    H110632   6.688   3.623   4.391  0.4186 -0.3309  0.1406
 3556TIP3    H210633   6.595   3.735   4.434 -0.7756 -1.9391  1.9510
 3557TIP3   OH210634   3.122   6.059   1.532  0.1875  0.2949  0.4438
 3557TIP3    H110635   3.027   6.067   1.521  0.2854  0.9501  0.0440
 3557TIP3    H210636   3.158   6.137   1.491  1.0463 -0.9309 -1.2553
 3558TIP3   OH210637   4.169   6.293   5.116  0.1122 -0.3306  0.0045
 3558TIP3    H110638   4.164   6.197   5.109 -0.2576 -0.3801  0.9001
 3558TIP3    H210639   4.208   6.309   5.201  0.4887  0.3226 -0.2826
 3559TIP3   OH210640   4.557   6.301   5.259 -0.0474 -0.1913  0.0678
 3559TIP3    H110641   4.652   6.306   5.266 -0.0470 -1.9482  2.1737
 3559TIP3    H210642   4.541   6.278   5.167  1.4438  1.4559 -0.6522
 3560TIP3   OH210643   3.771   1.105   1.684  0.1671 -0.2594 -0.1617
 3560TIP3    H110644   3.748   1.113   1.777  0.5289  0.8130 -0.1446
 3560TIP3    H210645   3.758   1.193   1.649  0.1758 -0.6198 -1.1029
 3561TIP3   OH210646   2.215   4.279   2.499  0.1984  0.4239  0.6889
 3561TIP3    H110647   2.273   4.240   2.564 -0.5671 -0.1376  1.0573
 3561TIP3    H210648   2.267   4.282   2.418  0.6465 -0.3298  0.9392
 3562TIP3   OH210649   6.711   5.802   0.832  1.1327 -0.6661  0.1554
 3562TIP3    H110650   6.626   5.783   0.792 -0.2089  0.6774  2.1662
 3562TIP3    H210651   6.771   5.812   0.759 -0.5850 -0.9844 -1.3585
 3563TIP3   OH210652   2.705   3.211   1.248 -0.1109  0.0740  0.0745
 3563TIP3    H110653   2.652   3.223   1.326 -0.2052  0.3204 -0.0247
 3563TIP3    H210654   2.720   3.117   1.242 -0.1197  0.0549  0.3773
 3564TIP3   OH210655   2.936   1.590   1.489 -0.4112  0.5565  0.4488
 3564TIP3    H110656   2.937   1.647   1.413 -0.9573 -0.0461 -0.0277
 3564TIP3    H210657   2.994   1.632   1.552 -0.2625  1.2663 -0.1509
 3565TIP3   OH210658   3.568   6.707   2.273  0.0198  0.0378 -0.1956
 3565TIP3    H110659   3.514   6.784   2.293 -1.1235 -0.3020 -1.7400
 3565TIP3    H210660   3.555   6.693   2.180  2.3749 -0.4391 -0.5104
 3566TIP3   OH210661   5.026   4.537   0.648  0.5284  0.3563 -0.8618
 3566TIP3    H110662   5.087   4.590   0.700  0.3410  0.2927 -0.5719
 3566TIP3    H210663   5.010   4.460   0.703 -2.9579  2.1541  0.9771
 3567TIP3   OH210664   0.345   6.056   0.659 -0.0293 -0.1454  0.5146
 3567TIP3    H110665   0.262   6.054   0.707 -0.4969 -1.9670 -0.3218
 3567TIP3    H210666   0.396   5.984   0.695  1.4811  1.2940  1.4197
 3568TIP3   OH210667   1.270   5.868   0.828 -0.4752  0.0623  0.4773
 3568TIP3    H110668   1.343   5.809   0.849 -1.2145 -0.8856  0.4707
 3568TIP3    H210669   1.294   5.951   0.869  0.1012 -0.5463  1.4288
 3569TIP3   OH210670   5.912   1.842   2.270 -0.4740 -0.0335  0.2058
 3569TIP3    H110671   5.857   1.782   2.219 -1.1707  1.1636 -0.4971
 3569TIP3    H210672   5.937   1.910   2.207  0.6887  0.1795  0.8677
 3570TIP3   OH210673   0.776   2.048   0.275  0.5338  0.4647  0.4484
 3570TIP3    H110674   0.796   2.137   0.302  1.2177  0.8793 -1.2475
 3570TIP3    H210675   0.737   2.058   0.188  1.1668 -0.9099 -0.0205
 3571TIP3   OH210676   0.649   1.362   4.304 -0.4067 -0.2229  0.0560
 3571TIP3    H110677   0.563   1.371   4.263 -0.7858  1.3962  1.1018
 3571TIP3    H210678   0.630   1.349   4.397  0.4679 -2.2316  0.0165
 3572TIP3   OH210679   4.622   2.777   0.713 -0.0333  0.1597  0.3954
 3572TIP3    H110680   4.704   2.743   0.676 -0.2987  0.6965 -0.7520
 3572TIP3    H210681   4.565   2.700   0.719 -0.3207  0.1809 -1.3218
 3573TIP3   OH210682   5.919   5.745   2.222  0.2418 -0.1507  0.2962
 3573TIP3    H110683   5.885   5.723   2.135 -0.8041  1.2299  0.3085
 3573TIP3    H210684   6.013   5.757   2.209  0.1386 -0.2409 -0.5897
 3574TIP3   OH210685   6.993   2.572   1.411 -0.0994  0.2348  0.1253
 3574TIP3    H110686   6.960   2.648   1.363  0.2843  0.7875  0.7153
 3574TIP3    H210687   7.036   2.609   1.489  0.4097 -0.5636  0.2423
 3575TIP3   OH210688   2.020   3.762   1.398  0.5738  0.2255  0.6702
 3575TIP3    H110689   1.951   3.772   1.464  0.1835 -0.5985  0.3982
 3575TIP3    H210690   2.033   3.851   1.364  0.9831  0.7164  2.0460
 3576TIP3   OH210691   1.990   4.885   1.027  0.4897 -0.1091 -0.2339
 3576TIP3    H110692   1.906   4.929   1.021 -0.9558 -2.3213  2.0460
 3576TIP3    H210693   2.026   4.913   1.111  0.7839 -1.1808  0.0074
 3577TIP3   OH210694   6.540   5.156   1.805  0.0230  0.1466  0.5566
 3577TIP3    H110695   6.513   5.233   1.755  0.7139  0.7537  1.0967
 3577TIP3    H210696   6.470   5.144   1.869  1.1768  2.0440  2.3094
 3578TIP3   OH210697   2.118   6.084   0.709  0.0755 -0.8462 -0.0051
 3578TIP3    H110698   2.195   6.027   0.712 -0.1459 -1.1747 -0.4608
 3578TIP3    H210699   2.047   6.026   0.681 -0.6167 -0.8402  1.6537
 3579TIP3   OH210700   4.135   1.924   0.772 -0.6022  0.0234  0.4974
 3579TIP3    H110701   4.040   1.912   0.784 -0.6826  0.8714  0.7819
 3579TIP3    H210702   4.170   1.835   0.771 -1.4538 -0.3265 -0.0812
 3580TIP3   OH210703   0.649   1.836   2.897  0.0234 -0.2068  1.0959
 3580TIP3    H110704   0.574   1.895   2.891 -0.7874 -1.0453  2.4056
 3580TIP3    H210705   0.679   1.826   2.807 -1.4089  0.1857  0.5509
 3581TIP3   OH210706   2.740   1.857   4.162  0.0630  0.5868  0.0231
 3581TIP3    H110707   2.734   1.762   4.164  1.3295  0.4750 -0.5196
 3581TIP3    H210708   2.767   1.882   4.250 -1.9633  0.6207  0.6904
 3582TIP3   OH210709   4.919   4.465   0.378  0.1991  0.2922  0.1264
 3582TIP3    H110710   4.940   4.502   0.464  0.8412 -0.8436  0.4888
 3582TIP3    H210711   4.998   4.480   0.326 -0.2783  1.1946 -0.3527
 3583TIP3   OH210712   6.875   0.352   1.457  0.5410 -0.0629 -0.1531
 3583TIP3    H110713   6.829   0.269   1.469  1.3662 -0.5015  0.0496
 3583TIP3    H210714   6.805   0.416   1.441 -0.3252 -0.2904  2.2679
 3584TIP3   OH210715   2.716   3.615   1.677 -0.4682  0.5592  0.8820
 3584TIP3    H110716   2.699   3.546   1.613 -0.3952  1.0953  0.2760
 3584TIP3    H210717   2.634   3.663   1.684 -0.1226  1.2647  0.2507
 3585TIP3   OH210718   0.257   6.164   4.398  0.3159 -0.1970 -0.6015
 3585TIP3    H110719   0.209   6.206   4.469 -0.1170 -0.3919 -0.7693
 3585TIP3    H210720   0.202   6.089   4.374  0.9092 -0.6655 -0.5221
 3586TIP3   OH210721   5.926   5.099   0.907 -0.1241  0.0761 -0.4063
 3586TIP3    H110722   5.858   5.160   0.878 -0.5213 -0.3018 -0.2725
 3586TIP3    H210723   5.970   5.072   0.827  0.7678  1.3662 -0.3789
 3587TIP3   OH210724   1.721   4.720   3.101  0.7306  0.0354  0.1780
 3587TIP3    H110725   1.809   4.753   3.085  1.1832 -1.5998 -0.9669
 3587TIP3    H210726   1.719   4.634   3.059 -1.4913  0.1213 -0.0316
 3588TIP3   OH210727   4.285   6.014   5.087  0.3731 -0.3214  0.3884
 3588TIP3    H110728   4.347   6.047   5.152  0.2034  1.9447 -0.5107
 3588TIP3    H210729   4.212   5.979   5.138  0.3258  1.2336  1.4210
 3589TIP3   OH210730   1.101   2.469   5.511  0.0374 -0.1358  0.1748
 3589TIP3    H110731   1.101   2.536   5.443 -0.7346  1.7017  1.8821
 3589TIP3    H210732   1.009   2.452   5.528  0.1024  1.3635  2.4644
 3590TIP3   OH210733   3.906   4.135   0.003  0.2438  0.6747 -0.1427
 3590TIP3    H110734   3.933   4.044   0.011  0.6238  0.8453  0.5994
 3590TIP3    H210735   3.981   4.186   0.033  0.7511  1.3195 -2.2754
 3591TIP3   OH210736   3.222   3.110   5.275  0.4065  0.1120 -0.5660
 3591TIP3    H110737   3.261   3.037   5.323  2.5107  0.7284 -1.2266
 3591TIP3    H210738   3.161   3.069   5.214  1.3397 -1.0971 -0.7270
 3592TIP3   OH210739   4.940   5.828   4.179 -0.1484  0.1188  0.3848
 3592TIP3    H110740   4.970   5.869   4.260  0.1066 -0.8556  0.7883
 3592TIP3    H210741   4.875   5.763   4.206  0.9820 -1.2334 -0.0218
 3593TIP3   OH210742   1.391   6.324   4.435  0.3435 -0.3022  0.6721
 3593TIP3    H110743   1.479   6.288   4.423  0.5410 -0.2020  1.7873
 3593TIP3    H210744   1.360   6.340   4.345  0.7216 -2.0898  0.1871
 3594TIP3   OH210745   4.146   2.928   3.308  0.2931  0.0547 -0.4040
 3594TIP3    H110746   4.088   2.855   3.331  0.4360  0.7474  2.5990
 3594TIP3    H210747   4.087   2.994   3.270 -0.2630 -0.6164 -0.7398
 3595TIP3   OH210748   2.317   5.141   2.677 -0.6028 -0.1992  0.3842
 3595TIP3    H110749   2.275   5.158   2.761 -0.3663  3.1327 -0.0283
 3595TIP3    H210750   2.317   5.226   2.633  0.8597 -1.4545 -2.2719
 3596TIP3   OH210751   7.190   0.519   2.548  0.1862 -0.1827 -0.2924
 3596TIP3    H110752   7.193   0.450   2.481 -0.0348 -1.2448  0.7506
 3596TIP3    H210753   7.145   0.478   2.622 -0.8548  1.4113  0.0111
 3597TIP3   OH210754   6.281   3.882   0.073  0.5276  0.3049  0.1964
 3597TIP3    H110755   6.303   3.854  -0.016  2.4412  0.2596  0.6535
 3597TIP3    H210756   6.227   3.811   0.108  0.7222 -0.2108 -0.5374
 3598TIP3   OH210757   6.244   1.146   0.425 -0.9891 -0.3045 -0.3369
 3598TIP3    H110758   6.228   1.207   0.353 -1.4236 -0.4052 -0.3248
 3598TIP3    H210759   6.277   1.067   0.383 -2.0134 -0.6586 -0.5096
 3599TIP3   OH210760   1.816   1.151   2.522 -0.4249 -0.2339 -0.1292
 3599TIP3    H110761   1.864   1.076   2.558  1.8688  1.2778  0.2037
 3599TIP3    H210762   1.724   1.124   2.525  0.1630 -2.3872  1.5090
 3600TIP3   OH210763   2.673   3.719   4.975 -0.2728 -0.2734 -0.5867
 3600TIP3    H110764   2.706   3.708   4.886  0.4036  1.6902 -0.6138
 3600TIP3    H210765   2.589   3.763   4.965 -0.7517 -1.0899 -0.2839
 3601TIP3   OH210766   4.909   2.819   0.445 -0.6562  0.3426 -0.1295
 3601TIP3    H110767   4.892   2.913   0.444  3.1941  1.1911 -2.1139
 3601TIP3    H210768   4.969   2.806   0.518 -0.6950 -0.4866 -0.2338
 3602TIP3   OH210769   2.089   0.667   3.767  0.2829  0.4880 -0.4164
 3602TIP3    H110770   2.050   0.660   3.680 -1.0563 -0.3683  0.2182
 3602TIP3    H210771   2.058   0.589   3.813  1.1038  0.8461  0.7840
 3603TIP3   OH210772   0.698   4.530   4.304  0.1254  0.3559  0.0353
 3603TIP3    H110773   0.790   4.539   4.326 -0.0255  0.0264  0.8176
 3603TIP3    H210774   0.677   4.439   4.325 -0.9680  1.0388  2.1864
 3604TIP3   OH210775   2.674   5.642   4.804 -0.1102  0.4313  0.2846
 3604TIP3    H110776   2.695   5.562   4.756  1.2445  0.2183  1.1551
 3604TIP3    H210777   2.613   5.689   4.748  0.7836 -0.1824 -1.2652
 3605TIP3   OH210778   5.283   6.298   1.634 -0.2371 -0.5784 -0.0585
 3605TIP3    H110779   5.325   6.340   1.710  1.3159  0.3430 -1.3745
 3605TIP3    H210780   5.189   6.307   1.652  0.0827 -0.3047  1.7006
 3606TIP3   OH210781   4.482   2.185   0.093  0.4244 -0.0873  0.1843
 3606TIP3    H110782   4.394   2.149   0.096  1.0233 -1.6175  0.3146
 3606TIP3    H210783   4.477   2.265   0.146 -1.0168  0.2066 -0.3473
 3607TIP3   OH210784   2.427   4.882   4.388 -0.1197 -0.2161 -0.2242
 3607TIP3    H110785   2.332   4.894   4.383  0.2008  3.3550 -1.3234
 3607TIP3    H210786   2.452   4.919   4.472  0.3287 -0.6645 -0.1584
 3608TIP3   OH210787   2.787   3.352   1.009  0.1303  0.6712  0.1238
 3608TIP3    H110788   2.771   3.283   0.945  1.8126  0.3899 -0.0301
 3608TIP3    H210789   2.742   3.323   1.088  0.9331 -0.6868  0.1024
 3609TIP3   OH210790   4.917   3.237   5.104 -0.1745  0.0403 -0.2921
 3609TIP3    H110791   4.961   3.292   5.169  1.6285 -2.3953  0.7158
 3609TIP3    H210792   4.848   3.193   5.153 -0.1568 -0.2394 -0.5144
 3610TIP3   OH210793   2.339   5.988   3.713 -0.1401  0.8122 -0.5535
 3610TIP3    H110794   2.376   6.002   3.800  0.9970  0.6406 -0.9893
 3610TIP3    H210795   2.379   5.906   3.683 -1.4743  0.1959 -0.7580
 3611TIP3   OH210796   0.602   0.908   4.837 -0.3871 -0.2741 -0.0919
 3611TIP3    H110797   0.639   0.840   4.781 -0.1922 -1.8775  1.8864
 3611TIP3    H210798   0.510   0.884   4.846 -0.6330  0.5048 -0.4477
 3612TIP3   OH210799   2.131   0.089   3.912  0.4567  0.2771 -0.0794
 3612TIP3    H110800   2.050   0.074   3.960  0.8897 -1.8884  0.0657
 3612TIP3    H210801   2.115   0.169   3.863 -1.2409  0.6800  1.0379
 3613TIP3   OH210802   1.354   3.768   2.527 -0.1362 -0.1738 -0.5440
 3613TIP3    H110803   1.286   3.831   2.548  0.1708 -0.4652  1.5165
 3613TIP3    H210804   1.430   3.821   2.502  0.4604  0.4266  2.1970
 3614TIP3   OH210805   1.763   4.442   3.030  0.6587  0.6259 -0.7083
 3614TIP3    H110806   1.742   4.369   3.088  0.1307  0.1618 -1.4635
 3614TIP3    H210807   1.855   4.461   3.048  1.1717 -1.0412 -1.3514
 3615TIP3   OH210808   1.927   1.085   3.959 -0.4272 -0.1804 -0.4151
 3615TIP3    H110809   2.008   1.057   4.001 -1.1612  0.2172  1.3655
 3615TIP3    H210810   1.925   1.039   3.876  1.5042 -0.3779 -0.3865
 3616TIP3   OH210811   1.213   2.121   3.122 -0.1259  0.7983  0.0820
 3616TIP3    H110812   1.195   2.060   3.194 -0.3453 -1.5789 -1.8503
 3616TIP3    H210813   1.131   2.170   3.112 -0.0539  1.2466  1.4817
 3617TIP3   OH210814   2.447   4.060   5.727 -0.4549 -0.4364 -0.1141
 3617TIP3    H110815   2.435   4.142   5.680  0.9741  0.4925  1.0590
 3617TIP3    H210816   2.388   4.066   5.802  2.4139  1.4092  2.2229
 3618TIP3   OH210817   0.929   4.479   0.495 -0.1799 -0.0092 -0.5199
 3618TIP3    H110818   0.983   4.537   0.441  2.3950 -0.5048  1.2821
 3618TIP3    H210819   0.918   4.400   0.443  0.7172  0.1904 -1.0290
 3619TIP3   OH210820   6.597   4.195   3.237 -0.2427 -0.0565 -0.1513
 3619TIP3    H110821   6.588   4.229   3.148 -0.4063  0.4337  0.0491
 3619TIP3    H210822   6.514   4.152   3.255 -0.3885  0.2641 -0.0596
 3620TIP3   OH210823   6.492   1.380   3.966  0.3022 -0.1597  0.2823
 3620TIP3    H110824   6.525   1.386   4.055  0.1082  2.0882  0.2746
 3620TIP3    H210825   6.397   1.393   3.974  0.3645  0.7865 -0.2589
 3621TIP3   OH210826   5.919   5.164   5.811 -0.3993 -0.3118  0.4739
 3621TIP3    H110827   5.850   5.229   5.823  0.2911  0.5443 -0.0431
 3621TIP3    H210828   5.991   5.196   5.866 -1.0726 -2.2690  2.6621
 3622TIP3   OH210829   7.025   0.923   4.733 -0.3727 -0.5704  0.6751
 3622TIP3    H110830   7.103   0.958   4.776 -0.8740 -0.0438  1.1740
 3622TIP3    H210831   7.059   0.863   4.666  0.4815  0.3975  0.2266
 3623TIP3   OH210832   5.558   5.842   0.011 -0.7775  0.4285  0.5638
 3623TIP3    H110833   5.619   5.913   0.031  0.4827 -1.0367  2.2282
 3623TIP3    H210834   5.520   5.819   0.096  0.1910 -2.0298  0.4156
 3624TIP3   OH210835   2.773   4.906   0.354  0.2071 -0.7832 -0.7822
 3624TIP3    H110836   2.854   4.950   0.326 -0.4038 -1.4573 -4.0699
 3624TIP3    H210837   2.795   4.813   0.355 -0.5933 -1.0241 -2.2716
 3625TIP3   OH210838   5.237   3.225   2.469  0.3681 -0.3515  0.3757
 3625TIP3    H110839   5.188   3.265   2.541  0.6262 -1.0180  0.9274
 3625TIP3    H210840   5.227   3.287   2.397  0.6715  0.6628  1.1778
 3626TIP3   OH210841   2.295   1.091   4.684 -0.1757 -0.6320 -0.1325
 3626TIP3    H110842   2.270   1.139   4.606  1.2687  1.4489  0.6264
 3626TIP3    H210843   2.232   1.120   4.751 -0.7626 -1.6236 -0.2316
 3627TIP3   OH210844   1.907   2.258   5.305  0.2409  0.2252  0.1800
 3627TIP3    H110845   1.849   2.191   5.268 -1.0708  0.8523  1.0029
 3627TIP3    H210846   1.978   2.208   5.345 -0.1957 -0.6354 -0.0763
 3628TIP3   OH210847   4.439   4.749   4.646 -0.2741 -0.1499  0.3215
 3628TIP3    H110848   4.390   4.824   4.682 -0.0585 -0.3849  1.1336
 3628TIP3    H210849   4.519   4.787   4.610  0.6388 -0.1475  2.2459
 3629TIP3   OH210850   4.963   1.880   0.547 -0.4691 -0.1420  0.4347
 3629TIP3    H110851   4.944   1.947   0.614 -1.5623  1.8588 -1.7113
 3629TIP3    H210852   5.025   1.923   0.488 -0.1935 -1.5389 -0.3206
 3630TIP3   OH210853   0.149   0.278   1.272 -0.2523  0.3347  0.2151
 3630TIP3    H110854   0.147   0.367   1.237  0.7721  0.4558  0.4099
 3630TIP3    H210855   0.206   0.284   1.349 -0.0846 -0.5003  0.1698
 3631TIP3   OH210856   4.325   4.481   4.339 -0.1557  0.4758  0.1297
 3631TIP3    H110857   4.321   4.432   4.421  0.1999 -1.2438 -0.8354
 3631TIP3    H210858   4.281   4.425   4.276  0.6288  1.2171 -1.1112
 3632TIP3   OH210859   4.882   0.459   2.626  0.1141  0.2233  0.2702
 3632TIP3    H110860   4.809   0.512   2.593  0.6771  0.3002 -0.9028
 3632TIP3    H210861   4.931   0.519   2.682 -0.1445  0.4733  0.2332
 3633TIP3   OH210862   5.289   2.215   2.194 -0.1814  0.0066 -0.2082
 3633TIP3    H110863   5.253   2.303   2.199  2.8119  1.3234  0.9048
 3633TIP3    H210864   5.328   2.200   2.281  0.8213 -1.7179 -0.8913
 3634TIP3   OH210865   4.029   2.539   5.221  0.0664  0.3438  0.7178
 3634TIP3    H110866   4.002   2.625   5.252 -0.8487 -0.0410  1.0096
 3634TIP3    H210867   4.007   2.479   5.292 -0.4129 -0.2922  0.0574
 3635TIP3   OH210868   7.011   3.517   4.072  0.2826 -0.4648 -0.4190
 3635TIP3    H110869   7.029   3.492   4.163 -0.1288  0.5982 -0.0218
 3635TIP3    H210870   7.082   3.478   4.021  0.8244 -0.6160  0.4363
 3636TIP3   OH210871   6.120   0.111   5.546  0.1355  0.1935  0.1696
 3636TIP3    H110872   6.206   0.131   5.585 -0.2972 -0.2774  1.4089
 3636TIP3    H210873   6.078   0.053   5.609 -1.0788  0.3544 -0.4632
 3637TIP3   OH210874   5.924   1.853   5.623  0.1401  0.7725  0.6531
 3637TIP3    H110875   5.926   1.769   5.577  0.1160  0.0371  1.9510
 3637TIP3    H210876   5.847   1.897   5.588 -1.2000 -0.7277  1.5516
 3638TIP3   OH210877   6.214   1.393   0.262  0.3343  0.3757 -0.4486
 3638TIP3    H110878   6.170   1.453   0.202  2.0137  2.9374  0.7132
 3638TIP3    H210879   6.305   1.423   0.263  1.2807 -2.2591  0.1906
 3639TIP3   OH210880   1.087   3.315   3.165 -0.0533  0.1279 -0.3879
 3639TIP3    H110881   1.138   3.383   3.208  0.6740  0.0555 -1.1118
 3639TIP3    H210882   1.092   3.336   3.071 -2.1459  0.6584 -0.4287
 3640TIP3   OH210883   4.346   3.454   2.537 -0.0731 -0.6115 -0.2626
 3640TIP3    H110884   4.364   3.370   2.578 -1.8234  0.6842  3.6438
 3640TIP3    H210885   4.432   3.491   2.518  0.7699 -2.2379  0.2353
 3641TIP3   OH210886   6.101   0.758   0.115  0.1485 -0.5899 -0.5901
 3641TIP3    H110887   6.119   0.726   0.204 -1.9146  1.2950  0.6193
 3641TIP3    H210888   6.187   0.778   0.079  1.1344 -2.5581  0.4818
 3642TIP3   OH210889   5.109   1.845   2.745  0.2524  0.0149  0.3988
 3642TIP3    H110890   5.147   1.820   2.661 -1.5089 -0.4706 -0.2992
 3642TIP3    H210891   5.103   1.763   2.794 -1.7432 -0.3132 -0.3100
 3643TIP3   OH210892   6.722   0.603   2.301 -0.1137  0.2090 -0.5056
 3643TIP3    H110893   6.796   0.556   2.263  0.7730  1.2166 -0.1087
 3643TIP3    H210894   6.698   0.668   2.234 -1.4147 -0.8444 -1.1080
 3644TIP3   OH210895   5.144   5.719   2.389  0.2425  0.3533 -0.1198
 3644TIP3    H110896   5.240   5.719   2.389  0.2719 -0.5258  1.1441
 3644TIP3    H210897   5.120   5.695   2.299  1.2117  0.3572 -0.3908
 3645TIP3   OH210898   4.438   5.151   3.297  0.0834  0.5826 -0.2669
 3645TIP3    H110899   4.388   5.093   3.354  0.6420 -0.2163 -0.5764
 3645TIP3    H210900   4.527   5.148   3.331  0.5478 -0.3356 -1.4845
 3646TIP3   OH210901   2.737   0.527  -0.023 -0.0482  0.2204  0.0914
 3646TIP3    H110902   2.807   0.499   0.036 -0.9775 -0.5548  0.8592
 3646TIP3    H210903   2.722   0.619  -0.001 -0.6372 -0.1591  1.3524
 3647TIP3   OH210904   4.375   0.628   4.052 -0.2374 -0.6114  0.2478
 3647TIP3    H110905   4.316   0.673   4.112  0.3630 -1.3238  1.4106
 3647TIP3    H210906   4.458   0.675   4.060 -0.8436  1.1469 -2.2631
 3648TIP3   OH210907   6.985   2.020   2.799  0.0851  0.3734 -0.0324
 3648TIP3    H110908   6.955   2.111   2.789 -0.4715  0.2668  0.6039
 3648TIP3    H210909   6.988   2.006   2.893 -0.0395 -0.3410 -0.1320
 3649TIP3   OH210910   5.897   2.124   5.709  0.5236  0.0944  0.2358
 3649TIP3    H110911   5.914   2.044   5.660 -0.3760  1.1002 -1.8395
 3649TIP3    H210912   5.980   2.172   5.706  0.6172 -0.0739  0.1406
 3650TIP3   OH210913   2.568   5.266   4.238  0.2604  0.2738  0.1704
 3650TIP3    H110914   2.491   5.211   4.222 -0.8749  1.8356  0.0558
 3650TIP3    H210915   2.632   5.237   4.173 -0.3413 -0.8305  0.0455
 3651TIP3   OH210916   6.136   4.547   3.270  0.1121  0.0590  0.3429
 3651TIP3    H110917   6.085   4.627   3.283 -1.3715 -1.1147  2.2033
 3651TIP3    H210918   6.135   4.503   3.355  4.8996  0.2568  0.8044
 3652TIP3   OH210919   1.287   2.564   2.499  0.2529 -0.0374 -0.0824
 3652TIP3    H110920   1.275   2.484   2.449 -0.8266  0.5540 -0.8050
 3652TIP3    H210921   1.358   2.610   2.454 -0.3153  0.2161 -0.7415
 3653TIP3   OH210922   5.411   6.568   5.748  0.0707 -0.2009 -0.2208
 3653TIP3    H110923   5.401   6.511   5.672  0.8636 -1.6435  0.7092
 3653TIP3    H210924   5.503   6.592   5.748  0.6795 -2.2079  1.5704
 3654TIP3   OH210925   3.133   6.754   1.618  0.1253 -0.1690 -0.2837
 3654TIP3    H110926   3.186   6.834   1.616  0.1392 -0.0542  1.9777
 3654TIP3    H210927   3.044   6.784   1.631 -0.4754 -0.4207 -3.0862
 3655TIP3   OH210928   7.207   5.857   4.720 -0.3539  0.2189 -0.1981
 3655TIP3    H110929   7.156   5.936   4.737 -0.1395  0.5096 -0.8721
 3655TIP3    H210930   7.226   5.860   4.626  1.8044  0.7032  0.1926
 3656TIP3   OH210931   2.800   2.224   2.986 -0.2035  0.1901  0.7824
 3656TIP3    H110932   2.792   2.291   2.918  2.4523 -0.3346 -0.1563
 3656TIP3    H210933   2.866   2.258   3.046 -0.4738 -0.6141  1.5663
 3657TIP3   OH210934   3.974   0.664   5.730 -0.0417  0.0620 -0.1924
 3657TIP3    H110935   3.884   0.656   5.759 -1.0950 -1.4919 -3.4068
 3657TIP3    H210936   4.017   0.583   5.757  0.1643  0.4179  0.5653
 3658TIP3   OH210937   5.327   0.669   0.864 -0.1743  0.3687  0.1052
 3658TIP3    H110938   5.334   0.648   0.957 -1.5916  1.6149  0.5527
 3658TIP3    H210939   5.233   0.685   0.851  0.4061  4.0535 -0.5812
 3659TIP3   OH210940   2.019   0.517   2.248 -0.5952  0.0736 -0.0081
 3659TIP3    H110941   1.945   0.548   2.300  0.3779  0.5542  1.1191
 3659TIP3    H210942   2.089   0.501   2.311  0.3414 -0.1779 -1.0676
 3660TIP3   OH210943   2.835   1.221   2.457  0.1092 -0.4562 -0.1028
 3660TIP3    H110944   2.865   1.246   2.370  1.8769  0.1415  0.6388
 3660TIP3    H210945   2.860   1.293   2.513 -0.5524 -1.0599  1.0083
 3661TIP3   OH210946   1.844   4.691   3.659  0.2038  0.1315  0.1436
 3661TIP3    H110947   1.915   4.726   3.713  0.1700  0.2907  0.0877
 3661TIP3    H210948   1.789   4.768   3.639  1.0882  0.3997 -1.4555
 3662TIP3   OH210949   1.718   2.401   1.262  0.3767  0.1393 -0.4220
 3662TIP3    H110950   1.770   2.413   1.342 -1.4779 -0.1246  0.8755
 3662TIP3    H210951   1.628   2.414   1.289 -0.3501 -0.3238 -2.4259
 3663TIP3   OH210952   6.138   3.010   4.224 -0.1384 -0.0987 -0.7652
 3663TIP3    H110953   6.057   3.057   4.243 -0.5196 -1.4597  1.2673
 3663TIP3    H210954   6.206   3.063   4.265 -0.4637 -0.8203  0.7521
 3664TIP3   OH210955   6.389   0.448   1.505  0.1126 -0.5107 -0.8336
 3664TIP3    H110956   6.299   0.414   1.509 -0.1794  0.1779 -1.3192
 3664TIP3    H210957   6.385   0.518   1.439  0.7666  0.2240 -0.1229
 3665TIP3   OH210958   6.736   5.507   2.857  0.4560  0.1124 -0.5693
 3665TIP3    H110959   6.809   5.549   2.902 -0.3028 -0.1831  1.0493
 3665TIP3    H210960   6.684   5.579   2.822 -0.4215  0.5809  1.5087
 3666TIP3   OH210961   6.697   1.778   2.153  0.1170  0.6385 -0.2721
 3666TIP3    H110962   6.673   1.810   2.241  2.0547 -0.8038  0.8688
 3666TIP3    H210963   6.667   1.687   2.152  0.1899  0.6209 -1.0871
 3667TIP3   OH210964   5.735   1.189   3.634 -0.0742  0.1156 -0.4844
 3667TIP3    H110965   5.713   1.274   3.597 -0.4483  0.3606  0.2729
 3667TIP3    H210966   5.661   1.132   3.612 -0.4388  0.3425  0.1420
 3668TIP3   OH210967   1.767   4.105   4.100  0.5972 -0.0609  0.6813
 3668TIP3    H110968   1.765   4.187   4.150  0.3106  0.0202  0.5439
 3668TIP3    H210969   1.845   4.113   4.045  0.5401  0.1446  0.6286
 3669TIP3   OH210970   5.697   3.453   1.595  0.5248  0.0801 -0.1507
 3669TIP3    H110971   5.788   3.427   1.579  0.3454  0.7070 -2.5809
 3669TIP3    H210972   5.646   3.376   1.569  0.2648  0.7659 -1.7817
 3670TIP3   OH210973   0.832   3.709   4.872 -0.0700 -0.2178 -0.2793
 3670TIP3    H110974   0.882   3.722   4.792  0.5540  3.1747  0.4864
 3670TIP3    H210975   0.898   3.685   4.938 -0.0636  0.1088 -0.1606
 3671TIP3   OH210976   6.259   1.515   4.154 -0.1621 -0.4716 -0.0257
 3671TIP3    H110977   6.232   1.489   4.066  0.3217 -0.6878 -0.1108
 3671TIP3    H210978   6.186   1.486   4.210 -0.6531  0.0291 -0.3962
 3672TIP3   OH210979   1.390   4.244   0.500  0.1404  0.2312 -0.3389
 3672TIP3    H110980   1.451   4.272   0.568 -0.5251 -0.1100  0.4181
 3672TIP3    H210981   1.445   4.226   0.424  1.4175 -3.0529  1.1733
 3673TIP3   OH210982   0.225   1.629   1.582 -0.0011  0.1697 -0.7539
 3673TIP3    H110983   0.188   1.552   1.626  0.3916 -0.7005 -1.8724
 3673TIP3    H210984   0.210   1.701   1.643 -2.0531 -0.4361 -0.4610
 3674TIP3   OH210985   0.139   4.482   2.987  0.5381 -0.0830  0.6085
 3674TIP3    H110986   0.103   4.530   2.912  0.0364 -0.3697  0.6656
 3674TIP3    H210987   0.072   4.418   3.010  1.0237 -0.5364  0.8017
 3675TIP3   OH210988   0.754   1.082   2.202 -0.7744  0.0247 -0.2828
 3675TIP3    H110989   0.798   1.026   2.266  0.4320  0.3994 -0.7561
 3675TIP3    H210990   0.729   1.160   2.251 -0.1710  0.1580 -0.1750
 3676TIP3   OH210991   0.582   2.774   4.477  0.2058  0.7161 -0.7490
 3676TIP3    H110992   0.513   2.797   4.538 -0.7222  0.6955 -1.7615
 3676TIP3    H210993   0.539   2.720   4.411  1.2233  0.5449 -1.2935
 3677TIP3   OH210994   0.091   2.223   2.514  0.1333 -0.4379  0.2697
 3677TIP3    H110995   0.184   2.200   2.513  0.4058  0.5220  1.3598
 3677TIP3    H210996   0.089   2.318   2.508 -0.7461 -0.3960  0.9826
 3678TIP3   OH210997   5.554   0.726   1.897 -0.1690  0.2106  0.0796
 3678TIP3    H110998   5.566   0.632   1.883 -0.6708  0.4780 -2.9294
 3678TIP3    H210999   5.459   0.738   1.893 -0.1164  0.8424  0.6041
 3679TIP3   OH211000   4.961   1.050   4.948  0.1888 -0.0788  0.3914
 3679TIP3    H111001   4.961   1.127   4.891 -0.4430  0.9899  1.7592
 3679TIP3    H211002   4.869   1.024   4.952  0.3690 -0.7781  0.1243
 3680TIP3   OH211003   2.402   6.326   4.535  0.1754  0.0026 -0.0696
 3680TIP3    H111004   2.390   6.257   4.470 -1.8238 -0.2452  0.4883
 3680TIP3    H211005   2.431   6.279   4.614  0.1132 -0.0331 -0.0677
 3681TIP3   OH211006   1.187   0.751   5.415 -0.0258 -0.1354 -0.1820
 3681TIP3    H111007   1.124   0.798   5.360 -1.8048  0.4186  2.1771
 3681TIP3    H211008   1.272   0.782   5.384 -0.9592  0.7148 -2.0916
 3682TIP3   OH211009   5.502   1.544   2.811  0.2965  0.0527 -0.4030
 3682TIP3    H111010   5.521   1.619   2.867 -0.9775  0.6509 -0.7277
 3682TIP3    H211011   5.481   1.473   2.871  2.6111 -0.4125 -0.0586
 3683TIP3   OH211012   4.660   5.071   0.521 -0.4133 -0.1096 -0.4298
 3683TIP3    H111013   4.731   5.043   0.463 -0.1458  1.4054 -0.8776
 3683TIP3    H211014   4.594   5.109   0.462 -1.7202 -1.6393 -0.0442
 3684TIP3   OH211015   1.676   5.262   5.244  0.2584  0.2331 -0.2579
 3684TIP3    H111016   1.765   5.264   5.279 -0.1903  1.9577  0.9137
 3684TIP3    H211017   1.664   5.171   5.214  1.8742 -0.4276  0.9446
 3685TIP3   OH211018   0.571   2.757   1.541  0.6152  0.7141  0.2859
 3685TIP3    H111019   0.636   2.808   1.494 -0.1749  2.8539  1.4051
 3685TIP3    H211020   0.591   2.772   1.633 -1.6447  1.7538  0.6697
 3686TIP3   OH211021   1.518   0.506   2.791  0.1663  0.3836  0.0612
 3686TIP3    H111022   1.498   0.546   2.875 -0.1084  0.8738 -0.2346
 3686TIP3    H211023   1.449   0.441   2.778 -2.0062  2.7966 -1.4590
 3687TIP3   OH211024   3.512   5.329   0.282  0.5801 -0.1245  0.1498
 3687TIP3    H111025   3.453   5.259   0.256 -0.5812  1.6197 -2.3464
 3687TIP3    H211026   3.468   5.371   0.356 -0.8860  0.4844 -0.9999
 3688TIP3   OH211027   1.049   3.354   2.878  0.2347  0.3044  0.1943
 3688TIP3    H111028   0.956   3.335   2.862  0.2812 -0.3084  0.6187
 3688TIP3    H211029   1.095   3.311   2.806  0.3190 -1.0252  1.0057
 3689TIP3   OH211030   3.214   1.643   0.175 -0.2478  0.3009  0.0813
 3689TIP3    H111031   3.154   1.718   0.174 -1.8737 -0.9446 -1.2958
 3689TIP3    H211032   3.179   1.584   0.109  2.4234 -0.5884 -0.6552
 3690TIP3   OH211033   0.357   2.585   4.041  0.4261  0.3704 -0.9168
 3690TIP3    H111034   0.309   2.602   3.960  0.9795 -0.8899 -1.5334
 3690TIP3    H211035   0.299   2.528   4.092 -0.0235  1.3573 -0.3085
 3691TIP3   OH211036   4.430   1.431   3.767  0.0998 -0.0697  0.0023
 3691TIP3    H111037   4.373   1.378   3.712  2.7025 -0.7634 -2.2703
 3691TIP3    H211038   4.471   1.368   3.827  0.3296  0.0090 -0.0713
 3692TIP3   OH211039   6.536   2.990   3.239  0.2116 -0.3947  0.1579
 3692TIP3    H111040   6.547   3.034   3.155 -1.0199 -0.1635  0.1048
 3692TIP3    H211041   6.623   2.954   3.258  0.5993 -0.1486 -1.0348
 3693TIP3   OH211042   6.374   3.329   2.486 -0.1018 -0.2152  0.3996
 3693TIP3    H111043   6.339   3.293   2.404  0.2666 -0.8185  0.5021
 3693TIP3    H211044   6.344   3.268   2.553  0.8676 -0.5650  0.5284
 3694TIP3   OH211045   2.157   6.301   2.634  0.0409  0.0922  0.3336
 3694TIP3    H111046   2.232   6.248   2.605 -1.6778 -1.9516 -0.6599
 3694TIP3    H211047   2.147   6.367   2.566 -0.8471 -1.5227 -1.1917
 3695TIP3   OH211048   6.029   4.591   2.974  0.1703 -0.5350 -0.0442
 3695TIP3    H111049   6.046   4.596   3.068 -0.6801 -2.0962  0.2153
 3695TIP3    H211050   5.937   4.567   2.967 -0.2954  1.3556 -1.3309
 3696TIP3   OH211051   5.811   3.715   4.879 -0.2570  0.4701  0.1086
 3696TIP3    H111052   5.892   3.712   4.829  0.0069  0.4679  0.5343
 3696TIP3    H211053   5.818   3.794   4.933 -1.7415  2.0445 -1.8546
 3697TIP3   OH211054   7.100   1.245   4.980 -0.3455  0.0844  0.1825
 3697TIP3    H111055   7.130   1.245   4.889 -0.5242 -0.6875  0.1164
 3697TIP3    H211056   7.006   1.266   4.974 -0.0468  1.5567  0.3170
 3698TIP3   OH211057   0.937   2.312   2.131 -0.5445  0.4515  0.5692
 3698TIP3    H111058   0.853   2.334   2.090 -1.2712 -0.1739  1.6480
 3698TIP3    H211059   0.993   2.283   2.060 -1.4050  0.4357 -0.1125
 3699TIP3   OH211060   4.168   0.937   2.796 -0.4667 -0.6196 -0.1029
 3699TIP3    H111061   4.210   0.872   2.740 -0.4970 -0.3762 -0.4074
 3699TIP3    H211062   4.190   1.021   2.756  0.4099 -0.3760  0.8405
 3700TIP3   OH211063   7.175   3.519   4.897 -0.7729  0.0000  0.4496
 3700TIP3    H111064   7.218   3.584   4.840  0.3824  0.1823  1.4918
 3700TIP3    H211065   7.231   3.442   4.891 -0.9218 -0.1453  0.9459
 3701TIP3   OH211066   0.625   5.401   3.591  0.1729  0.0224  0.0400
 3701TIP3    H111067   0.718   5.376   3.594  0.1197 -0.0634  1.5696
 3701TIP3    H211068   0.602   5.393   3.499  1.8807  0.7870 -0.5046
 3702TIP3   OH211069   2.301   4.346   4.482  0.6737 -0.1919 -0.4196
 3702TIP3    H111070   2.381   4.300   4.457 -0.2490 -2.1277 -0.0346
 3702TIP3    H211071   2.237   4.321   4.414  0.3808  1.3233 -0.7306
 3703TIP3   OH211072   3.070   2.023   5.012  0.0501  0.1335  0.4049
 3703TIP3    H111073   3.098   2.103   5.058  0.6844 -0.4468  1.0436
 3703TIP3    H211074   3.124   2.021   4.934 -0.8134  0.9567 -0.2483
 3704TIP3   OH211075   6.066   2.720   5.017  0.0094 -0.1776  0.0338
 3704TIP3    H111076   6.087   2.735   4.925 -2.9638 -0.1800 -0.7713
 3704TIP3    H211077   6.066   2.807   5.056  0.4427 -0.0829 -0.1742
 3705TIP3   OH211078   0.709   0.960   5.351  0.3338  0.1855 -0.2821
 3705TIP3    H111079   0.668   0.973   5.436 -1.0966  0.5947 -1.0067
 3705TIP3    H211080   0.754   0.876   5.358 -1.0006 -0.4854  0.4086
 3706TIP3   OH211081   6.223   5.370   1.653  0.0225 -0.6473 -0.1119
 3706TIP3    H111082   6.250   5.304   1.717 -0.1709  1.6514  2.5675
 3706TIP3    H211083   6.258   5.452   1.688 -2.9479  1.2265 -1.1269
 3707TIP3   OH211084   7.094   3.250   3.331  0.2894 -0.2846  0.0642
 3707TIP3    H111085   7.128   3.338   3.344 -0.0054  0.0380 -1.2600
 3707TIP3    H211086   7.002   3.254   3.357  0.4781 -0.4238  0.7892
 3708TIP3   OH211087   2.564   0.176   3.028 -0.0648 -0.0928  0.0770
 3708TIP3    H111088   2.501   0.236   3.066  0.4894 -0.3449  1.4319
 3708TIP3    H211089   2.565   0.199   2.935 -1.3854  0.5825  0.2062
 3709TIP3   OH211090   5.061   6.743   3.728  0.0064  0.3153 -0.5523
 3709TIP3    H111091   5.132   6.802   3.753 -0.2088  0.8512 -1.1609
 3709TIP3    H211092   4.983   6.780   3.768  0.0492 -0.2404  0.0667
 3710TIP3   OH211093   6.633   0.822   4.482 -0.5651  0.0722 -0.4391
 3710TIP3    H111094   6.700   0.804   4.547  0.2738  0.6220 -1.1194
 3710TIP3    H211095   6.561   0.862   4.531  0.0373  0.4368  0.1541
 3711TIP3   OH211096   1.271   0.878   2.057  0.0079  0.0563  0.1970
 3711TIP3    H111097   1.299   0.791   2.030  2.2199  0.3575  1.2655
 3711TIP3    H211098   1.178   0.868   2.077 -0.2307 -1.5858 -1.4679
 3712TIP3   OH211099   2.653   1.695   2.085 -0.4185 -0.5735 -0.1529
 3712TIP3    H111100   2.587   1.643   2.130  0.9696 -1.1918  1.3000
 3712TIP3    H211101   2.736   1.656   2.113  0.6200  1.3308 -0.4335
 3713TIP3   OH211102   6.850   1.817   1.943 -0.2916  0.5614 -0.5145
 3713TIP3    H111103   6.889   1.899   1.972 -2.2197  1.6535 -0.8008
 3713TIP3    H211104   6.797   1.788   2.018  0.8126 -0.7472 -0.2122
 3714TIP3   OH211105   6.547   1.331   2.502 -0.3115  0.1585 -0.4386
 3714TIP3    H111106   6.499   1.399   2.549 -1.9987  0.4146 -2.3810
 3714TIP3    H211107   6.497   1.317   2.421  0.9674 -2.1307 -0.9393
 3715TIP3   OH211108   1.185   4.703   4.377  0.1977 -0.1779  0.3952
 3715TIP3    H111109   1.220   4.620   4.344 -0.0871  0.0254 -0.4346
 3715TIP3    H211110   1.116   4.727   4.315  0.7610  1.0491  0.2113
 3716TIP3   OH211111   4.710   3.772   1.270 -0.0408  0.1758 -0.3400
 3716TIP3    H111112   4.717   3.678   1.259 -0.5367  0.3460 -2.6256
 3716TIP3    H211113   4.798   3.805   1.249 -0.1133  0.2787 -0.4853
 3717TIP3   OH211114   0.239   3.701   0.744  0.1532 -0.2937 -0.4521
 3717TIP3    H111115   0.302   3.742   0.685  0.0280  0.5918  0.0128
 3717TIP3    H211116   0.192   3.775   0.783 -1.7702 -0.9358 -1.4310
 3718TIP3   OH211117   4.359   4.974   5.004 -0.1427 -0.6587  0.2534
 3718TIP3    H111118   4.335   4.986   4.912  2.2926  1.5973 -0.2168
 3718TIP3    H211119   4.414   4.896   5.004 -0.2914 -0.7680 -0.1756
 3719TIP3   OH211120   4.761   4.709   2.721  0.3666 -0.3388 -0.5192
 3719TIP3    H111121   4.795   4.790   2.759 -0.1242 -0.1749 -0.4170
 3719TIP3    H211122   4.717   4.665   2.794  1.2696 -1.0661 -0.3939
 3720TIP3   OH211123   0.488   0.926   1.867  0.6585  0.1751  0.5078
 3720TIP3    H111124   0.484   0.841   1.823 -2.8874  0.7001 -0.4408
 3720TIP3    H211125   0.581   0.950   1.862  1.8768 -3.6767  1.0643
 3721TIP3   OH211126   4.367   2.188   4.083  0.7349  0.1119 -0.2299
 3721TIP3    H111127   4.442   2.221   4.034  1.3739  0.9446  1.2446
 3721TIP3    H211128   4.360   2.246   4.159 -0.3670 -0.9682  0.5405
 3722TIP3   OH211129   5.594   2.737   5.574 -0.4133 -0.6449 -0.2375
 3722TIP3    H111130   5.565   2.710   5.486 -2.8406 -1.1236  0.6391
 3722TIP3    H211131   5.689   2.741   5.567 -0.5954  1.8744 -3.5972
 3723TIP3   OH211132   6.895   2.762   1.865  0.4227 -0.6411 -0.1435
 3723TIP3    H111133   6.869   2.724   1.782 -0.3265 -1.1489  0.3134
 3723TIP3    H211134   6.875   2.695   1.930  0.0564  0.1222  0.5617
 3724TIP3   OH211135   5.546   0.171   3.962  0.6019  0.2244 -0.4658
 3724TIP3    H111136   5.554   0.208   4.050 -0.9544  2.7909 -1.3215
 3724TIP3    H211137   5.454   0.184   3.939  0.9739 -0.4198 -2.4850
 3725TIP3   OH211138   5.328   2.513   3.628 -0.3899  0.2673  0.3285
 3725TIP3    H111139   5.402   2.495   3.687 -2.0596  1.0829  2.8287
 3725TIP3    H211140   5.281   2.430   3.622  0.4518 -0.1479 -0.9472
 3726TIP3   OH211141   2.834   6.116   0.951 -0.1643 -0.1136 -0.3998
 3726TIP3    H111142   2.857   6.082   1.037 -0.0235  0.7877 -0.0666
 3726TIP3    H211143   2.914   6.159   0.920 -0.5058  0.4231 -0.5482
 3727TIP3   OH211144   6.380   4.281   3.844 -0.1084 -0.0720 -0.1799
 3727TIP3    H111145   6.412   4.224   3.914 -2.3319 -0.9307  0.2264
 3727TIP3    H211146   6.390   4.370   3.880 -1.7561 -0.5170  1.5553
 3728TIP3   OH211147   5.334   2.840   4.587  0.2685  0.2851  0.0385
 3728TIP3    H111148   5.265   2.906   4.584  1.2562  1.3250 -0.8060
 3728TIP3    H211149   5.329   2.796   4.503 -1.1291 -1.5807  1.0130
 3729TIP3   OH211150   4.279   5.284   5.046  0.2578  0.5623 -0.0060
 3729TIP3    H111151   4.349   5.306   4.984  1.5214  1.5157  1.6772
 3729TIP3    H211152   4.285   5.189   5.056  0.4830  0.4839 -0.8110
 3730TIP3   OH211153   4.853   5.609   3.141  0.2366 -0.2642 -0.3450
 3730TIP3    H111154   4.884   5.537   3.195 -1.1518 -1.0571 -0.5396
 3730TIP3    H211155   4.915   5.613   3.068  1.7760  0.4317  0.9570
 3731TIP3   OH211156   2.491   4.684   1.608 -0.0090  0.6858 -0.0993
 3731TIP3    H111157   2.532   4.617   1.662 -0.7712  0.6927  0.5041
 3731TIP3    H211158   2.441   4.634   1.543  0.7081  0.6776 -0.6501
 3732TIP3   OH211159   0.933   0.946   2.355 -0.6474  0.3334 -0.6602
 3732TIP3    H111160   0.982   0.873   2.318  1.8040  1.9232 -0.7549
 3732TIP3    H211161   0.873   0.906   2.417 -0.0391 -1.8174 -1.3738
 3733TIP3   OH211162   2.579   1.066   5.280 -0.2346 -0.1958 -0.3450
 3733TIP3    H111163   2.538   1.137   5.330 -1.5007 -0.4839 -0.9326
 3733TIP3    H211164   2.672   1.089   5.277 -0.6682  1.6595 -0.8841
 3734TIP3   OH211165   0.199   2.687   0.898  0.6754  1.0282  0.1050
 3734TIP3    H111166   0.172   2.697   0.807  3.3921  2.0303 -0.6876
 3734TIP3    H211167   0.118   2.698   0.948 -1.3613 -1.9511 -2.1784
 3735TIP3   OH211168   6.893   2.574   4.017  0.0354  0.4360  0.4627
 3735TIP3    H111169   6.923   2.565   4.107 -0.3565 -1.0444  0.4805
 3735TIP3    H211170   6.897   2.485   3.982 -0.8388  0.8137 -0.6492
 3736TIP3   OH211171   5.537   3.235   3.003  0.5212  0.4511 -0.4652
 3736TIP3    H111172   5.496   3.314   3.037  0.8560  0.6841 -0.6036
 3736TIP3    H211173   5.480   3.208   2.931 -0.1608 -0.0137  0.2255
 3737TIP3   OH211174   2.313   2.233   2.591 -0.0612  0.1352  0.5449
 3737TIP3    H111175   2.259   2.243   2.669 -0.7522 -0.5950  0.1698
 3737TIP3    H211176   2.262   2.271   2.520 -0.3413 -1.0319  0.0929
 3738TIP3   OH211177   1.993   6.275   5.720 -0.6276  0.0935  0.7136
 3738TIP3    H111178   1.900   6.260   5.706 -0.3009 -4.5142  1.8149
 3738TIP3    H211179   2.011   6.238   5.806  2.3363  0.1283  0.2171
 3739TIP3   OH211180   2.145   1.234   4.845  0.4422  0.3037 -0.1882
 3739TIP3    H111181   2.117   1.316   4.805  0.1997  1.7949  2.7137
 3739TIP3    H211182   2.181   1.260   4.930  2.3689 -2.4273 -0.0354
 3740TIP3   OH211183   5.758   3.334   3.959 -0.4143  0.3653 -0.3755
 3740TIP3    H111184   5.771   3.284   3.878 -0.6039  0.0026 -0.1849
 3740TIP3    H211185   5.669   3.313   3.987 -0.2647  0.2965  0.0589
 3741TIP3   OH211186   6.895   4.794   1.162 -0.1254  0.3114 -0.5624
 3741TIP3    H111187   6.901   4.796   1.066 -0.6036  0.5544 -0.5943
 3741TIP3    H211188   6.962   4.856   1.191  1.3320 -1.1595 -0.6504
 3742TIP3   OH211189   5.843   4.437   3.271  0.1097 -0.5172  0.5428
 3742TIP3    H111190   5.829   4.346   3.297 -1.0541 -0.3476  0.5967
 3742TIP3    H211191   5.834   4.437   3.176 -2.0314 -0.1580  0.6972
 3743TIP3   OH211192   5.264   3.896   3.377  0.0958 -0.2598 -0.6605
 3743TIP3    H111193   5.320   3.966   3.412  0.8424  0.3340 -2.8957
 3743TIP3    H211194   5.175   3.929   3.389  0.3806  0.4551 -0.4323
 3744TIP3   OH211195   3.666   3.531   5.648 -0.1017 -0.3026 -0.2545
 3744TIP3    H111196   3.580   3.553   5.613  0.0235  0.3699 -0.1466
 3744TIP3    H211197   3.686   3.601   5.710  0.8851  0.0141 -0.8949
 3745TIP3   OH211198   0.854   5.963   3.183 -0.3353  0.1414  0.2143
 3745TIP3    H111199   0.820   5.878   3.153  0.2832 -0.5040  1.2934
 3745TIP3    H211200   0.934   5.941   3.230 -0.1592  1.3416  0.4886
 3746TIP3   OH211201   6.546   6.378   1.243  0.1914 -0.1873 -0.0482
 3746TIP3    H111202   6.552   6.454   1.301  0.4372  0.6241 -1.1102
 3746TIP3    H211203   6.613   6.318   1.276  0.5485  0.3969  0.3200
 3747TIP3   OH211204   1.733   5.310   0.588  0.0493  0.5908 -0.0384
 3747TIP3    H111205   1.758   5.229   0.633 -0.6418 -0.1426 -0.9149
 3747TIP3    H211206   1.637   5.308   0.587  0.0152  1.6842  0.3769
 3748TIP3   OH211207   2.919   6.584   4.004  0.0647  0.2467  0.0250
 3748TIP3    H111208   2.854   6.514   4.014  0.7980 -0.3241  0.8990
 3748TIP3    H211209   2.870   6.664   4.024 -0.3244 -0.1974  0.9157
 3749TIP3   OH211210   5.847   4.958   1.527  0.4097 -0.5528  0.4566
 3749TIP3    H111211   5.832   4.959   1.622  1.2034 -1.0192  0.5947
 3749TIP3    H211212   5.763   4.985   1.490  0.6777  1.8194  1.3504
 3750TIP3   OH211213   0.227   4.425   3.843  0.2440  0.8892  0.4170
 3750TIP3    H111214   0.157   4.409   3.779  1.0699  0.7179 -0.4689
 3750TIP3    H211215   0.204   4.371   3.918 -0.5130  0.7510  0.0935
 3751TIP3   OH211216   3.042   0.549   4.026  0.3449  0.4177  0.0325
 3751TIP3    H111217   3.005   0.624   3.980 -0.8987 -1.0637 -1.5336
 3751TIP3    H211218   2.986   0.537   4.102  0.3346  0.8584  0.0970
 3752TIP3   OH211219   1.321   4.297   4.702 -0.7007  0.1977 -0.2795
 3752TIP3    H111220   1.399   4.243   4.715 -1.3422 -0.5990  0.4116
 3752TIP3    H211221   1.338   4.376   4.753 -1.3144 -0.9968  1.8977
 3753TIP3   OH211222   0.290   4.917   0.991  0.7148  0.2754 -0.2997
 3753TIP3    H111223   0.210   4.915   1.044  0.9896  0.7189  0.1465
 3753TIP3    H211224   0.261   4.943   0.904 -0.1762 -3.3351 -1.2233
 3754TIP3   OH211225   6.992   2.143   2.379  1.1937  0.3172  0.5637
 3754TIP3    H111226   6.987   2.050   2.400 -0.1959  0.0555 -0.7814
 3754TIP3    H211227   7.074   2.153   2.331  1.6198 -0.0848  1.1884
 3755TIP3   OH211228   5.915   0.995   4.426  0.3750 -0.1732 -0.1034
 3755TIP3    H111229   5.928   1.006   4.332  1.0378  0.9054  0.1035
 3755TIP3    H211230   5.820   0.995   4.437  0.2983 -0.1670 -0.7524
 3756TIP3   OH211231   3.479   3.276   2.898 -0.1094  0.4348  0.5309
 3756TIP3    H111232   3.517   3.322   2.974 -0.5534  0.1009  0.9631
 3756TIP3    H211233   3.526   3.312   2.823 -0.8319  2.0211  0.7920
 3757TIP3   OH211234   7.174   0.271   3.721  0.2916  0.3368 -0.1304
 3757TIP3    H111235   7.231   0.244   3.793 -1.2948 -0.6827  0.8206
 3757TIP3    H211236   7.140   0.189   3.685 -1.2436  0.9188 -0.0726
 3758TIP3   OH211237   0.210   5.433   0.304  0.0776  0.2422 -0.1858
 3758TIP3    H111238   0.206   5.524   0.331 -1.1134 -0.0353  0.6896
 3758TIP3    H211239   0.121   5.413   0.275  0.5030 -0.4473 -1.0763
 3759TIP3   OH211240   4.917   1.798   3.674 -0.0154 -0.4134  0.7069
 3759TIP3    H111241   4.842   1.744   3.698 -1.2454  1.7168  1.9406
 3759TIP3    H211242   4.956   1.824   3.757  0.8404  0.2110  0.1332
 3760TIP3   OH211243   2.244   0.438   4.752 -0.0832 -0.0833 -0.0946
 3760TIP3    H111244   2.339   0.443   4.756 -0.1856  1.3982  1.6746
 3760TIP3    H211245   2.222   0.361   4.805  0.1495 -1.1971 -1.5646
 3761TIP3   OH211246   3.576   5.609   0.640  0.0951  0.3613  0.0133
 3761TIP3    H111247   3.648   5.618   0.577  0.6806 -0.6917  0.5123
 3761TIP3    H211248   3.511   5.556   0.594  1.3395 -2.0848  0.9011
 3762TIP3   OH211249   2.162   0.854   3.346  0.4216 -0.3660  0.3824
 3762TIP3    H111250   2.182   0.947   3.333  1.1363 -0.5556  0.0910
 3762TIP3    H211251   2.221   0.827   3.416  0.1930 -0.5955  0.4877
 3763TIP3   OH211252   6.639   0.199   1.743 -0.5492  0.0641 -0.2537
 3763TIP3    H111253   6.559   0.245   1.768 -0.3344  0.1399  0.2994
 3763TIP3    H211254   6.643   0.124   1.801 -0.3538 -0.0831 -0.4556
 3764TIP3   OH211255   2.344   1.246   0.242 -0.2227 -0.1369 -0.2463
 3764TIP3    H111256   2.306   1.175   0.294 -0.3371  1.1679  1.5498
 3764TIP3    H211257   2.271   1.307   0.229  0.5331  1.0274  0.7743
 3765TIP3   OH211258   0.797   5.961   0.726 -0.9434 -0.3517  0.1729
 3765TIP3    H111259   0.804   5.988   0.634 -1.3682  1.0365  0.5160
 3765TIP3    H211260   0.864   5.894   0.736  0.0260  0.4057 -0.8300
 3766TIP3   OH211261   6.094   4.151   2.797 -0.2168  0.1571 -0.0075
 3766TIP3    H111262   6.036   4.146   2.873 -0.2573  0.6950 -0.0022
 3766TIP3    H211263   6.143   4.069   2.799 -2.4302 -1.2901 -1.1976
 3767TIP3   OH211264   3.158   0.611   0.557 -0.8820 -0.3231  0.4823
 3767TIP3    H111265   3.118   0.682   0.506 -0.8494  2.1298  3.5211
 3767TIP3    H211266   3.197   0.554   0.492 -0.3000  2.8328 -2.2239
 3768TIP3   OH211267   0.713   5.236   0.793 -0.3256  0.0596 -0.6662
 3768TIP3    H111268   0.731   5.311   0.850 -0.5517  0.0395 -0.5684
 3768TIP3    H211269   0.712   5.161   0.852 -0.0074 -0.0338 -0.7774
 3769TIP3   OH211270   3.790   5.623   0.006  0.2606 -0.1455  0.2255
 3769TIP3    H111271   3.715   5.603   0.062 -0.1386 -1.1608 -0.6540
 3769TIP3    H211272   3.866   5.612   0.064 -0.1804 -0.5381  0.7454
 3770TIP3   OH211273   1.719   0.329   0.777  0.2033  0.3220  0.1319
 3770TIP3    H111274   1.689   0.253   0.826 -0.3401  0.2339 -0.3309
 3770TIP3    H211275   1.800   0.355   0.821 -0.8284  0.9198  1.7602
 3771TIP3   OH211276   2.613   1.176   0.039  0.1008  0.4024 -0.3311
 3771TIP3    H111277   2.523   1.206   0.029  0.5461  2.1247  0.3828
 3771TIP3    H211278   2.630   1.179   0.133  0.7467 -0.4325 -0.4041
 3772TIP3   OH211279   1.697   0.379   5.295 -0.3271  0.1854  0.0928
 3772TIP3    H111280   1.650   0.306   5.335  1.5105 -1.6702 -0.9139
 3772TIP3    H211281   1.649   0.397   5.214  0.2755 -1.2958 -0.6375
 3773TIP3   OH211282   3.262   5.454   4.631  0.9885  0.6412  0.2891
 3773TIP3    H111283   3.221   5.455   4.718 -0.5150  0.4901 -0.3765
 3773TIP3    H211284   3.255   5.545   4.601  1.1356  0.6124  0.1678
 3774TIP3   OH211285   5.727   3.981   4.415 -0.1914 -0.9822 -0.1922
 3774TIP3    H111286   5.666   3.922   4.371  1.1175 -0.9488 -2.1868
 3774TIP3    H211287   5.810   3.968   4.369  0.4011  1.6288 -0.0018
 3775TIP3   OH211288   5.879   2.770   2.401 -0.0848 -0.1644  0.7272
 3775TIP3    H111289   5.933   2.719   2.462 -0.4192 -1.1215  0.2389
 3775TIP3    H211290   5.919   2.857   2.401 -0.3722  0.0049  2.6786
 3776TIP3   OH211291   4.302   3.016   4.919 -0.2977 -0.2331  0.2850
 3776TIP3    H111292   4.312   3.000   5.013 -0.5043  1.0290  0.5325
 3776TIP3    H211293   4.391   3.007   4.884  0.1346  1.1917  0.9238
 3777TIP3   OH211294   3.823   0.786   2.797  0.5516 -0.1331 -0.0839
 3777TIP3    H111295   3.862   0.709   2.755  1.6221  0.7272 -0.7229
 3777TIP3    H211296   3.862   0.861   2.751  0.6548  0.8255  1.4819
 3778TIP3   OH211297   4.052   0.923   5.857 -0.6653  0.2015 -0.5131
 3778TIP3    H111298   3.994   0.858   5.818  0.0293 -0.1547 -0.9718
 3778TIP3    H211299   4.121   0.872   5.900 -2.1265  0.5221  2.4366
 3779TIP3   OH211300   3.941   4.732   4.381  0.1397 -0.1194 -0.5439
 3779TIP3    H111301   4.035   4.713   4.388 -0.0438 -1.4931 -1.5180
 3779TIP3    H211302   3.900   4.675   4.446 -0.0296  0.6316  0.0277
 3780TIP3   OH211303   0.809   2.494   1.320 -0.0207 -0.2162 -0.4458
 3780TIP3    H111304   0.886   2.469   1.269 -1.1848 -0.2565 -2.2861
 3780TIP3    H211305   0.737   2.493   1.256 -1.4836  0.1699  1.1295
 3781TIP3   OH211306   5.068   4.905   1.490  0.5925  0.1431 -0.2163
 3781TIP3    H111307   5.102   4.826   1.532  1.3350 -0.2574 -1.4911
 3781TIP3    H211308   5.081   4.889   1.396  0.9987  1.9044 -0.4861
 3782TIP3   OH211309   0.872   6.510   2.363 -0.1088  0.4959  0.1914
 3782TIP3    H111310   0.821   6.459   2.425  0.5066 -0.6988 -0.2475
 3782TIP3    H211311   0.862   6.601   2.393 -1.1828  0.1300  1.0233
 3783TIP3   OH211312   1.090   0.427   1.401  0.5984  0.2649 -0.6526
 3783TIP3    H111313   1.039   0.444   1.322 -2.6710  1.7362  1.5537
 3783TIP3    H211314   1.046   0.353   1.443  2.2973 -0.5341 -0.1576
 3784TIP3   OH211315   3.371   1.536   3.932  0.1009 -0.0973 -0.2697
 3784TIP3    H111316   3.425   1.615   3.923  0.6025 -0.3225  0.6345
 3784TIP3    H211317   3.408   1.475   3.868  0.5258 -0.0320 -0.0942
 3785TIP3   OH211318   1.774   4.898   1.368  0.1337  0.3449  0.2656
 3785TIP3    H111319   1.730   4.983   1.364  1.5029  1.0454 -0.5779
 3785TIP3    H211320   1.715   4.843   1.419 -0.8830  1.7348  0.6434
 3786TIP3   OH211321   1.240   4.906   0.947  0.1008 -0.3797 -0.3422
 3786TIP3    H111322   1.332   4.932   0.956 -0.7929  2.9421  0.5011
 3786TIP3    H211323   1.233   4.826   0.999  1.7380  1.4856  3.0486
 3787TIP3   OH211324   6.512   1.891   4.334  0.3094  0.1907  0.7303
 3787TIP3    H111325   6.498   1.796   4.332 -0.4424  0.2876  1.1635
 3787TIP3    H211326   6.481   1.918   4.420 -1.0716  1.0710 -0.0077
 3788TIP3   OH211327   0.190   1.981   0.718 -0.1875 -0.0933 -0.1379
 3788TIP3    H111328   0.138   1.929   0.658  0.8839 -1.5139  0.1142
 3788TIP3    H211329   0.146   1.973   0.803 -1.3257  1.3692 -0.5539
 3789TIP3   OH211330   2.666   3.123   2.158  0.1858 -0.1701 -0.4355
 3789TIP3    H111331   2.713   3.108   2.240 -1.1071  1.3081  0.6488
 3789TIP3    H211332   2.715   3.192   2.114  0.1989 -0.0906 -0.2968
 3790TIP3   OH211333   4.053   6.328   0.205 -0.1875  0.5321  0.2635
 3790TIP3    H111334   4.017   6.416   0.215 -1.1938  0.2962 -0.9852
 3790TIP3    H211335   4.135   6.342   0.157  0.8781  0.9677  2.1244
 3791TIP3   OH211336   1.127   4.277   5.061 -0.4076 -0.0763 -0.2636
 3791TIP3    H111337   1.159   4.367   5.059 -1.2444  0.2592  0.6142
 3791TIP3    H211338   1.206   4.223   5.062  0.1104  0.5904 -1.9295
 3792TIP3   OH211339   3.545   2.342   0.550  0.3273  0.1440  0.3577
 3792TIP3    H111340   3.620   2.384   0.593  1.5583 -1.0174 -0.5723
 3792TIP3    H211341   3.545   2.252   0.584 -2.0899  0.6963  2.1025
 3793TIP3   OH211342   5.910   5.953   2.772 -0.0509  0.0711 -0.0105
 3793TIP3    H111343   5.841   5.961   2.706  0.2074 -0.9111 -0.4243
 3793TIP3    H211344   5.980   5.905   2.727  1.0036  1.2632  0.3284
 3794TIP3   OH211345   7.177   3.983   3.115  0.3629 -0.3446  0.0231
 3794TIP3    H111346   7.145   3.984   3.024  0.8777  1.6793 -0.1812
 3794TIP3    H211347   7.262   3.939   3.110  0.6894  0.3344 -0.6041
 3795TIP3   OH211348   4.016   4.926   1.564 -0.4735 -0.7889  0.0546
 3795TIP3    H111349   4.098   4.906   1.519 -0.2952 -0.2639  0.1440
 3795TIP3    H211350   3.997   4.847   1.615 -1.4306 -1.9605 -2.0244
 3796TIP3   OH211351   2.543   0.276   2.525  0.2553 -0.3954  0.2280
 3796TIP3    H111352   2.636   0.257   2.528  0.1860 -0.6732  0.8489
 3796TIP3    H211353   2.520   0.273   2.432  0.9983  0.3798  0.0062
 3797TIP3   OH211354   3.355   5.213   2.551  0.1385 -0.2999 -0.0165
 3797TIP3    H111355   3.434   5.159   2.550  0.4700  0.1718 -1.2852
 3797TIP3    H211356   3.387   5.302   2.567 -0.4163 -0.4415  2.2432
 3798TIP3   OH211357   6.154   6.005   1.364  0.0337  0.4795 -0.3808
 3798TIP3    H111358   6.092   6.051   1.307 -0.4000 -1.3195 -1.4496
 3798TIP3    H211359   6.225   5.980   1.306  1.0687  1.2070  0.5349
 3799TIP3   OH211360   3.633   1.889   5.150  0.1125  0.1343  0.3139
 3799TIP3    H111361   3.681   1.944   5.088  1.3250  0.2595  1.3324
 3799TIP3    H211362   3.700   1.847   5.203 -0.7065 -3.0800 -0.9727
 3800TIP3   OH211363   1.068   5.497   0.723 -0.0067  0.5355 -0.2557
 3800TIP3    H111364   1.052   5.479   0.815 -0.7224  0.4163 -0.3955
 3800TIP3    H211365   1.164   5.504   0.715  0.0088  1.4437  0.6469
 3801TIP3   OH211366   6.531   4.000   0.620  0.2510  0.6390 -0.7730
 3801TIP3    H111367   6.624   4.018   0.605  0.6711  1.4087  2.1478
 3801TIP3    H211368   6.528   3.954   0.704 -1.8692 -1.7415 -2.0297
 3802TIP3   OH211369   1.367   5.011   4.936  0.3893  0.4841 -0.1420
 3802TIP3    H111370   1.316   5.077   4.982  0.7724  0.6888 -0.0029
 3802TIP3    H211371   1.458   5.038   4.948  0.7996 -1.6242  2.4655
 3803TIP3   OH211372   6.159   4.984   2.189 -0.5397  0.8049 -0.0891
 3803TIP3    H111373   6.114   4.937   2.259 -1.4751  1.1558 -0.4391
 3803TIP3    H211374   6.106   4.967   2.111  0.2425  0.7813 -0.6259
 3804TIP3   OH211375   3.530   4.922   1.448  0.0540  0.1181  0.1667
 3804TIP3    H111376   3.625   4.910   1.440 -0.1432 -0.6272 -1.5898
 3804TIP3    H211377   3.496   4.833   1.464 -0.5232 -0.0917 -1.9058
 3805TIP3   OH211378   2.465   3.589   0.822 -0.4952  0.3184  0.0837
 3805TIP3    H111379   2.370   3.599   0.820 -0.4368  0.7359 -2.0423
 3805TIP3    H211380   2.481   3.500   0.790 -0.0960  1.1173 -2.0529
 3806TIP3   OH211381   4.126   2.999   0.879  0.5067  0.6955 -0.4213
 3806TIP3    H111382   4.045   3.014   0.830 -0.8537  0.4223  1.6046
 3806TIP3    H211383   4.180   2.945   0.821 -0.6524  1.0889 -1.9234
 3807TIP3   OH211384   0.246   5.269   5.618  0.5711 -0.3377  0.0382
 3807TIP3    H111385   0.331   5.312   5.618  0.5723 -0.3136 -1.3107
 3807TIP3    H211386   0.260   5.188   5.669  0.5724  1.1467  2.5581
 3808TIP3   OH211387   2.998   0.546   1.835 -0.3419 -0.4870  0.0674
 3808TIP3    H111388   2.909   0.513   1.827 -0.2187 -0.7458 -0.2992
 3808TIP3    H211389   3.022   0.573   1.746  0.5349 -2.0040 -0.1981
 3809TIP3   OH211390   1.216   6.172   2.471  0.5504  0.2120  0.4725
 3809TIP3    H111391   1.183   6.082   2.471 -0.2690  0.4325 -2.1097
 3809TIP3    H211392   1.262   6.181   2.387 -0.2699  2.4928  0.1878
 3810TIP3   OH211393   4.120   5.345   1.461  0.3777  0.0888 -0.1293
 3810TIP3    H111394   4.085   5.344   1.550  2.5213  1.8477  0.8434
 3810TIP3    H211395   4.118   5.253   1.433 -3.5653 -0.1060  0.2766
 3811TIP3   OH211396   1.265   1.637   5.803  0.2904 -0.5222  0.6266
 3811TIP3    H111397   1.255   1.545   5.780  0.5514 -0.5373  0.5774
 3811TIP3    H211398   1.293   1.636   5.895  0.5502 -0.4992  0.5476
 3812TIP3   OH211399   6.477   6.483   0.165 -0.1390 -0.1407 -0.1318
 3812TIP3    H111400   6.435   6.531   0.237  2.3264  0.7088  0.8324
 3812TIP3    H211401   6.405   6.465   0.104 -2.1089  0.1801  1.9308
 3813TIP3   OH211402   3.104   5.443   4.849 -0.0634 -0.0101  0.2125
 3813TIP3    H111403   3.061   5.363   4.880  0.8923 -0.5609  0.1678
 3813TIP3    H211404   3.057   5.514   4.892  0.2512 -0.6779  1.7498
 3814TIP3   OH211405   1.234   0.558   4.509 -0.2413  0.5743 -0.3448
 3814TIP3    H111406   1.287   0.556   4.430  0.8634 -1.4136  0.3794
 3814TIP3    H211407   1.272   0.627   4.563  1.1775 -0.3119 -0.1648
 3815TIP3   OH211408   4.233   6.645   3.360  0.0126  0.2659 -0.3600
 3815TIP3    H111409   4.137   6.648   3.358 -0.0966 -0.8822  1.3244
 3815TIP3    H211410   4.260   6.737   3.365 -0.9339  0.6413 -1.5275
 3816TIP3   OH211411   0.107   1.030   3.730 -0.1749  0.9950  0.2732
 3816TIP3    H111412   0.200   1.007   3.739 -0.6060 -0.9249  0.3698
 3816TIP3    H211413   0.098   1.056   3.638  0.3232  0.4239  0.0526
 3817TIP3   OH211414   0.504   6.270   0.332  0.3305 -0.0011  0.5631
 3817TIP3    H111415   0.488   6.365   0.330  1.5493  0.2057 -0.5471
 3817TIP3    H211416   0.419   6.231   0.311  0.4103  0.9579 -1.9486
 3818TIP3   OH211417   4.916   2.032   2.748 -0.3477 -0.0130  0.0709
 3818TIP3    H111418   4.840   1.981   2.721  0.1442 -1.1696  0.8239
 3818TIP3    H211419   4.990   1.973   2.739  0.5182  1.1515 -0.8214
 3819TIP3   OH211420   1.214   6.606   2.109 -0.4893 -0.0063  0.5859
 3819TIP3    H111421   1.124   6.573   2.102 -1.5455  2.7287 -0.1339
 3819TIP3    H211422   1.237   6.628   2.019 -1.0741  3.8595  1.2142
 3820TIP3   OH211423   0.697   2.235   3.817  0.0990 -0.1318  0.3449
 3820TIP3    H111424   0.716   2.222   3.724 -0.2536  0.7094  0.1476
 3820TIP3    H211425   0.757   2.176   3.862 -0.3939 -1.2829 -0.4455
 3821TIP3   OH211426   5.057   5.906   4.963  0.1784 -0.5733 -0.6294
 3821TIP3    H111427   4.977   5.958   4.965  0.9333  0.8006 -2.8326
 3821TIP3    H211428   5.121   5.961   4.918  3.6359 -0.0154  4.1538
 3822TIP3   OH211429   3.614   4.403   1.774  0.3096  0.1311 -0.0202
 3822TIP3    H111430   3.701   4.420   1.812  0.1996 -1.5221  1.0764
 3822TIP3    H211431   3.553   4.450   1.832  0.4187  1.0454 -0.6184
 3823TIP3   OH211432   0.950   5.682   5.542  0.2278  0.0604  0.4569
 3823TIP3    H111433   0.940   5.743   5.615 -0.6323  0.6363 -0.1290
 3823TIP3    H211434   0.990   5.604   5.581  0.1500  0.5124  1.4576
 3824TIP3   OH211435   2.808   0.820   0.619  0.3201  0.6876 -0.4384
 3824TIP3    H111436   2.857   0.753   0.666  0.6688  0.1690 -1.5114
 3824TIP3    H211437   2.755   0.771   0.556  1.5456  1.4589 -2.1365
 3825TIP3   OH211438   2.816   6.408   5.848 -0.0234 -0.4744 -0.3022
 3825TIP3    H111439   2.734   6.444   5.883 -0.1269 -0.9987  0.0178
 3825TIP3    H211440   2.875   6.482   5.842 -0.1902 -0.2765  0.4602
 3826TIP3   OH211441   7.010   2.506   3.047  0.1841 -0.2272  0.0818
 3826TIP3    H111442   7.039   2.494   2.957  1.4919  0.4341  0.3888
 3826TIP3    H211443   7.091   2.502   3.099 -0.6159 -1.2693  1.3026
 3827TIP3   OH211444   3.610   4.159   3.804 -0.7432  0.3668  0.6831
 3827TIP3    H111445   3.586   4.249   3.781 -0.5342  0.4647  0.8417
 3827TIP3    H211446   3.592   4.108   3.725  0.6407  0.8161  0.0387
 3828TIP3   OH211447   6.565   2.724   1.513 -0.0487  0.1868 -0.2621
 3828TIP3    H111448   6.549   2.690   1.425 -0.9419 -1.3460  0.4407
 3828TIP3    H211449   6.613   2.806   1.499  2.3531 -1.3927 -2.0627
 3829TIP3   OH211450   3.165   1.439   2.620 -0.3139  0.3483 -0.1151
 3829TIP3    H111451   3.219   1.517   2.611 -1.1907  1.1540  1.3160
 3829TIP3    H211452   3.173   1.395   2.535 -0.0795  2.1608 -1.0876
 3830TIP3   OH211453   1.538   3.299   1.634 -0.1020  0.4459  0.0830
 3830TIP3    H111454   1.619   3.350   1.634  0.2826 -0.0872  1.8799
 3830TIP3    H211455   1.551   3.234   1.703 -1.9329  0.1216  0.1708
 3831TIP3   OH211456   0.304   0.348   1.517 -0.1135 -0.5791 -0.1802
 3831TIP3    H111457   0.326   0.331   1.608  2.9805  2.8233 -0.0383
 3831TIP3    H211458   0.258   0.432   1.518  1.2855  0.2878 -1.7269
 3832TIP3   OH211459   4.264   3.952   5.468  0.1610  0.2685 -0.3793
 3832TIP3    H111460   4.171   3.961   5.492  0.3634  1.2347  0.1182
 3832TIP3    H211461   4.310   4.010   5.529  1.2442 -1.1669  0.2235
 3833TIP3   OH211462   1.955   0.438   2.646 -0.6790  0.5346 -0.4223
 3833TIP3    H111463   2.010   0.465   2.573 -0.9620 -0.0856 -0.8741
 3833TIP3    H211464   1.997   0.476   2.723  1.4417 -1.4250 -0.5190
 3834TIP3   OH211465   3.988   5.827   3.897  0.1493 -0.3634 -0.2488
 3834TIP3    H111466   4.066   5.828   3.843 -0.6173 -1.4453 -1.4492
 3834TIP3    H211467   3.971   5.919   3.917 -0.4823  0.2933 -3.3305
 3835TIP3   OH211468   6.496   5.428   1.670 -0.2078 -0.0980  0.0933
 3835TIP3    H111469   6.516   5.422   1.576  0.0317  0.2904  0.1163
 3835TIP3    H211470   6.580   5.451   1.711 -0.2858 -0.3850  0.4186
 3836TIP3   OH211471   2.546   2.435   2.617 -0.0975  0.4161  0.0478
 3836TIP3    H111472   2.578   2.432   2.707  0.0314 -2.0009 -0.0059
 3836TIP3    H211473   2.458   2.399   2.621  0.1336 -0.3054 -0.8396
 3837TIP3   OH211474   7.037   4.665   3.261  0.4479  0.6314 -0.3314
 3837TIP3    H111475   7.055   4.571   3.264 -0.5004  0.3636 -1.9942
 3837TIP3    H211476   7.066   4.697   3.347 -0.3349 -1.3875  0.7745
 3838TIP3   OH211477   4.518   4.907   3.714 -0.2369 -0.4615 -0.1269
 3838TIP3    H111478   4.521   4.871   3.803  0.1836 -0.3418 -0.0885
 3838TIP3    H211479   4.599   4.958   3.707 -0.1127 -0.7350 -0.6940
 3839TIP3   OH211480   4.641   3.288   3.372 -0.5653 -0.0216  0.2735
 3839TIP3    H111481   4.647   3.294   3.277 -0.4171 -0.0903  0.2791
 3839TIP3    H211482   4.716   3.235   3.398  0.3921  1.4261  0.5798
 3840TIP3   OH211483   6.540   5.290   1.426  0.1726 -0.2388 -0.7824
 3840TIP3    H111484   6.476   5.232   1.384 -0.4800  0.0093 -0.1537
 3840TIP3    H211485   6.621   5.275   1.378 -0.7214  0.6067 -2.6545
 3841TIP3   OH211486   3.727   6.761   3.158  0.5980 -0.1639 -0.1435
 3841TIP3    H111487   3.671   6.791   3.086 -1.6485 -3.0926  0.2318
 3841TIP3    H211488   3.775   6.687   3.121  0.7768 -0.5557  0.8491
 3842TIP3   OH211489   4.185   6.253   2.260  0.1756 -0.8477 -0.3425
 3842TIP3    H111490   4.097   6.290   2.263  0.7412  0.5480  0.1964
 3842TIP3    H211491   4.173   6.165   2.226 -1.1722  0.1836 -2.8774
 3843TIP3   OH211492   5.184   3.045   3.892  0.0070 -0.2480 -0.2421
 3843TIP3    H111493   5.195   3.129   3.936 -0.2969 -0.9793  1.3171
 3843TIP3    H211494   5.090   3.027   3.897  0.0342 -0.5592 -0.8012
 3844TIP3   OH211495   1.321   5.044   4.567 -0.5531 -0.2881  0.5115
 3844TIP3    H111496   1.338   4.951   4.586 -0.7545 -0.4102  0.1222
 3844TIP3    H211497   1.257   5.071   4.632 -0.4950 -0.4249  0.6262
 3845TIP3   OH211498   2.959   6.233   4.361  0.3826 -0.0954 -1.0268
 3845TIP3    H111499   2.995   6.309   4.315 -0.9810  1.5526  0.4938
 3845TIP3    H211500   3.020   6.218   4.433  0.1282  0.2008 -0.7470
 3846TIP3   OH211501   3.878   4.791   3.115 -0.3122 -0.0871 -0.3364
 3846TIP3    H111502   3.906   4.796   3.024 -0.6686  0.4907 -0.4183
 3846TIP3    H211503   3.807   4.726   3.115  1.1179 -1.7320 -0.0904
 3847TIP3   OH211504   3.115   6.736   1.274  0.0090 -0.2405  0.0561
 3847TIP3    H111505   3.203   6.772   1.286  0.3872 -1.4124  1.0690
 3847TIP3    H211506   3.099   6.686   1.354 -2.3745  1.4857  0.7469
 3848TIP3   OH211507   1.255   4.403   4.398 -0.1437 -0.7297 -0.4736
 3848TIP3    H111508   1.327   4.422   4.459  0.3254 -0.9323 -0.9598
 3848TIP3    H211509   1.214   4.324   4.433 -1.6824  0.7236  1.1880
 3849TIP3   OH211510   7.086   2.371   4.249 -0.6726 -0.4758  0.7216
 3849TIP3    H111511   7.139   2.408   4.320 -0.8566 -1.4980  1.4175
 3849TIP3    H211512   7.021   2.316   4.294 -0.0636 -2.0716 -0.2769
 3850TIP3   OH211513   1.132   3.985   5.263  0.4933  0.6064  0.0109
 3850TIP3    H111514   1.206   4.036   5.298 -0.1854  1.2339  0.5751
 3850TIP3    H211515   1.170   3.900   5.242  0.8290 -0.1521  3.1493
 3851TIP3   OH211516   1.705   5.657   0.058 -0.4601 -0.5532 -0.5326
 3851TIP3    H111517   1.730   5.731   0.113  0.6056 -0.6173 -0.9126
 3851TIP3    H211518   1.618   5.631   0.090  0.0363 -0.4418  0.9536
 3852TIP3   OH211519   4.570   2.560   1.290 -0.0039  0.0701  0.4742
 3852TIP3    H111520   4.632   2.609   1.236 -0.2013  0.6064  0.7263
 3852TIP3    H211521   4.586   2.591   1.379  0.0572 -0.5298  0.6769
 3853TIP3   OH211522   3.945   5.733   1.169  0.3142  0.0127  0.1737
 3853TIP3    H111523   4.039   5.714   1.161 -0.0045 -2.2742  0.9782
 3853TIP3    H211524   3.939   5.796   1.241  1.3389  1.9216 -1.3245
 3854TIP3   OH211525   4.189   6.018   1.637  0.0809  0.0813 -0.3113
 3854TIP3    H111526   4.274   6.061   1.643 -0.2196  0.5964  0.3469
 3854TIP3    H211527   4.128   6.079   1.678 -0.4829 -0.6279 -0.0789
 3855TIP3   OH211528   3.517   5.276   3.930  1.0054 -0.1242 -0.4178
 3855TIP3    H111529   3.472   5.282   3.846 -0.8649  2.6173  0.6212
 3855TIP3    H211530   3.458   5.225   3.986  1.9166 -1.3543 -0.5473
 3856TIP3   OH211531   2.606   6.036   4.687  0.8443  0.4416  0.8254
 3856TIP3    H111532   2.688   6.028   4.734  0.0855  1.0616  2.3314
 3856TIP3    H211533   2.541   6.054   4.755 -0.6485 -0.6389 -0.2416
 3857TIP3   OH211534   2.421   5.094   0.687  0.0559 -0.5541  0.1687
 3857TIP3    H111535   2.462   5.174   0.718  0.3841 -0.4636 -0.4847
 3857TIP3    H211536   2.358   5.071   0.755 -0.3982  0.5308  0.1305
 3858TIP3   OH211537   1.106   4.123   4.361 -0.1930 -0.3583 -0.4428
 3858TIP3    H111538   1.133   4.146   4.272 -0.6403 -1.0896 -0.7753
 3858TIP3    H211539   1.163   4.050   4.385 -1.2150 -1.2886 -0.7915
 3859TIP3   OH211540   6.606   5.624   5.019 -0.0530 -0.4071 -0.2985
 3859TIP3    H111541   6.555   5.561   5.070  0.2034  0.1922  0.7223
 3859TIP3    H211542   6.631   5.576   4.940 -1.6616 -0.9005 -0.5349
 3860TIP3   OH211543   2.834   4.650   0.324 -0.1435 -0.0807 -0.5716
 3860TIP3    H111544   2.911   4.656   0.381 -0.5609 -0.8535  0.0989
 3860TIP3    H211545   2.864   4.597   0.250  0.5937  1.4893 -1.4348
 3861TIP3   OH211546   5.885   0.967   2.453  0.0816  0.0074 -0.4789
 3861TIP3    H111547   5.794   0.938   2.446  0.1026 -0.1246 -0.2152
 3861TIP3    H211548   5.912   0.984   2.363 -0.2982  0.3367 -0.5325
 3862TIP3   OH211549   4.848   6.337   1.931  0.0943  0.5604  0.2118
 3862TIP3    H111550   4.936   6.342   1.893 -0.0062  0.5121 -0.0230
 3862TIP3    H211551   4.846   6.252   1.976 -0.1256  0.1819 -0.5017
 3863TIP3   OH211552   5.113   4.000   4.374  0.5257 -0.2671 -0.1051
 3863TIP3    H111553   5.113   4.092   4.402  0.0246 -0.7309  1.5169
 3863TIP3    H211554   5.202   3.970   4.392  1.0319  0.1659 -1.6959
 3864TIP3   OH211555   0.089   2.750   3.456 -0.2075 -0.2907 -0.3604
 3864TIP3    H111556   0.007   2.775   3.499  0.6229 -0.8612  1.7005
 3864TIP3    H211557   0.068   2.747   3.363 -2.5173 -0.3760  0.1047
 3865TIP3   OH211558   3.737   6.352   2.654 -0.3890  0.0946 -0.6367
 3865TIP3    H111559   3.809   6.403   2.616 -1.2045  2.2711  0.5618
 3865TIP3    H211560   3.780   6.286   2.708  0.8009  2.2415  1.2032
 3866TIP3   OH211561   2.755   5.298   1.933  0.0480  0.3190 -0.0787
 3866TIP3    H111562   2.801   5.381   1.923 -0.4504  0.4183 -1.7303
 3866TIP3    H211563   2.727   5.274   1.845 -1.4213 -0.6837  0.6054
 3867TIP3   OH211564   6.390   6.204   5.643 -0.0295  0.2933  0.3590
 3867TIP3    H111565   6.367   6.294   5.666 -1.6550 -0.4615  2.0463
 3867TIP3    H211566   6.307   6.157   5.646  0.8567 -1.3679  0.0989
 3868TIP3   OH211567   3.264   2.801   3.341 -0.5718 -0.1957  0.6632
 3868TIP3    H111568   3.214   2.876   3.374 -1.4634 -1.2920  1.8706
 3868TIP3    H211569   3.326   2.840   3.278 -2.3252  1.3026 -0.2409
 3869TIP3   OH211570   1.520   1.059   5.409  0.2692  0.2703  0.0081
 3869TIP3    H111571   1.452   1.126   5.402 -2.2793 -2.0380  0.7326
 3869TIP3    H211572   1.551   1.065   5.500 -1.2414 -0.5929  0.6189
 3870TIP3   OH211573   6.440   1.890   3.244 -0.0829 -0.0679  0.1210
 3870TIP3    H111574   6.445   1.814   3.302  0.6774 -0.1737 -0.0787
 3870TIP3    H211575   6.476   1.962   3.296 -1.3501  0.3045  0.5269
 3871TIP3   OH211576   4.248   0.757   0.100  0.2137  0.1527 -0.0685
 3871TIP3    H111577   4.251   0.665   0.126 -1.8377  0.0554 -0.0475
 3871TIP3    H211578   4.186   0.759   0.027  0.6077  1.4589 -0.3862
 3872TIP3   OH211579   3.937   2.904   1.129 -0.1390 -0.0681 -0.2188
 3872TIP3    H111580   4.009   2.870   1.182 -0.9396 -0.8766  0.3850
 3872TIP3    H211581   3.930   2.842   1.056  0.3720  0.5338 -0.7916
 3873TIP3   OH211582   4.667   0.470   1.247 -0.3176 -0.3243 -0.2640
 3873TIP3    H111583   4.719   0.496   1.171  0.0145 -2.6275 -0.9191
 3873TIP3    H211584   4.584   0.441   1.209 -0.8957  0.3631  0.4680
 3874TIP3   OH211585   1.552   6.211   3.231  0.0415  0.2689  0.2113
 3874TIP3    H111586   1.602   6.134   3.258 -1.4714 -0.5454  0.7520
 3874TIP3    H211587   1.511   6.243   3.311 -1.1227  0.3199 -0.3854
 3875TIP3   OH211588   6.392   1.154   3.792 -0.3975 -0.1139  0.2522
 3875TIP3    H111589   6.326   1.199   3.740  0.0793 -0.7958 -0.9975
 3875TIP3    H211590   6.451   1.224   3.821 -1.5424  0.4766  1.2554
 3876TIP3   OH211591   7.087   0.345   0.247  0.5366  0.2296  0.5809
 3876TIP3    H111592   7.165   0.360   0.193  0.4170  0.6355  0.5217
 3876TIP3    H211593   7.113   0.275   0.307  0.9737  0.4066  0.6043
 3877TIP3   OH211594   2.992   0.585   2.406  0.0325  0.1776  0.4098
 3877TIP3    H111595   2.915   0.594   2.351  1.7884 -0.6086 -2.3861
 3877TIP3    H211596   2.998   0.491   2.424  0.7584  0.1110 -0.1202
 3878TIP3   OH211597   6.847   0.865   5.628  0.2645 -0.5027 -0.1495
 3878TIP3    H111598   6.766   0.911   5.649 -1.1146 -2.5666 -0.6902
 3878TIP3    H211599   6.847   0.788   5.685  1.5462 -0.8685 -0.5978
 3879TIP3   OH211600   6.869   0.287   5.750 -0.1733  0.4342 -0.1802
 3879TIP3    H111601   6.918   0.295   5.832 -0.5200  0.1992  0.0555
 3879TIP3    H211602   6.907   0.210   5.707 -0.6752 -0.0526  0.2421
 3880TIP3   OH211603   1.110   5.933   4.161 -0.1098  0.0061  0.0039
 3880TIP3    H111604   1.119   5.873   4.236 -1.4923 -0.4107 -0.1508
 3880TIP3    H211605   1.035   5.987   4.182 -0.5477 -0.1454 -1.1075
 3881TIP3   OH211606   3.249   1.185   2.002  0.2340  0.1095  0.1331
 3881TIP3    H111607   3.302   1.256   1.965  1.3817 -0.7252  0.1357
 3881TIP3    H211608   3.192   1.158   1.930 -1.7680  2.4058  0.7133
 3882TIP3   OH211609   0.845   2.318   4.883  0.2944  0.0178 -0.2034
 3882TIP3    H111610   0.777   2.358   4.828  0.5540 -0.1055 -0.6181
 3882TIP3    H211611   0.800   2.293   4.964 -0.0073  0.5627 -0.2004
 3883TIP3   OH211612   0.532   1.891   0.906  0.2119  0.5320  0.7614
 3883TIP3    H111613   0.561   1.799   0.904 -0.7875  0.2089 -1.0526
 3883TIP3    H211614   0.609   1.939   0.936  0.7438 -0.8943  1.7967
 3884TIP3   OH211615   3.115   6.071   0.460 -0.3841 -0.1273  0.7697
 3884TIP3    H111616   3.125   6.010   0.533 -0.0621 -1.5220 -0.3698
 3884TIP3    H211617   3.203   6.080   0.424 -0.6878 -0.2685 -0.0387
 3885TIP3   OH211618   3.979   6.447   2.597 -0.3001 -0.2181 -0.4094
 3885TIP3    H111619   4.073   6.464   2.588 -0.3244  0.9099  0.9808
 3885TIP3    H211620   3.937   6.513   2.542 -0.2926 -0.8448 -1.1830
 3886TIP3   OH211621   2.685   0.271   3.702  0.0181 -0.7066 -0.4964
 3886TIP3    H111622   2.773   0.265   3.665 -0.7210 -0.0910 -2.4668
 3886TIP3    H211623   2.635   0.322   3.638 -1.4068  0.3042  1.3014
 3887TIP3   OH211624   3.837   5.378   1.917 -0.5929  0.0914  0.1297
 3887TIP3    H111625   3.882   5.330   1.848 -0.3714 -0.2019  0.4709
 3887TIP3    H211626   3.851   5.471   1.895 -1.5706  0.0124 -0.8743
 3888TIP3   OH211627   7.065   4.150   0.085 -0.0314  0.5582 -0.5639
 3888TIP3    H111628   7.156   4.124   0.104  0.1579  0.7277 -1.2104
 3888TIP3    H211629   7.070   4.243   0.066 -0.2882  0.5020 -0.9200
 3889TIP3   OH211630   3.929   0.299   1.411  0.4323  0.9159 -0.3657
 3889TIP3    H111631   3.916   0.260   1.497  0.2623  0.0935 -0.7576
 3889TIP3    H211632   3.894   0.388   1.419 -1.2541  0.2525 -0.0961
 3890TIP3   OH211633   6.749   2.020   1.663  0.8060  0.1128  0.0745
 3890TIP3    H111634   6.674   2.069   1.697  0.1652  0.3259 -1.5876
 3890TIP3    H211635   6.726   1.928   1.679  0.3450  0.1929 -0.1174
 3891TIP3   OH211636   3.840   2.237   0.920 -0.5030 -0.0786  0.1082
 3891TIP3    H111637   3.934   2.226   0.909 -0.7470 -0.5560 -2.0233
 3891TIP3    H211638   3.812   2.158   0.966 -0.0024 -0.4488 -0.2129
 3892TIP3   OH211639   6.186   0.091   0.781  0.4899 -0.2316  0.2655
 3892TIP3    H111640   6.249   0.101   0.852  1.4531  1.2513 -0.7285
 3892TIP3    H211641   6.140   0.175   0.778  0.1372 -0.4437 -0.5519
 3893TIP3   OH211642   2.860   0.334   1.490  0.0556 -0.0973 -0.2736
 3893TIP3    H111643   2.866   0.273   1.416  0.3226  1.5558 -1.6786
 3893TIP3    H211644   2.950   0.343   1.521 -0.3464 -2.8318  2.0943
 3894TIP3   OH211645   0.559   5.024   0.880 -0.0212  0.4255 -0.0903
 3894TIP3    H111646   0.514   5.096   0.836  1.1442  1.7899  0.8412
 3894TIP3    H211647   0.489   4.967   0.912 -0.9896  1.3522 -0.5084
 3895TIP3   OH211648   3.171   1.858   5.548  0.1393 -0.1819  0.0142
 3895TIP3    H111649   3.265   1.865   5.536  0.1317 -0.2030 -0.0616
 3895TIP3    H211650   3.156   1.883   5.639  0.2021 -0.0450 -0.0128
 3896TIP3   OH211651   0.580   5.519   3.901 -0.0162  0.6714 -0.2846
 3896TIP3    H111652   0.609   5.610   3.892 -0.2988  0.9751  1.4910
 3896TIP3    H211653   0.578   5.486   3.811  2.7422  1.5861 -0.7942
 3897TIP3   OH211654   2.916   6.174   3.972 -0.0744 -0.3570 -0.1345
 3897TIP3    H111655   2.970   6.250   3.993 -1.5820  1.2756 -1.7591
 3897TIP3    H211656   2.857   6.165   4.046 -0.9137  1.0844 -0.5932
 3898TIP3   OH211657   1.709   2.691   2.915  0.0884 -0.2259 -0.1084
 3898TIP3    H111658   1.683   2.645   2.994 -3.3754 -0.4370 -1.2136
 3898TIP3    H211659   1.744   2.622   2.857 -0.8908 -0.7204 -0.1225
 3899TIP3   OH211660   4.521   6.802   1.719  0.2925  0.6166 -0.4896
 3899TIP3    H111661   4.437   6.756   1.724  0.5250  0.2935  0.7382
 3899TIP3    H211662   4.548   6.792   1.627 -0.6099  0.0201 -0.7051
 3900TIP3   OH211663   3.577   2.183   5.248  0.2585  0.0758 -0.2877
 3900TIP3    H111664   3.607   2.256   5.303 -0.3494  0.7826 -0.8642
 3900TIP3    H211665   3.578   2.218   5.159  0.6320 -0.8566 -0.6537
 3901TIP3   OH211666   3.694   0.556   3.882  0.2671  0.5289 -0.3739
 3901TIP3    H111667   3.619   0.497   3.887  0.0234  0.9244  1.6385
 3901TIP3    H211668   3.744   0.539   3.962  0.3028  2.8641  0.1868
 3902TIP3   OH211669   4.498   5.169   4.588  0.1847 -0.3024  0.1530
 3902TIP3    H111670   4.593   5.172   4.575  0.0951  0.4548 -0.4124
 3902TIP3    H211671   4.462   5.160   4.500 -0.2528 -1.3792  0.4249
 3903TIP3   OH211672   3.423   1.428   1.001 -0.4126  0.4041  0.4850
 3903TIP3    H111673   3.510   1.408   1.033 -1.2346 -1.5458  1.6988
 3903TIP3    H211674   3.421   1.391   0.912  0.2041  1.1686  0.1348
 3904TIP3   OH211675   4.765   0.264   0.801  0.2463  0.9489  0.8554
 3904TIP3    H111676   4.752   0.210   0.723  1.1008  2.6667 -0.5393
 3904TIP3    H211677   4.854   0.244   0.830 -0.0071  0.4441  1.2978
 3905TIP3   OH211678   5.909   2.498   5.603  0.0464 -0.0858  0.1292
 3905TIP3    H111679   5.901   2.592   5.616 -0.9061 -0.1732  0.2069
 3905TIP3    H211680   5.842   2.459   5.659  1.4886 -0.9117  1.3646
 3906TIP3   OH211681   3.103   0.638   2.672  0.0320  0.5420  0.0170
 3906TIP3    H111682   3.108   0.644   2.577 -1.2736 -1.1550 -0.2078
 3906TIP3    H211683   3.124   0.547   2.692  1.3175  1.0956  1.4852
 3907TIP3   OH211684   1.333   6.057   0.584 -0.1883  0.2663  0.1948
 3907TIP3    H111685   1.358   6.143   0.618 -2.4521 -0.0641  2.9972
 3907TIP3    H211686   1.240   6.064   0.563 -0.0520 -1.0832 -1.0970
 3908TIP3   OH211687   2.337   2.627   5.565  0.1799 -0.3348  0.2146
 3908TIP3    H111688   2.311   2.706   5.517  0.9613 -1.6208 -2.4976
 3908TIP3    H211689   2.429   2.614   5.543  0.3211 -1.4940  1.3645
 3909TIP3   OH211690   3.884   5.078   5.065  0.4127 -0.2280  0.2439
 3909TIP3    H111691   3.835   5.157   5.043  2.1385  0.8860  0.1937
 3909TIP3    H211692   3.821   5.007   5.055 -0.9471  1.0397 -0.5976
 3910TIP3   OH211693   3.794   0.755   3.723 -0.8042 -0.5297  0.4933
 3910TIP3    H111694   3.777   0.829   3.781  0.1015 -0.2595  0.4255
 3910TIP3    H211695   3.752   0.681   3.767  2.9529 -1.1820  3.5896
 3911TIP3   OH211696   3.248   3.116   2.939  0.1637 -0.3315 -0.1614
 3911TIP3    H111697   3.156   3.137   2.923  0.2548 -0.5380 -0.9954
 3911TIP3    H211698   3.293   3.200   2.931 -0.2982  0.4663  3.5390
 3912TIP3   OH211699   4.813   3.173   4.659 -0.1221  0.0973  0.2352
 3912TIP3    H111700   4.900   3.210   4.675  0.6579 -2.3175  2.2596
 3912TIP3    H211701   4.756   3.249   4.648  2.0578  1.7629 -0.2787
 3913TIP3   OH211702   2.854   4.273   3.349 -0.2486  0.4020  0.1027
 3913TIP3    H111703   2.761   4.257   3.333  0.0002 -1.8159  0.5582
 3913TIP3    H211704   2.864   4.270   3.444  0.3217  0.3200  0.0479
 3914TIP3   OH211705   6.908   0.755   4.300  0.0864  0.1324 -0.3487
 3914TIP3    H111706   6.817   0.757   4.270  0.0805  0.5708 -0.3144
 3914TIP3    H211707   6.903   0.726   4.391  0.1454 -1.6999 -0.8921
 3915TIP3   OH211708   6.483   4.846   5.556  0.4436 -0.2228 -0.0857
 3915TIP3    H111709   6.473   4.880   5.645  0.4310 -1.3983  0.3794
 3915TIP3    H211710   6.406   4.877   5.509  1.0237  1.3987 -0.0337
 3916TIP3   OH211711   0.718   3.879   2.953  0.0068 -0.0343 -0.4245
 3916TIP3    H111712   0.746   3.810   2.893 -0.4066  0.8159 -1.6570
 3916TIP3    H211713   0.786   3.946   2.945 -0.5937  0.5443 -0.7727
 3917TIP3   OH211714   1.826   1.159   0.663 -0.2008 -0.5119 -0.4356
 3917TIP3    H111715   1.835   1.111   0.745  0.2891  0.6513  0.2133
 3917TIP3    H211716   1.732   1.161   0.647 -0.3382 -0.3342  0.3518
 3918TIP3   OH211717   3.907   3.024   4.359  0.1928 -0.7689 -0.1104
 3918TIP3    H111718   3.843   2.982   4.301  0.1326 -1.2037  0.2624
 3918TIP3    H211719   3.990   2.982   4.335  0.3580 -0.1574 -0.6405
 3919TIP3   OH211720   3.853   5.813   5.363  0.2904  0.2235  0.1218
 3919TIP3    H111721   3.815   5.893   5.399  1.2782  1.0670 -0.6258
 3919TIP3    H211722   3.815   5.742   5.415 -2.7919  0.9078 -0.9809
 3920TIP3   OH211723   6.394   2.715   3.785  0.0965 -0.1508  0.1569
 3920TIP3    H111724   6.481   2.749   3.807  0.7822 -2.1856  0.7951
 3920TIP3    H211725   6.351   2.787   3.738  1.6398  1.3503  0.9649
 3921TIP3   OH211726   0.509   3.251   0.074  0.0581 -0.3222  0.2220
 3921TIP3    H111727   0.599   3.220   0.067  0.0582 -0.4657  0.7695
 3921TIP3    H211728   0.515   3.327   0.132 -0.1095 -0.0443 -0.1255
 3922TIP3   OH211729   0.669   1.334   3.005  0.5441 -0.1930 -0.4339
 3922TIP3    H111730   0.737   1.394   3.037  0.5057  0.7496 -1.9956
 3922TIP3    H211731   0.623   1.384   2.938 -3.2126  0.0453  1.9969
 3923TIP3   OH211732   6.932   5.820   3.442  0.1319 -0.0258 -0.2132
 3923TIP3    H111733   6.971   5.751   3.496  1.6775  0.8234 -0.1885
 3923TIP3    H211734   7.002   5.883   3.429 -0.4929  0.3168 -2.3606
 3924TIP3   OH211735   0.059   5.455   1.214  0.0977 -0.1273  0.2552
 3924TIP3    H111736   0.059   5.394   1.140 -1.2576  1.5680 -1.2038
 3924TIP3    H211737   0.150   5.455   1.244  0.4275 -1.7663 -0.6081
 3925TIP3   OH211738   6.020   5.900   5.052 -0.1028  0.0748  0.7644
 3925TIP3    H111739   6.031   5.991   5.023  0.1424  0.4353  1.9306
 3925TIP3    H211740   6.107   5.862   5.044 -0.5765 -0.7010 -1.6587
 3926TIP3   OH211741   5.003   1.547   3.323  0.0860  0.5130  0.1817
 3926TIP3    H111742   5.036   1.634   3.303 -0.3034  0.4557 -0.7706
 3926TIP3    H211743   4.926   1.537   3.267  1.0792 -1.0679 -0.9940
 3927TIP3   OH211744   4.282   3.633   3.415 -0.1971  0.7285  0.3544
 3927TIP3    H111745   4.334   3.603   3.341 -0.0762 -0.9195  1.0742
 3927TIP3    H211746   4.223   3.699   3.377 -0.6911 -0.6288 -1.3849
 3928TIP3   OH211747   2.922   4.362   1.459  0.2510 -0.3807 -0.2679
 3928TIP3    H111748   2.859   4.306   1.505  0.5816  0.0174  0.6898
 3928TIP3    H211749   2.887   4.450   1.467  0.5735 -0.2448 -0.3396
 3929TIP3   OH211750   0.269   1.939   2.240  0.5324  0.1832 -0.5039
 3929TIP3    H111751   0.208   1.938   2.314 -1.5335 -0.7523 -2.1321
 3929TIP3    H211752   0.308   1.852   2.241 -2.0399 -1.1229 -2.3971
 3930TIP3   OH211753   3.500   6.396   3.252  0.2590 -0.4008  0.0846
 3930TIP3    H111754   3.450   6.412   3.172 -0.3123 -0.2360  0.4702
 3930TIP3    H211755   3.504   6.301   3.259 -0.2702 -0.4157  0.2164
 3931TIP3   OH211756   4.875   0.773   0.351 -0.2591  0.0933 -0.5120
 3931TIP3    H111757   4.942   0.761   0.284 -1.0068  1.8794 -1.6314
 3931TIP3    H211758   4.834   0.686   0.359 -1.2750  0.1589 -3.6317
 3932TIP3   OH211759   6.057   4.124   5.669 -0.2233 -0.1155  0.0676
 3932TIP3    H111760   6.069   4.078   5.585  1.8294 -1.3846  0.9758
 3932TIP3    H211761   6.122   4.194   5.668  0.2615 -0.5367  0.8341
 3933TIP3   OH211762   4.698   0.679   2.266 -0.0671 -0.3723 -0.7131
 3933TIP3    H111763   4.782   0.725   2.261  0.1799 -0.7815 -0.3439
 3933TIP3    H211764   4.703   0.613   2.197  0.0188 -0.5655 -0.5231
 3934TIP3   OH211765   4.054   5.899   5.184  0.2210  0.0136 -0.6331
 3934TIP3    H111766   3.987   5.957   5.148  0.3012  0.0505 -0.7253
 3934TIP3    H211767   4.006   5.825   5.219  0.1400 -0.0178 -0.8078
 3935TIP3   OH211768   0.173   4.886   5.800  1.0288 -0.0730 -0.1858
 3935TIP3    H111769   0.168   4.791   5.816  1.0626 -0.2528 -1.1742
 3935TIP3    H211770   0.265   4.907   5.813  0.9987 -0.1483  0.1665
 3936TIP3   OH211771   0.450   5.317   3.078 -0.1472  0.1406 -0.6620
 3936TIP3    H111772   0.493   5.275   3.004 -0.2699  0.8920 -1.1682
 3936TIP3    H211773   0.371   5.266   3.092 -0.0519 -0.0897 -0.9517
 3937TIP3   OH211774   0.456   0.604   1.391 -0.3263  0.0411 -0.3858
 3937TIP3    H111775   0.367   0.573   1.377 -0.8198  0.4194  1.5780
 3937TIP3    H211776   0.450   0.699   1.382 -0.5675  0.2556  1.5007
 3938TIP3   OH211777   5.987   1.683   2.753 -0.5796  0.0146  0.6030
 3938TIP3    H111778   6.038   1.667   2.673  0.4354 -0.1784  1.2686
 3938TIP3    H211779   5.970   1.596   2.789 -0.3659  0.1314  0.9947
 3939TIP3   OH211780   1.441   4.992   2.739  0.5280  0.1333 -0.1571
 3939TIP3    H111781   1.384   4.950   2.804 -0.4532  2.2230  0.4332
 3939TIP3    H211782   1.517   4.935   2.733 -0.5474 -1.4914  0.8630
 3940TIP3   OH211783   2.758   1.427   4.406  0.0888  0.2447  0.6789
 3940TIP3    H111784   2.818   1.500   4.421  1.6387 -0.8000 -0.0900
 3940TIP3    H211785   2.677   1.468   4.377  0.8005  1.6857  0.6284
 3941TIP3   OH211786   0.103   4.818   3.221  0.0088  0.2193 -0.4323
 3941TIP3    H111787   0.145   4.844   3.139  0.8170  1.2953  0.2896
 3941TIP3    H211788   0.020   4.867   3.222 -0.9309 -1.2581 -1.4617
 3942TIP3   OH211789   0.021   6.050   1.571  0.0851 -0.1241 -0.0222
 3942TIP3    H111790   0.105   6.055   1.617  0.7382 -3.5746 -0.5643
 3942TIP3    H211791  -0.032   5.991   1.624 -1.4957  0.7814 -0.5092
 3943TIP3   OH211792   3.110   5.379   2.600  0.3729 -0.1876  0.7030
 3943TIP3    H111793   3.141   5.447   2.541  1.2587 -0.6947  0.5581
 3943TIP3    H211794   3.155   5.299   2.570  0.9852 -0.4227  2.1526
 3944TIP3   OH211795   1.564   4.671   0.724 -0.3598 -0.0470 -0.8556
 3944TIP3    H111796   1.484   4.632   0.690 -0.2090 -0.1400 -1.1050
 3944TIP3    H211797   1.613   4.699   0.647 -0.8161  1.3698 -0.6595
 3945TIP3   OH211798   1.045   2.195   2.387 -0.6195  0.2127 -0.1978
 3945TIP3    H111799   0.995   2.242   2.320 -2.1312 -0.5617  0.3463
 3945TIP3    H211800   1.078   2.265   2.445 -1.3986  0.7335 -0.3611
 3946TIP3   OH211801   1.683   0.618   1.864 -0.1221 -0.5069  0.3479
 3946TIP3    H111802   1.693   0.556   1.936  0.0177 -2.2758 -1.1042
 3946TIP3    H211803   1.770   0.620   1.823 -0.0141  0.9990  0.5951
 3947TIP3   OH211804   6.745   5.520   3.761 -0.4229 -0.2051 -0.5774
 3947TIP3    H111805   6.682   5.472   3.707  0.1013 -0.3202 -1.0986
 3947TIP3    H211806   6.693   5.587   3.804 -1.0694 -0.8909 -0.2638
 3948TIP3   OH211807   4.689   2.651   1.514 -0.3667  0.1266 -0.4263
 3948TIP3    H111808   4.764   2.593   1.520  1.0652  2.0050  1.8101
 3948TIP3    H211809   4.648   2.647   1.601 -0.7317  1.7220 -0.4809
 3949TIP3   OH211810   0.360   4.834   0.692  0.2546  0.0409 -0.0643
 3949TIP3    H111811   0.348   4.744   0.722  1.9822 -1.1465 -2.5812
 3949TIP3    H211812   0.447   4.834   0.651  0.0188  2.6838 -0.7227
 3950TIP3   OH211813   4.723   6.154   0.776 -0.0714  0.4694  0.1855
 3950TIP3    H111814   4.652   6.216   0.764 -0.0394  0.1976 -1.7057
 3950TIP3    H211815   4.728   6.141   0.871 -2.0859  0.9914  0.4093
 3951TIP3   OH211816   0.275   1.916   5.504  0.2170  0.2449 -0.0386
 3951TIP3    H111817   0.181   1.898   5.495  0.0691  1.2277 -0.5627
 3951TIP3    H211818   0.284   1.951   5.593  0.1094  0.0579  0.0474
 3952TIP3   OH211819   6.798   5.296   1.586 -0.4135  0.4147 -0.6727
 3952TIP3    H111820   6.726   5.240   1.557  0.1061 -0.2247 -0.7456
 3952TIP3    H211821   6.853   5.306   1.508  0.2560 -0.1746 -0.2904
 3953TIP3   OH211822   6.698   6.637   0.148 -0.2892 -0.0535  0.3908
 3953TIP3    H111823   6.768   6.575   0.129 -0.7120 -0.6547  0.7458
 3953TIP3    H211824   6.622   6.582   0.169 -0.9971  0.5762 -0.4424
 3954TIP3   OH211825   3.135   0.774   2.023 -0.5293 -0.0856  0.0160
 3954TIP3    H111826   3.192   0.790   1.948 -0.6482 -1.3085 -0.3499
 3954TIP3    H211827   3.081   0.699   1.997 -1.3403  0.1737  0.8950
 3955TIP3   OH211828   5.584   0.168   5.279 -0.3478  0.3004 -0.0431
 3955TIP3    H111829   5.568   0.262   5.277  0.2973  0.5779  2.9323
 3955TIP3    H211830   5.498   0.129   5.293 -0.6022  0.4296 -1.1755
 3956TIP3   OH211831   2.908   2.616   4.995 -0.3553  0.2393  0.4352
 3956TIP3    H111832   2.952   2.597   4.912 -2.0529  1.3912 -0.7893
 3956TIP3    H211833   2.897   2.531   5.036  0.7431 -0.3341 -0.3787
 3957TIP3   OH211834   1.354   4.490   0.797  0.2413 -0.2647  0.4821
 3957TIP3    H111835   1.411   4.414   0.785 -0.0678 -0.2523 -1.4001
 3957TIP3    H211836   1.326   4.485   0.888 -0.4502 -2.9184  0.2077
 3958TIP3   OH211837   0.788   6.014   0.103 -0.6196 -0.1455  0.0558
 3958TIP3    H111838   0.831   6.091   0.140  0.8130 -1.6150  1.6173
 3958TIP3    H211839   0.719   5.992   0.165 -0.4076 -0.6559  0.1189
 3959TIP3   OH211840   2.542   6.646   3.112  0.2726 -0.1792 -0.2024
 3959TIP3    H111841   2.464   6.599   3.081  1.1520 -0.7662 -1.6288
 3959TIP3    H211842   2.523   6.738   3.096 -0.6675 -0.1860  0.7588
 3960TIP3   OH211843   0.025   3.515   5.847 -0.8358 -0.1823 -0.1854
 3960TIP3    H111844   0.002   3.537   5.757  0.7584  0.9488 -0.3618
 3960TIP3    H211845  -0.020   3.432   5.864 -0.8022 -0.6597 -2.1647
 3961TIP3   OH211846   6.434   1.758   1.936  0.2078 -0.6390  0.1288
 3961TIP3    H111847   6.394   1.685   1.890 -1.0699 -0.8496  1.4860
 3961TIP3    H211848   6.521   1.767   1.896 -0.0030 -2.2065 -0.7723
 3962TIP3   OH211849   6.084   0.088   1.753 -0.3620 -0.4047  0.4761
 3962TIP3    H111850   6.038   0.025   1.698  0.2743  0.0467 -0.6145
 3962TIP3    H211851   6.177   0.071   1.736 -0.1760  0.4098  0.6187
 3963TIP3   OH211852   7.033   0.146   4.851 -0.3471  0.8488  0.5714
 3963TIP3    H111853   7.082   0.228   4.855 -3.1541  2.7212 -0.0395
 3963TIP3    H211854   6.957   0.161   4.907  0.1087 -2.2370  2.2312
 3964TIP3   OH211855   4.341   4.998   4.724 -0.1673  0.1594 -0.3111
 3964TIP3    H111856   4.410   5.053   4.687 -0.5356  1.3568  0.7215
 3964TIP3    H211857   4.263   5.019   4.674 -0.1667  0.1012 -0.3363
 3965TIP3   OH211858   3.432   3.589   0.623 -0.5734  0.4437  0.2421
 3965TIP3    H111859   3.385   3.509   0.600  1.1770 -0.1073 -1.7365
 3965TIP3    H211860   3.492   3.563   0.692 -1.5563  0.6338  1.2022
 3966TIP3   OH211861   4.962   5.269   4.374  0.0883 -0.3171 -0.0117
 3966TIP3    H111862   5.036   5.226   4.417 -0.7363 -0.7148  1.0652
 3966TIP3    H211863   4.929   5.331   4.439 -0.0577  0.4010 -0.7605
 3967TIP3   OH211864   0.483   5.721   2.939  0.3945 -0.1764 -0.0795
 3967TIP3    H111865   0.425   5.761   3.005  0.4260  3.8107 -2.1380
 3967TIP3    H211866   0.433   5.648   2.904 -1.7460  0.7292  0.9042
 3968TIP3   OH211867   6.419   0.143   2.159  0.9023 -0.4879  0.6124
 3968TIP3    H111868   6.462   0.220   2.122 -0.7145 -0.2797 -0.9796
 3968TIP3    H211869   6.342   0.177   2.203 -0.0590 -1.1991 -0.4721
 3969TIP3   OH211870   3.533   2.280   5.672  0.2080  0.4002  0.1212
 3969TIP3    H111871   3.613   2.281   5.724  0.5504  0.8073 -0.4063
 3969TIP3    H211872   3.465   2.310   5.732  0.2935 -0.7345  0.8049
 3970TIP3   OH211873   3.453   2.467   4.130 -0.5206  0.4927 -0.5749
 3970TIP3    H111874   3.422   2.515   4.207  0.4675 -0.6707  0.5994
 3970TIP3    H211875   3.525   2.519   4.096 -0.8565  0.9307 -0.6261
 3971TIP3   OH211876   5.912   1.428   1.052 -0.2117  0.4004 -0.1092
 3971TIP3    H111877   5.961   1.430   0.970  0.1585  0.4190  0.1094
 3971TIP3    H211878   5.928   1.341   1.088 -0.0441  0.5315  0.1394
 3972TIP3   OH211879   2.479   6.299   4.802  0.0872  0.4353 -0.6260
 3972TIP3    H111880   2.505   6.305   4.894 -0.6558 -0.6243 -0.3293
 3972TIP3    H211881   2.434   6.381   4.784  2.2527  1.6840 -0.7355
 3973TIP3   OH211882   7.092   2.559   3.580  0.8399  0.3247 -0.1425
 3973TIP3    H111883   7.052   2.645   3.564  1.4845  0.5124 -0.7906
 3973TIP3    H211884   7.132   2.536   3.496  0.3981 -0.7581 -0.0641
 3974TIP3   OH211885   0.300   6.100   4.014 -0.2306  0.1046  0.0249
 3974TIP3    H111886   0.337   6.031   4.068 -0.4633  0.1781  0.2770
 3974TIP3    H211887   0.248   6.053   3.948  1.5461 -0.1050 -1.3262
 3975TIP3   OH211888   0.239   4.551   1.167 -0.1473  0.2482 -0.4055
 3975TIP3    H111889   0.276   4.519   1.249  1.1289  2.5321 -0.0248
 3975TIP3    H211890   0.172   4.486   1.145 -0.3675 -0.5669  2.2826
 3976TIP3   OH211891   6.004   2.301   3.658 -0.2593  0.3177  0.7385
 3976TIP3    H111892   5.980   2.344   3.576 -0.4900  1.5698  1.4506
 3976TIP3    H211893   6.099   2.295   3.654 -0.3719 -1.7956 -0.6605
 3977TIP3   OH211894   3.159   6.326   4.035  0.3783 -0.2188  0.1656
 3977TIP3    H111895   3.160   6.375   3.952 -0.6913  0.5304  0.5789
 3977TIP3    H211896   3.251   6.317   4.058  0.6271  1.6673  0.0932
 3978TIP3   OH211897   1.788   2.677   5.361  0.1952  0.2442  0.2688
 3978TIP3    H111898   1.727   2.671   5.435 -0.4314  1.2743 -0.1542
 3978TIP3    H211899   1.732   2.689   5.285  0.8241 -1.0844 -0.4370
 3979TIP3   OH211900   6.321   4.127   2.292 -0.0634  0.0348  0.6648
 3979TIP3    H111901   6.340   4.034   2.287  0.5674  0.1478  0.9394
 3979TIP3    H211902   6.395   4.165   2.339  0.4788  0.8974 -0.7967
 3980TIP3   OH211903   2.596   2.859   4.147 -0.7888 -0.0364 -0.1884
 3980TIP3    H111904   2.544   2.782   4.170 -1.5043  0.3251 -0.5611
 3980TIP3    H211905   2.534   2.917   4.103  0.1329  0.0434 -1.4236
 3981TIP3   OH211906   5.159   4.396   0.181  0.7788  0.1455  0.1867
 3981TIP3    H111907   5.233   4.424   0.235  0.9580 -0.2320  0.1460
 3981TIP3    H211908   5.193   4.320   0.134  0.5937  0.4152 -0.3836
 3982TIP3   OH211909   7.117   0.895   5.677  0.3139  0.2032 -0.5576
 3982TIP3    H111910   7.026   0.911   5.652  0.4919  1.5912 -0.4162
 3982TIP3    H211911   7.115   0.891   5.773  0.6527  2.3593 -0.4028
 3983TIP3   OH211912   2.634   1.690   1.649  0.0080  0.5266 -0.1967
 3983TIP3    H111913   2.640   1.702   1.554  0.2888 -1.2707 -0.4268
 3983TIP3    H211914   2.700   1.751   1.684  0.4748  0.6251 -1.1967
 3984TIP3   OH211915   5.208   4.705   1.648 -0.6601 -0.6107  0.5739
 3984TIP3    H111916   5.144   4.679   1.713 -2.9148  0.3065 -1.1293
 3984TIP3    H211917   5.218   4.629   1.591 -1.9871 -0.0983 -0.4109
 3985TIP3   OH211918   0.104   3.056   3.853 -0.7047  0.2599  0.0758
 3985TIP3    H111919   0.181   3.107   3.825 -0.2508 -0.2399  0.3965
 3985TIP3    H211920   0.063   3.111   3.920 -0.4643  0.4084  0.1066
 3986TIP3   OH211921   4.039   3.223   4.839 -0.2632 -0.1611 -0.6529
 3986TIP3    H111922   4.085   3.303   4.814  0.1518 -0.2882 -0.3058
 3986TIP3    H211923   3.989   3.199   4.761 -0.9746  0.8339 -0.5225
 3987TIP3   OH211924   6.050   6.541   4.310  0.8152  1.2142 -0.4192
 3987TIP3    H111925   6.139   6.559   4.280  0.5136  0.3662 -1.9492
 3987TIP3    H211926   6.040   6.446   4.301 -0.5415  1.3950 -1.1946
 3988TIP3   OH211927   5.821   5.445   5.474  0.5657  0.0281  0.5078
 3988TIP3    H111928   5.861   5.524   5.438  0.4438  1.6922  3.6112
 3988TIP3    H211929   5.742   5.476   5.519  0.0785 -1.9693  1.1575
 3989TIP3   OH211930   1.670   3.788   0.965  0.6106  0.1980 -0.2793
 3989TIP3    H111931   1.673   3.875   1.005 -0.1100  0.6700 -1.1998
 3989TIP3    H211932   1.720   3.732   1.024 -1.5736  0.5403  2.0122
 3990TIP3   OH211933   0.595   2.330   0.848 -0.8430 -0.3568  0.6739
 3990TIP3    H111934   0.664   2.263   0.845 -1.2037 -0.7011 -1.0924
 3990TIP3    H211935   0.519   2.288   0.808 -0.6676  1.5002 -1.8722
 3991TIP3   OH211936   2.452   4.402   2.861 -0.2461 -0.3050 -0.8426
 3991TIP3    H111937   2.473   4.311   2.841  0.5020 -0.2444 -0.3411
 3991TIP3    H211938   2.358   4.401   2.880  0.0748 -1.3101  0.9477
 3992TIP3   OH211939   0.153   6.762   3.246  0.0510  0.2119  0.1646
 3992TIP3    H111940   0.156   6.670   3.221 -1.7590  0.5358 -1.4673
 3992TIP3    H211941   0.164   6.810   3.164 -3.2300  1.3602  0.2760
 3993TIP3   OH211942   6.775   6.431   2.698 -0.3436 -0.5514  0.1969
 3993TIP3    H111943   6.799   6.523   2.687 -0.1595 -0.3647  1.8485
 3993TIP3    H211944   6.740   6.404   2.613 -0.9645  1.2160 -0.1437
 3994TIP3   OH211945   3.155   5.554   3.130 -0.6189  0.0605  0.0590
 3994TIP3    H111946   3.168   5.510   3.047 -0.8076  0.9261 -0.4430
 3994TIP3    H211947   3.162   5.485   3.196  1.9444 -0.2744 -0.4657
 3995TIP3   OH211948   5.044   6.365   4.504  0.2839  0.4638 -0.2045
 3995TIP3    H111949   5.025   6.296   4.440 -0.6063 -0.1819  0.7347
 3995TIP3    H211950   4.998   6.338   4.583  0.8568  1.5721  0.5292
 3996TIP3   OH211951   4.817   3.725   4.195  0.0373  0.8286  0.1073
 3996TIP3    H111952   4.775   3.743   4.111  1.7566  2.2870 -0.4731
 3996TIP3    H211953   4.871   3.802   4.213  0.8137 -0.0654  1.8592
 3997TIP3   OH211954   5.373   3.440   5.648 -0.3983 -0.2678  0.1002
 3997TIP3    H111955   5.291   3.457   5.602 -0.2518  0.4101  0.0692
 3997TIP3    H211956   5.384   3.516   5.706  0.1561 -0.3921  0.1700
 3998TIP3   OH211957   3.102   6.703   4.699 -0.6304  0.3515  0.2350
 3998TIP3    H111958   3.022   6.755   4.692 -0.4601  0.5614 -0.1865
 3998TIP3    H211959   3.088   6.629   4.641 -0.7253  0.1194  0.5549
 3999TIP3   OH211960   5.321   1.318   5.606 -0.2006 -0.0211  0.1252
 3999TIP3    H111961   5.229   1.325   5.579 -0.2458  1.4224  0.5933
 3999TIP3    H211962   5.349   1.408   5.621  1.1390 -0.4798  0.5423
 4000TIP3   OH211963   0.576   3.178   5.354  1.0313 -0.5788  0.1508
 4000TIP3    H111964   0.634   3.102   5.351  0.5381 -0.9278 -0.6180
 4000TIP3    H211965   0.576   3.204   5.446  2.0707 -0.8317  0.2432
 4001TIP3   OH211966   1.978   2.785   4.650 -0.6876  0.2445  0.6143
 4001TIP3    H111967   1.975   2.812   4.559 -1.2384 -0.2163  0.4912
 4001TIP3    H211968   1.926   2.851   4.696 -0.3084  0.5445  0.6146
 4002TIP3   OH211969   5.667   4.671   3.140 -0.2873  0.5230  0.4536
 4002TIP3    H111970   5.731   4.605   3.114  0.3560  0.6995  1.5200
 4002TIP3    H211971   5.626   4.636   3.219 -1.2571  0.5816 -0.0058
 4003TIP3   OH211972   5.634   6.652   4.171 -0.4976 -0.0550  0.4186
 4003TIP3    H111973   5.694   6.581   4.150  0.1871  0.3594  0.9419
 4003TIP3    H211974   5.619   6.645   4.265  0.5172  1.1891  0.7040
 4004TIP3   OH211975   4.135   5.439   3.488  0.1127  0.8283  0.2600
 4004TIP3    H111976   4.128   5.447   3.393  1.6076 -0.6530 -0.0273
 4004TIP3    H211977   4.189   5.513   3.515  0.4002  0.7746 -0.1656
 4005TIP3   OH211978   4.249   0.100   4.562  0.3616  0.7636 -0.2729
 4005TIP3    H111979   4.178   0.066   4.616  0.4894  0.1229 -0.5013
 4005TIP3    H211980   4.208   0.168   4.508 -0.5555 -0.8942 -1.7983
 4006TIP3   OH211981   0.141   0.216   5.829  0.9781  0.1203 -0.2317
 4006TIP3    H111982   0.101   0.283   5.773 -0.6585 -1.0823 -0.5775
 4006TIP3    H211983   0.219   0.188   5.781  0.2223 -0.0897 -1.3828
 4007TIP3   OH211984   3.272   4.105   1.886 -0.3101  0.2117  0.0243
 4007TIP3    H111985   3.367   4.117   1.881 -0.4562  0.9330 -2.7897
 4007TIP3    H211986   3.260   4.019   1.927  1.5816 -0.3135 -0.4394
 4008TIP3   OH211987   4.717   0.938   0.492 -0.3131  0.7307 -0.1350
 4008TIP3    H111988   4.722   0.895   0.577  0.3068  1.3563  0.1532
 4008TIP3    H211989   4.772   0.884   0.435 -0.4535  0.5037 -0.0569
 4009TIP3   OH211990   0.745   4.158   3.231  0.1777 -0.6148  0.3308
 4009TIP3    H111991   0.700   4.092   3.283  0.2452 -0.3128  0.7798
 4009TIP3    H211992   0.728   4.241   3.277 -2.6096  0.2049 -1.8992
 4010TIP3   OH211993   6.590   1.500   2.177  0.0697 -0.7373 -0.0665
 4010TIP3    H111994   6.665   1.444   2.200  0.5590  0.3199  1.0360
 4010TIP3    H211995   6.516   1.459   2.222  0.1973 -1.1378 -0.2127
 4011TIP3   OH211996   2.678   0.919   4.376 -0.0891 -0.4783  0.3745
 4011TIP3    H111997   2.671   0.917   4.471  0.2341 -1.2648  0.3925
 4011TIP3    H211998   2.739   0.991   4.358 -0.8642  0.2768  0.7038
 4012TIP3   OH211999   6.026   1.444   3.579  0.2692  0.3243  0.1968
 4012TIP3    H112000   5.933   1.428   3.595  0.3436  0.0944  0.4022
 4012TIP3    H212001   6.028   1.498   3.500 -0.0984  1.3860  0.8879
 4013TIP3   OH212002   3.633   6.638   5.643  0.0652 -0.0217  0.3255
 4013TIP3    H112003   3.628   6.619   5.737  0.3856  0.0204  0.3520
 4013TIP3    H212004   3.552   6.685   5.624 -0.1191 -0.2553  0.5296
 4014TIP3   OH212005   3.515   1.339   0.463 -0.6377  0.0069  0.1935
 4014TIP3    H112006   3.508   1.407   0.396  0.7865 -0.1013 -0.1009
 4014TIP3    H212007   3.434   1.290   0.456 -0.4037 -0.1861 -1.6754
 4015TIP3   OH212008   0.380   1.429   0.810  0.3449 -0.3729 -0.2617
 4015TIP3    H112009   0.285   1.422   0.805  0.2291  0.7374  0.2223
 4015TIP3    H212010   0.409   1.423   0.719 -0.5306  3.4538 -0.9836
 4016TIP3   OH212011   6.855   4.693   0.865  0.1747  0.4105  0.8817
 4016TIP3    H112012   6.856   4.757   0.793  0.1246  1.7348  2.0099
 4016TIP3    H212013   6.898   4.616   0.829  0.2016  1.0559 -0.5518
 4017TIP3   OH212014   4.337   6.743   2.042  0.0996 -0.1370 -0.0109
 4017TIP3    H112015   4.405   6.810   2.033  0.6467 -0.6170  0.4842
 4017TIP3    H212016   4.366   6.689   2.115 -0.1346 -1.1532 -0.6444
 4018TIP3   OH212017   0.076   3.720   4.080 -0.4433 -0.6175 -0.3302
 4018TIP3    H112018   0.015   3.778   4.035 -0.5330 -0.6160 -0.2070
 4018TIP3    H212019   0.023   3.645   4.106 -0.3250 -0.7618 -0.5001
 4019TIP3   OH212020   2.771   2.904   1.510 -0.4040 -0.2573 -0.3076
 4019TIP3    H112021   2.683   2.894   1.474 -1.3278 -0.2607  1.7942
 4019TIP3    H212022   2.781   2.999   1.524  0.2900 -0.1612 -1.2973
 4020TIP3   OH212023   3.223   0.717   2.958 -0.0834  0.0236 -0.1891
 4020TIP3    H112024   3.221   0.706   2.863 -1.7973 -0.1103 -0.1691
 4020TIP3    H212025   3.295   0.661   2.988  1.2644  0.9807 -1.4852
 4021TIP3   OH212026   4.335   2.454   5.283  0.1439 -0.4885  0.0611
 4021TIP3    H112027   4.280   2.532   5.289 -0.2065 -0.7960  0.9422
 4021TIP3    H212028   4.283   2.384   5.322  0.0556 -1.3973 -1.5800
 4022TIP3   OH212029   4.026   0.444   2.064 -0.2483 -0.2401 -0.1094
 4022TIP3    H112030   4.025   0.535   2.096 -0.8271 -0.0245 -0.7230
 4022TIP3    H212031   4.003   0.392   2.141  0.1970  0.1183  0.2781
 4023TIP3   OH212032   1.078   4.381   1.251  0.4300  0.1108 -0.1186
 4023TIP3    H112033   1.016   4.332   1.305  2.0221 -0.0057  1.7237
 4023TIP3    H212034   1.118   4.444   1.311  1.8608  0.3782 -1.2965
 4024TIP3   OH212035   2.107   3.708   2.234 -0.7308  0.5176 -1.1509
 4024TIP3    H112036   2.072   3.639   2.177  0.3538 -1.1706  0.1435
 4024TIP3    H212037   2.130   3.779   2.174 -0.4580 -0.8476 -2.7289
 4025TIP3   OH212038   4.090   1.541   1.346 -0.2661  0.0416 -0.0857
 4025TIP3    H112039   4.113   1.509   1.434  2.3862 -0.4992 -0.8730
 4025TIP3    H212040   4.124   1.630   1.344 -2.6635  1.0454  0.2255
 4026TIP3   OH212041   5.488   0.476   1.740  0.0588 -0.1074  0.7132
 4026TIP3    H112042   5.459   0.521   1.661  0.9655 -0.1617  0.3395
 4026TIP3    H212043   5.407   0.454   1.786 -0.5455 -1.0837 -0.7542
 4027TIP3   OH212044   2.298   2.721   1.878  0.4256  0.3590 -0.2775
 4027TIP3    H112045   2.388   2.717   1.912 -0.1085 -1.7805  1.1219
 4027TIP3    H212046   2.248   2.762   1.947  0.1702  0.8174 -0.7269
 4028TIP3   OH212047   2.930   0.760   0.898  0.0627  0.0789 -0.0865
 4028TIP3    H112048   2.835   0.746   0.892 -0.0645  0.8846 -0.0947
 4028TIP3    H212049   2.945   0.785   0.989  0.4311 -1.0956  0.1986
 4029TIP3   OH212050   3.782   0.442   0.228  0.3572  0.0758 -0.2412
 4029TIP3    H112051   3.859   0.402   0.269 -0.4560 -1.5195 -0.2176
 4029TIP3    H212052   3.816   0.482   0.148  1.6107  1.5065  0.9367
 4030TIP3   OH212053   0.525   4.037   4.791  0.3524  0.3291 -0.0289
 4030TIP3    H112054   0.558   3.971   4.852  0.9786  0.3811 -0.3022
 4030TIP3    H212055   0.604   4.080   4.757 -0.0027  0.5566 -0.5866
 4031TIP3   OH212056   7.130   4.775   4.856  0.2250  0.1846 -0.1001
 4031TIP3    H112057   7.099   4.775   4.765 -1.5773  1.8594  0.4291
 4031TIP3    H212058   7.087   4.852   4.895 -1.9142 -2.3615  3.0654
 4032TIP3   OH212059   2.007   2.679   3.983 -0.3997  0.4448  0.4870
 4032TIP3    H112060   2.077   2.631   4.027 -1.2417 -3.3919 -1.8661
 4032TIP3    H212061   1.935   2.680   4.046 -0.3606 -1.5696  0.6200
 4033TIP3   OH212062   0.719   2.031   5.308  0.2351  0.2352 -0.7033
 4033TIP3    H112063   0.643   2.060   5.358  0.4754  1.6466 -1.1153
 4033TIP3    H212064   0.772   1.983   5.371 -0.8505 -0.5489 -0.3464
 4034TIP3   OH212065   6.354   0.944   4.568  0.0152 -0.5835 -0.1568
 4034TIP3    H112066   6.302   0.971   4.644  0.7253  2.0549 -0.5307
 4034TIP3    H212067   6.293   0.947   4.495  0.3961  1.5662 -0.4343
 4035TIP3   OH212068   3.627   2.614   0.937 -0.0075  0.0602 -0.3691
 4035TIP3    H112069   3.534   2.590   0.945  0.4346 -1.5194  0.3460
 4035TIP3    H212070   3.671   2.562   1.004  1.3721  1.0096 -0.5071
 4036TIP3   OH212071   3.725   5.269   2.710 -0.1574  0.1043  0.0750
 4036TIP3    H112072   3.654   5.225   2.757  0.7541 -2.4329 -0.7547
 4036TIP3    H212073   3.782   5.302   2.780 -1.0647  0.3194  0.7396
 4037TIP3   OH212074   3.074   6.460   4.262 -0.0596 -0.1417  0.0711
 4037TIP3    H112075   3.007   6.519   4.227 -0.2927 -0.7305 -0.5097
 4037TIP3    H212076   3.137   6.449   4.190  1.1171  1.0446  0.8846
 4038TIP3   OH212077   5.254   1.584   2.662 -0.3079 -0.5966 -0.0703
 4038TIP3    H112078   5.262   1.502   2.613 -0.9683 -1.1958  0.7900
 4038TIP3    H212079   5.319   1.576   2.732 -0.1563 -0.2407 -0.1693
 4039TIP3   OH212080   3.526   5.465   5.371 -0.5904 -0.1274 -0.5077
 4039TIP3    H112081   3.528   5.546   5.320  0.8880 -1.0541 -2.0279
 4039TIP3    H212082   3.449   5.418   5.338 -0.3382 -0.1835 -1.0276
 4040TIP3   OH212083   0.729   4.709   4.036  0.1744  0.2758  0.0673
 4040TIP3    H112084   0.778   4.746   4.110 -1.1489  1.1788  0.5517
 4040TIP3    H212085   0.756   4.618   4.032  1.5748  0.6429  0.5459
 4041TIP3   OH212086   6.413   1.382   0.523  0.1918 -0.0342  0.1764
 4041TIP3    H112087   6.355   1.454   0.500 -3.2996 -1.6045  2.9781
 4041TIP3    H212088   6.379   1.307   0.473  0.3660 -0.7747  1.1341
 4042TIP3   OH212089   4.205   5.318   2.762 -0.4014 -0.0985 -0.8665
 4042TIP3    H112090   4.265   5.389   2.783 -0.3236  0.0981 -1.7160
 4042TIP3    H212091   4.246   5.240   2.800  0.3384  0.0511 -1.3450
 4043TIP3   OH212092   2.901   3.153   3.170 -0.1548 -0.4332  0.0374
 4043TIP3    H112093   2.915   3.167   3.077 -0.3193  1.1408  0.2324
 4043TIP3    H212094   2.810   3.178   3.185 -0.5210 -1.8623  0.4302
 4044TIP3   OH212095   4.940   3.574   3.029  0.3520  0.1924  0.0608
 4044TIP3    H112096   4.909   3.534   2.948  2.7575 -2.8192  0.4152
 4044TIP3    H212097   4.956   3.499   3.087  0.8909  2.0820  2.5182
 4045TIP3   OH212098   3.587   4.777   1.756 -0.3765  0.1444 -0.1560
 4045TIP3    H112099   3.619   4.867   1.765  0.0089 -0.0492  0.4502
 4045TIP3    H212100   3.602   4.737   1.842 -0.1801 -0.6186 -0.5350
 4046TIP3   OH212101   3.378   6.388   1.994  0.0088  0.1556 -0.9360
 4046TIP3    H112102   3.368   6.417   2.085 -2.3306 -0.0466 -1.0711
 4046TIP3    H212103   3.460   6.429   1.965  0.0085  1.4943  0.7744
 4047TIP3   OH212104   5.915   2.334   1.383  0.0542 -0.4030 -0.2668
 4047TIP3    H112105   5.929   2.406   1.444  2.5881 -0.2054 -0.9756
 4047TIP3    H212106   5.820   2.321   1.383 -0.1871  0.7021  2.3669
 4048TIP3   OH212107   0.946   1.808   4.236 -0.2275 -0.3955 -0.4479
 4048TIP3    H112108   0.880   1.745   4.206  1.4632 -1.9121 -1.2033
 4048TIP3    H212109   0.951   1.794   4.331  0.5257 -1.8731 -0.6744
 4049TIP3   OH212110   6.866   3.873   2.530  0.5685 -0.3921  0.0512
 4049TIP3    H112111   6.891   3.921   2.451  0.3240 -2.0090 -1.0476
 4049TIP3    H212112   6.945   3.828   2.558  0.5995  0.0003  0.6318
 4050TIP3   OH212113   6.374   4.724   0.011  0.3305  0.3084  0.1059
 4050TIP3    H112114   6.312   4.796   0.023  0.5104  0.5224 -0.2293
 4050TIP3    H212115   6.460   4.762   0.030  0.4481  0.2399 -0.2619
 4051TIP3   OH212116   4.960   5.244   1.556  0.1215 -0.2557 -0.1441
 4051TIP3    H112117   4.968   5.151   1.538 -0.7915 -0.6064  1.0752
 4051TIP3    H212118   5.045   5.269   1.593  0.1556 -0.7625  0.1274
 4052TIP3   OH212119   5.962   4.235   4.198 -0.3181 -0.0260 -0.2198
 4052TIP3    H112120   6.020   4.180   4.146 -0.4540  1.6138 -2.2340
 4052TIP3    H212121   5.997   4.323   4.188 -1.9047  0.7017  0.2896
 4053TIP3   OH212122   0.111   3.809   0.129  0.3219 -0.2396  0.1409
 4053TIP3    H112123   0.036   3.799   0.188  0.5247 -0.0233  0.4447
 4053TIP3    H212124   0.176   3.748   0.163  0.8094  0.5930  0.7647
 4054TIP3   OH212125   3.190   1.225   3.739 -0.0792  0.4341  0.4943
 4054TIP3    H112126   3.225   1.161   3.677  0.3015 -2.2840  3.2577
 4054TIP3    H212127   3.095   1.220   3.727 -0.0570 -0.7425  0.7155
 4055TIP3   OH212128   5.947   1.342   5.341 -0.2006 -0.3840 -0.1852
 4055TIP3    H112129   5.888   1.396   5.395  0.4625 -0.1882  0.3591
 4055TIP3    H212130   5.916   1.253   5.354 -0.7503 -0.2292 -0.3841
 4056TIP3   OH212131   5.702   1.055   5.165  0.3914  0.1368 -0.2487
 4056TIP3    H112132   5.734   1.070   5.076  0.1136  0.4713 -0.2967
 4056TIP3    H212133   5.653   0.973   5.159  1.7531 -0.7208 -0.0340
 4057TIP3   OH212134   7.118   4.499   4.193  0.7909 -0.1286  0.2093
 4057TIP3    H112135   7.142   4.590   4.173  1.1952  0.5713  3.3660
 4057TIP3    H212136   7.201   4.451   4.191  0.6767 -0.3145 -0.7198
 4058TIP3   OH212137   2.666   4.051   0.449 -0.2148  0.1456 -0.1749
 4058TIP3    H112138   2.678   4.088   0.537  1.3934 -1.7710  0.5014
 4058TIP3    H212139   2.682   3.958   0.460 -2.0061 -0.4646 -2.1793
 4059TIP3   OH212140   0.013   6.706   5.452 -0.4957  0.4153 -0.1053
 4059TIP3    H112141  -0.049   6.763   5.498 -1.2636 -1.1561  0.9287
 4059TIP3    H212142   0.099   6.731   5.485 -0.5841  2.2692 -1.1555
 4060TIP3   OH212143   6.960   2.018   3.066  0.7206  0.0479 -0.5470
 4060TIP3    H112144   6.872   1.998   3.097  0.7003 -1.8856 -1.6651
 4060TIP3    H212145   6.980   2.103   3.103 -1.7404  0.6878 -0.5187
 4061TIP3   OH212146   6.885   6.616   0.784  0.1577 -0.1142 -0.6604
 4061TIP3    H112147   6.962   6.673   0.776  0.1736  0.3807  1.9833
 4061TIP3    H212148   6.921   6.534   0.819 -0.2014 -0.8734 -2.0245
 4062TIP3   OH212149   1.123   5.127   4.776  0.1259  0.4454  0.0599
 4062TIP3    H112150   1.189   5.190   4.804  1.6127 -0.5126 -1.1170
 4062TIP3    H212151   1.125   5.059   4.843  2.2611 -0.8578 -1.1902
 4063TIP3   OH212152   2.359   1.293   1.691  0.2303 -0.3439  0.7083
 4063TIP3    H112153   2.388   1.350   1.762 -1.4593  0.4662  0.8048
 4063TIP3    H212154   2.416   1.314   1.618  1.9355 -1.1117  1.7401
 4064TIP3   OH212155   2.391   3.978   4.781  1.0647 -0.0576  0.0224
 4064TIP3    H112156   2.444   3.951   4.855 -0.6161  0.5115  1.5009
 4064TIP3    H212157   2.300   3.966   4.810  0.3536  0.5705 -1.7786
 4065TIP3   OH212158   6.561   5.735   1.199  0.0924  0.2080 -0.0068
 4065TIP3    H112159   6.620   5.697   1.134  0.6049  0.8244  0.0925
 4065TIP3    H212160   6.514   5.660   1.235  1.5074 -0.4057  0.6064
 4066TIP3   OH212161   4.272   6.088   0.639 -0.7290  0.5100  0.3000
 4066TIP3    H112162   4.303   6.037   0.564 -0.5284  0.7743  0.2003
 4066TIP3    H212163   4.188   6.123   0.612 -0.2128  1.4097 -0.1766
 4067TIP3   OH212164   6.471   5.683   3.348  0.2428 -0.0918  0.2387
 4067TIP3    H112165   6.389   5.714   3.308 -0.1926 -1.6581 -0.1327
 4067TIP3    H212166   6.540   5.728   3.298 -0.3353 -0.6940 -1.1675
 4068TIP3   OH212167   1.646   5.709   0.449  0.1494 -0.7285  1.0583
 4068TIP3    H112168   1.553   5.719   0.472  0.1088 -0.5346  0.8167
 4068TIP3    H212169   1.692   5.712   0.533 -0.0989 -1.2700  1.2197
 4069TIP3   OH212170   0.261   1.496   1.190  0.4331  0.8198 -0.3706
 4069TIP3    H112171   0.329   1.508   1.257 -0.8776  0.3065  1.1236
 4069TIP3    H212172   0.179   1.515   1.236 -0.7904 -2.2581 -1.0432
 4070TIP3   OH212173   7.044   0.383   4.048  0.4822 -0.8628 -0.4449
 4070TIP3    H112174   6.985   0.327   3.997  0.2188 -1.0133  0.0160
 4070TIP3    H212175   7.047   0.465   3.999  0.2290 -1.0012 -0.7008
 4071TIP3   OH212176   6.287   1.940   1.674  0.3162 -0.4001 -0.3066
 4071TIP3    H112177   6.309   1.847   1.668 -0.3648 -0.5491 -0.6723
 4071TIP3    H212178   6.244   1.960   1.590 -2.4393 -0.5630  0.9487
 4072TIP3   OH212179   4.024   3.200   3.992 -0.1675  0.0294 -0.3436
 4072TIP3    H112180   3.934   3.171   3.975 -0.2583 -0.3617  0.7191
 4072TIP3    H212181   4.067   3.196   3.907 -1.0197 -0.2709 -0.7713
 4073TIP3   OH212182   3.663   1.241   3.865 -0.2200  0.4112  0.1950
 4073TIP3    H112183   3.725   1.312   3.849 -1.0070  1.2379  0.6989
 4073TIP3    H212184   3.716   1.161   3.861  0.4018  0.8617 -2.0302
 4074TIP3   OH212185   4.794   6.349   1.521  0.3517 -0.4151  0.7403
 4074TIP3    H112186   4.744   6.431   1.522 -0.1122 -0.6980  1.5529
 4074TIP3    H212187   4.727   6.281   1.525  0.7254 -0.8539 -0.1658
 4075TIP3   OH212188   5.291   1.978   5.264  0.5438  0.6686  0.8676
 4075TIP3    H112189   5.232   1.925   5.318 -0.2339 -0.4336 -0.9802
 4075TIP3    H212190   5.373   1.981   5.314 -0.3577  0.3585  2.4419
 4076TIP3   OH212191   5.801   1.589   2.489 -0.6026  0.7699  0.4382
 4076TIP3    H112192   5.802   1.516   2.550  2.7557  0.7754  0.5694
 4076TIP3    H212193   5.893   1.604   2.467 -1.4481  2.5504 -2.5213
 4077TIP3   OH212194   1.219   5.369   2.256  0.3241  0.1142 -0.1932
 4077TIP3    H112195   1.232   5.451   2.209  0.2240  0.1784 -0.1083
 4077TIP3    H212196   1.305   5.326   2.252 -0.6762 -2.0540 -4.4354
 4078TIP3   OH212197   0.440   0.828   3.219  0.2200 -0.4104  0.3918
 4078TIP3    H112198   0.393   0.791   3.145 -1.2610  0.3733  0.8913
 4078TIP3    H212199   0.528   0.792   3.213 -0.2890 -1.4933 -0.9074
 4079TIP3   OH212200   6.261   3.968   5.464 -0.7604 -0.2804  0.0562
 4079TIP3    H112201   6.338   3.963   5.522 -0.4324 -0.9999 -0.4240
 4079TIP3    H212202   6.232   3.877   5.456  0.5165 -0.5427 -2.6425
 4080TIP3   OH212203   0.789   5.594   0.636 -0.1901  0.2449 -0.5971
 4080TIP3    H112204   0.780   5.682   0.599 -0.2016  0.6349  0.3274
 4080TIP3    H212205   0.883   5.580   0.644 -0.2056  0.7076  0.5037
 4081TIP3   OH212206   5.359   1.480   4.496 -0.9453  0.0698 -0.4437
 4081TIP3    H112207   5.379   1.391   4.524 -2.4908 -0.0845  0.2908
 4081TIP3    H212208   5.264   1.487   4.506 -1.2049  0.9938 -2.8865
 4082TIP3   OH212209   6.822   1.018   2.798 -0.4592  0.5267  0.0027
 4082TIP3    H112210   6.900   1.069   2.775 -0.9280  1.3084  0.0905
 4082TIP3    H212211   6.765   1.027   2.721 -1.5115  2.0926  0.9270
 4083TIP3   OH212212   4.090   4.748   3.638 -0.3496  0.3917 -0.0852
 4083TIP3    H112213   4.001   4.714   3.651 -1.0200  2.0896  0.0862
 4083TIP3    H212214   4.109   4.794   3.720  0.9052 -0.3578  0.0664
 4084TIP3   OH212215   5.157   1.575   0.189  0.7081  0.1593  0.7011
 4084TIP3    H112216   5.102   1.645   0.224  0.6078  0.3941  0.0802
 4084TIP3    H212217   5.181   1.523   0.266  1.0359  1.0411  1.2139
 4085TIP3   OH212218   5.863   4.009   0.421 -0.3108  0.1137 -0.0264
 4085TIP3    H112219   5.872   4.096   0.382  0.5853  0.5420  1.0818
 4085TIP3    H212220   5.932   3.957   0.380 -0.3435  0.1404 -0.1153
 4086TIP3   OH212221   6.660   4.445   2.592  0.1279  0.1961  0.0788
 4086TIP3    H112222   6.626   4.527   2.629  0.0162 -0.3269  1.1620
 4086TIP3    H212223   6.750   4.441   2.622  0.6822  0.7438 -1.3976
 4087TIP3   OH212224   1.254   1.685   2.214  0.1242 -0.4150  0.2649
 4087TIP3    H112225   1.203   1.705   2.136  0.4022  0.7999  0.3692
 4087TIP3    H212226   1.277   1.593   2.205 -1.4766 -0.8082 -0.1212
 4088TIP3   OH212227   1.751   3.445   1.060  0.1349 -0.2157  0.3520
 4088TIP3    H112228   1.804   3.367   1.079  1.6900  0.7995  0.3444
 4088TIP3    H212229   1.771   3.505   1.131  0.9296  1.1242 -0.9454
 4089TIP3   OH212230   1.040   3.636   5.097 -0.1211 -0.1376  0.4066
 4089TIP3    H112231   1.085   3.711   5.058 -2.2139  0.3948 -1.2302
 4089TIP3    H212232   1.006   3.668   5.180 -1.1717  0.8529 -0.3754
 4090TIP3   OH212233   6.218   1.980   2.783  0.1482  0.1862 -0.1568
 4090TIP3    H112234   6.265   2.063   2.793  2.5520 -1.0350 -0.6455
 4090TIP3    H212235   6.139   2.003   2.734  1.0776  2.0745 -0.8741
 4091TIP3   OH212236   6.013   2.589   0.775  0.0470 -0.5396 -0.0191
 4091TIP3    H112237   6.029   2.664   0.718  0.0523 -0.4128  0.1480
 4091TIP3    H212238   6.093   2.580   0.827 -0.5932  0.4115  1.1763
 4092TIP3   OH212239   5.596   3.023   1.381 -0.0707  0.4295  0.0749
 4092TIP3    H112240   5.644   3.076   1.318  1.4328  0.2962  1.0752
 4092TIP3    H212241   5.653   2.948   1.398 -2.5001 -2.1277 -2.0154
 4093TIP3   OH212242   1.021   5.079   0.993  0.7022 -0.3475  0.5098
 4093TIP3    H112243   0.943   5.027   0.977  0.0911  1.1187 -1.7273
 4093TIP3    H212244   1.094   5.022   0.969  0.3202 -1.4882  1.9612
 4094TIP3   OH212245   0.307   0.374   4.579  0.1618 -0.2386 -0.0562
 4094TIP3    H112246   0.232   0.379   4.637 -1.0098  2.3627 -1.6370
 4094TIP3    H212247   0.271   0.342   4.496  0.5886  1.6649 -1.0322
 4095TIP3   OH212248   2.542   6.688   4.779  0.4381 -0.0087  0.0572
 4095TIP3    H112249   2.535   6.753   4.849 -1.3415  0.2784 -0.3460
 4095TIP3    H212250   2.467   6.706   4.722  1.0195 -1.1816 -1.1179
 4096TIP3   OH212251   2.213   5.218   5.215 -0.2605  0.3758  0.0235
 4096TIP3    H112252   2.154   5.270   5.160 -0.5268 -0.3224 -0.3604
 4096TIP3    H212253   2.299   5.259   5.203 -0.2842  0.1523 -1.0356
 4097TIP3   OH212254   1.456   3.854   0.286 -0.2113 -0.3211  0.0433
 4097TIP3    H112255   1.461   3.900   0.370 -1.8366 -0.6198  0.3338
 4097TIP3    H212256   1.488   3.917   0.222 -0.3170  0.4320  0.7095
 4098TIP3   OH212257   7.053   3.411   4.318 -0.2977  0.6867  0.1120
 4098TIP3    H112258   7.061   3.320   4.346  0.6300  0.0238 -2.1035
 4098TIP3    H212259   7.089   3.462   4.391  1.8502 -0.8928  0.2568
 4099TIP3   OH212260   0.634   3.674   5.134  0.2349  0.3494  0.7587
 4099TIP3    H112261   0.679   3.590   5.136  1.3857  0.8122 -1.6418
 4099TIP3    H212262   0.561   3.659   5.074  0.9254  1.2426 -0.3311
 4100TIP3   OH212263   6.210   6.053   5.887  0.3814 -0.1845 -0.3488
 4100TIP3    H112264   6.193   6.145   5.905 -0.3748 -0.6061  1.2613
 4100TIP3    H212265   6.128   6.020   5.850  0.4468 -0.3501 -0.3476
 4101TIP3   OH212266   4.248   3.770   0.007  0.0835 -0.0956  0.0852
 4101TIP3    H112267   4.311   3.842  -0.005  1.1730 -1.0308 -0.0391
 4101TIP3    H212268   4.166   3.813   0.030  0.5263  1.2297 -0.6873
 4102TIP3   OH212269   5.089   0.185   0.071  0.2175  0.3836  0.2781
 4102TIP3    H112270   5.014   0.157   0.018 -0.1103  1.0111  0.4038
 4102TIP3    H212271   5.084   0.132   0.150  0.2330  0.0269  0.0432
 4103TIP3   OH212272   1.582   5.236   0.886  0.1345 -0.8485 -0.3445
 4103TIP3    H112273   1.601   5.176   0.814 -0.9797 -2.8959  0.9906
 4103TIP3    H212274   1.493   5.215   0.912  0.3014  0.2696  1.2659
 4104TIP3   OH212275   6.579   5.720   2.752 -0.9304 -0.0633 -0.1323
 4104TIP3    H112276   6.512   5.732   2.818 -0.1437  1.9000  0.3850
 4104TIP3    H212277   6.544   5.763   2.674 -0.7522 -0.0183 -0.1887
 4105TIP3   OH212278   3.925   5.516   2.240  0.0306  0.1216  0.4521
 4105TIP3    H112279   4.008   5.496   2.198  0.1414  1.1973  0.1233
 4105TIP3    H212280   3.915   5.449   2.307  1.7293  0.6352  1.2715
 4106TIP3   OH212281   5.305   2.981   1.349  0.1134  0.0173 -0.5036
 4106TIP3    H112282   5.307   2.942   1.436 -1.6480  2.5121  0.7802
 4106TIP3    H212283   5.398   2.995   1.328  0.6639  2.7071  2.7214
 4107TIP3   OH212284   0.742   0.800   2.501 -0.3904  0.4836 -0.1552
 4107TIP3    H112285   0.673   0.786   2.437  0.2104 -1.8454 -0.4045
 4107TIP3    H212286   0.698   0.791   2.586 -0.6529  0.4033 -0.2993
 4108TIP3   OH212287   0.626   4.258   2.781  0.1591  0.6348 -0.1427
 4108TIP3    H112288   0.632   4.290   2.871 -0.2024  1.9355 -0.5530
 4108TIP3    H212289   0.681   4.319   2.731  2.0940 -1.3257 -0.5236
 4109TIP3   OH212290   3.995   2.322   0.616  0.0555  0.2365  0.2821
 4109TIP3    H112291   4.026   2.297   0.703 -0.1543  0.7038  0.4957
 4109TIP3    H212292   3.986   2.239   0.569 -0.1861 -0.0492  0.8242
 4110TIP3   OH212293   3.452   1.700   1.567  0.6692  0.1136 -0.0709
 4110TIP3    H112294   3.454   1.750   1.649 -1.7339  1.4215 -0.7150
 4110TIP3    H212295   3.391   1.628   1.584 -0.6897  1.0060 -0.9713
 4111TIP3   OH212296   4.479   4.218   0.148  0.4585 -1.2909 -0.6497
 4111TIP3    H112297   4.468   4.164   0.226  1.3143 -1.0419 -0.3458
 4111TIP3    H212298   4.541   4.286   0.174  0.4840 -0.9907 -1.4467
 4112TIP3   OH212299   3.996   3.268   3.049  0.0709 -0.3687 -0.2674
 4112TIP3    H112300   4.064   3.335   3.042  0.8241 -1.2040 -1.1998
 4112TIP3    H212301   3.915   3.314   3.027  0.2648  0.6901  1.0499
 4113TIP3   OH212302   2.887   0.109   1.307  0.0689 -0.7007  0.0710
 4113TIP3    H112303   2.905   0.179   1.244 -0.3433 -1.2601 -0.6917
 4113TIP3    H212304   2.805   0.071   1.276 -0.5684 -0.4816  1.4186
 4114TIP3   OH212305   2.725   1.562   4.129 -0.0029 -0.1029  0.3196
 4114TIP3    H112306   2.691   1.473   4.139 -0.5674 -0.2363 -2.1038
 4114TIP3    H212307   2.805   1.552   4.077  1.3531  0.6296  2.1636
 4115TIP3   OH212308   5.764   4.688   2.339  0.3153  0.3762  0.4324
 4115TIP3    H112309   5.850   4.649   2.322 -0.3678 -0.8395 -0.3868
 4115TIP3    H212310   5.732   4.641   2.416 -0.5707 -0.8407 -0.6412
 4116TIP3   OH212311   6.112   4.970   0.108 -0.3822 -0.1617 -0.5402
 4116TIP3    H112312   6.131   5.032   0.179 -1.9365  0.7026 -0.8408
 4116TIP3    H212313   6.039   4.918   0.141  0.4539 -1.4022 -0.5780
 4117TIP3   OH212314   4.701   6.396   0.248 -0.2913  0.6666  0.1624
 4117TIP3    H112315   4.654   6.426   0.326  1.4492 -0.7181  1.8093
 4117TIP3    H212316   4.699   6.301   0.254 -1.1682  0.4624 -2.1947
 4118TIP3   OH212317   3.964   4.979   4.727  0.1449 -0.4314  0.1198
 4118TIP3    H112318   3.877   5.017   4.716  0.6886  0.5707 -1.0032
 4118TIP3    H212319   4.024   5.049   4.701  1.3408 -0.7614  1.8012
 4119TIP3   OH212320   5.857   3.176   5.702  0.4531 -0.3400 -0.2424
 4119TIP3    H112321   5.836   3.137   5.787 -1.4891 -0.9753 -0.9467
 4119TIP3    H212322   5.837   3.269   5.712  0.7425 -0.3144  0.1299
 4120TIP3   OH212323   5.911   4.857   1.030 -0.3544  0.0406  0.3067
 4120TIP3    H112324   5.995   4.826   0.997 -0.7446  0.2060 -0.9250
 4120TIP3    H212325   5.913   4.952   1.015 -0.6660  0.0734  0.4669
 4121TIP3   OH212326   6.629   4.725   2.129  0.2857  0.4300 -0.4324
 4121TIP3    H112327   6.550   4.683   2.094 -0.9194 -0.0484  2.5604
 4121TIP3    H212328   6.674   4.655   2.176  2.0038  0.9580 -1.2223
 4122TIP3   OH212329   6.927   3.676   2.893 -0.2045 -0.4428  0.2530
 4122TIP3    H112330   7.008   3.625   2.897 -0.0847 -0.3449 -0.8433
 4122TIP3    H212331   6.947   3.757   2.940 -0.2242 -1.1400  1.5258
 4123TIP3   OH212332   5.825   6.312   5.562  0.5733 -0.7457 -0.2219
 4123TIP3    H112333   5.754   6.311   5.497  2.0282 -1.9097 -1.8904
 4123TIP3    H212334   5.809   6.234   5.616 -0.5031  0.0935  0.7391
 4124TIP3   OH212335   5.235   3.985   5.443  0.3822 -0.0472 -0.1503
 4124TIP3    H112336   5.207   3.905   5.398  0.3993  0.3659 -0.9138
 4124TIP3    H212337   5.155   4.037   5.451  0.5088  0.1764 -0.3264
 4125TIP3   OH212338   2.793   4.612   2.573 -0.1901  0.0817 -0.5490
 4125TIP3    H112339   2.763   4.548   2.508 -0.9124 -1.4230  1.1706
 4125TIP3    H212340   2.736   4.598   2.648  0.1349  2.2731  0.1810
 4126TIP3   OH212341   0.736   5.027   1.361 -0.2868  0.5854 -0.2655
 4126TIP3    H112342   0.676   5.080   1.309 -1.8253 -0.0400  0.7625
 4126TIP3    H212343   0.678   4.966   1.408  1.3303 -1.7061 -1.0529
 4127TIP3   OH212344   0.901   2.076   1.549  0.0313  0.3798 -0.1502
 4127TIP3    H112345   0.846   2.066   1.472  0.1945  2.1745 -0.5396
 4127TIP3    H212346   0.902   1.989   1.590 -2.0248  0.0077 -0.8192
 4128TIP3   OH212347   1.899   3.953   1.055  0.3741  0.5306  0.6908
 4128TIP3    H112348   1.900   4.035   1.006 -0.8189 -0.6108 -1.3792
 4128TIP3    H212349   1.986   3.916   1.043  0.3398  0.6409  0.0931
 4129TIP3   OH212350   5.169   1.220   0.642 -0.2743 -0.3422  0.1096
 4129TIP3    H112351   5.255   1.218   0.685 -0.9484  1.4728  1.7034
 4129TIP3    H212352   5.118   1.153   0.688 -0.3027 -0.0055  0.5771
 4130TIP3   OH212353   4.582   2.166   0.943 -0.1542  0.0636 -0.0736
 4130TIP3    H112354   4.555   2.208   1.024 -0.7067  1.0001 -0.7197
 4130TIP3    H212355   4.676   2.152   0.953 -0.2146  0.1734  0.7170
 4131TIP3   OH212356   4.796   1.318   0.219  0.3321 -0.2580  0.0950
 4131TIP3    H112357   4.793   1.407   0.256 -0.6786 -0.2106 -0.0885
 4131TIP3    H212358   4.764   1.329   0.130 -0.4817 -0.9271  0.3025
 4132TIP3   OH212359   1.240   2.779   0.579 -0.1457 -0.8982  0.2618
 4132TIP3    H112360   1.269   2.839   0.510  1.1205 -1.2432  0.4743
 4132TIP3    H212361   1.206   2.836   0.648  1.3137 -0.3743  0.5895
 4133TIP3   OH212362   5.959   1.221   1.967 -0.2307  0.7678  0.4037
 4133TIP3    H112363   5.871   1.229   1.930 -0.6173 -0.1681  1.0764
 4133TIP3    H212364   6.016   1.266   1.905 -0.6478 -1.7375 -2.0094
 4134TIP3   OH212365   3.528   5.497   4.531  0.0458 -0.4370  1.0531
 4134TIP3    H112366   3.534   5.471   4.439 -0.7006  0.5766  0.7036
 4134TIP3    H212367   3.435   5.490   4.553 -0.4757  3.0491  0.5348
 4135TIP3   OH212368   5.446   4.698   4.413 -0.5654 -0.4445  0.6845
 4135TIP3    H112369   5.459   4.779   4.462 -1.0807 -0.9270  1.6488
 4135TIP3    H212370   5.359   4.667   4.440 -1.7826  0.3024 -2.0478
 4136TIP3   OH212371   3.938   2.522   2.370 -0.1132  0.2122 -0.0650
 4136TIP3    H112372   3.969   2.556   2.286  1.6974 -1.2803 -0.0676
 4136TIP3    H212373   4.016   2.485   2.411 -1.4059 -1.1834  1.2471
 4137TIP3   OH212374   5.085   2.798   0.640  0.1244 -0.4986 -0.0473
 4137TIP3    H112375   5.044   2.735   0.700  0.8564  0.6756  1.7594
 4137TIP3    H212376   5.178   2.778   0.645  0.1443 -0.8046 -1.3385
 4138TIP3   OH212377   6.721   3.492   1.148  1.2694  0.4765  0.3126
 4138TIP3    H112378   6.634   3.467   1.117 -0.1239  0.9559  3.4247
 4138TIP3    H212379   6.782   3.448   1.089 -1.0572 -2.6921  0.0325
 4139TIP3   OH212380   4.644   5.134   3.467 -0.1255 -1.0669 -0.0555
 4139TIP3    H112381   4.702   5.079   3.520 -0.0598 -0.1355  0.8678
 4139TIP3    H212382   4.636   5.215   3.517 -1.6855 -0.9200 -0.4868
 4140TIP3   OH212383   4.590   5.519   3.066  0.3513 -0.2455  0.9181
 4140TIP3    H112384   4.553   5.608   3.066 -0.3486 -0.4875 -0.6302
 4140TIP3    H212385   4.681   5.531   3.093  0.0218  0.8122  1.6495
 4141TIP3   OH212386   6.371   5.600   5.590 -0.2749 -0.1056  0.2989
 4141TIP3    H112387   6.378   5.576   5.497 -3.0826 -1.0756  0.2411
 4141TIP3    H212388   6.423   5.680   5.597 -1.6218  1.1963 -2.6238
 4142TIP3   OH212389   6.853   5.809   5.554 -0.5309  0.1117 -0.2635
 4142TIP3    H112390   6.915   5.766   5.612 -0.2544 -1.7980 -1.8754
 4142TIP3    H212391   6.847   5.751   5.478 -3.1894  0.9623 -0.8064
 4143TIP3   OH212392   6.439   2.044   4.129 -0.5746  0.0502 -0.8283
 4143TIP3    H112393   6.348   2.036   4.100 -1.3538  2.2030  0.7843
 4143TIP3    H212394   6.446   1.984   4.203 -0.9590  0.5233 -0.4007
 4144TIP3   OH212395   2.916   5.868   4.843 -0.3213  0.1705  0.0212
 4144TIP3    H112396   2.846   5.812   4.811  0.3528 -0.2499 -0.7429
 4144TIP3    H212397   2.871   5.947   4.873 -0.9236  1.4995 -3.8012
 4145TIP3   OH212398   4.381   1.790   0.013 -0.2504 -0.0273 -0.0743
 4145TIP3    H112399   4.440   1.855   0.051  0.4084 -1.0298  0.6798
 4145TIP3    H212400   4.319   1.841  -0.039 -0.7959  1.3641  1.8203
 4146TIP3   OH212401   6.117   1.892   0.084  0.1169  0.4276  0.1929
 4146TIP3    H112402   6.086   1.830   0.150  0.5028  1.9130  1.8263
 4146TIP3    H212403   6.045   1.953   0.072  0.3613  0.6504 -0.1641
 4147TIP3   OH212404   0.209   4.889   2.255  0.8157 -0.2320 -0.0425
 4147TIP3    H112405   0.248   4.965   2.298 -2.9320  0.6253  2.2393
 4147TIP3    H212406   0.195   4.825   2.325 -1.6006 -0.5161 -0.6840
 4148TIP3   OH212407   0.529   5.314   3.344  0.3848  0.6265 -0.3815
 4148TIP3    H112408   0.514   5.316   3.250  1.1280 -1.4018 -0.5851
 4148TIP3    H212409   0.455   5.264   3.379  0.2795  1.0964  0.0719
 4149TIP3   OH212410   0.625   5.819   5.697  0.2503  0.3278 -0.3137
 4149TIP3    H112411   0.657   5.729   5.690  1.1661  0.6787 -0.9615
 4149TIP3    H212412   0.697   5.872   5.661 -0.6715  1.2401 -0.8618
 4150TIP3   OH212413   5.825   0.514   1.666 -0.1238  0.6076 -0.4293
 4150TIP3    H112414   5.761   0.541   1.601 -0.9930 -0.9477 -0.2619
 4150TIP3    H212415   5.844   0.422   1.645 -1.2911 -0.3075  2.1303
 4151TIP3   OH212416   5.228   4.380   5.593  0.3901  0.5771  0.5880
 4151TIP3    H112417   5.289   4.359   5.522  0.4053 -0.5834  0.9185
 4151TIP3    H212418   5.258   4.327   5.666 -0.9006  0.1206  0.8157
 4152TIP3   OH212419   0.445   4.105   0.504  0.1812 -0.0231  0.0654
 4152TIP3    H112420   0.519   4.128   0.560  1.3980  0.9240 -1.8031
 4152TIP3    H212421   0.486   4.069   0.425 -1.4549 -1.3341 -0.2450
 4153TIP3   OH212422   4.967   1.243   0.021 -0.2882 -0.4870 -0.4779
 4153TIP3    H112423   4.941   1.237   0.113  3.3627  0.9540  0.8325
 4153TIP3    H212424   4.975   1.153  -0.009 -0.6472 -0.9908  0.9022
 4154TIP3   OH212425   4.113   2.972   4.727  0.2660  0.0443  0.1233
 4154TIP3    H112426   4.048   3.036   4.697 -0.1500 -0.1638  0.5648
 4154TIP3    H212427   4.167   3.020   4.789  0.0028 -0.0093  0.3954
 4155TIP3   OH212428   6.493   3.418   1.059  0.2917  0.2826 -0.2451
 4155TIP3    H112429   6.413   3.469   1.070  0.3051  0.2964 -0.2113
 4155TIP3    H212430   6.465   3.327   1.067  0.1482  0.2540 -1.0416
 4156TIP3   OH212431   1.091   0.867   4.291  0.2634 -0.1884  0.3222
 4156TIP3    H112432   1.152   0.822   4.233 -0.4837 -1.4559  0.4669
 4156TIP3    H212433   1.004   0.839   4.260 -0.1680 -0.2194  1.5192
 4157TIP3   OH212434   1.358   5.288   3.812 -0.7557  0.1275 -0.0497
 4157TIP3    H112435   1.420   5.217   3.825 -1.1772 -0.2354 -0.0153
 4157TIP3    H212436   1.391   5.359   3.868 -0.3323 -0.0322 -0.0907
 4158TIP3   OH212437   0.355   1.181   5.556  0.1092  0.4313 -0.2949
 4158TIP3    H112438   0.335   1.265   5.517  0.6260  1.9033  2.3599
 4158TIP3    H212439   0.448   1.187   5.580 -0.3711  0.0685  1.9249
 4159TIP3   OH212440   4.689   0.539   4.883 -0.7430  0.0707  0.0524
 4159TIP3    H112441   4.668   0.572   4.795  1.5606  2.7217  0.3702
 4159TIP3    H212442   4.624   0.580   4.940  0.0959  1.5607  0.0034
 4160TIP3   OH212443   5.125   0.620   2.905 -0.6103  0.0533  0.0993
 4160TIP3    H112444   5.149   0.527   2.899  0.2608  0.2298  0.6209
 4160TIP3    H212445   5.131   0.641   2.998  0.6480  0.9826 -0.1590
 4161TIP3   OH212446   4.426   4.413   1.355  0.4106 -0.0834  0.2354
 4161TIP3    H112447   4.500   4.473   1.354  0.9125 -0.6456 -2.1299
 4161TIP3    H212448   4.355   4.460   1.312  0.1385 -0.4220  0.3021
 4162TIP3   OH212449   6.436   0.516   0.762  0.2540  0.5778 -0.6427
 4162TIP3    H112450   6.458   0.579   0.831  1.3505  1.1494 -1.4829
 4162TIP3    H212451   6.421   0.570   0.684 -1.1878 -0.0420 -0.8339
 4163TIP3   OH212452   1.001   2.932   1.170 -0.0460  0.3449  0.0485
 4163TIP3    H112453   0.975   3.021   1.197 -0.1474  0.1939  0.4626
 4163TIP3    H212454   1.061   2.903   1.239 -0.3748 -0.0820  0.1592
 4164TIP3   OH212455   6.659   2.991   0.210 -0.0510  0.2898  0.4286
 4164TIP3    H112456   6.733   2.967   0.154 -0.2585  0.2492  0.1764
 4164TIP3    H212457   6.627   2.908   0.245 -0.2126  0.2756  0.2463
 4165TIP3   OH212458   6.880   0.294   1.862 -0.2025 -0.1729 -0.7370
 4165TIP3    H112459   6.887   0.231   1.790 -1.8239 -0.9741 -0.2447
 4165TIP3    H212460   6.891   0.241   1.941  1.7117  0.7214 -0.3469
 4166TIP3   OH212461   4.548   4.420   5.445 -0.0722 -0.0440  0.0478
 4166TIP3    H112462   4.541   4.341   5.391 -0.9628  0.7048 -0.9762
 4166TIP3    H212463   4.469   4.470   5.424  0.7636  1.3860  0.2425
 4167TIP3   OH212464   0.386   4.554   2.898  0.1249 -0.3435  0.6773
 4167TIP3    H112465   0.342   4.622   2.848  1.7055 -0.3673 -0.8487
 4167TIP3    H212466   0.319   4.487   2.911 -0.6738  0.2166 -0.3677
 4168TIP3   OH212467   2.394   0.784   1.594 -0.1336 -0.4911  1.0394
 4168TIP3    H112468   2.361   0.715   1.653 -0.5156 -1.5685 -0.3639
 4168TIP3    H212469   2.367   0.866   1.636 -2.6644 -1.2672  1.1221
 4169TIP3   OH212470   6.227   1.386   5.319 -0.0206  0.0809  0.0950
 4169TIP3    H112471   6.240   1.322   5.249 -2.0448 -0.3765  0.0701
 4169TIP3    H212472   6.134   1.381   5.338  0.0754  1.8790  1.2255
 4170TIP3   OH212473   0.097   0.874   4.418  0.3267  0.0203 -0.3253
 4170TIP3    H112474   0.177   0.837   4.381 -0.1694 -0.8790 -0.5296
 4170TIP3    H212475   0.123   0.909   4.503  1.0993  0.4646 -0.7396
 4171TIP3   OH212476   5.847   5.946   3.982 -0.0442  0.0328  0.5522
 4171TIP3    H112477   5.885   5.955   3.895  0.1509  0.4899  0.6796
 4171TIP3    H212478   5.890   6.014   4.034  1.2891 -1.4842  1.5207
 4172TIP3   OH212479   5.771   4.599   5.591 -0.4163  0.9665 -0.6005
 4172TIP3    H112480   5.711   4.525   5.591  0.9144 -0.2050  0.8392
 4172TIP3    H212481   5.776   4.627   5.500 -1.2282 -0.5008 -1.1266
 4173TIP3   OH212482   4.155   3.273   2.328  0.4012 -0.3697 -0.2907
 4173TIP3    H112483   4.201   3.212   2.386  1.1441 -2.8293 -3.2495
 4173TIP3    H212484   4.063   3.248   2.335  0.7522 -2.2707 -1.8354
 4174TIP3   OH212485   6.644   4.813   0.076 -0.4994 -0.5520 -0.5111
 4174TIP3    H112486   6.661   4.843   0.165  2.1673  0.5207 -1.2745
 4174TIP3    H212487   6.708   4.861   0.022 -0.0282 -3.2877 -2.6083
 4175TIP3   OH212488   2.083   5.380   2.253  0.1641 -0.2493  0.1309
 4175TIP3    H112489   2.171   5.418   2.247  0.5266 -0.5662  2.4835
 4175TIP3    H212490   2.026   5.446   2.214  1.1907  1.1085  0.8496
 4176TIP3   OH212491   4.062   2.880   4.992  0.1319 -0.2334 -0.1400
 4176TIP3    H112492   4.006   2.947   5.032 -1.7611 -1.0277 -1.2966
 4176TIP3    H212493   4.113   2.927   4.927 -0.5778  0.2489 -0.3667
 4177TIP3   OH212494   2.035   1.562   0.583 -0.1158  0.0188 -0.2665
 4177TIP3    H112495   2.055   1.587   0.673 -0.2645 -2.0278  0.4004
 4177TIP3    H212496   1.943   1.585   0.571 -0.0780  0.3540  0.0914
 4178TIP3   OH212497   6.800   2.252   5.544  0.2699 -0.3659  0.1994
 4178TIP3    H112498   6.780   2.315   5.614 -0.3560 -1.1731  0.7662
 4178TIP3    H212499   6.880   2.209   5.574  0.6487  0.0896 -0.1461
 4179TIP3   OH212500   4.646   0.865   5.511  0.3041 -0.5325  0.0674
 4179TIP3    H112501   4.730   0.890   5.473  0.0382  0.1202 -0.1194
 4179TIP3    H212502   4.589   0.941   5.494 -0.7125 -1.4976 -1.0416
 4180TIP3   OH212503   2.662   2.058   3.809 -0.9097 -0.3272 -0.0356
 4180TIP3    H112504   2.570   2.030   3.810 -0.4345 -2.1298 -1.7148
 4180TIP3    H212505   2.689   2.046   3.718  1.5100 -1.5623  0.7840
 4181TIP3   OH212506   6.934   1.448   5.201 -0.0436 -0.6057  0.0558
 4181TIP3    H112507   6.906   1.387   5.133 -0.7929 -2.2081  1.7349
 4181TIP3    H212508   7.011   1.492   5.164  0.5499 -2.6071 -1.2039
 4182TIP3   OH212509   5.019   3.238   1.050 -0.0186  0.0138 -0.0981
 4182TIP3    H112510   5.061   3.281   1.124  0.6992 -0.2472 -0.3492
 4182TIP3    H212511   5.031   3.144   1.067  0.7794 -0.0376 -0.9024
 4183TIP3   OH212512   6.094   2.815   0.637  0.3086 -0.3333 -0.0806
 4183TIP3    H112513   6.055   2.808   0.549  1.9792  0.4504 -0.9227
 4183TIP3    H212514   6.187   2.801   0.622  0.6067 -0.2669  1.6089
 4184TIP3   OH212515   6.739   1.445   4.724 -1.0416 -0.1184  0.0974
 4184TIP3    H112516   6.658   1.397   4.745 -1.1147  0.3618  0.9586
 4184TIP3    H212517   6.783   1.391   4.659 -0.7512 -1.7677  1.5886
 4185TIP3   OH212518   4.729   2.490   2.409 -0.5850 -0.2362  0.2542
 4185TIP3    H112519   4.684   2.452   2.485 -0.7187  0.0834  0.3351
 4185TIP3    H212520   4.819   2.501   2.437 -0.8902  1.0281  0.7936
 4186TIP3   OH212521   0.756   5.151   3.430 -0.3754  0.3442 -0.3252
 4186TIP3    H112522   0.828   5.191   3.381 -0.2509 -2.3544 -2.6016
 4186TIP3    H212523   0.677   5.189   3.392 -0.2513  1.8256  0.8049
 4187TIP3   OH212524   5.490   6.783   3.193  0.3730  0.2453 -0.0853
 4187TIP3    H112525   5.446   6.859   3.154  1.4072  0.5235 -0.7602
 4187TIP3    H212526   5.450   6.707   3.149 -1.1872  0.3187  1.1182
 4188TIP3   OH212527   3.806   0.772   1.296  0.0940 -0.1824  0.7555
 4188TIP3    H112528   3.873   0.786   1.229 -0.3466 -0.9464  0.1420
 4188TIP3    H212529   3.758   0.855   1.299  0.2347 -0.0793  0.2581
 4189TIP3   OH212530   0.675   1.922   5.644  0.2416  0.3887 -0.5056
 4189TIP3    H112531   0.591   1.948   5.604 -1.4772  0.0232  2.5721
 4189TIP3    H212532   0.726   2.003   5.647 -0.8705  1.1123 -0.5012
 4190TIP3   OH212533   4.459   2.546   3.094 -0.5237 -0.2830  0.7569
 4190TIP3    H112534   4.484   2.455   3.083  0.9040  0.2355 -0.8146
 4190TIP3    H212535   4.402   2.547   3.171 -0.1947 -2.4098  1.0768
 4191TIP3   OH212536   5.491   2.182   3.603 -0.5281  0.0654  0.4863
 4191TIP3    H112537   5.497   2.259   3.546  0.6555  1.9836  2.9812
 4191TIP3    H212538   5.580   2.148   3.608 -1.0770 -1.6542 -0.7357
 4192TIP3   OH212539   5.210   3.932   2.418  0.9618 -0.3171  0.0382
 4192TIP3    H112540   5.227   3.928   2.512  0.4015  1.1283  0.2400
 4192TIP3    H212541   5.296   3.942   2.378  1.1806 -0.6768  0.4125
 4193TIP3   OH212542   4.774   4.900   1.744 -0.3911  0.6641  0.5445
 4193TIP3    H112543   4.791   4.870   1.833  1.7890 -0.2859 -0.1153
 4193TIP3    H212544   4.755   4.994   1.753  2.9450  1.3611  1.7936
 4194TIP3   OH212545   0.961   1.033   0.686 -0.0060  0.3525 -0.4772
 4194TIP3    H112546   1.054   1.038   0.708 -0.3956  0.0483  1.4371
 4194TIP3    H212547   0.935   1.124   0.672  0.6424  0.4098 -1.4229
 4195TIP3   OH212548   5.904   3.073   1.801  0.6502  0.1091 -0.6512
 4195TIP3    H112549   5.948   3.125   1.868 -1.1201  0.6812  0.1388
 4195TIP3    H212550   5.929   2.983   1.819  1.3236  0.3912 -0.1309
 4196TIP3   OH212551   6.406   1.136   4.242  0.1694  0.5257 -0.0730
 4196TIP3    H112552   6.315   1.133   4.272 -0.4609  4.0243 -1.1866
 4196TIP3    H212553   6.451   1.188   4.308  1.2207 -0.4242 -0.0022
 4197TIP3   OH212554   7.064   1.430   1.646  0.0171 -0.1449 -0.1042
 4197TIP3    H112555   7.065   1.512   1.695  1.3598 -0.1211 -0.1395
 4197TIP3    H212556   7.014   1.370   1.702 -0.2507  0.4523  0.3126
 4198TIP3   OH212557   4.617   3.857   0.132  0.5532  0.0198 -0.9460
 4198TIP3    H112558   4.700   3.894   0.103  0.3484  1.3147  0.0545
 4198TIP3    H212559   4.634   3.763   0.139  1.8285  0.2322 -1.0541
 4199TIP3   OH212560   0.283   6.808   4.063  0.6779 -0.0779 -0.6484
 4199TIP3    H112561   0.276   6.799   3.968  1.3212 -0.0564 -0.7048
 4199TIP3    H212562   0.295   6.718   4.094  0.4719 -0.0845 -0.5882
 4200TIP3   OH212563   6.603   6.526   4.546 -0.6380 -0.3409  0.1486
 4200TIP3    H112564   6.699   6.526   4.539 -0.4702  1.1210  1.8896
 4200TIP3    H212565   6.583   6.447   4.596 -0.1628  0.2703  1.3448
 4201TIP3   OH212566   5.431   5.779   2.481  0.0109 -0.3823 -0.4544
 4201TIP3    H112567   5.374   5.794   2.557  0.6714  0.8402 -0.1770
 4201TIP3    H212568   5.472   5.864   2.464 -0.7469 -0.4141 -2.7267
 4202TIP3   OH212569   6.976   3.723   3.658 -0.2387 -0.3578 -0.0750
 4202TIP3    H112570   7.028   3.662   3.606  0.5940 -0.4125  0.8042
 4202TIP3    H212571   6.898   3.739   3.605 -0.2279 -1.7746 -0.5570
 4203TIP3   OH212572   3.387   0.070   3.043  0.1725 -0.1284 -0.4824
 4203TIP3    H112573   3.307   0.024   3.018  1.4070 -1.9823 -1.2317
 4203TIP3    H212574   3.395   0.141   2.981 -2.5722  2.2300  1.6007
 4204TIP3   OH212575   4.877   2.164   1.667  0.1518 -0.1785 -0.6749
 4204TIP3    H112576   4.808   2.100   1.687 -0.2929  0.1558 -1.1118
 4204TIP3    H212577   4.860   2.236   1.727  0.8806 -0.6171  0.0795
 4205TIP3   OH212578   3.609   5.329   4.791 -0.3620  0.1089 -0.1984
 4205TIP3    H112579   3.645   5.340   4.879  0.7138 -0.3941 -0.5584
 4205TIP3    H212580   3.613   5.416   4.752  0.9103 -0.0218 -0.3866
 4206TIP3   OH212581   1.793   0.624   0.711  0.0573 -0.4917  0.3583
 4206TIP3    H112582   1.734   0.554   0.739 -1.1188  0.4721  0.3602
 4206TIP3    H212583   1.820   0.666   0.792  1.5760 -1.5580  0.4298
 4207TIP3   OH212584   3.404   2.370   2.252 -0.1308 -0.3051 -0.1682
 4207TIP3    H112585   3.352   2.450   2.239 -0.7059 -0.7479 -0.6181
 4207TIP3    H212586   3.409   2.331   2.165  2.9448  0.9065 -0.6622
 4208TIP3   OH212587   6.017   2.173   1.625  0.2544 -0.1876  0.0511
 4208TIP3    H112588   6.043   2.183   1.717  1.9300 -0.8550 -0.3089
 4208TIP3    H212589   5.992   2.262   1.597  1.0223  0.2794  0.7925
 4209TIP3   OH212590   3.907   1.908   0.238  0.1109 -0.1090 -0.0699
 4209TIP3    H112591   3.866   1.855   0.306 -2.1099 -0.0072 -1.2390
 4209TIP3    H212592   3.994   1.871   0.227 -0.5248 -1.9636  0.8265
 4210TIP3   OH212593   5.733   3.149   1.153  0.3112  0.2412  0.4807
 4210TIP3    H112594   5.827   3.132   1.149  0.4487  1.0299  0.0489
 4210TIP3    H212595   5.723   3.233   1.109 -0.7210 -0.3187 -0.4096
 4211TIP3   OH212596   1.341   6.081   4.060 -0.2691 -0.1168  0.3509
 4211TIP3    H112597   1.308   6.126   3.983 -1.2291 -0.9217  0.2767
 4211TIP3    H212598   1.273   6.018   4.083 -1.0796  1.5721  3.1702
 4212TIP3   OH212599   2.438   5.862   2.953 -0.5455  0.0652 -0.2785
 4212TIP3    H112600   2.512   5.911   2.988 -0.1380  0.4101 -1.5676
 4212TIP3    H212601   2.426   5.896   2.864 -2.8150  0.6260  0.1866
 4213TIP3   OH212602   0.853   1.255   4.658  0.3056  0.1329  0.4645
 4213TIP3    H112603   0.928   1.298   4.699  0.8498 -2.0666  1.9414
 4213TIP3    H212604   0.888   1.172   4.625 -0.9317  0.2522 -1.3164
 4214TIP3   OH212605   5.099   1.372   2.934 -0.4269 -0.0269  0.2114
 4214TIP3    H112606   5.113   1.286   2.975 -0.8748  0.2029  0.8697
 4214TIP3    H212607   5.070   1.351   2.845 -0.5527 -0.5633  0.3720
 4215TIP3   OH212608   6.506   3.430   3.439  0.2273 -0.3187  0.4465
 4215TIP3    H112609   6.452   3.354   3.417  0.0996  0.0002 -0.3870
 4215TIP3    H212610   6.549   3.406   3.521 -0.1792 -1.0960  0.4436
 4216TIP3   OH212611   6.993   0.702   2.626  0.2944  0.0133 -0.3200
 4216TIP3    H112612   6.922   0.668   2.680 -0.4390  0.0501 -1.2488
 4216TIP3    H212613   7.053   0.628   2.616  1.3084  0.4411  1.8889
 4217TIP3   OH212614   2.430   0.511   2.562 -0.0201  0.1991  0.0114
 4217TIP3    H112615   2.466   0.546   2.481 -0.6082  0.6279 -0.0699
 4217TIP3    H212616   2.462   0.421   2.566 -2.6692 -1.0096 -2.4290
 4218TIP3   OH212617   1.377   0.259   2.694 -0.9433 -0.0036 -0.3141
 4218TIP3    H112618   1.337   0.294   2.615 -0.6546 -1.0275 -0.9416
 4218TIP3    H212619   1.436   0.191   2.662  1.4250  1.5223  0.5613
 4219TIP3   OH212620   0.456   0.772   5.358 -0.0122 -0.6168 -0.4402
 4219TIP3    H112621   0.390   0.744   5.296 -0.1069 -0.8750 -0.2213
 4219TIP3    H212622   0.538   0.734   5.326 -0.3987 -2.6500  0.8105
 4220TIP3   OH212623   0.715   2.266   5.140  0.1093  0.2799 -0.2655
 4220TIP3    H112624   0.731   2.224   5.225 -0.4590  0.4589 -0.0659
 4220TIP3    H212625   0.624   2.294   5.144  0.6035  1.9893 -0.1893
 4221TIP3   OH212626   3.385   3.211   2.557  0.1898  0.1938 -0.0464
 4221TIP3    H112627   3.298   3.246   2.573  0.7871  0.7224  2.4105
 4221TIP3    H212628   3.387   3.128   2.606  0.4832 -0.7901 -1.6352
 4222TIP3   OH212629   5.980   5.713   3.455 -0.9182 -0.2535 -0.7228
 4222TIP3    H112630   5.930   5.794   3.441 -1.9966 -0.9479 -1.0569
 4222TIP3    H212631   5.914   5.649   3.482  0.2208 -0.4947  1.8203
 4223TIP3   OH212632   6.060   0.226   2.673 -0.1675  0.5222  0.5290
 4223TIP3    H112633   6.054   0.313   2.635 -0.3376 -1.4819 -4.8619
 4223TIP3    H212634   6.137   0.187   2.633 -1.4634 -2.5811  0.7305
 4224TIP3   OH212635   6.925   4.314   4.198 -0.2273 -0.3452  0.3177
 4224TIP3    H112636   6.991   4.355   4.143  0.7778 -1.0852  0.9311
 4224TIP3    H212637   6.878   4.254   4.140  0.3477 -0.5947  0.1098
 4225TIP3   OH212638   2.907   2.371   2.773  0.2080 -0.2118 -0.3168
 4225TIP3    H112639   2.913   2.298   2.712  1.0493  0.6659 -1.3243
 4225TIP3    H212640   2.912   2.449   2.718 -1.5392  0.6432  0.6433
 4226TIP3   OH212641   2.461   3.989   2.474  0.4675 -0.0926  0.3619
 4226TIP3    H112642   2.418   3.919   2.424 -0.5701  0.3906  0.5629
 4226TIP3    H212643   2.447   4.068   2.422  1.0083  0.1035  0.4993
 4227TIP3   OH212644   0.069   1.559   2.511  0.6588 -0.2078 -0.3174
 4227TIP3    H112645  -0.023   1.582   2.502  0.6694 -0.2406 -0.5100
 4227TIP3    H212646   0.103   1.558   2.421  0.6704 -0.9215 -0.3122
 4228TIP3   OH212647   7.066   1.678   1.781 -0.1720  0.4879  0.1846
 4228TIP3    H112648   7.151   1.683   1.824 -1.3836 -2.9934  3.4575
 4228TIP3    H212649   7.012   1.740   1.829 -0.6743 -0.9844  1.5995
 4229TIP3   OH212650   1.008   4.044   1.627 -0.1312  0.2020 -0.2410
 4229TIP3    H112651   0.971   4.099   1.696  0.6854 -0.1178  0.4626
 4229TIP3    H212652   0.973   4.082   1.546 -0.4711  1.0684  0.2878
 4230TIP3   OH212653   5.673   2.793   3.128 -0.3074  0.2807 -0.3854
 4230TIP3    H112654   5.590   2.839   3.126 -0.9014 -0.7558 -0.4505
 4230TIP3    H212655   5.694   2.776   3.037  0.2030  0.9124 -0.3937
 4231TIP3   OH212656   3.288   1.296   4.492  0.0921 -0.1907  0.0084
 4231TIP3    H112657   3.284   1.380   4.538 -1.0769  0.1320 -0.6411
 4231TIP3    H212658   3.208   1.251   4.519  1.4996 -1.8528  1.6821
 4232TIP3   OH212659   5.866   5.464   0.855 -0.3089 -0.0882 -0.4038
 4232TIP3    H112660   5.827   5.550   0.835 -0.7978 -0.7091 -2.2860
 4232TIP3    H212661   5.791   5.405   0.862  0.0195 -0.3652  1.0203
 4233TIP3   OH212662   6.010   0.902   0.581  0.3324 -0.4272 -0.3484
 4233TIP3    H112663   6.095   0.941   0.561  0.4010 -0.9965 -1.2170
 4233TIP3    H212664   6.027   0.808   0.584  0.3722 -0.4183  2.6852
 4234TIP3   OH212665   2.000   4.198   0.923 -0.0099  1.0240 -0.2328
 4234TIP3    H112666   2.021   4.225   0.834 -0.4687 -0.1946 -0.7319
 4234TIP3    H212667   2.060   4.248   0.978 -0.6507  2.8121 -1.1055
 4235TIP3   OH212668   5.525   2.207   2.384  0.4764 -0.5375  0.4042
 4235TIP3    H112669   5.470   2.241   2.455  1.3261  0.6897  0.4970
 4235TIP3    H212670   5.614   2.234   2.406  1.0691 -1.9657 -0.0665
 4236TIP3   OH212671   3.818   4.651   3.616  0.3935 -0.2812 -0.9037
 4236TIP3    H112672   3.847   4.583   3.556  2.6822  0.6819 -0.9836
 4236TIP3    H212673   3.735   4.618   3.651 -0.0936 -1.6827 -3.1909
 4237TIP3   OH212674   2.106   0.538   5.204  0.7251 -0.2788 -0.2200
 4237TIP3    H112675   2.150   0.560   5.122 -1.1172  1.8815 -0.7346
 4237TIP3    H212676   2.045   0.468   5.181 -0.4461  0.9411 -0.9835
 4238TIP3   OH212677   1.720   5.420   1.207  0.1484 -0.1092 -0.1304
 4238TIP3    H112678   1.694   5.332   1.233  0.6682 -0.0855  0.4696
 4238TIP3    H212679   1.637   5.467   1.196 -0.1004 -0.3427  0.6996
 4239TIP3   OH212680   2.030   1.670   3.131 -0.1809 -0.4903  0.0002
 4239TIP3    H112681   1.978   1.745   3.100 -2.2466 -2.0162 -0.4066
 4239TIP3    H212682   2.086   1.648   3.057  0.5101  0.6730  0.1498
 4240TIP3   OH212683   2.783   3.462   0.753  0.3655  0.2925  0.0688
 4240TIP3    H112684   2.776   3.449   0.847 -0.5499  0.3900  0.0214
 4240TIP3    H212685   2.773   3.556   0.741 -0.2913  0.1952 -0.1840
 4241TIP3   OH212686   5.898   2.678   0.418  0.3659 -0.2329  0.2415
 4241TIP3    H112687   5.831   2.697   0.482 -3.2515 -3.1563 -2.2445
 4241TIP3    H212688   5.859   2.701   0.333  3.3410 -0.1858 -1.2739
 4242TIP3   OH212689   6.294   5.571   4.877  0.0021  0.5153 -0.2035
 4242TIP3    H112690   6.273   5.535   4.963 -1.1924  1.1597 -0.2016
 4242TIP3    H212691   6.329   5.496   4.828 -0.7660 -0.2425  0.3618
 4243TIP3   OH212692   1.088   1.552   0.139 -0.3269 -0.0808  0.2959
 4243TIP3    H112693   1.120   1.575   0.052  0.1465 -1.1559  0.1724
 4243TIP3    H212694   1.127   1.618   0.197 -0.6873  0.6759 -0.2963
 4244TIP3   OH212695   6.155   5.590   1.364  0.0254 -0.2318  0.0773
 4244TIP3    H112696   6.094   5.584   1.290  0.4230  0.8753 -0.3636
 4244TIP3    H212697   6.145   5.680   1.396  0.5762 -0.3986  0.7461
 4245TIP3   OH212698   5.810   5.758   4.475 -0.5376  0.5715  0.3471
 4245TIP3    H112699   5.811   5.668   4.505  1.8340 -0.4098 -2.1720
 4245TIP3    H212700   5.717   5.778   4.461 -1.0818 -1.8172  0.0986
 4246TIP3   OH212701   0.199   1.577   2.262 -0.2688  0.0538 -0.1923
 4246TIP3    H112702   0.206   1.504   2.200  0.3641  0.1456 -0.2363
 4246TIP3    H212703   0.285   1.581   2.304 -0.0124  1.3004 -0.7892
 4247TIP3   OH212704   2.084   5.347   3.940  0.5411  0.2027  0.3257
 4247TIP3    H112705   2.143   5.343   3.865 -0.7174  1.2963 -0.7705
 4247TIP3    H212706   2.053   5.438   3.942 -0.6652 -0.1989  1.2234
 4248TIP3   OH212707   3.331   0.638   5.706 -0.1562  0.1767  0.0887
 4248TIP3    H112708   3.393   0.704   5.737  1.6509 -0.6544 -1.5504
 4248TIP3    H212709   3.255   0.687   5.676  0.5893  1.3884  0.1462
 4249TIP3   OH212710   4.706   1.307   2.838 -0.0931 -0.4790 -0.0719
 4249TIP3    H112711   4.695   1.380   2.898 -2.5220 -0.5206 -0.3541
 4249TIP3    H212712   4.623   1.301   2.792  0.0210 -3.3700 -0.1082
 4250TIP3   OH212713   4.395   4.698   5.600  0.3882  0.3255 -0.2374
 4250TIP3    H112714   4.319   4.750   5.628  0.5633  0.3810  0.1308
 4250TIP3    H212715   4.362   4.647   5.525 -0.1019  0.1150  0.1142
 4251TIP3   OH212716   2.806   5.381   2.341 -0.2004 -0.1828  0.4232
 4251TIP3    H112717   2.860   5.446   2.297  0.0100 -1.0109 -0.5702
 4251TIP3    H212718   2.802   5.307   2.280  0.5970 -1.6109  2.0066
 4252TIP3   OH212719   0.179   2.531   1.283 -0.2098 -0.3095 -0.1557
 4252TIP3    H112720   0.248   2.589   1.252 -0.3337 -0.5674 -0.9471
 4252TIP3    H212721   0.157   2.564   1.370  0.1777  0.4147 -0.3233
 4253TIP3   OH212722   4.740   4.019   4.101 -0.1462  0.2624  1.2027
 4253TIP3    H112723   4.836   4.013   4.105 -0.1841 -1.3022  0.5227
 4253TIP3    H212724   4.724   4.099   4.050  0.8857 -0.7752 -0.9066
 4254TIP3   OH212725   1.905   3.378   4.795  0.1866  0.3923  0.0436
 4254TIP3    H112726   1.914   3.300   4.850  0.5391 -0.7529 -1.5454
 4254TIP3    H212727   1.863   3.346   4.716 -0.2995  1.9787 -0.3758
 4255TIP3   OH212728   4.801   5.882   3.197 -0.5499  0.3261 -0.0333
 4255TIP3    H112729   4.866   5.880   3.268 -0.2013 -0.3616 -0.3606
 4255TIP3    H212730   4.838   5.825   3.130 -0.9918  0.7814 -0.6731
 4256TIP3   OH212731   7.050   5.063   0.250 -0.4543  0.7853  0.9225
 4256TIP3    H112732   6.997   5.138   0.274  0.8492  1.4024  2.0506
 4256TIP3    H212733   7.126   5.100   0.205  0.5644  0.2835  2.1273
 4257TIP3   OH212734   1.557   4.121   5.243  0.6028  0.1702  0.0885
 4257TIP3    H112735   1.641   4.150   5.279  1.0452 -0.2264 -0.5779
 4257TIP3    H212736   1.544   4.176   5.166  0.1720  0.3315  0.2739
 4258TIP3   OH212737   3.509   4.097   3.334  0.2751 -0.3618  0.1361
 4258TIP3    H112738   3.508   4.096   3.429  0.5982  1.4704  0.2123
 4258TIP3    H212739   3.418   4.114   3.309  0.3092 -0.1554  0.1507
 4259TIP3   OH212740   3.745   3.207   2.783  0.6158  0.6285 -0.2801
 4259TIP3    H112741   3.790   3.253   2.854  0.3790  1.9512 -0.9444
 4259TIP3    H212742   3.696   3.276   2.738 -0.3285 -0.4150 -0.8956
 4260TIP3   OH212743   5.336   1.119   2.771 -0.2452 -0.1529  0.4370
 4260TIP3    H112744   5.288   1.046   2.810  1.0398 -0.6287  1.1933
 4260TIP3    H212745   5.428   1.100   2.789  0.1047  1.8517  1.0020
 4261TIP3   OH212746   4.765   1.015   2.170 -0.6758  0.1722 -0.2705
 4261TIP3    H112747   4.705   0.959   2.121  0.1093 -1.5395  0.6252
 4261TIP3    H212748   4.709   1.064   2.230 -1.3028 -0.3867 -0.3919
 4262TIP3   OH212749   5.641   2.662   3.379  0.1653  0.1448  0.0194
 4262TIP3    H112750   5.654   2.669   3.284  1.5507  1.3426  0.2572
 4262TIP3    H212751   5.636   2.752   3.409 -0.7530 -0.2280  1.0494
 4263TIP3   OH212752   6.256   4.423   2.931 -0.0887 -0.2221  0.6766
 4263TIP3    H112753   6.233   4.344   2.979  1.2596 -1.6363 -0.9234
 4263TIP3    H212754   6.177   4.478   2.937 -1.2594 -1.8946  1.3293
 4264TIP3   OH212755   4.762   4.318   2.821  0.3355 -0.0120 -0.4122
 4264TIP3    H112756   4.834   4.369   2.857 -0.2893  1.2587 -0.8964
 4264TIP3    H212757   4.695   4.383   2.799 -0.3749 -1.0170 -1.3419
 4265TIP3   OH212758   5.421   1.469   0.798  0.0104 -0.1103 -0.2812
 4265TIP3    H112759   5.476   1.447   0.723 -0.1095 -0.3928 -0.2847
 4265TIP3    H212760   5.393   1.385   0.834  1.4893 -0.0459  1.1503
 4266TIP3   OH212761   3.832   5.998   0.653 -0.3305 -0.4348 -0.3544
 4266TIP3    H112762   3.922   5.987   0.622 -0.1208 -0.3304  0.1993
 4266TIP3    H212763   3.823   5.933   0.722 -0.9696 -1.0449 -0.9922
 4267TIP3   OH212764   1.936   0.454   1.449 -0.5461  0.3353 -0.0606
 4267TIP3    H112765   1.948   0.543   1.415 -1.8991  0.2047 -0.9928
 4267TIP3    H212766   1.844   0.452   1.478 -0.0891 -0.3005  1.4185
 4268TIP3   OH212767   1.068   5.381   4.166  0.1520  0.2693  0.1899
 4268TIP3    H112768   1.104   5.345   4.085 -1.3172 -0.4176 -0.1861
 4268TIP3    H212769   0.993   5.325   4.186  1.0481 -0.2008  2.5670
 4269TIP3   OH212770   7.128   4.708   0.733  0.2613 -0.2186  0.2536
 4269TIP3    H112771   7.124   4.760   0.653  0.2094  0.2106  0.5257
 4269TIP3    H212772   7.105   4.771   0.803 -1.1829 -0.9219  0.4592
 4270TIP3   OH212773   6.285   3.573   2.014  0.3571 -0.3986 -0.0083
 4270TIP3    H112774   6.374   3.555   2.045  0.1229  1.0074  1.6377
 4270TIP3    H212775   6.228   3.539   2.084 -0.3604 -0.2496 -0.5075
 4271TIP3   OH212776   3.842   2.354   2.812  0.1666 -0.3902 -0.7403
 4271TIP3    H112777   3.897   2.377   2.887 -2.4606 -0.4940  1.3718
 4271TIP3    H212778   3.795   2.435   2.792 -1.4977 -1.1502 -0.0968
 4272TIP3   OH212779   3.633   4.722   2.474 -0.8231  0.7775 -0.1387
 4272TIP3    H112780   3.685   4.778   2.532  1.0098 -1.4217  0.5315
 4272TIP3    H212781   3.557   4.696   2.526  1.3251 -2.0398  1.9287
 4273TIP3   OH212782   6.324   2.678   0.542  0.1160  0.3502  0.6202
 4273TIP3    H112783   6.380   2.609   0.578 -0.6634 -1.0625 -0.7728
 4273TIP3    H212784   6.279   2.637   0.469 -1.3029  2.0079  0.4979
 4274TIP3   OH212785   5.940   0.641   5.641  0.0227 -0.1787  0.3446
 4274TIP3    H112786   6.032   0.649   5.619  0.0761  1.3031  0.9841
 4274TIP3    H212787   5.897   0.710   5.590 -1.0574 -2.0297 -1.4370
 4275TIP3   OH212788   6.590   0.302   3.774  0.2518  0.1094 -0.4607
 4275TIP3    H112789   6.578   0.277   3.682  0.6437  2.7127 -1.3073
 4275TIP3    H212790   6.500   0.308   3.808  0.1332 -1.6806 -0.4021
 4276TIP3   OH212791   5.321   1.307   2.563 -0.1082  0.0145  0.0132
 4276TIP3    H112792   5.376   1.233   2.540  1.6578  0.8269  1.4101
 4276TIP3    H212793   5.268   1.276   2.636  2.7611  0.8656  2.6618
 4277TIP3   OH212794   0.993   5.768   4.372  0.5901 -0.0055 -0.7246
 4277TIP3    H112795   1.034   5.726   4.448 -0.2665 -0.3297 -0.4274
 4277TIP3    H212796   0.915   5.811   4.408  0.3468  0.1000 -1.3755
 4278TIP3   OH212797   5.758   1.597   0.384  0.0059 -0.3818 -0.1323
 4278TIP3    H112798   5.777   1.665   0.448  0.4021 -0.7982  0.1997
 4278TIP3    H212799   5.820   1.527   0.404  0.6766 -0.2036 -1.4599
 4279TIP3   OH212800   4.549   5.536   0.316  0.8755 -0.0071  0.3425
 4279TIP3    H112801   4.485   5.605   0.333 -0.5628 -0.9101 -1.1567
 4279TIP3    H212802   4.598   5.529   0.398  0.4404  2.1005  0.8581
 4280TIP3   OH212803   1.437   2.457   1.883  0.2343 -0.6047  0.0231
 4280TIP3    H112804   1.358   2.419   1.924  0.2400 -0.0051  0.6061
 4280TIP3    H212805   1.421   2.551   1.884  1.4375 -0.3814  1.1970
 4281TIP3   OH212806   1.319   5.588   3.832  0.0493 -0.3189 -0.4894
 4281TIP3    H112807   1.241   5.544   3.867 -1.3262  1.1796 -1.5333
 4281TIP3    H212808   1.326   5.668   3.883  0.9770 -0.4762 -0.3554
 4282TIP3   OH212809   4.746   1.003   0.175 -0.3807  0.7396 -0.6668
 4282TIP3    H112810   4.691   1.037   0.104  0.3310 -0.8555 -2.0537
 4282TIP3    H212811   4.719   0.912   0.185 -1.0127  1.1147  1.7239
 4283TIP3   OH212812   5.099   4.241   0.486  0.1821  0.1698  0.1613
 4283TIP3    H112813   5.179   4.207   0.446 -0.3395 -0.3278 -0.4725
 4283TIP3    H212814   5.129   4.313   0.542  1.0613  0.0408 -0.1316
 4284TIP3   OH212815   0.167   6.338   0.576  0.2863 -0.3230  0.2026
 4284TIP3    H112816   0.128   6.358   0.661  0.1797 -0.5391  0.2064
 4284TIP3    H212817   0.253   6.301   0.597  0.6312  0.4375  0.1844
 4285TIP3   OH212818   3.020   1.802   0.079 -0.3591 -0.2800 -0.1861
 4285TIP3    H112819   3.000   1.896   0.070 -2.3236 -0.8032 -2.1510
 4285TIP3    H212820   2.935   1.762   0.099 -0.2834 -2.0058 -2.9666
 4286TIP3   OH212821   1.313   5.950   2.992 -0.1445  0.3412 -0.6657
 4286TIP3    H112822   1.351   5.894   3.059 -0.5421  1.1942  0.3024
 4286TIP3    H212823   1.221   5.922   2.986 -0.2607  0.6605 -0.4151
 4287TIP3   OH212824   3.644   5.889   1.066 -0.2042  0.7957 -0.0294
 4287TIP3    H112825   3.664   5.979   1.093 -0.4559  1.2650 -1.3474
 4287TIP3    H212826   3.687   5.879   0.981  0.3890 -0.5700  0.4048
 4288TIP3   OH212827   5.184   2.293   3.729  0.6457  0.2312  0.1428
 4288TIP3    H112828   5.277   2.274   3.717  0.9177  2.0598 -1.1622
 4288TIP3    H212829   5.139   2.213   3.704  1.8541 -0.6954  0.8487
 4289TIP3   OH212830   7.112   2.230   3.228  0.2021  0.4109 -0.1326
 4289TIP3    H112831   7.177   2.245   3.297  1.5158  0.6792 -1.3826
 4289TIP3    H212832   7.028   2.250   3.269  1.0262  1.4083  1.1379
 4290TIP3   OH212833   1.341   5.413   0.780 -0.2775  0.4769 -0.2468
 4290TIP3    H112834   1.382   5.387   0.697 -1.7853 -0.1543 -0.8192
 4290TIP3    H212835   1.402   5.382   0.847 -0.3090 -1.4105 -1.0302
 4291TIP3   OH212836   6.476   6.075   2.919 -0.3520 -0.1468 -0.1790
 4291TIP3    H112837   6.441   6.035   2.999 -3.5736 -0.7546 -1.7429
 4291TIP3    H212838   6.526   6.005   2.878  0.3050 -0.1971  0.6644
 4292TIP3   OH212839   1.251   1.148   1.220  0.0788  0.4849 -0.1629
 4292TIP3    H112840   1.345   1.153   1.238 -0.3252  1.9647  2.0001
 4292TIP3    H212841   1.223   1.065   1.259  0.2538  0.7833  0.6175
 4293TIP3   OH212842   6.966   4.753   2.582  0.5114  0.0210  0.3261
 4293TIP3    H112843   7.059   4.771   2.570  0.6903 -0.4699  0.9443
 4293TIP3    H212844   6.964   4.670   2.630 -0.2578 -0.6200 -0.7632
 4294TIP3   OH212845   5.012   1.137   5.544 -0.1157 -0.0870 -0.6950
 4294TIP3    H112846   4.937   1.192   5.568 -1.3113 -0.3497 -3.5347
 4294TIP3    H212847   4.976   1.071   5.485  1.9920 -1.6062 -0.3971
 4295TIP3   OH212848   6.235   0.043   4.582 -0.4855  0.1249  0.0582
 4295TIP3    H112849   6.167  -0.022   4.599  0.1827 -0.7251 -0.4262
 4295TIP3    H212850   6.233   0.054   4.487 -0.2300  0.4220  0.0877
 4296TIP3   OH212851   6.138   4.068   4.055  0.1822  0.0448 -0.2687
 4296TIP3    H112852   6.187   3.993   4.089 -0.8389  0.2265  1.8026
 4296TIP3    H212853   6.204   4.127   4.020  1.4861  0.2417  2.3313
 4297TIP3   OH212854   2.255   0.542   3.313  0.8092 -0.2327  0.3095
 4297TIP3    H112855   2.177   0.580   3.354 -0.5441 -2.3843 -0.0679
 4297TIP3    H212856   2.318   0.613   3.309 -0.6581  1.2383  1.8858
 4298TIP3   OH212857   2.251   3.963   4.492 -0.0624 -0.3761  0.0493
 4298TIP3    H112858   2.160   3.942   4.511 -0.2494  1.2692  1.2219
 4298TIP3    H212859   2.284   3.888   4.443 -1.5367 -1.7999  1.1530
 4299TIP3   OH212860   6.993   6.564   1.395  0.2979 -0.3315 -0.0807
 4299TIP3    H112861   7.041   6.493   1.351  1.5797 -0.3099  1.2057
 4299TIP3    H212862   7.021   6.643   1.348  0.6425 -0.4431 -0.0694
 4300TIP3   OH212863   2.882   5.945   4.441 -0.2373 -0.4401  0.2879
 4300TIP3    H112864   2.807   5.889   4.425 -0.7410 -0.1502  1.4952
 4300TIP3    H212865   2.845   6.028   4.469  0.5055  0.4263 -1.1885
 4301TIP3   OH212866   0.037   5.215   0.105 -0.0093  0.2609 -0.3228
 4301TIP3    H112867   0.128   5.227   0.129  0.5530 -2.7167 -0.5922
 4301TIP3    H212868   0.038   5.205   0.010 -0.9534  2.3502 -0.6012
 4302TIP3   OH212869   4.311   3.000   0.184 -0.0689  0.2536 -0.3098
 4302TIP3    H112870   4.259   2.981   0.263  0.1679  0.9455  0.0225
 4302TIP3    H212871   4.252   2.979   0.111  0.1968 -1.7640  0.0156
 4303TIP3   OH212872   5.626   6.257   1.124 -0.1100 -0.3904  0.0344
 4303TIP3    H112873   5.595   6.191   1.186 -0.1356  0.3655  0.8382
 4303TIP3    H212874   5.554   6.267   1.062 -0.5813 -0.2791  0.5861
 4304TIP3   OH212875   3.609   6.703   1.581  0.0429  0.5486 -0.3445
 4304TIP3    H112876   3.533   6.662   1.621  0.2948  2.3462  2.1632
 4304TIP3    H212877   3.663   6.629   1.552 -2.0291 -0.7602 -1.0564
 4305TIP3   OH212878   6.353   6.570   5.634 -0.0227  0.3646  0.3361
 4305TIP3    H112879   6.346   6.547   5.541 -0.3153  0.9061  0.2188
 4305TIP3    H212880   6.307   6.654   5.642 -0.7188 -0.0791  1.1282
 4306TIP3   OH212881   3.738   0.200   2.556  0.4580 -0.3822  0.0087
 4306TIP3    H112882   3.735   0.289   2.520 -1.0617  0.0745  1.1433
 4306TIP3    H212883   3.657   0.159   2.525  1.6082 -1.7625 -1.3328
 4307TIP3   OH212884   6.706   4.134   0.374 -0.0929 -0.1232  0.4798
 4307TIP3    H112885   6.774   4.126   0.307 -1.1963 -1.5259 -0.5417
 4307TIP3    H212886   6.683   4.227   0.375  0.1745 -0.0208 -0.8887
 4308TIP3   OH212887   2.176   1.022   5.482  0.1182 -0.3329 -0.2648
 4308TIP3    H112888   2.197   0.966   5.407  0.0753 -1.1078  0.2941
 4308TIP3    H212889   2.261   1.050   5.516  0.1754 -1.0631  0.2009
 4309TIP3   OH212890   6.945   1.234   5.853 -0.5921  0.1574 -0.0603
 4309TIP3    H112891   6.862   1.193   5.879 -1.3233  1.2758 -0.5611
 4309TIP3    H212892   6.946   1.226   5.757  0.4638 -0.8996  0.0068
 4310TIP3   OH212893   7.202   5.770   3.613  0.2583  0.1388  0.1022
 4310TIP3    H112894   7.222   5.718   3.535 -3.3802  1.0058 -1.6045
 4310TIP3    H212895   7.128   5.725   3.654 -0.7134  2.0317  0.5563
 4311TIP3   OH212896   4.216   6.776   4.004  0.0351  0.0086 -0.0529
 4311TIP3    H112897   4.260   6.843   4.056 -1.5769  0.6459  0.5493
 4311TIP3    H212898   4.286   6.716   3.979  1.6936  2.2371 -1.1891
 4312TIP3   OH212899   2.921   2.497   3.824 -0.2928 -0.1566 -0.2626
 4312TIP3    H112900   2.867   2.419   3.840 -1.6400  0.4973 -1.3707
 4312TIP3    H212901   2.986   2.496   3.894 -0.6397 -1.9585  0.0820
 4313TIP3   OH212902   0.655   3.069   3.469 -0.3782  0.1931 -0.0032
 4313TIP3    H112903   0.647   3.032   3.558 -0.8084 -1.2404 -0.6028
 4313TIP3    H212904   0.749   3.080   3.457 -0.3145  0.4354  0.6476
 4314TIP3   OH212905   6.569   6.523   5.820 -0.1735  0.0706  0.4005
 4314TIP3    H112906   6.508   6.530   5.746 -0.7842  0.9319  0.9764
 4314TIP3    H212907   6.574   6.429   5.838 -1.0811 -0.0350  0.1446
 4315TIP3   OH212908   5.855   2.482   1.050 -0.4657  0.0254 -0.1673
 4315TIP3    H112909   5.918   2.450   1.114  0.2914 -0.2399 -1.0327
 4315TIP3    H212910   5.899   2.474   0.966 -2.1941 -1.6343 -0.9824
 4316TIP3   OH212911   5.897   4.817   0.108 -1.1857 -0.0197 -0.2421
 4316TIP3    H112912   5.831   4.793   0.172 -1.0334 -1.5863 -0.6446
 4316TIP3    H212913   5.892   4.750   0.040 -0.3549  0.7946 -1.1550
 4317TIP3   OH212914   1.437   0.724   1.661 -0.4771  0.1237  0.2346
 4317TIP3    H112915   1.530   0.727   1.684 -0.5250  0.5744  0.3726
 4317TIP3    H212916   1.427   0.793   1.595 -0.4865 -0.6686 -0.6079
 4318TIP3   OH212917   5.728   0.750   4.897  0.2627 -0.7226  0.0204
 4318TIP3    H112918   5.722   0.844   4.885  1.4767 -0.6387 -0.0418
 4318TIP3    H212919   5.732   0.738   4.992  1.1835 -0.6245  0.0007
 4319TIP3   OH212920   3.607   4.168   0.791  0.1955 -0.4199 -0.0226
 4319TIP3    H112921   3.548   4.107   0.834 -0.9882  0.4059 -0.4321
 4319TIP3    H212922   3.558   4.250   0.786  1.6334  0.4987  0.2423
 4320TIP3   OH212923   0.197   4.188   1.324  0.4520  0.4524 -0.6409
 4320TIP3    H112924   0.118   4.142   1.295 -0.8798  1.4006  1.1961
 4320TIP3    H212925   0.249   4.120   1.367 -1.3523  0.4497  1.7835
 4321TIP3   OH212926   5.514   5.313   2.221 -0.0366 -0.4982  0.0011
 4321TIP3    H112927   5.600   5.297   2.260  0.6067 -0.6027 -1.3908
 4321TIP3    H212928   5.507   5.408   2.217  0.8956 -0.4468 -1.6212
 4322TIP3   OH212929   4.524   2.975   5.640 -0.0872  0.2844  0.6045
 4322TIP3    H112930   4.467   3.047   5.612  3.3683  2.5507 -1.3958
 4322TIP3    H212931   4.586   3.017   5.700  0.7270 -1.5478  1.0909
 4323TIP3   OH212932   2.178   1.106   1.923  0.3839 -0.1223 -0.1460
 4323TIP3    H112933   2.089   1.106   1.958  0.0243  2.0867 -0.8842
 4323TIP3    H212934   2.227   1.161   1.984  0.8928 -0.1194 -0.5568
 4324TIP3   OH212935   3.248   1.031   5.601  0.2503  0.2222  0.0700
 4324TIP3    H112936   3.215   1.081   5.526  0.4064  0.1781 -0.0270
 4324TIP3    H212937   3.175   0.974   5.625 -1.1416  2.6557  2.1490
 4325TIP3   OH212938   6.917   0.170   4.241  0.6909  0.6203 -0.2075
 4325TIP3    H112939   6.847   0.141   4.300 -0.7994  1.0752 -1.6799
 4325TIP3    H212940   6.902   0.121   4.161  1.6029  1.3011 -0.8023
 4326TIP3   OH212941   5.758   3.536   0.485 -0.2272  0.1244 -0.0708
 4326TIP3    H112942   5.790   3.565   0.399  0.1029  0.3428  0.1255
 4326TIP3    H212943   5.717   3.451   0.468  1.3966 -0.6797 -0.1484
 4327TIP3   OH212944   3.115   6.757   3.273  0.0086 -0.3926 -0.2497
 4327TIP3    H112945   3.188   6.784   3.328 -0.9272  1.0439  0.3399
 4327TIP3    H212946   3.045   6.736   3.334 -0.8550  0.6517 -0.8487
 4328TIP3   OH212947   4.975   0.064   2.856  0.1940 -0.2524  0.0261
 4328TIP3    H112948   4.960   0.037   2.765  0.2547 -0.2589  0.0181
 4328TIP3    H212949   4.909   0.131   2.872 -2.0385 -2.5099  1.0148
 4329TIP3   OH212950   6.522   5.316   5.823 -0.6734 -0.1590 -0.1965
 4329TIP3    H112951   6.579   5.329   5.747 -0.1071 -2.1611 -0.1692
 4329TIP3    H212952   6.570   5.356   5.895 -0.0641 -0.3853 -0.4673
 4330TIP3   OH212953   2.526   6.075   3.445 -0.5393  0.7150 -0.5116
 4330TIP3    H112954   2.539   6.127   3.366 -1.6926  2.4872  0.4071
 4330TIP3    H212955   2.431   6.067   3.453 -0.4073 -0.3284  0.1479
 4331TIP3   OH212956   1.083   5.645   5.803  0.5373 -0.4101 -0.2463
 4331TIP3    H112957   1.044   5.707   5.865  0.3484  0.9864 -1.7015
 4331TIP3    H212958   1.061   5.559   5.839 -1.1949  0.3497  0.6419
 4332TIP3   OH212959   7.086   3.159   4.617 -0.0283  0.3331 -0.1617
 4332TIP3    H112960   7.168   3.199   4.644  0.2418 -0.1609 -0.2454
 4332TIP3    H212961   7.018   3.213   4.658  0.2923  1.5287 -1.1666
 4333TIP3   OH212962   3.757   5.330   0.151 -0.0790  0.0025  0.1618
 4333TIP3    H112963   3.679   5.328   0.206 -0.6498  1.8761 -0.4756
 4333TIP3    H212964   3.725   5.359   0.065  1.2441  0.4353 -0.2098
 4334TIP3   OH212965   6.316   4.489   0.119 -0.2228  0.2564  0.0610
 4334TIP3    H112966   6.333   4.580   0.093  1.2289  0.1464  0.4910
 4334TIP3    H212967   6.379   4.438   0.069 -1.4466 -0.6010 -0.6389
 4335TIP3   OH212968   0.012   0.476   1.883  0.5343 -0.0084 -0.4174
 4335TIP3    H112969  -0.060   0.467   1.820  0.5172  0.3413 -0.4467
 4335TIP3    H212970   0.070   0.403   1.863 -1.1672 -2.0255  1.4043
 4336TIP3   OH212971   2.740   0.647   1.398  0.0027 -0.2944 -0.2618
 4336TIP3    H112972   2.830   0.616   1.404  0.3455 -0.4828 -4.1072
 4336TIP3    H212973   2.743   0.735   1.437  1.2181 -1.1524  1.7810
 4337TIP3   OH212974   3.942   2.094   2.751 -0.4091 -0.4181  0.6142
 4337TIP3    H112975   3.875   2.027   2.743 -0.2910 -0.5399  0.6406
 4337TIP3    H212976   3.896   2.170   2.789 -1.2045  0.5093 -2.0103
 4338TIP3   OH212977   4.495   4.040   4.919 -0.8276 -0.1053 -0.7155
 4338TIP3    H112978   4.460   3.986   4.990 -0.6503 -0.9368 -1.2494
 4338TIP3    H212979   4.543   4.110   4.963 -1.9666  0.2590  0.0124
 4339TIP3   OH212980   2.435   2.679   1.467  0.1684  0.1104 -0.0505
 4339TIP3    H112981   2.393   2.646   1.387 -1.7220  0.0941  0.8833
 4339TIP3    H212982   2.453   2.771   1.449  1.9262 -0.4252 -1.2918
 4340TIP3   OH212983   4.023   3.886   4.211 -0.7208  0.0170  0.1185
 4340TIP3    H112984   3.961   3.959   4.218  0.5484  1.2930 -1.2362
 4340TIP3    H212985   4.091   3.905   4.275 -1.3049 -0.9808  1.0648
 4341TIP3   OH212986   1.117   2.043   2.098  0.2361  0.3967 -0.0415
 4341TIP3    H112987   1.084   1.990   2.024  1.1111  0.1440 -0.2651
 4341TIP3    H212988   1.039   2.064   2.149 -0.2428 -0.3978 -0.4192
 4342TIP3   OH212989   5.046   5.854   1.363 -0.8396 -0.3634 -0.0081
 4342TIP3    H112990   5.121   5.879   1.417 -0.1208  1.3997 -1.7006
 4342TIP3    H212991   5.085   5.810   1.288 -1.4633  0.5774 -0.9083
 4343TIP3   OH212992   3.235   3.384   4.521  0.0854 -0.0021  0.8957
 4343TIP3    H112993   3.296   3.452   4.549 -0.1457  0.8438 -0.5449
 4343TIP3    H212994   3.186   3.424   4.450 -0.2865 -1.5762  0.2226
 4344TIP3   OH212995   4.963   6.812   2.770  0.0001 -0.4250 -0.1338
 4344TIP3    H112996   4.949   6.718   2.765 -2.1973 -0.1620  0.1145
 4344TIP3    H212997   4.920   6.848   2.693  0.2635  0.4371  0.1022
 4345TIP3   OH212998   3.147   0.387   1.538  0.3263 -0.0189 -0.1228
 4345TIP3    H112999   3.243   0.389   1.530  0.2840 -0.8047 -0.9548
 4345TIP3    H213000   3.119   0.475   1.515  0.7991 -0.0180 -0.7129
 4346TIP3   OH213001   5.188   2.448   0.118  0.3559 -0.0495  0.2911
 4346TIP3    H113002   5.223   2.359   0.112  0.6233  0.1051 -0.6475
 4346TIP3    H213003   5.169   2.460   0.211  0.9259 -0.8534  0.5242
 4347TIP3   OH213004   2.034   3.373   4.333  0.5108  0.1567  0.4714
 4347TIP3    H113005   2.099   3.303   4.342  0.0101 -0.3590  0.1579
 4347TIP3    H213006   2.069   3.445   4.385  1.5346  0.0349 -0.0115
 4348TIP3   OH213007   3.554   0.083   2.133  0.0515 -0.4824 -0.1082
 4348TIP3    H113008   3.618   0.146   2.164  1.4041 -2.7152  1.9877
 4348TIP3    H213009   3.600  -0.001   2.135 -2.3933 -1.9209 -0.2156
 4349TIP3   OH213010   6.804   2.306   2.495 -0.2424 -0.1420  0.6049
 4349TIP3    H113011   6.855   2.256   2.432 -0.4590 -2.7472  2.3584
 4349TIP3    H213012   6.715   2.272   2.488 -0.1140 -1.0923  2.8077
 4350TIP3   OH213013   3.113   5.056   1.589  0.5495 -0.7298  0.1138
 4350TIP3    H113014   3.146   4.982   1.639  0.9264  0.3369  1.4866
 4350TIP3    H213015   3.019   5.040   1.581  0.7530 -1.7857 -0.3986
 4351TIP3   OH213016   2.479   6.034   3.951 -0.2808 -0.0889  0.5893
 4351TIP3    H113017   2.573   6.018   3.963 -0.3160 -0.0805  0.8807
 4351TIP3    H213018   2.473   6.128   3.933 -0.0880 -0.3431 -0.9728
 4352TIP3   OH213019   5.266   4.839   3.219  0.0721 -0.1868 -0.0639
 4352TIP3    H113020   5.187   4.886   3.194 -0.0821 -0.2221  0.3418
 4352TIP3    H213021   5.338   4.887   3.178 -0.2090 -0.5719 -1.0359
 4353TIP3   OH213022   6.906   3.462   0.074 -0.1197 -0.3973  0.2530
 4353TIP3    H113023   6.820   3.431   0.102 -0.1667 -0.2892  0.2271
 4353TIP3    H213024   6.892   3.498  -0.013 -0.1837  0.2532  0.5313
 4354TIP3   OH213025   2.866   5.965   5.642  0.5394  0.0244 -0.0908
 4354TIP3    H113026   2.943   5.936   5.594  0.3248 -1.4661  0.4229
 4354TIP3    H213027   2.887   6.054   5.669  1.0058  0.5967 -2.1748
 4355TIP3   OH213028   5.318   6.284   3.047 -0.4209 -0.0397  0.0445
 4355TIP3    H113029   5.289   6.264   3.136 -0.2001 -2.0577 -0.2743
 4355TIP3    H213030   5.239   6.313   3.002 -0.3637  1.8899  1.0866
 4356TIP3   OH213031   6.383   4.903   3.357 -0.1728  0.8401  0.4729
 4356TIP3    H113032   6.474   4.912   3.328 -0.3225 -2.4247 -1.5485
 4356TIP3    H213033   6.332   4.905   3.277 -1.6316  0.2995  1.3471
 4357TIP3   OH213034   0.554   6.789   2.333  0.0642 -0.1201  0.1804
 4357TIP3    H113035   0.544   6.700   2.300  0.4381 -0.2003  0.2848
 4357TIP3    H213036   0.559   6.843   2.255  5.1177 -0.6787 -0.2012
 4358TIP3   OH213037   3.533   5.088   4.959  0.5105 -0.1429  0.4601
 4358TIP3    H113038   3.598   5.148   4.994  0.1089  0.4808  0.1580
 4358TIP3    H213039   3.462   5.144   4.928  0.7361 -0.6891 -1.1145
 4359TIP3   OH213040   7.103   3.485   2.721  0.0817 -0.4115 -0.1117
 4359TIP3    H113041   7.106   3.578   2.698  0.5313 -0.5072 -0.4459
 4359TIP3    H213042   7.045   3.445   2.656  0.4311 -0.4812 -0.3822
 4360TIP3   OH213043   4.969   6.114   3.870  0.4023  0.3474 -0.0846
 4360TIP3    H113044   4.947   6.182   3.933  0.8611  0.4528 -0.0296
 4360TIP3    H213045   5.062   6.128   3.852  0.2262  0.4450 -0.9386
 4361TIP3   OH213046   1.799   5.683   1.173 -0.1665  0.2484 -0.6413
 4361TIP3    H113047   1.887   5.703   1.206  0.1232  1.2890 -1.9756
 4361TIP3    H213048   1.786   5.590   1.194  1.1701  0.1258 -0.2698
 4362TIP3   OH213049   5.124   3.939   1.785  0.1923 -0.5118  0.2033
 4362TIP3    H113050   5.054   4.003   1.794 -0.0330 -0.8615  1.0598
 4362TIP3    H213051   5.185   3.959   1.856 -0.8844 -2.4445  1.7978
 4363TIP3   OH213052   5.067   1.274   2.386  0.1037 -0.5732  0.3835
 4363TIP3    H113053   4.997   1.333   2.414 -0.3469 -0.5717 -0.7042
 4363TIP3    H213054   5.087   1.222   2.463 -1.5193 -0.9878  0.5488
 4364TIP3   OH213055   0.690   2.610   1.792 -0.6603  0.6470  0.2411
 4364TIP3    H113056   0.765   2.552   1.781  0.2493  1.7113  0.6350
 4364TIP3    H213057   0.726   2.687   1.836 -2.0556  1.0355  0.7551
 4365TIP3   OH213058   7.156   0.147   4.572 -0.0893 -0.2853 -0.3442
 4365TIP3    H113059   7.111   0.230   4.558 -0.2408 -0.4376 -0.7635
 4365TIP3    H213060   7.086   0.082   4.578  0.0357 -0.4043 -0.1670
 4366TIP3   OH213061   1.311   5.547   4.290  0.0132 -0.2619  0.1798
 4366TIP3    H113062   1.332   5.503   4.372  0.2521 -1.8805 -0.6957
 4366TIP3    H213063   1.221   5.520   4.271  0.5440 -1.3902 -0.9381
 4367TIP3   OH213064   4.982   2.594   5.416 -0.3137 -0.2960 -0.3949
 4367TIP3    H113065   5.060   2.542   5.401  1.0078  1.4590  0.0738
 4367TIP3    H213066   4.925   2.574   5.341  1.7248  0.3993 -2.2193
 4368TIP3   OH213067   3.130   3.427   3.991 -0.3275  0.2508  0.3361
 4368TIP3    H113068   3.144   3.437   4.085 -3.5437 -1.5030  1.1487
 4368TIP3    H213069   3.202   3.372   3.961 -0.7598 -1.5814  2.4153
 4369TIP3   OH213070   1.843   0.842   0.535  0.5832  0.0465 -0.0787
 4369TIP3    H113071   1.854   0.760   0.583  1.1434  1.4371  2.3078
 4369TIP3    H213072   1.748   0.857   0.534  0.1843 -1.8067 -2.8201
 4370TIP3   OH213073   3.698   5.021   1.822 -0.1968 -0.2651  0.3719
 4370TIP3    H113074   3.686   5.089   1.755  1.3509  0.1032  0.4291
 4370TIP3    H213075   3.672   5.063   1.904  0.5063  0.1891  0.3704
 4371TIP3   OH213076   6.891   0.658   5.838 -0.1734  0.2511  0.4053
 4371TIP3    H113077   6.830   0.671   5.911  0.9223 -0.9354  1.5911
 4371TIP3    H213078   6.974   0.694   5.869  0.5804 -1.2172  0.2086
 4372TIP3   OH213079   0.590   2.975   0.911  0.3278 -0.1795 -0.4809
 4372TIP3    H113080   0.632   2.998   0.994 -1.3521  0.3951  0.2540
 4372TIP3    H213081   0.570   2.882   0.920 -0.7375  0.1031  0.1865
 4373TIP3   OH213082   1.750   4.234   2.369  0.1290 -0.2201 -0.5123
 4373TIP3    H113083   1.767   4.321   2.331 -0.7946  0.7019  1.0569
 4373TIP3    H213084   1.656   4.233   2.385 -0.0886 -2.0474 -1.6677
 4374TIP3   OH213085   2.753   3.823   0.073 -0.3583 -0.1304  0.1237
 4374TIP3    H113086   2.779   3.861  -0.010 -0.3881  0.5075  0.3962
 4374TIP3    H213087   2.827   3.769   0.100 -0.2746 -0.1893 -0.2232
 4375TIP3   OH213088   2.220   6.664   4.311  0.2788  0.4352 -0.1930
 4375TIP3    H113089   2.180   6.582   4.341  0.2197 -0.0452 -1.4817
 4375TIP3    H213090   2.309   6.661   4.345 -0.0995  0.4468  0.8289
 4376TIP3   OH213091   6.639   2.070   3.941 -0.1251 -0.5132  0.2218
 4376TIP3    H113092   6.643   2.039   3.851  1.3727 -1.4821  0.5783
 4376TIP3    H213093   6.562   2.026   3.978 -1.4678  0.8234 -0.8718
 4377TIP3   OH213094   2.462   3.458   0.268  0.1221  0.3305  0.1932
 4377TIP3    H113095   2.541   3.411   0.296  0.1802 -0.6247 -1.4633
 4377TIP3    H213096   2.489   3.550   0.266  1.0536  0.0701  0.1487
 4378TIP3   OH213097   0.202   6.020   1.071 -0.0103  0.2161 -0.2303
 4378TIP3    H113098   0.170   6.023   1.161 -0.9635  0.6583 -0.5663
 4378TIP3    H213099   0.215   5.927   1.053 -3.1689 -0.2303 -0.7379
 4379TIP3   OH213100   4.235   0.377   3.302 -0.1675 -0.3181 -0.5263
 4379TIP3    H113101   4.182   0.298   3.315  0.2781 -0.2287  2.6558
 4379TIP3    H213102   4.317   0.345   3.264 -0.3849 -1.2654 -0.2332
 4380TIP3   OH213103   3.078   3.278   4.749  0.3304  0.5471  0.4186
 4380TIP3    H113104   3.122   3.268   4.664 -1.0724 -1.7773 -0.1368
 4380TIP3    H213105   3.148   3.268   4.814  1.3294  1.7793 -0.4250
 4381TIP3   OH213106   2.372   2.051   0.514  0.0122 -0.1054  0.5313
 4381TIP3    H113107   2.340   1.961   0.514  1.7450 -0.7789 -0.4685
 4381TIP3    H213108   2.302   2.102   0.555 -2.1676 -1.4856 -1.2769
 4382TIP3   OH213109   4.136   0.758   5.522 -0.3582 -0.8911 -0.3730
 4382TIP3    H113110   4.082   0.727   5.595  0.1243  0.3052  0.5252
 4382TIP3    H213111   4.119   0.852   5.517  0.5591 -0.7411 -0.9990
 4383TIP3   OH213112   3.724   4.181   0.511 -0.1631  0.0109  0.4939
 4383TIP3    H113113   3.815   4.153   0.518  0.1246  0.9993  0.8385
 4383TIP3    H213114   3.689   4.172   0.600 -0.4553 -0.5110  0.3333
 4384TIP3   OH213115   1.101   0.118   3.463  0.3760  0.2625  0.1845
 4384TIP3    H113116   1.095   0.203   3.419 -2.4996 -0.2522 -0.5796
 4384TIP3    H213117   1.062   0.056   3.402  1.4268 -1.4695  1.1794
 4385TIP3   OH213118   6.541   3.301   0.696  0.0645  0.0279 -0.2712
 4385TIP3    H113119   6.554   3.367   0.765 -1.3493  0.4527 -0.3652
 4385TIP3    H213120   6.628   3.287   0.659  0.6636  0.6476  0.8342
 4386TIP3   OH213121   6.359   4.217   2.689 -0.3772  0.0467  0.1605
 4386TIP3    H113122   6.277   4.187   2.729 -0.6312 -0.6074 -0.8081
 4386TIP3    H213123   6.372   4.304   2.725 -0.8755 -0.3044  1.2390
 4387TIP3   OH213124   5.850   5.234   2.719 -0.1965 -0.0442  0.4402
 4387TIP3    H113125   5.783   5.287   2.763 -0.5997 -0.5869  0.4845
 4387TIP3    H213126   5.802   5.159   2.684 -0.2943  1.3590 -2.7507
 4388TIP3   OH213127   1.713   0.087   4.676  0.1341  0.1252  0.7767
 4388TIP3    H113128   1.724  -0.007   4.690  0.1023  0.0592  0.3600
 4388TIP3    H213129   1.788   0.126   4.721  0.4236 -0.1320  0.5235
 4389TIP3   OH213130   0.861   1.367   1.095  0.0220  0.3186 -0.7876
 4389TIP3    H113131   0.829   1.278   1.083 -2.2771  0.3767  3.1616
 4389TIP3    H213132   0.907   1.365   1.180 -0.2225  2.8841 -0.5158
 4390TIP3   OH213133   0.364   5.305   4.955 -0.1226  0.0767  0.4970
 4390TIP3    H113134   0.457   5.326   4.953  0.0720 -0.7891 -1.6917
 4390TIP3    H213135   0.321   5.389   4.972  0.9673  0.8782 -0.6014
 4391TIP3   OH213136   5.565   6.071   1.346 -0.4124 -0.1849  0.2458
 4391TIP3    H113137   5.472   6.091   1.333 -0.8025 -1.3492  1.0801
 4391TIP3    H213138   5.596   6.139   1.406  0.0087  1.8687 -2.1501
 4392TIP3   OH213139   1.996   4.654   2.674  0.1795  0.0261 -0.0225
 4392TIP3    H113140   1.959   4.731   2.718  4.0846  1.9058  0.3806
 4392TIP3    H213141   1.962   4.660   2.584 -3.3810 -0.6719  1.0987
 4393TIP3   OH213142   2.816   5.711   4.225 -0.2894 -0.6713 -0.3697
 4393TIP3    H113143   2.742   5.707   4.165 -0.2416  1.1058 -0.5805
 4393TIP3    H213144   2.793   5.650   4.296 -1.8312 -0.3147 -0.5409
 4394TIP3   OH213145   2.595   0.670   4.822  0.0933  0.0983  0.0064
 4394TIP3    H113146   2.600   0.763   4.843  0.6172  0.4087 -1.3989
 4394TIP3    H213147   2.569   0.628   4.904  1.1874  1.3210  1.0118
 4395TIP3   OH213148   1.497   6.525   1.336  0.9597  0.2608 -0.1539
 4395TIP3    H113149   1.487   6.500   1.428 -0.4189  0.8699 -0.1031
 4395TIP3    H213150   1.507   6.620   1.337 -1.0017  0.5195 -0.6981
 4396TIP3   OH213151   5.575   3.547   0.208 -0.1465  0.7513 -0.8514
 4396TIP3    H113152   5.545   3.547   0.299  0.7899  1.0300 -0.5193
 4396TIP3    H213153   5.506   3.502   0.159 -0.6479  0.5662  0.0020
 4397TIP3   OH213154   3.628   5.231   2.057  0.2403 -0.1775 -0.6042
 4397TIP3    H113155   3.696   5.288   2.022  0.9579 -0.2737  0.5560
 4397TIP3    H213156   3.627   5.250   2.151  0.5520 -2.0981 -0.1656
 4398TIP3   OH213157   5.234   3.151   5.195  0.4773  0.0931 -0.0978
 4398TIP3    H113158   5.301   3.188   5.253  1.2484 -0.4875 -0.6031
 4398TIP3    H213159   5.151   3.172   5.238  1.0141  0.1417  0.9389
 4399TIP3   OH213160   4.125   0.813   3.497 -0.1016  0.5229  0.0123
 4399TIP3    H113161   4.071   0.735   3.481 -0.2926  0.2332  1.8077
 4399TIP3    H213162   4.206   0.778   3.534  0.3671  1.1102 -0.4388
 4400TIP3   OH213163   3.874   3.190   2.343 -0.2730 -0.1034 -0.1232
 4400TIP3    H113164   3.800   3.219   2.288 -1.5160 -0.6672  1.1857
 4400TIP3    H213165   3.833   3.140   2.413  1.4643 -1.1814  0.1646
 4401TIP3   OH213166   3.607   1.439   5.231  0.2065 -0.4532  0.4867
 4401TIP3    H113167   3.544   1.411   5.165 -0.4219 -0.7439  1.1979
 4401TIP3    H213168   3.677   1.481   5.181 -0.4532 -0.3029 -0.3295
 4402TIP3   OH213169   7.152   6.778   2.454  0.1672  0.0733  0.4622
 4402TIP3    H113170   7.160   6.797   2.547  1.2785 -1.1003  0.6310
 4402TIP3    H213171   7.068   6.735   2.445  0.0642  0.1745  0.9222
 4403TIP3   OH213172   2.990   6.400   3.520 -0.8828  0.2317  0.0437
 4403TIP3    H113173   2.936   6.342   3.467 -0.5974 -2.2849  2.2947
 4403TIP3    H213174   3.073   6.406   3.473 -1.1826 -0.5994 -0.6058
 4404TIP3   OH213175   2.033   3.760   0.782 -0.0614  0.2213  0.6424
 4404TIP3    H113176   2.062   3.782   0.693  0.4600  2.5267  1.2970
 4404TIP3    H213177   2.020   3.666   0.781  0.2491  0.1438 -1.7870
 4405TIP3   OH213178   2.615   3.199   4.329  0.3322  0.6281  0.1116
 4405TIP3    H113179   2.615   3.115   4.375  0.3738  1.5851  1.9574
 4405TIP3    H213180   2.527   3.206   4.292  0.5949 -0.5778 -0.8056
 4406TIP3   OH213181   1.611   4.056   3.724 -0.5321 -0.1319 -0.3855
 4406TIP3    H113182   1.558   4.132   3.699 -1.9483 -1.2231 -0.8624
 4406TIP3    H213183   1.695   4.092   3.750 -1.1725  1.5921 -0.6142
 4407TIP3   OH213184   4.932   4.518   2.957 -0.0276 -0.2001  0.2764
 4407TIP3    H113185   4.856   4.559   2.997 -0.5907 -1.3587  0.4498
 4407TIP3    H213186   4.970   4.464   3.027  0.8230  0.1874  0.1250
 4408TIP3   OH213187   5.283   5.901   1.479 -0.2988  0.1826 -0.8462
 4408TIP3    H113188   5.341   5.935   1.547  1.7770  1.4435 -3.0841
 4408TIP3    H213189   5.333   5.833   1.435 -2.7196 -2.7977  0.6027
 4409TIP3   OH213190   4.452   5.927   1.504 -0.6307  0.1781 -0.6370
 4409TIP3    H113191   4.393   5.857   1.475 -0.4096 -0.6744  0.8822
 4409TIP3    H213192   4.520   5.882   1.554  0.0525  1.3879 -0.4456
 4410TIP3   OH213193   4.275   3.583   1.095 -0.4669 -0.3139 -0.5777
 4410TIP3    H113194   4.337   3.624   1.155 -2.1256  2.2618 -0.4708
 4410TIP3    H213195   4.232   3.515   1.147  1.2223 -1.1643 -0.2433
 4411TIP3   OH213196   3.227   4.571   0.680 -0.0782  0.5053  0.3964
 4411TIP3    H113197   3.322   4.571   0.671  0.0753 -0.2567  1.7203
 4411TIP3    H213198   3.211   4.602   0.769 -0.9297 -1.3621  0.9583
 4412TIP3   OH213199   7.111   2.514   4.495  0.9164  0.0907  0.0729
 4412TIP3    H113200   7.055   2.500   4.571  1.4890 -0.0742  0.4700
 4412TIP3    H213201   7.103   2.607   4.476 -1.1314 -0.2878 -1.1769
 4413TIP3   OH213202   1.712   5.688   0.785  0.2460 -0.0227  0.5991
 4413TIP3    H113203   1.785   5.702   0.725  0.7674  0.8944  1.4040
 4413TIP3    H213204   1.742   5.618   0.844 -0.5019 -1.3448 -0.5444
 4414TIP3   OH213205   7.043   1.670   5.558  0.1854  0.1640  0.0196
 4414TIP3    H113206   6.985   1.702   5.627  0.1152  0.6871 -0.2755
 4414TIP3    H213207   6.990   1.607   5.509 -0.7506  1.9240 -1.3303
 4415TIP3   OH213208   5.712   4.799   0.319  0.3034  0.4291 -0.4606
 4415TIP3    H113209   5.649   4.756   0.377 -0.3078  0.3927 -1.1381
 4415TIP3    H213210   5.733   4.881   0.364  0.4169  0.0680  0.1703
 4416TIP3   OH213211   0.530   0.091   5.028 -0.1166  0.1336  0.4352
 4416TIP3    H113212   0.624   0.073   5.028  0.1136  1.2706  0.0325
 4416TIP3    H213213   0.512   0.126   4.941 -0.8211  0.4001  0.6808
 4417TIP3   OH213214   1.901   5.811   1.842 -0.4404  0.0958 -0.0023
 4417TIP3    H113215   1.891   5.858   1.759 -3.5550 -0.0800  0.1552
 4417TIP3    H213216   1.862   5.868   1.907 -1.4706 -1.3585  0.7077
 4418TIP3   OH213217   4.463   2.704   5.162 -0.0310 -0.4947 -0.2948
 4418TIP3    H113218   4.508   2.697   5.247  1.5047 -1.1910 -1.1213
 4418TIP3    H213219   4.375   2.733   5.184  0.4844 -0.1520  1.5032
 4419TIP3   OH213220   3.333   4.915   1.720  0.4400 -0.3998 -0.6257
 4419TIP3    H113221   3.399   4.854   1.752  0.1186  0.1507  1.2147
 4419TIP3    H213222   3.366   4.944   1.635  2.1646 -0.7320 -0.1078
 4420TIP3   OH213223   4.429   0.137   1.157  0.2220  0.0268  0.3631
 4420TIP3    H113224   4.493   0.109   1.092 -1.9097 -0.6837 -1.5948
 4420TIP3    H213225   4.425   0.232   1.147  3.2462  0.5895  2.8967
 4421TIP3   OH213226   5.569   1.478   1.394 -0.1260 -0.0940 -0.0415
 4421TIP3    H113227   5.509   1.479   1.319  1.1474 -1.4585 -1.1443
 4421TIP3    H213228   5.519   1.436   1.464 -0.4638 -1.3305 -0.9838
 4422TIP3   OH213229   4.398   2.628   0.441  0.3335  0.2346  0.6282
 4422TIP3    H113230   4.458   2.631   0.366 -2.3083 -1.4752 -1.7627
 4422TIP3    H213231   4.405   2.539   0.475 -1.9600 -0.6013 -0.8373
 4423TIP3   OH213232   6.660   2.337   0.808 -0.1294 -0.3897 -0.4611
 4423TIP3    H113233   6.633   2.245   0.811  1.0839 -0.7820 -0.7632
 4423TIP3    H213234   6.744   2.339   0.855 -0.2520  0.6033 -0.2651
 4424TIP3   OH213235   6.053   1.730   0.307  0.0562  0.1948 -0.1035
 4424TIP3    H113236   6.072   1.697   0.395 -1.8385 -0.5288  0.0778
 4424TIP3    H213237   5.987   1.797   0.321  2.6296  3.0822 -0.6286
 4425TIP3   OH213238   6.906   4.798   1.663  0.5563  0.0301 -0.0368
 4425TIP3    H113239   6.845   4.854   1.711  0.5934  1.2735 -1.3793
 4425TIP3    H213240   6.881   4.808   1.571  0.7702 -1.9413 -0.3668
 4426TIP3   OH213241   2.999   3.320   0.687  0.1556 -0.5550 -0.7094
 4426TIP3    H113242   3.031   3.312   0.777  1.9940  0.8465 -1.1851
 4426TIP3    H213243   2.927   3.384   0.693  0.0920 -0.6647 -0.2156
 4427TIP3   OH213244   5.860   2.427   4.085 -0.0383  0.1944 -0.6874
 4427TIP3    H113245   5.853   2.414   3.991 -1.9442  0.0631 -0.5688
 4427TIP3    H213246   5.770   2.447   4.113  0.3995 -0.2401  1.1670
 4428TIP3   OH213247   5.243   0.767   3.526  0.0132 -0.1146  0.6626
 4428TIP3    H113248   5.265   0.806   3.442 -1.6491  1.1418  0.7743
 4428TIP3    H213249   5.224   0.675   3.506  1.4150 -0.2755 -0.0102
 4429TIP3   OH213250   1.637   0.130   4.409 -0.0290  0.0332 -0.1313
 4429TIP3    H113251   1.656   0.124   4.503 -0.8104  0.3320  0.0506
 4429TIP3    H213252   1.600   0.045   4.386  0.1657 -0.0412 -0.1711
 4430TIP3   OH213253   3.684   0.850   4.146  0.2717  0.2848  0.9073
 4430TIP3    H113254   3.693   0.912   4.218  2.3652  0.5475  0.4806
 4430TIP3    H213255   3.756   0.789   4.158 -1.3066 -1.6795  0.8841
 4431TIP3   OH213256   0.675   0.723   3.158  0.2180  0.4366  0.5368
 4431TIP3    H113257   0.667   0.673   3.077 -0.7691 -0.3821  1.1015
 4431TIP3    H213258   0.747   0.784   3.143  0.2927  0.0359 -0.8078
 4432TIP3   OH213259   3.362   0.904   2.519 -0.1682  0.0264  0.0310
 4432TIP3    H113260   3.378   0.883   2.427 -2.1138 -2.0746  0.0678
 4432TIP3    H213261   3.275   0.944   2.519  0.7455  2.1810  0.7845
 4433TIP3   OH213262   4.454   1.273   4.419  0.1614 -0.3629 -0.0447
 4433TIP3    H113263   4.374   1.290   4.369  0.1278  0.6650  0.3356
 4433TIP3    H213264   4.432   1.300   4.508 -0.0023 -2.8135  0.7064
 4434TIP3   OH213265   0.602   1.189   0.691  0.1062  0.9776 -0.3460
 4434TIP3    H113266   0.634   1.132   0.621  1.0818  2.3360 -1.0684
 4434TIP3    H213267   0.596   1.275   0.650 -2.1519  1.2781  0.4654
 4435TIP3   OH213268   4.424   0.724   5.649 -0.0550  0.0167 -0.7920
 4435TIP3    H113269   4.332   0.747   5.659  0.2101  0.9206 -0.2666
 4435TIP3    H213270   4.463   0.800   5.605  0.3708 -0.5142 -1.3497
 4436TIP3   OH213271   5.444   3.490   3.789  0.0476 -0.2031 -0.6527
 4436TIP3    H113272   5.420   3.409   3.834  0.1613  0.0086 -0.2037
 4436TIP3    H213273   5.511   3.464   3.726  0.2681 -0.4165 -0.3332
 4437TIP3   OH213274   5.656   4.956   3.483 -0.2095 -0.5846  0.3058
 4437TIP3    H113275   5.566   4.924   3.477 -0.0446 -0.9599 -0.1968
 4437TIP3    H213276   5.710   4.882   3.457  0.2338 -0.2740  0.3285
 4438TIP3   OH213277   1.176   0.123   5.353  0.4989 -0.2258 -0.1755
 4438TIP3    H113278   1.142   0.092   5.269  1.1198  0.9889 -0.8813
 4438TIP3    H213279   1.158   0.217   5.353  0.9711 -0.1279  0.8326
 4439TIP3   OH213280   2.485   2.940   1.432  0.4013 -0.7907  0.0906
 4439TIP3    H113281   2.435   2.917   1.354 -1.0266 -0.1340  0.7761
 4439TIP3    H213282   2.485   3.035   1.434  0.1192 -0.7969  1.0673
 4440TIP3   OH213283   4.007   3.634   2.807  0.0307  0.0076  0.0849
 4440TIP3    H113284   3.959   3.564   2.763 -0.0970  0.1396  0.0119
 4440TIP3    H213285   3.992   3.711   2.752  1.1792 -0.1697 -0.5002
 4441TIP3   OH213286   1.586   3.175   3.872 -0.3285  0.2285  0.5068
 4441TIP3    H113287   1.522   3.143   3.809  0.1779 -0.2743  0.2264
 4441TIP3    H213288   1.542   3.245   3.919 -0.5934  0.8644 -0.6564
 4442TIP3   OH213289   4.927   2.561   0.047  0.0662  0.2534 -0.1907
 4442TIP3    H113290   5.023   2.562   0.052  0.1154  2.1608 -0.4787
 4442TIP3    H213291   4.905   2.475   0.014  1.7095 -0.1248 -0.3809
 4443TIP3   OH213292   5.925   4.154   5.176 -0.0322 -0.3291  0.0729
 4443TIP3    H113293   5.989   4.215   5.139 -0.0417 -0.8153 -0.7918
 4443TIP3    H213294   5.870   4.207   5.232  0.3811  0.3281 -0.1365
 4444TIP3   OH213295   5.901   3.274   3.707  0.2560  0.1711  0.4611
 4444TIP3    H113296   5.900   3.356   3.659  0.7667  0.2016  0.4911
 4444TIP3    H213297   5.815   3.236   3.693  1.2453 -1.1850 -2.8283
 4445TIP3   OH213298   4.234   5.637   5.094 -0.1012 -0.1425 -0.5177
 4445TIP3    H113299   4.278   5.716   5.127  0.0360  0.7076 -2.5634
 4445TIP3    H213300   4.155   5.670   5.052 -2.1138 -1.5265  1.9001
 4446TIP3   OH213301   0.344   6.026   5.051  0.5222  0.1288 -0.2295
 4446TIP3    H113302   0.341   6.095   5.117  1.5644  1.1759 -1.2266
 4446TIP3    H213303   0.286   6.056   4.981 -0.7384 -1.0712  0.2707
 4447TIP3   OH213304   5.740   3.075   5.469  0.1672 -0.1656 -0.6308
 4447TIP3    H113305   5.796   3.091   5.545  0.4425 -0.1493 -0.8360
 4447TIP3    H213306   5.667   3.023   5.503  0.5312 -0.5590 -0.4499
 4448TIP3   OH213307   5.496   1.078   0.535 -0.4217  0.2496 -0.3048
 4448TIP3    H113308   5.572   1.029   0.505  0.6528  0.7406  1.4232
 4448TIP3    H213309   5.440   1.013   0.576  0.3147  0.2206  0.6982
 4449TIP3   OH213310   6.710   0.639   2.587  0.2117 -0.2652  0.5166
 4449TIP3    H113311   6.719   0.631   2.492 -0.6694 -2.8528  0.5728
 4449TIP3    H213312   6.679   0.553   2.616 -1.1461  0.9285  2.9690
 4450TIP3   OH213313   4.696   0.650   2.546  0.1909 -0.2790  0.1888
 4450TIP3    H113314   4.693   0.675   2.454 -0.7980  3.9128  1.1159
 4450TIP3    H213315   4.604   0.651   2.574  0.6207  2.1854  1.8703
 4451TIP3   OH213316   1.023   0.907   5.263 -0.1475 -0.1575 -0.0755
 4451TIP3    H113317   1.006   0.874   5.175  0.2145 -1.3638  0.2792
 4451TIP3    H213318   0.944   0.885   5.312 -0.2508  0.2887 -0.0433
 4452TIP3   OH213319   1.784   3.686   3.058 -0.2960  0.2044  0.3066
 4452TIP3    H113320   1.769   3.609   3.002 -1.7014  0.4526  0.3162
 4452TIP3    H213321   1.861   3.728   3.020  0.9801 -1.5906  0.7393
 4453TIP3   OH213322   2.856   1.325   1.459 -0.1066 -0.6897 -0.3176
 4453TIP3    H113323   2.921   1.288   1.518 -1.8684 -0.1211  2.1540
 4453TIP3    H213324   2.880   1.418   1.452 -0.1265 -0.6698 -0.1330
 4454TIP3   OH213325   1.805   4.301   5.315  0.0765  0.1599 -0.0756
 4454TIP3    H113326   1.873   4.318   5.250 -0.3997  0.4328 -0.5144
 4454TIP3    H213327   1.842   4.333   5.398  1.8852 -2.8645  0.4271
 4455TIP3   OH213328   1.333   6.782   1.596 -0.0234  0.1129  0.2147
 4455TIP3    H113329   1.335   6.780   1.500 -0.4372  1.1092  0.1740
 4455TIP3    H213330   1.244   6.811   1.617 -0.2979 -1.1926  0.9316
 4456TIP3   OH213331   6.309   6.761   4.822  0.2939  0.3981 -0.4310
 4456TIP3    H113332   6.363   6.820   4.769  0.4401  0.7795  0.1354
 4456TIP3    H213333   6.232   6.814   4.844 -0.2465 -0.0883 -1.0992
 4457TIP3   OH213334   3.061   3.232   3.696  0.2995  0.0660 -0.2920
 4457TIP3    H113335   3.156   3.231   3.706  0.2929  1.2299 -0.0659
 4457TIP3    H213336   3.036   3.324   3.702 -0.8445 -0.2183 -0.3687
 4458TIP3   OH213337   0.992   1.717   4.515  0.7280 -0.1229  0.8983
 4458TIP3    H113338   1.086   1.733   4.509  0.3883  1.9832  0.2780
 4458TIP3    H213339   0.970   1.732   4.606  0.9617 -0.5485  1.0288
 4459TIP3   OH213340   1.345   3.889   1.283  0.1811  0.2796 -0.2175
 4459TIP3    H113341   1.383   3.909   1.368  2.4407 -0.5695 -0.9483
 4459TIP3    H213342   1.349   3.972   1.235  1.2022  0.2042 -0.2871
 4460TIP3   OH213343   1.206   6.663   5.522  0.5387 -0.0538  0.4841
 4460TIP3    H113344   1.225   6.701   5.436  0.5101  1.1159  0.9663
 4460TIP3    H213345   1.110   6.656   5.525  0.2809  2.4149  1.3562
 4461TIP3   OH213346   1.535   0.952   1.995  0.1557 -0.4870 -0.4408
 4461TIP3    H113347   1.449   0.916   2.018 -0.0954 -0.3169 -1.0787
 4461TIP3    H213348   1.515   1.030   1.944  0.6938  0.7956  1.2546
 4462TIP3   OH213349   4.031   5.135   1.311  0.1740 -0.1386  0.6128
 4462TIP3    H113350   4.030   5.094   1.224  0.4210 -0.9173  0.9701
 4462TIP3    H213351   3.939   5.157   1.328  0.2688  1.1630 -0.3606
 4463TIP3   OH213352   4.612   1.009   3.927 -0.2423 -0.2111 -0.2481
 4463TIP3    H113353   4.534   0.975   3.883 -0.8179  0.3631  0.2942
 4463TIP3    H213354   4.582   1.031   4.015  0.2925  0.8891 -0.3153
 4464TIP3   OH213355   6.279   1.422   5.614  0.0798 -0.7790 -0.0336
 4464TIP3    H113356   6.288   1.344   5.670  1.7256 -1.3323 -0.9996
 4464TIP3    H213357   6.276   1.387   5.525 -0.1941  0.2165 -0.4235
 4465TIP3   OH213358   2.575   3.835   1.974 -0.7795 -0.0768  1.0081
 4465TIP3    H113359   2.640   3.777   2.014  0.2239  0.6770  0.5207
 4465TIP3    H213360   2.563   3.906   2.037 -0.8416 -0.0228  0.9363
 4466TIP3   OH213361   5.349   5.977   3.126  0.1875 -0.2134 -0.2408
 4466TIP3    H113362   5.287   5.949   3.193 -0.0617 -1.0778 -0.8128
 4466TIP3    H213363   5.321   6.065   3.103  0.0304 -0.0638  0.5058
 4467TIP3   OH213364   6.023   2.265   0.969 -0.1500  0.4154  0.1744
 4467TIP3    H113365   6.052   2.309   1.049  0.2439 -0.6825  0.6494
 4467TIP3    H213366   6.057   2.176   0.976  0.4371  0.4635 -1.5238
 4468TIP3   OH213367   4.605   2.917   2.669 -0.1529 -0.3845 -0.1031
 4468TIP3    H113368   4.692   2.879   2.671 -0.3364 -0.8339 -0.5769
 4468TIP3    H213369   4.597   2.963   2.753  1.3290  1.4490 -0.8875
 4469TIP3   OH213370   3.198   1.577   4.172 -0.5891  0.3071  0.6881
 4469TIP3    H113371   3.243   1.605   4.252 -0.5812 -0.6818  1.0438
 4469TIP3    H213372   3.263   1.525   4.125 -1.4384 -1.4366  1.3797
 4470TIP3   OH213373   1.077   0.809   1.871  0.7889 -0.2465 -0.0040
 4470TIP3    H113374   1.039   0.882   1.920  0.3756 -1.3806  1.4346
 4470TIP3    H213375   1.049   0.731   1.919  1.4657 -1.3405 -1.3307
 4471TIP3   OH213376   0.434   0.242   1.136  0.1376  0.8598  0.2068
 4471TIP3    H113377   0.366   0.300   1.102 -0.8776  0.3515  1.2976
 4471TIP3    H213378   0.487   0.220   1.059 -1.3089  0.7619 -0.8053
 4472TIP3   OH213379   5.240   0.529   2.448  0.0525  0.3357 -0.2197
 4472TIP3    H113380   5.320   0.562   2.406  0.1725  0.8486  0.4030
 4472TIP3    H213381   5.254   0.434   2.453  1.1157  0.5228  0.8653
 4473TIP3   OH213382   2.809   2.374   5.119 -0.6292 -0.1690  0.5373
 4473TIP3    H113383   2.755   2.323   5.058 -0.5783 -0.1581  0.4820
 4473TIP3    H213384   2.746   2.422   5.173 -0.6952  1.8364 -1.1926
 4474TIP3   OH213385   1.252   3.535   2.414 -0.1277 -0.0476 -0.0461
 4474TIP3    H113386   1.271   3.625   2.440 -0.8245 -0.0474  0.4837
 4474TIP3    H213387   1.235   3.542   2.320 -0.7838  0.4857  0.1002
 4475TIP3   OH213388   4.321   4.382   2.414 -0.0910  0.7600  0.3371
 4475TIP3    H113389   4.396   4.328   2.389 -0.6188 -0.7212  1.7820
 4475TIP3    H213390   4.260   4.374   2.340 -0.5806 -1.5169  0.8966
 4476TIP3   OH213391   6.825   2.850   0.791  0.3464  0.5499 -0.0346
 4476TIP3    H113392   6.747   2.837   0.846  1.2983 -0.2096  1.1841
 4476TIP3    H213393   6.821   2.779   0.727  1.6050 -1.4243  1.9539
 4477TIP3   OH213394   0.564   5.894   0.226  0.0594  0.1480  0.1624
 4477TIP3    H113395   0.526   5.918   0.142 -0.3751 -0.4781  0.1701
 4477TIP3    H213396   0.499   5.921   0.291  0.4745  0.7973  0.3157
 4478TIP3   OH213397   6.779   1.813   3.326 -0.0822 -0.0915  0.2851
 4478TIP3    H113398   6.873   1.831   3.332  0.1021 -0.4224 -1.1409
 4478TIP3    H213399   6.773   1.718   3.335 -0.3627  0.0067  1.1456
 4479TIP3   OH213400   3.952   3.343   5.824  0.2316 -0.1993  0.3501
 4479TIP3    H113401   3.957   3.392   5.906  1.0324  1.1828 -0.4918
 4479TIP3    H213402   3.954   3.410   5.755 -1.6861 -1.2212 -0.8017
 4480TIP3   OH213403   0.112   6.000   3.270  0.1620  0.2834 -0.1099
 4480TIP3    H113404   0.176   6.022   3.204 -0.0428 -0.5821 -0.6174
 4480TIP3    H213405   0.153   6.025   3.353  0.6249  0.9050 -0.5178
 4481TIP3   OH213406   7.101   1.142   0.260  0.1421  0.3736 -0.5627
 4481TIP3    H113407   7.143   1.071   0.309 -0.1325  1.7814  1.8773
 4481TIP3    H213408   7.029   1.100   0.214 -0.7864 -0.8265  1.7981
 4482TIP3   OH213409   2.908   1.585   3.638 -0.2986 -0.4812  0.3070
 4482TIP3    H113410   2.898   1.679   3.651  0.2607 -0.2857 -0.6366
 4482TIP3    H213411   3.002   1.569   3.650  0.2188 -0.3570 -2.8060
 4483TIP3   OH213412   4.545   6.501   1.375  0.1863  0.2587 -0.1232
 4483TIP3    H113413   4.576   6.578   1.423  0.0418  1.2137 -1.5151
 4483TIP3    H213414   4.455   6.490   1.404 -0.0396  1.0986 -0.4727
 4484TIP3   OH213415   5.537   1.312   3.907  0.0615  0.3274 -0.4687
 4484TIP3    H113416   5.560   1.389   3.958 -0.8803 -0.1109  0.6496
 4484TIP3    H213417   5.445   1.326   3.883 -0.5091 -1.0029  0.8268
 4485TIP3   OH213418   6.911   3.739   5.801 -0.1374 -0.3124  0.1652
 4485TIP3    H113419   6.890   3.660   5.852  1.0151 -0.8923 -0.2221
 4485TIP3    H213420   6.908   3.810   5.865 -1.6264 -0.5922  0.4299
 4486TIP3   OH213421   4.052   3.597   5.676  0.1917  0.0332 -0.0557
 4486TIP3    H113422   4.104   3.638   5.745 -2.0687 -1.3482  2.6446
 4486TIP3    H213423   4.004   3.669   5.636  2.5240  1.0467 -1.2421
 4487TIP3   OH213424   5.560   1.023   3.524  0.2619 -0.9403  0.6824
 4487TIP3    H113425   5.601   0.972   3.454  3.7007  0.9737  1.1151
 4487TIP3    H213426   5.469   1.032   3.496  0.5497 -3.5351 -1.5248
 4488TIP3   OH213427   5.797   3.282   4.822 -0.2004 -0.9231 -0.4336
 4488TIP3    H113428   5.859   3.333   4.771  0.2526 -1.2690 -0.2437
 4488TIP3    H213429   5.768   3.341   4.892 -1.0970 -0.3305 -1.2732
 4489TIP3   OH213430   5.657   3.965   3.456  0.0806 -0.3668 -0.0566
 4489TIP3    H113431   5.598   3.945   3.384  1.2369  0.2435 -1.2277
 4489TIP3    H213432   5.728   3.901   3.448  0.4148 -0.0447  0.2739
 4490TIP3   OH213433   4.426   0.245   0.587 -0.1768 -0.2158  0.1944
 4490TIP3    H113434   4.443   0.191   0.664  2.4719  1.2450  0.7670
 4490TIP3    H213435   4.510   0.250   0.541 -1.0798  0.9560 -1.4579
 4491TIP3   OH213436   0.343   6.350   2.259 -0.2729  1.1587 -0.0929
 4491TIP3    H113437   0.291   6.337   2.338 -2.0408 -0.8498 -1.4430
 4491TIP3    H213438   0.374   6.440   2.264  1.2237  0.5960  3.6739
 4492TIP3   OH213439   5.132   6.584   1.729 -0.6569 -0.5773 -0.0458
 4492TIP3    H113440   5.212   6.559   1.682  0.2210  1.3493  0.2746
 4492TIP3    H213441   5.101   6.503   1.769  2.2334 -1.1169  1.4010
 4493TIP3   OH213442   5.364   5.152   4.882  0.6442 -0.8046 -0.2724
 4493TIP3    H113443   5.409   5.129   4.963 -1.3940 -0.4677  1.0170
 4493TIP3    H213444   5.284   5.196   4.910  0.3359  0.2182 -2.5026
 4494TIP3   OH213445   6.407   0.817   3.440 -0.4694 -0.3304 -0.2603
 4494TIP3    H113446   6.369   0.903   3.426 -1.5041 -0.5029  1.1867
 4494TIP3    H213447   6.492   0.835   3.481 -0.4849  0.0013 -0.3703
 4495TIP3   OH213448   1.147   2.168   0.854 -0.1346  0.4089  0.0115
 4495TIP3    H113449   1.125   2.170   0.761 -0.1612  0.1929  0.0108
 4495TIP3    H213450   1.170   2.076   0.870 -0.7941  0.2976  0.3684
 4496TIP3   OH213451   6.881   1.140   5.560 -0.1114  0.0113  0.0891
 4496TIP3    H113452   6.836   1.140   5.476  1.9212  0.2828 -1.0779
 4496TIP3    H213453   6.871   1.050   5.592 -0.2704 -0.3135 -0.8190
 4497TIP3   OH213454   4.112   6.669   0.468 -0.2083 -0.3897  0.1988
 4497TIP3    H113455   4.035   6.613   0.466 -0.7692  0.4061 -1.3653
 4497TIP3    H213456   4.091   6.736   0.533 -1.6642  0.9076 -1.5114
 4498TIP3   OH213457   5.745   5.268   0.401 -0.1056  0.3500 -0.0240
 4498TIP3    H113458   5.700   5.350   0.383 -2.5137 -0.9409 -0.3059
 4498TIP3    H213459   5.753   5.226   0.316 -2.3446 -1.3158  0.5062
 4499TIP3   OH213460   1.780   4.503   2.267 -0.3486  0.1408 -0.1250
 4499TIP3    H113461   1.819   4.572   2.320 -1.0454 -0.5094  1.3100
 4499TIP3    H213462   1.697   4.539   2.236  0.5005  0.8706 -1.6420
 4500TIP3   OH213463   5.838   5.543   2.050 -0.0616 -0.4601 -0.1333
 4500TIP3    H113464   5.904   5.576   1.990 -1.3632  0.4384 -1.1322
 4500TIP3    H213465   5.780   5.489   1.995 -0.2975 -1.0512  0.6704
 4501TIP3   OH213466   1.879   3.040   1.705  0.1406 -0.7212 -0.1716
 4501TIP3    H113467   1.918   2.984   1.772  0.0659 -1.3903 -0.6791
 4501TIP3    H213468   1.945   3.043   1.635 -0.5776 -1.6603 -0.9277
 4502TIP3   OH213469   6.054   5.681   4.154 -0.1551  0.8805 -0.1797
 4502TIP3    H113470   6.080   5.737   4.227 -0.6502 -0.0264  0.7078
 4502TIP3    H213471   6.025   5.742   4.086  0.4943  1.7405  0.3045
 4503TIP3   OH213472   3.700   4.662   0.924  0.0399  0.1219  0.5338
 4503TIP3    H113473   3.662   4.688   1.008  0.8711  1.4450  0.5219
 4503TIP3    H213474   3.794   4.656   0.941  0.2883  1.0191 -0.4372
 4504TIP3   OH213475   4.093   2.241   4.448 -0.0722 -0.2336  0.7317
 4504TIP3    H113476   4.153   2.171   4.472  0.3382 -0.3431 -0.5331
 4504TIP3    H213477   4.053   2.212   4.366  1.6517  1.8602 -0.9846
 4505TIP3   OH213478   2.698   1.560   4.738 -0.4620 -0.2100 -0.3091
 4505TIP3    H113479   2.610   1.597   4.748 -0.3342  0.0678 -0.2069
 4505TIP3    H213480   2.683   1.466   4.723 -0.7972 -0.0778 -0.8292
 4506TIP3   OH213481   3.582   2.842   5.684 -0.6716 -0.0417 -0.5563
 4506TIP3    H113482   3.565   2.870   5.774 -2.3976 -2.2284 -0.1286
 4506TIP3    H213483   3.672   2.870   5.666  0.4417 -1.2558  2.5562
 4507TIP3   OH213484   3.203   1.858   4.197 -0.5153 -0.0847 -0.2453
 4507TIP3    H113485   3.170   1.771   4.220 -1.6719  0.2414 -0.5955
 4507TIP3    H213486   3.159   1.878   4.114 -1.2573  1.3728  0.4765
 4508TIP3   OH213487   1.672   2.804   0.067  0.4185  0.9543 -0.3237
 4508TIP3    H113488   1.619   2.750   0.126  0.9057  2.0817  1.2247
 4508TIP3    H213489   1.610   2.864   0.026 -0.0710 -0.4691 -1.7832
 4509TIP3   OH213490   7.097   2.889   1.479  0.0889 -0.3168 -0.0215
 4509TIP3    H113491   7.100   2.841   1.562  0.6528 -0.9479 -0.3983
 4509TIP3    H213492   7.156   2.963   1.492  1.4205 -1.2762 -0.3684
 4510TIP3   OH213493   2.001   0.818   0.200 -0.2032 -0.5341  1.2199
 4510TIP3    H113494   2.000   0.800   0.106  3.5119  0.3364  0.8305
 4510TIP3    H213495   2.005   0.732   0.241 -0.8860 -0.9105  0.5150
 4511TIP3   OH213496   0.915   4.012   2.811 -0.2267 -0.2977  0.3300
 4511TIP3    H113497   0.921   4.072   2.885 -0.3192 -2.2551  2.0149
 4511TIP3    H213498   0.989   4.036   2.755 -1.1370  2.3356  0.1199
 4512TIP3   OH213499   0.155   0.194   4.399  0.1904 -0.3224  0.7750
 4512TIP3    H113500   0.104   0.219   4.322 -1.3404 -0.4572  1.7044
 4512TIP3    H213501   0.090   0.166   4.463  1.1768  2.0711  3.0004
 4513TIP3   OH213502   5.595   4.601   5.048  0.3236 -0.0454 -0.1861
 4513TIP3    H113503   5.650   4.649   4.986 -0.4680  0.8006 -0.2569
 4513TIP3    H213504   5.525   4.565   4.993 -0.1119  0.2967  0.1443
 4514TIP3   OH213505   3.793   4.263   4.939  0.2923  0.0921  0.4097
 4514TIP3    H113506   3.791   4.196   5.007  0.3673 -0.6680 -0.3122
 4514TIP3    H213507   3.869   4.318   4.961  1.7681 -1.5580 -0.3482
 4515TIP3   OH213508   0.804   0.342   1.539  0.1184  0.1165  0.3211
 4515TIP3    H113509   0.743   0.341   1.466 -2.0276  0.2788  2.0209
 4515TIP3    H213510   0.801   0.253   1.574  0.0034  0.4073  1.0748
 4516TIP3   OH213511   6.992   1.423   0.222  0.6014  0.8754 -0.2853
 4516TIP3    H113512   7.046   1.370   0.282 -1.2986  1.2529  1.9263
 4516TIP3    H213513   7.012   1.513   0.246  0.3682  1.0523 -0.7589
 4517TIP3   OH213514   6.139   1.772   3.763  0.1459  0.1138  0.3976
 4517TIP3    H113515   6.152   1.704   3.697 -0.6516 -0.2602  0.6159
 4517TIP3    H213516   6.142   1.854   3.714 -0.8466 -0.1789 -0.1743
 4518TIP3   OH213517   2.396   4.890   2.736 -0.4434  0.0866 -0.0830
 4518TIP3    H113518   2.490   4.899   2.721 -0.8268  0.7753 -2.5381
 4518TIP3    H213519   2.362   4.979   2.730 -1.1215  0.0973  2.5205
 4519TIP3   OH213520   3.898   1.365   1.290 -0.3022  0.2971  0.1244
 4519TIP3    H113521   3.962   1.436   1.300 -1.3566  1.4659 -1.0474
 4519TIP3    H213522   3.904   1.340   1.198 -2.4787  1.4576 -0.4141
 4520TIP3   OH213523   3.770   5.584   1.004  0.2578  0.5748 -0.3132
 4520TIP3    H113524   3.687   5.585   1.051  0.1206  2.3525 -0.5205
 4520TIP3    H213525   3.835   5.612   1.069  1.2978 -3.4101  0.6815
 4521TIP3   OH213526   3.226   3.792   4.707 -0.3755 -0.6562  0.0183
 4521TIP3    H113527   3.220   3.696   4.698  0.3094 -0.6620 -0.4572
 4521TIP3    H213528   3.312   3.807   4.746 -0.4262 -0.2234 -0.0376
 4522TIP3   OH213529   5.587   3.587   0.711  0.5095  0.3864 -0.5102
 4522TIP3    H113530   5.530   3.512   0.693  0.9666 -0.0085 -0.3233
 4522TIP3    H213531   5.637   3.599   0.630 -0.7324  1.5473 -1.1492
 4523TIP3   OH213532   0.562   0.334   5.185  0.6057 -0.0438 -0.2689
 4523TIP3    H113533   0.498   0.396   5.220  1.5059  0.2255  0.9696
 4523TIP3    H213534   0.510   0.263   5.149 -0.4424 -1.1402  3.0758
 4524TIP3   OH213535   6.318   3.014   5.195 -0.8802 -0.2366 -0.5148
 4524TIP3    H113536   6.301   2.925   5.225  1.0820 -1.1535 -1.8455
 4524TIP3    H213537   6.387   3.046   5.253 -2.1902  0.7994  0.5235
 4525TIP3   OH213538   3.686   2.606   5.120 -0.4671 -0.3012  0.2245
 4525TIP3    H113539   3.643   2.692   5.115 -2.3761 -1.2512 -0.7664
 4525TIP3    H213540   3.744   2.613   5.196  0.4093  2.2594 -0.5720
 4526TIP3   OH213541   4.257   4.259   3.437  0.3251 -0.9722 -0.5400
 4526TIP3    H113542   4.199   4.222   3.503  0.7797 -1.1925 -0.2559
 4526TIP3    H213543   4.332   4.199   3.434  0.3591 -0.9121 -1.1838
 4527TIP3   OH213544   4.076   0.622   5.238  0.1967  0.2538  0.2340
 4527TIP3    H113545   4.052   0.651   5.326  0.6021  1.3074  0.0171
 4527TIP3    H213546   4.162   0.581   5.249  0.0451 -0.0216  0.3983
 4528TIP3   OH213547   5.635   0.092   4.925 -0.0838 -0.0177 -0.0657
 4528TIP3    H113548   5.583   0.040   4.864 -0.0408  1.0753 -1.0581
 4528TIP3    H213549   5.579   0.099   5.003 -0.4366 -0.8176 -0.2344
 4529TIP3   OH213550   5.064   5.600   2.938  0.1048  0.3941 -0.4530
 4529TIP3    H113551   5.122   5.675   2.953 -0.4993  1.3540 -2.5802
 4529TIP3    H213552   5.121   5.524   2.948  0.8457  1.1063  1.2578
 4530TIP3   OH213553   0.961   1.367   0.355  0.1154 -0.1866 -0.2812
 4530TIP3    H113554   1.011   1.444   0.382  0.3884 -0.7738  0.9457
 4530TIP3    H213555   1.013   1.293   0.384 -0.5781 -0.8336 -0.6437
 4531TIP3   OH213556   0.171   5.685   0.380  0.1040  0.1979  0.2151
 4531TIP3    H113557   0.111   5.674   0.454 -3.0161  0.4378 -2.0911
 4531TIP3    H213558   0.162   5.777   0.355 -0.6548 -0.3636 -1.7641
 4532TIP3   OH213559   2.503   1.696   3.872 -0.0529  0.2448 -0.0910
 4532TIP3    H113560   2.594   1.724   3.872 -0.2632  0.9694 -0.6667
 4532TIP3    H213561   2.455   1.769   3.833 -1.0197  0.3036  1.1309
 4533TIP3   OH213562   3.342   3.835   1.333  0.1686 -0.4288 -0.5854
 4533TIP3    H113563   3.267   3.817   1.390 -0.6874  0.8696 -1.2654
 4533TIP3    H213564   3.404   3.765   1.353 -0.3610 -0.3799  1.4846
 4534TIP3   OH213565   6.690   6.269   2.930  0.4339  1.0271  0.2135
 4534TIP3    H113566   6.604   6.233   2.909  1.3175 -1.0976 -0.0521
 4534TIP3    H213567   6.726   6.297   2.846 -0.6740  3.6876  0.5472
 4535TIP3   OH213568   5.334   4.336   1.139  0.0383 -0.3288  0.0144
 4535TIP3    H113569   5.382   4.259   1.171  0.6104 -0.2647 -0.6650
 4535TIP3    H213570   5.293   4.373   1.217  1.8231  0.1360  0.7853
 4536TIP3   OH213571   0.913   4.602   0.061  0.1618 -0.6619 -0.1389
 4536TIP3    H113572   0.841   4.612  -0.001  2.3732  0.0555 -2.8440
 4536TIP3    H213573   0.910   4.510   0.087 -1.9260 -0.5503  0.1841
 4537TIP3   OH213574   0.262   6.781   3.508  1.1040  0.3646 -0.1111
 4537TIP3    H113575   0.350   6.768   3.473  1.0632  0.1396 -0.1294
 4537TIP3    H213576   0.209   6.802   3.430  1.4889  2.3308  0.1055
 4538TIP3   OH213577   2.891   1.414   1.742 -0.0959  0.9630 -0.3579
 4538TIP3    H113578   2.935   1.456   1.816 -0.1139  1.2174 -0.4872
 4538TIP3    H213579   2.904   1.476   1.670 -0.9166  1.1837 -0.3270
 4539TIP3   OH213580   0.782   0.323   2.033 -0.2905 -0.0242  0.0238
 4539TIP3    H113581   0.787   0.417   2.016  2.0147 -0.0769  0.1603
 4539TIP3    H213582   0.806   0.314   2.125  0.7691 -0.8470 -0.3228
 4540TIP3   OH213583   3.671   0.669   0.309  0.6879 -0.0931  0.7996
 4540TIP3    H113584   3.718   0.591   0.282  0.6062  0.6483 -1.7554
 4540TIP3    H213585   3.738   0.737   0.314  0.2691  0.4815 -0.7562
 4541TIP3   OH213586   3.759   2.411   0.706 -0.1133 -0.4647  0.2857
 4541TIP3    H113587   3.767   2.399   0.800 -0.3470 -0.9404  0.2456
 4541TIP3    H213588   3.842   2.378   0.671 -0.1308 -0.5290  0.3045
 4542TIP3   OH213589   6.429   5.555   2.003  0.1477 -0.0412 -0.0595
 4542TIP3    H113590   6.380   5.545   1.921  0.6546 -0.6972 -0.2888
 4542TIP3    H213591   6.428   5.649   2.020 -0.4546  0.0441 -0.5117
 4543TIP3   OH213592   5.400   4.236   5.729  0.0478  0.3346 -0.3416
 4543TIP3    H113593   5.350   4.172   5.779  0.1529 -1.8425 -2.7914
 4543TIP3    H213594   5.474   4.259   5.786 -1.8389  1.0381  1.9721
 4544TIP3   OH213595   1.260   1.701   3.323 -0.9068 -0.2714 -0.8192
 4544TIP3    H113596   1.281   1.629   3.264  0.1138 -0.1773 -0.5951
 4544TIP3    H213597   1.172   1.682   3.354 -1.1113 -0.7911 -1.6752
 4545TIP3   OH213598   2.707   3.445   1.462  0.4418  0.1396 -0.3931
 4545TIP3    H113599   2.772   3.508   1.432  0.9804 -0.9978 -1.7322
 4545TIP3    H213600   2.632   3.458   1.403 -0.4372  1.1643  0.8816
 4546TIP3   OH213601   6.885   4.619   5.335  0.3446 -0.2624  0.1704
 4546TIP3    H113602   6.818   4.654   5.394  0.1119  1.4620 -1.0352
 4546TIP3    H213603   6.842   4.544   5.293 -1.2539  1.3305 -1.2314
 4547TIP3   OH213604   7.157   6.709   5.185  0.2531  0.0475 -0.2078
 4547TIP3    H113605   7.160   6.732   5.278  0.0975 -0.5969 -0.0330
 4547TIP3    H213606   7.215   6.771   5.142 -0.1290  0.7265  0.2425
 4548TIP3   OH213607   4.377   6.296   0.312 -0.2831 -0.1615 -0.0727
 4548TIP3    H113608   4.443   6.323   0.375 -0.6096  0.1086  0.1574
 4548TIP3    H213609   4.298   6.283   0.364 -0.4753 -0.2525 -0.3808
 4549TIP3   OH213610   1.192   0.479   2.731  0.1433 -0.2363  0.2558
 4549TIP3    H113611   1.174   0.450   2.641 -0.2661 -1.1019  0.6013
 4549TIP3    H213612   1.183   0.399   2.783  0.7810  0.1796  1.0143
 4550TIP3   OH213613   5.655   5.851   5.348  0.2646  0.4673 -0.0891
 4550TIP3    H113614   5.719   5.915   5.317 -0.9997  2.2046  0.7187
 4550TIP3    H213615   5.618   5.813   5.268  0.1511  1.6765 -0.6365
 4551TIP3   OH213616   3.466   0.829   0.358  0.0624  0.1981 -0.0595
 4551TIP3    H113617   3.527   0.758   0.338 -1.7192 -0.9456 -1.7199
 4551TIP3    H213618   3.425   0.803   0.440 -0.7125 -0.8194 -0.7534
 4552TIP3   OH213619   4.951   2.081   1.285  0.2505 -0.6704 -0.6797
 4552TIP3    H113620   4.935   2.174   1.301  0.8126 -1.0816  3.1448
 4552TIP3    H213621   5.026   2.079   1.225  1.0176  1.3702  0.1383
 4553TIP3   OH213622   2.027   3.509   3.765  0.1668  0.0685  1.1952
 4553TIP3    H113623   2.080   3.476   3.693 -0.4482  1.0649  0.2407
 4553TIP3    H213624   1.990   3.431   3.806 -0.6324 -0.4984 -0.4893
 4554TIP3   OH213625   1.781   4.165   2.890 -0.2499 -0.5137 -0.0970
 4554TIP3    H113626   1.810   4.146   2.801 -0.7871 -0.8140 -0.2136
 4554TIP3    H213627   1.861   4.171   2.941 -0.0412 -3.0145 -0.0556
 4555TIP3   OH213628   5.042   3.739   5.099  0.0416  0.1030  0.1492
 4555TIP3    H113629   5.070   3.705   5.184  1.4875  0.5443 -0.1115
 4555TIP3    H213630   5.113   3.798   5.073  0.1324 -0.8126 -1.8397
 4556TIP3   OH213631   5.026   2.911   2.470 -0.0838 -0.1661 -0.1581
 4556TIP3    H113632   4.991   2.967   2.401 -1.0390 -0.3792  0.1336
 4556TIP3    H213633   5.120   2.925   2.468 -0.3798  2.3160  0.6688
 4557TIP3   OH213634   6.000   0.939   4.730  0.5706 -0.2581  0.3556
 4557TIP3    H113635   5.968   0.853   4.703 -1.2595  0.2901  0.6572
 4557TIP3    H213636   5.998   0.991   4.650 -0.3182  0.0510  0.5619
 4558TIP3   OH213637   4.754   0.337   5.743  0.6610  0.0787 -0.0423
 4558TIP3    H113638   4.819   0.349   5.812  0.0037  0.3828  0.5332
 4558TIP3    H213639   4.711   0.422   5.733  1.0253  0.1558 -1.1224
 4559TIP3   OH213640   3.742   1.471   1.799  0.0779  0.4046 -0.0954
 4559TIP3    H113641   3.680   1.544   1.794 -1.3620 -0.5557  2.1705
 4559TIP3    H213642   3.818   1.506   1.845 -0.8579  0.3821  1.5336
 4560TIP3   OH213643   4.064   4.186   5.405 -0.2058 -0.0576  0.3692
 4560TIP3    H113644   4.031   4.270   5.437 -2.7955 -0.8831  0.1066
 4560TIP3    H213645   4.096   4.142   5.484 -0.2140  0.5798  0.7370
 4561TIP3   OH213646   6.674   4.920   1.758  0.3908 -0.1302 -0.1053
 4561TIP3    H113647   6.622   4.894   1.683 -0.7443 -1.8226  1.2034
 4561TIP3    H213648   6.643   5.008   1.779 -1.4933 -0.8327  0.2161
 4562TIP3   OH213649   1.062   3.519   1.047  0.2978  0.3482  0.6714
 4562TIP3    H113650   1.070   3.611   1.074 -1.8854  0.4763  1.0344
 4562TIP3    H213651   1.153   3.491   1.033  1.1104  2.1669  1.8285
 4563TIP3   OH213652   3.727   4.178   2.295  0.1867 -0.0382  0.5463
 4563TIP3    H113653   3.698   4.174   2.386 -2.6007 -0.3487 -0.2645
 4563TIP3    H213654   3.650   4.154   2.244  1.2516  1.4716 -1.9710
 4564TIP3   OH213655   1.943   1.495   4.232 -0.5881  0.0360  0.2503
 4564TIP3    H113656   1.958   1.445   4.313  1.4408 -2.2319 -1.3469
 4564TIP3    H213657   2.022   1.548   4.222 -1.4121  1.3216  0.3841
 4565TIP3   OH213658   2.658   4.805   5.734  0.0903  0.0600  0.1589
 4565TIP3    H113659   2.593   4.876   5.732 -0.2362 -0.2252 -2.2092
 4565TIP3    H213660   2.636   4.755   5.812 -1.1232  1.2601  0.6276
 4566TIP3   OH213661   3.219   5.311   0.646 -0.2473  0.3134 -0.2854
 4566TIP3    H113662   3.135   5.331   0.689  0.3771 -0.0945  1.1879
 4566TIP3    H213663   3.260   5.247   0.703  1.5865  1.3747 -0.3409
 4567TIP3   OH213664   2.970   1.171   5.441 -0.5417 -0.1038  0.5737
 4567TIP3    H113665   2.925   1.226   5.377  0.5667  0.6525  0.4357
 4567TIP3    H213666   2.963   1.082   5.405 -0.4811  0.2303 -0.2713
 4568TIP3   OH213667   5.424   0.981   0.203 -0.0421 -0.3720 -0.3277
 4568TIP3    H113668   5.390   1.025   0.282  1.5360  0.1986  0.0731
 4568TIP3    H213669   5.350   0.981   0.142 -1.5076 -1.3969  1.3625
 4569TIP3   OH213670   0.297   4.974   3.755 -0.0437  0.8580  0.3133
 4569TIP3    H113671   0.210   4.962   3.792 -0.0818  1.1625  0.3318
 4569TIP3    H213672   0.355   4.975   3.831  0.0157  0.3214  0.2755
 4570TIP3   OH213673   7.130   3.730   1.820  0.2467  0.3582 -0.6862
 4570TIP3    H113674   7.180   3.811   1.808 -0.3792  0.8878  0.1924
 4570TIP3    H213675   7.076   3.724   1.741 -0.1400  1.1210 -0.4894
 4571TIP3   OH213676   6.937   2.087   2.041 -0.0090 -0.7298  0.2925
 4571TIP3    H113677   6.996   2.109   1.969  0.0570 -0.2300  0.4875
 4571TIP3    H213678   6.992   2.094   2.119 -0.5718  0.8516  0.5854
 4572TIP3   OH213679   6.743   1.317   0.091 -0.3756  0.2512 -0.0998
 4572TIP3    H113680   6.704   1.402   0.069 -0.1580  0.3910  0.0628
 4572TIP3    H213681   6.824   1.338   0.136  0.1246 -0.0450 -0.8521
 4573TIP3   OH213682   4.848   6.715   3.108 -0.2740 -0.3121  0.2522
 4573TIP3    H113683   4.791   6.670   3.046 -0.9806 -2.7305  2.4527
 4573TIP3    H213684   4.936   6.688   3.082 -0.3770  0.3453 -0.8574
 4574TIP3   OH213685   3.143   4.154   1.013 -0.3233  0.5939 -0.4971
 4574TIP3    H113686   3.180   4.096   0.946 -1.2467 -0.1025 -0.4357
 4574TIP3    H213687   3.178   4.121   1.095 -1.8061 -0.7180 -0.3381
 4575TIP3   OH213688   5.897   6.595   0.208  0.4571  0.2773 -0.0204
 4575TIP3    H113689   5.945   6.657   0.153 -0.4767 -0.7727 -2.1450
 4575TIP3    H213690   5.805   6.622   0.200  0.1877 -0.5637  0.1277
 4576TIP3   OH213691   2.900   4.859   5.613  0.1242 -0.1925  0.3003
 4576TIP3    H113692   2.823   4.824   5.657  0.4539 -1.0031  0.2665
 4576TIP3    H213693   2.870   4.882   5.526  0.0851 -1.2957 -0.0005
 4577TIP3   OH213694   4.978   6.538   4.930 -0.0580 -0.0374  0.1433
 4577TIP3    H113695   5.059   6.549   4.980 -0.0196 -0.5461  0.1953
 4577TIP3    H213696   4.920   6.606   4.964 -0.4697 -1.1605  1.7633
 4578TIP3   OH213697   1.936   0.077   0.807  0.1567 -0.3759 -0.0883
 4578TIP3    H113698   1.970  -0.006   0.840 -0.9108 -1.3684 -1.3748
 4578TIP3    H213699   1.946   0.138   0.880  1.2381 -1.5486  0.7820
 4579TIP3   OH213700   3.111   4.375   4.965 -0.0881 -0.1228  0.5211
 4579TIP3    H113701   3.091   4.282   4.956 -2.0635  0.4345 -2.7876
 4579TIP3    H213702   3.200   4.385   4.931 -1.2733 -0.4791 -3.1830
 4580TIP3   OH213703   5.486   1.628   0.312  0.1369 -0.3681  0.6224
 4580TIP3    H113704   5.424   1.563   0.342 -0.3625  0.0170  0.4376
 4580TIP3    H213705   5.572   1.594   0.339 -0.1309 -0.9989  0.6963
 4581TIP3   OH213706   3.491   3.248   3.511 -0.1808 -0.1513 -0.1091
 4581TIP3    H113707   3.474   3.225   3.420  0.9551 -1.2898 -0.0654
 4581TIP3    H213708   3.582   3.278   3.512 -0.2859  0.1647  0.5955
 4582TIP3   OH213709   6.534   6.539   0.673  0.7256  0.5110 -0.0249
 4582TIP3    H113710   6.494   6.507   0.753 -1.0162  1.1273 -0.6138
 4582TIP3    H213711   6.608   6.592   0.703  1.4473 -1.0270  1.0619
 4583TIP3   OH213712   5.255   6.685   5.506  0.5649  0.7243 -0.0337
 4583TIP3    H113713   5.226   6.712   5.419  2.1532 -0.6062 -1.0273
 4583TIP3    H213714   5.348   6.707   5.509  0.6198  0.4130  1.1759
 4584TIP3   OH213715   5.564   5.429   1.433  0.3340 -0.0801 -0.0472
 4584TIP3    H113716   5.534   5.498   1.491  0.8016  1.2902 -1.3725
 4584TIP3    H213717   5.483   5.384   1.406 -0.0554  0.4753  0.1819
 4585TIP3   OH213718   0.956   6.140   5.052 -0.2271 -0.4822 -0.4359
 4585TIP3    H113719   0.911   6.224   5.057  1.7905  0.6416  0.2839
 4585TIP3    H213720   0.922   6.098   4.973 -1.2680  1.0059 -0.8134
 4586TIP3   OH213721   0.978   6.104   1.407  0.1426 -0.0368  0.4378
 4586TIP3    H113722   0.946   6.028   1.358  1.4354 -0.7697  0.6688
 4586TIP3    H213723   1.048   6.069   1.463  1.7018  1.5203 -0.4183
 4587TIP3   OH213724   0.280   1.935   5.221  0.1843 -0.4903 -0.5582
 4587TIP3    H113725   0.207   1.995   5.210  0.1645 -0.6543 -1.4445
 4587TIP3    H213726   0.303   1.941   5.313 -0.1204  0.5255 -0.5345
 4588TIP3   OH213727   5.895   1.701   5.184  0.1877  0.2380 -0.4963
 4588TIP3    H113728   5.987   1.691   5.207  0.4195  0.7826 -1.1601
 4588TIP3    H213729   5.894   1.768   5.116 -0.5910 -0.5282 -1.2672
 4589TIP3   OH213730   7.116   4.164   2.610  0.1349  0.2916 -0.1985
 4589TIP3    H113731   7.183   4.220   2.648 -0.2237  1.1838 -0.8422
 4589TIP3    H213732   7.095   4.205   2.526 -1.0949 -0.0504 -0.0882
 4590TIP3   OH213733   1.471   6.697   0.400  0.3589 -0.2261  0.4809
 4590TIP3    H113734   1.523   6.650   0.335 -0.0626 -1.7230  1.2002
 4590TIP3    H213735   1.469   6.640   0.477 -0.9312  0.5458  1.0656
 4591TIP3   OH213736   0.658   1.220  -0.004  0.1321 -0.5029  0.1020
 4591TIP3    H113737   0.622   1.176   0.073 -1.5634 -0.9678 -0.9072
 4591TIP3    H213738   0.606   1.300  -0.013  0.4819 -0.3240 -0.4156
 4592TIP3   OH213739   0.269   6.711   0.192  0.0682  0.1589  0.1641
 4592TIP3    H113740   0.179   6.711   0.226 -0.3036  0.5025 -0.7759
 4592TIP3    H213741   0.316   6.773   0.247 -0.0940 -0.5368  1.1025
 4593TIP3   OH213742   1.991   0.966   2.857  0.0993  0.0074 -0.2980
 4593TIP3    H113743   2.002   0.888   2.910 -0.1975  0.6033  0.6647
 4593TIP3    H213744   2.072   0.973   2.807  0.5018 -0.4049  0.2926
 4594TIP3   OH213745   4.170   3.094   1.653  0.6838  0.3392 -0.3474
 4594TIP3    H113746   4.075   3.108   1.650  0.9451  2.4820 -0.1989
 4594TIP3    H213747   4.184   3.038   1.729 -0.2957  1.9904  1.1208
 4595TIP3   OH213748   6.471   5.757   0.663 -0.1915 -0.2730 -0.2316
 4595TIP3    H113749   6.510   5.821   0.604  0.4232  0.3914  0.8557
 4595TIP3    H213750   6.392   5.727   0.618 -0.3297  1.0191 -0.8876
 4596TIP3   OH213751   3.079   6.540   1.029 -0.2578 -0.0219 -0.5428
 4596TIP3    H113752   3.045   6.604   1.091  1.7848  0.5661  0.0403
 4596TIP3    H213753   3.105   6.591   0.952 -0.1175 -0.3796 -0.7382
 4597TIP3   OH213754   5.436   3.258   2.132  0.2964 -0.1024  0.1564
 4597TIP3    H113755   5.526   3.228   2.121  0.3415 -0.5769  1.5564
 4597TIP3    H213756   5.441   3.322   2.204 -0.7163 -1.5085  1.5516
 4598TIP3   OH213757   0.409   4.160   1.046  0.0616 -0.2822 -0.0767
 4598TIP3    H113758   0.314   4.151   1.055  0.2278 -3.2036 -0.4221
 4598TIP3    H213759   0.445   4.097   1.107  1.6765 -1.3846 -2.0367
 4599TIP3   OH213760   2.633   6.003   5.225 -0.5231 -0.1140 -0.0050
 4599TIP3    H113761   2.592   6.089   5.224  0.7837  0.6152  1.9410
 4599TIP3    H213762   2.638   5.981   5.318  0.4180 -1.6818 -0.3993
 4600TIP3   OH213763   6.575   2.212   2.357 -0.3691  0.2347  0.2161
 4600TIP3    H113764   6.624   2.185   2.280  1.5655  0.8776  1.1436
 4600TIP3    H213765   6.569   2.132   2.411 -2.5086 -0.4428 -0.9212
 4601TIP3   OH213766   5.140   6.032   4.729  0.2200 -0.1910 -0.3765
 4601TIP3    H113767   5.233   6.010   4.734  0.9205  2.2867 -0.8381
 4601TIP3    H213768   5.109   5.986   4.651  1.7643  0.9228 -1.7516
 4602TIP3   OH213769   2.094   4.049   0.403  0.2370 -1.0248  0.5572
 4602TIP3    H113770   2.112   3.961   0.436 -0.2542 -1.3940 -0.1248
 4602TIP3    H213771   2.006   4.068   0.436  0.3764 -0.7497  0.7729
 4603TIP3   OH213772   3.797   3.181   5.428 -0.0735  0.2793  0.0374
 4603TIP3    H113773   3.802   3.091   5.397 -0.6642  0.0234  0.6834
 4603TIP3    H213774   3.847   3.182   5.510  0.1203  0.5975 -0.0771
 4604TIP3   OH213775   1.061   3.387   5.390  0.3826 -0.3593  0.4464
 4604TIP3    H113776   1.154   3.398   5.373 -0.0862  0.7069 -1.7603
 4604TIP3    H213777   1.036   3.311   5.337 -1.0595  2.8423 -3.9602
 4605TIP3   OH213778   3.466   2.034   2.020  0.2409 -0.4233  0.5104
 4605TIP3    H113779   3.405   1.993   2.081  0.7497  0.0479  1.3652
 4605TIP3    H213780   3.516   2.094   2.075  0.5783  0.1573 -0.4215
 4606TIP3   OH213781   6.259   1.005   5.474  0.2824 -0.0952  0.3960
 4606TIP3    H113782   6.206   1.046   5.406 -1.9448 -2.3132  0.6475
 4606TIP3    H213783   6.275   1.075   5.537  0.6618  1.4934 -1.3772
 4607TIP3   OH213784   0.463   1.876   3.386  0.7544  0.1747  0.1835
 4607TIP3    H113785   0.387   1.820   3.372  0.4894  0.4191  0.6266
 4607TIP3    H213786   0.538   1.820   3.367  0.4588 -0.0074 -0.4610
 4608TIP3   OH213787   0.267   1.135   4.838 -0.1586 -0.0627  0.0963
 4608TIP3    H113788   0.354   1.168   4.861  1.0858 -2.5938 -0.6340
 4608TIP3    H213789   0.210   1.165   4.909  0.4797  4.4522 -1.0059
 4609TIP3   OH213790   2.714   1.571   5.386 -0.4278  0.4775 -0.5655
 4609TIP3    H113791   2.638   1.623   5.413  0.2646  2.2817 -1.9509
 4609TIP3    H213792   2.760   1.553   5.468 -1.2722  1.0975  0.0697
 4610TIP3   OH213793   2.649   2.766   0.460  0.1747 -0.1411 -0.1584
 4610TIP3    H113794   2.706   2.834   0.496 -0.5346 -0.0836  0.9249
 4610TIP3    H213795   2.709   2.699   0.427  0.8909  1.1117 -1.5115
 4611TIP3   OH213796   2.265   3.911   1.472  0.5257 -0.4127  0.0049
 4611TIP3    H113797   2.226   3.989   1.433  0.5244  0.6498  2.0114
 4611TIP3    H213798   2.251   3.842   1.407 -1.7956  0.6492 -0.7237
 4612TIP3   OH213799   0.206   1.800   4.798  0.3697  0.1967 -0.0423
 4612TIP3    H113800   0.273   1.807   4.866  0.2791  1.0392 -0.0365
 4612TIP3    H213801   0.256   1.792   4.717  0.4761 -0.5678  0.0875
 4613TIP3   OH213802   1.944   3.884   5.475 -0.1164 -0.3085  0.1449
 4613TIP3    H113803   2.011   3.817   5.489  0.0627 -0.1437  0.0799
 4613TIP3    H213804   1.970   3.956   5.532 -0.2759 -0.2681  0.1682
 4614TIP3   OH213805   6.489   5.497   0.871  0.0039  0.1116  0.3320
 4614TIP3    H113806   6.479   5.587   0.903  0.9164 -0.2386  1.7098
 4614TIP3    H213807   6.579   5.492   0.841 -0.1546 -0.2420 -0.0850
 4615TIP3   OH213808   2.795   1.999   3.162 -0.0231 -0.0696  0.1529
 4615TIP3    H113809   2.869   2.015   3.220 -0.2961  2.2605 -0.0683
 4615TIP3    H213810   2.809   2.057   3.088 -2.2421  0.7637  0.2952
 4616TIP3   OH213811   1.111   5.894   5.395  0.0263 -0.1593  0.3647
 4616TIP3    H113812   1.132   5.872   5.305 -0.7749  0.4687  0.0063
 4616TIP3    H213813   1.051   5.825   5.424 -2.6110  1.4809 -0.8095
 4617TIP3   OH213814   3.182   4.118   4.000 -0.2672 -0.1449  0.3017
 4617TIP3    H113815   3.240   4.169   4.056 -0.2300  0.5380 -0.3293
 4617TIP3    H213816   3.241   4.064   3.947 -0.2326  0.1152  0.0714
 4618TIP3   OH213817   2.992   4.871   0.079 -0.1222 -0.4650 -0.0680
 4618TIP3    H113818   3.015   4.885   0.171 -0.6746 -0.4638  0.0722
 4618TIP3    H213819   2.994   4.959   0.041  1.7021 -0.6310 -0.4496
 4619TIP3   OH213820   0.786   3.210   4.013 -0.7689 -0.5443 -0.0446
 4619TIP3    H113821   0.710   3.216   3.954 -1.1030 -0.0269  0.4375
 4619TIP3    H213822   0.823   3.298   4.014 -0.5620 -0.6343  0.2553
 4620TIP3   OH213823   2.500   0.719   2.332 -0.1841  0.7015 -0.6529
 4620TIP3    H113824   2.436   0.790   2.328 -1.5011 -0.4032 -0.0561
 4620TIP3    H213825   2.496   0.678   2.245  2.1088  2.5746 -1.7357
 4621TIP3   OH213826   4.826   5.184   5.507  0.2539  0.1503 -0.1086
 4621TIP3    H113827   4.743   5.204   5.551  0.8754  1.4084  0.5684
 4621TIP3    H213828   4.825   5.090   5.494 -0.9356  0.0489  0.6266
 4622TIP3   OH213829   1.138   1.878   0.206  0.3280 -0.0183 -0.4171
 4622TIP3    H113830   1.096   1.909   0.286  1.1202 -1.1801  0.4889
 4622TIP3    H213831   1.155   1.957   0.155  0.9967  0.8962  1.1613
 4623TIP3   OH213832   2.989   4.453   3.198  0.8541 -0.3974 -0.3137
 4623TIP3    H113833   2.941   4.383   3.243  0.5918 -0.9458 -1.3958
 4623TIP3    H213834   3.006   4.518   3.266 -0.0692 -0.9059  0.4376
 4624TIP3   OH213835   7.085   1.338   1.382 -0.9155  0.2532  0.1780
 4624TIP3    H113836   7.075   1.385   1.464  0.2418  0.9944 -0.0761
 4624TIP3    H213837   7.160   1.380   1.339 -1.9419  0.4043 -1.6033
 4625TIP3   OH213838   5.535   4.591   1.300 -0.1668 -0.0887 -0.1865
 4625TIP3    H113839   5.604   4.644   1.259  0.5825  0.3577  1.5725
 4625TIP3    H213840   5.492   4.651   1.361  0.1298 -1.2637  1.2239
 4626TIP3   OH213841   4.036   5.076   3.621 -0.2458 -0.1342  0.2133
 4626TIP3    H113842   4.107   5.065   3.558  0.2842 -1.0383  0.9384
 4626TIP3    H213843   3.963   5.027   3.582  0.8555 -3.0084  1.4431
 4627TIP3   OH213844   6.681   2.833   2.894 -0.1646  0.3027 -0.3180
 4627TIP3    H113845   6.706   2.916   2.933 -0.6846  0.3077  0.0093
 4627TIP3    H213846   6.723   2.767   2.949  0.5123  0.3466 -0.7648
 4628TIP3   OH213847   4.801   5.423   4.550  0.4220  0.8376  0.2461
 4628TIP3    H113848   4.809   5.517   4.562  1.4398  1.2457 -2.8241
 4628TIP3    H213849   4.721   5.412   4.500  1.1264  0.2564 -0.7847
 4629TIP3   OH213850   3.883   5.105   2.337 -0.1275 -0.3780  0.2092
 4629TIP3    H113851   3.887   5.044   2.410  1.3563 -0.3140  0.1994
 4629TIP3    H213852   3.853   5.187   2.376  4.3590  0.8517  1.6688
 4630TIP3   OH213853   6.734   3.054   2.373 -0.0334 -0.1844 -0.0924
 4630TIP3    H113854   6.733   2.991   2.444  1.6828  1.0811  1.1304
 4630TIP3    H213855   6.700   3.135   2.411  2.0238  0.8472 -0.2781
 4631TIP3   OH213856   4.184   4.730   0.679 -0.1395 -0.7277  0.4842
 4631TIP3    H113857   4.233   4.698   0.755 -0.8445  0.0302  1.2765
 4631TIP3    H213858   4.120   4.791   0.716 -0.6044 -0.4758 -0.7071
 4632TIP3   OH213859   5.974   3.441   0.875 -0.6073  0.4543 -0.1590
 4632TIP3    H113860   6.014   3.429   0.789  0.3820 -0.7155  0.4389
 4632TIP3    H213861   5.998   3.531   0.899  1.2431 -0.0340 -0.0582
 4633TIP3   OH213862   2.601   2.323   5.377 -0.4193  0.4007 -0.1299
 4633TIP3    H113863   2.632   2.346   5.465 -2.0998 -0.6234  0.7741
 4633TIP3    H213864   2.548   2.398   5.351  0.6779  1.0374 -0.6277
 4634TIP3   OH213865   4.412   0.749   2.312 -0.3089  0.1456  0.2763
 4634TIP3    H113866   4.449   0.722   2.227 -1.2806 -3.2350  0.7951
 4634TIP3    H213867   4.349   0.817   2.289  0.7593  0.6461 -1.4652
 4635TIP3   OH213868   4.516   4.857   2.682  0.4642 -0.4521  0.0733
 4635TIP3    H113869   4.570   4.781   2.704 -0.6305 -1.0593  0.8084
 4635TIP3    H213870   4.431   4.820   2.658  0.0374  0.5210  0.0240
 4636TIP3   OH213871   1.389   1.956   1.427 -0.0195 -0.6709 -0.3232
 4636TIP3    H113872   1.332   1.996   1.493  0.6121 -1.0021  0.4377
 4636TIP3    H213873   1.463   2.016   1.419 -0.5862 -0.0927 -1.5243
 4637TIP3   OH213874   4.140   2.878   4.318  0.3739  0.1059  0.4938
 4637TIP3    H113875   4.226   2.880   4.360  0.6600  0.2154 -0.0893
 4637TIP3    H213876   4.148   2.808   4.252 -0.4676 -0.9359  1.4549
 4638TIP3   OH213877   0.525   2.224   1.404 -0.6010  0.3183  0.5589
 4638TIP3    H113878   0.504   2.318   1.406 -1.0202  0.2149  1.1071
 4638TIP3    H213879   0.550   2.207   1.313 -1.4237  0.7637  0.2435
 4639TIP3   OH213880   3.570   4.829   0.622  0.1046  0.3212  0.0076
 4639TIP3    H113881   3.503   4.829   0.690 -1.0877  0.2524 -1.1219
 4639TIP3    H213882   3.631   4.899   0.647 -1.9488  2.3646 -0.3890
 4640TIP3   OH213883   5.696   0.199   1.788 -0.4985  0.2773 -0.1339
 4640TIP3    H113884   5.754   0.193   1.864  0.2976 -1.9090 -0.8306
 4640TIP3    H213885   5.608   0.196   1.825 -0.1477 -2.3867  0.7229
 4641TIP3   OH213886   5.689   1.092   3.981 -0.0500 -0.0666  0.2930
 4641TIP3    H113887   5.648   1.176   3.959 -0.1699  0.2021  1.4339
 4641TIP3    H213888   5.693   1.044   3.899  3.3254  2.3935 -1.2071
 4642TIP3   OH213889   2.760   3.141   0.403  0.1891  0.2108 -0.0461
 4642TIP3    H113890   2.708   3.221   0.409 -0.1669  0.3300 -3.1017
 4642TIP3    H213891   2.831   3.162   0.342  0.9014 -1.3782  0.1831
 4643TIP3   OH213892   1.981   4.570   5.753  0.1278 -0.2737 -0.2383
 4643TIP3    H113893   1.964   4.611   5.838  0.4156 -0.1318 -0.2514
 4643TIP3    H213894   1.958   4.637   5.689  3.6893  1.1311 -0.2585
 4644TIP3   OH213895   4.766   3.006   0.799  0.0468  0.0488  0.0823
 4644TIP3    H113896   4.814   2.945   0.855 -0.0602  1.2808  1.6149
 4644TIP3    H213897   4.710   2.951   0.745 -0.0102 -1.2037  1.3604
 4645TIP3   OH213898   2.279   3.157   5.703 -0.0852  0.3647 -0.0837
 4645TIP3    H113899   2.190   3.152   5.669 -0.0518  1.0300 -0.2839
 4645TIP3    H213900   2.272   3.214   5.780  0.3055  1.1593 -0.6156
 4646TIP3   OH213901   5.556   4.122   0.214  0.1841 -0.6930 -0.6291
 4646TIP3    H113902   5.576   4.184   0.143  2.7742 -0.0307  0.5542
 4646TIP3    H213903   5.574   4.036   0.176  0.2272 -0.4446 -1.1827
 4647TIP3   OH213904   4.365   1.022   0.056  0.0340 -0.0407 -0.1610
 4647TIP3    H113905   4.460   1.024   0.045  0.2109 -0.8849  1.0669
 4647TIP3    H213906   4.347   0.937   0.096 -1.1752  0.3566  0.1682
 4648TIP3   OH213907   3.300   0.497   4.130 -0.5473 -0.0312  0.4851
 4648TIP3    H113908   3.349   0.569   4.092 -0.7687  0.6128  1.3910
 4648TIP3    H213909   3.215   0.500   4.087 -0.3366 -0.1556  0.0600
 4649TIP3   OH213910   3.176   4.290   5.689  0.3084 -0.3983  0.2471
 4649TIP3    H113911   3.142   4.372   5.724 -1.2093 -1.2163  0.7607
 4649TIP3    H213912   3.248   4.267   5.747  1.4418  1.0668 -0.5129
 4650TIP3   OH213913   6.338   3.872   2.293 -0.1032  0.2223  1.0583
 4650TIP3    H113914   6.355   3.857   2.200 -0.7614 -0.5388  1.0448
 4650TIP3    H213915   6.321   3.785   2.329 -1.6751  0.6681  1.5008
 4651TIP3   OH213916   3.268   5.314   0.036  0.0206  0.0604 -0.0127
 4651TIP3    H113917   3.296   5.290  -0.052  1.4054  0.4800  0.2988
 4651TIP3    H213918   3.255   5.230   0.081 -1.8663 -0.1997 -0.9254
 4652TIP3   OH213919   4.612   4.559   4.308  0.1115  0.3093  0.3155
 4652TIP3    H113920   4.627   4.551   4.403  2.1064 -1.3206 -0.0737
 4652TIP3    H213921   4.524   4.524   4.295 -0.2848  0.7535  1.5688
 4653TIP3   OH213922   2.480   4.948   1.559 -0.3089 -0.0325 -0.1833
 4653TIP3    H113923   2.500   4.977   1.469  1.7291 -1.5392 -0.3005
 4653TIP3    H213924   2.505   4.855   1.560 -0.3202 -0.0576  1.9455
 4654TIP3   OH213925   4.126   6.654   4.617  0.1079  0.0064  0.6253
 4654TIP3    H113926   4.118   6.694   4.531 -0.3954  0.7877  1.0338
 4654TIP3    H213927   4.217   6.624   4.620  0.9461  2.3821  0.8420
 4655TIP3   OH213928   2.462   0.557   4.258  0.4709  0.4006 -0.0233
 4655TIP3    H113929   2.453   0.462   4.258  1.1176  0.3301  0.5708
 4655TIP3    H213930   2.449   0.582   4.350 -0.1528  0.9383 -0.2488
 4656TIP3   OH213931   3.136   6.616   5.334 -0.5160  0.5256  0.3332
 4656TIP3    H113932   3.053   6.611   5.286 -0.2836  2.1011 -0.3035
 4656TIP3    H213933   3.109   6.623   5.426 -0.9826 -1.6437  0.4097
 4657TIP3   OH213934   0.210   3.284   1.670 -0.4913 -0.5246 -0.3137
 4657TIP3    H113935   0.200   3.300   1.764 -1.2170  2.0466 -0.7244
 4657TIP3    H213936   0.302   3.302   1.652 -0.7057  0.7318 -0.3032
 4658TIP3   OH213937   2.218   0.919   1.337  0.6484  0.6226  0.1398
 4658TIP3    H113938   2.245   0.827   1.343 -4.4410 -1.2403 -0.5171
 4658TIP3    H213939   2.252   0.949   1.253  1.4307 -0.9991 -0.1689
 4659TIP3   OH213940   4.158   2.154   3.726 -0.0968 -0.5882 -0.3076
 4659TIP3    H113941   4.253   2.158   3.735 -0.0839  0.9692 -0.8526
 4659TIP3    H213942   4.139   2.203   3.646 -1.5699  1.8456  1.4088
 4660TIP3   OH213943   3.068   6.452   3.803 -0.6347  0.3218 -0.3735
 4660TIP3    H113944   3.012   6.506   3.859 -2.2459 -0.4922 -1.1464
 4660TIP3    H213945   3.019   6.442   3.722 -0.0749 -1.7062 -0.5163
 4661TIP3   OH213946   5.783   0.267   0.318  0.6636  0.6629  0.0057
 4661TIP3    H113947   5.735   0.192   0.355 -0.5664  1.3505 -0.1518
 4661TIP3    H213948   5.873   0.236   0.310  0.5811 -0.1537  1.7825
 4662TIP3   OH213949   0.381   3.075   1.149  0.9319  0.3271 -0.4177
 4662TIP3    H113950   0.360   3.164   1.122  2.2810  0.6152 -0.5478
 4662TIP3    H213951   0.394   3.027   1.068  2.4558  0.5797 -0.3493
 4663TIP3   OH213952   5.606   2.445   2.028 -0.1238  0.2379 -0.2336
 4663TIP3    H113953   5.537   2.380   2.012  0.2593  0.2365 -2.1130
 4663TIP3    H213954   5.683   2.409   1.984  1.3519 -0.1023  2.3770
 4664TIP3   OH213955   4.724   5.765   1.343 -0.3792 -0.3583 -0.0673
 4664TIP3    H113956   4.677   5.682   1.339  0.1048 -0.6591  0.2984
 4664TIP3    H213957   4.784   5.754   1.417 -0.7680  0.5595  0.4006
 4665TIP3   OH213958   3.155   1.840   2.996  0.7493  0.3122  0.0066
 4665TIP3    H113959   3.207   1.776   2.947 -0.5179  0.3536 -1.5013
 4665TIP3    H213960   3.119   1.898   2.929 -0.4462  0.8564  1.0654
 4666TIP3   OH213961   3.980   5.165   4.203  0.1894 -0.4276 -0.0706
 4666TIP3    H113962   3.947   5.132   4.286  0.9574 -0.8093  0.0966
 4666TIP3    H213963   3.902   5.185   4.152 -0.3216  1.1709  1.2460
 4667TIP3   OH213964   6.723   3.431   4.923 -0.0017  0.0959  0.4045
 4667TIP3    H113965   6.706   3.485   4.846 -1.5910 -1.6199 -0.5306
 4667TIP3    H213966   6.759   3.492   4.988  2.0999  1.4839 -1.8698
 4668TIP3   OH213967   0.370   0.679   1.770 -0.3384 -0.1486 -0.1405
 4668TIP3    H113968   0.283   0.714   1.753 -0.3252 -0.5852 -1.2188
 4668TIP3    H213969   0.355   0.585   1.785 -0.0961 -0.1642  0.0033
 4669TIP3   OH213970   1.531   6.505   2.810  0.7888  0.4435  0.9258
 4669TIP3    H113971   1.625   6.495   2.793  0.6380 -0.2147  0.4280
 4669TIP3    H213972   1.497   6.552   2.735  0.1580 -2.2923 -0.6354
 4670TIP3   OH213973   6.618   6.313   2.250 -0.9484  0.2869 -0.2345
 4670TIP3    H113974   6.631   6.262   2.170 -0.6689 -1.3100  0.7824
 4670TIP3    H213975   6.653   6.400   2.229 -0.3035 -0.2828 -1.6460
 4671TIP3   OH213976   6.229   4.189   3.057 -0.7467 -0.6059  0.2581
 4671TIP3    H113977   6.223   4.099   3.025  0.8459 -0.4106 -0.7046
 4671TIP3    H213978   6.268   4.182   3.144 -0.3281 -0.8315  0.0534
 4672TIP3   OH213979   6.084   1.043   3.831 -0.0302 -0.1603 -0.6399
 4672TIP3    H113980   6.024   0.970   3.818  0.5394 -0.3502 -2.5803
 4672TIP3    H213981   6.162   1.020   3.779  0.2197  1.7187 -1.1862
 4673TIP3   OH213982   0.398   0.422   3.083  0.9515 -0.5977 -0.1097
 4673TIP3    H113983   0.416   0.476   3.159 -3.5513  1.7714 -0.4378
 4673TIP3    H213984   0.429   0.473   3.008  1.0847 -0.7549 -0.1646
 4674TIP3   OH213985   1.970   4.891   2.102 -0.0161 -0.3516 -0.0147
 4674TIP3    H113986   2.040   4.939   2.058  0.6980 -1.9928 -0.7577
 4674TIP3    H213987   2.014   4.817   2.143 -1.2728 -1.3581 -0.3965
 4675TIP3   OH213988   5.071   0.027   0.297  0.2076  0.2924  0.7738
 4675TIP3    H113989   5.043  -0.050   0.346  0.6451  0.0690  0.6781
 4675TIP3    H213990   5.122   0.078   0.360 -1.5064  1.3622  1.3396
 4676TIP3   OH213991   2.598   0.901   1.443  0.0018  0.4605  0.5837
 4676TIP3    H113992   2.626   0.953   1.518  1.7258  0.8295 -0.2665
 4676TIP3    H213993   2.540   0.835   1.480 -1.6511  2.4677  1.8141
 4677TIP3   OH213994   5.322   6.444   0.258  0.4425 -0.1620  0.3346
 4677TIP3    H113995   5.327   6.449   0.354  1.8942  2.0120  0.2186
 4677TIP3    H213996   5.229   6.461   0.238  0.4067  0.9105  1.3204
 4678TIP3   OH213997   1.783   4.993   3.966  0.0668 -0.2526  0.0156
 4678TIP3    H113998   1.827   4.911   3.985  1.4494  0.6729  1.0347
 4678TIP3    H213999   1.845   5.043   3.913  0.5836  1.2784  1.9101
 4679TIP3   OH214000   0.251   2.413   2.651 -0.1666  0.0091 -0.0980
 4679TIP3    H114001   0.293   2.391   2.734 -0.1597  0.0959 -0.0783
 4679TIP3    H214002   0.305   2.370   2.585 -0.7293 -0.8914  0.0059
 4680TIP3   OH214003   2.547   4.370   4.679 -0.4830  0.1808  0.2880
 4680TIP3    H114004   2.560   4.275   4.671 -0.4847  0.0620  1.5236
 4680TIP3    H214005   2.455   4.379   4.703 -0.1611  0.3921  1.5123
 4681TIP3   OH214006   5.147   5.890   1.102 -0.0920  0.0531  0.2513
 4681TIP3    H114007   5.119   5.977   1.129 -0.7423  0.8333 -2.6301
 4681TIP3    H214008   5.066   5.842   1.084  0.2824 -0.5696  0.1810
 4682TIP3   OH214009   5.117   2.730   2.251 -0.0397 -0.4848  0.0876
 4682TIP3    H114010   5.204   2.763   2.270  0.6551 -0.9760 -1.9411
 4682TIP3    H214011   5.064   2.753   2.327  1.4134  1.4561  0.5610
 4683TIP3   OH214012   4.184   3.761   0.409  0.0910 -0.3182  0.6385
 4683TIP3    H114013   4.146   3.836   0.364 -0.1813  0.5435  2.2676
 4683TIP3    H214014   4.276   3.760   0.381 -0.0829  0.1699  0.0438
 4684TIP3   OH214015   2.659   3.446   2.315 -0.1270  0.1372 -0.2686
 4684TIP3    H114016   2.748   3.445   2.279  0.4006 -0.1143  1.0110
 4684TIP3    H214017   2.645   3.536   2.343 -0.9461  0.6073 -1.9852
 4685TIP3   OH214018   3.409   2.308   3.289  0.1879 -0.2169  0.3656
 4685TIP3    H114019   3.380   2.396   3.315  2.2556  0.6455  0.0001
 4685TIP3    H214020   3.329   2.263   3.262 -0.9012  1.6500  0.2828
 4686TIP3   OH214021   6.785   2.946   5.324  0.3443 -1.0616  0.2895
 4686TIP3    H114022   6.702   2.957   5.278 -0.2650 -0.4963  1.4600
 4686TIP3    H214023   6.827   2.872   5.281 -0.2784 -0.6884 -1.0152
 4687TIP3   OH214024   1.629   4.374   5.718  0.4040 -0.4177  0.1098
 4687TIP3    H114025   1.545   4.417   5.703 -0.4040 -2.2674 -1.0551
 4687TIP3    H214026   1.687   4.411   5.652  0.5781  0.9639  1.0008
 4688TIP3   OH214027   2.483   4.500   1.162 -0.0099 -0.0185  0.0323
 4688TIP3    H114028   2.531   4.420   1.141 -1.3577 -1.3211  1.7701
 4688TIP3    H214029   2.533   4.540   1.233  0.2145  0.3003 -0.2959
 4689TIP3   OH214030   5.980   6.199   0.594 -0.1972  0.6954 -0.5724
 4689TIP3    H114031   6.067   6.180   0.628 -0.6189 -0.4178 -0.0618
 4689TIP3    H214032   5.937   6.250   0.663 -0.4461 -0.0505 -0.1570
 4690TIP3   OH214033   0.272   2.303   5.591  0.3327 -0.3151  0.1631
 4690TIP3    H114034   0.297   2.375   5.533  0.5779  0.7577  1.5620
 4690TIP3    H214035   0.178   2.293   5.577  0.1327  0.8533  0.5552
 4691TIP3   OH214036   4.267   6.530   2.244 -0.5977  0.1591 -0.1404
 4691TIP3    H114037   4.199   6.553   2.181 -1.1866  2.6459  1.2929
 4691TIP3    H214038   4.238   6.447   2.281 -0.3212 -1.3125 -2.9034
 4692TIP3   OH214039   0.845   1.524   2.761  0.1938  0.3465 -0.5839
 4692TIP3    H114040   0.805   1.600   2.719  1.4236  0.7613 -1.0334
 4692TIP3    H214041   0.937   1.528   2.736  0.3943 -0.9713 -0.1330
 4693TIP3   OH214042   6.663   4.185   2.466 -0.3840 -0.2421 -0.0995
 4693TIP3    H114043   6.641   4.268   2.509  0.1554  1.8259 -3.4329
 4693TIP3    H214044   6.632   4.118   2.526 -0.8718  2.3416  2.7874
 4694TIP3   OH214045   3.270   2.625   3.060 -0.1737 -0.0947 -0.2128
 4694TIP3    H114046   3.182   2.605   3.031 -0.0454 -1.3833  0.2283
 4694TIP3    H214047   3.266   2.621   3.156  0.4040 -0.4030 -0.1917
 4695TIP3   OH214048   5.423   3.318   0.641  0.2095  0.8260 -0.0979
 4695TIP3    H114049   5.439   3.259   0.716 -0.2818  0.4211 -0.3046
 4695TIP3    H214050   5.337   3.355   0.658  0.1484  0.8259 -0.4003
 4696TIP3   OH214051   2.206   0.645   4.553 -0.0816  0.0042  0.6621
 4696TIP3    H114052   2.252   0.701   4.616 -0.5508 -0.7915  1.7401
 4696TIP3    H214053   2.187   0.565   4.602 -0.7794 -0.4924 -0.3960
 4697TIP3   OH214054   7.201   1.613   3.365 -0.1096 -0.3156 -0.1353
 4697TIP3    H114055   7.121   1.580   3.323  0.2964  0.4048 -1.5188
 4697TIP3    H214056   7.188   1.707   3.370  0.0270 -0.3427  1.0379
 4698TIP3   OH214057   3.399   6.463   1.102  0.4394 -0.2123 -0.5595
 4698TIP3    H114058   3.314   6.459   1.059  0.3468 -1.1371 -0.3027
 4698TIP3    H214059   3.457   6.412   1.047  0.7188  0.0166 -0.4802
 4699TIP3   OH214060   6.414   6.709   3.499 -0.0803 -0.3063  0.5219
 4699TIP3    H114061   6.507   6.702   3.520 -0.4954 -1.0405  2.2701
 4699TIP3    H214062   6.396   6.635   3.441  0.2539 -0.6553  0.8595
 4700TIP3   OH214063   1.111   6.170   0.041  0.0473 -0.1656  0.1311
 4700TIP3    H114064   1.167   6.097   0.015 -0.8684 -0.5436 -0.8223
 4700TIP3    H214065   1.134   6.186   0.133  0.1386 -1.7784  0.4136
 4701TIP3   OH214066   3.335   3.809   5.220 -0.5303 -0.4514  0.0764
 4701TIP3    H114067   3.373   3.723   5.199 -2.0977 -1.3078  0.5562
 4701TIP3    H214068   3.242   3.791   5.234 -1.9848  1.9448 -4.3175
 4702TIP3   OH214069   1.153   3.828   1.557  0.3165 -0.9050  0.4635
 4702TIP3    H114070   1.097   3.903   1.578  0.9450  0.8387 -3.3411
 4702TIP3    H214071   1.241   3.864   1.554  0.6856 -1.8477 -1.0820
 4703TIP3   OH214072   2.893   4.769   4.428  0.1790  0.3643  0.3391
 4703TIP3    H114073   2.875   4.757   4.522 -1.9067  0.9602  0.0801
 4703TIP3    H214074   2.809   4.750   4.386  0.5047  2.1003 -1.2309
 4704TIP3   OH214075   3.583   1.189   0.088 -0.4383 -0.0175 -0.3104
 4704TIP3    H114076   3.644   1.224   0.153  1.3002 -0.5410 -1.5827
 4704TIP3    H214077   3.582   1.094   0.104 -1.6406  0.0746  0.2614
 4705TIP3   OH214078   3.313   5.940   2.804  0.4663 -0.1544 -0.4160
 4705TIP3    H114079   3.286   6.020   2.851 -1.9311 -1.3046  0.3576
 4705TIP3    H214080   3.269   5.869   2.851  3.2528 -2.1086 -0.5015
 4706TIP3   OH214081   1.857   3.906   2.452  0.2287  0.4398  0.4264
 4706TIP3    H114082   1.867   3.885   2.545  2.2450 -0.3891  0.0742
 4706TIP3    H214083   1.852   4.001   2.449 -0.9132  0.4313  1.4452
 4707TIP3   OH214084   4.919   4.655   2.492  0.3983  0.2210 -0.3514
 4707TIP3    H114085   4.905   4.722   2.426 -1.0444  0.1854 -0.0978
 4707TIP3    H214086   4.848   4.667   2.555  1.6109  0.1288  1.1046
 4708TIP3   OH214087   2.721   2.363   4.676  0.3131 -0.1732 -0.2811
 4708TIP3    H114088   2.790   2.342   4.741 -0.5994 -1.2136  0.4008
 4708TIP3    H214089   2.669   2.431   4.718  1.0829  0.8444 -0.9314
 4709TIP3   OH214090   4.923   4.301   4.687  0.7667 -0.0401  0.5862
 4709TIP3    H114091   4.973   4.225   4.657 -0.3965 -1.0677  1.1521
 4709TIP3    H214092   4.837   4.265   4.711  0.1114  1.4973  0.6492
 4710TIP3   OH214093   1.526   1.751   5.137  0.1872  0.2377 -0.4183
 4710TIP3    H114094   1.501   1.659   5.124 -0.4061  0.4022 -0.4779
 4710TIP3    H214095   1.443   1.797   5.150  0.4925  0.7365 -0.1803
 4711TIP3   OH214096   4.760   1.017   2.664 -0.1203 -0.1987 -0.0668
 4711TIP3    H114097   4.716   1.073   2.728  1.4432  0.9198  0.1004
 4711TIP3    H214098   4.689   0.979   2.613 -1.2893  1.4904  0.1916
 4712TIP3   OH214099   4.540   4.077   4.455  0.0609 -0.1271  0.3049
 4712TIP3    H114100   4.446   4.090   4.442 -0.4599  1.2335  4.1940
 4712TIP3    H214101   4.549   3.982   4.464 -0.3897 -0.5514 -2.6427
 4713TIP3   OH214102   1.618   6.497   5.132  0.1331  0.4917 -0.3617
 4713TIP3    H114103   1.631   6.476   5.224  1.9079  1.0902 -0.4489
 4713TIP3    H214104   1.633   6.414   5.087  1.1037  0.5846 -0.2346
 4714TIP3   OH214105   6.186   2.356   0.729 -0.1255 -0.3193 -0.8734
 4714TIP3    H114106   6.101   2.372   0.687 -0.1311 -1.5935 -1.3651
 4714TIP3    H214107   6.179   2.401   0.814 -1.8917 -1.7068 -0.2252
 4715TIP3   OH214108   3.104   0.956   1.447 -0.2082 -0.0970 -0.5259
 4715TIP3    H114109   3.073   0.877   1.403  1.7497 -0.1503 -1.9520
 4715TIP3    H214110   3.182   0.981   1.398  0.0943  1.8579  0.8526
 4716TIP3   OH214111   6.030   4.274   0.523  0.1771 -0.0276  0.4758
 4716TIP3    H114112   6.094   4.212   0.558  1.2383  0.2028 -0.9581
 4716TIP3    H214113   5.949   4.255   0.570  0.8434 -1.5281  1.0714
 4717TIP3   OH214114   6.839   2.496   5.394  0.0742 -0.1260 -0.1858
 4717TIP3    H114115   6.813   2.404   5.389 -1.8782  0.3097  0.7879
 4717TIP3    H214116   6.910   2.498   5.458  1.2609 -1.1131 -1.3992
 4718TIP3   OH214117   4.899   4.574   3.656  0.3284 -0.5019 -0.8237
 4718TIP3    H114118   4.927   4.569   3.748  0.5827 -2.0193 -0.9563
 4718TIP3    H214119   4.803   4.567   3.660  0.4213 -2.1636 -0.7249
 4719TIP3   OH214120   6.726   3.588   4.085  0.5553  0.1557 -0.2387
 4719TIP3    H114121   6.746   3.520   4.149  0.6882 -1.5998 -2.0342
 4719TIP3    H214122   6.811   3.608   4.045  0.1952 -0.3969 -1.3398
 4720TIP3   OH214123   0.563   5.022   2.119 -0.0311  0.3679 -0.0676
 4720TIP3    H114124   0.575   5.004   2.026  1.0242  0.3990  0.0506
 4720TIP3    H214125   0.649   5.004   2.158 -0.5721 -0.0679  0.9678
 4721TIP3   OH214126   2.949   4.853   5.249 -0.2252  0.0079 -0.3170
 4721TIP3    H114127   2.930   4.942   5.217  0.0086 -0.3440 -1.4717
 4721TIP3    H214128   2.884   4.838   5.318  0.4139  1.4770  0.6481
 4722TIP3   OH214129   3.653   1.505   3.218 -0.4112  0.1722 -0.5019
 4722TIP3    H114130   3.683   1.532   3.131 -0.1638 -0.3598 -0.5845
 4722TIP3    H214131   3.707   1.430   3.240 -1.5380 -0.6897 -0.5681
 4723TIP3   OH214132   5.254   3.977   2.704 -0.8188 -0.4785  0.4821
 4723TIP3    H114133   5.179   3.950   2.757 -1.0814  0.3818  0.5725
 4723TIP3    H214134   5.330   3.943   2.750 -1.0815 -0.2791  1.0714
 4724TIP3   OH214135   0.137   1.066   2.936 -0.0994  0.2932  0.2483
 4724TIP3    H114136   0.101   1.134   2.880 -1.8604 -0.4692  0.3876
 4724TIP3    H214137   0.227   1.055   2.905 -0.2954  1.5019 -0.8648
 4725TIP3   OH214138   1.979   3.311   1.710 -0.2829  0.0575 -0.1002
 4725TIP3    H114139   2.031   3.332   1.788  0.4318  0.8833 -0.7751
 4725TIP3    H214140   1.948   3.222   1.725 -1.1233  0.6036  1.6488
 4726TIP3   OH214141   1.899   3.427   2.681 -0.4852 -0.1683  0.2665
 4726TIP3    H114142   1.914   3.454   2.590  0.6167 -1.4590  0.0425
 4726TIP3    H214143   1.962   3.478   2.732 -1.3900  0.8699  0.3840
 4727TIP3   OH214144   1.618   0.351   1.153 -0.7659  0.1835 -0.0248
 4727TIP3    H114145   1.577   0.436   1.168  2.6181  1.9592  0.2223
 4727TIP3    H214146   1.607   0.303   1.235 -0.3640  1.5100  0.8248
 4728TIP3   OH214147   5.979   4.511   2.295  0.0365  0.4319  0.4848
 4728TIP3    H114148   6.062   4.488   2.338 -0.2027 -2.2409 -0.3151
 4728TIP3    H214149   5.926   4.432   2.301 -0.7506  0.5423 -2.9542
 4729TIP3   OH214150   1.239   4.353   2.332 -0.7953  0.1321  0.1584
 4729TIP3    H114151   1.194   4.269   2.337 -0.1146 -0.2668 -0.2524
 4729TIP3    H214152   1.322   4.333   2.288 -0.3037  0.8834  0.7211
 4730TIP3   OH214153   1.493   0.383   4.921 -0.2602 -0.1756  0.2514
 4730TIP3    H114154   1.487   0.354   4.830 -0.1201 -0.0500  0.2002
 4730TIP3    H214155   1.584   0.366   4.946 -0.2637 -0.0883  0.3249
 4731TIP3   OH214156   1.421   6.515   3.063 -0.2200  0.2637 -0.1071
 4731TIP3    H114157   1.452   6.527   2.973 -2.6985  1.6074 -0.8653
 4731TIP3    H214158   1.364   6.439   3.060 -0.5915  0.5232  0.2473
 4732TIP3   OH214159   1.422   4.580   0.371 -0.0508  0.1395  0.3554
 4732TIP3    H114160   1.370   4.629   0.307 -0.7350 -2.5631 -1.3695
 4732TIP3    H214161   1.361   4.561   0.442 -1.3917 -2.2414 -1.2478
 4733TIP3   OH214162   5.201   1.104   5.125  0.0576  0.6174  0.3872
 4733TIP3    H114163   5.122   1.104   5.071 -2.8014  1.6674  4.0900
 4733TIP3    H214164   5.262   1.047   5.078 -2.5873  0.2690 -3.0853
 4734TIP3   OH214165   1.869   6.716   5.693 -0.3784  0.3310  0.3520
 4734TIP3    H114166   1.813   6.666   5.633  0.6592  1.1182 -1.3336
 4734TIP3    H214167   1.938   6.655   5.718  0.1139  0.4694 -0.6106
 4735TIP3   OH214168   5.287   3.155   5.730 -0.0384 -0.4971 -0.0272
 4735TIP3    H114169   5.350   3.086   5.750 -0.0474  0.0908  2.2417
 4735TIP3    H214170   5.339   3.224   5.688  0.4742 -0.8052  0.1023
 4736TIP3   OH214171   3.137   1.618   2.355 -0.8173 -0.0831 -0.0947
 4736TIP3    H114172   3.179   1.659   2.431 -2.9793  1.1149  0.5309
 4736TIP3    H214173   3.190   1.540   2.338  1.9872  1.6116  0.2284
 4737TIP3   OH214174   5.757   1.300   4.734 -0.3892 -0.6866 -0.2208
 4737TIP3    H114175   5.765   1.379   4.679  1.5692 -1.1942 -0.7351
 4737TIP3    H214176   5.743   1.229   4.671 -1.5021 -0.8599  0.2007
 4738TIP3   OH214177   1.433   0.847   0.336  0.1461 -0.0045  0.1582
 4738TIP3    H114178   1.415   0.762   0.296  0.2215  0.6726 -1.3964
 4738TIP3    H214179   1.518   0.873   0.300  0.3086  0.5552  0.9178
 4739TIP3   OH214180   6.075   1.670   0.566  0.5571  0.3579 -0.3671
 4739TIP3    H114181   6.170   1.678   0.577  0.7073 -2.4737  1.7494
 4739TIP3    H214182   6.038   1.730   0.631  1.0623 -0.9596  1.2164
 4740TIP3   OH214183   1.967   0.731   1.395  0.6771 -0.1408 -0.9313
 4740TIP3    H114184   1.894   0.789   1.418  0.7541  0.1334 -1.3751
 4740TIP3    H214185   2.039   0.790   1.374  0.4679 -0.3673 -2.3625
 4741TIP3   OH214186   2.106   0.324   3.746  0.0616 -0.3726 -0.1461
 4741TIP3    H114187   2.154   0.343   3.666  0.3833 -1.1645 -0.1455
 4741TIP3    H214188   2.028   0.277   3.717  0.6788 -1.5718  0.0668
 4742TIP3   OH214189   6.373   2.928   2.570 -0.3117  0.0094  0.1914
 4742TIP3    H114190   6.395   2.869   2.498 -0.2010  0.8430 -0.4690
 4742TIP3    H214191   6.457   2.961   2.602 -0.3029 -0.9885  1.2651
 4743TIP3   OH214192   2.682   3.686   4.709  0.3265 -0.1395  0.6970
 4743TIP3    H114193   2.731   3.630   4.649  1.3825  0.1876  1.2252
 4743TIP3    H214194   2.620   3.733   4.652  0.0957 -1.1067  0.1206
 4744TIP3   OH214195   7.082   1.615   2.907  0.5913 -0.5145  0.3067
 4744TIP3    H114196   7.096   1.570   2.990  0.5935  0.6405  0.9458
 4744TIP3    H214197   7.086   1.708   2.929  1.1954 -0.1841 -1.0834
 4745TIP3   OH214198   4.562   0.286   2.074 -0.0643 -0.0324 -0.0135
 4745TIP3    H114199   4.591   0.205   2.032  0.3418 -0.8870  1.8371
 4745TIP3    H214200   4.616   0.354   2.034  0.6606 -0.8851 -0.5148
 4746TIP3   OH214201   2.465   5.470   4.090  0.1957  0.3316  0.2187
 4746TIP3    H114202   2.496   5.437   4.005  1.7462  1.5629  0.2626
 4746TIP3    H214203   2.504   5.410   4.154  1.3083  0.9889  0.1843
 4747TIP3   OH214204   4.715   3.084   1.143  0.2799  0.0561  0.5017
 4747TIP3    H114205   4.724   3.158   1.083 -0.3572 -0.3798 -0.1612
 4747TIP3    H214206   4.621   3.066   1.145  0.4528 -0.9291  0.3949
 4748TIP3   OH214207   1.563   5.134   4.505  0.5331 -0.3549 -0.4238
 4748TIP3    H114208   1.479   5.092   4.519 -0.3651  1.2354 -0.7932
 4748TIP3    H214209   1.606   5.081   4.438 -0.8499 -0.2993 -1.3859
 4749TIP3   OH214210   2.625   1.808   3.226 -0.0653  0.5558 -0.3208
 4749TIP3    H114211   2.671   1.767   3.298 -1.3570  0.3806  0.4350
 4749TIP3    H214212   2.686   1.874   3.193  1.3753 -0.7865 -0.4705
 4750TIP3   OH214213   1.357   5.789   0.525 -0.5846 -0.2243  0.2894
 4750TIP3    H114214   1.337   5.835   0.444 -2.4953 -1.0076  0.2688
 4750TIP3    H214215   1.352   5.857   0.593 -0.0072  0.2255 -0.1024
 4751TIP3   OH214216   5.077   0.084   4.328  0.4477  0.1531 -0.2968
 4751TIP3    H114217   5.143   0.105   4.263  0.8012  1.2098  0.3749
 4751TIP3    H214218   5.107   0.002   4.368  1.0216  0.2925 -0.4316
 4752TIP3   OH214219   0.954   2.609   4.699 -0.3562 -0.2233 -0.5615
 4752TIP3    H114220   0.916   2.537   4.648 -0.8081  0.0053 -0.5489
 4752TIP3    H214221   0.996   2.566   4.774 -2.8990 -0.3207  0.8941
 4753TIP3   OH214222   4.045   2.604   2.766  0.0150 -0.0392  0.7674
 4753TIP3    H114223   4.076   2.658   2.839 -0.0809 -0.1883  0.9208
 4753TIP3    H214224   4.018   2.666   2.700 -2.2092  0.1818  1.8046
 4754TIP3   OH214225   3.454   2.891   1.472  0.2201  0.1800 -0.3881
 4754TIP3    H114226   3.387   2.854   1.414  1.0490 -0.4681 -0.9566
 4754TIP3    H214227   3.527   2.911   1.414  1.6228 -1.8298  0.6040
 4755TIP3   OH214228   0.607   0.727   3.755  0.3687  0.2143  0.3136
 4755TIP3    H114229   0.562   0.654   3.712 -0.3441  0.4855  0.5800
 4755TIP3    H214230   0.681   0.686   3.800 -0.1530 -0.3862  0.6482
 4756TIP3   OH214231   1.125   3.014   2.184  0.2077 -0.8523 -0.1639
 4756TIP3    H114232   1.127   3.033   2.278 -0.4730  1.5108 -0.5682
 4756TIP3    H214233   1.190   3.073   2.146 -0.2559 -1.0434 -1.2917
 4757TIP3   OH214234   2.496   3.133   2.956 -0.1316 -0.1230 -0.5899
 4757TIP3    H114235   2.523   3.089   2.876 -0.7138  0.4736 -1.1308
 4757TIP3    H214236   2.434   3.200   2.927  0.0974  0.4959  0.2951
 4758TIP3   OH214237   0.482   3.778   4.491  0.1019 -0.4734 -0.0388
 4758TIP3    H114238   0.496   3.771   4.585 -0.5459  0.3604  0.1267
 4758TIP3    H214239   0.417   3.848   4.481 -2.0719 -2.5192 -0.9273
 4759TIP3   OH214240   6.219   5.570   2.719 -0.0593 -1.0310  0.3533
 4759TIP3    H114241   6.307   5.541   2.741  0.0015 -0.5385  0.7589
 4759TIP3    H214242   6.166   5.550   2.796 -0.3652 -1.5636  0.0170
 4760TIP3   OH214243   1.135   5.777   3.585 -0.2442  0.4441 -0.6378
 4760TIP3    H114244   1.107   5.686   3.583  0.6232  0.1806 -1.9001
 4760TIP3    H214245   1.125   5.804   3.676 -2.2226 -0.3621 -0.5759
 4761TIP3   OH214246   4.635   2.635   1.793 -0.2427 -0.4479 -0.4391
 4761TIP3    H114247   4.680   2.692   1.855  1.2023 -2.1864  0.2052
 4761TIP3    H214248   4.543   2.655   1.804  0.1350  0.7467  0.7615
 4762TIP3   OH214249   6.890   6.705   2.365  0.7223 -0.0665 -0.4990
 4762TIP3    H114250   6.891   6.647   2.289 -1.7678 -0.9436  0.0174
 4762TIP3    H214251   6.835   6.779   2.337  0.1913 -0.1633  0.2652
 4763TIP3   OH214252   1.292   5.066   0.257  0.1036 -0.0625  0.0622
 4763TIP3    H114253   1.333   4.988   0.294 -0.0904 -1.1640 -1.9088
 4763TIP3    H214254   1.357   5.136   0.270  0.0382 -0.3360  2.3912
 4764TIP3   OH214255   3.849   5.932   4.385  0.3421  0.3284  0.5056
 4764TIP3    H114256   3.773   5.876   4.400  0.8775 -0.5306  0.0840
 4764TIP3    H214257   3.907   5.879   4.330  0.7614  1.3806 -0.0972
 4765TIP3   OH214258   4.352   3.406   4.635  0.1478 -0.2797 -0.2249
 4765TIP3    H114259   4.419   3.459   4.679 -0.3519 -0.6253  0.9924
 4765TIP3    H214260   4.385   3.316   4.642  0.5039 -0.2619 -1.3985
 4766TIP3   OH214261   1.028   4.063   3.661 -0.7352  0.3346 -0.1934
 4766TIP3    H114262   1.100   4.125   3.673  1.4524 -2.4209  2.7289
 4766TIP3    H214263   1.037   4.034   3.570  1.3771  0.6624 -0.1572
 4767TIP3   OH214264   3.401   5.710   5.325 -0.1004  0.1905 -0.2304
 4767TIP3    H114265   3.447   5.736   5.405 -0.5769  1.2452 -0.2887
 4767TIP3    H214266   3.401   5.788   5.270  0.4652 -0.6097 -1.3937
 4768TIP3   OH214267   4.256   0.617   2.072 -0.1402 -0.4705 -0.1956
 4768TIP3    H114268   4.161   0.630   2.078 -0.6534 -2.6447 -2.2479
 4768TIP3    H214269   4.271   0.532   2.112  0.9939 -0.0900  0.2125
 4769TIP3   OH214270   6.064   4.378   4.706 -0.2099  0.1996  0.0247
 4769TIP3    H114271   6.056   4.425   4.790  1.0909  1.0831 -0.3068
 4769TIP3    H214272   5.994   4.414   4.652 -0.7561 -0.0241  0.5703
 4770TIP3   OH214273   2.516   6.441   0.130  0.8224 -0.0296  0.0136
 4770TIP3    H114274   2.565   6.509   0.176  0.6986  0.0896 -0.0308
 4770TIP3    H214275   2.497   6.375   0.197 -1.4236  1.2350  0.7376
 4771TIP3   OH214276   1.751   0.752   2.743  0.2573  0.3794  0.2728
 4771TIP3    H114277   1.727   0.798   2.823  0.2589 -0.1919  0.5998
 4771TIP3    H214278   1.815   0.686   2.770  1.2030  0.9911 -0.3806
 4772TIP3   OH214279   4.976   3.493   4.382 -0.8126  0.1358 -0.1111
 4772TIP3    H114280   5.031   3.533   4.450 -0.9767 -0.5886  0.4588
 4772TIP3    H214281   5.023   3.509   4.300  1.4934 -2.4784  0.5502
 4773TIP3   OH214282   6.566   1.937   2.510  0.4851 -0.1340 -0.2013
 4773TIP3    H114283   6.630   1.875   2.474  0.4903 -1.3616  1.8038
 4773TIP3    H214284   6.579   1.933   2.604 -0.8734  1.4852  0.0956
 4774TIP3   OH214285   4.649   5.804   1.649 -0.5123 -0.3751  0.3197
 4774TIP3    H114286   4.715   5.843   1.707 -1.5958 -0.1808  1.4831
 4774TIP3    H214287   4.671   5.710   1.647 -1.8191 -0.8489  3.0889
 4775TIP3   OH214288   0.090   1.038   3.438 -0.0008 -0.3417 -0.3828
 4775TIP3    H114289   0.029   0.976   3.399  0.5842  0.4486 -2.6644
 4775TIP3    H214290   0.167   0.986   3.460 -0.9066 -1.0766  1.2163
 4776TIP3   OH214291   4.045   4.903   3.336 -0.0293 -0.0275 -0.4464
 4776TIP3    H114292   3.975   4.894   3.401  0.9384 -2.4518  0.3583
 4776TIP3    H214293   4.019   4.846   3.264  0.2388  0.5204 -0.9889
 4777TIP3   OH214294   1.835   0.335   0.504 -0.7335 -0.1378 -0.3612
 4777TIP3    H114295   1.777   0.332   0.580 -1.2107  0.0393 -0.7112
 4777TIP3    H214296   1.807   0.413   0.456 -0.1664 -0.0169 -0.5072
 4778TIP3   OH214297   2.358   5.236   2.249 -0.2886 -0.0331 -0.3079
 4778TIP3    H114298   2.400   5.208   2.168  0.8631  0.9683 -0.0830
 4778TIP3    H214299   2.399   5.319   2.271 -1.7938  0.5726  0.4083
 4779TIP3   OH214300   0.151   0.746   1.181  0.2779 -0.1549 -0.3120
 4779TIP3    H114301   0.096   0.747   1.259  0.4581 -1.0694 -0.1601
 4779TIP3    H214302   0.231   0.793   1.207  1.2542 -2.2738  0.7811
 4780TIP3   OH214303   6.345   5.186   1.247 -0.4082 -0.1495 -0.7573
 4780TIP3    H114304   6.275   5.212   1.307 -0.6727 -2.0031 -0.2281
 4780TIP3    H214305   6.326   5.234   1.166 -1.1379  0.8959  0.0018
 4781TIP3   OH214306   1.065   3.124   0.190 -0.2700  0.5199  0.5384
 4781TIP3    H114307   1.012   3.050   0.161 -0.9012  1.1990 -0.0802
 4781TIP3    H214308   1.020   3.156   0.269  0.3345 -0.1072  1.1486
 4782TIP3   OH214309   4.884   5.770   1.107  0.2931 -0.0052  0.0482
 4782TIP3    H114310   4.835   5.832   1.161 -0.3051 -0.0955 -0.3833
 4782TIP3    H214311   4.818   5.710   1.074  0.9295 -1.1873  0.8614
 4783TIP3   OH214312   3.088   0.423   4.716 -0.1410  0.4775 -0.1683
 4783TIP3    H114313   3.137   0.488   4.665  0.4305 -0.7596 -1.2350
 4783TIP3    H214314   3.155   0.370   4.759 -0.6114  0.8582  1.0870
 4784TIP3   OH214315   2.163   5.815   1.118  0.2694  0.0318  0.6335
 4784TIP3    H114316   2.232   5.882   1.124  1.9722 -1.3924 -1.3042
 4784TIP3    H214317   2.094   5.857   1.066  1.2449  0.3912 -0.4302
 4785TIP3   OH214318   3.501   0.957   3.138 -0.0499 -0.8895  0.0213
 4785TIP3    H114319   3.416   0.988   3.168 -0.1535 -0.3532 -0.7818
 4785TIP3    H214320   3.517   0.878   3.188 -0.0723  0.1203  1.6758
 4786TIP3   OH214321   3.375   5.677   0.243 -0.4451 -0.3594 -0.3600
 4786TIP3    H114322   3.468   5.700   0.237 -0.6697  0.4725 -0.7232
 4786TIP3    H214323   3.350   5.655   0.154 -1.0244  1.1325 -0.5852
 4787TIP3   OH214324   5.779   4.977   4.453  0.2618  0.4044  0.2707
 4787TIP3    H114325   5.786   4.947   4.544 -0.0918  2.2171  0.9471
 4787TIP3    H214326   5.686   5.001   4.443  0.9451  3.9166  0.7822
 4788TIP3   OH214327   0.181   5.906   5.639  0.3308 -0.3536  0.0015
 4788TIP3    H114328   0.211   5.979   5.693 -0.5597 -0.1405  0.2330
 4788TIP3    H214329   0.141   5.948   5.563  2.2778 -0.6652 -1.2465
 4789TIP3   OH214330   6.690   2.407   0.165  0.3249 -0.2906 -0.1385
 4789TIP3    H114331   6.601   2.377   0.188  0.5885 -1.1561 -0.2100
 4789TIP3    H214332   6.702   2.378   0.075  0.3579  0.6081 -0.4292
 4790TIP3   OH214333   1.844   3.446   1.507 -0.3226  0.0741 -0.0444
 4790TIP3    H114334   1.918   3.439   1.567 -0.7710  2.3465  0.8505
 4790TIP3    H214335   1.878   3.413   1.423  0.9122 -1.2283  0.9175
 4791TIP3   OH214336   1.336   6.238   3.066 -0.4084 -0.1528 -0.1363
 4791TIP3    H114337   1.412   6.235   3.124 -0.7257  0.8069  0.3370
 4791TIP3    H214338   1.347   6.162   3.008 -0.3494 -1.4433  1.4904
 4792TIP3   OH214339   1.993   4.918   0.034  0.2906 -0.1085 -1.1202
 4792TIP3    H114340   2.001   4.961  -0.051  1.7359 -1.5245 -1.7494
 4792TIP3    H214341   2.071   4.863   0.041 -0.3897 -0.9392  0.6085
 4793TIP3   OH214342   7.190   6.088   2.993 -0.4425  0.3237 -0.1776
 4793TIP3    H114343   7.158   6.158   2.937 -0.3461 -0.4514 -1.2230
 4793TIP3    H214344   7.131   6.015   2.976  1.3099 -0.8625 -1.5069
 4794TIP3   OH214345   5.806   6.681   1.049 -0.0630  0.1067 -0.8216
 4794TIP3    H114346   5.785   6.755   1.105  0.5159 -0.4158  0.1150
 4794TIP3    H214347   5.818   6.608   1.109 -0.5992 -0.7470 -1.7285
 4795TIP3   OH214348   6.947   0.661   1.179 -0.0214  0.4968  0.2847
 4795TIP3    H114349   6.916   0.571   1.182 -0.3413  0.6215  0.6719
 4795TIP3    H214350   6.894   0.703   1.111  2.1607 -0.3704 -2.1400
 4796TIP3   OH214351   2.196   2.614   2.387 -0.0833 -0.2034 -0.5821
 4796TIP3    H114352   2.131   2.679   2.415 -0.4000 -1.0672  0.7396
 4796TIP3    H214353   2.278   2.643   2.428 -0.1429 -0.4361 -0.3015
 4797TIP3   OH214354   6.926   0.370   3.577  0.1976  0.2365 -0.3101
 4797TIP3    H114355   6.935   0.443   3.516  0.7744 -0.3599 -0.9629
 4797TIP3    H214356   7.014   0.354   3.609  0.3206 -0.9564 -1.1354
 4798TIP3   OH214357   5.482   1.046   1.879 -0.5477  0.0358 -0.0630
 4798TIP3    H114358   5.529   1.063   1.797 -0.3731  2.2255  0.4135
 4798TIP3    H214359   5.391   1.037   1.853 -0.2371 -1.4623 -0.7071
 4799TIP3   OH214360   5.689   6.547   5.713 -0.2061 -0.3750 -0.2709
 4799TIP3    H114361   5.690   6.472   5.654 -0.9260 -1.7946  1.4220
 4799TIP3    H214362   5.766   6.536   5.768  1.1144  1.5608 -1.5986
 4800TIP3   OH214363   3.510   2.878   0.181 -0.3946  0.3287  0.5343
 4800TIP3    H114364   3.424   2.910   0.208 -2.7070 -1.5633 -3.6166
 4800TIP3    H214365   3.515   2.789   0.215 -1.0739 -0.2682 -0.8371
 4801TIP3   OH214366   6.291   1.752   1.272  0.0318  0.6541 -0.0852
 4801TIP3    H114367   6.281   1.665   1.234 -0.2807  0.2990  0.7987
 4801TIP3    H214368   6.205   1.774   1.308  0.3556  0.9132  0.5534
 4802TIP3   OH214369   6.345   4.624   4.284  0.1780 -0.2767 -0.2269
 4802TIP3    H114370   6.289   4.694   4.318 -1.0588 -1.1792 -0.3564
 4802TIP3    H214371   6.429   4.667   4.266  0.0165  0.7955  1.3854
 4803TIP3   OH214372   1.968   4.008   4.410  0.3056  0.5524  0.6470
 4803TIP3    H114373   2.041   4.065   4.384 -0.4984  1.6904  0.7796
 4803TIP3    H214374   1.972   3.934   4.349  0.7304  1.2977 -0.2574
 4804TIP3   OH214375   2.401   2.202   4.673 -0.2504 -0.7594  0.1226
 4804TIP3    H114376   2.410   2.251   4.591  1.3759 -0.3768  0.4958
 4804TIP3    H214377   2.334   2.251   4.722 -0.3236 -0.2586 -0.4608
 4805TIP3   OH214378   6.198   2.083   0.802  0.0226  0.2041  0.1181
 4805TIP3    H114379   6.226   2.029   0.728 -2.0559 -0.1687 -0.4525
 4805TIP3    H214380   6.193   2.172   0.766  2.0483  0.6062  0.6872
 4806TIP3   OH214381   0.299   2.613   2.995 -0.3477 -0.1540 -0.3143
 4806TIP3    H114382   0.367   2.679   3.007 -0.2256  0.1362 -2.2588
 4806TIP3    H214383   0.336   2.552   2.931 -0.3568 -2.3115  1.5778
 4807TIP3   OH214384   0.141   2.233   5.872  0.0728 -0.3004  0.6412
 4807TIP3    H114385   0.161   2.327   5.869 -0.8044 -0.1228 -1.3068
 4807TIP3    H214386   0.078   2.220   5.802 -0.0385 -2.3213  1.0567
 4808TIP3   OH214387   0.175   4.997   3.013 -0.0577  1.0393 -0.2734
 4808TIP3    H114388   0.220   5.081   3.003 -1.2838  1.7283 -0.2832
 4808TIP3    H214389   0.104   5.015   3.074  0.3914 -0.3173  0.7087
 4809TIP3   OH214390   7.158   3.180   4.055 -0.0208  0.2361  0.7369
 4809TIP3    H114391   7.087   3.137   4.007 -0.3127  0.9433  0.5113
 4809TIP3    H214392   7.128   3.182   4.146 -0.0110 -0.0273  0.7452
 4810TIP3   OH214393   6.440   3.616   0.302  0.4353 -0.6533 -0.5163
 4810TIP3    H114394   6.490   3.696   0.286 -0.3031  0.5326  2.4692
 4810TIP3    H214395   6.349   3.643   0.295  0.1659 -1.6134 -0.8826
 4811TIP3   OH214396   5.300   2.325   5.552  0.1412  0.1716  0.0489
 4811TIP3    H114397   5.224   2.293   5.599  2.1550 -0.8749  2.8540
 4811TIP3    H214398   5.314   2.413   5.587  0.8031 -0.0386  0.3240
 4812TIP3   OH214399   0.565   4.460   0.070 -0.1513  0.0467  0.0769
 4812TIP3    H114400   0.471   4.451   0.089  0.1275  1.0299  2.2604
 4812TIP3    H214401   0.608   4.439   0.153  1.4068  2.2479 -0.0857
 4813TIP3   OH214402   5.810   2.769   1.023  0.3486 -0.0409 -0.5394
 4813TIP3    H114403   5.879   2.793   0.961 -0.6168  1.1726 -1.1783
 4813TIP3    H214404   5.788   2.678   1.000  1.1930 -0.1809 -0.8248
 4814TIP3   OH214405   5.384   5.871   3.460  0.4617  0.2947  0.4147
 4814TIP3    H114406   5.383   5.826   3.545  0.4016  1.1365  0.8782
 4814TIP3    H214407   5.430   5.954   3.478  1.5800 -0.0522 -0.6652
 4815TIP3   OH214408   3.522   0.272   4.224  0.2824 -0.1476  0.4799
 4815TIP3    H114409   3.546   0.206   4.158  2.2996  1.8464 -0.8857
 4815TIP3    H214410   3.427   0.280   4.215  0.3787 -0.6674 -1.5173
 4816TIP3   OH214411   1.466   4.592   5.624 -0.1654 -0.7118 -0.7877
 4816TIP3    H114412   1.385   4.616   5.669  0.2183 -0.9606  0.0670
 4816TIP3    H214413   1.521   4.670   5.631 -0.8609  0.0065 -2.7056
 4817TIP3   OH214414   0.223   1.486   0.176  0.4285  0.2226  0.3550
 4817TIP3    H114415   0.201   1.511   0.266  1.0912  1.0949  0.2914
 4817TIP3    H214416   0.154   1.426   0.150 -0.5011  0.9819  0.9971
 4818TIP3   OH214417   2.877   5.119   3.320 -0.3680  0.6274  0.1252
 4818TIP3    H114418   2.922   5.189   3.369 -0.9057  0.3534  1.0274
 4818TIP3    H214419   2.837   5.164   3.246  1.0868  0.9379 -0.5153
 4819TIP3   OH214420   3.992   6.404   1.729 -0.3273  0.1903  0.0636
 4819TIP3    H114421   4.048   6.341   1.773  0.3923  1.0584  0.4040
 4819TIP3    H214422   3.915   6.353   1.702 -1.1122 -0.2707  2.8520
 4820TIP3   OH214423   0.639   4.209   0.663 -0.0859  0.2896 -0.1445
 4820TIP3    H114424   0.709   4.192   0.600 -0.4537  1.1820 -0.8166
 4820TIP3    H214425   0.674   4.181   0.747  0.9095  0.3175 -0.5430
 4821TIP3   OH214426   4.242   2.294   4.795  0.0793 -0.2969  0.0820
 4821TIP3    H114427   4.243   2.348   4.716  0.6514 -0.3277  0.0643
 4821TIP3    H214428   4.275   2.353   4.864 -0.5686 -0.2185  0.3357
 4822TIP3   OH214429   0.580   4.618   4.660 -0.1399 -0.1354 -0.3303
 4822TIP3    H114430   0.532   4.683   4.608  1.6847  0.0198 -1.9403
 4822TIP3    H214431   0.662   4.662   4.683  1.0342 -1.7385 -1.2685
 4823TIP3   OH214432   2.924   6.360   0.699 -0.3531 -0.0577 -0.1843
 4823TIP3    H114433   2.876   6.442   0.705  0.8685  0.7194 -0.6758
 4823TIP3    H214434   2.932   6.330   0.790 -1.8494 -0.2886 -0.1003
 4824TIP3   OH214435   6.807   4.136   5.381  0.0774 -0.2573 -0.0158
 4824TIP3    H114436   6.749   4.074   5.337 -0.5213  0.3317 -0.0735
 4824TIP3    H214437   6.752   4.213   5.397  0.8164  0.2731  0.0187
 4825TIP3   OH214438   3.088   1.983   0.978 -0.2450  0.0120  0.7756
 4825TIP3    H114439   3.082   1.907   0.921  0.8387  0.4471  0.0535
 4825TIP3    H214440   3.126   2.052   0.923 -0.4415  0.8375  1.6400
 4826TIP3   OH214441   5.447   4.416   4.901  0.8855 -0.2038 -0.2138
 4826TIP3    H114442   5.515   4.361   4.863  1.9261 -0.2061  1.5401
 4826TIP3    H214443   5.407   4.361   4.969 -0.4111  0.0491 -0.7385
 4827TIP3   OH214444   0.466   6.313   5.373 -0.5733 -0.1883 -0.0326
 4827TIP3    H114445   0.533   6.355   5.320 -1.7680  1.7293 -0.1220
 4827TIP3    H214446   0.453   6.372   5.447 -1.3860 -1.0708  0.5541
 4828TIP3   OH214447   5.187   3.160   0.523 -0.1494  0.0034  0.3434
 4828TIP3    H114448   5.177   3.113   0.606 -1.6899 -0.5841 -0.1522
 4828TIP3    H214449   5.241   3.103   0.469 -1.9870 -1.2815 -0.2488
 4829TIP3   OH214450   6.378   0.398   5.136 -0.2561  0.4221 -0.4088
 4829TIP3    H114451   6.399   0.345   5.059  1.7302 -1.1271  1.1100
 4829TIP3    H214452   6.361   0.334   5.205 -2.0578  1.7714  0.5019
 4830TIP3   OH214453   6.914   0.562   4.968 -0.2140  0.0623 -0.4472
 4830TIP3    H114454   6.824   0.570   4.938 -0.2696 -0.9346 -0.5900
 4830TIP3    H214455   6.929   0.641   5.020 -0.4601  1.2929 -2.1654
 4831TIP3   OH214456   6.465   0.931   0.963 -0.9724  0.1060  0.0204
 4831TIP3    H114457   6.490   1.023   0.973  0.8836 -0.2214 -1.2356
 4831TIP3    H214458   6.425   0.926   0.876  0.3974 -0.5342 -0.6023
 4832TIP3   OH214459   6.864   1.148   4.167  0.0317 -0.0871  0.0382
 4832TIP3    H114460   6.935   1.113   4.222 -1.1980 -2.2560  0.3724
 4832TIP3    H214461   6.786   1.101   4.197 -1.3296  1.3288 -1.1590
 4833TIP3   OH214462   1.392   5.516   1.828 -0.0680 -0.4767 -0.4195
 4833TIP3    H114463   1.383   5.580   1.899  2.2526  0.1399 -0.6069
 4833TIP3    H214464   1.318   5.457   1.840 -0.4560  0.3498  1.7528
 4834TIP3   OH214465   2.713   6.411   4.024  0.5196 -0.1504 -0.2458
 4834TIP3    H114466   2.706   6.364   3.942  0.2402 -0.5453  0.0007
 4834TIP3    H214467   2.690   6.347   4.091  0.2504  0.2989  0.1037
 4835TIP3   OH214468   0.807   3.645   2.803  0.2657  0.4877  0.0370
 4835TIP3    H114469   0.764   3.644   2.717 -2.1308  2.8051  1.0778
 4835TIP3    H214470   0.897   3.671   2.785 -0.6960  2.9705 -1.6681
 4836TIP3   OH214471   3.322   3.318   5.416  1.0327 -0.3075 -0.7718
 4836TIP3    H114472   3.384   3.277   5.477  0.2497  1.1040  1.0768
 4836TIP3    H214473   3.272   3.245   5.380  1.3278 -1.1727  0.5085
 4837TIP3   OH214474   3.745   2.439   1.105 -0.1851  0.3976 -0.3249
 4837TIP3    H114475   3.798   2.375   1.057 -1.0439  0.1797 -1.0098
 4837TIP3    H214476   3.701   2.388   1.172 -0.7226  0.2967 -0.7496
 4838TIP3   OH214477   0.377   2.530   4.707 -0.4398 -0.3652  0.0755
 4838TIP3    H114478   0.437   2.517   4.633  1.3565  0.1556  1.3571
 4838TIP3    H214479   0.299   2.479   4.685  0.2750 -0.6854 -1.8904
 4839TIP3   OH214480   0.130   0.458   0.509  0.3908  0.0352  0.1936
 4839TIP3    H114481   0.202   0.477   0.569  0.9747 -1.1348 -0.1157
 4839TIP3    H214482   0.173   0.448   0.424 -0.1359 -0.6796  0.0069
 4840TIP3   OH214483   2.062   5.412   3.399  0.1278 -0.1421 -0.0934
 4840TIP3    H114484   2.148   5.389   3.364  0.2462 -0.5819  0.4753
 4840TIP3    H214485   2.032   5.332   3.443  0.9993  1.0117  2.8441
 4841TIP3   OH214486   4.539   3.046   2.909 -0.2520  0.0611 -0.0656
 4841TIP3    H114487   4.511   3.117   2.967  1.8230  0.4642  0.5251
 4841TIP3    H214488   4.552   2.971   2.968  1.2604  0.3002 -0.0575
 4842TIP3   OH214489   5.249   0.315   4.212 -0.1687 -0.3318 -0.0268
 4842TIP3    H114490   5.183   0.302   4.145 -0.4202  0.1026  0.1313
 4842TIP3    H214491   5.200   0.351   4.287  0.2818  0.2686 -0.0090
 4843TIP3   OH214492   2.331   2.045   0.966  0.4883  0.0957  0.2101
 4843TIP3    H114493   2.282   2.086   0.895  1.1058 -0.0241 -0.2949
 4843TIP3    H214494   2.411   2.097   0.973  1.2974 -1.0204 -0.4657
 4844TIP3   OH214495   5.999   3.109   1.438  0.2506 -0.4748 -0.7531
 4844TIP3    H114496   5.905   3.122   1.424 -0.0196 -0.9591  0.4503
 4844TIP3    H214497   6.007   3.015   1.455  0.9655 -0.4436 -0.9124
 4845TIP3   OH214498   4.600   0.913   2.428 -0.1469 -0.2150 -0.7528
 4845TIP3    H114499   4.564   0.993   2.390 -2.2116 -0.9914 -0.5497
 4845TIP3    H214500   4.580   0.844   2.364 -1.6670 -1.1520  0.6489
 4846TIP3   OH214501   2.759   6.591   0.673  0.2516 -0.1855  0.0274
 4846TIP3    H114502   2.834   6.647   0.651  0.0926 -0.3827 -1.0984
 4846TIP3    H214503   2.683   6.647   0.658 -0.0170 -1.1154 -2.8432
 4847TIP3   OH214504   3.365   6.791   4.726 -0.5364  0.0267 -0.2621
 4847TIP3    H114505   3.345   6.823   4.814  0.9778 -1.5810  0.7216
 4847TIP3    H214506   3.283   6.752   4.695 -1.3805  1.5394 -0.0510
 4848TIP3   OH214507   5.873   4.466   0.272 -0.3569  0.3629  0.1678
 4848TIP3    H114508   5.874   4.458   0.176 -1.5275  0.6096  0.1189
 4848TIP3    H214509   5.787   4.432   0.298 -0.1494  0.5366  1.1182
 4849TIP3   OH214510   1.844   1.778   4.315 -0.4640 -0.1390 -0.4168
 4849TIP3    H114511   1.854   1.692   4.276 -0.7243 -0.7921  0.9006
 4849TIP3    H214512   1.932   1.814   4.318 -0.5468  0.3837 -2.5121
 4850TIP3   OH214513   2.393   2.786   2.837 -0.4217  0.1720 -0.8418
 4850TIP3    H114514   2.480   2.814   2.806  0.0443 -2.2483 -2.0152
 4850TIP3    H214515   2.396   2.800   2.932  1.6217 -0.6349 -0.7260
 4851TIP3   OH214516   5.495   2.933   5.766  0.6203  0.2013  0.3263
 4851TIP3    H114517   5.497   2.887   5.682 -0.4871 -0.3806  0.5925
 4851TIP3    H214518   5.586   2.953   5.785  1.1483 -1.8613  0.1770
 4852TIP3   OH214519   2.690   5.034   0.580 -0.0348 -0.3783 -0.6266
 4852TIP3    H114520   2.598   5.009   0.583 -0.8772  2.3671  0.1325
 4852TIP3    H214521   2.713   5.031   0.487 -1.1188 -0.4093 -0.9101
 4853TIP3   OH214522   0.802   5.884   4.041 -0.4559  0.3222  0.4479
 4853TIP3    H114523   0.837   5.958   4.092  1.2002  0.8991 -1.3767
 4853TIP3    H214524   0.860   5.811   4.063 -0.8091  0.0985  0.6575
 4854TIP3   OH214525   2.539   3.990   1.729 -0.1674 -0.3067  0.1601
 4854TIP3    H114526   2.599   3.944   1.787  1.5922  2.3960  0.6873
 4854TIP3    H214527   2.455   3.990   1.775  0.6791  0.0003  1.7458
 4855TIP3   OH214528   6.727   0.345   2.816 -0.4885  0.0860 -0.5515
 4855TIP3    H114529   6.657   0.337   2.751 -1.1568 -1.1896  0.2823
 4855TIP3    H214530   6.681   0.353   2.900  0.2796 -3.2656  0.3203
 4856TIP3   OH214531   0.023   5.477   4.537  0.6345 -0.3667  0.3062
 4856TIP3    H114532   0.066   5.453   4.619  0.9637  1.2583  0.6411
 4856TIP3    H214533   0.095   5.507   4.481  0.0503  1.8444  0.6687
 4857TIP3   OH214534   0.279   4.323   3.389  0.4475  0.4656 -0.2756
 4857TIP3    H114535   0.330   4.282   3.459  0.6674  0.4254 -0.4608
 4857TIP3    H214536   0.344   4.361   3.330  0.2645  0.4680 -0.4784
 4858TIP3   OH214537   1.477   5.031   3.778  0.1571 -0.3392 -0.5709
 4858TIP3    H114538   1.526   4.955   3.808 -1.3277 -1.4432 -0.8633
 4858TIP3    H214539   1.455   5.012   3.687 -2.1256 -0.6273 -0.0255
 4859TIP3   OH214540   2.363   1.136   5.739  0.1550  0.4977  0.0924
 4859TIP3    H114541   2.431   1.143   5.805  1.4801 -1.3426 -1.0010
 4859TIP3    H214542   2.301   1.073   5.775  0.1167  0.5932  0.1938
 4860TIP3   OH214543   7.137   5.339   2.263 -0.0462  0.2792 -0.0125
 4860TIP3    H114544   7.183   5.263   2.298 -0.0987  0.0881 -0.3476
 4860TIP3    H214545   7.104   5.309   2.178  0.2450  0.7882 -0.3062
 4861TIP3   OH214546   1.460   3.539   4.255 -0.0959 -0.4157 -0.3177
 4861TIP3    H114547   1.514   3.558   4.332 -0.8966  0.4611  0.0552
 4861TIP3    H214548   1.457   3.622   4.208 -0.1710 -0.7685 -0.9403
 4862TIP3   OH214549   6.019   3.106   0.589 -0.1637 -0.2319  0.1717
 4862TIP3    H114550   6.114   3.111   0.600 -0.2608  0.3829  0.8098
 4862TIP3    H214551   5.984   3.114   0.678 -0.8232 -0.2129 -0.0821
 4863TIP3   OH214552   6.761   2.407   5.747 -0.5566 -0.0488  0.1468
 4863TIP3    H114553   6.782   2.347   5.818  0.9401  0.3814  0.0818
 4863TIP3    H214554   6.729   2.486   5.791 -1.3248 -0.4126  0.2667
 4864TIP3   OH214555   2.302   2.581   4.946  0.3374 -0.5307  0.2588
 4864TIP3    H114556   2.213   2.611   4.932  0.7543  0.1546 -1.0364
 4864TIP3    H214557   2.299   2.486   4.929 -0.5189 -0.9108  2.1933
 4865TIP3   OH214558   1.516   6.235   3.756  0.4448 -0.3570 -0.2241
 4865TIP3    H114559   1.605   6.269   3.772  1.3394 -1.9878 -1.4540
 4865TIP3    H214560   1.506   6.165   3.821 -0.0690 -0.0137  0.0762
 4866TIP3   OH214561   1.999   4.737   3.038  0.7521 -0.4161 -0.1841
 4866TIP3    H114562   2.008   4.653   3.082  2.0066  0.6489  1.7659
 4866TIP3    H214563   2.082   4.750   2.993  1.0131  0.2620  0.4752
 4867TIP3   OH214564   4.446   3.908   3.972 -0.3397 -0.2478 -0.3889
 4867TIP3    H114565   4.501   3.890   4.048  0.0153 -1.1618 -0.8448
 4867TIP3    H214566   4.394   3.828   3.960  0.9289 -0.8648 -2.1871
 4868TIP3   OH214567   7.022   1.555   2.370  0.2726 -0.1162  0.1667
 4868TIP3    H114568   6.955   1.502   2.327  0.0877 -0.0699  0.3986
 4868TIP3    H214569   7.010   1.539   2.463  0.0579  0.5166  0.2537
 4869TIP3   OH214570   4.876   1.945   5.307 -0.4902 -0.1686 -0.0105
 4869TIP3    H114571   4.799   1.966   5.359  0.4115  2.0204  0.5447
 4869TIP3    H214572   4.846   1.952   5.216 -1.5328 -1.8722  0.1707
 4870TIP3   OH214573   1.680   6.488   4.598 -0.3321 -0.5382 -0.3808
 4870TIP3    H114574   1.706   6.406   4.639 -0.4872 -0.6090 -0.4239
 4870TIP3    H214575   1.585   6.490   4.606 -0.3813 -0.6386 -0.8972
 4871TIP3   OH214576   7.054   1.763   1.068 -0.2953  0.0896 -0.3342
 4871TIP3    H114577   7.095   1.847   1.086  0.2898 -0.4203  0.8123
 4871TIP3    H214578   7.115   1.718   1.010 -0.4313  0.2980 -0.6426
 4872TIP3   OH214579   0.020   5.362   3.396  0.0704 -0.5420  0.3131
 4872TIP3    H114580   0.094   5.415   3.425  1.0471 -0.6850 -1.7360
 4872TIP3    H214581  -0.008   5.314   3.474  1.2591  0.5451  1.4369
 4873TIP3   OH214582   4.755   4.438   5.621 -0.0593  0.2783  0.2249
 4873TIP3    H114583   4.726   4.469   5.707 -0.9242  0.4485 -0.1169
 4873TIP3    H214584   4.677   4.444   5.566  0.1648 -0.9421 -0.2738
 4874TIP3   OH214585   7.178   3.008   0.801  0.0662  0.0009  0.0128
 4874TIP3    H114586   7.158   3.097   0.769 -0.9174 -0.3971 -0.5337
 4874TIP3    H214587   7.130   3.002   0.884 -1.9542 -0.8420 -1.1419
 4875TIP3   OH214588   4.519   5.293   0.617  0.3265 -0.5652  0.2317
 4875TIP3    H114589   4.477   5.281   0.532  1.6402  1.8741 -0.8430
 4875TIP3    H214590   4.581   5.220   0.623 -2.3115 -2.9379  0.8729
 4876TIP3   OH214591   3.450   5.141   3.186  0.5267  0.5024  0.0025
 4876TIP3    H114592   3.473   5.053   3.158 -1.4103 -0.1295  0.2312
 4876TIP3    H214593   3.514   5.198   3.143  1.8747 -1.0030 -0.0605
 4877TIP3   OH214594   4.693   4.133   4.679 -0.2638  0.3484  0.0251
 4877TIP3    H114595   4.645   4.083   4.613  0.8714  0.3828 -0.8615
 4877TIP3    H214596   4.741   4.067   4.728  0.0837  0.4466 -0.1822
 4878TIP3   OH214597   2.707   3.938   5.715 -0.3077  0.6708  0.8638
 4878TIP3    H114598   2.619   3.975   5.715 -1.1078 -1.1411  1.1632
 4878TIP3    H214599   2.706   3.874   5.644  0.4932  0.0235  1.4214
 4879TIP3   OH214600   6.963   1.241   0.659  0.6976 -0.0636  0.0372
 4879TIP3    H114601   6.928   1.233   0.570  0.8847  1.1043 -0.1505
 4879TIP3    H214602   6.910   1.180   0.711  1.8630 -2.2785 -1.2049
 4880TIP3   OH214603   4.262   3.119   5.605 -0.2310  0.0509  0.3930
 4880TIP3    H114604   4.187   3.159   5.561  0.5118 -1.5467 -2.6105
 4880TIP3    H214605   4.226   3.081   5.685 -2.4596  0.0620 -0.5328
 4881TIP3   OH214606   6.176   0.904   1.921 -0.0739  0.4202  0.7490
 4881TIP3    H114607   6.150   0.821   1.880  0.5618 -0.1881  1.5572
 4881TIP3    H214608   6.226   0.950   1.853  0.4345 -0.3081  0.6205
 4882TIP3   OH214609   2.628   3.864   1.203 -0.0269 -0.2610 -0.3380
 4882TIP3    H114610   2.575   3.891   1.128  0.6707  0.9176 -0.4401
 4882TIP3    H214611   2.588   3.908   1.278 -0.5096 -1.1532 -0.0567
 4883TIP3   OH214612   0.277   4.619   3.508  0.5199  0.1684  0.0915
 4883TIP3    H114613   0.275   4.657   3.595  1.7272  1.8474 -0.5645
 4883TIP3    H214614   0.364   4.578   3.501  0.2935 -0.2730 -0.1863
 4884TIP3   OH214615   5.229   2.329   4.900 -0.5312 -0.1505 -0.2416
 4884TIP3    H114616   5.266   2.417   4.906 -0.1896 -0.2598 -0.6973
 4884TIP3    H214617   5.139   2.338   4.932  0.4785 -0.2999  3.0428
 4885TIP3   OH214618   0.596   5.383   0.595 -0.3152 -0.4239 -0.0278
 4885TIP3    H114619   0.658   5.456   0.593 -1.0631  0.2767  1.5188
 4885TIP3    H214620   0.642   5.314   0.642  0.1769 -0.7885 -1.0025
 4886TIP3   OH214621   4.114   5.399   1.200 -0.1241  0.5479  0.0497
 4886TIP3    H114622   4.090   5.364   1.286 -1.7134 -0.2621 -0.6856
 4886TIP3    H214623   4.037   5.383   1.145  0.5456  1.8190 -1.3120
 4887TIP3   OH214624   3.582   1.990   4.774 -0.5311  0.1732 -0.2447
 4887TIP3    H114625   3.577   2.083   4.797 -2.8369 -0.0782  0.5329
 4887TIP3    H214626   3.560   1.988   4.681 -0.4576  0.4124 -0.2690
 4888TIP3   OH214627   2.562   2.834   1.115  0.3155  0.1997  0.8433
 4888TIP3    H114628   2.541   2.755   1.065  0.3020 -0.1710  1.4241
 4888TIP3    H214629   2.477   2.870   1.140  0.3344 -0.1557  1.4288
 4889TIP3   OH214630   2.303   4.637   4.556  0.3166  0.1785 -0.3063
 4889TIP3    H114631   2.222   4.653   4.507  0.3836  0.2000 -0.4103
 4889TIP3    H214632   2.326   4.547   4.534  0.6663  0.3798 -0.7828
 4890TIP3   OH214633   3.174   3.720   0.999  0.3561  0.5213  0.0386
 4890TIP3    H114634   3.184   3.685   0.911  1.3337 -0.8457  0.6460
 4890TIP3    H214635   3.079   3.719   1.015  0.3043 -3.2793  0.4813
 4891TIP3   OH214636   3.509   6.140   4.201  0.1166  0.1199 -0.5023
 4891TIP3    H114637   3.536   6.180   4.284 -2.7823  1.2925 -0.0080
 4891TIP3    H214638   3.418   6.112   4.216 -1.0352  1.6688 -3.6751
 4892TIP3   OH214639   0.252   2.458   4.978  0.1221 -0.0349 -0.6196
 4892TIP3    H114640   0.275   2.455   4.885  2.6225 -1.8866 -0.0495
 4892TIP3    H214641   0.246   2.552   4.998 -0.6310  0.4058 -2.6196
 4893TIP3   OH214642   2.089   6.107   3.960  0.3390  0.2485 -0.1074
 4893TIP3    H114643   2.021   6.163   3.922  0.9494  0.6131 -0.6893
 4893TIP3    H214644   2.044   6.025   3.981 -0.2716  0.4765 -0.5002
 4894TIP3   OH214645   0.365   3.193   0.846  0.0104 -0.3650 -0.2514
 4894TIP3    H114646   0.330   3.244   0.773 -1.4743  1.4934  1.6062
 4894TIP3    H214647   0.300   3.124   0.860 -1.4114  1.1765  1.1966
 4895TIP3   OH214648   0.197   3.626   5.598 -0.0262 -0.0165 -0.1258
 4895TIP3    H114649   0.186   3.542   5.552 -1.7823  0.1045  0.0208
 4895TIP3    H214650   0.114   3.671   5.586 -0.0260  0.6471  1.9435
 4896TIP3   OH214651   2.271   4.467   3.683 -0.4301 -0.0370  0.1099
 4896TIP3    H114652   2.258   4.375   3.658 -0.9650 -0.7527  2.7124
 4896TIP3    H214653   2.366   4.475   3.695 -0.4021 -0.3061  0.0882
 4897TIP3   OH214654   1.810   1.382   1.633  0.0481 -0.1824  0.0196
 4897TIP3    H114655   1.803   1.313   1.568 -1.1997  1.3892 -1.6285
 4897TIP3    H214656   1.903   1.390   1.651  0.4938 -0.3075 -2.0264
 4898TIP3   OH214657   4.806   5.418   3.336 -0.2486 -0.3695  0.0057
 4898TIP3    H114658   4.869   5.371   3.389 -0.7422  1.4857  2.4394
 4898TIP3    H214659   4.742   5.352   3.310 -0.3636 -1.3154  2.3937
 4899TIP3   OH214660   0.623   4.705   2.438  0.2175  0.1685 -0.3660
 4899TIP3    H114661   0.709   4.747   2.437  0.8093 -0.9776  0.3298
 4899TIP3    H214662   0.569   4.762   2.493  0.8663  0.2756  0.1715
 4900TIP3   OH214663   5.425   4.027   3.939  0.1284  0.5300  0.4134
 4900TIP3    H114664   5.337   4.066   3.930 -0.4853 -0.8362  0.3234
 4900TIP3    H214665   5.423   3.981   4.022 -0.1359 -1.6584 -0.7363
 4901TIP3   OH214666   4.123   0.617   4.815  0.1244 -0.0654  0.0433
 4901TIP3    H114667   4.185   0.659   4.755 -0.4981  1.0329  0.1422
 4901TIP3    H214668   4.167   0.537   4.843  0.6926 -0.2852 -1.3838
 4902TIP3   OH214669   6.965   4.792   5.892  0.1117  0.0988 -0.4052
 4902TIP3    H114670   6.890   4.840   5.857  0.1331  2.1096  2.0213
 4902TIP3    H214671   7.028   4.860   5.916  0.5581 -1.1533  2.2828
 4903TIP3   OH214672   0.069   3.945   1.759 -0.1883 -0.3401 -0.9866
 4903TIP3    H114673   0.056   4.020   1.701 -0.0655  0.9319  0.5658
 4903TIP3    H214674   0.160   3.954   1.790 -0.8179  0.1181  0.8620
 4904TIP3   OH214675   5.578   0.372   3.012 -0.2314  0.2690  0.2453
 4904TIP3    H114676   5.530   0.292   3.033  0.2677 -0.2433 -0.4793
 4904TIP3    H214677   5.647   0.377   3.078 -0.4816  0.2930  0.5044
 4905TIP3   OH214678   2.481   1.652   3.071 -0.5500 -0.4920  0.1749
 4905TIP3    H114679   2.483   1.575   3.128 -0.0868 -0.0486  0.7790
 4905TIP3    H214680   2.533   1.718   3.118  0.1852 -0.2374 -0.9475
 4906TIP3   OH214681   0.866   5.665   3.701  0.3415 -0.1192 -0.3195
 4906TIP3    H114682   0.930   5.651   3.771 -1.3231 -1.0357  1.0944
 4906TIP3    H214683   0.847   5.578   3.668 -1.7419 -0.1721  0.8023
 4907TIP3   OH214684   3.089   5.989   5.901  0.2182 -0.0416 -0.3178
 4907TIP3    H114685   3.124   6.071   5.936  1.9869 -0.8791 -0.0105
 4907TIP3    H214686   3.048   6.013   5.818 -0.9260  1.4157  0.6192
 4908TIP3   OH214687   5.183   2.177   1.139  0.2888 -0.4230 -0.2840
 4908TIP3    H114688   5.267   2.148   1.105 -0.0372 -1.2810 -0.3969
 4908TIP3    H214689   5.204   2.235   1.212  0.9937  0.8512 -1.4504
 4909TIP3   OH214690   6.378   4.480   2.248  0.6560 -0.0509  0.0984
 4909TIP3    H114691   6.319   4.426   2.302 -0.3366  1.2253  0.3505
 4909TIP3    H214692   6.363   4.570   2.279  0.4326  0.6696 -1.9591
 4910TIP3   OH214693   2.167   3.103   0.632  0.4307  0.1145 -0.4827
 4910TIP3    H114694   2.251   3.104   0.587  0.3365 -0.8782 -0.7071
 4910TIP3    H214695   2.152   3.011   0.653  0.1595  0.4556  0.9969
 4911TIP3   OH214696   4.888   4.326   4.988 -0.1082  0.4891  0.0914
 4911TIP3    H114697   4.924   4.384   4.921 -0.8631  1.4232  0.4737
 4911TIP3    H214698   4.949   4.252   4.991  2.2423  2.3338  1.2254
 4912TIP3   OH214699   6.836   3.997   0.150 -0.6769 -0.6333  0.4290
 4912TIP3    H114700   6.837   3.932   0.220 -3.3699 -1.0259  0.2159
 4912TIP3    H214701   6.924   4.036   0.152 -0.2445 -1.5259  3.1348
 4913TIP3   OH214702   1.574   4.585   3.996 -0.1653 -0.0228 -0.1481
 4913TIP3    H114703   1.581   4.638   4.076  0.8068 -0.6544  0.2130
 4913TIP3    H214704   1.516   4.513   4.020 -0.0283 -0.1052 -0.0560
 4914TIP3   OH214705   6.308   5.614   0.198  0.6991 -0.5162 -0.5842
 4914TIP3    H114706   6.402   5.626   0.188  1.2218 -2.8092  0.8902
 4914TIP3    H214707   6.289   5.642   0.288  0.0242 -0.3662 -0.7669
 4915TIP3   OH214708   5.896   4.371   1.335  0.4818 -0.8388  0.2010
 4915TIP3    H114709   5.876   4.388   1.242 -0.6920  1.5274  0.7933
 4915TIP3    H214710   5.956   4.441   1.360  0.6286 -1.3342  1.2953
 4916TIP3   OH214711   6.205   2.313   2.595 -0.0674 -0.7626  0.1271
 4916TIP3    H114712   6.280   2.299   2.653  0.3405 -0.0682 -0.2181
 4916TIP3    H214713   6.129   2.309   2.652  0.2833 -0.7957  0.5965
 4917TIP3   OH214714   1.776   1.333   1.903  0.1819  0.1733  0.2867
 4917TIP3    H114715   1.802   1.413   1.949 -1.7134  0.3848  1.0500
 4917TIP3    H214716   1.771   1.359   1.811  0.4527  0.6974  0.4133
 4918TIP3   OH214717   0.269   5.955   3.482 -0.5082 -0.2573  0.1193
 4918TIP3    H114718   0.261   6.036   3.533  2.2335  0.8104 -0.9807
 4918TIP3    H214719   0.297   5.889   3.547  0.3763  0.4528  0.4749
 4919TIP3   OH214720   0.659   6.001   5.034 -0.0816 -0.2194 -0.4997
 4919TIP3    H114721   0.685   5.985   5.125 -0.8393  0.4779 -0.1525
 4919TIP3    H214722   0.565   5.982   5.031 -0.2144  0.4755 -0.9623
 4920TIP3   OH214723   4.837   1.583   1.347  0.8399 -0.3822 -0.0571
 4920TIP3    H114724   4.925   1.616   1.329  0.9025 -0.5603 -0.0738
 4920TIP3    H214725   4.817   1.617   1.435  1.2666 -1.0474  0.3055
 4921TIP3   OH214726   2.178   5.874   3.058  0.4159 -0.5179  0.0684
 4921TIP3    H114727   2.187   5.795   3.112  0.0158 -0.7247 -0.1642
 4921TIP3    H214728   2.267   5.891   3.027  0.2636 -1.8501 -1.2401
 4922TIP3   OH214729   2.275   5.678   5.416  0.1344 -0.1530 -0.5664
 4922TIP3    H114730   2.187   5.708   5.441 -1.2056 -0.5033 -4.1820
 4922TIP3    H214731   2.321   5.758   5.391 -0.0011 -0.1673 -0.8719
 4923TIP3   OH214732   6.616   2.187   2.909 -0.3397 -0.3239  0.1738
 4923TIP3    H114733   6.633   2.097   2.882 -0.6829 -0.5325  0.6375
 4923TIP3    H214734   6.674   2.201   2.984 -1.9044 -0.9337  1.5603
 4924TIP3   OH214735   1.456   2.415   4.668 -0.4768 -0.3453 -0.0551
 4924TIP3    H114736   1.547   2.443   4.664 -1.1517  2.1018 -0.3804
 4924TIP3    H214737   1.451   2.359   4.745  0.9033  1.2833  1.3038
 4925TIP3   OH214738   1.985   4.909   0.724  0.6509  0.4252  0.1616
 4925TIP3    H114739   2.058   4.873   0.675  0.4903 -0.8041  0.7844
 4925TIP3    H214740   2.012   4.905   0.815  0.0810  0.6119  0.3460
 4926TIP3   OH214741   2.218   6.191   2.275 -0.2987 -0.0143 -0.2093
 4926TIP3    H114742   2.244   6.124   2.339  1.2603 -1.3902 -2.1537
 4926TIP3    H214743   2.298   6.242   2.261  0.3175 -1.5824 -3.1261
 4927TIP3   OH214744   6.586   4.392   0.657  0.1474  1.2059 -0.2448
 4927TIP3    H114745   6.580   4.372   0.750 -0.2006  0.0333 -0.5015
 4927TIP3    H214746   6.663   4.343   0.627  0.7659  2.2531 -0.4227
 4928TIP3   OH214747   6.685   5.889   0.528 -0.4582  0.3087  0.1268
 4928TIP3    H114748   6.742   5.964   0.544  0.2332 -0.2792  0.4859
 4928TIP3    H214749   6.725   5.843   0.455 -1.0755  0.4619 -0.3230
 4929TIP3   OH214750   7.171   1.107   1.804 -0.1085 -0.4358  0.0670
 4929TIP3    H114751   7.172   1.018   1.840  1.9369 -1.0663 -1.3408
 4929TIP3    H214752   7.128   1.098   1.720 -0.0893 -0.0543  0.0159
 4930TIP3   OH214753   5.822   3.969   1.030  0.0541  0.3440 -0.0577
 4930TIP3    H114754   5.873   4.049   1.016  1.7679 -0.7846 -0.4678
 4930TIP3    H214755   5.758   3.968   0.958 -0.5835  1.7589  0.4499
 4931TIP3   OH214756   3.493   5.477   5.062 -0.2751  0.4124 -0.0958
 4931TIP3    H114757   3.517   5.508   4.975  1.5386 -0.4506  0.0280
 4931TIP3    H214758   3.439   5.546   5.099 -0.0421  1.3504 -1.4426
 4932TIP3   OH214759   6.355   4.217   4.262 -0.0199  0.0199 -0.0301
 4932TIP3    H114760   6.281   4.273   4.288 -0.4660 -0.4856 -0.1978
 4932TIP3    H214761   6.376   4.167   4.340 -0.6042 -0.6618 -0.3049
 4933TIP3   OH214762   3.058   0.357   3.176 -0.2980 -0.0596  0.0769
 4933TIP3    H114763   2.965   0.381   3.182 -0.4152 -0.3321 -0.5320
 4933TIP3    H214764   3.103   0.421   3.230 -0.5026  2.1013 -2.1244
 4934TIP3   OH214765   2.373   2.962   4.050  0.7382  0.5585  0.2855
 4934TIP3    H114766   2.412   2.954   3.962  0.3723 -1.1001  0.2466
 4934TIP3    H214767   2.280   2.950   4.036  0.6238  0.7578  0.8600
 4935TIP3   OH214768   3.404   2.757   3.584  0.9049 -0.1752  0.2288
 4935TIP3    H114769   3.362   2.817   3.645  0.8535 -0.5588  0.5743
 4935TIP3    H214770   3.356   2.770   3.501  0.8708  0.2278  0.3113
 4936TIP3   OH214771   0.834   5.546   1.592  0.2461  0.9069  0.1586
 4936TIP3    H114772   0.873   5.533   1.506 -0.5514  2.2226 -0.4287
 4936TIP3    H214773   0.820   5.640   1.599 -1.1294  0.6796  1.0877
 4937TIP3   OH214774   3.464   0.850   1.525 -0.5963 -0.0587  0.1262
 4937TIP3    H114775   3.410   0.929   1.534 -1.1101 -0.3644 -0.2691
 4937TIP3    H214776   3.428   0.804   1.450 -0.5007 -0.8313  0.5414
 4938TIP3   OH214777   5.785   4.793   5.361  0.1094  0.0379  0.2037
 4938TIP3    H114778   5.755   4.871   5.315  1.1378 -0.1923 -0.8855
 4938TIP3    H214779   5.783   4.818   5.454 -1.2999  0.7377  0.0115
 4939TIP3   OH214780   0.585   4.676   5.449  0.2686  0.6772  0.2151
 4939TIP3    H114781   0.670   4.712   5.474  1.2029 -1.0369 -0.3103
 4939TIP3    H214782   0.560   4.725   5.370  0.9875  0.8792  0.1054
 4940TIP3   OH214783   0.380   4.081   5.145  0.2781  0.1066 -0.0362
 4940TIP3    H114784   0.354   4.173   5.151  0.4963  0.2506 -1.2118
 4940TIP3    H214785   0.472   4.081   5.171  0.3443  0.2562 -0.2672
 4941TIP3   OH214786   4.344   1.439   1.982  0.1390 -0.1176  0.0698
 4941TIP3    H114787   4.281   1.494   2.028  1.6559  0.4782  1.5336
 4941TIP3    H214788   4.361   1.486   1.900 -0.5539  0.2182  0.1058
 4942TIP3   OH214789   3.816   0.735   0.638  0.0464  0.0612 -0.3566
 4942TIP3    H114790   3.832   0.758   0.547 -0.9664  0.1647 -0.5267
 4942TIP3    H214791   3.768   0.652   0.634 -0.6183  0.4108  0.0317
 4943TIP3   OH214792   1.192   3.774   0.835 -0.2180 -0.6813  0.0218
 4943TIP3    H114793   1.102   3.742   0.826 -0.4161 -0.0604 -0.2977
 4943TIP3    H214794   1.182   3.867   0.856  0.3322 -0.9173  1.4786
 4944TIP3   OH214795   1.549   4.044   0.113  0.2747  0.6961  0.2758
 4944TIP3    H114796   1.545   4.112   0.046  0.1178  0.4565  0.0398
 4944TIP3    H214797   1.605   3.976   0.076 -2.0087 -0.7150 -0.8112
 4945TIP3   OH214798   0.038   1.673   4.979  0.3108  0.1788  0.2686
 4945TIP3    H114799   0.101   1.673   5.050  2.2753  0.3040 -1.3698
 4945TIP3    H214800   0.090   1.690   4.900 -1.5167 -1.3093 -1.3949
 4946TIP3   OH214801   5.866   1.774   4.313  0.0054 -0.6620 -0.5236
 4946TIP3    H114802   5.957   1.787   4.284  0.3219 -2.7603 -0.5814
 4946TIP3    H214803   5.845   1.684   4.287 -1.0742 -1.2679  2.1670
 4947TIP3   OH214804   1.449   0.800   5.299  0.0381  0.0097 -0.8584
 4947TIP3    H114805   1.480   0.808   5.389  0.7044  0.1633 -1.0954
 4947TIP3    H214806   1.422   0.889   5.275  0.2972  0.0610 -0.9628
 4948TIP3   OH214807   5.333   2.057   3.290 -0.1339 -0.6491  0.3406
 4948TIP3    H114808   5.281   2.014   3.358 -0.5734 -1.6414 -0.5798
 4948TIP3    H214809   5.313   2.150   3.300 -1.6683 -0.9454  0.4061
 4949TIP3   OH214810   5.853   3.009   0.395  0.1944 -0.1088  0.2139
 4949TIP3    H114811   5.882   3.035   0.308  0.7003 -0.9327  0.1209
 4949TIP3    H214812   5.926   3.033   0.453 -0.0221  0.1798  0.3672
 4950TIP3   OH214813   1.669   6.029   1.385 -0.1746  0.1022 -0.0459
 4950TIP3    H114814   1.623   5.960   1.338 -1.8068  1.0455  0.0929
 4950TIP3    H214815   1.762   6.011   1.369 -0.5280 -2.2491  0.1992
 4951TIP3   OH214816   3.841   4.223   2.964  0.0245 -0.2460 -0.2580
 4951TIP3    H114817   3.746   4.232   2.972 -0.2723 -3.4788  1.4960
 4951TIP3    H214818   3.856   4.216   2.870 -1.1729  1.9491 -0.6940
 4952TIP3   OH214819   0.582   2.296   2.280 -0.1457  0.1875 -0.0044
 4952TIP3    H114820   0.614   2.374   2.326 -2.2352  0.4085  1.2218
 4952TIP3    H214821   0.637   2.289   2.202  2.3439  0.8854  1.5806
 4953TIP3   OH214822   0.300   5.343   2.295 -0.2440  0.0014 -0.1529
 4953TIP3    H114823   0.335   5.259   2.324  0.5147  0.5047  0.4486
 4953TIP3    H214824   0.378   5.398   2.280 -0.6273  2.0591  3.9204
 4954TIP3   OH214825   5.528   5.178   4.160  0.7578  0.6190 -0.3310
 4954TIP3    H114826   5.604   5.136   4.119  1.1357  1.0228 -0.0571
 4954TIP3    H214827   5.457   5.163   4.099  0.4334 -1.9618  0.5578
 4955TIP3   OH214828   4.626   5.045   2.956  0.2828  0.0569 -0.5864
 4955TIP3    H114829   4.532   5.034   2.940  0.3428  0.2531 -1.0990
 4955TIP3    H214830   4.649   5.127   2.912  0.1450  1.5677  1.9655
 4956TIP3   OH214831   0.735   0.570   2.944  0.0101  1.0336  0.5589
 4956TIP3    H114832   0.826   0.553   2.968 -0.6206 -0.4671  2.1097
 4956TIP3    H214833   0.735   0.567   2.848  1.4832  0.3311  0.5498
 4957TIP3   OH214834   4.657   6.578   2.945 -0.0362 -0.4083 -0.0834
 4957TIP3    H114835   4.645   6.485   2.924 -3.0283 -0.2211  0.4003
 4957TIP3    H214836   4.599   6.593   3.020  1.2201  1.6344  0.5630
 4958TIP3   OH214837   1.994   5.958   0.928  0.1540  0.3034  0.4537
 4958TIP3    H114838   1.994   6.040   0.978 -0.3554  1.2029 -0.9422
 4958TIP3    H214839   1.916   5.964   0.873  0.7932 -0.5401 -0.5922
 4959TIP3   OH214840   1.149   1.965   3.330  0.4621 -0.3161 -0.6307
 4959TIP3    H114841   1.057   1.948   3.353 -0.1612  3.2320  0.0028
 4959TIP3    H214842   1.197   1.896   3.376 -1.6440 -0.1784  2.0752
 4960TIP3   OH214843   2.189   4.964   1.475 -0.0394  0.3044  0.2966
 4960TIP3    H114844   2.129   4.904   1.430 -1.6442  1.9741  0.0726
 4960TIP3    H214845   2.271   4.956   1.425 -1.2079  0.7279 -1.8363
 4961TIP3   OH214846   7.161   0.831   3.342 -0.5146 -0.0277  0.2877
 4961TIP3    H114847   7.156   0.845   3.247 -0.7730 -2.0897 -0.0503
 4961TIP3    H214848   7.077   0.864   3.375  0.1502  2.0372  0.0358
 4962TIP3   OH214849   1.886   4.361   1.738  0.1696  0.6758  0.0414
 4962TIP3    H114850   1.900   4.448   1.701  2.0038  0.3873 -0.0021
 4962TIP3    H214851   1.884   4.376   1.832  0.2771  0.7947  0.0261
 4963TIP3   OH214852   6.017   2.875   0.902  0.7220 -0.0934 -0.1674
 4963TIP3    H114853   5.945   2.934   0.878 -0.4075 -1.5272 -0.4211
 4963TIP3    H214854   6.076   2.877   0.827  0.3066  0.1144 -0.4917
 4964TIP3   OH214855   2.793   2.776   5.853  0.1481 -0.1592 -0.3805
 4964TIP3    H114856   2.746   2.799   5.933  0.0642  1.2059 -0.7948
 4964TIP3    H214857   2.861   2.843   5.845 -0.3907  0.2353 -1.8957
 4965TIP3   OH214858   0.883   5.220   5.153  0.1212  0.4682 -0.9281
 4965TIP3    H114859   0.821   5.275   5.202 -1.4276 -0.4547 -1.7711
 4965TIP3    H214860   0.836   5.195   5.074  1.4643 -0.5724 -1.4411
 4966TIP3   OH214861   0.668   1.696   4.224  0.3560  0.0368  0.0584
 4966TIP3    H114862   0.670   1.698   4.320 -1.6777  2.1255  0.1413
 4966TIP3    H214863   0.602   1.630   4.202 -0.3287  0.6729  0.1690
 4967TIP3   OH214864   5.878   3.787   2.273 -0.5541 -0.1330  0.0322
 4967TIP3    H114865   5.892   3.749   2.186 -1.9894  0.9873 -0.7391
 4967TIP3    H214866   5.797   3.746   2.304  0.3505 -1.0960  1.2036
 4968TIP3   OH214867   1.325   3.552   0.945 -0.1929 -0.7169 -0.1690
 4968TIP3    H114868   1.271   3.617   0.901 -0.5620 -0.5782  0.4866
 4968TIP3    H214869   1.373   3.601   1.012 -0.4666 -1.1141  0.3242
 4969TIP3   OH214870   1.563   4.938   2.306 -0.0193  0.1033  0.1180
 4969TIP3    H114871   1.653   4.970   2.295 -0.0730  0.7887  1.4255
 4969TIP3    H214872   1.563   4.851   2.267  1.2995 -0.0190  0.3565
 4970TIP3   OH214873   5.189   0.253   5.172  0.1002 -0.5307  0.1759
 4970TIP3    H114874   5.263   0.313   5.171  0.6586 -1.2090 -0.4037
 4970TIP3    H214875   5.120   0.300   5.219  1.0234 -0.0544  1.0833
 4971TIP3   OH214876   4.006   1.046   4.151  0.8765 -0.2935 -0.3862
 4971TIP3    H114877   4.034   1.118   4.094  0.4175 -1.7465 -2.6040
 4971TIP3    H214878   3.929   1.080   4.197 -0.0277  0.3155 -2.2346
 4972TIP3   OH214879   7.071   0.131   3.283 -0.5035 -0.3492  0.1928
 4972TIP3    H114880   7.037   0.161   3.199  0.0609  0.0242  0.0891
 4972TIP3    H214881   7.109   0.045   3.265 -0.3004 -0.2288  0.0373
 4973TIP3   OH214882   1.244   4.760   3.659  0.0889 -0.5054  0.7981
 4973TIP3    H114883   1.310   4.810   3.611 -0.2923 -0.5602  0.2048
 4973TIP3    H214884   1.286   4.738   3.742 -0.0202  1.5316  1.4437
 4974TIP3   OH214885   5.030   1.515   5.299  0.5114  0.2233 -0.5589
 4974TIP3    H114886   4.940   1.482   5.300  0.2352  0.7684 -2.7081
 4974TIP3    H214887   5.081   1.446   5.343 -0.9452 -0.0164  0.8446
 4975TIP3   OH214888   5.898   2.253   4.892 -0.4227  0.2104  0.4447
 4975TIP3    H114889   5.976   2.308   4.896 -1.3720  1.6343  0.3679
 4975TIP3    H214890   5.930   2.164   4.907  1.4839  0.4535 -1.7235
 4976TIP3   OH214891   3.476   1.038   5.225 -0.3727  0.1031 -0.4230
 4976TIP3    H114892   3.524   1.025   5.143  0.5302  2.1653 -0.2593
 4976TIP3    H214893   3.397   1.085   5.199  0.0538  1.0181 -0.0813
 4977TIP3   OH214894   4.340   1.828   5.533 -0.0347  0.0668 -0.3697
 4977TIP3    H114895   4.342   1.913   5.489  1.8862  0.2267 -0.0621
 4977TIP3    H214896   4.340   1.764   5.462 -0.6373  0.3132 -0.5984
 4978TIP3   OH214897   3.244   3.103   1.058 -0.0810 -0.0905 -0.1760
 4978TIP3    H114898   3.206   3.149   0.983  0.1129  0.7437  0.2316
 4978TIP3    H214899   3.169   3.057   1.097 -0.8091  1.8191  0.8266
 4979TIP3   OH214900   2.256   3.236   2.620 -0.6347 -0.3137 -0.5125
 4979TIP3    H114901   2.231   3.321   2.584 -1.0329  0.0756  0.6269
 4979TIP3    H214902   2.270   3.253   2.713  0.0749 -1.3412 -0.4145
 4980TIP3   OH214903   2.119   1.618   5.661  0.2195  0.0784 -0.7539
 4980TIP3    H114904   2.053   1.589   5.724 -0.1952 -1.2726 -1.7542
 4980TIP3    H214905   2.150   1.537   5.621  1.7469  0.7833 -1.0441
 4981TIP3   OH214906   0.122   5.677   2.290 -0.0738 -0.0065  0.5952
 4981TIP3    H114907   0.087   5.647   2.374 -0.2656  0.8729  0.8352
 4981TIP3    H214908   0.202   5.724   2.313  0.0990 -0.1266  0.2443
 4982TIP3   OH214909   0.756   6.624   1.453  0.0354  0.5876  0.2358
 4982TIP3    H114910   0.666   6.592   1.444  0.6182 -1.0516 -0.1847
 4982TIP3    H214911   0.774   6.616   1.546  0.3143 -0.8401  0.0897
 4983TIP3   OH214912   4.192   5.913   1.979  0.1278 -0.3165  0.0767
 4983TIP3    H114913   4.185   5.989   1.920  0.4877 -1.9833 -2.2523
 4983TIP3    H214914   4.103   5.879   1.984  0.3700 -1.1350 -0.9026
 4984TIP3   OH214915   6.464   4.147   5.790 -0.3129  0.0988 -0.0137
 4984TIP3    H114916   6.446   4.072   5.733  0.1605 -0.1824  0.2030
 4984TIP3    H214917   6.505   4.212   5.733  0.8189 -0.4543  0.1427
 4985TIP3   OH214918   0.227   3.633   1.687 -0.2605  0.1082 -0.1961
 4985TIP3    H114919   0.186   3.611   1.771 -0.9563 -1.5506 -0.9245
 4985TIP3    H214920   0.161   3.608   1.622  0.6772  0.3910 -1.2666
 4986TIP3   OH214921   0.464   2.435   1.875  0.4057  0.4576 -0.3132
 4986TIP3    H114922   0.379   2.426   1.831  0.4454  2.9971 -1.0672
 4986TIP3    H214923   0.527   2.444   1.804  1.0033  0.7524  0.2434
 4987TIP3   OH214924   0.312   4.276   5.565 -0.0893 -0.0788  0.3086
 4987TIP3    H114925   0.393   4.226   5.574  0.4400  0.4901 -0.9750
 4987TIP3    H214926   0.257   4.223   5.506  0.6423  0.9845 -1.4028
 4988TIP3   OH214927   2.801   2.025   2.295  0.7767  0.0209 -0.1143
 4988TIP3    H114928   2.757   2.108   2.316  0.7188 -0.4755  1.8507
 4988TIP3    H214929   2.792   2.017   2.200  1.6590  2.7684 -0.5341
 4989TIP3   OH214930   4.724   3.994   2.952  0.8714 -0.3141  0.2506
 4989TIP3    H114931   4.721   4.088   2.934  2.5509 -0.5304 -1.4701
 4989TIP3    H214932   4.639   3.961   2.924  0.8671  0.4649 -0.7045
 4990TIP3   OH214933   6.452   0.066   4.773 -0.2391 -0.1547 -0.2728
 4990TIP3    H114934   6.386   0.078   4.705 -0.0757  0.0991 -0.3861
 4990TIP3    H214935   6.483  -0.024   4.760  0.3744  0.1657 -1.0503
 4991TIP3   OH214936   2.358   1.836   3.311  0.2801 -0.5330 -0.2731
 4991TIP3    H114937   2.448   1.833   3.277 -0.7928 -1.1310 -3.4170
 4991TIP3    H214938   2.325   1.921   3.281  0.5214  0.9922  3.2941
 4992TIP3   OH214939   2.336   3.653   5.260 -0.4266  0.2529 -0.1997
 4992TIP3    H114940   2.400   3.686   5.323 -0.1707 -1.2121  0.3405
 4992TIP3    H214941   2.386   3.591   5.206 -1.3064 -0.6888  0.0464
 4993TIP3   OH214942   3.889   4.135   2.687 -0.5277  0.1304  0.1522
 4993TIP3    H114943   3.934   4.134   2.603 -1.7147 -0.7174 -0.5131
 4993TIP3    H214944   3.796   4.128   2.664 -0.8532 -0.4354  1.5345
 4994TIP3   OH214945   3.610   4.148   4.331 -0.0641 -0.0175 -0.3076
 4994TIP3    H114946   3.642   4.147   4.421 -2.0901  0.4698  0.4602
 4994TIP3    H214947   3.546   4.218   4.329 -1.0938 -0.9447 -1.7526
 4995TIP3   OH214948   5.291   1.036   1.063  0.4772  0.3656  0.4453
 4995TIP3    H114949   5.270   1.065   1.152  0.5547 -1.8621  1.2326
 4995TIP3    H214950   5.236   0.960   1.049  2.3403 -0.8936 -0.4217
 4996TIP3   OH214951   3.361   1.914   5.143 -0.1071  0.1548  0.0365
 4996TIP3    H114952   3.353   2.003   5.178  0.9832  0.2429  0.0956
 4996TIP3    H214953   3.455   1.901   5.132 -0.2060 -1.2619  0.6995
 4997TIP3   OH214954   1.347   6.029   5.725 -0.0344  0.1112 -0.2108
 4997TIP3    H114955   1.389   6.066   5.647 -1.2263  1.5905 -0.1863
 4997TIP3    H214956   1.254   6.046   5.713 -0.2514  0.3334  1.5277
 4998TIP3   OH214957   0.720   6.219   4.054 -0.2430  0.0687 -0.1320
 4998TIP3    H114958   0.722   6.149   3.989  0.7178  0.1185 -0.1721
 4998TIP3    H214959   0.750   6.177   4.135  0.7711  0.5280 -0.2618
 4999TIP3   OH214960   6.306   2.716   2.346  0.5542 -0.1302  0.1020
 4999TIP3    H114961   6.242   2.717   2.417 -0.1002 -0.0624 -0.4774
 4999TIP3    H214962   6.354   2.634   2.357 -1.8533 -1.8530 -1.3923
 5000TIP3   OH214963   4.989   5.624   3.877 -0.2889 -0.1338  0.5581
 5000TIP3    H114964   4.926   5.590   3.941  1.5991 -1.4940  1.8058
 5000TIP3    H214965   5.000   5.716   3.902 -0.7765 -0.2328  1.1677
 5001TIP3   OH214966   3.036   4.096   3.265 -0.1112 -0.4618 -0.1952
 5001TIP3    H114967   3.117   4.129   3.303  1.1474 -1.9579 -1.4541
 5001TIP3    H214968   2.971   4.162   3.287  1.7021  1.4559 -0.3020
 5002TIP3   OH214969   5.676   4.935   5.592 -0.1723  0.0892 -0.0365
 5002TIP3    H114970   5.675   5.029   5.571  0.6893 -0.2142 -1.5730
 5002TIP3    H214971   5.659   4.932   5.686  1.9114  1.9234  0.5006
 5003TIP3   OH214972   5.769   3.997   1.332 -0.1952 -0.1258 -0.0173
 5003TIP3    H114973   5.861   4.023   1.337  0.1908 -1.6352  1.3970
 5003TIP3    H214974   5.751   3.990   1.238  1.0211  0.5267 -0.3161
 5004TIP3   OH214975   2.649   5.901   3.649  0.1605  0.5240 -0.1584
 5004TIP3    H114976   2.741   5.929   3.650  0.1123  0.6935  1.0868
 5004TIP3    H214977   2.604   5.969   3.599  0.8032  0.0946 -1.3501
 5005TIP3   OH214978   4.408   2.567   2.729  0.0203  0.3094  0.2102
 5005TIP3    H114979   4.494   2.551   2.766  1.0428  1.2076 -1.6240
 5005TIP3    H214980   4.395   2.661   2.738 -1.5725 -0.0163  1.9987
 5006TIP3   OH214981   3.634   4.948   3.154 -0.4880  0.0662 -0.0303
 5006TIP3    H114982   3.609   4.877   3.213 -0.5775 -1.4775 -1.8357
 5006TIP3    H214983   3.730   4.948   3.157 -0.4965  0.7618  0.9262
 5007TIP3   OH214984   3.268   3.953   0.125  0.1188  0.0084 -0.8630
 5007TIP3    H114985   3.312   3.868   0.131 -0.3459 -0.3337 -2.0182
 5007TIP3    H214986   3.329   4.009   0.077  1.1448  0.8666  1.2935
 5008TIP3   OH214987   2.106   2.008   3.270  0.5991 -0.1817  0.2004
 5008TIP3    H114988   2.054   2.087   3.284  0.7738  0.0503 -0.4456
 5008TIP3    H214989   2.065   1.942   3.326 -1.8709 -0.6880 -2.0389
 5009TIP3   OH214990   5.251   3.232   1.500 -0.0032 -0.0304 -0.0545
 5009TIP3    H114991   5.258   3.142   1.469 -0.4562 -0.5508  1.2694
 5009TIP3    H214992   5.209   3.225   1.586  1.5049  1.2731  0.8715
 5010TIP3   OH214993   1.746   2.720   4.868  0.6770 -0.2690 -0.0794
 5010TIP3    H114994   1.746   2.661   4.792  0.4747  1.4546 -1.4810
 5010TIP3    H214995   1.733   2.662   4.943  2.9324 -2.2853 -1.1108
 5011TIP3   OH214996   6.098   2.061   4.903 -0.1050  0.5290 -0.0162
 5011TIP3    H114997   6.161   2.131   4.886 -1.3060  1.7318  0.1960
 5011TIP3    H214998   6.141   1.981   4.873  1.6488  1.2379  0.5104
 5012TIP3   OH214999   4.845   3.499   5.858  0.3486 -0.1446 -0.2035
 5012TIP3    H115000   4.891   3.425   5.818  1.9983 -0.4400  2.0857
 5012TIP3    H215001   4.769   3.459   5.900  0.0014 -0.1912 -0.8622
 5013TIP3   OH215002   5.164   1.930   0.958  0.3084  0.5762  0.2376
 5013TIP3    H115003   5.209   1.948   1.041 -2.2075 -0.1555  1.8965
 5013TIP3    H215004   5.181   1.837   0.942 -0.5679  0.2842  0.8963
 5014TIP3   OH215005   3.844   4.924   3.506  0.2002 -0.0201 -0.7569
 5014TIP3    H115006   3.773   4.982   3.531 -1.1862 -0.8585 -2.5000
 5014TIP3    H215007   3.821   4.840   3.545 -0.5548 -0.6361 -2.4016
 5015TIP3   OH215008   3.286   3.089   1.903 -0.1468  0.0155  0.7203
 5015TIP3    H115009   3.312   3.167   1.952  3.3760 -2.1138  2.6384
 5015TIP3    H215010   3.349   3.082   1.832 -0.6677 -0.8806  0.3203
 5016TIP3   OH215011   5.512   5.052   4.430  0.4909  0.1840 -0.3359
 5016TIP3    H115012   5.475   5.101   4.357 -1.5370  1.8398  1.6845
 5016TIP3    H215013   5.439   5.038   4.490  2.4691  1.0023  2.5017
 5017TIP3   OH215014   0.651   5.633   4.137 -0.1369  0.4164 -0.2339
 5017TIP3    H115015   0.610   5.562   4.087 -0.4445  0.1744  0.3516
 5017TIP3    H215016   0.744   5.611   4.137 -0.2086  0.1019 -0.2047
 5018TIP3   OH215017   1.861   5.971   2.923  0.3594 -0.3388  0.1234
 5018TIP3    H115018   1.790   5.909   2.907 -1.2011  1.0348  1.4433
 5018TIP3    H215019   1.860   6.029   2.847  2.2029 -2.1521 -1.4064
 5019TIP3   OH215020   1.643   3.965   3.199 -0.1115  0.1335 -0.5728
 5019TIP3    H115021   1.602   3.962   3.113 -0.0857 -0.6928 -0.5571
 5019TIP3    H215022   1.638   3.876   3.232 -0.2073  0.4597  0.3241
 5020TIP3   OH215023   0.631   1.228   0.261 -1.1443 -0.0909 -0.2090
 5020TIP3    H115024   0.699   1.162   0.275 -0.2270  0.7292 -0.6656
 5020TIP3    H215025   0.655   1.300   0.319 -0.8041  0.7885 -1.3975
 5021TIP3   OH215026   4.927   2.975   2.970 -0.2025  0.1039 -0.5527
 5021TIP3    H115027   4.988   3.045   2.993 -1.1571  0.9711 -0.5951
 5021TIP3    H215028   4.893   2.945   3.054  0.9353 -1.0168 -0.4603
 5022TIP3   OH215029   5.052   2.172   4.560 -0.1859 -0.6477 -0.3269
 5022TIP3    H115030   5.097   2.124   4.490  3.6928  2.0766 -0.0557
 5022TIP3    H215031   5.070   2.122   4.639 -0.9180 -1.5105 -0.6864
 5023TIP3   OH215032   0.303   3.927   5.719  0.0330  0.4557  0.1502
 5023TIP3    H115033   0.213   3.936   5.686  0.1641  1.4477  0.0265
 5023TIP3    H215034   0.342   3.859   5.664 -0.4884  0.3743 -0.1287
 5024TIP3   OH215035   4.137   5.232   0.038  0.1052  0.3578 -0.2608
 5024TIP3    H115036   4.148   5.164  -0.029 -0.3779  0.7853 -0.7878
 5024TIP3    H215037   4.052   5.271   0.018 -0.8059 -0.5697  1.5982
 5025TIP3   OH215038   0.808   4.908   2.206  0.2431 -0.1218  0.3603
 5025TIP3    H115039   0.793   4.934   2.296 -1.6958 -1.1536  0.3907
 5025TIP3    H215040   0.892   4.861   2.208 -0.4562 -1.4033  1.9323
 5026TIP3   OH215041   4.198   5.073   3.131  0.5654 -0.1059 -0.1532
 5026TIP3    H115042   4.161   5.013   3.195  1.5311 -1.0483 -0.4468
 5026TIP3    H215043   4.258   5.128   3.181 -0.6607  0.9752  0.2007
 5027TIP3   OH215044   5.150   0.534   5.077  0.2953  0.2750 -0.1931
 5027TIP3    H115045   5.148   0.530   4.981 -0.7218  1.1387 -0.2254
 5027TIP3    H215046   5.088   0.468   5.106 -1.0261  1.4654 -0.2080
 5028TIP3   OH215047   5.617   0.778   5.180 -0.0469  0.2058  0.3564
 5028TIP3    H115048   5.533   0.743   5.210 -1.3262  2.3579 -0.4942
 5028TIP3    H215049   5.675   0.767   5.255 -0.3272 -3.3888  0.2632
 5029TIP3   OH215050   3.573   4.186   5.134  0.0954  0.0125  0.0439
 5029TIP3    H115051   3.556   4.181   5.228  0.5412  5.8758  0.8058
 5029TIP3    H215052   3.491   4.218   5.096  0.9385  1.1166 -0.9320
 5030TIP3   OH215053   4.805   6.373   3.597  0.1565  0.1506 -0.4554
 5030TIP3    H115054   4.786   6.335   3.512  0.3003 -0.4191 -0.2384
 5030TIP3    H215055   4.729   6.427   3.617 -1.2313 -1.9732  0.3403
 5031TIP3   OH215056   1.239   0.742   4.059 -0.1334  0.0150  0.0757
 5031TIP3    H115057   1.332   0.753   4.080 -0.2190 -0.1194  0.5399
 5031TIP3    H215058   1.227   0.789   3.977 -0.1354  2.0603  1.1672
 5032TIP3   OH215059   5.233   3.547   4.254 -0.4225 -0.4706  0.3414
 5032TIP3    H115060   5.201   3.536   4.165 -0.3592 -0.8081  0.3565
 5032TIP3    H215061   5.244   3.641   4.265 -0.9264 -0.3903  0.1703
 5033TIP3   OH215062   5.639   3.428   5.550  0.4018  0.2013  0.0078
 5033TIP3    H115063   5.546   3.422   5.572  0.6553 -0.0077  1.0616
 5033TIP3    H215064   5.669   3.507   5.595  0.3027  1.4580 -1.9968
 5034TIP3   OH215065   5.759   0.468   5.395  0.3267 -0.4991 -0.2515
 5034TIP3    H115066   5.748   0.500   5.485  1.3963  0.7851 -0.5407
 5034TIP3    H215067   5.790   0.378   5.405 -0.1242 -0.5667  0.6505
 5035TIP3   OH215068   0.985   5.168   0.724  0.3350 -0.2754  0.3252
 5035TIP3    H115069   0.941   5.246   0.691  0.7828  0.0090  0.3941
 5035TIP3    H215070   0.983   5.179   0.820  0.7576 -0.1450  0.3220
 5036TIP3   OH215071   5.450   5.050   2.261 -0.2793 -0.1620 -0.2123
 5036TIP3    H115072   5.532   5.002   2.253  0.0908  0.7636 -2.8264
 5036TIP3    H215073   5.471   5.140   2.238 -2.1699 -0.1171 -2.1675
 5037TIP3   OH215074   5.366   2.693   0.680  0.4704  0.1797 -0.4311
 5037TIP3    H115075   5.411   2.685   0.764  1.6817  0.5591 -1.0163
 5037TIP3    H215076   5.396   2.616   0.630 -0.1611  0.0107 -0.5538
 5038TIP3   OH215077   6.585   2.701   4.376  0.2040 -0.3137  0.2094
 5038TIP3    H115078   6.574   2.666   4.287  0.2476  1.2927 -0.4628
 5038TIP3    H215079   6.601   2.624   4.430 -0.6490 -1.4167 -1.0380
 5039TIP3   OH215080   4.709   6.815   3.616 -0.0019 -0.3521 -0.4494
 5039TIP3    H115081   4.625   6.770   3.605  0.5469 -1.2088 -1.3035
 5039TIP3    H215082   4.753   6.806   3.531  2.2403 -2.5979  0.8112
 5040TIP3   OH215083   1.890   3.734   0.442  0.2308 -0.1913  0.1654
 5040TIP3    H115084   1.867   3.662   0.383 -1.3457  0.4741 -0.0799
 5040TIP3    H215085   1.873   3.699   0.530  3.1454 -1.3883  0.3622
 5041TIP3   OH215086   5.406   0.403   5.142 -0.1976 -0.0534  0.7970
 5041TIP3    H115087   5.428   0.493   5.169 -2.3568  1.1445 -1.0025
 5041TIP3    H215088   5.489   0.365   5.115  1.2334  0.4105  4.0067
 5042TIP3   OH215089   1.537   1.400   0.338 -0.1508  0.0476  0.0648
 5042TIP3    H115090   1.559   1.482   0.294  1.9214 -1.0880 -1.1356
 5042TIP3    H215091   1.462   1.366   0.289  1.0335 -0.3404 -1.5338
 5043TIP3   OH215092   0.477   2.774   1.848 -0.1103 -0.4790  0.2762
 5043TIP3    H115093   0.398   2.721   1.847  0.3892 -1.2408 -0.4860
 5043TIP3    H215094   0.549   2.710   1.845  0.5902  0.1285  2.1849
 5044TIP3   OH215095   6.826   0.160   3.450 -0.3605 -0.1312 -0.0470
 5044TIP3    H115096   6.862   0.221   3.515 -2.0569 -0.0464  0.8745
 5044TIP3    H215097   6.902   0.130   3.401  0.8041  0.9299  1.0210
 5045TIP3   OH215098   1.703   6.529   3.113  0.2910 -0.2934 -0.7993
 5045TIP3    H115099   1.744   6.445   3.091  0.1174 -0.6813  0.3089
 5045TIP3    H215100   1.609   6.510   3.112 -0.0000  0.6712 -3.6841
 5046TIP3   OH215101   2.206   0.799   5.288  0.4259 -0.3622  0.2944
 5046TIP3    H115102   2.177   0.714   5.255  1.2519 -0.5163 -0.0566
 5046TIP3    H215103   2.290   0.781   5.331 -0.6887 -0.2091  2.7041
 5047TIP3   OH215104   6.840   3.229   4.738 -0.4912 -0.6027  0.9200
 5047TIP3    H115105   6.910   3.196   4.794 -0.7192 -1.9357  0.4436
 5047TIP3    H215106   6.783   3.278   4.797  1.0472  0.9215  1.2447
 5048TIP3   OH215107   0.437   5.549   0.725  0.1037 -0.3844 -0.2177
 5048TIP3    H115108   0.495   5.486   0.683  1.4378  0.2520  0.6055
 5048TIP3    H215109   0.353   5.537   0.681  1.0902 -0.6368 -2.1529
 5049TIP3   OH215110   6.678   6.019   1.325  0.5992  0.1276  0.0743
 5049TIP3    H115111   6.684   5.956   1.254 -0.3637  0.8860 -0.7142
 5049TIP3    H215112   6.715   6.099   1.289  0.5383  0.3890  0.5833
 5050TIP3   OH215113   4.264   5.430   2.251 -0.6423  0.5593 -0.1198
 5050TIP3    H115114   4.217   5.439   2.334 -1.0973 -0.6520 -0.2290
 5050TIP3    H215115   4.306   5.344   2.256 -1.1426  0.2172 -1.3707
 5051TIP3   OH215116   2.436   5.400   5.177  0.0660  0.5009  0.1120
 5051TIP3    H115117   2.410   5.492   5.173  1.6297  1.0389  1.1806
 5051TIP3    H215118   2.518   5.396   5.128 -0.3359 -0.4723 -0.4967
 5052TIP3   OH215119   0.663   2.296   2.013 -0.0455 -0.1226 -0.1948
 5052TIP3    H115120   0.584   2.348   2.003 -1.2747 -2.1509 -1.8088
 5052TIP3    H215121   0.641   2.211   1.976  2.4125 -1.2681  0.7325
 5053TIP3   OH215122   3.006   1.362   5.777  0.1852  0.5123  0.3283
 5053TIP3    H115123   3.056   1.353   5.696  0.8447 -1.7289  0.9113
 5053TIP3    H215124   2.924   1.404   5.750 -0.1834 -1.3727 -1.7704
 5054TIP3   OH215125   2.597   5.329   3.874 -0.3560 -0.1748  0.1004
 5054TIP3    H115126   2.653   5.256   3.849 -1.0173 -1.1267  1.2518
 5054TIP3    H215127   2.554   5.356   3.793  0.6967 -0.3488 -0.5320
 5055TIP3   OH215128   0.219   0.681   5.581 -0.3655 -0.3665 -0.5258
 5055TIP3    H115129   0.288   0.704   5.644  0.0438  0.1049 -1.1366
 5055TIP3    H215130   0.210   0.759   5.526  0.1672 -1.2057 -1.8489
 5056TIP3   OH215131   1.332   5.601   2.570 -0.6519  0.0113  0.6878
 5056TIP3    H115132   1.273   5.528   2.553 -2.2653  1.4975 -0.5569
 5056TIP3    H215133   1.284   5.657   2.632 -0.3778  1.0227  0.0214
 5057TIP3   OH215134   3.358   2.838   5.066  0.5035  0.4501  0.4672
 5057TIP3    H115135   3.315   2.851   4.982  0.5303 -1.6076  0.0748
 5057TIP3    H215136   3.425   2.906   5.069 -1.0430  2.0817 -0.0624
 5058TIP3   OH215137   5.081   1.627   0.597  0.0654  0.0047  0.0017
 5058TIP3    H115138   5.035   1.707   0.573  0.1666  0.1312  0.2255
 5058TIP3    H215139   5.048   1.606   0.684  1.0527  0.5757  0.5346
 5059TIP3   OH215140   5.011   1.635   2.921  0.1925  0.1596  0.2850
 5059TIP3    H115141   5.071   1.670   2.988  0.3223  0.3432  0.0771
 5059TIP3    H215142   5.027   1.541   2.920 -1.2910 -0.1508  1.9741
 5060TIP3   OH215143   4.157   6.740   3.737  0.2400  0.2244  0.2112
 5060TIP3    H115144   4.136   6.818   3.686  1.1265  0.9424  0.9123
 5060TIP3    H215145   4.147   6.767   3.828  0.5192 -0.4865  0.4604
 5061TIP3   OH215146   0.323   3.508   0.254  0.0577  0.3880 -0.0494
 5061TIP3    H115147   0.380   3.449   0.302 -0.5663  0.7087  1.1341
 5061TIP3    H215148   0.374   3.534   0.177  0.3186 -1.6973 -0.6247
 5062TIP3   OH215149   2.866   2.925   0.541  0.4154  0.0404  0.4445
 5062TIP3    H115150   2.906   2.964   0.619  0.5483 -0.0027  0.3984
 5062TIP3    H215151   2.821   2.998   0.498  0.9563  0.2260  0.1705
 5063TIP3   OH215152   1.818   1.810   5.427  0.2535 -0.3833  0.1243
 5063TIP3    H115153   1.885   1.819   5.495  0.3418  0.3418 -0.0554
 5063TIP3    H215154   1.749   1.871   5.453  0.1310 -0.3593 -0.2520
 5064TIP3   OH215155   7.018   4.953   1.911  0.0222 -0.0310  0.3787
 5064TIP3    H115156   6.948   4.892   1.886  0.1366  0.8470 -2.4053
 5064TIP3    H215157   6.990   5.037   1.873  1.2680  0.9886  1.6355
 5065TIP3   OH215158   2.189   0.035   0.074  0.0224  0.2355  0.3747
 5065TIP3    H115159   2.174   0.019   0.167  1.1524 -1.2735  0.3467
 5065TIP3    H215160   2.102   0.029   0.034 -0.1730 -2.2093  0.9600
 5066TIP3   OH215161   2.037   3.635   4.153 -0.5733 -0.5649  0.2532
 5066TIP3    H115162   2.071   3.661   4.239  0.4874 -1.9776  0.3011
 5066TIP3    H215163   1.984   3.557   4.171 -0.1492 -1.0119 -0.4003
 5067TIP3   OH215164   2.524   2.538   1.096  0.0332  0.1201  0.2770
 5067TIP3    H115165   2.557   2.510   1.011 -0.6498  0.8921 -0.2635
 5067TIP3    H215166   2.551   2.469   1.156 -2.2319 -2.1211 -1.0771
 5068TIP3   OH215167   3.126   5.577   0.863  0.2987 -0.2492  0.4927
 5068TIP3    H115168   3.114   5.507   0.800 -0.3312  0.4251 -0.1625
 5068TIP3    H215169   3.221   5.589   0.868  0.3672  1.2274 -2.1464
 5069TIP3   OH215170   6.314   4.911   1.937 -0.1855  0.0132 -0.0464
 5069TIP3    H115171   6.357   4.825   1.936 -1.8022 -0.8473 -1.0739
 5069TIP3    H215172   6.224   4.891   1.963 -0.7930  1.2805 -1.0767
 5070TIP3   OH215173   5.997   5.972   0.843 -0.1481  0.0267 -0.5401
 5070TIP3    H115174   6.081   6.015   0.857 -0.3037  0.1111  0.1620
 5070TIP3    H215175   5.945   5.995   0.920 -0.7314 -0.2224 -0.8544
 5071TIP3   OH215176   3.598   6.043   5.094  0.0920 -0.0821 -0.0699
 5071TIP3    H115177   3.526   6.072   5.038 -0.8390 -0.7868  0.7192
 5071TIP3    H215178   3.564   6.052   5.183  0.3538 -1.9803  0.2698
 5072TIP3   OH215179   1.656   3.030   3.610 -0.1857 -0.0948  0.1012
 5072TIP3    H115180   1.681   2.938   3.603 -0.1120 -0.2084  1.6521
 5072TIP3    H215181   1.562   3.029   3.628 -0.2219  0.1465 -0.0594
 5073TIP3   OH215182   0.517   3.387   1.159 -0.1154 -0.3291 -0.0062
 5073TIP3    H115183   0.425   3.358   1.160 -0.5085  0.7950 -0.8355
 5073TIP3    H215184   0.548   3.366   1.071 -0.3869  1.5554 -0.6078
 5074TIP3   OH215185   4.533   0.941   4.768 -0.6457  0.3212  0.1518
 5074TIP3    H115186   4.446   0.963   4.800 -0.3708  1.7605 -0.0072
 5074TIP3    H215187   4.558   1.015   4.713  0.5898 -0.1637  0.0187
 5075TIP3   OH215188   5.952   0.202   1.163 -0.3758  0.2225 -0.1248
 5075TIP3    H115189   5.871   0.202   1.213 -1.2210  1.2368 -1.4368
 5075TIP3    H215190   5.949   0.121   1.113  0.3789 -0.6985  1.2426
 5076TIP3   OH215191   5.375   3.937   0.015 -0.0988  0.3263 -0.5275
 5076TIP3    H115192   5.449   3.886  -0.018  0.7354  0.6699  0.7575
 5076TIP3    H215193   5.314   3.873   0.050  0.9789  0.1777  1.1542
 5077TIP3   OH215194   6.722   5.333   5.628  0.2625 -0.5171 -0.0183
 5077TIP3    H115195   6.804   5.286   5.613  1.2148  0.5422  1.5904
 5077TIP3    H215196   6.747   5.425   5.631 -0.9178 -0.2054  0.9562
 5078TIP3   OH215197   3.850   1.374   2.215  0.3388  0.3383  0.1017
 5078TIP3    H115198   3.831   1.280   2.209  0.9443  0.1024  1.4504
 5078TIP3    H215199   3.768   1.413   2.245 -0.4111  0.5002 -2.0118
 5079TIP3   OH215200   3.423   4.864   3.399  0.2661  0.7769  0.0338
 5079TIP3    H115201   3.364   4.866   3.323  1.5076  4.1303 -1.0318
 5079TIP3    H215202   3.497   4.810   3.370 -0.0302  0.6285 -0.4739
 5080TIP3   OH215203   1.362   1.204   4.241 -0.2674 -0.0659  0.4285
 5080TIP3    H115204   1.370   1.298   4.222 -3.5362  0.0179 -1.2855
 5080TIP3    H215205   1.306   1.171   4.171  0.4383 -3.2579  1.2448
 5081TIP3   OH215206   1.313   3.818   3.243 -0.0006 -0.1034 -0.0963
 5081TIP3    H115207   1.330   3.863   3.326  0.3670 -0.4430  0.0202
 5081TIP3    H215208   1.390   3.762   3.230 -1.2866 -2.2139  0.7858
 5082TIP3   OH215209   1.620   6.561   0.201  0.2401 -0.1801 -0.2203
 5082TIP3    H115210   1.593   6.477   0.162  0.2627 -0.6165  0.6762
 5082TIP3    H215211   1.707   6.542   0.238  1.6243  1.0507 -2.6001
 5083TIP3   OH215212   4.985   1.927   5.786  0.0383 -0.4729  0.5814
 5083TIP3    H115213   5.067   1.946   5.738  0.3116 -1.7927  0.4852
 5083TIP3    H215214   4.971   2.004   5.841  1.2704 -0.1598  0.4877
 5084TIP3   OH215215   4.444   1.359   3.051 -0.7748  0.1945  0.3784
 5084TIP3    H115216   4.456   1.267   3.075  2.2213  0.8992  2.1216
 5084TIP3    H215217   4.510   1.374   2.983  0.2510  1.5021  1.6144
 5085TIP3   OH215218   6.102   0.500   2.590  0.0066  0.3697 -0.0546
 5085TIP3    H115219   6.028   0.558   2.606 -0.0086  0.5073 -0.5901
 5085TIP3    H215220   6.179   0.553   2.609  0.0147  0.7999 -1.1988
 5086TIP3   OH215221   5.675   0.734   0.437 -0.2952  0.1667 -0.4625
 5086TIP3    H115222   5.705   0.824   0.445 -0.5380  0.1351  1.1564
 5086TIP3    H215223   5.745   0.689   0.388 -0.2694  1.2431 -1.4543
 5087TIP3   OH215224   6.054   6.745   2.523 -0.2591  0.0712  0.0440
 5087TIP3    H115225   6.099   6.828   2.504 -2.0507  0.7192 -1.5651
 5087TIP3    H215226   6.022   6.714   2.439 -1.3970 -1.2304  0.9072
 5088TIP3   OH215227   1.755   6.000   5.364 -0.0041  0.0394  0.7731
 5088TIP3    H115228   1.815   5.925   5.375 -1.0813 -1.0648 -0.4778
 5088TIP3    H215229   1.813   6.072   5.338  0.9927 -0.5172  1.3539
 5089TIP3   OH215230   4.744   0.167   5.358 -0.1913  0.0789  0.2025
 5089TIP3    H115231   4.742   0.144   5.451 -0.6909  2.6851  0.9229
 5089TIP3    H215232   4.681   0.238   5.350  0.4942  0.5122 -1.9778
 5090TIP3   OH215233   2.347   6.469   2.995 -0.7123 -0.0519 -0.0054
 5090TIP3    H115234   2.347   6.523   2.916  0.2281  0.6876  0.4739
 5090TIP3    H215235   2.405   6.395   2.974  1.1627  1.1684  0.6167
 5091TIP3   OH215236   5.649   1.881   4.193 -0.2038  0.1570 -0.2277
 5091TIP3    H115237   5.732   1.865   4.239  0.8751 -0.2704 -2.1729
 5091TIP3    H215238   5.642   1.808   4.131 -2.1836  0.0618  0.0566
 5092TIP3   OH215239   6.103   2.422   4.879  0.1275  0.2271 -0.3042
 5092TIP3    H115240   6.079   2.505   4.922 -2.0337 -0.1083 -0.7399
 5092TIP3    H215241   6.196   2.412   4.897  0.1668  2.1164  0.8518
 5093TIP3   OH215242   3.180   6.686   3.996 -0.2267  0.5572 -0.2103
 5093TIP3    H115243   3.087   6.665   4.002 -0.3126  0.4193 -1.5870
 5093TIP3    H215244   3.186   6.779   4.019 -0.8458  0.7973 -0.9802
 5094TIP3   OH215245   5.226   3.462   2.259 -0.1190  0.1357 -0.0770
 5094TIP3    H115246   5.167   3.536   2.279  1.7070  1.3456  1.1253
 5094TIP3    H215247   5.314   3.499   2.263  0.7928 -1.6858 -1.5361
 5095TIP3   OH215248   1.087   6.392   5.472 -0.0981  0.2959 -0.2836
 5095TIP3    H115249   1.167   6.397   5.419  0.5189 -0.9630  0.4840
 5095TIP3    H215250   1.112   6.425   5.558 -0.7878  1.1949 -0.4032
 5096TIP3   OH215251   5.724   1.463   3.449 -0.1637 -0.2180 -0.3288
 5096TIP3    H115252   5.701   1.494   3.537 -1.4963 -0.5193 -0.5453
 5096TIP3    H215253   5.662   1.508   3.391  0.1635 -0.6446 -1.0250
 5097TIP3   OH215254   4.856   0.355   0.124  0.1117 -0.1912 -0.5112
 5097TIP3    H115255   4.948   0.330   0.117  0.3428  1.0297 -2.5216
 5097TIP3    H215256   4.809   0.291   0.071 -0.4447 -1.5822  1.5023
 5098TIP3   OH215257   4.480   0.294   5.155 -0.0628  0.6976 -0.3328
 5098TIP3    H115258   4.413   0.233   5.124 -0.1750  1.1831 -1.0842
 5098TIP3    H215259   4.446   0.327   5.239  0.7020 -1.3697  0.8617
 5099TIP3   OH215260   7.238   0.307   5.390 -0.1679 -0.3836  0.7323
 5099TIP3    H115261   7.150   0.271   5.400  0.0978 -0.7833  1.7913
 5099TIP3    H215262   7.225   0.402   5.391 -0.5910 -0.4395  0.7953
 5100TIP3   OH215263   5.843   0.072   3.141  0.1476 -0.1529  0.4166
 5100TIP3    H115264   5.801  -0.008   3.173  0.0793 -0.3819 -0.2362
 5100TIP3    H215265   5.862   0.054   3.049  0.4683  0.4471  0.3623
 5101TIP3   OH215266   2.760   0.367   3.115 -0.6079 -0.2562  0.3884
 5101TIP3    H115267   2.728   0.284   3.081 -0.6292  0.3632 -1.1498
 5101TIP3    H215268   2.774   0.422   3.038  1.2311  0.5344  1.2132
 5102TIP3   OH215269   4.372   4.206   3.809  0.1861  0.4758 -0.0274
 5102TIP3    H115270   4.312   4.131   3.813  1.3125 -0.4292  2.9399
 5102TIP3    H215271   4.451   4.171   3.769 -0.7414  1.3831 -2.8943
 5103TIP3   OH215272   2.211   0.696   5.644 -0.0248  0.0292 -0.9181
 5103TIP3    H115273   2.264   0.735   5.574 -0.4157  0.4407 -0.9890
 5103TIP3    H215274   2.182   0.612   5.607 -0.3809  0.3250 -1.3239
 5104TIP3   OH215275   5.858   0.522   0.382 -0.5766  0.4376 -0.4336
 5104TIP3    H115276   5.814   0.438   0.369  0.6648 -0.4023  0.6078
 5104TIP3    H215277   5.936   0.517   0.327  0.9370 -0.2450  1.6426
 5105TIP3   OH215278   4.408   4.127   1.791 -0.0744 -0.1187 -0.6428
 5105TIP3    H115279   4.328   4.109   1.840  0.5475 -0.3894  0.2935
 5105TIP3    H215280   4.450   4.041   1.780 -0.1038 -0.0374 -1.4853
 5106TIP3   OH215281   6.456   0.991   4.025 -0.2964  0.0613  0.2101
 5106TIP3    H115282   6.420   1.031   3.945 -0.3371  0.7642  0.5723
 5106TIP3    H215283   6.437   1.055   4.094 -1.0303 -0.9121  0.9460
 5107TIP3   OH215284   0.765   6.343   5.598  0.2820  0.5138  0.0808
 5107TIP3    H115285   0.839   6.295   5.636  0.1860 -1.2507 -1.7712
 5107TIP3    H215286   0.717   6.376   5.673  0.9668 -1.4427  1.4671
 5108TIP3   OH215287   5.564   5.773   5.105 -0.3291 -0.3125  0.7159
 5108TIP3    H115288   5.644   5.762   5.053 -0.0982  0.9899  0.7438
 5108TIP3    H215289   5.536   5.862   5.085 -0.8420 -0.1735  1.9947
 5109TIP3   OH215290   1.935   4.701   4.098  0.7239 -0.5287  0.1293
 5109TIP3    H115291   1.953   4.611   4.072  1.2089 -1.7401  4.0199
 5109TIP3    H215292   1.866   4.694   4.164 -0.0544  2.1345 -0.2609
 5110TIP3   OH215293   1.212   4.373   2.990 -0.0404  0.2172 -0.9163
 5110TIP3    H115294   1.284   4.358   3.051  0.7573 -0.8505 -2.0642
 5110TIP3    H215295   1.204   4.291   2.941 -0.1492  1.2539 -2.7380
 5111TIP3   OH215296   4.660   5.501   5.435  0.5340  0.6000 -0.4877
 5111TIP3    H115297   4.613   5.508   5.352  0.0428 -0.1640 -0.2860
 5111TIP3    H215298   4.752   5.491   5.409  0.6742  2.4989 -0.8728
 5112TIP3   OH215299   2.573   6.631   0.906  0.0663  0.1824  0.1580
 5112TIP3    H115300   2.483   6.604   0.889  0.0452 -0.3319  1.0302
 5112TIP3    H215301   2.627   6.563   0.864  0.0349 -0.0048  0.4182
 5113TIP3   OH215302   3.671   3.687   2.025 -0.0294  0.5484 -0.4200
 5113TIP3    H115303   3.608   3.754   2.001 -0.0253  1.0438  0.8742
 5113TIP3    H215304   3.633   3.645   2.102 -0.4622 -1.5635 -1.7065
 5114TIP3   OH215305   6.488   2.271   1.466 -0.1023 -0.2344 -0.0889
 5114TIP3    H115306   6.572   2.305   1.498  0.0108 -1.6001  1.1768
 5114TIP3    H215307   6.503   2.177   1.455 -1.3759 -0.4422 -0.1803
 5115TIP3   OH215308   2.702   1.179   0.308  0.1992 -0.1128  0.1785
 5115TIP3    H115309   2.669   1.266   0.331  0.3699  0.7113 -2.4111
 5115TIP3    H215310   2.750   1.150   0.386 -0.6519  1.6879  1.4360
 5116TIP3   OH215311   2.426   4.319   0.884  0.3141 -0.2233  0.2761
 5116TIP3    H115312   2.482   4.368   0.823  2.1519 -1.3197  1.0161
 5116TIP3    H215313   2.384   4.252   0.829  2.2140 -1.4202  0.1907
 5117TIP3   OH215314   1.455   4.879   3.526  0.2127 -0.3229 -0.0092
 5117TIP3    H115315   1.535   4.865   3.576  0.9526  0.7428 -0.8336
 5117TIP3    H215316   1.464   4.823   3.449  0.4500  0.2038 -0.3780
 5118TIP3   OH215317   1.617   6.284   1.509 -0.0281  0.3380 -0.9280
 5118TIP3    H115318   1.677   6.354   1.482 -0.1916  1.0853  0.5168
 5118TIP3    H215319   1.655   6.204   1.473  2.0485  0.7395  0.2128
 5119TIP3   OH215320   4.179   4.517   0.027  0.1876  0.1520  0.0778
 5119TIP3    H115321   4.243   4.544   0.093  0.3955 -0.3641  0.0922
 5119TIP3    H215322   4.095   4.522   0.071  0.2095  0.8619  0.0523
 5120TIP3   OH215323   3.375   0.999   0.147  0.2440 -0.1044 -0.5481
 5120TIP3    H115324   3.366   1.018   0.240 -1.9609 -0.1064 -0.7048
 5120TIP3    H215325   3.428   0.920   0.144 -1.3902 -1.3383  0.8866
 5121TIP3   OH215326   3.132   3.173   5.805  0.3175  0.4098 -0.5359
 5121TIP3    H115327   3.063   3.221   5.758 -0.6321 -0.4768 -0.0847
 5121TIP3    H215328   3.188   3.138   5.735  0.6484  1.5968 -0.8900
 5122TIP3   OH215329   1.763   0.106   0.225  0.7267 -0.7058 -0.2008
 5122TIP3    H115330   1.770   0.152   0.309 -0.9338  0.4214 -0.6314
 5122TIP3    H215331   1.803   0.021   0.241 -0.3113 -0.8566  2.0149
 5123TIP3   OH215332   6.931   5.186   5.574  0.1677 -0.2676  0.2204
 5123TIP3    H115333   6.994   5.256   5.559  0.2876 -0.4998 -0.3854
 5123TIP3    H215334   6.963   5.140   5.652 -0.9999  1.5672  1.8784
 5124TIP3   OH215335   0.299   6.605   2.660 -0.4265 -0.0553 -0.5906
 5124TIP3    H115336   0.354   6.641   2.729 -0.1081 -0.0942 -0.8191
 5124TIP3    H215337   0.210   6.628   2.685 -0.4314 -1.1691  0.4874
 5125TIP3   OH215338   6.407   0.707   2.151  0.0881  0.2853 -0.7096
 5125TIP3    H115339   6.348   0.746   2.215 -0.1468 -1.1376 -0.0317
 5125TIP3    H215340   6.396   0.613   2.162  2.1259 -0.0189 -0.9151
 5126TIP3   OH215341   6.256   1.134   5.729  0.4997 -0.2004  0.1126
 5126TIP3    H115342   6.293   1.112   5.814 -0.6863 -0.1199  0.6685
 5126TIP3    H215343   6.164   1.108   5.735  0.6590 -1.3214 -1.5661
 5127TIP3   OH215344   1.284   4.361   1.915 -0.2599 -0.4338  0.3285
 5127TIP3    H115345   1.261   4.274   1.948  0.1058 -0.8763 -0.5551
 5127TIP3    H215346   1.216   4.381   1.851 -0.4419  0.0177  0.6543
 5128TIP3   OH215347   7.097   3.657   1.497 -0.0784 -0.6009  0.6022
 5128TIP3    H115348   7.114   3.720   1.428  1.0573  0.1646  1.5415
 5128TIP3    H215349   7.170   3.594   1.491  0.4189 -0.1284  1.5279
 5129TIP3   OH215350   2.726   4.794   0.757 -0.3493  0.7719 -0.3400
 5129TIP3    H115351   2.814   4.816   0.787  0.0465 -2.0417  0.8191
 5129TIP3    H215352   2.711   4.853   0.683  2.6071  1.1174 -0.7899
 5130TIP3   OH215353   0.865   4.760   2.761  0.3533  0.2827  0.4918
 5130TIP3    H115354   0.783   4.718   2.789 -0.5680  2.0666  0.6254
 5130TIP3    H215355   0.927   4.740   2.830  0.0789 -1.1963  0.3414
 5131TIP3   OH215356   3.563   4.238   3.110 -1.0291 -0.1717 -0.4837
 5131TIP3    H115357   3.575   4.179   3.184  0.8216  0.7178 -0.0132
 5131TIP3    H215358   3.571   4.182   3.033  1.5148 -0.5071 -0.0736
 5132TIP3   OH215359   5.535   6.806   2.870 -0.2585  0.6448  0.4090
 5132TIP3    H115360   5.621   6.771   2.849 -0.6674 -0.3243  0.3201
 5132TIP3    H215361   5.502   6.750   2.940 -1.5711 -0.1735 -0.7984
 5133TIP3   OH215362   0.797   1.151   5.173  0.3538  0.0226  0.0686
 5133TIP3    H115363   0.773   1.088   5.240  0.1457  1.0140  0.9520
 5133TIP3    H215364   0.804   1.100   5.093  0.0531 -1.0858  0.7353
 5134TIP3   OH215365   4.471   3.873   1.669  0.2535 -0.5770 -0.1036
 5134TIP3    H115366   4.511   3.889   1.584  0.8787 -0.8159  0.1429
 5134TIP3    H215367   4.544   3.857   1.728 -0.0796  0.9980  0.8031
 5135TIP3   OH215368   1.862   5.029   0.437 -0.6770 -0.1116 -0.4562
 5135TIP3    H115369   1.955   5.050   0.428 -0.3937  0.4703  2.8407
 5135TIP3    H215370   1.820   5.075   0.364  1.3593  1.5776 -0.6515
 5136TIP3   OH215371   1.673   5.492   3.543 -0.0129 -0.0558  0.4262
 5136TIP3    H115372   1.756   5.521   3.506  0.9489 -1.6470  1.1952
 5136TIP3    H215373   1.681   5.510   3.637 -0.8635  0.4751  0.4062
 5137TIP3   OH215374   2.089   1.465   2.689 -0.2500 -0.4241 -0.0397
 5137TIP3    H115375   2.006   1.424   2.668 -0.6811  0.5641 -0.2966
 5137TIP3    H215376   2.154   1.412   2.644 -0.9346  0.1010 -1.7175
 5138TIP3   OH215377   5.703   0.027   2.805 -0.0817 -0.3999 -0.2143
 5138TIP3    H115378   5.737   0.081   2.734 -0.6779 -0.6279 -0.6748
 5138TIP3    H215379   5.617  -0.002   2.775 -0.6834  0.1363  0.9248
 5139TIP3   OH215380   3.178   4.868   5.522  0.5704 -0.4791  0.1357
 5139TIP3    H115381   3.242   4.857   5.592  0.4183  0.9921  0.5442
 5139TIP3    H215382   3.101   4.903   5.566  0.1249 -0.4833 -0.6251
 5140TIP3   OH215383   5.297   0.135   0.818  0.2028 -0.0700  0.3701
 5140TIP3    H115384   5.329   0.087   0.742 -0.9265 -0.8681  0.3753
 5140TIP3    H215385   5.352   0.106   0.891  1.5119  0.9530 -0.1792
 5141TIP3   OH215386   0.427   1.210   1.333 -0.4442  0.5037 -0.3056
 5141TIP3    H115387   0.464   1.251   1.255  0.1267 -0.7359 -0.6962
 5141TIP3    H215388   0.500   1.206   1.395 -0.2524 -0.6916 -0.5851
 5142TIP3   OH215389   4.708   6.706   1.493  0.5922 -0.2468 -0.1168
 5142TIP3    H115390   4.752   6.744   1.417  0.1606 -1.7534 -1.1654
 5142TIP3    H215391   4.757   6.740   1.568  2.5304 -0.5751 -1.1591
 5143TIP3   OH215392   1.074   2.268   3.646 -0.4369  0.2958  0.2067
 5143TIP3    H115393   1.126   2.276   3.566 -1.5088 -1.5370 -0.7272
 5143TIP3    H215394   0.991   2.311   3.625 -0.7256 -0.1924  0.3391
 5144TIP3   OH215395   3.879   5.392   5.720  0.3854  0.6835  0.7283
 5144TIP3    H115396   3.933   5.427   5.649 -1.4595 -2.6804 -2.6484
 5144TIP3    H215397   3.789   5.408   5.693 -0.4090 -0.0110  2.7667
 5145TIP3   OH215398   2.781   0.960   4.022 -0.0042 -0.7830 -0.2581
 5145TIP3    H115399   2.775   1.021   3.948  0.1381 -0.6793 -0.1861
 5145TIP3    H215400   2.692   0.956   4.057  0.0098 -0.5276 -0.1934
 5146TIP3   OH215401   6.652   2.967   1.377 -0.2580  0.0482  0.2447
 5146TIP3    H115402   6.653   2.998   1.467 -0.1365  0.2387  0.1800
 5146TIP3    H215403   6.647   3.047   1.324 -3.0610 -0.1016  0.1101
 5147TIP3   OH215404   6.811   1.089   4.790  0.0603 -0.4912 -0.0228
 5147TIP3    H115405   6.871   1.017   4.775 -0.2255 -0.8231  0.4158
 5147TIP3    H215406   6.786   1.119   4.702  1.2387 -0.0250 -0.2208
 5148TIP3   OH215407   4.591   2.501   4.999  0.0635  0.0306  0.1852
 5148TIP3    H115408   4.546   2.572   5.044  0.3107  0.8464 -0.8262
 5148TIP3    H215409   4.522   2.438   4.978 -0.0236 -0.4970  1.8784
 5149TIP3   OH215410   2.787   1.731   2.738  0.3138 -0.4702  0.4391
 5149TIP3    H115411   2.862   1.688   2.780  1.5249 -0.1456 -1.3086
 5149TIP3    H215412   2.785   1.695   2.649 -1.4420 -0.2372  0.3436
 5150TIP3   OH215413   0.680   1.777   0.310  0.4406  0.0309  0.3033
 5150TIP3    H115414   0.737   1.749   0.239 -0.3012  1.0637 -0.7292
 5150TIP3    H215415   0.714   1.862   0.338  0.1309  0.0920  0.5081
 5151TIP3   OH215416   3.562   0.804   0.040  0.0602  0.1915 -0.0349
 5151TIP3    H115417   3.613   0.783  -0.038 -1.2980  0.1754 -0.9472
 5151TIP3    H215418   3.622   0.855   0.094  0.9733  0.3680 -1.1679
 5152TIP3   OH215419   4.209   4.849   1.920  0.6593 -0.6414 -0.7761
 5152TIP3    H115420   4.131   4.901   1.939  0.9115 -0.8608  1.0555
 5152TIP3    H215421   4.258   4.901   1.856  0.7031  1.2264  0.6926
 5153TIP3   OH215422   0.960   2.589   2.808  0.3129  0.4175 -0.1464
 5153TIP3    H115423   0.881   2.579   2.862  0.2989 -2.0060 -0.5136
 5153TIP3    H215424   1.026   2.622   2.870 -0.1782 -0.5731  0.9572
 5154TIP3   OH215425   6.858   6.090   3.154 -0.1709  0.1070  0.4719
 5154TIP3    H115426   6.923   6.082   3.223 -0.9393  0.0873  1.2037
 5154TIP3    H215427   6.889   6.031   3.085 -0.0707 -0.8565  1.3210
 5155TIP3   OH215428   4.255   4.004   1.110 -0.5235  0.4197 -0.4403
 5155TIP3    H115429   4.261   3.962   1.196  3.4894 -1.7246 -1.5023
 5155TIP3    H215430   4.233   3.933   1.050 -0.5513  1.3118 -1.5237
 5156TIP3   OH215431   0.262   1.706   2.650 -0.1368  0.3739  0.6301
 5156TIP3    H115432   0.216   1.638   2.601  0.1034  0.9899 -0.4848
 5156TIP3    H215433   0.233   1.694   2.741 -0.4497 -0.9130  0.3846
 5157TIP3   OH215434   4.593   1.678   2.272 -0.3788 -0.6847 -0.0445
 5157TIP3    H115435   4.657   1.692   2.342 -1.3964 -1.6732  1.1399
 5157TIP3    H215436   4.545   1.761   2.266 -0.3023 -0.6009  0.4578
 5158TIP3   OH215437   6.290   5.581   5.867 -0.3114  0.1074  0.4943
 5158TIP3    H115438   6.317   5.490   5.881 -2.5050 -0.4606  1.3722
 5158TIP3    H215439   6.322   5.602   5.779 -0.5440 -1.8171 -0.0907
 5159TIP3   OH215440   6.760   2.598   3.410  0.2414  0.2461 -0.7153
 5159TIP3    H115441   6.697   2.635   3.472  0.9433 -0.9526  0.7931
 5159TIP3    H215442   6.729   2.627   3.324 -0.6625  2.1426  0.1773
 5160TIP3   OH215443   2.188   5.754   0.351 -0.1152  0.3904  0.3893
 5160TIP3    H115444   2.268   5.707   0.325 -0.3027  1.1982 -1.9491
 5160TIP3    H215445   2.219   5.841   0.376 -0.0939  0.1280  1.2767
 5161TIP3   OH215446   4.489   1.335   1.058  0.0617  0.3399 -0.0292
 5161TIP3    H115447   4.521   1.247   1.037 -0.6379  0.2533 -0.7610
 5161TIP3    H215448   4.487   1.337   1.154  0.5286 -0.2786 -0.0005
 5162TIP3   OH215449   3.145   4.420   1.614 -0.2477 -0.1573  0.1189
 5162TIP3    H115450   3.130   4.379   1.699 -0.4129 -2.5859 -0.9994
 5162TIP3    H215451   3.063   4.409   1.567  0.3375 -0.3385 -0.9050
 5163TIP3   OH215452   2.864   3.878   2.466 -0.1944 -0.3209  0.7225
 5163TIP3    H115453   2.898   3.807   2.411 -0.1889  0.6151 -0.5423
 5163TIP3    H215454   2.801   3.835   2.524  2.2886 -1.9345  2.4027
 5164TIP3   OH215455   1.440   2.048   0.448  0.2385  0.2456  0.1274
 5164TIP3    H115456   1.420   1.965   0.404  0.0518 -0.2904  1.2019
 5164TIP3    H215457   1.361   2.101   0.436 -0.2635 -0.3302  0.8011
 5165TIP3   OH215458   2.668   5.149   1.458  0.5525 -0.6020  0.4489
 5165TIP3    H115459   2.762   5.138   1.468  0.5108  0.2277  2.0234
 5165TIP3    H215460   2.660   5.226   1.401  0.7860 -1.8162 -1.3148
 5166TIP3   OH215461   4.696   2.513   0.942  0.1564  0.5342 -0.0648
 5166TIP3    H115462   4.634   2.585   0.957  0.8279  1.7063 -2.4680
 5166TIP3    H215463   4.771   2.534   0.998 -0.5627  0.4656  0.9468
 5167TIP3   OH215464   3.995   4.702   4.801  0.0453  0.3338  0.6093
 5167TIP3    H115465   3.923   4.658   4.757 -0.6597  1.5242  0.5299
 5167TIP3    H215466   3.984   4.795   4.779 -0.9050  1.1692  3.9227
 5168TIP3   OH215467   7.173   4.763   4.554 -0.2466 -0.2335 -0.3221
 5168TIP3    H115468   7.221   4.842   4.579 -0.0483 -0.0077 -1.3776
 5168TIP3    H215469   7.192   4.751   4.461 -1.4627 -0.6906 -0.5351
 5169TIP3   OH215470   2.165   3.847   1.011  0.2506  0.0246  0.3476
 5169TIP3    H115471   2.133   3.843   0.921  1.8757 -0.1685 -0.2620
 5169TIP3    H215472   2.173   3.756   1.038 -3.3231  0.0323  1.9310
 5170TIP3   OH215473   4.263   1.219   2.850 -0.2023  0.4046  0.5860
 5170TIP3    H115474   4.216   1.296   2.818  2.1357  0.6541 -2.7555
 5170TIP3    H215475   4.323   1.254   2.916  0.8427  1.5327 -0.8984
 5171TIP3   OH215476   6.178   5.920   0.604  0.0824 -0.1370 -0.2272
 5171TIP3    H115477   6.101   5.911   0.660 -1.1163 -0.9251 -1.9374
 5171TIP3    H215478   6.226   5.994   0.642 -0.8662 -0.3838  1.5798
 5172TIP3   OH215479   1.946   6.387   0.573 -0.2123  0.5464  0.2789
 5172TIP3    H115480   1.938   6.293   0.586 -0.3118  0.2123 -1.8521
 5172TIP3    H215481   2.040   6.403   0.571 -0.0703 -0.1412 -2.8652
 5173TIP3   OH215482   5.370   1.044   3.908  0.4481 -0.1517 -0.4795
 5173TIP3    H115483   5.455   1.010   3.878  1.6615  1.3391  1.0258
 5173TIP3    H215484   5.353   1.118   3.851 -0.6004 -1.2768 -1.6921
 5174TIP3   OH215485   4.593   1.957   2.184 -0.2665  0.1523  0.0653
 5174TIP3    H115486   4.535   1.941   2.110 -0.5606  1.1878  0.0593
 5174TIP3    H215487   4.670   1.999   2.145  1.3908 -2.8818 -0.2130
 5175TIP3   OH215488   0.209   2.441   3.621  0.1898 -0.6919  0.1584
 5175TIP3    H115489   0.139   2.446   3.555 -0.9456 -2.5040  1.1660
 5175TIP3    H215490   0.257   2.523   3.609 -0.7169 -0.3901 -2.0816
 5176TIP3   OH215491   7.042   0.167   5.182 -0.2237 -0.3474  0.2108
 5176TIP3    H115492   7.107   0.234   5.163 -0.9319  0.2941  0.0284
 5176TIP3    H215493   6.978   0.210   5.238 -0.1012 -1.1925  1.0340
 5177TIP3   OH215494   3.567   3.831   5.659 -0.1771  1.0091 -0.2208
 5177TIP3    H115495   3.622   3.868   5.590  0.4571  0.1956 -0.1586
 5177TIP3    H215496   3.478   3.855   5.634 -0.0066  0.2489 -1.6321
 5178TIP3   OH215497   5.695   1.482   5.419 -0.3912 -0.1192  0.3215
 5178TIP3    H115498   5.610   1.511   5.385 -0.0852  2.1903  1.3657
 5178TIP3    H215499   5.693   1.506   5.511  0.7953 -1.5205  0.7356
 5179TIP3   OH215500   5.095   0.833   5.084 -0.0466  0.5632  0.3286
 5179TIP3    H115501   5.045   0.755   5.061  1.1281  0.3826 -1.8246
 5179TIP3    H215502   5.032   0.905   5.074 -0.2466  0.2233 -1.1540
 5180TIP3   OH215503   1.332   5.834   3.229  0.3152 -0.3277 -0.1094
 5180TIP3    H115504   1.358   5.761   3.286  0.7589 -0.3971 -0.4006
 5180TIP3    H215505   1.248   5.863   3.265  0.2327 -0.8510  0.1305
 5181TIP3   OH215506   6.187   3.238   3.658 -0.5118  0.2075 -0.7444
 5181TIP3    H115507   6.094   3.251   3.678 -0.4164 -1.7187  1.2612
 5181TIP3    H215508   6.187   3.206   3.568 -1.7355  0.8306 -0.9954
 5182TIP3   OH215509   1.441   5.584   0.144 -0.4739 -0.1324  0.5648
 5182TIP3    H115510   1.386   5.662   0.141 -0.6593 -0.1729  2.0907
 5182TIP3    H215511   1.443   5.560   0.237  1.7688 -0.3854  0.5064
 5183TIP3   OH215512   0.264   5.986   1.684  0.0431  0.0112  0.3454
 5183TIP3    H115513   0.340   5.990   1.742 -1.5395 -1.1301  2.6659
 5183TIP3    H215514   0.233   5.896   1.692 -0.3238 -0.1994 -2.3167
 5184TIP3   OH215515   0.081   0.631   3.481 -0.0469  0.4979  0.0528
 5184TIP3    H115516   0.081   0.572   3.406 -2.2113  1.7137 -0.9960
 5184TIP3    H215517   0.027   0.705   3.454 -0.6219  1.1526  2.6834
 5185TIP3   OH215518   5.559   4.054   1.136 -0.0914  0.3531 -0.5145
 5185TIP3    H115519   5.562   4.005   1.054 -2.9448  1.2510 -1.2865
 5185TIP3    H215520   5.502   4.003   1.193  1.3491  0.0690  0.7360
 5186TIP3   OH215521   2.221   1.884   4.035 -0.0963 -0.3289  0.6901
 5186TIP3    H115522   2.286   1.834   4.085  0.6877 -0.9198 -0.8529
 5186TIP3    H215523   2.267   1.910   3.956 -2.0585 -1.8346 -1.0696
 5187TIP3   OH215524   6.306   5.024   2.765 -0.2928  0.1961  0.0030
 5187TIP3    H115525   6.302   5.081   2.688  0.7454  0.5615  0.2035
 5187TIP3    H215526   6.224   5.042   2.812 -0.1935  1.1793 -0.1801
 5188TIP3   OH215527   4.793   1.751   0.990  0.1547  0.6362 -0.3734
 5188TIP3    H115528   4.727   1.728   0.925  0.5954 -0.5396 -0.4237
 5188TIP3    H215529   4.772   1.696   1.066  1.3996 -0.1771 -0.5922
 5189TIP3   OH215530   7.201   4.736   3.499  0.3094  0.6154  0.1366
 5189TIP3    H115531   7.193   4.830   3.513 -0.7307  0.7353 -1.1573
 5189TIP3    H215532   7.156   4.697   3.574 -0.0498  1.1505  0.2007
 5190TIP3   OH215533   1.516   0.099   0.531  0.8830  0.4309  1.3943
 5190TIP3    H115534   1.532   0.193   0.537  2.2288  0.2163  1.5059
 5190TIP3    H215535   1.426   0.088   0.562 -0.0743  1.9031 -0.6216
 5191TIP3   OH215536   2.498   3.136   5.540 -0.1234  0.1356  0.4533
 5191TIP3    H115537   2.513   3.210   5.483 -2.4464 -1.5532 -2.6152
 5191TIP3    H215538   2.425   3.162   5.596 -0.3358  0.4697  0.0211
 5192TIP3   OH215539   3.984   0.836   1.070 -0.2549  0.4904  0.2543
 5192TIP3    H115540   4.047   0.892   1.115 -0.4688 -0.6582  2.0702
 5192TIP3    H215541   4.038   0.778   1.016  0.1344  0.6392  0.4800
 5193TIP3   OH215542   6.506   0.012   1.940 -0.2549  0.3097 -0.1695
 5193TIP3    H115543   6.571  -0.049   1.975  2.1098  1.9706 -1.3580
 5193TIP3    H215544   6.482   0.067   2.015  0.5841  0.3698  0.0665
 5194TIP3   OH215545   0.593   1.048   4.314  0.1430 -0.3209  0.0799
 5194TIP3    H115546   0.528   1.118   4.323 -0.0175 -0.4204 -0.2835
 5194TIP3    H215547   0.641   1.049   4.397 -0.9011 -0.8380  0.7123
 5195TIP3   OH215548   3.462   3.118   0.024  0.6509  0.2128  0.1697
 5195TIP3    H115549   3.492   3.028   0.037 -0.5217 -0.2032  0.0761
 5195TIP3    H215550   3.540   3.171   0.042  1.8719 -0.8901 -1.5581
 5196TIP3   OH215551   5.490   3.999   5.529 -0.1875  0.1658  0.8308
 5196TIP3    H115552   5.477   4.065   5.597  0.1225  1.2258 -0.1035
 5196TIP3    H215553   5.402   3.967   5.510 -0.2205 -0.6058  2.1491
 5197TIP3   OH215554   2.640   1.115   3.789 -0.7196 -0.3197 -0.0237
 5197TIP3    H115555   2.673   1.196   3.751 -0.1281 -0.6103 -0.1326
 5197TIP3    H215556   2.549   1.134   3.812 -0.6406  0.3074 -0.2396
 5198TIP3   OH215557   2.145   0.891   0.634  0.0542 -0.8779 -0.0229
 5198TIP3    H115558   2.116   0.881   0.724  0.1729  0.1293  0.1383
 5198TIP3    H215559   2.064   0.910   0.585  0.0017 -1.3398 -0.1218
 5199TIP3   OH215560   6.175   0.443   1.966  0.2195 -0.5740  0.0276
 5199TIP3    H115561   6.135   0.360   1.992  0.8983 -0.4958  1.4575
 5199TIP3    H215562   6.181   0.492   2.048  0.6392  0.5374 -0.6534
 5200TIP3   OH215563   5.410   4.397   1.772 -0.0012  0.1509 -0.6203
 5200TIP3    H115564   5.417   4.314   1.818  0.4501  0.9241  0.7707
 5200TIP3    H215565   5.487   4.399   1.715  0.9049  0.3181  0.5757
 5201TIP3   OH215566   6.242   4.002   5.001  0.0371  0.1286 -0.1973
 5201TIP3    H115567   6.180   4.054   4.951 -0.9624 -1.8479 -1.1122
 5201TIP3    H215568   6.308   3.976   4.937  1.6465  1.7961  0.6614
 5202TIP3   OH215569   4.117   0.416   5.776 -0.8905  0.4621 -0.1927
 5202TIP3    H115570   4.087   0.358   5.706  1.7473  1.1352 -2.0201
 5202TIP3    H215571   4.174   0.361   5.829 -1.2811  0.4914  0.2724
 5203TIP3   OH215572   5.543   3.895   5.861  0.2669 -0.3639  0.7620
 5203TIP3    H115573   5.617   3.860   5.909  0.9840  0.2699  0.1497
 5203TIP3    H215574   5.582   3.957   5.799 -0.7205 -0.4313  0.0513
 5204TIP3   OH215575   0.387   0.139   2.152 -0.1758  0.8053 -0.0585
 5204TIP3    H115576   0.365   0.049   2.129 -0.7696  1.7945 -4.0430
 5204TIP3    H215577   0.305   0.175   2.187  0.3041 -0.3328  2.4238
 5205TIP3   OH215578   4.509   4.789   1.733  0.3589  0.4357  0.5950
 5205TIP3    H115579   4.594   4.789   1.688 -0.3235 -1.7550 -0.8281
 5205TIP3    H215580   4.516   4.716   1.796 -0.8220 -0.5102 -0.3314
 5206TIP3   OH215581   1.757   1.593   1.375  0.2536 -0.2983  0.0964
 5206TIP3    H115582   1.746   1.564   1.284  0.5883  0.9570 -0.3702
 5206TIP3    H215583   1.683   1.651   1.391  0.8422  0.4547  0.1950
 5207TIP3   OH215584   5.504   6.332   4.799  0.1315 -0.5862 -0.0313
 5207TIP3    H115585   5.427   6.301   4.750 -0.0678  0.8425 -0.6816
 5207TIP3    H215586   5.578   6.291   4.755 -0.1672 -0.7097 -0.4274
 5208TIP3   OH215587   4.576   4.956   0.734  0.0929 -0.0843  0.2608
 5208TIP3    H115588   4.621   5.003   0.663  0.6262 -0.7834  0.1270
 5208TIP3    H215589   4.647   4.921   0.788 -0.3023 -0.6722  0.4070
 5209TIP3   OH215590   6.932   4.463   3.036 -0.5823  0.1418 -0.2409
 5209TIP3    H115591   6.889   4.528   2.981 -0.3839  0.6649  0.2236
 5209TIP3    H215592   6.867   4.441   3.102 -0.4573  0.2691 -0.0749
 5210TIP3   OH215593   1.906   3.848   0.176  0.0198  0.0780  0.0755
 5210TIP3    H115594   1.996   3.821   0.157 -0.6704 -1.5776 -1.1254
 5210TIP3    H215595   1.890   3.818   0.266  0.8384  0.9100  0.5098
 5211TIP3   OH215596   6.795   4.207   0.629 -0.5767 -0.2065  0.3115
 5211TIP3    H115597   6.778   4.117   0.656  1.1678 -0.7445 -0.2164
 5211TIP3    H215598   6.808   4.201   0.534  0.4350  0.4352  0.3958
 5212TIP3   OH215599   2.697   4.686   3.957  0.0979 -0.3272 -0.2433
 5212TIP3    H115600   2.775   4.723   3.999  0.7783 -0.2200 -1.5716
 5212TIP3    H215601   2.641   4.761   3.940  0.4706 -0.1919 -0.8671
 5213TIP3   OH215602   6.895   4.394   3.333  0.1783  0.0528  0.2027
 5213TIP3    H115603   6.954   4.423   3.402  0.0378 -0.7625  0.6775
 5213TIP3    H215604   6.822   4.353   3.379 -0.1057 -0.1629 -0.4222
 5214TIP3   OH215605   7.059   0.622   3.905 -0.9744 -0.2853  0.6596
 5214TIP3    H115606   7.111   0.581   3.835 -1.2977  0.1601  0.1548
 5214TIP3    H215607   7.078   0.715   3.898 -1.6835 -0.1399  0.6008
 5215TIP3   OH215608   6.639   2.788   3.577 -0.2654 -0.1676 -0.4070
 5215TIP3    H115609   6.551   2.772   3.543  1.1588 -2.6864 -3.3366
 5215TIP3    H215610   6.665   2.871   3.538 -1.4062  0.8373  0.8531
 5216TIP3   OH215611   7.027   2.635   0.688 -0.4610  0.0568  0.0825
 5216TIP3    H115612   7.051   2.664   0.776  0.3494 -0.9795  0.2189
 5216TIP3    H215613   7.085   2.684   0.630 -0.7297  0.4524  0.1431
 5217TIP3   OH215614   0.595   0.324   1.367  0.0918  0.0042  0.1354
 5217TIP3    H115615   0.532   0.285   1.306 -1.7983 -0.3076  2.1811
 5217TIP3    H215616   0.556   0.408   1.391  1.9302  1.1947 -0.7289
 5218TIP3   OH215617   6.357   2.100   5.137  0.4784 -0.2291  0.8426
 5218TIP3    H115618   6.418   2.126   5.068  0.4805 -0.8284  0.6071
 5218TIP3    H215619   6.354   2.175   5.196 -0.3721  0.7374 -0.3763
 5219TIP3   OH215620   3.947   4.792   0.019  0.1226 -0.1642 -0.1183
 5219TIP3    H115621   4.010   4.739  -0.029  0.1345 -0.9412  0.7244
 5219TIP3    H215622   3.986   4.804   0.105  0.5043  1.9535 -0.5335
 5220TIP3   OH215623   6.314   1.298   2.020 -0.6986  0.1044 -0.1131
 5220TIP3    H115624   6.409   1.306   2.007 -0.3534 -0.5579  1.6597
 5220TIP3    H215625   6.277   1.313   1.933  0.8993  2.1329 -0.5447
 5221TIP3   OH215626   6.753   3.279   5.382  0.3452  0.3170  0.3269
 5221TIP3    H115627   6.792   3.342   5.322  1.1437  1.6941  2.1962
 5221TIP3    H215628   6.800   3.198   5.365  1.2619  0.9403 -0.1894
 5222TIP3   OH215629   5.297   4.192   4.480  0.8688 -0.4384  0.0400
 5222TIP3    H115630   5.393   4.192   4.476  1.0567  1.2682  2.3067
 5222TIP3    H215631   5.272   4.272   4.433  0.7435  0.2594  1.2551
 5223TIP3   OH215632   1.135   1.241   1.600 -0.2362 -0.4430 -0.1132
 5223TIP3    H115633   1.216   1.285   1.573 -0.3154 -1.1473 -1.6334
 5223TIP3    H215634   1.155   1.202   1.685 -0.0450  2.1295  1.0878
 5224TIP3   OH215635   1.186   2.830   4.983 -0.3121 -0.3998 -0.0909
 5224TIP3    H115636   1.181   2.751   4.930  0.4800 -0.1435 -0.5707
 5224TIP3    H215637   1.147   2.898   4.929  0.5323 -0.1292 -0.3722
 5225TIP3   OH215638   3.953   4.539   2.448 -0.1778 -0.1367  0.0438
 5225TIP3    H115639   3.902   4.534   2.367 -0.7081 -0.1677  0.3772
 5225TIP3    H215640   3.902   4.490   2.513 -0.2195  0.6568  0.6303
 5226TIP3   OH215641   5.803   4.268   4.927 -0.0442 -0.4143  0.5558
 5226TIP3    H115642   5.875   4.308   4.977  1.5680 -2.1820 -0.2450
 5226TIP3    H215643   5.757   4.215   4.992 -0.9959  1.1012  1.1839
 5227TIP3   OH215644   1.743   1.192   0.261  0.0436  0.1488 -0.1467
 5227TIP3    H115645   1.744   1.287   0.274  0.0027  0.2045 -0.5450
 5227TIP3    H215646   1.826   1.162   0.298  0.2080  0.3778 -0.3286
 5228TIP3   OH215647   2.233   5.154   0.889  0.0516 -0.6349  0.1325
 5228TIP3    H115648   2.279   5.204   0.956 -0.4332 -0.1430  0.1066
 5228TIP3    H215649   2.162   5.212   0.860  1.2103 -0.1622 -1.9602
 5229TIP3   OH215650   3.674   5.331   2.313 -0.0189  0.2977  0.4798
 5229TIP3    H115651   3.582   5.355   2.318 -0.7148 -2.2645  2.2680
 5229TIP3    H215652   3.715   5.379   2.385 -0.6761 -0.9940  1.7724
 5230TIP3   OH215653   0.865   3.481   4.399 -0.3776  0.4503 -0.3830
 5230TIP3    H115654   0.943   3.474   4.454  0.4032 -0.9935 -1.6052
 5230TIP3    H215655   0.852   3.393   4.364 -2.1943  0.8209 -0.7127
 5231TIP3   OH215656   3.348   1.730   1.257 -0.2305 -0.2965  0.0577
 5231TIP3    H115657   3.356   1.783   1.336  1.7852  0.0690 -0.3316
 5231TIP3    H215658   3.411   1.768   1.196 -1.9460 -0.3816 -1.8710
 5232TIP3   OH215659   5.786   0.766   0.926  0.1109  0.0111  0.3332
 5232TIP3    H115660   5.749   0.698   0.870 -1.0980 -0.3738  1.5540
 5232TIP3    H215661   5.808   0.720   1.007  2.8974  0.3115 -0.1479
 5233TIP3   OH215662   5.569   5.491   3.901  0.2269 -0.7289 -0.3009
 5233TIP3    H115663   5.583   5.397   3.899 -2.7065 -1.3351  1.3151
 5233TIP3    H215664   5.508   5.508   3.829  0.3603 -0.1707 -0.2854
 5234TIP3   OH215665   5.189   3.833   4.756 -0.2838 -0.4484 -0.1935
 5234TIP3    H115666   5.183   3.807   4.664 -1.5243  1.4836 -0.7260
 5234TIP3    H215667   5.171   3.753   4.805  0.6181 -1.5598 -1.6178
 5235TIP3   OH215668   5.649   3.136   3.645  0.5200 -0.0600  0.1409
 5235TIP3    H115669   5.576   3.182   3.602 -0.1214 -1.0570  0.1171
 5235TIP3    H215670   5.606   3.069   3.699  1.4022 -0.2602  0.6111
 5236TIP3   OH215671   3.077   5.393   5.611 -0.0789 -0.0313  0.5893
 5236TIP3    H115672   3.029   5.463   5.566  2.0134  1.0299 -0.1526
 5236TIP3    H215673   3.068   5.317   5.554 -0.7027  0.2091  0.3604
 5237TIP3   OH215674   4.485   2.747   5.441 -0.3747 -0.4591  0.1209
 5237TIP3    H115675   4.531   2.744   5.525 -1.6528 -1.5581  0.8090
 5237TIP3    H215676   4.411   2.806   5.455 -0.0104  0.1776 -0.5581
 5238TIP3   OH215677   4.744   1.787   3.402  0.0106 -0.0051  0.5070
 5238TIP3    H115678   4.704   1.870   3.427  1.2737  0.9272 -0.4894
 5238TIP3    H215679   4.833   1.791   3.435  0.4721 -0.4224 -0.6248
 5239TIP3   OH215680   2.294   5.628   3.936  0.3502  0.3735 -0.6504
 5239TIP3    H115681   2.270   5.707   3.984  1.0583  0.7907 -0.9695
 5239TIP3    H215682   2.320   5.566   4.004  0.2839  0.5859 -0.4283
 5240TIP3   OH215683   6.531   2.597   2.562  0.0217  0.0580  0.3649
 5240TIP3    H115684   6.568   2.528   2.616  0.0407  0.1957  0.5283
 5240TIP3    H215685   6.601   2.662   2.555 -0.4998  0.7524  1.4453
 5241TIP3   OH215686   3.295   5.182   1.068 -0.1796 -0.0364  0.0124
 5241TIP3    H115687   3.337   5.267   1.056 -0.5166 -0.0299 -1.3341
 5241TIP3    H215688   3.319   5.155   1.157  1.8735  0.3919 -0.3606
 5242TIP3   OH215689   3.978   5.162   1.694  0.5750  0.0860 -0.7757
 5242TIP3    H115690   3.884   5.175   1.686 -0.1080 -1.8057  2.4166
 5242TIP3    H215691   3.997   5.085   1.641 -0.4718 -1.7509  1.3510
 5243TIP3   OH215692   4.983   6.303   1.702  0.6577  0.4863 -0.0886
 5243TIP3    H115693   4.907   6.329   1.650  1.1331 -0.4003 -1.2687
 5243TIP3    H215694   4.980   6.207   1.703  1.3586  0.4593  0.4717
 5244TIP3   OH215695   6.957   5.437   5.752 -0.0903  0.2339 -0.3668
 5244TIP3    H115696   7.021   5.500   5.719 -1.1967  1.2140 -0.7209
 5244TIP3    H215697   6.921   5.479   5.830  0.8315 -1.0287  0.7803
 5245TIP3   OH215698   5.430   5.307   0.723 -0.1553  0.3136  0.4596
 5245TIP3    H115699   5.424   5.343   0.811  0.3435 -1.7810  1.4233
 5245TIP3    H215700   5.385   5.223   0.729  0.0402  0.0533 -1.2556
 5246TIP3   OH215701   6.428   3.517   4.137  0.2432 -0.3644  0.0410
 5246TIP3    H115702   6.392   3.461   4.068 -1.0007  1.2170 -0.6505
 5246TIP3    H215703   6.365   3.508   4.209 -0.1252  0.3757 -0.1873
 5247TIP3   OH215704   0.615   2.559   5.294 -0.1279 -0.0632 -0.6524
 5247TIP3    H115705   0.558   2.623   5.336  1.0227  0.3318  0.3767
 5247TIP3    H215706   0.557   2.485   5.274 -0.9878  0.2843  0.4385
 5248TIP3   OH215707   3.475   1.543   0.282  0.0136 -0.1324  0.3391
 5248TIP3    H115708   3.391   1.562   0.241  0.8388  1.1868 -0.8803
 5248TIP3    H215709   3.524   1.625   0.274  2.4281 -1.6330 -1.5416
 5249TIP3   OH215710   4.329   5.385   5.897  0.1109  0.3587 -0.6204
 5249TIP3    H115711   4.333   5.292   5.873 -2.4140  0.1024 -0.3322
 5249TIP3    H215712   4.387   5.428   5.834 -0.6395 -1.1441 -2.4416
 5250TIP3   OH215713   4.867   1.937   5.030  0.0980  0.4191  0.1643
 5250TIP3    H115714   4.849   1.906   4.941  2.0365 -1.2719  0.2870
 5250TIP3    H215715   4.963   1.946   5.033  0.1946 -0.8524  2.4540
 5251TIP3   OH215716   7.110   3.726   2.591  0.2196  0.1920  0.0007
 5251TIP3    H115717   7.179   3.793   2.593  0.4228 -0.0063  2.1894
 5251TIP3    H215718   7.134   3.670   2.518  1.5386  1.0081 -0.2329
 5252TIP3   OH215719   1.195   3.889   3.004 -0.3793  0.2604  0.2106
 5252TIP3    H115720   1.169   3.802   2.975 -0.2623  0.0572  0.7135
 5252TIP3    H215721   1.241   3.875   3.087  1.1054  0.6378 -0.5119
 5253TIP3   OH215722   6.193   0.709   0.375 -0.2757 -0.5367 -0.0120
 5253TIP3    H115723   6.261   0.648   0.347 -1.0371 -0.8860 -1.1740
 5253TIP3    H215724   6.131   0.653   0.423 -0.4103 -0.4683 -0.1074
 5254TIP3   OH215725   1.799   5.506   2.891  0.1648 -0.2119 -0.3619
 5254TIP3    H115726   1.812   5.411   2.897 -0.7520 -0.2587  1.9444
 5254TIP3    H215727   1.734   5.517   2.822  0.4977 -1.2304 -0.8583
 5255TIP3   OH215728   0.953   6.562   1.250  0.5114 -0.0792 -0.1353
 5255TIP3    H115729   0.894   6.590   1.319  1.0026 -0.2408  0.3617
 5255TIP3    H215730   0.994   6.643   1.219 -0.4806  0.1222 -0.9817
 5256TIP3   OH215731   0.498   1.431   0.166  0.0056 -0.4112 -0.8837
 5256TIP3    H115732   0.404   1.414   0.157 -0.0459 -0.4059 -0.3432
 5256TIP3    H215733   0.537   1.345   0.182  0.0983 -0.4156 -1.1232
 5257TIP3   OH215734   6.756   4.933   4.017 -0.4077 -0.5668  0.3746
 5257TIP3    H115735   6.757   4.889   3.932  4.1665 -2.2918  0.9933
 5257TIP3    H215736   6.766   5.026   3.997 -0.0157 -0.8876 -1.0019
 5258TIP3   OH215737   0.381   1.439   5.022  0.3734  0.0476 -0.6904
 5258TIP3    H115738   0.316   1.430   5.092  1.3604 -1.3678  0.0992
 5258TIP3    H215739   0.464   1.414   5.063  0.9777 -0.8723 -2.3832
 5259TIP3   OH215740   5.821   3.323   5.341 -0.3402  0.0443 -0.2707
 5259TIP3    H115741   5.770   3.274   5.405 -1.1563 -1.0387 -1.7019
 5259TIP3    H215742   5.827   3.412   5.379  2.4691 -1.3239  3.1214
 5260TIP3   OH215743   2.050   1.104   3.567  0.1832 -0.2143 -0.0504
 5260TIP3    H115744   2.041   1.034   3.632 -0.7181  0.5147  0.6338
 5260TIP3    H215745   2.090   1.061   3.491  0.4363 -1.2735  0.6676
 5261TIP3   OH215746   5.214   6.441   2.270 -0.0940 -0.1426  0.4951
 5261TIP3    H115747   5.261   6.453   2.188  1.0893  0.8326  1.2788
 5261TIP3    H215748   5.129   6.405   2.244 -0.0955  1.0018 -1.2367
 5262TIP3   OH215749   1.180   0.079   3.151 -0.2951  0.3864  0.6194
 5262TIP3    H115750   1.090   0.105   3.130 -0.6311 -0.4772  0.9322
 5262TIP3    H215751   1.227   0.088   3.068 -0.1657  2.7321  0.8629
 5263TIP3   OH215752   2.890   4.531   4.898  0.8050 -0.1377 -0.0974
 5263TIP3    H115753   2.959   4.470   4.923  0.4810 -0.2021  0.6991
 5263TIP3    H215754   2.881   4.521   4.804  0.6249 -1.4773  0.0439
 5264TIP3   OH215755   3.196   2.154   3.233  0.0979  0.5811  0.3430
 5264TIP3    H115756   3.114   2.116   3.202  0.8360  0.2535 -1.3180
 5264TIP3    H215757   3.220   2.099   3.308 -1.7790  1.4475  1.6654
 5265TIP3   OH215758   0.115   0.931   4.735  0.1436  0.3969 -0.0153
 5265TIP3    H115759   0.166   0.850   4.733 -0.4612  0.0165 -0.1307
 5265TIP3    H215760   0.181   1.000   4.733  0.7827 -0.0665  1.9731
 5266TIP3   OH215761   2.796   5.891   0.534  0.0898 -0.1655  0.2180
 5266TIP3    H115762   2.834   5.917   0.450  0.1175 -0.7739  0.0364
 5266TIP3    H215763   2.850   5.819   0.564  1.9584  1.9254  2.2439
 5267TIP3   OH215764   0.858   2.259   5.596  0.1075  0.3529 -0.1643
 5267TIP3    H115765   0.908   2.214   5.528 -1.5781 -0.2683 -1.0357
 5267TIP3    H215766   0.810   2.327   5.549  0.2547  1.0453  0.6776
 5268TIP3   OH215767   5.571   1.168   1.663  0.0582 -0.6109  0.1364
 5268TIP3    H115768   5.482   1.157   1.629 -0.2565 -0.5562  0.9326
 5268TIP3    H215769   5.625   1.174   1.584 -0.6803 -0.3082 -0.3658
 5269TIP3   OH215770   5.290   5.367   4.230 -0.2039 -0.2200  0.1913
 5269TIP3    H115771   5.372   5.418   4.228 -0.6156  0.4687  0.4393
 5269TIP3    H215772   5.309   5.290   4.177  0.2146  0.5557 -0.8312
 5270TIP3   OH215773   1.974   2.368   4.032 -0.5939 -0.4743  0.1943
 5270TIP3    H115774   1.934   2.300   3.977 -0.3929 -0.5743  0.1719
 5270TIP3    H215775   2.043   2.322   4.080 -1.4366 -0.6373  1.3161
 5271TIP3   OH215776   2.886   4.530   0.074  0.1464 -0.1758  0.1078
 5271TIP3    H115777   2.981   4.529   0.061  0.0567 -1.8704 -0.7222
 5271TIP3    H215778   2.865   4.440   0.099 -1.2135  0.2707  0.6567
 5272TIP3   OH215779   0.137   1.693   5.239 -0.0933 -0.1524  0.1466
 5272TIP3    H115780   0.061   1.733   5.282  0.4685  2.4177 -1.0514
 5272TIP3    H215781   0.199   1.765   5.227  1.8230 -1.8017 -0.5194
 5273TIP3   OH215782   6.598   6.084   2.050 -0.2350  0.1419  0.2608
 5273TIP3    H115783   6.535   6.086   1.978 -0.2882  0.8419  0.3179
 5273TIP3    H215784   6.547   6.053   2.125 -0.8205  1.7301  0.5709
 5274TIP3   OH215785   6.021   4.165   1.002  0.3857 -0.3944  1.0475
 5274TIP3    H115786   6.037   4.259   0.994 -2.4389  0.2263  1.5245
 5274TIP3    H215787   6.105   4.124   0.982  0.8327  2.0206 -3.3976
 5275TIP3   OH215788   2.181   4.055   5.094  0.0035 -0.0619  0.9560
 5275TIP3    H115789   2.160   4.015   5.010  0.5104 -0.4351  1.0061
 5275TIP3    H215790   2.097   4.086   5.127 -0.3347 -0.7168  0.7257
 5276TIP3   OH215791   5.463   4.958   1.268 -0.1152 -0.0145  0.0026
 5276TIP3    H115792   5.436   4.926   1.355  1.4914 -0.9343  0.1903
 5276TIP3    H215793   5.533   5.019   1.286  1.5040 -1.5839 -0.6916
 5277TIP3   OH215794   4.234   5.522   0.506 -0.4489 -0.2841  0.2323
 5277TIP3    H115795   4.242   5.514   0.411 -0.5225 -0.8477  0.2703
 5277TIP3    H215796   4.232   5.432   0.538 -0.2901 -0.0991  0.7816
 5278TIP3   OH215797   5.624   0.325   1.526  0.1276  0.8644  0.8938
 5278TIP3    H115798   5.660   0.303   1.611 -0.2391  0.8592  1.0499
 5278TIP3    H215799   5.532   0.347   1.544 -0.2583 -0.2144  0.3548
 5279TIP3   OH215800   1.439   1.438   4.902  0.3290 -0.4052 -0.4505
 5279TIP3    H115801   1.463   1.421   4.993  1.5286 -0.3056 -0.7288
 5279TIP3    H215802   1.348   1.410   4.895  0.1496 -0.1909  0.8357
 5280TIP3   OH215803   1.053   4.569   3.610  0.2833 -0.3800  0.1313
 5280TIP3    H115804   1.013   4.612   3.535 -0.8298  0.0433  0.9479
 5280TIP3    H215805   1.139   4.610   3.618  0.7236 -0.9425 -1.3279
 5281TIP3   OH215806   4.573   5.387   1.095  0.4611  0.2104  0.1293
 5281TIP3    H115807   4.492   5.356   1.135  0.9195  0.2826  1.1349
 5281TIP3    H215808   4.642   5.357   1.153  1.2147 -0.3014 -0.9934
 5282TIP3   OH215809   3.321   1.093   1.672 -0.0565  0.2822 -0.5635
 5282TIP3    H115810   3.364   1.165   1.625 -1.1031  0.9521 -0.5037
 5282TIP3    H215811   3.228   1.113   1.668 -0.4634 -1.5426 -1.3480
 5283TIP3   OH215812   5.441   5.570   2.257  0.5742 -0.1806 -0.3968
 5283TIP3    H115813   5.465   5.625   2.331 -0.6133  2.4473 -1.8443
 5283TIP3    H215814   5.505   5.590   2.189 -0.0765 -0.3355 -1.0688
 5284TIP3   OH215815   0.480   4.307   1.588 -0.3674  0.3166 -0.2917
 5284TIP3    H115816   0.479   4.213   1.569 -1.2441  0.2273  0.1274
 5284TIP3    H215817   0.477   4.311   1.684  0.5034  0.7734 -0.2769
 5285TIP3   OH215818   1.692   2.841   1.581  0.7081  0.1663  0.4602
 5285TIP3    H115819   1.774   2.886   1.597  1.6548 -1.7593  1.3859
 5285TIP3    H215820   1.666   2.806   1.666 -0.5573 -0.0837 -0.0046
 5286TIP3   OH215821   1.417   3.132   3.032  0.0303  0.3738  0.0636
 5286TIP3    H115822   1.433   3.046   2.993  0.3287  1.8450 -3.4032
 5286TIP3    H215823   1.344   3.118   3.092  1.3159 -2.6104  1.1269
 5287TIP3   OH215824   5.369   3.137   1.838 -0.0691 -0.9123 -0.2869
 5287TIP3    H115825   5.284   3.159   1.876  0.2894  1.2959 -0.6042
 5287TIP3    H215826   5.415   3.221   1.834  2.3325 -2.1338  0.3462
 5288TIP3   OH215827   6.014   3.195   1.125  0.4013 -0.7244  0.6156
 5288TIP3    H115828   6.068   3.151   1.191  1.9123 -0.2816 -0.2730
 5288TIP3    H215829   6.043   3.286   1.127 -0.2380 -0.4984  0.0388
 5289TIP3   OH215830   2.786   1.938   5.108  0.2210  0.5636 -0.4170
 5289TIP3    H115831   2.762   2.030   5.117 -2.5832 -0.2602  3.6292
 5289TIP3    H215832   2.714   1.899   5.060  0.1689  0.1147  0.0203
 5290TIP3   OH215833   3.281   2.330   0.738  0.3869  0.0712 -0.1867
 5290TIP3    H115834   3.332   2.382   0.676 -1.4826  2.2951  0.0124
 5290TIP3    H215835   3.290   2.377   0.821 -1.0333 -0.1402  0.1023
 5291TIP3   OH215836   6.524   3.141   5.332 -0.0677 -0.7139  0.6235
 5291TIP3    H115837   6.590   3.211   5.336  2.1759 -2.6375 -0.5709
 5291TIP3    H215838   6.514   3.113   5.423 -2.9851  2.6947  1.6060
 5292TIP3   OH215839   5.129   5.622   1.210  0.0410 -0.2644 -0.3069
 5292TIP3    H115840   5.181   5.543   1.223  1.3425  0.5663 -0.2823
 5292TIP3    H215841   5.155   5.654   1.124  1.8289  1.7471  0.8944
 5293TIP3   OH215842   3.098   1.229   1.517  0.1506  0.0348 -0.1236
 5293TIP3    H115843   3.074   1.272   1.436  0.1597  1.2220  0.4897
 5293TIP3    H215844   3.100   1.136   1.495  1.1114  0.4033 -1.7105
 5294TIP3   OH215845   3.582   6.721   4.517 -0.1945  0.5862 -0.3450
 5294TIP3    H115846   3.530   6.659   4.567 -0.1442  0.6722 -0.1824
 5294TIP3    H215847   3.529   6.801   4.515  0.3399  0.9872  0.6607
 5295TIP3   OH215848   2.501   2.911   2.083  0.0972  0.2385  0.3688
 5295TIP3    H115849   2.554   2.985   2.113  0.8099 -0.1940  0.1848
 5295TIP3    H215850   2.563   2.838   2.076 -0.4120 -0.1340 -0.3770
 5296TIP3   OH215851   0.548   6.689   3.371 -0.0793  0.3425  0.0819
 5296TIP3    H115852   0.586   6.639   3.300  0.0333 -0.1388  0.4782
 5296TIP3    H215853   0.495   6.625   3.420 -0.4957  0.7579  0.1858
 5297TIP3   OH215854   4.772   5.329   4.944  0.3293  0.2064 -0.2125
 5297TIP3    H115855   4.780   5.294   4.855  1.9637 -0.6317  0.2217
 5297TIP3    H215856   4.680   5.315   4.967 -0.1747  0.6221 -1.8291
 5298TIP3   OH215857   6.987   6.775   3.132  0.5758 -0.5668 -0.2208
 5298TIP3    H115858   7.079   6.796   3.118  0.4819  0.4210  0.5268
 5298TIP3    H215859   6.967   6.708   3.067  1.7109 -0.4953 -0.6569
 5299TIP3   OH215860   3.014   4.402   2.728 -0.4720 -0.3614  0.0819
 5299TIP3    H115861   2.955   4.473   2.752 -1.0319 -0.5052 -0.8420
 5299TIP3    H215862   2.962   4.322   2.742 -0.4276 -0.4999 -0.5337
 5300TIP3   OH215863   1.765   5.465   3.808 -0.2239 -0.4428  0.4182
 5300TIP3    H115864   1.842   5.493   3.858 -0.9838 -1.0976  2.0344
 5300TIP3    H215865   1.698   5.451   3.875 -1.3061 -1.3302 -0.8232
 5301TIP3   OH215866   5.034   0.169   4.583  0.4044 -0.5167 -0.5664
 5301TIP3    H115867   4.948   0.132   4.562  0.6436 -1.2457 -0.3114
 5301TIP3    H215868   5.082   0.166   4.500  0.2852 -0.4070 -0.6384
 5302TIP3   OH215869   6.553   6.129   0.328  0.3566  0.3230 -0.1570
 5302TIP3    H115870   6.473   6.178   0.344  0.3758  1.0411 -1.9701
 5302TIP3    H215871   6.532   6.073   0.253  0.5284 -2.0530  1.4670
 5303TIP3   OH215872   3.964   4.231   3.268  0.2813 -0.0571  0.3584
 5303TIP3    H115873   3.992   4.287   3.196  3.0032 -1.8548 -0.1198
 5303TIP3    H215874   3.960   4.143   3.231  0.2852 -0.8173  2.0379
 5304TIP3   OH215875   6.397   4.351   5.476  0.2257 -0.2862 -0.1799
 5304TIP3    H115876   6.326   4.414   5.463  0.9381  0.6888  0.4900
 5304TIP3    H215877   6.360   4.285   5.535 -0.1307  0.2053  0.1522
 5305TIP3   OH215878   6.274   3.381   0.881  0.0673 -0.0628 -0.0537
 5305TIP3    H115879   6.221   3.404   0.957  1.1426  0.0387  0.6939
 5305TIP3    H215880   6.336   3.315   0.914  0.2623 -0.3497 -0.9505
 5306TIP3   OH215881   1.739   5.631   4.652 -0.1317  0.3899 -0.0656
 5306TIP3    H115882   1.737   5.618   4.557  0.0193 -1.2543  0.1228
 5306TIP3    H215883   1.648   5.649   4.676 -0.0880  1.3037 -0.5793
 5307TIP3   OH215884   1.377   2.041   2.900 -0.2003  0.1298 -0.0454
 5307TIP3    H115885   1.467   2.059   2.927 -0.2938  0.1700  0.2346
 5307TIP3    H215886   1.324   2.063   2.976 -0.3888 -0.5620  0.0285
 5308TIP3   OH215887   2.219   4.450   2.968  0.1438 -0.4133  0.4188
 5308TIP3    H115888   2.207   4.515   3.038  0.6442 -1.6251  1.6691
 5308TIP3    H215889   2.225   4.503   2.888  0.8880  1.1251  1.4210
 5309TIP3   OH215890   5.608   5.195   1.255  0.3147 -0.4998  0.0231
 5309TIP3    H115891   5.547   5.209   1.182  0.0733 -1.4109  0.0377
 5309TIP3    H215892   5.614   5.280   1.298 -2.3015 -0.7655  1.0781
 5310TIP3   OH215893   5.372   3.396   0.036 -0.6843 -0.2417  0.3919
 5310TIP3    H115894   5.395   3.305   0.017  0.6325  0.0500  0.5003
 5310TIP3    H215895   5.296   3.389   0.094 -1.3738 -1.2337 -0.5863
 5311TIP3   OH215896   0.710   1.712   3.572  0.1474  0.1433  0.2325
 5311TIP3    H115897   0.744   1.659   3.645  1.7024  1.5212  0.5558
 5311TIP3    H215898   0.711   1.652   3.497  1.3683 -0.4527  0.7032
 5312TIP3   OH215899   0.049   3.621   1.164  0.3423 -0.1253  0.2292
 5312TIP3    H115900  -0.034   3.666   1.182  1.7192  1.8750  2.0751
 5312TIP3    H215901   0.023   3.533   1.138 -2.3320 -0.1389  2.4912
 5313TIP3   OH215902   6.321   5.065   0.697  0.2975  0.6693 -0.2212
 5313TIP3    H115903   6.225   5.059   0.697  0.3354 -0.4046 -1.4719
 5313TIP3    H215904   6.342   5.099   0.784 -1.1091 -1.7485  1.2062
 5314TIP3   OH215905   4.670   1.512   3.300 -0.5731  0.1894 -0.1432
 5314TIP3    H115906   4.593   1.499   3.354 -0.9478 -0.1226 -0.7404
 5314TIP3    H215907   4.694   1.603   3.313 -1.8459  0.6590 -0.9873
 5315TIP3   OH215908   5.502   1.221   5.787 -0.2728 -0.3405 -0.0638
 5315TIP3    H115909   5.453   1.238   5.706  0.1947  0.2464 -0.2297
 5315TIP3    H215910   5.445   1.163   5.838 -0.9287 -0.0594 -0.4666
 5316TIP3   OH215911   0.282   4.578   1.791 -0.2255 -0.3709  0.0748
 5316TIP3    H115912   0.187   4.581   1.778 -0.2877  1.0960  0.6044
 5316TIP3    H215913   0.293   4.533   1.874 -0.4494 -0.6596 -0.0491
 5317TIP3   OH215914   7.174   1.604   5.841 -0.4956 -0.2026  0.0241
 5317TIP3    H115915   7.140   1.634   5.757 -1.1917  1.2045  0.7851
 5317TIP3    H215916   7.257   1.561   5.820  0.7985  2.6541 -1.1079
 5318TIP3   OH215917   3.878   2.983   2.055 -0.0819 -0.1877 -0.5385
 5318TIP3    H115918   3.864   2.935   2.137 -0.1535  0.6135 -0.0623
 5318TIP3    H215919   3.803   2.961   2.001  0.0195 -0.8137 -0.4325
 5319TIP3   OH215920   0.675   0.581   5.274  0.7380 -0.7493  0.7022
 5319TIP3    H115921   0.646   0.514   5.212 -1.4793 -0.3328  1.1765
 5319TIP3    H215922   0.750   0.542   5.318  0.3751 -2.3589 -0.0149
 5320TIP3   OH215923   3.222   5.669   3.703  0.2641 -0.8587  0.2961
 5320TIP3    H115924   3.191   5.686   3.792 -1.0955 -0.4406 -0.2385
 5320TIP3    H215925   3.313   5.642   3.714  0.9891  1.7922  1.6269
 5321TIP3   OH215926   5.778   4.555   4.810  0.4257  0.3884 -0.4865
 5321TIP3    H115927   5.705   4.580   4.754 -0.6455  0.9739  1.1085
 5321TIP3    H215928   5.771   4.460   4.820 -2.4022  0.7468  2.5423
 5322TIP3   OH215929   2.196   4.243   5.490  0.3755 -0.3968  0.4236
 5322TIP3    H115930   2.281   4.262   5.529  2.5013 -0.3939 -3.6611
 5322TIP3    H215931   2.168   4.326   5.451 -0.8739 -0.7067  0.6193
 5323TIP3   OH215932   0.477   0.097   3.826 -0.4549  0.2663  0.6757
 5323TIP3    H115933   0.525   0.172   3.860 -0.2492  0.6270 -0.3608
 5323TIP3    H215934   0.479   0.032   3.896  0.7214  0.6349  0.9936
 5324TIP3   OH215935   2.082   6.626   3.985  0.4497 -0.3419  0.0049
 5324TIP3    H115936   2.039   6.585   4.060  0.4997  0.9574  0.7784
 5324TIP3    H215937   2.097   6.717   4.013 -1.7188  0.9101 -2.4376
 5325TIP3   OH215938   6.382   3.856   1.475 -0.0571 -0.3138 -0.0164
 5325TIP3    H115939   6.427   3.846   1.391 -0.2241 -1.9794  0.0656
 5325TIP3    H215940   6.295   3.817   1.461 -0.1099 -0.5541  0.9121
 5326TIP3   OH215941   4.276   0.057   4.089  0.2068  0.1304  0.4911
 5326TIP3    H115942   4.199   0.019   4.130 -0.5916  0.6638 -0.4887
 5326TIP3    H215943   4.340   0.064   4.160  0.1533 -2.3412  0.8675
 5327TIP3   OH215944   1.461   5.203   5.474  0.8150 -0.3236  0.1651
 5327TIP3    H115945   1.439   5.112   5.493 -2.3404  0.2851 -0.0880
 5327TIP3    H215946   1.466   5.208   5.379  0.9490 -0.2229  0.1765
 5328TIP3   OH215947   3.963   6.694   3.322 -0.3005  0.1558  0.0253
 5328TIP3    H115948   3.932   6.744   3.398  1.6846  0.1673  0.9135
 5328TIP3    H215949   3.919   6.733   3.247  0.0630  2.2651  0.8462
 5329TIP3   OH215950   4.105   3.844   2.192  0.1823 -0.1064 -0.3456
 5329TIP3    H115951   4.134   3.895   2.268  1.0950  0.2689 -0.9279
 5329TIP3    H215952   4.155   3.762   2.198  0.9118  0.2820 -1.0072
 5330TIP3   OH215953   3.571   4.034   2.897 -0.3674  0.2204  0.3096
 5330TIP3    H115954   3.483   4.002   2.881 -0.6841  1.8327 -1.5950
 5330TIP3    H215955   3.622   4.003   2.822  0.4055  0.2997  0.7935
 5331TIP3   OH215956   5.135   6.651   2.438 -0.4887 -0.2064  0.0935
 5331TIP3    H115957   5.121   6.562   2.406  2.5274 -1.0181  0.6904
 5331TIP3    H215958   5.228   6.668   2.422 -0.8366  2.6264  0.5538
 5332TIP3   OH215959   6.538   3.734   0.975 -0.3643 -0.1494 -0.2524
 5332TIP3    H115960   6.556   3.653   0.927  0.6497 -1.7038  2.5156
 5332TIP3    H215961   6.624   3.776   0.983 -0.5100  0.0732  0.1683
 5333TIP3   OH215962   1.864   2.226   0.533  0.1397 -0.6684 -0.4436
 5333TIP3    H115963   1.839   2.136   0.514  0.6321 -0.4684 -2.1615
 5333TIP3    H215964   1.898   2.260   0.451 -0.7769  1.3382 -0.0673
 5334TIP3   OH215965   3.186   5.188   3.960 -0.2109 -0.5600 -0.3002
 5334TIP3    H115966   3.208   5.213   4.050  0.3372 -0.9172 -0.3320
 5334TIP3    H215967   3.144   5.266   3.923 -2.2194 -1.0049  0.8516
 5335TIP3   OH215968   0.624   2.097   4.847 -0.4691 -0.7545 -0.0549
 5335TIP3    H115969   0.630   2.132   4.758 -1.7214 -0.8277 -0.1916
 5335TIP3    H215970   0.537   2.124   4.877  0.3461  0.2070  1.5601
 5336TIP3   OH215971   0.999   2.277   2.741  0.0061  0.4210 -0.2543
 5336TIP3    H115972   1.004   2.347   2.676  0.1929 -1.3752 -2.2790
 5336TIP3    H215973   1.089   2.267   2.773  0.3313 -0.0476 -1.2817
 5337TIP3   OH215974   1.228   5.300   3.305  0.1371 -0.1122  0.5367
 5337TIP3    H115975   1.300   5.357   3.280  1.0539 -1.5240 -0.1928
 5337TIP3    H215976   1.270   5.219   3.335 -1.1175 -0.9169  0.2267
 5338TIP3   OH215977   0.997   1.707   0.722  0.3470  0.7322 -0.0646
 5338TIP3    H115978   0.940   1.782   0.702  0.4503  0.4361 -1.5766
 5338TIP3    H215979   0.966   1.676   0.807 -1.9108  0.4602 -0.9148
 5339TIP3   OH215980   1.740   2.977   4.077 -0.1258 -0.4656  0.2705
 5339TIP3    H115981   1.685   3.024   4.014 -0.0485 -0.0161  0.5283
 5339TIP3    H215982   1.708   2.887   4.075  1.8996 -1.2637 -2.7470
 5340TIP3   OH215983   7.047   5.643   3.238 -0.0528  0.5130 -0.8848
 5340TIP3    H115984   7.102   5.721   3.239  1.2888 -0.3912 -1.0597
 5340TIP3    H215985   7.039   5.617   3.330 -0.4145  0.7978 -0.8359
 5341TIP3   OH215986   0.789   1.526   3.748  0.4346  0.4185 -0.3825
 5341TIP3    H115987   0.834   1.450   3.784 -0.0283  0.2061 -0.2460
 5341TIP3    H215988   0.708   1.532   3.799 -1.0867 -0.9366 -2.5125
 5342TIP3   OH215989   6.486   3.988   2.602 -0.2277  0.1911 -0.3172
 5342TIP3    H115990   6.487   4.074   2.644 -0.9898  0.4412 -0.7872
 5342TIP3    H215991   6.522   3.928   2.668 -0.2622  0.7732  0.2386
 5343TIP3   OH215992   6.039   1.610   4.618  0.3985 -0.6541 -0.3311
 5343TIP3    H115993   6.031   1.704   4.605  0.4028 -0.4963  0.7174
 5343TIP3    H215994   5.950   1.576   4.610  0.3676 -0.5337 -0.4954
 5344TIP3   OH215995   3.759   2.167   4.417 -0.4181  0.3578 -0.7749
 5344TIP3    H115996   3.729   2.078   4.399 -0.8653  0.5175 -0.8374
 5344TIP3    H215997   3.709   2.222   4.357 -0.4605  0.6973 -0.4355
 5345TIP3   OH215998   5.922   0.689   2.549  0.6332  0.4487  0.1323
 5345TIP3    H115999   5.860   0.687   2.476  0.5235  2.2219  0.1460
 5345TIP3    H216000   5.936   0.782   2.567 -0.8052  0.1550  3.6131
 5346TIP3   OH216001   2.984   5.651   3.311 -0.3064  0.0700 -0.5474
 5346TIP3    H116002   3.071   5.631   3.275 -0.7314  0.0190 -1.5789
 5346TIP3    H216003   2.924   5.595   3.262 -0.9525  0.2533  0.0146
 5347TIP3   OH216004   6.294   0.195   5.329  0.0033 -0.3337  0.1248
 5347TIP3    H116005   6.226   0.183   5.396 -1.1156 -2.1177 -1.2449
 5347TIP3    H216006   6.346   0.115   5.334  0.7490  0.1229 -0.2343
 5348TIP3   OH216007   6.599   2.066   0.881 -0.1799  0.6226  0.4224
 5348TIP3    H116008   6.552   2.099   0.804 -0.3488  2.0074  1.0995
 5348TIP3    H216009   6.530   2.039   0.941 -0.0486 -0.1551  0.2400
 5349TIP3   OH216010   0.400   6.281   3.188 -0.4334  0.1774  0.5056
 5349TIP3    H116011   0.476   6.224   3.181 -0.1377  0.4919  1.0171
 5349TIP3    H216012   0.381   6.308   3.099  1.3192  1.7104  0.5336
 5350TIP3   OH216013   0.643   4.676   0.889  0.3998 -0.2386 -0.4471
 5350TIP3    H116014   0.551   4.656   0.908 -0.7412  2.0366 -2.8633
 5350TIP3    H216015   0.672   4.605   0.832 -0.3950 -0.1790 -0.9460
 5351TIP3   OH216016   4.290   4.431   0.827 -0.0956 -0.0092 -0.2522
 5351TIP3    H116017   4.271   4.366   0.895 -0.9787 -0.4932 -0.9377
 5351TIP3    H216018   4.292   4.514   0.874 -1.5318 -0.2318  0.2705
 5352TIP3   OH216019   6.253   2.525   0.951  0.2840  0.6035 -0.1654
 5352TIP3    H116020   6.343   2.552   0.972  0.5504 -0.0948 -0.3688
 5352TIP3    H216021   6.224   2.476   1.027  1.8132 -3.2946 -1.8094
 5353TIP3   OH216022   5.889   5.662   5.697 -0.0735 -0.4366 -0.3116
 5353TIP3    H116023   5.947   5.586   5.689  1.0923  0.4476 -0.5168
 5353TIP3    H216024   5.824   5.650   5.628  0.2439 -1.1273 -0.4970
 5354TIP3   OH216025   4.401   0.372   2.449 -0.0035 -0.3964  0.0338
 5354TIP3    H116026   4.429   0.420   2.527 -1.1064 -1.5450  1.2088
 5354TIP3    H216027   4.453   0.292   2.451  1.1264  0.2705 -1.3611
 5355TIP3   OH216028   2.823   0.922   2.450  0.2233 -0.1412 -0.0241
 5355TIP3    H116029   2.860   1.010   2.451 -1.3843  0.5712  0.3366
 5355TIP3    H216030   2.868   0.878   2.378 -0.5075  1.7075 -1.6871
 5356TIP3   OH216031   5.997   5.635   2.988  0.2418  0.1111  0.1490
 5356TIP3    H116032   5.906   5.645   3.018  0.3931  1.4301  0.1989
 5356TIP3    H216033   5.990   5.622   2.894  0.0662  1.7446 -0.0811
 5357TIP3   OH216034   5.032   4.175   1.094  0.4440 -0.0141 -0.4438
 5357TIP3    H116035   5.042   4.220   1.177  0.1037  0.2624 -0.5500
 5357TIP3    H216036   5.121   4.162   1.062  0.5230  2.2228 -1.2969
 5358TIP3   OH216037   6.142   2.019   1.889 -0.2981 -0.6463  0.0910
 5358TIP3    H116038   6.126   1.925   1.895 -3.0083 -0.3833 -1.5238
 5358TIP3    H216039   6.184   2.031   1.803 -0.1804 -0.3780  0.1843
 5359TIP3   OH216040   6.135   1.753   2.997 -0.2848  0.3309 -0.1088
 5359TIP3    H116041   6.096   1.762   2.910 -1.4082 -2.5764 -0.0323
 5359TIP3    H216042   6.230   1.753   2.982 -0.4299  1.4083 -1.1026
 5360TIP3   OH216043   4.950   3.050   2.249  0.0357 -0.1399 -0.4870
 5360TIP3    H116044   4.889   3.090   2.187 -1.5819  0.0345  1.1513
 5360TIP3    H216045   5.036   3.072   2.214 -0.8083  1.0736 -1.9478
 5361TIP3   OH216046   3.245   1.131   5.133  0.1101 -0.1222 -0.0469
 5361TIP3    H116047   3.245   1.189   5.057  0.1525  0.2763  0.2511
 5361TIP3    H216048   3.189   1.058   5.108  0.0254  0.0658 -0.4141
 5362TIP3   OH216049   5.136   1.808   4.400  0.1370  0.3296 -0.1146
 5362TIP3    H116050   5.042   1.800   4.414  0.1360 -1.6738 -0.9452
 5362TIP3    H216051   5.171   1.834   4.485 -1.0977  0.3623  0.3939
 5363TIP3   OH216052   6.399   6.155   4.888 -0.2260 -0.8198 -0.3199
 5363TIP3    H116053   6.404   6.074   4.837 -1.3158 -1.1187  0.0263
 5363TIP3    H216054   6.318   6.196   4.858 -1.3532 -1.4074  1.7511
 5364TIP3   OH216055   1.614   0.118   3.847  0.2130  0.3126 -0.1064
 5364TIP3    H116056   1.616   0.147   3.939  0.3001  0.6537 -0.2117
 5364TIP3    H216057   1.527   0.144   3.816  0.2963  0.4737 -0.2057
 5365TIP3   OH216058   4.100   5.074   5.534 -0.1153 -0.0408  0.2297
 5365TIP3    H116059   4.098   5.110   5.445  0.9777 -0.7952 -0.1217
 5365TIP3    H216060   4.138   5.144   5.587 -0.3667  0.2529  0.0312
 5366TIP3   OH216061   2.050   5.054   3.917 -0.2925  0.0153  0.3806
 5366TIP3    H116062   2.100   5.005   3.983  1.1607 -0.7827 -1.2363
 5366TIP3    H216063   2.052   5.144   3.948 -0.9538 -0.5369  2.1829
 5367TIP3   OH216064   1.414   5.542   1.549 -0.5516 -0.3274 -0.0756
 5367TIP3    H116065   1.391   5.544   1.642  0.6330 -1.6381  0.2681
 5367TIP3    H216066   1.360   5.472   1.513 -1.1643  0.3201 -0.4322
 5368TIP3   OH216067   0.513   5.245   1.282 -0.0446 -0.7397  0.1386
 5368TIP3    H116068   0.475   5.322   1.239  1.6525  0.9824  1.5418
 5368TIP3    H216069   0.477   5.247   1.371 -0.4624 -1.9612  0.0189
 5369TIP3   OH216070   1.646   1.844   0.804  0.1521 -0.0914  0.2457
 5369TIP3    H116071   1.646   1.935   0.774  1.5251 -0.2381 -0.2591
 5369TIP3    H216072   1.628   1.850   0.898 -0.0315  0.6796  0.1660
 5370TIP3   OH216073   5.365   4.786   5.670 -0.2667 -0.0768 -0.0032
 5370TIP3    H116074   5.325   4.707   5.705  0.6698 -0.9956 -0.9076
 5370TIP3    H216075   5.292   4.835   5.631 -0.6590 -1.2879 -0.8624
 5371TIP3   OH216076   6.353   3.855   4.107 -0.7064 -0.5946  0.1134
 5371TIP3    H116077   6.324   3.807   4.030 -0.7840  0.0728 -0.2784
 5371TIP3    H216078   6.355   3.790   4.177 -1.1087 -1.0990 -0.3428
 5372TIP3   OH216079   5.353   1.458   3.042  0.3294 -0.0066 -0.1568
 5372TIP3    H116080   5.270   1.436   3.002 -1.1072 -2.8728  3.7681
 5372TIP3    H216081   5.333   1.530   3.102  1.7170  2.0100 -1.9298
 5373TIP3   OH216082   1.061   3.263   1.817 -0.4894  0.5693 -0.6956
 5373TIP3    H116083   1.027   3.250   1.729  2.1650 -0.6245 -1.6265
 5373TIP3    H216084   1.148   3.300   1.805 -0.3134  1.0360  1.4742
 5374TIP3   OH216085   1.755   5.946   5.775  0.1650 -0.1312 -0.2801
 5374TIP3    H116086   1.709   5.887   5.715  0.4473  0.4844 -1.1277
 5374TIP3    H216087   1.842   5.908   5.783  0.1814 -0.1247 -0.4105
 5375TIP3   OH216088   5.165   3.340   1.227  0.5619 -0.0736  0.6846
 5375TIP3    H116089   5.244   3.320   1.177  0.7150  1.1072  0.4138
 5375TIP3    H216090   5.190   3.328   1.318  0.7387 -0.7414  0.5486
 5376TIP3   OH216091   1.184   5.500   3.512 -0.1056 -0.0674  0.1408
 5376TIP3    H116092   1.251   5.503   3.580  0.0535  0.0548 -0.0200
 5376TIP3    H216093   1.208   5.424   3.459  0.5774  0.6426 -0.5973
 5377TIP3   OH216094   2.180   4.024   3.421  0.5976 -0.1481 -0.1466
 5377TIP3    H116095   2.228   4.045   3.341  1.8858  1.8425  1.0511
 5377TIP3    H216096   2.246   3.988   3.480 -0.0315 -0.3130  0.4737
 5378TIP3   OH216097   1.472   1.618   2.632  0.2085  0.1947 -0.0048
 5378TIP3    H116098   1.404   1.651   2.572  0.5033 -0.6886 -0.8602
 5378TIP3    H216099   1.457   1.665   2.714 -1.6469 -0.2110 -0.0603
 5379TIP3   OH216100   4.767   1.559   0.072 -0.1561  0.3306 -0.2769
 5379TIP3    H116101   4.844   1.518   0.031  0.5486  0.4867  0.8474
 5379TIP3    H216102   4.790   1.652   0.076  0.6331  0.0977  2.1586
 5380TIP3   OH216103   3.718   4.505   2.332  0.3299 -0.2894 -0.0795
 5380TIP3    H116104   3.635   4.467   2.301  0.6480 -0.4755 -0.7314
 5380TIP3    H216105   3.692   4.581   2.383 -0.1893  0.9918 -2.1226
 5381TIP3   OH216106   3.922   1.145   4.543  0.0627 -0.0437  0.5371
 5381TIP3    H116107   4.017   1.155   4.550 -0.1287  1.5997  1.3032
 5381TIP3    H216108   3.887   1.199   4.614 -1.3981 -2.9271  2.1763
 5382TIP3   OH216109   5.555   5.015   1.613 -0.1517 -0.3704 -1.2107
 5382TIP3    H116110   5.611   5.092   1.624  0.0471 -0.6105 -0.4949
 5382TIP3    H216111   5.476   5.035   1.664 -1.2851  0.4873 -3.1909
 5383TIP3   OH216112   5.042   5.045   1.885  0.0199  0.0377  0.6088
 5383TIP3    H116113   4.962   4.994   1.880 -0.3749  0.4285  2.3078
 5383TIP3    H216114   5.081   5.020   1.968  1.5211  0.0842 -0.0545
 5384TIP3   OH216115   6.185   2.522   3.804  0.5407  0.2608 -0.0850
 5384TIP3    H116116   6.249   2.593   3.796 -0.2560  1.1523  1.1221
 5384TIP3    H216117   6.220   2.466   3.873  0.6315  0.0732 -0.2833
 5385TIP3   OH216118   1.127   0.270   2.906  0.0856 -0.3961  0.1891
 5385TIP3    H116119   1.090   0.192   2.865 -0.1019 -0.2474  0.0702
 5385TIP3    H216120   1.209   0.240   2.945  0.4238 -0.4723 -0.5549
 5386TIP3   OH216121   3.146   1.537   3.751  0.0277 -0.3676  0.5525
 5386TIP3    H116122   3.175   1.488   3.675 -2.5807  0.0779 -0.8716
 5386TIP3    H216123   3.212   1.520   3.818  2.3897 -0.8601 -1.7343
 5387TIP3   OH216124   6.976   2.491   5.604 -0.4427  0.6050 -0.1687
 5387TIP3    H116125   6.905   2.469   5.663  0.3080  1.6124  1.1663
 5387TIP3    H216126   6.980   2.587   5.606  2.3180  0.5611  1.5672
 5388TIP3   OH216127   6.997   6.101   4.721 -0.4371 -0.0436  0.1409
 5388TIP3    H116128   7.001   6.196   4.709  1.8299  0.0679  1.1349
 5388TIP3    H216129   7.025   6.088   4.812  0.6905 -1.7117 -0.4007
 5389TIP3   OH216130   1.208   3.059   2.453 -0.2307 -0.0154  0.0762
 5389TIP3    H116131   1.262   3.139   2.453 -1.1887  0.6722  1.1494
 5389TIP3    H216132   1.168   3.058   2.540  0.0396 -1.8833  0.2119
 5390TIP3   OH216133   0.341   5.609   4.113  0.3627  0.3743  0.2713
 5390TIP3    H116134   0.395   5.666   4.057  1.1908 -0.0300  0.6483
 5390TIP3    H216135   0.327   5.531   4.060  1.7891 -0.3353  0.8662
 5391TIP3   OH216136   0.521   2.248   5.730 -0.2943 -0.3986 -0.0750
 5391TIP3    H116137   0.547   2.319   5.788 -0.0294 -1.2079  0.8152
 5391TIP3    H216138   0.438   2.277   5.692 -1.2099 -0.4401  1.8006
 5392TIP3   OH216139   1.005   4.947   1.387 -0.2923 -0.1790  0.2383
 5392TIP3    H116140   0.972   4.879   1.447  0.9048 -1.1500 -0.1758
 5392TIP3    H216141   0.926   4.994   1.360 -1.0915 -1.0397  0.9764
 5393TIP3   OH216142   3.902   5.002   4.421 -0.4089  0.6089  0.1931
 5393TIP3    H116143   3.967   5.026   4.487 -1.2798  1.6186  0.7226
 5393TIP3    H216144   3.913   4.907   4.410  1.5110  0.8261 -0.1577
 5394TIP3   OH216145   0.659   5.561   1.823 -0.3203 -0.3593 -0.0275
 5394TIP3    H116146   0.708   5.614   1.885  0.8637 -0.1245 -1.1060
 5394TIP3    H216147   0.726   5.525   1.765 -1.2846 -1.4887 -0.4715
 5395TIP3   OH216148   4.447   0.033   0.285 -0.1929  0.0559 -0.0808
 5395TIP3    H116149   4.502  -0.044   0.269  1.5513  1.5004 -1.3993
 5395TIP3    H216150   4.482   0.071   0.365 -0.0133  0.3140 -0.2772
 5396TIP3   OH216151   0.066   1.925   2.456  0.1695  0.4155 -0.1810
 5396TIP3    H116152   0.052   2.017   2.477  0.1922  0.0481  1.7170
 5396TIP3    H216153   0.110   1.890   2.534  0.1516 -1.1842 -0.8594
 5397TIP3   OH216154   1.100   0.040   2.737  0.2120  0.3918 -0.0424
 5397TIP3    H116155   1.157   0.000   2.671 -0.6802  0.6776 -1.0045
 5397TIP3    H216156   1.062  -0.034   2.784  0.3235  0.1687 -0.3013
 5398TIP3   OH216157   0.066   3.383   0.260  0.3164  0.0336 -0.4374
 5398TIP3    H116158   0.144   3.435   0.276  0.7960 -0.3908 -1.3553
 5398TIP3    H216159   0.024   3.424   0.185  0.1489 -0.2912 -0.5238
 5399TIP3   OH216160   6.352   1.985   3.852 -0.4403 -0.2713 -0.6012
 5399TIP3    H116161   6.271   1.986   3.904  0.5126 -2.6808  1.0924
 5399TIP3    H216162   6.340   1.912   3.791  0.5092 -0.7973 -0.1798
 5400TIP3   OH216163   1.855   1.819   1.658 -0.1801  0.1453 -0.4828
 5400TIP3    H116164   1.881   1.753   1.722 -0.8120 -0.3294 -0.7000
 5400TIP3    H216165   1.935   1.868   1.639  0.3194 -0.6273 -0.3921
 5401TIP3   OH216166   0.512   2.085   5.488  0.2984  0.3056 -0.0666
 5401TIP3    H116167   0.421   2.067   5.463  0.6566 -0.9001 -0.5441
 5401TIP3    H216168   0.505   2.133   5.570 -0.7497 -0.7363  0.4711
 5402TIP3   OH216169   1.007   0.508   4.653 -0.9430  0.4621 -0.2766
 5402TIP3    H116170   0.956   0.456   4.591 -0.0920  1.0837 -1.5305
 5402TIP3    H216171   1.077   0.547   4.601  0.5216  0.0596  1.2969
 5403TIP3   OH216172   6.080   4.606   5.645  0.0948 -0.7168 -0.2763
 5403TIP3    H116173   6.169   4.642   5.640 -0.0585 -0.4283 -1.1716
 5403TIP3    H216174   6.067   4.565   5.559 -0.8733 -0.1797 -0.4000
 5404TIP3   OH216175   2.267   4.082   2.941 -0.0156  0.0989 -0.3887
 5404TIP3    H116176   2.303   4.105   3.027  0.5447 -1.6660 -0.1099
 5404TIP3    H216177   2.184   4.129   2.937 -0.9476 -1.1849  1.9332
 5405TIP3   OH216178   1.694   0.559   4.327  0.1146  0.2109  0.3580
 5405TIP3    H116179   1.646   0.500   4.268  0.0577 -0.9857  1.5404
 5405TIP3    H216180   1.631   0.627   4.350 -0.6289 -0.6280  0.8712
 5406TIP3   OH216181   0.165   1.547   0.445  0.0982  0.1478 -0.0745
 5406TIP3    H116182   0.114   1.628   0.443  1.8251  1.3102 -0.8112
 5406TIP3    H216183   0.118   1.489   0.504 -2.1913  1.0056 -0.9666
 5407TIP3   OH216184   4.911   3.292   3.069  0.6362  0.4479 -0.2104
 5407TIP3    H116185   4.932   3.223   3.131 -1.3345  0.2633  0.3023
 5407TIP3    H216186   4.980   3.286   3.003  1.4689 -0.8640  0.7311
 5408TIP3   OH216187   1.310   1.226   5.319 -0.4666 -0.3391  0.0190
 5408TIP3    H116188   1.216   1.234   5.305 -0.3005  1.1921 -0.3252
 5408TIP3    H216189   1.342   1.180   5.242 -0.7135  0.6411 -0.6849
 5409TIP3   OH216190   6.654   3.118   4.237  0.3130  0.2052 -0.6137
 5409TIP3    H116191   6.625   3.199   4.194 -1.2302  0.4569  0.7657
 5409TIP3    H216192   6.708   3.148   4.310  0.1435 -0.0254 -0.3924
 5410TIP3   OH216193   6.626   4.551   3.933  0.5573  0.3127 -0.7556
 5410TIP3    H116194   6.549   4.560   3.877  0.4173  0.9360 -0.4657
 5410TIP3    H216195   6.591   4.521   4.017  0.8918 -1.8848 -1.3426
 5411TIP3   OH216196   2.016   0.565   0.297  0.0372  0.0698 -0.6032
 5411TIP3    H116197   2.091   0.537   0.244  0.9453 -0.3980  0.8566
 5411TIP3    H216198   2.035   0.531   0.384 -0.0036  3.1605  0.7272
 5412TIP3   OH216199   3.368   2.051   3.601  0.2281 -0.3466  0.2407
 5412TIP3    H116200   3.420   2.033   3.679  2.4618 -1.1596 -1.3403
 5412TIP3    H216201   3.356   2.146   3.601 -0.6509 -0.4190  2.0182
 5413TIP3   OH216202   3.929   0.609   3.525  0.1588  0.4309  0.1450
 5413TIP3    H116203   3.946   0.670   3.597  1.5189 -0.8323  0.9517
 5413TIP3    H216204   3.849   0.564   3.551  0.9157 -0.3732  1.1584
 5414TIP3   OH216205   2.057   5.345   0.420 -0.2028  0.1906 -0.3182
 5414TIP3    H116206   2.093   5.405   0.485 -0.7115 -0.2904  0.4314
 5414TIP3    H216207   2.097   5.261   0.441 -0.7688 -0.0790 -0.2863
 5415TIP3   OH216208   6.065   3.370   3.002 -0.5346 -0.4770 -0.3975
 5415TIP3    H116209   6.005   3.358   3.075 -0.6791  1.9961 -0.0149
 5415TIP3    H216210   6.008   3.370   2.924 -0.8462  0.2775 -0.1789
 5416TIP3   OH216211   5.318   6.219   1.372  0.1454  0.8301 -0.1630
 5416TIP3    H116212   5.225   6.240   1.360  0.0528  0.1467 -0.7097
 5416TIP3    H216213   5.346   6.275   1.444 -1.2076 -0.3838  1.4159
 5417TIP3   OH216214   0.956   5.505   1.329 -0.0936  0.5791  0.0437
 5417TIP3    H116215   1.005   5.576   1.289 -0.8334  1.1007  0.0509
 5417TIP3    H216216   0.909   5.464   1.257 -1.4419  1.5305  0.3547
 5418TIP3   OH216217   7.187   4.913   5.181  0.3004  0.6649  0.0116
 5418TIP3    H116218   7.143   4.878   5.258  0.6375  2.1668  0.9420
 5418TIP3    H216219   7.116   4.940   5.123  0.0306 -1.9746 -0.9968
 5419TIP3   OH216220   3.896   5.829   3.215 -0.0790  0.3154  0.0861
 5419TIP3    H116221   3.966   5.832   3.280  1.5071 -1.2000 -1.4581
 5419TIP3    H216222   3.825   5.779   3.257  0.6190 -0.0207  0.8881
 5420TIP3   OH216223   1.364   3.326   2.785 -0.3722  0.4091  0.6319
 5420TIP3    H116224   1.385   3.261   2.852 -0.7802 -0.6102 -0.2108
 5420TIP3    H216225   1.367   3.278   2.703 -0.7549  1.4475 -0.0110
 5421TIP3   OH216226   2.993   2.811   0.296  0.3554  0.0055 -0.5120
 5421TIP3    H116227   2.963   2.841   0.382 -0.0017  1.0589 -0.9800
 5421TIP3    H216228   3.083   2.842   0.290  0.3783 -0.0622 -0.5179
 5422TIP3   OH216229   3.500   3.579   2.218 -0.7748  0.0128  0.1548
 5422TIP3    H116230   3.415   3.603   2.184 -0.2161  2.1622  0.1309
 5422TIP3    H216231   3.488   3.577   2.313 -0.7064  1.0088  0.1914
 5423TIP3   OH216232   6.688   2.004   3.155  0.2190  0.2001  0.6662
 5423TIP3    H116233   6.597   1.978   3.143 -0.3803  2.1794  0.4930
 5423TIP3    H216234   6.725   1.939   3.215 -1.6097 -0.0089  1.6127
 5424TIP3   OH216235   0.036   4.655   0.386  0.4355 -0.1742  0.2585
 5424TIP3    H116236   0.100   4.611   0.441  0.3089 -1.3037 -0.4697
 5424TIP3    H216237   0.075   4.740   0.367  2.1061 -1.1182 -0.8075
 5425TIP3   OH216238   0.066   3.997   5.587 -0.3953  0.0268  0.4966
 5425TIP3    H116239  -0.028   3.988   5.575 -0.4257 -1.8450  1.7542
 5425TIP3    H216240   0.098   4.033   5.503 -2.1011 -0.0075 -0.2031
 5426TIP3   OH216241   4.350   0.309   4.283  0.4340 -0.3835  0.0470
 5426TIP3    H116242   4.398   0.231   4.311 -0.3727 -0.9303 -0.0431
 5426TIP3    H216243   4.379   0.324   4.193 -0.6551 -1.6442 -0.5716
 5427TIP3   OH216244   4.469   3.767   5.471 -0.4377  0.0664  0.1403
 5427TIP3    H116245   4.490   3.831   5.403 -1.0908  1.2199  1.0001
 5427TIP3    H216246   4.379   3.788   5.496 -0.4540 -0.8138  0.8627
 5428TIP3   OH216247   2.893   4.645   4.171  0.4107  0.2082  0.3466
 5428TIP3    H116248   2.798   4.627   4.171  0.0523  1.5766 -2.9066
 5428TIP3    H216249   2.932   4.560   4.191 -1.4809 -1.7039 -3.0443
 5429TIP3   OH216250   5.816   2.269   3.851  0.4266  0.1739 -0.3930
 5429TIP3    H116251   5.887   2.273   3.788 -0.6590  0.1635 -1.6758
 5429TIP3    H216252   5.737   2.287   3.799 -0.6833 -1.4156  0.6446
 5430TIP3   OH216253   1.070   3.155   2.695 -0.1255 -0.8079 -0.2292
 5430TIP3    H116254   1.041   3.222   2.633  1.6884 -0.3960 -0.6750
 5430TIP3    H216255   0.990   3.133   2.744 -1.0166  0.8297 -0.8480
 5431TIP3   OH216256   1.466   3.767   1.970  0.1253  0.1295 -0.3912
 5431TIP3    H116257   1.526   3.839   1.952 -1.6858  2.3595  1.6763
 5431TIP3    H216258   1.509   3.717   2.039  0.4356  0.6324 -0.2111
 5432TIP3   OH216259   5.702   2.944   4.825  0.2116 -0.0061 -0.3727
 5432TIP3    H116260   5.659   3.010   4.770  0.9327  0.2680 -0.6217
 5432TIP3    H216261   5.794   2.970   4.826  0.6522 -1.4195 -1.0646
 5433TIP3   OH216262   0.796   0.874   0.871  0.1462 -0.3396  0.0429
 5433TIP3    H116263   0.831   0.949   0.824 -1.3153  0.5710  0.3419
 5433TIP3    H216264   0.785   0.806   0.804  1.5148 -0.3265 -0.2194
 5434TIP3   OH216265   5.158   1.273   4.069 -0.1549  0.0259 -0.6511
 5434TIP3    H116266   5.190   1.188   4.098  0.1740  0.5498  0.5770
 5434TIP3    H216267   5.125   1.258   3.980  2.3506 -0.7930 -1.4983
 5435TIP3   OH216268   4.835   6.318   5.289 -0.4862  0.2009 -0.0701
 5435TIP3    H116269   4.892   6.247   5.259 -0.4258  1.0149 -1.9895
 5435TIP3    H216270   4.894   6.380   5.331 -0.1192  0.4638 -0.9609
 5436TIP3   OH216271   2.915   1.732   0.981 -0.5751  0.8769  0.3693
 5436TIP3    H116272   2.860   1.664   1.020 -1.0599  1.4084  0.6336
 5436TIP3    H216273   2.992   1.735   1.038  0.2050 -0.5164 -0.5332
 5437TIP3   OH216274   1.765   1.541   3.256  0.5255 -0.0149  0.4721
 5437TIP3    H116275   1.849   1.586   3.246  0.0277  0.3676 -3.2441
 5437TIP3    H216276   1.704   1.609   3.282  0.3437  1.0006 -2.3370
 5438TIP3   OH216277   1.059   1.861   5.388 -0.1615 -0.4218  0.2123
 5438TIP3    H116278   1.109   1.886   5.310  0.0304  3.4522  1.3539
 5438TIP3    H216279   1.107   1.787   5.425  0.6578 -1.3172 -2.3951
 5439TIP3   OH216280   3.926   3.759   0.885  0.2206  0.3731  0.0799
 5439TIP3    H116281   3.916   3.808   0.804 -0.1968 -0.0458 -0.1294
 5439TIP3    H216282   3.843   3.772   0.931  0.0690 -0.1998 -0.0187
 5440TIP3   OH216283   4.458   4.729   3.505 -0.3346  0.7684  0.1950
 5440TIP3    H116284   4.489   4.781   3.580 -0.9459  0.5097  0.6382
 5440TIP3    H216285   4.401   4.663   3.544  0.0123  0.0964 -0.4228
 5441TIP3   OH216286   5.201   5.342   4.481  0.2802 -1.0178  0.4704
 5441TIP3    H116287   5.184   5.435   4.497 -2.2561 -1.3222 -0.0074
 5441TIP3    H216288   5.257   5.341   4.404 -1.8175  0.1380 -1.1866
 5442TIP3   OH216289   2.157   4.293   4.704  0.6285  0.4000  0.0850
 5442TIP3    H116290   2.203   4.313   4.622 -0.6611  2.7097 -0.1634
 5442TIP3    H216291   2.064   4.298   4.681  0.2370 -0.4287  1.3792
 5443TIP3   OH216292   5.911   2.128   2.859 -0.6932 -0.0087  0.6447
 5443TIP3    H116293   5.932   2.072   2.785  0.8610 -0.0143  1.0603
 5443TIP3    H216294   5.918   2.217   2.826 -0.9308 -0.0181  0.5628
 5444TIP3   OH216295   4.170   3.485   1.584 -0.3334  0.0584  0.1500
 5444TIP3    H116296   4.195   3.568   1.627 -1.0290  0.6998 -0.6558
 5444TIP3    H216297   4.129   3.434   1.654  0.4617  0.2266  0.7560
 5445TIP3   OH216298   2.358   2.414   2.200 -0.0493  0.0586  0.0599
 5445TIP3    H116299   2.291   2.476   2.227  0.9904  0.3960  2.1288
 5445TIP3    H216300   2.408   2.397   2.280  2.4619  0.0051 -1.3904
 5446TIP3   OH216301   3.594   3.753   0.469  0.0055 -0.0786 -0.4989
 5446TIP3    H116302   3.538   3.694   0.520 -0.9182  0.1740 -1.2011
 5446TIP3    H216303   3.676   3.756   0.519  0.2290 -2.2318 -0.6291
 5447TIP3   OH216304   2.374   1.356   4.602  0.0197  0.1428 -0.0163
 5447TIP3    H116305   2.324   1.315   4.533 -2.0500  0.9411  0.9344
 5447TIP3    H216306   2.322   1.432   4.629  1.2151  0.4180  1.7521
 5448TIP3   OH216307   0.330   0.761   5.888 -0.0959 -0.0262 -0.1150
 5448TIP3    H116308   0.344   0.822   5.816 -0.3998  1.5765  1.1070
 5448TIP3    H216309   0.235   0.756   5.899 -0.0444  0.4657  0.7087
 5449TIP3   OH216310   7.153   3.384   5.567  0.2104  1.0060 -0.6813
 5449TIP3    H116311   7.181   3.298   5.538  0.1793  1.0112 -0.7268
 5449TIP3    H216312   7.131   3.431   5.487 -1.9508  0.3036 -0.5554
 5450TIP3   OH216313   1.563   3.390   3.076  0.3407 -0.1920  0.1397
 5450TIP3    H116314   1.512   3.313   3.051 -3.4374  2.4657 -1.2440
 5450TIP3    H216315   1.606   3.417   2.995  1.1449 -0.4652  0.4695
 5451TIP3   OH216316   5.495   5.720   2.004 -0.2120 -0.7125 -0.2804
 5451TIP3    H116317   5.467   5.778   1.933  0.0210 -0.6536 -0.3247
 5451TIP3    H216318   5.562   5.665   1.964  2.2627  1.3962  0.6556
 5452TIP3   OH216319   6.807   6.263   1.298  0.5329 -0.2776  0.1427
 5452TIP3    H116320   6.787   6.297   1.385  0.0033 -0.9498  0.2970
 5452TIP3    H216321   6.901   6.276   1.288  0.5277  0.1799  0.6486
 5453TIP3   OH216322   2.786   4.360   0.926 -0.1617  0.1024  0.2315
 5453TIP3    H116323   2.734   4.353   1.006  0.4611  1.5642  0.8116
 5453TIP3    H216324   2.874   4.332   0.952 -0.0099  0.3618  0.0075
 5454TIP3   OH216325   2.434   0.742   5.448 -0.3548  0.2401 -0.6118
 5454TIP3    H116326   2.501   0.794   5.494  0.3301 -0.7579 -0.4587
 5454TIP3    H216327   2.480   0.664   5.419 -0.4726  1.2833 -4.0080
 5455TIP3   OH216328   0.465   0.963   2.128 -0.6689 -0.0163 -0.2827
 5455TIP3    H116329   0.370   0.957   2.114 -0.5634 -0.8226 -0.7166
 5455TIP3    H216330   0.503   0.947   2.042 -0.1657  3.0219 -0.7360
 5456TIP3   OH216331   6.803   1.255   5.008  0.0959 -0.3210 -0.0988
 5456TIP3    H116332   6.791   1.230   4.916  0.5908  2.6671 -1.0832
 5456TIP3    H216333   6.714   1.268   5.041 -0.0653 -0.9884 -0.2435
 5457TIP3   OH216334   6.654   0.655   0.089  0.4682 -0.0022 -0.2761
 5457TIP3    H116335   6.619   0.628   0.174  0.2455  0.2258 -0.2933
 5457TIP3    H216336   6.655   0.575   0.037 -0.5046  0.0742 -0.4335
 5458TIP3   OH216337   0.922   4.337   4.519  0.0658  0.2057 -0.5934
 5458TIP3    H116338   0.833   4.313   4.547  0.1038  1.8345  1.0686
 5458TIP3    H216339   0.976   4.262   4.546 -0.6170 -0.3197 -0.6443
 5459TIP3   OH216340   6.045   1.223   0.604  0.4522  0.2619  0.3922
 5459TIP3    H116341   5.995   1.143   0.621  1.9309 -0.5753  1.0263
 5459TIP3    H216342   6.117   1.195   0.547 -0.1680  1.5828 -1.1092
 5460TIP3   OH216343   1.259   2.296   1.069 -0.3831  0.4266 -0.5623
 5460TIP3    H116344   1.246   2.245   0.989  0.8037  0.8498 -1.0382
 5460TIP3    H216345   1.340   2.344   1.054 -0.0051  0.3257  0.9983
 5461TIP3   OH216346   1.756   1.342   5.413 -0.6739  0.2963  0.8528
 5461TIP3    H116347   1.845   1.316   5.388 -0.8688 -1.3204  1.7036
 5461TIP3    H216348   1.746   1.430   5.377 -0.1137 -0.9075 -2.5758
 5462TIP3   OH216349   5.114   3.504   5.570  0.6457  0.3025 -0.6501
 5462TIP3    H116350   5.023   3.474   5.559  0.6421 -1.4761  2.6777
 5462TIP3    H216351   5.106   3.590   5.610  0.3943  0.1087 -0.2721
 5463TIP3   OH216352   0.095   4.337   0.266 -0.5348  0.0247 -0.3693
 5463TIP3    H116353   0.038   4.311   0.339 -0.4757  0.3750 -0.1992
 5463TIP3    H216354   0.125   4.254   0.230 -0.4793 -0.1517  0.0723
 5464TIP3   OH216355   2.568   4.564   3.073 -0.5128  0.0773 -0.0701
 5464TIP3    H116356   2.528   4.509   3.005  1.2290 -1.1548 -0.1612
 5464TIP3    H216357   2.636   4.509   3.111  0.0122  1.5334  1.1857
 5465TIP3   OH216358   1.111   2.259   0.207 -0.2650  0.3519 -0.3503
 5465TIP3    H116359   1.038   2.312   0.175 -0.4413  0.1180 -0.3331
 5465TIP3    H216360   1.133   2.201   0.135  0.1765  0.7015 -0.5053
 5466TIP3   OH216361   6.113   6.323   4.047 -0.6895  0.2153 -0.0762
 5466TIP3    H116362   6.050   6.259   4.079  0.2959 -0.3180  0.8734
 5466TIP3    H216363   6.062   6.383   3.993 -1.1676 -3.2876 -3.9884
 5467TIP3   OH216364   0.943   2.373   0.890 -0.1305  0.3840  0.4241
 5467TIP3    H116365   0.848   2.360   0.883 -0.0839  0.6913 -1.0687
 5467TIP3    H216366   0.980   2.285   0.891 -0.4168  0.2667  0.7285
 5468TIP3   OH216367   4.113   4.002   0.294  0.9687 -0.0917 -0.3451
 5468TIP3    H116368   4.089   4.056   0.369 -1.1041  0.0065 -1.0240
 5468TIP3    H216369   4.157   4.062   0.234 -1.4550  0.9881 -1.1678
 5469TIP3   OH216370   5.153   4.023   2.095 -0.2396  0.3902  0.7211
 5469TIP3    H116371   5.161   4.118   2.086  0.8070  0.1691 -1.1571
 5469TIP3    H216372   5.215   3.999   2.163  1.2220  0.8386 -0.4012
 5470TIP3   OH216373   4.649   3.338   0.503 -0.1527  0.1738  0.9028
 5470TIP3    H116374   4.587   3.386   0.449 -0.9592 -1.4006  0.3582
 5470TIP3    H216375   4.733   3.381   0.489 -0.5187  0.3451 -0.9093
 5471TIP3   OH216376   4.854   1.908   2.088 -0.3354  0.4455 -0.3953
 5471TIP3    H116377   4.901   1.991   2.100 -0.2518  0.4864 -0.9480
 5471TIP3    H216378   4.919   1.841   2.108 -0.4820  0.5096  0.3254
 5472TIP3   OH216379   6.997   4.004   3.704 -0.1232 -0.5384  0.2162
 5472TIP3    H116380   7.017   4.041   3.618  0.4768 -2.5674 -0.5832
 5472TIP3    H216381   7.032   3.915   3.700  0.4228 -0.5200  2.7767
 5473TIP3   OH216382   7.025   6.379   0.930 -0.2752  0.5779  0.3155
 5473TIP3    H116383   7.093   6.356   0.993 -0.6472 -1.0704  0.1546
 5473TIP3    H216384   6.943   6.376   0.979 -0.6115 -1.0879 -0.2664
 5474TIP3   OH216385   6.300   4.740   2.738  0.1045 -0.6081  0.0523
 5474TIP3    H116386   6.315   4.821   2.787  1.4391 -0.6879 -0.2009
 5474TIP3    H216387   6.224   4.759   2.684  0.3786  0.4716  0.0190
 5475TIP3   OH216388   6.356   2.438   1.293 -0.0191  0.3021 -0.5739
 5475TIP3    H116389   6.364   2.362   1.351  0.3097 -0.3141 -1.4087
 5475TIP3    H216390   6.438   2.486   1.304 -0.4325  0.8407  0.3417
 5476TIP3   OH216391   4.839   2.284   5.790  0.4867  0.4557  0.3514
 5476TIP3    H116392   4.912   2.252   5.737 -1.0200 -2.1770 -0.3312
 5476TIP3    H216393   4.768   2.297   5.727 -1.5383 -3.3385  1.5725
 5477TIP3   OH216394   6.588   5.819   5.573 -0.1585 -0.1834 -0.4736
 5477TIP3    H116395   6.565   5.900   5.528 -0.4998 -0.6213 -1.1046
 5477TIP3    H216396   6.684   5.817   5.573  0.0221  1.8032  2.4334
 5478TIP3   OH216397   3.864   6.528   4.400  0.1377  0.1390 -0.2202
 5478TIP3    H116398   3.835   6.520   4.491  0.9812  0.3752  0.0693
 5478TIP3    H216399   3.953   6.494   4.400  0.3489  0.6821 -0.8464
 5479TIP3   OH216400   1.476   4.417   2.574 -0.6807 -0.0663 -0.1313
 5479TIP3    H116401   1.472   4.511   2.556  3.0109  0.0602 -1.1482
 5479TIP3    H216402   1.496   4.411   2.667 -1.1674  0.1333 -0.0114
 5480TIP3   OH216403   6.405   6.149   3.699 -0.3309 -0.2490  0.5524
 5480TIP3    H116404   6.380   6.155   3.791  0.2178  0.5762  0.6600
 5480TIP3    H216405   6.499   6.136   3.700 -0.3871 -0.7237  0.1106
 5481TIP3   OH216406   0.984   3.417   4.072 -0.4626  0.4027  0.1842
 5481TIP3    H116407   1.072   3.455   4.065 -1.0895  1.8190 -0.4565
 5481TIP3    H216408   0.926   3.493   4.082 -1.6922 -0.4648 -0.1394
 5482TIP3   OH216409   0.887   1.236   4.296  0.1796 -0.4506 -0.5061
 5482TIP3    H116410   0.807   1.286   4.315 -0.0617 -1.2411  0.6533
 5482TIP3    H216411   0.920   1.211   4.382  1.1115 -1.0262 -1.0189
 5483TIP3   OH216412   3.297   5.158   5.571 -0.3707 -0.0082  0.3572
 5483TIP3    H116413   3.221   5.107   5.546 -1.2012  0.3722  1.9972
 5483TIP3    H216414   3.308   5.222   5.500 -0.5725 -1.0947 -0.6755
 5484TIP3   OH216415   2.712   3.405   0.437 -0.1387 -0.7200 -0.5584
 5484TIP3    H116416   2.705   3.411   0.532 -2.3201  0.6244 -0.7404
 5484TIP3    H216417   2.767   3.480   0.412 -1.7977  0.5854 -0.4942
 5485TIP3   OH216418   3.137   1.740   2.602  0.7696 -0.6548 -0.3701
 5485TIP3    H116419   3.096   1.814   2.557  0.6894  0.0695  0.8566
 5485TIP3    H216420   3.212   1.778   2.648  1.9433 -1.6958 -1.3145
 5486TIP3   OH216421   4.344   3.277   1.532  0.2183 -0.5093  0.0568
 5486TIP3    H116422   4.276   3.209   1.540  1.0065 -1.2295  0.7796
 5486TIP3    H216423   4.298   3.358   1.552 -0.4551 -0.9850  0.5048
 5487TIP3   OH216424   4.367   3.635   2.746 -0.4638 -0.7130  0.6426
 5487TIP3    H116425   4.424   3.606   2.675  1.5620  1.4745  1.2588
 5487TIP3    H216426   4.283   3.652   2.703  0.5187 -0.0767 -1.1415
 5488TIP3   OH216427   6.608   6.465   4.925 -0.5015  0.1415  0.1038
 5488TIP3    H116428   6.638   6.416   5.001 -2.0172 -1.2477 -0.1341
 5488TIP3    H216429   6.526   6.505   4.953 -1.4965 -1.0343 -0.9642
 5489TIP3   OH216430   6.087   3.397   5.606  0.4961  1.0211 -0.2403
 5489TIP3    H116431   6.077   3.466   5.672  1.5561 -0.0460  1.1171
 5489TIP3    H216432   6.102   3.317   5.657  1.5872  0.1801 -1.7813
 5490TIP3   OH216433   0.527   2.773   3.920 -0.3921 -0.6149  0.1727
 5490TIP3    H116434   0.549   2.687   3.884 -0.9099 -0.9099  0.5484
 5490TIP3    H216435   0.446   2.759   3.969  1.2912 -0.7183  3.1706
 5491TIP3   OH216436   2.720   3.271   2.960 -1.5369  0.1760 -0.3288
 5491TIP3    H116437   2.708   3.324   2.882 -3.0999  0.2570 -0.0679
 5491TIP3    H216438   2.642   3.215   2.964 -1.2717 -0.1556  0.9162
 5492TIP3   OH216439   6.398   3.314   5.714  0.4969  0.1019  0.0140
 5492TIP3    H116440   6.484   3.340   5.682  0.1448  3.3107  1.3212
 5492TIP3    H216441   6.337   3.367   5.663 -0.6959 -1.4571 -0.2559
 5493TIP3   OH216442   1.818   1.539   2.067  0.2611 -0.2871  0.1720
 5493TIP3    H116443   1.748   1.604   2.073  0.7026  0.1742  0.4933
 5493TIP3    H216444   1.868   1.551   2.147  0.6243 -0.7105  0.0134
 5494TIP3   OH216445   1.506   4.924   0.878  0.1446 -0.1275  0.4648
 5494TIP3    H116446   1.534   4.896   0.966 -0.9557 -0.8398  0.6039
 5494TIP3    H216447   1.521   4.847   0.823  1.7425  0.6134 -0.2125
 5495TIP3   OH216448   3.235   6.158   2.191  0.1415  0.2513 -0.3542
 5495TIP3    H116449   3.223   6.193   2.103  0.9028  1.5582  0.0380
 5495TIP3    H216450   3.182   6.216   2.247 -1.1654 -1.1707 -0.0362
 5496TIP3   OH216451   6.936   1.968   4.484  0.6889 -0.3413 -0.1393
 5496TIP3    H116452   7.030   1.948   4.487  0.8571  0.2060 -1.0694
 5496TIP3    H216453   6.921   2.025   4.559  1.1370 -0.3081 -0.0692
 5497TIP3   OH216454   5.028   6.085   0.453 -0.5301  0.2086 -0.4665
 5497TIP3    H116455   5.012   5.996   0.484 -0.5115  0.6258  0.8340
 5497TIP3    H216456   5.122   6.099   0.465  0.2580 -0.8203 -4.2012
 5498TIP3   OH216457   2.091   6.512   1.464  0.1716  0.3819  0.5948
 5498TIP3    H116458   2.028   6.584   1.462  1.3068  1.4484  1.4522
 5498TIP3    H216459   2.148   6.528   1.389  1.2727  1.2150  1.5706
 5499TIP3   OH216460   6.140   3.408   1.435 -0.5602 -0.1069  0.0193
 5499TIP3    H116461   6.058   3.367   1.409 -0.4969 -1.5734  1.9361
 5499TIP3    H216462   6.115   3.473   1.501 -0.1363 -1.3724  1.4831
 5500TIP3   OH216463   1.491   4.960   1.961 -0.3807 -0.2437 -0.0512
 5500TIP3    H116464   1.583   4.978   1.942 -0.2983 -0.6805 -0.0851
 5500TIP3    H216465   1.492   4.873   2.001 -0.7980 -0.3208 -0.2070
 5501TIP3   OH216466   0.022   3.691   0.379  0.7079 -0.1735 -0.0816
 5501TIP3    H116467  -0.003   3.762   0.439  3.4873  2.6157 -1.9191
 5501TIP3    H216468   0.074   3.632   0.433 -0.4127 -0.0814  1.1703
 5502TIP3   OH216469   2.033   5.456   4.461 -0.3796 -0.2889 -0.2924
 5502TIP3    H116470   2.011   5.472   4.553 -2.1602  1.8774 -1.0166
 5502TIP3    H216471   1.985   5.376   4.439 -2.8253  1.0361 -0.1660
 5503TIP3   OH216472   0.153   0.590   1.485  0.4736  0.0620 -0.3332
 5503TIP3    H116473   0.133   0.637   1.566  0.6317 -2.0683  1.0229
 5503TIP3    H216474   0.069   0.581   1.440  0.0795 -0.1580  0.4246
 5504TIP3   OH216475   3.608   2.708   5.425  0.3260 -0.3557 -0.1836
 5504TIP3    H116476   3.601   2.737   5.515  1.0645  0.2656 -0.3135
 5504TIP3    H216477   3.691   2.744   5.394 -0.7392  0.9814 -1.6762
 5505TIP3   OH216478   2.495   6.554   3.651 -0.1527  0.2783  0.0502
 5505TIP3    H116479   2.571   6.496   3.664  0.4587  0.7186 -1.3411
 5505TIP3    H216480   2.504   6.584   3.560  0.1741  3.4394  1.0043
 5506TIP3   OH216481  -0.001   3.790   3.358 -0.2632 -0.2449  0.2991
 5506TIP3    H116482   0.045   3.757   3.435  1.5457  1.2683 -0.0559
 5506TIP3    H216483   0.037   3.877   3.343 -0.6541 -0.4318 -2.2028
 5507TIP3   OH216484   3.682   0.353   2.202 -0.0621 -0.1083  0.0566
 5507TIP3    H116485   3.641   0.438   2.187  1.4339  0.8635  1.0968
 5507TIP3    H216486   3.758   0.373   2.257  0.2528 -2.1508  0.4438
 5508TIP3   OH216487   2.347   5.685   5.122  0.5041  0.0333  0.1678
 5508TIP3    H116488   2.263   5.727   5.143  0.0499 -0.4592 -0.5773
 5508TIP3    H216489   2.363   5.709   5.031 -0.3227 -2.2501 -0.6477
 5509TIP3   OH216490   1.898   3.297   3.878  0.2129 -0.0103  0.2927
 5509TIP3    H116491   1.897   3.203   3.858 -1.2374  0.1100 -0.3029
 5509TIP3    H216492   1.842   3.306   3.955 -0.4727  0.4808 -0.2549
 5510TIP3   OH216493   6.161   5.240   4.453  0.1844 -0.2603  0.4649
 5510TIP3    H116494   6.092   5.185   4.415  0.7109 -0.2567 -0.5073
 5510TIP3    H216495   6.238   5.224   4.399  0.3551  1.4426  0.1529
 5511TIP3   OH216496   5.405   0.399   0.230 -0.1465 -0.4362 -0.3217
 5511TIP3    H116497   5.332   0.425   0.173 -0.2117  2.6379  0.9573
 5511TIP3    H216498   5.368   0.335   0.290 -0.4076 -2.7412 -2.7485
 5512TIP3   OH216499   6.873   3.911   3.033 -0.4000  0.5324 -0.1052
 5512TIP3    H116500   6.816   3.874   3.100  0.7483  0.6233  0.9579
 5512TIP3    H216501   6.905   3.993   3.071 -0.2941  0.9523 -1.0640
 5513TIP3   OH216502   4.536   5.897   2.394  0.1350  0.0839  0.0759
 5513TIP3    H116503   4.443   5.876   2.398 -0.0843  0.8811 -0.4702
 5513TIP3    H216504   4.545   5.952   2.317  1.0628  0.0350  0.1315
 5514TIP3   OH216505   1.769   6.532   1.349 -0.0462 -0.8796  0.1952
 5514TIP3    H116506   1.812   6.600   1.297 -1.4903  0.7788  1.0496
 5514TIP3    H216507   1.681   6.525   1.313 -0.7071 -0.5026  1.6307
 5515TIP3   OH216508   5.100   4.603   0.021  0.6169  0.1800  0.0999
 5515TIP3    H116509   5.136   4.524   0.060 -0.8898 -0.6944 -0.2028
 5515TIP3    H216510   5.102   4.587  -0.073  1.1966  0.9285 -0.0315
 5516TIP3   OH216511   5.697   1.099   2.786 -0.2945 -0.3706 -0.4330
 5516TIP3    H116512   5.731   1.142   2.865  0.0239  0.0571 -0.7971
 5516TIP3    H216513   5.762   1.118   2.719  0.3382 -2.2243 -0.3970
 5517TIP3   OH216514   5.177   5.612   4.495 -0.2117  0.0381 -0.0708
 5517TIP3    H116515   5.113   5.683   4.485  0.2534  0.6057  0.8627
 5517TIP3    H216516   5.221   5.632   4.577  0.1990 -1.1256 -0.0003
 5518TIP3   OH216517   4.149   0.213   0.949 -0.3186  0.1563 -0.3160
 5518TIP3    H116518   4.158   0.277   1.020 -0.7569  0.2296 -0.3245
 5518TIP3    H216519   4.239   0.191   0.925 -0.1683  0.2243  0.1786
 5519TIP3   OH216520   3.498   2.910   2.392 -0.1097 -0.0063  0.4410
 5519TIP3    H116521   3.529   2.892   2.303  0.6837  0.4775  0.6135
 5519TIP3    H216522   3.413   2.866   2.397 -1.2746  1.8954 -1.3357
 5520TIP3   OH216523   0.504   3.650   1.775 -0.3064 -0.0639  0.0969
 5520TIP3    H116524   0.411   3.634   1.757 -0.4628 -1.4698  1.8407
 5520TIP3    H216525   0.549   3.574   1.737  0.3859  1.3857 -2.1865
 5521TIP3   OH216526   0.470   6.273   3.903 -0.2756  0.4615  0.3246
 5521TIP3    H116527   0.537   6.283   3.970 -0.6984 -2.1285  1.2541
 5521TIP3    H216528   0.396   6.231   3.948 -1.4683  0.7348 -1.2715
 5522TIP3   OH216529   6.361   4.670   1.232 -0.2813 -0.2402 -0.0680
 5522TIP3    H116530   6.431   4.653   1.295 -1.3791 -0.4501  1.1513
 5522TIP3    H216531   6.347   4.764   1.236 -0.8343 -0.3344  0.5884
 5523TIP3   OH216532   3.318   0.158   4.508 -0.5618 -0.4157  0.6005
 5523TIP3    H116533   3.356   0.167   4.595 -0.0944 -3.0491  0.7373
 5523TIP3    H216534   3.282   0.245   4.489  0.3620  0.5566  2.8907
 5524TIP3   OH216535   6.882   2.811   1.325 -0.3111 -0.6069 -0.6799
 5524TIP3    H116536   6.945   2.845   1.388  0.9016 -0.2571 -2.0254
 5524TIP3    H216537   6.803   2.864   1.339 -0.0343 -0.4729  0.4574
 5525TIP3   OH216538   0.485   6.536   0.347  0.4034  0.1086 -0.2638
 5525TIP3    H116539   0.558   6.597   0.363 -0.4149  1.1231 -0.2699
 5525TIP3    H216540   0.407   6.586   0.371 -0.3374 -0.7658 -0.8093
 5526TIP3   OH216541   1.523   0.802   4.100 -0.2841  0.1636 -0.2174
 5526TIP3    H116542   1.600   0.762   4.061 -1.2274  0.1992 -2.2943
 5526TIP3    H216543   1.538   0.896   4.091 -0.0675  0.1934  0.4441
 5527TIP3   OH216544   4.875   2.869   2.709  0.0064 -0.8456  0.3481
 5527TIP3    H116545   4.939   2.893   2.642 -1.5362 -0.7441 -1.1490
 5527TIP3    H216546   4.924   2.872   2.791  1.9512 -0.9597 -0.7584
 5528TIP3   OH216547   0.776   3.499   0.956  0.4436  0.7590  0.3500
 5528TIP3    H116548   0.727   3.419   0.936  1.4094  0.2897 -0.1828
 5528TIP3    H216549   0.849   3.470   1.011  0.2785  1.4195  0.9330
 5529TIP3   OH216550   4.789   5.712   4.568 -1.0353 -0.4912  0.1636
 5529TIP3    H116551   4.734   5.779   4.608 -0.6860 -0.5889  0.8108
 5529TIP3    H216552   4.863   5.760   4.532  0.4173 -0.7119  2.6445
 5530TIP3   OH216553   0.044   1.330   5.581  0.0753 -0.7122  0.3443
 5530TIP3    H116554   0.095   1.249   5.580 -0.2159 -0.8948  0.3794
 5530TIP3    H216555  -0.009   1.326   5.501  0.1377 -0.5071  0.2915
 5531TIP3   OH216556   3.999   5.851   3.461 -0.0614  0.2740 -0.1520
 5531TIP3    H116557   4.062   5.919   3.486  2.5506 -1.8849 -0.3643
 5531TIP3    H216558   4.005   5.786   3.532 -2.2385  0.0470 -0.1128
 5532TIP3   OH216559   6.426   4.296   0.377 -0.3668 -0.1832 -0.1918
 5532TIP3    H116560   6.511   4.329   0.348  0.1884 -0.8326  0.6220
 5532TIP3    H216561   6.402   4.352   0.450  0.3323 -1.1986  0.8592
 5533TIP3   OH216562   2.782   1.080   4.992  0.4570 -0.3643  0.0147
 5533TIP3    H116563   2.734   1.163   5.000  0.1291 -0.6842  1.6520
 5533TIP3    H216564   2.715   1.013   5.000  0.8616 -0.8109 -0.2867
 5534TIP3   OH216565   4.759   0.962   4.243 -0.0108  0.1068 -0.1616
 5534TIP3    H116566   4.749   1.057   4.234  0.0345  0.0309 -1.1039
 5534TIP3    H216567   4.847   0.950   4.277 -0.3345  0.4374  0.8259
 5535TIP3   OH216568   3.720   0.680   5.825 -0.7792  0.0433 -0.3517
 5535TIP3    H116569   3.743   0.728   5.904  0.2724 -1.2463  0.1649
 5535TIP3    H216570   3.667   0.606   5.857 -0.3679 -0.4748 -0.8508
 5536TIP3   OH216571   1.321   1.235   0.281  0.1940  0.0954  0.0474
 5536TIP3    H116572   1.299   1.152   0.239 -1.0342  0.0904  0.6692
 5536TIP3    H216573   1.271   1.236   0.362 -1.2349  2.1673 -0.7395
 5537TIP3   OH216574   6.890   1.849   3.602  0.0395 -0.3523 -0.1468
 5537TIP3    H116575   6.962   1.788   3.619 -1.1532 -1.3589  1.5534
 5537TIP3    H216576   6.835   1.804   3.537 -0.4322 -0.7775  0.5335
 5538TIP3   OH216577   4.153   3.806   4.863  0.1338 -0.0128  0.0977
 5538TIP3    H116578   4.183   3.802   4.772  1.1819 -1.0485  0.4644
 5538TIP3    H216579   4.093   3.880   4.865  1.5219  1.1973 -1.0278
 5539TIP3   OH216580   0.966   3.879   1.894 -0.1994 -0.1895 -0.4283
 5539TIP3    H116581   1.026   3.953   1.886 -0.6383  0.2637  0.4447
 5539TIP3    H216582   1.005   3.812   1.838  1.3560 -0.0565  0.4332
 5540TIP3   OH216583   5.573   1.654   4.621 -0.0373 -0.2601 -0.3914
 5540TIP3    H116584   5.568   1.737   4.573 -1.1677  0.8870  1.5974
 5540TIP3    H216585   5.495   1.606   4.594 -0.4855  0.2329  0.0100
 5541TIP3   OH216586   7.108   2.417   2.822 -0.1475 -0.1102  0.3375
 5541TIP3    H116587   7.026   2.378   2.790 -0.5955 -0.5430  1.9036
 5541TIP3    H216588   7.159   2.434   2.743 -1.4847 -0.4250 -0.6355
 5542TIP3   OH216589   6.935   5.189   1.832 -0.3718 -0.6707  0.4969
 5542TIP3    H116590   6.899   5.220   1.748  2.3170  0.2918 -0.3948
 5542TIP3    H216591   6.863   5.200   1.894 -1.1749  2.7116 -0.8238
 5543TIP3   OH216592   3.822   6.649   0.595 -0.0454  0.0904 -0.6742
 5543TIP3    H116593   3.822   6.728   0.650  2.4106 -1.5497  1.9900
 5543TIP3    H216594   3.732   6.618   0.598 -0.3071  0.8607  1.3264
 5544TIP3   OH216595   2.422   0.522   0.979  0.0695  0.0974  0.2599
 5544TIP3    H116596   2.468   0.516   0.895  1.2962 -1.2123  0.9901
 5544TIP3    H216597   2.488   0.502   1.045 -1.3636 -1.2137  1.3854
 5545TIP3   OH216598   4.165   2.833   1.263 -0.0002  0.3009 -0.0069
 5545TIP3    H116599   4.239   2.787   1.223 -0.5487 -0.3828 -0.2586
 5545TIP3    H216600   4.203   2.912   1.300  1.1149 -0.7413  1.1551
 5546TIP3   OH216601   0.172   2.722   4.924 -0.3467 -0.5870 -0.1195
 5546TIP3    H116602   0.138   2.808   4.899  1.7919  0.2700 -0.2471
 5546TIP3    H216603   0.191   2.730   5.018  0.6305 -0.6225 -0.3018
 5547TIP3   OH216604   0.758   0.967   1.831  0.1310  0.1201  0.2663
 5547TIP3    H116605   0.811   0.916   1.892  1.7691  1.9022  0.4146
 5547TIP3    H216606   0.808   0.966   1.749  0.9566  2.5484  0.6488
 5548TIP3   OH216607   2.130   6.271   5.465  0.7712  0.0580  0.5495
 5548TIP3    H116608   2.085   6.262   5.549 -2.2288 -0.0569 -0.9163
 5548TIP3    H216609   2.192   6.198   5.463  0.1819 -0.5479  2.2086
 5549TIP3   OH216610   3.638   0.915   4.705 -0.5440  0.2524  0.0171
 5549TIP3    H116611   3.717   0.864   4.721 -0.6351  0.2658  0.5288
 5549TIP3    H216612   3.582   0.857   4.652 -0.1127  0.3222 -0.5241
 5550TIP3   OH216613   2.166   1.582   5.028 -1.0771 -0.1351 -0.2906
 5550TIP3    H116614   2.242   1.528   5.050 -3.3665 -2.5012  2.6875
 5550TIP3    H216615   2.137   1.549   4.943 -0.1113 -0.8056 -0.3709
 5551TIP3   OH216616   3.025   1.555   4.718 -0.2480  0.1168  0.1768
 5551TIP3    H116617   2.966   1.495   4.763 -0.4220  0.5369  0.5086
 5551TIP3    H216618   2.970   1.598   4.653 -0.2497  0.3221  0.3140
 5552TIP3   OH216619   2.303   4.595   1.422  0.2645 -0.5475 -0.2524
 5552TIP3    H116620   2.274   4.683   1.401 -1.2690 -0.5560  1.5342
 5552TIP3    H216621   2.231   4.538   1.395  0.7613 -1.1302 -0.3715
 5553TIP3   OH216622   0.420   0.479   3.357  0.3216 -0.0114  0.3182
 5553TIP3    H116623   0.391   0.389   3.371 -1.2713  0.3932 -0.2172
 5553TIP3    H216624   0.435   0.513   3.446 -0.1673 -0.4573  0.5769
 5554TIP3   OH216625   1.026   3.535   0.326 -0.1560  0.4212  0.0989
 5554TIP3    H116626   1.108   3.486   0.322 -0.8611 -0.7605 -0.1351
 5554TIP3    H216627   1.053   3.627   0.319  1.1437  0.0562  0.0807
 5555TIP3   OH216628   0.644   2.270   4.313  0.1055  0.4968  0.3580
 5555TIP3    H116629   0.686   2.336   4.258 -0.5060  1.1169  0.6189
 5555TIP3    H216630   0.683   2.187   4.285  0.3621  0.8843 -0.4773
 5556TIP3   OH216631   2.028   5.719   0.138 -0.2084 -0.0397  0.0591
 5556TIP3    H116632   2.098   5.731   0.203  0.1439  3.5605 -0.7947
 5556TIP3    H216633   1.967   5.790   0.155 -1.1919 -0.2476 -2.2472
 5557TIP3   OH216634   6.653   4.039   4.678 -0.1360 -0.0225  0.4724
 5557TIP3    H116635   6.714   4.109   4.701 -0.1707 -0.0662  0.7013
 5557TIP3    H216636   6.703   3.982   4.618 -1.1887  2.1034 -2.7010
 5558TIP3   OH216637   2.779   0.461   0.916  0.0312 -0.0474 -0.3092
 5558TIP3    H116638   2.838   0.480   0.844 -0.4948  2.9531 -0.0672
 5558TIP3    H216639   2.711   0.528   0.910 -0.1018  0.2555  2.8499
 5559TIP3   OH216640   3.749   1.173   5.797  0.5440 -0.0680  0.5004
 5559TIP3    H116641   3.828   1.227   5.804  0.6338 -0.3328  1.6372
 5559TIP3    H216642   3.781   1.089   5.764  0.1235  1.1602 -3.6839
 5560TIP3   OH216643   3.667   4.844   5.651  0.0086 -0.5020 -0.2378
 5560TIP3    H116644   3.655   4.772   5.714 -0.9005 -0.8423 -0.7669
 5560TIP3    H216645   3.622   4.918   5.691 -0.0201 -0.5411 -0.1972
 5561TIP3   OH216646   1.644   1.929   4.014 -0.3436 -0.0488  0.3688
 5561TIP3    H116647   1.604   1.949   4.099  0.3797 -1.2928  1.0375
 5561TIP3    H216648   1.726   1.979   4.014  0.4372 -1.2703  1.1274
 5562TIP3   OH216649   3.664   2.521   4.859  0.3173  0.3265 -0.0987
 5562TIP3    H116650   3.751   2.558   4.842  0.8439 -0.3773  0.9332
 5562TIP3    H216651   3.650   2.534   4.953 -0.7499  0.5162 -0.2690
 5563TIP3   OH216652   3.216   5.428   2.876  0.0038 -0.5402  0.0323
 5563TIP3    H116653   3.198   5.340   2.908 -1.6519 -0.5039 -0.7181
 5563TIP3    H216654   3.161   5.438   2.799  1.2577  0.6473 -0.7666
 5564TIP3   OH216655   5.290   4.291   4.185 -0.1676  0.6233 -0.3276
 5564TIP3    H116656   5.212   4.338   4.214 -0.4351 -0.0225  0.0141
 5564TIP3    H216657   5.356   4.360   4.173 -0.0749  0.9511  1.6786
 5565TIP3   OH216658   6.939   3.365   2.513  0.0439 -0.9945  0.1120
 5565TIP3    H116659   6.952   3.356   2.419  0.6455 -0.6326  0.1547
 5565TIP3    H216660   6.849   3.335   2.528 -0.8444  0.9726 -0.8896
 5566TIP3   OH216661   5.188   4.301   2.099  0.2615  0.2317 -0.1066
 5566TIP3    H116662   5.207   4.330   2.010 -1.5073 -0.9175 -0.9121
 5566TIP3    H216663   5.098   4.330   2.116 -0.4194 -1.8653  0.2306
 5567TIP3   OH216664   5.209   6.474   4.308 -0.2251  0.0186 -0.2576
 5567TIP3    H116665   5.146   6.485   4.237 -1.1503 -0.2858  0.4965
 5567TIP3    H216666   5.159   6.432   4.378  0.2181  1.8158  1.2144
 5568TIP3   OH216667   4.125   0.070   2.899  0.3120  0.6696  0.6778
 5568TIP3    H116668   4.078   0.135   2.846 -0.7455 -0.9641 -0.4920
 5568TIP3    H216669   4.058   0.033   2.957 -0.0983 -2.0229 -1.3332
 5569TIP3   OH216670   2.246   4.196   3.842  0.6576  0.4054 -0.0616
 5569TIP3    H116671   2.340   4.209   3.825  0.9431 -0.9148  0.4250
 5569TIP3    H216672   2.222   4.121   3.788 -0.5443  1.7226 -1.4757
 5570TIP3   OH216673   2.782   0.429   1.746  0.1228  0.4190 -0.5193
 5570TIP3    H116674   2.793   0.415   1.651  0.3731 -1.5867 -0.2400
 5570TIP3    H216675   2.727   0.356   1.774 -1.9493  2.2508  0.5546
 5571TIP3   OH216676   1.879   5.865   3.371  0.2468  0.3559 -0.2741
 5571TIP3    H116677   1.877   5.779   3.413  0.5760  0.4060 -0.1506
 5571TIP3    H216678   1.948   5.912   3.418  0.9408  0.2626 -1.1797
 5572TIP3   OH216679   5.965   5.153   1.923  0.1373 -0.2737 -0.3048
 5572TIP3    H116680   5.957   5.065   1.887  0.8252 -1.2276  1.7259
 5572TIP3    H216681   6.035   5.194   1.872  0.4697 -1.2509 -0.6488
 5573TIP3   OH216682   2.798   1.494   5.655 -0.1751 -0.4488  0.3979
 5573TIP3    H116683   2.840   1.580   5.663 -0.3901 -0.0928 -1.8134
 5573TIP3    H216684   2.744   1.487   5.734 -0.0502  1.3947  0.6987
 5574TIP3   OH216685   1.066   4.305   5.366  0.4505  0.0342  0.2279
 5574TIP3    H116686   1.060   4.399   5.380  2.2440 -0.1043  2.3256
 5574TIP3    H216687   1.145   4.293   5.314  0.2203 -0.3326 -0.0476
 5575TIP3   OH216688   6.645   0.925   5.848 -0.0253  0.9756  0.4749
 5575TIP3    H116689   6.631   1.001   5.904  1.2032 -0.5251  2.9952
 5575TIP3    H216690   6.666   0.854   5.909  0.4488 -1.0160 -1.8586
 5576TIP3   OH216691   0.248   3.394   1.961 -0.2069 -0.4470 -0.1905
 5576TIP3    H116692   0.342   3.391   1.976 -0.2845  0.7596  0.7017
 5576TIP3    H216693   0.222   3.482   1.988 -1.4280 -0.3921 -1.4399
 5577TIP3   OH216694   0.031   5.361   4.057 -0.6523  0.6509 -0.1231
 5577TIP3    H116695  -0.055   5.378   4.019 -0.3741  1.2111 -0.5048
 5577TIP3    H216696   0.059   5.445   4.094 -1.0358  0.0721  1.5954
 5578TIP3   OH216697   6.151   4.472   2.679 -0.5959 -0.2573 -0.1442
 5578TIP3    H116698   6.113   4.558   2.697 -2.1018 -1.1677  1.3922
 5578TIP3    H216699   6.189   4.445   2.762 -3.4822 -2.5882  0.5903
 5579TIP3   OH216700   3.223   1.314   4.918 -0.6035  0.0889  0.0263
 5579TIP3    H116701   3.193   1.255   4.849  1.4277  0.0963 -0.9354
 5579TIP3    H216702   3.147   1.369   4.937 -1.8333 -1.2781 -0.7094
 5580TIP3   OH216703   5.041   0.025   3.707  0.6272 -0.5102 -0.1878
 5580TIP3    H116704   5.005  -0.061   3.681 -1.2235 -0.4465  1.8369
 5580TIP3    H216705   5.012   0.084   3.637 -0.8296 -1.0053 -0.0533
 5581TIP3   OH216706   6.966   0.746   1.584  0.1069  0.0705  0.3722
 5581TIP3    H116707   6.994   0.786   1.667 -1.6461  1.1551  0.4975
 5581TIP3    H216708   6.986   0.653   1.594 -0.0037  0.1892  1.9865
 5582TIP3   OH216709   0.858   5.162   3.806 -0.6903  0.4516 -0.3305
 5582TIP3    H116710   0.919   5.151   3.879  0.9118  1.9087 -1.3693
 5582TIP3    H216711   0.780   5.199   3.847  0.0237  0.8506  0.7309
 5583TIP3   OH216712   2.867   4.038   4.355 -0.1106 -0.0816  0.8735
 5583TIP3    H116713   2.833   4.125   4.335  0.9072  0.2338  0.4097
 5583TIP3    H216714   2.936   4.024   4.289  1.7190 -0.0314  2.6852
 5584TIP3   OH216715   5.556   3.132   3.331 -0.0711  0.2468 -0.6348
 5584TIP3    H116716   5.562   3.141   3.236  0.5785  1.0117 -0.5284
 5584TIP3    H216717   5.497   3.057   3.344 -0.3670  0.2888 -1.6317
 5585TIP3   OH216718   3.004   1.955   2.457 -0.3072 -0.4065  0.0159
 5585TIP3    H116719   3.072   1.952   2.389 -0.5339 -3.0902 -0.1986
 5585TIP3    H216720   2.922   1.965   2.408 -0.3061 -0.2641  0.0438
 5586TIP3   OH216721   0.130   5.766   3.880 -0.4605  0.1717 -0.4453
 5586TIP3    H116722   0.113   5.774   3.786  1.1198  0.1450 -0.7732
 5586TIP3    H216723   0.225   5.775   3.888 -0.5675  0.2933  1.1739
 5587TIP3   OH216724   3.860   1.782   1.758  0.4749 -0.0323 -0.1132
 5587TIP3    H116725   3.845   1.806   1.666 -0.5470 -1.1790 -0.2733
 5587TIP3    H216726   3.946   1.739   1.757 -0.0049 -1.0396 -0.7685
 5588TIP3   OH216727   4.088   0.756   1.477  0.4990  0.3387  0.3797
 5588TIP3    H116728   4.133   0.708   1.547  0.3516  2.1855  1.8369
 5588TIP3    H216729   4.013   0.797   1.520  0.7909  2.0990 -0.6768
 5589TIP3   OH216730   3.108   1.162   2.249  0.0951 -0.4457  0.4533
 5589TIP3    H116731   3.167   1.164   2.174  1.0561  1.9269  1.1772
 5589TIP3    H216732   3.045   1.094   2.228 -0.0808  0.5718 -2.8120
 5590TIP3   OH216733   4.370   4.336   0.580  0.1041  0.4485 -0.3227
 5590TIP3    H116734   4.332   4.367   0.662  0.2358  0.3573 -0.2268
 5590TIP3    H216735   4.450   4.388   0.569 -0.2307  0.8934 -0.7069
 5591TIP3   OH216736   4.870   5.497   5.230  0.2875 -0.3918 -0.0115
 5591TIP3    H116737   4.821   5.501   5.148 -0.5843 -0.2559  0.5028
 5591TIP3    H216738   4.955   5.534   5.209  0.1732 -0.6290 -0.9244
 5592TIP3   OH216739   3.429   0.461   3.658 -0.0522 -0.5032 -0.8582
 5592TIP3    H116740   3.450   0.413   3.737  0.8159 -0.7994 -1.2570
 5592TIP3    H216741   3.429   0.553   3.685  0.4091 -0.5911 -0.5521
 5593TIP3   OH216742   6.030   6.438   0.793  0.0294  0.2707  0.5365
 5593TIP3    H116743   6.061   6.486   0.717  0.0360 -1.4702 -0.6288
 5593TIP3    H216744   5.938   6.421   0.775  0.3968 -1.5135  0.0962
 5594TIP3   OH216745   6.100   0.341   0.565  0.0245 -0.3881 -0.4377
 5594TIP3    H116746   6.028   0.308   0.618 -0.9785  0.9876 -0.8962
 5594TIP3    H216747   6.134   0.416   0.614 -1.5563  1.5445 -2.0690
 5595TIP3   OH216748   0.630   2.441   3.276 -0.6259 -0.2741  0.5048
 5595TIP3    H116749   0.571   2.392   3.333 -2.6818 -1.2554 -2.2493
 5595TIP3    H216750   0.614   2.405   3.188  0.5687  2.7888 -1.1164
 5596TIP3   OH216751   2.783   2.095   1.554 -0.5234  0.0960 -0.5051
 5596TIP3    H116752   2.801   2.189   1.559 -0.0149  0.0430 -1.2261
 5596TIP3    H216753   2.690   2.088   1.578 -0.4325  0.7213  0.0583
 5597TIP3   OH216754   5.187   0.468   1.828  0.7794 -0.1135 -0.2327
 5597TIP3    H116755   5.176   0.441   1.736 -2.7348  1.9880 -0.5918
 5597TIP3    H216756   5.117   0.422   1.875 -0.1885  2.0470  0.5490
 5598TIP3   OH216757   4.416   2.096   1.590  0.7146  0.9242 -0.7500
 5598TIP3    H116758   4.502   2.127   1.621  0.3593  2.2452 -1.0003
 5598TIP3    H216759   4.357   2.112   1.663  0.3316  1.8207 -1.2391
 5599TIP3   OH216760   4.660   1.941   2.751 -0.2976  0.6178 -0.2062
 5599TIP3    H116761   4.588   1.966   2.692 -0.4950  0.8018  0.1100
 5599TIP3    H216762   4.697   2.024   2.780 -0.4646  0.5317  0.2521
 5600TIP3   OH216763   3.071   2.266   4.223  0.4961  0.6923  0.4193
 5600TIP3    H116764   2.997   2.212   4.197  0.5447  0.2349  1.1866
 5600TIP3    H216765   3.042   2.356   4.207  0.4425  0.4527 -0.9390
 5601TIP3   OH216766   5.331   3.854   4.472 -0.1457 -0.4509  0.6093
 5601TIP3    H116767   5.389   3.899   4.534  0.4400  0.4957 -0.5756
 5601TIP3    H216768   5.359   3.763   4.475  1.0945 -0.0937  0.4140
 5602TIP3   OH216769   7.080   3.044   0.038  1.1605 -0.0824  0.3434
 5602TIP3    H116770   7.114   2.955   0.027  0.5567 -0.3832  0.8639
 5602TIP3    H216771   7.045   3.046   0.127 -0.9745 -0.0719 -0.4453
 5603TIP3   OH216772   2.203   3.371   4.965 -0.5972  0.2164 -0.4331
 5603TIP3    H116773   2.149   3.410   5.034 -1.9373 -0.3756 -1.1127
 5603TIP3    H216774   2.230   3.445   4.911 -1.3260  0.4626 -0.4755
 5604TIP3   OH216775   2.662   0.436   0.342  0.5228 -0.2860  0.1692
 5604TIP3    H116776   2.734   0.398   0.291  0.6996 -0.6838  0.7016
 5604TIP3    H216777   2.603   0.362   0.360 -0.1129  0.0759 -0.4178
 5605TIP3   OH216778   2.533   5.679   2.379  0.0903 -0.2187  0.4774
 5605TIP3    H116779   2.593   5.746   2.347  0.4690  0.5764  2.7460
 5605TIP3    H216780   2.589   5.612   2.418 -0.4229 -0.2738  1.1323
 5606TIP3   OH216781   6.351   0.697   2.650  0.6243 -0.1204  0.4002
 5606TIP3    H116782   6.289   0.747   2.703  1.0944  0.6294  0.2578
 5606TIP3    H216783   6.368   0.753   2.575  0.9617 -0.6148  0.1057
 5607TIP3   OH216784   1.913   0.883   2.577  0.2520  0.1039  0.1460
 5607TIP3    H116785   1.858   0.887   2.655 -0.6252 -1.0222 -0.3891
 5607TIP3    H216786   1.864   0.829   2.516  2.1400 -1.3271 -0.2066
 5608TIP3   OH216787   5.632   6.015   0.829  0.2458 -0.0710 -0.0170
 5608TIP3    H116788   5.695   6.029   0.899  0.2988 -1.0328  0.1490
 5608TIP3    H216789   5.552   5.989   0.874  0.4607 -1.3134 -0.3196
 5609TIP3   OH216790   2.471   0.407   0.046  0.5262 -0.1578 -0.3107
 5609TIP3    H116791   2.466   0.429  -0.048 -0.1132  2.4859  0.2519
 5609TIP3    H216792   2.556   0.442   0.073  0.0548  0.4772  0.3850
 5610TIP3   OH216793   0.020   2.491   3.341 -0.0249 -0.2643 -0.2469
 5610TIP3    H116794  -0.005   2.570   3.293 -1.1647 -0.4738 -0.0276
 5610TIP3    H216795   0.113   2.479   3.322  0.4441  1.7411  0.6007
 5611TIP3   OH216796   3.897   0.439   4.307 -0.1592  0.1307  0.2693
 5611TIP3    H116797   3.955   0.370   4.278 -0.1440  0.4413 -0.4617
 5611TIP3    H216798   3.824   0.393   4.350  1.0707 -0.2176  2.0746
 5612TIP3   OH216799   5.566   0.542   4.069  0.2757 -0.4542 -0.0525
 5612TIP3    H116800   5.572   0.631   4.105 -0.1949 -0.1223 -0.7602
 5612TIP3    H216801   5.517   0.493   4.134 -0.9224  0.2382 -0.3945
 5613TIP3   OH216802   2.879   1.314   3.273  0.2373 -0.8171  0.8051
 5613TIP3    H116803   2.908   1.405   3.266 -0.1866 -0.5901  1.8138
 5613TIP3    H216804   2.941   1.265   3.218  0.3712  0.0925  0.1181
 5614TIP3   OH216805   4.676   2.914   5.287  0.4393 -0.1363 -0.3110
 5614TIP3    H116806   4.727   2.850   5.237  0.0964 -1.5755  1.1109
 5614TIP3    H216807   4.610   2.862   5.331 -0.8786  1.4322 -0.3654
 5615TIP3   OH216808   5.728   2.452   2.308 -0.2561  0.5548 -0.3056
 5615TIP3    H116809   5.728   2.519   2.239  0.0176  1.2195  0.3291
 5615TIP3    H216810   5.635   2.441   2.330 -0.1928  2.5534  1.2911
 5616TIP3   OH216811   4.724   0.507   3.678 -0.2526 -0.4538 -0.4600
 5616TIP3    H116812   4.684   0.494   3.593 -0.4309 -1.8592 -0.1895
 5616TIP3    H216813   4.789   0.436   3.685 -1.4110 -1.4305  1.2298
 5617TIP3   OH216814   3.850   1.816   5.622 -0.1674  0.1281 -0.2179
 5617TIP3    H116815   3.942   1.815   5.595 -0.2392 -0.3360 -0.4603
 5617TIP3    H216816   3.818   1.728   5.602 -0.8740  0.5162 -0.8428
 5618TIP3   OH216817   2.840   5.548   1.812  0.1176  0.7866 -0.0947
 5618TIP3    H116818   2.750   5.581   1.812 -0.1360  0.1672 -1.5955
 5618TIP3    H216819   2.867   5.553   1.720  1.4586  0.5292  0.2658
 5619TIP3   OH216820   5.695   6.133   1.806  0.0665 -0.1008 -0.2358
 5619TIP3    H116821   5.627   6.187   1.846  1.2110  0.2658  1.3330
 5619TIP3    H216822   5.713   6.066   1.872  1.0539 -0.3215 -0.7165
 5620TIP3   OH216823   6.134   2.491   4.128 -0.3733  0.1331 -0.3150
 5620TIP3    H116824   6.042   2.477   4.108 -0.4062 -0.7845  0.4488
 5620TIP3    H216825   6.137   2.578   4.167 -1.4635 -1.1065  2.8450
 5621TIP3   OH216826   5.751   0.963   0.579 -0.1491  0.3407 -0.0927
 5621TIP3    H116827   5.842   0.933   0.584 -0.1309  0.1305 -1.4249
 5621TIP3    H216828   5.754   1.040   0.523 -0.9355 -0.3297 -1.0945
 5622TIP3   OH216829   3.945   5.820   1.991  0.5339 -0.4202 -0.3218
 5622TIP3    H116830   3.918   5.830   2.083  0.5991  0.2490 -0.3681
 5622TIP3    H216831   3.937   5.726   1.974  1.5847 -0.7180  0.6967
 5623TIP3   OH216832   5.303   2.244   5.159 -0.2953 -0.5814 -0.0470
 5623TIP3    H116833   5.243   2.251   5.084  0.2468 -1.0917 -0.5385
 5623TIP3    H216834   5.294   2.153   5.188 -0.1859 -0.5013  0.2333
 5624TIP3   OH216835   6.699   4.541   1.811  0.5900  0.2551  0.1486
 5624TIP3    H116836   6.701   4.446   1.806  3.4186  0.2815 -1.5558
 5624TIP3    H216837   6.613   4.565   1.777  0.5281 -1.6667 -1.2005
 5625TIP3   OH216838   4.208   4.004   3.764  0.3883 -0.0255 -0.3668
 5625TIP3    H116839   4.137   3.959   3.811  1.4908 -0.0733  1.3247
 5625TIP3    H216840   4.164   4.048   3.692 -1.1530 -1.3078 -0.2710
 5626TIP3   OH216841   0.148   0.224   1.884  0.4608  0.5116  0.4115
 5626TIP3    H116842   0.097   0.210   1.964 -0.0498  0.2887  0.0504
 5626TIP3    H216843   0.185   0.138   1.863  0.7681  0.6161  0.5268
 5627TIP3   OH216844   7.081   1.503   4.866  0.1890 -0.3701 -0.4449
 5627TIP3    H116845   7.121   1.558   4.933 -3.1408  2.0119 -0.1644
 5627TIP3    H216846   6.987   1.518   4.876 -0.5501 -1.1774 -4.5976
 5628TIP3   OH216847   3.894   3.313   1.119 -0.5017 -0.1042  0.2606
 5628TIP3    H116848   3.959   3.357   1.064 -0.8925  0.5291  0.3015
 5628TIP3    H216849   3.943   3.243   1.163  0.1583  0.3941  0.3278
 5629TIP3   OH216850   4.761   1.524   3.679 -0.1039  0.0433  0.5723
 5629TIP3    H116851   4.751   1.439   3.721 -1.8883  1.1826  2.6703
 5629TIP3    H216852   4.679   1.536   3.630  1.5007 -0.7996 -2.5780
 5630TIP3   OH216853   0.280   1.732   5.873 -0.9159 -0.2946 -0.3432
 5630TIP3    H116854   0.239   1.681   5.803 -0.4146  1.1217 -1.7207
 5630TIP3    H216855   0.362   1.685   5.891 -2.5806 -2.6489  1.8337
 5631TIP3   OH216856   1.439   5.473   3.219 -0.0198  0.1355  0.0443
 5631TIP3    H116857   1.478   5.386   3.228  0.5527  0.3070 -0.7081
 5631TIP3    H216858   1.494   5.518   3.155  0.6982  1.6314  1.6320
 5632TIP3   OH216859   1.792   5.077   0.142 -0.1394 -0.0761  0.5391
 5632TIP3    H116860   1.795   5.172   0.129 -0.3855 -0.3254 -1.6068
 5632TIP3    H216861   1.870   5.044   0.099 -0.2223 -0.8943  1.0004
 5633TIP3   OH216862   5.043   5.237   1.145  0.3623  0.4594 -0.3336
 5633TIP3    H116863   5.076   5.264   1.231  1.1898 -0.0741 -0.4660
 5633TIP3    H216864   4.948   5.244   1.152  0.4105  0.2188  0.7046
 5634TIP3   OH216865   4.857   4.258   2.102  0.2566 -0.6141  0.3334
 5634TIP3    H116866   4.782   4.303   2.063  1.2875  0.4432 -0.5324
 5634TIP3    H216867   4.870   4.303   2.186  0.6958  0.1023 -0.1018
 5635TIP3   OH216868   5.046   3.871   2.848  0.1383 -0.2990  0.2230
 5635TIP3    H116869   5.004   3.953   2.874  0.3783  0.6257 -2.0724
 5635TIP3    H216870   4.974   3.808   2.843 -0.4954  0.4597 -0.5331
 5636TIP3   OH216871   6.811   2.317   3.118  0.0700 -0.6016 -0.4238
 5636TIP3    H116872   6.881   2.374   3.085 -0.4960  0.1981 -0.2650
 5636TIP3    H216873   6.827   2.313   3.213  1.2424 -2.2801 -0.6575
 5637TIP3   OH216874   0.092   3.941   2.402 -0.1342  0.1111  0.6268
 5637TIP3    H116875   0.162   4.000   2.376 -1.1566  1.6595  1.2147
 5637TIP3    H216876   0.012   3.983   2.370 -0.8556 -1.3432  0.4222
 5638TIP3   OH216877   1.511   0.431   2.430  0.6309 -0.7195 -0.1525
 5638TIP3    H116878   1.566   0.441   2.508  0.1711  0.9393  0.0083
 5638TIP3    H216879   1.514   0.517   2.388  1.1254 -1.6809 -2.1606
 5639TIP3   OH216880   3.110   5.285   2.157 -0.1530 -0.4754 -0.4069
 5639TIP3    H116881   3.070   5.208   2.196 -0.3168 -0.7085 -1.0267
 5639TIP3    H216882   3.069   5.359   2.201 -1.4601 -0.7028 -1.2073
 5640TIP3   OH216883   0.342   4.052   4.021  0.3778 -0.0376 -0.1850
 5640TIP3    H116884   0.367   4.121   4.083 -1.7367  0.5044  0.1532
 5640TIP3    H216885   0.326   3.975   4.076 -1.4887  0.4401  0.0094
 5641TIP3   OH216886   0.865   4.886   3.271  0.1592 -0.1314  0.2984
 5641TIP3    H116887   0.948   4.905   3.314  0.2484  1.0889 -0.3498
 5641TIP3    H216888   0.805   4.955   3.302 -0.7097 -1.1681  0.9906
 5642TIP3   OH216889   6.493   2.531   5.299  0.6603 -0.5017  0.0707
 5642TIP3    H116890   6.528   2.620   5.294 -0.8572  0.1188 -0.3028
 5642TIP3    H216891   6.569   2.476   5.315  1.5389  0.9619  1.2750
 5643TIP3   OH216892   5.501   1.270   2.037  0.3004  0.1640 -0.2751
 5643TIP3    H116893   5.497   1.187   1.990 -1.0729  0.1790 -0.2401
 5643TIP3    H216894   5.460   1.252   2.122  2.2352  0.2793  0.7230
 5644TIP3   OH216895   1.828   3.290   0.145 -0.3149 -0.0563 -0.3051
 5644TIP3    H116896   1.796   3.278   0.235  1.6467  1.2799  0.6226
 5644TIP3    H216897   1.768   3.237   0.092 -0.5887 -2.1731  1.9367
 5645TIP3   OH216898   0.280   1.734   4.162  0.0794  0.7740 -0.7926
 5645TIP3    H116899   0.300   1.809   4.105  1.2566 -0.7068 -2.4397
 5645TIP3    H216900   0.195   1.702   4.130  0.2682  0.5392 -1.0619
 5646TIP3   OH216901   1.652   1.035   5.651 -0.8797 -0.3073 -0.0358
 5646TIP3    H116902   1.665   1.095   5.724  0.2783  1.2965 -1.4933
 5646TIP3    H216903   1.720   1.058   5.588 -2.1983 -1.2399 -1.8945
 5647TIP3   OH216904   3.760   4.905   0.791 -0.2361 -0.3707 -0.0782
 5647TIP3    H116905   3.852   4.922   0.774 -0.7753  1.2458 -1.7103
 5647TIP3    H216906   3.759   4.823   0.841  2.0853 -0.0570  0.5825
 5648TIP3   OH216907   2.949   1.675   0.388  0.0438 -0.3265 -0.5762
 5648TIP3    H116908   3.000   1.612   0.439  1.8248  0.2288 -1.5925
 5648TIP3    H216909   2.915   1.625   0.315 -1.0005 -0.7227  0.1583
 5649TIP3   OH216910   6.938   3.098   5.026 -0.2110 -0.4984 -0.5457
 5649TIP3    H116911   6.855   3.071   4.987 -0.1363  0.1406 -1.1561
 5649TIP3    H216912   6.993   3.019   5.022 -1.8205 -1.9908  2.9255
 5650TIP3   OH216913   1.264   3.400   0.385  0.2284 -0.1167  0.5063
 5650TIP3    H116914   1.223   3.322   0.423 -0.4928  0.2244  0.4355
 5650TIP3    H216915   1.345   3.367   0.346 -0.6487 -1.0672 -0.6044
 5651TIP3   OH216916   0.590   5.815   2.270 -0.2818 -0.2222  0.2994
 5651TIP3    H116917   0.526   5.768   2.324 -1.3968  1.2974  0.3603
 5651TIP3    H216918   0.555   5.903   2.263 -0.2886 -0.3684 -3.0971
 5652TIP3   OH216919   4.337   5.035   2.840  0.4227  0.3861 -0.0226
 5652TIP3    H116920   4.364   4.970   2.775  1.1031 -1.4428  1.9799
 5652TIP3    H216921   4.257   4.999   2.877  1.1560  0.3549  1.5714
 5653TIP3   OH216922   3.036   4.058   5.725  0.4065  0.0239  0.6283
 5653TIP3    H116923   2.958   4.093   5.767  0.5747  0.9260  0.2155
 5653TIP3    H216924   3.091   4.135   5.709  0.9615 -0.4829  0.0574
 5654TIP3   OH216925   7.118   1.403   4.482 -0.1486 -0.2299  0.3634
 5654TIP3    H116926   7.176   1.478   4.498 -0.4525  0.2528 -0.7328
 5654TIP3    H216927   7.142   1.339   4.549  0.6594  0.5367  0.8169
 5655TIP3   OH216928   2.505   3.570   5.858  0.0667 -0.1645  0.2916
 5655TIP3    H116929   2.485   3.651   5.811  0.7986  0.9428  1.8284
 5655TIP3    H216930   2.530   3.598   5.946  2.2397 -1.9102  0.3074
 5656TIP3   OH216931   7.054   2.990   3.415 -0.1109  0.0674 -0.4244
 5656TIP3    H116932   7.084   2.965   3.503 -0.7938 -1.8128 -0.6802
 5656TIP3    H216933   7.087   3.079   3.403  1.6394 -0.3265  0.9802
 5657TIP3   OH216934   1.085   6.516   4.518  0.2962  0.6319 -0.7496
 5657TIP3    H116935   0.994   6.501   4.543  0.1294  1.7946 -0.5938
 5657TIP3    H216936   1.136   6.485   4.592 -0.1396  2.9249  0.6313
 5658TIP3   OH216937   3.125   0.672   5.049  0.2883 -0.0291 -0.2457
 5658TIP3    H116938   3.164   0.725   4.980  2.5483  0.5362  1.3318
 5658TIP3    H216939   3.100   0.736   5.117  1.5022 -0.8004  0.9749
 5659TIP3   OH216940   0.312   3.015   3.291 -0.0634 -0.3099  0.4897
 5659TIP3    H116941   0.259   3.020   3.371 -1.1186  2.7461 -0.2554
 5659TIP3    H216942   0.283   3.090   3.239  1.6882 -1.3040 -2.1032
 5660TIP3   OH216943   2.950   2.349   0.316  0.2375  0.4555  0.6801
 5660TIP3    H116944   2.878   2.287   0.326  0.4007  0.2592  0.6318
 5660TIP3    H216945   2.998   2.343   0.398  0.2414  0.5342  0.6836
 5661TIP3   OH216946  -0.003   5.699   1.314 -0.2329  0.8723  0.7886
 5661TIP3    H116947   0.083   5.723   1.348 -0.3866 -0.4009  2.2150
 5661TIP3    H216948   0.005   5.605   1.295 -0.9656  0.9980 -0.2012
 5662TIP3   OH216949   2.302   4.912   1.026  0.1712 -0.0274  0.0136
 5662TIP3    H116950   2.240   4.964   0.975 -0.9893 -1.2911  0.0774
 5662TIP3    H216951   2.365   4.880   0.961 -1.3704 -1.7372 -0.7007
 5663TIP3   OH216952   7.057   4.987   0.534 -0.0017  0.1808  0.0991
 5663TIP3    H116953   7.150   4.994   0.553  0.2111  1.7715 -1.2825
 5663TIP3    H216954   7.051   5.003   0.439 -1.7938  1.4394  0.3757
 5664TIP3   OH216955   0.837   5.967   2.590 -0.0819 -0.1289  0.1361
 5664TIP3    H116956   0.793   6.030   2.648  0.6248  0.0975  0.4420
 5664TIP3    H216957   0.875   5.902   2.649 -0.2511 -0.4785 -0.1396
 5665TIP3   OH216958   1.542   1.686   4.814 -0.4536 -0.0654 -0.1145
 5665TIP3    H116959   1.632   1.655   4.821 -0.5166  0.0338  1.3702
 5665TIP3    H216960   1.488   1.608   4.827 -0.6126 -0.2716 -1.7710
 5666TIP3   OH216961   4.871   4.008   2.226  0.2018 -0.3510  0.2834
 5666TIP3    H116962   4.824   4.063   2.163  0.1940 -0.8035 -0.1117
 5666TIP3    H216963   4.963   4.019   2.204  0.4005  1.4930  1.8360
 5667TIP3   OH216964   6.712   0.306   3.240  0.5062 -0.2478  0.1908
 5667TIP3    H116965   6.659   0.365   3.294 -0.8496 -1.3622  0.1392
 5667TIP3    H216966   6.802   0.323   3.268  0.0054  0.5935  1.4029
 5668TIP3   OH216967   1.998   1.892   5.614  1.0125  0.6927 -0.2623
 5668TIP3    H116968   2.034   1.960   5.558  0.2509 -0.4177 -2.2367
 5668TIP3    H216969   2.074   1.842   5.644  1.5667  2.3100  1.1497
 5669TIP3   OH216970   3.561   0.179   3.409  0.4579  0.2488  0.1218
 5669TIP3    H116971   3.610   0.097   3.404 -1.9858 -1.2209 -2.1723
 5669TIP3    H216972   3.612   0.240   3.355  0.7428 -0.6955 -0.7108
 5670TIP3   OH216973   6.153   1.783   4.291 -0.9481 -0.0550  0.1946
 5670TIP3    H116974   6.181   1.862   4.338 -1.3022 -0.0336  0.3725
 5670TIP3    H216975   6.224   1.720   4.304  0.1144  0.7632 -1.3043
 5671TIP3   OH216976   3.738   5.478   3.604  0.0621 -0.5699 -0.4927
 5671TIP3    H116977   3.726   5.383   3.609 -1.1771 -0.5221 -1.9135
 5671TIP3    H216978   3.682   5.512   3.674  1.0029 -0.8796  0.4453
 5672TIP3   OH216979   5.935   6.034   3.715  0.2077  0.7452  0.2667
 5672TIP3    H116980   6.006   6.056   3.654  0.1765 -0.2965 -0.1650
 5672TIP3    H216981   5.859   6.021   3.659 -0.2100  1.3487  0.6859
 5673TIP3   OH216982   2.975   5.363   0.771 -0.1657  0.0251 -0.0650
 5673TIP3    H116983   2.982   5.304   0.846 -0.0316  0.9593  0.6689
 5673TIP3    H216984   2.890   5.406   0.782 -0.3728 -0.2022 -0.7314
 5674TIP3   OH216985   4.686   0.536   0.287  1.0332 -0.0550 -0.0218
 5674TIP3    H116986   4.687   0.493   0.373  1.2795  1.4797  0.7904
 5674TIP3    H216987   4.747   0.485   0.234 -0.1814 -1.8845  0.2385
 5675TIP3   OH216988   6.841   0.171   0.561 -0.0999 -0.2866 -0.0493
 5675TIP3    H116989   6.759   0.205   0.523 -0.9350 -1.0080  1.0494
 5675TIP3    H216990   6.839   0.077   0.541  0.5970 -0.2643 -0.2406
 5676TIP3   OH216991   3.023   4.660   3.414  0.0168 -0.2164 -0.1210
 5676TIP3    H116992   3.088   4.728   3.435 -0.5298  0.1926  0.2805
 5676TIP3    H216993   2.939   4.699   3.439 -0.4283 -0.5882 -0.9931
 5677TIP3   OH216994   2.504   0.933   4.624  0.2670  0.2192 -0.7572
 5677TIP3    H116995   2.573   0.991   4.656  0.0150 -0.5981  1.3898
 5677TIP3    H216996   2.423   0.976   4.650  0.0613 -0.5559 -0.0622
 5678TIP3   OH216997   5.047   2.071   4.816 -0.4505  0.0806  0.3025
 5678TIP3    H116998   5.079   2.152   4.855  1.3622 -0.1150 -0.6755
 5678TIP3    H216999   5.088   2.001   4.868 -1.1380 -0.2085  0.4664
 5679TIP3   OH217000   2.524   0.264   1.567 -0.0705 -0.1222  0.3538
 5679TIP3    H117001   2.515   0.358   1.583  0.8851 -0.1706  1.3799
 5679TIP3    H217002   2.526   0.255   1.472 -0.6003  0.8482  0.2411
 5680TIP3   OH217003   1.551   5.380   5.666  0.4064  0.0503 -0.2317
 5680TIP3    H117004   1.547   5.298   5.618  0.6035  0.3691 -0.8023
 5680TIP3    H217005   1.465   5.419   5.654  1.2393  1.3547 -2.5583
 5681TIP3   OH217006   0.097   1.310   0.874  0.2103  0.6982 -0.2637
 5681TIP3    H117007   0.093   1.273   0.962  0.9131  0.9000 -0.1409
 5681TIP3    H217008   0.114   1.235   0.817  3.7205  0.9788  0.1855
 5682TIP3   OH217009   3.517   0.104   5.837  0.0288  0.4247 -0.4466
 5682TIP3    H117010   3.553   0.016   5.831 -2.5727 -0.6280 -1.9579
 5682TIP3    H217011   3.573   0.157   5.780  0.3995 -0.6960 -1.1516
 5683TIP3   OH217012   7.053   3.414   1.899 -0.0528  0.1141 -0.1203
 5683TIP3    H117013   7.061   3.331   1.851  0.3047 -0.9227  1.6429
 5683TIP3    H217014   7.142   3.449   1.901 -0.1527  0.4051 -0.6115
 5684TIP3   OH217015   6.069   3.187   5.371 -0.2071  0.2219  0.3873
 5684TIP3    H117016   6.055   3.260   5.432 -0.7017 -0.4242  1.0578
 5684TIP3    H217017   5.998   3.194   5.307  0.3253  0.9145 -0.1421
 5685TIP3   OH217018   2.569   5.641   5.478 -0.1087 -0.3204  0.5568
 5685TIP3    H117019   2.630   5.567   5.478 -0.3497 -0.5495 -1.2702
 5685TIP3    H217020   2.484   5.602   5.502 -0.2005 -0.6248 -0.2326
 5686TIP3   OH217021   6.331   4.175   3.311  0.2582  0.1687 -0.0291
 5686TIP3    H117022   6.380   4.213   3.383  0.4974 -1.5037  0.7529
 5686TIP3    H217023   6.240   4.179   3.340  0.1706  1.0328 -0.3974
 5687TIP3   OH217024   5.787   4.311   3.648  0.3452 -0.5589  0.1319
 5687TIP3    H117025   5.849   4.338   3.580 -1.5465  1.7984 -0.8136
 5687TIP3    H217026   5.842   4.288   3.723  2.3906  0.6680 -0.8954
 5688TIP3   OH217027   1.007   0.840   0.363  0.4347  0.4023 -0.0564
 5688TIP3    H117028   1.066   0.880   0.428  2.7794 -0.3764 -1.5491
 5688TIP3    H217029   0.990   0.910   0.300  0.3467  0.4328  0.0012
 5689TIP3   OH217030   6.242   5.828   3.298  0.2864  0.1074  0.0911
 5689TIP3    H117031   6.226   5.834   3.392  0.1505  0.7588  0.0319
 5689TIP3    H217032   6.154   5.834   3.259  0.3017 -0.5840 -0.0651
 5690TIP3   OH217033   2.483   5.350   3.616 -0.2100  0.3646 -0.3544
 5690TIP3    H117034   2.503   5.434   3.575  0.0413 -0.0602 -1.1301
 5690TIP3    H217035   2.507   5.285   3.550 -1.9847 -0.2638 -0.4374
 5691TIP3   OH217036   3.415   0.335   0.051  0.2586  0.3731 -0.1404
 5691TIP3    H117037   3.386   0.286   0.127  0.6635 -0.7391 -0.6767
 5691TIP3    H217038   3.492   0.384   0.082 -1.2705  2.2223  0.9020
 5692TIP3   OH217039   0.849   0.055   3.919  0.2399 -0.9305  0.5670
 5692TIP3    H117040   0.820  -0.024   3.966  0.7296 -1.0562  0.6641
 5692TIP3    H217041   0.930   0.081   3.964 -0.6008  0.3884  1.3951
 5693TIP3   OH217042   0.724   3.930   0.810 -1.0409  0.1490 -0.2759
 5693TIP3    H117043   0.630   3.915   0.816 -0.8789 -0.4314  1.6813
 5693TIP3    H217044   0.742   3.995   0.878 -0.0277  0.3087 -0.6736
 5694TIP3   OH217045   4.009   2.127   1.494  0.2872  0.3404  0.3185
 5694TIP3    H117046   3.956   2.204   1.472  0.5555  0.2485 -0.6938
 5694TIP3    H217047   4.094   2.144   1.453  1.2197  0.6951  2.2917
 5695TIP3   OH217048   0.014   4.716   1.821  0.5456 -0.2428 -0.3807
 5695TIP3    H117049  -0.044   4.661   1.873 -1.1088  1.2898 -0.4790
 5695TIP3    H217050   0.064   4.766   1.885 -0.2020  0.3540 -0.2468
 5696TIP3   OH217051   2.016   3.224   3.156  0.0833  0.3975  0.2764
 5696TIP3    H117052   2.100   3.186   3.181  0.9779  0.7239 -2.0086
 5696TIP3    H217053   2.038   3.309   3.118 -1.6057  1.8843  2.3794
 5697TIP3   OH217054   6.190   1.994   5.393 -0.5127  0.1196  0.1643
 5697TIP3    H117055   6.266   2.030   5.438 -1.2237  1.1720  0.5774
 5697TIP3    H217056   6.181   1.905   5.425 -0.7784  0.7159  1.8530
 5698TIP3   OH217057   0.920   0.625   4.264  0.3693 -0.3384  0.0335
 5698TIP3    H117058   0.854   0.563   4.233  0.5020 -0.9347  0.9005
 5698TIP3    H217059   1.004   0.589   4.236  0.4663 -0.7127  0.7610
 5699TIP3   OH217060   1.226   2.283   1.984 -0.6156 -0.1601 -0.3187
 5699TIP3    H117061   1.206   2.196   2.018 -0.9097  0.0921  0.1693
 5699TIP3    H217062   1.187   2.285   1.897 -0.5348 -0.5461 -0.3626
 5700TIP3   OH217063   0.709   3.622   0.235 -0.1819  0.1272  0.4143
 5700TIP3    H117064   0.690   3.641   0.143  2.4274  0.0178 -0.2252
 5700TIP3    H217065   0.676   3.533   0.248  1.0843 -0.6197 -1.0299
 5701TIP3   OH217066   0.787   6.207   1.804  0.1712 -0.1889 -0.0008
 5701TIP3    H117067   0.750   6.259   1.732  2.1753  1.0902 -0.1718
 5701TIP3    H217068   0.748   6.244   1.883  0.2983  0.4512 -0.2367
 5702TIP3   OH217069   7.093   1.140   3.182 -0.7054  0.8409 -0.5723
 5702TIP3    H117070   7.067   1.074   3.118 -3.7867  1.6725 -0.3539
 5702TIP3    H217071   7.086   1.095   3.267 -2.2100  1.2091 -0.4697
 5703TIP3   OH217072   7.009   4.104   5.193  0.3351  0.5228 -0.0113
 5703TIP3    H117073   6.967   4.113   5.279  0.6321 -1.0612  0.3249
 5703TIP3    H217074   7.080   4.168   5.195 -0.3198  1.2516  0.5115
 5704TIP3   OH217075   4.368   2.586   3.352  0.0101 -0.0489 -0.3051
 5704TIP3    H117076   4.286   2.625   3.382 -0.9804 -2.2056 -0.0733
 5704TIP3    H217077   4.424   2.662   3.333 -2.1606  1.5069 -0.9247
 5705TIP3   OH217078   4.473   4.121   0.405 -0.0899  0.1640 -0.3897
 5705TIP3    H117079   4.425   4.178   0.466 -1.1591 -3.1299  2.0953
 5705TIP3    H217080   4.557   4.106   0.448  0.8792  1.1043 -1.8564
 5706TIP3   OH217081   0.905   5.560   2.092 -0.1726 -0.1521  0.2850
 5706TIP3    H117082   0.830   5.616   2.073  0.5613  0.6335 -0.3897
 5706TIP3    H217083   0.980   5.607   2.054  0.5344 -1.3485  0.1558
 5707TIP3   OH217084   0.070   0.025   5.356 -0.1565  0.3461 -0.4681
 5707TIP3    H117085   0.062   0.121   5.351 -1.8631  0.2752  0.1305
 5707TIP3    H217086   0.045  -0.005   5.269 -0.6939  0.4096 -0.3402
 5708TIP3   OH217087   7.061   5.889   1.178  0.0384 -0.1374  0.0036
 5708TIP3    H117088   7.064   5.973   1.224 -1.2228  1.0382 -1.9050
 5708TIP3    H217089   7.104   5.827   1.237  1.1519  1.8679  1.4075
 5709TIP3   OH217090   0.993   5.766   2.653  0.5050 -0.0651  0.2072
 5709TIP3    H117091   1.041   5.762   2.735 -1.3586 -2.1215  1.2828
 5709TIP3    H217092   0.942   5.686   2.650 -2.4674  1.6962 -1.0934
 5710TIP3   OH217093   4.127   3.436   5.472 -0.3095 -0.4128  0.1077
 5710TIP3    H117094   4.106   3.488   5.549  0.5282 -1.6975  1.2505
 5710TIP3    H217095   4.131   3.499   5.400 -3.8026  0.4815  0.5400
 5711TIP3   OH217096   1.856   1.635   4.779 -0.3480  0.0791  0.5022
 5711TIP3    H117097   1.879   1.578   4.852  0.1876  0.0965  0.3514
 5711TIP3    H217098   1.939   1.649   4.733 -1.0566 -2.1929 -1.7459
 5712TIP3   OH217099   6.102   2.730   2.179 -0.6374  0.1161 -0.1656
 5712TIP3    H117100   6.021   2.758   2.221 -1.1022 -1.6106  0.1881
 5712TIP3    H217101   6.151   2.686   2.249 -0.3232 -0.6671 -0.8570
 5713TIP3   OH217102   3.910   2.631   4.820 -0.3503 -0.3568 -0.3693
 5713TIP3    H117103   3.982   2.660   4.875  1.1946 -2.0695 -1.3682
 5713TIP3    H217104   3.942   2.643   4.730 -2.3655  1.3070 -0.9311
 5714TIP3   OH217105   3.346   5.122   0.794  0.0883  0.0541 -0.1050
 5714TIP3    H117106   3.441   5.123   0.798  0.0445  0.7007  1.5904
 5714TIP3    H217107   3.318   5.150   0.881 -1.6570 -0.4262 -0.4721
 5715TIP3   OH217108   1.885   4.530   0.613 -0.3353  0.0951  0.2328
 5715TIP3    H117109   1.847   4.463   0.669  1.1374 -0.8464  0.1731
 5715TIP3    H217110   1.941   4.582   0.671 -1.0079  0.9239  0.1616
 5716TIP3   OH217111   4.656   1.271   1.384  0.6126  0.3439  0.0672
 5716TIP3    H117112   4.665   1.301   1.474 -0.5009 -0.1773  0.3621
 5716TIP3    H217113   4.564   1.283   1.363  0.8560  0.4605 -1.0108
 5717TIP3   OH217114   0.894   1.946   2.476 -0.4783  0.3331  0.0436
 5717TIP3    H117115   0.947   1.894   2.415  0.0817  0.0167  0.7843
 5717TIP3    H217116   0.947   2.025   2.491 -0.1665 -0.0179  0.8446
 5718TIP3   OH217117   6.502   3.460   3.169 -0.1853 -0.8215 -0.0273
 5718TIP3    H117118   6.498   3.434   3.261  0.3288 -2.1601 -0.3703
 5718TIP3    H217119   6.586   3.506   3.161 -0.6862  0.2112  0.3717
 5719TIP3   OH217120   2.533   0.493   0.740 -0.0496 -0.0156  0.5185
 5719TIP3    H117121   2.527   0.521   0.649 -0.4276  0.9317  0.8200
 5719TIP3    H217122   2.557   0.400   0.736 -0.9172 -0.2058 -0.5544
 5720TIP3   OH217123   2.507   1.026   4.076 -0.3766  0.0038 -0.8646
 5720TIP3    H117124   2.426   1.052   4.032 -1.0432  0.0343  0.3397
 5720TIP3    H217125   2.478   0.970   4.148  0.4385  1.9460  1.0812
 5721TIP3   OH217126   2.979   5.919   2.079  0.1497  0.0244  0.3893
 5721TIP3    H117127   2.962   5.902   1.987  0.5381  0.1553  0.2907
 5721TIP3    H217128   2.900   5.962   2.110 -0.9592 -2.1041  0.7057
 5722TIP3   OH217129   0.652   6.469   5.238  0.3206  0.0620  0.1758
 5722TIP3    H117130   0.710   6.426   5.175 -1.3057 -0.8631 -0.7457
 5722TIP3    H217131   0.707   6.538   5.277  2.0938 -0.9045 -0.4705
 5723TIP3   OH217132   2.916   6.075   2.962 -0.6133 -0.4553  0.1383
 5723TIP3    H117133   2.991   6.064   3.020 -0.8445 -1.5263  0.2519
 5723TIP3    H217134   2.853   6.125   3.014 -0.0507  0.3307  0.0893
 5724TIP3   OH217135   1.662   5.162   1.317 -0.8518  0.1219 -0.2460
 5724TIP3    H117136   1.568   5.147   1.314 -0.7281 -0.5140 -1.0699
 5724TIP3    H217137   1.676   5.209   1.400 -1.8307 -0.1702  0.0954
 5725TIP3   OH217138   3.634   3.508   0.820  0.2339 -0.0144  0.2008
 5725TIP3    H117139   3.722   3.512   0.783  0.5252  0.0446  0.8961
 5725TIP3    H217140   3.626   3.587   0.872 -1.0311  1.1131 -1.5836
 5726TIP3   OH217141   7.113   1.297   3.490  0.2465 -0.4396 -0.1971
 5726TIP3    H117142   7.049   1.227   3.498  0.7426 -0.7861  1.1269
 5726TIP3    H217143   7.136   1.319   3.581 -0.9038  2.4026 -0.4925
 5727TIP3   OH217144   1.801   1.484   5.035  0.0724 -0.1538 -0.2937
 5727TIP3    H117145   1.763   1.396   5.042 -0.3586 -0.0123 -0.8053
 5727TIP3    H217146   1.831   1.504   5.124  0.4095 -0.9197 -0.2235
 5728TIP3   OH217147   1.897   4.440   2.013 -0.2529  0.4690  0.0317
 5728TIP3    H117148   1.869   4.504   2.078  0.6813  1.2663 -0.3233
 5728TIP3    H217149   1.992   4.452   2.007 -0.5411  2.0735 -3.1429
 5729TIP3   OH217150   0.985   1.910   1.219 -0.2834  0.1154 -0.3586
 5729TIP3    H117151   0.997   1.828   1.268 -0.5696  0.9501  1.1847
 5729TIP3    H217152   1.061   1.963   1.243 -0.5404  0.6246 -0.6590
 5730TIP3   OH217153   2.854   1.169   2.037 -0.1908 -0.2779 -0.2846
 5730TIP3    H117154   2.763   1.180   2.010 -0.0382  0.8300 -0.3736
 5730TIP3    H217155   2.856   1.082   2.078 -1.1716 -0.5200 -0.7229
 5731TIP3   OH217156   4.875   2.397   1.812 -0.0611 -0.1012 -0.2661
 5731TIP3    H117157   4.950   2.440   1.771 -1.8134  0.5272 -3.2066
 5731TIP3    H217158   4.828   2.467   1.857 -0.6853  0.2792 -1.4582
 5732TIP3   OH217159   1.491   2.150   5.249 -0.5570  0.2103 -0.5199
 5732TIP3    H117160   1.536   2.089   5.190 -1.7150  0.9453 -2.2468
 5732TIP3    H217161   1.545   2.229   5.245  0.0954 -0.1590  0.5076
 5733TIP3   OH217162   2.433   4.345   5.611 -0.1491  0.8488  0.2301
 5733TIP3    H117163   2.463   4.389   5.690 -1.9308  2.2024  0.2013
 5733TIP3    H217164   2.482   4.386   5.540 -0.3554  1.4041  0.4031
 5734TIP3   OH217165   6.620   1.553   3.163 -0.2833  0.4488 -0.5130
 5734TIP3    H117166   6.540   1.582   3.208  0.4943  2.0204 -0.0692
 5734TIP3    H217167   6.632   1.463   3.191 -1.3840  0.4952  0.1758
 5735TIP3   OH217168   2.015   4.276   2.246 -0.0631 -0.3808 -0.0856
 5735TIP3    H117169   1.988   4.367   2.242  0.3302 -0.3072 -2.0481
 5735TIP3    H217170   1.956   4.236   2.310  0.3691  1.4111  1.5049
 5736TIP3   OH217171   2.873   4.154   2.755 -0.3126 -0.2136  0.2923
 5736TIP3    H117172   2.787   4.125   2.726 -0.7144  0.8554  0.3909
 5736TIP3    H217173   2.881   4.121   2.844  0.5199 -2.6587 -0.5900
 5737TIP3   OH217174   3.935   4.846   2.831 -0.2856  0.2624  0.5972
 5737TIP3    H117175   3.968   4.926   2.873 -2.2464  0.1261  2.5961
 5737TIP3    H217176   4.009   4.785   2.835  0.7755  1.4684  0.3670
 5738TIP3   OH217177   0.728   6.157   1.078  0.3273 -0.0416  0.4271
 5738TIP3    H117178   0.770   6.094   1.137  0.5660  1.0926  1.5183
 5738TIP3    H217179   0.700   6.105   1.004  2.0924 -1.1577  0.4703
 5739TIP3   OH217180   1.376   5.370   4.515 -0.5219  0.1227  0.1419
 5739TIP3    H117181   1.286   5.389   4.540 -0.1464  0.2762  1.4634
 5739TIP3    H217182   1.393   5.282   4.548  0.5170  0.9747  2.0749
 5740TIP3   OH217183   6.586   4.946   2.773 -0.3126 -0.2721  0.3739
 5740TIP3    H117184   6.651   5.016   2.781 -0.2236 -0.2833 -0.2227
 5740TIP3    H217185   6.503   4.991   2.759  0.1510 -0.2226 -3.4014
 5741TIP3   OH217186   0.986   3.173   1.289 -0.3052  0.0083  0.5107
 5741TIP3    H117187   0.919   3.241   1.284  0.2479  0.5490  0.2398
 5741TIP3    H217188   1.061   3.217   1.330  0.1683 -0.3524  0.0379
 5742TIP3   OH217189   6.527   6.222   3.200 -0.4022  0.3403 -0.3236
 5742TIP3    H117190   6.478   6.191   3.276 -0.4723  0.3947 -0.3454
 5742TIP3    H217191   6.479   6.186   3.125  0.0291 -0.2352 -0.3297
 5743TIP3   OH217192   0.067   3.477   1.527  0.5460  0.5409  0.0155
 5743TIP3    H117193   0.134   3.427   1.574 -0.1370  0.5604  1.0449
 5743TIP3    H217194  -0.012   3.423   1.535  0.7199 -0.2034 -2.4390
 5744TIP3   OH217195   0.472   6.006   2.621 -0.1828  0.3275 -0.2246
 5744TIP3    H117196   0.504   6.018   2.532 -1.4962  0.7915 -0.6514
 5744TIP3    H217197   0.510   5.922   2.649  0.3864  0.2658 -1.1429
 5745TIP3   OH217198   6.263   5.249   2.208 -0.0017 -0.3058  0.1763
 5745TIP3    H117199   6.352   5.235   2.178 -0.4920 -1.4629 -0.8342
 5745TIP3    H217200   6.218   5.166   2.190 -1.3986  0.4192  0.1878
 5746TIP3   OH217201   4.705   5.551   2.088  0.1975  0.7835  0.7542
 5746TIP3    H117202   4.640   5.571   2.156 -0.0723  1.3578  0.3375
 5746TIP3    H217203   4.723   5.458   2.099 -1.0837  0.4861  0.5484
 5747TIP3   OH217204   0.034   3.691   2.961 -0.1776 -0.0784 -0.0843
 5747TIP3    H117205   0.106   3.753   2.962  0.4084 -0.7319 -0.7355
 5747TIP3    H217206   0.071   3.611   2.924  0.0793 -2.0201  3.8550
 5748TIP3   OH217207   6.005   6.206   4.991  0.3313 -0.2723  0.4121
 5748TIP3    H117208   6.085   6.249   4.958 -0.5302  1.1917  0.1204
 5748TIP3    H217209   6.004   6.228   5.085  0.8222 -1.2203  0.6474
 5749TIP3   OH217210   6.997   2.428   4.725 -0.2121 -0.2852 -0.0324
 5749TIP3    H117211   7.043   2.346   4.744  1.0317  0.0838 -1.2585
 5749TIP3    H217212   6.905   2.408   4.739  0.2345 -1.2684  1.8009
 5750TIP3   OH217213   2.367   3.809   5.747 -0.1691  0.5981 -0.4984
 5750TIP3    H117214   2.368   3.802   5.652  0.1148  0.7694 -0.5081
 5750TIP3    H217215   2.400   3.897   5.765 -1.4553  1.0612 -0.2918
 5751TIP3   OH217216   6.869   0.795   2.945 -0.0018 -0.0909  0.2159
 5751TIP3    H117217   6.786   0.750   2.959 -0.4836  0.8902  0.5838
 5751TIP3    H217218   6.847   0.872   2.894  0.5980  0.4599  0.7605
 5752TIP3   OH217219   5.039   1.321   3.810  0.2296  0.0120  0.2158
 5752TIP3    H117220   5.056   1.377   3.733  2.5143  0.2258  0.7974
 5752TIP3    H217221   4.989   1.248   3.775 -0.1482  0.8867 -1.1787
 5753TIP3   OH217222   2.069   2.840   0.785 -0.0878 -0.1408 -0.5388
 5753TIP3    H117223   1.976   2.834   0.763 -0.0412  0.7260 -1.0064
 5753TIP3    H217224   2.102   2.751   0.771 -1.0132 -0.6676  0.4757
 5754TIP3   OH217225   1.023   3.152   4.570 -0.2026  0.3634  0.4637
 5754TIP3    H117226   0.962   3.218   4.536 -2.0096 -1.9254 -1.0747
 5754TIP3    H217227   1.089   3.142   4.502 -0.5551 -0.1522  0.1888
 5755TIP3   OH217228   1.415   2.890   1.269  0.5460 -0.2065 -0.0605
 5755TIP3    H117229   1.499   2.851   1.243 -1.0319 -3.1566 -1.2261
 5755TIP3    H217230   1.438   2.978   1.299  4.1409 -1.1105  0.3953
 5756TIP3   OH217231   7.084   2.779   4.441  0.0987  0.5767 -0.4738
 5756TIP3    H117232   6.993   2.808   4.435  0.0949  0.6316 -0.1702
 5756TIP3    H217233   7.121   2.797   4.355  0.2105  1.8514 -0.1739
 5757TIP3   OH217234   3.084   4.820   2.340 -0.9717 -0.0196 -0.4527
 5757TIP3    H117235   3.147   4.891   2.341 -0.2577 -0.6281  1.0106
 5757TIP3    H217236   3.136   4.741   2.328 -1.5032 -0.4816  0.1859
 5758TIP3   OH217237   6.003   0.259   5.801 -0.1727 -0.4137 -0.0483
 5758TIP3    H117238   6.044   0.209   5.871  1.0398  0.4103 -0.1462
 5758TIP3    H217239   6.075   0.305   5.758 -1.0068 -0.1917 -1.2652
 5759TIP3   OH217240   1.006   6.654   3.657 -0.3006  0.8572  0.0738
 5759TIP3    H117241   1.007   6.747   3.632 -2.3372  1.0687  0.5818
 5759TIP3    H217242   0.969   6.610   3.581 -1.1000  0.7210  0.5392
 5760TIP3   OH217243   5.358   2.010   4.821 -0.8043  0.2226  1.0986
 5760TIP3    H117244   5.445   2.013   4.861 -0.7558 -0.0422  1.0171
 5760TIP3    H217245   5.342   2.100   4.791 -0.4437  0.2132  0.8720
 5761TIP3   OH217246   1.243   3.873   2.128 -0.6504  0.3111  0.8026
 5761TIP3    H117247   1.173   3.808   2.127 -1.1685  0.8638  0.7021
 5761TIP3    H217248   1.316   3.830   2.083 -1.5745  0.4255 -0.8849
 5762TIP3   OH217249   0.145   4.134   2.061 -0.3621  0.4036  0.0655
 5762TIP3    H117250   0.050   4.121   2.067 -0.3232  0.1721  0.2183
 5762TIP3    H217251   0.169   4.166   2.148  0.1113 -2.3019  1.0183
 5763TIP3   OH217252   2.916   1.504   2.534  0.4589 -0.2947 -0.5126
 5763TIP3    H117253   2.890   1.574   2.475 -0.3361  0.7722  1.0443
 5763TIP3    H217254   2.997   1.535   2.574  1.1530 -1.1396 -1.2375
 5764TIP3   OH217255   0.917   1.443   0.773  0.3638  0.3908 -1.0005
 5764TIP3    H117256   0.980   1.443   0.845 -1.4452  1.0517  0.6774
 5764TIP3    H217257   0.955   1.501   0.707  1.2257  1.2619  0.2338
 5765TIP3   OH217258   6.347   6.183   1.191 -0.2475 -0.0039 -0.6624
 5765TIP3    H117259   6.395   6.104   1.166  3.1375  2.0158 -1.1431
 5765TIP3    H217260   6.412   6.253   1.187 -3.0732  2.8756 -0.3082
 5766TIP3   OH217261   3.552   1.256   4.554 -0.7337 -0.1072 -0.5489
 5766TIP3    H117262   3.469   1.289   4.521  0.0788  2.5546 -0.1960
 5766TIP3    H217263   3.615   1.276   4.485  0.2317  1.5368  0.7350
 5767TIP3   OH217264   2.444   2.767   3.465 -0.5119  0.0061 -0.0612
 5767TIP3    H117265   2.511   2.802   3.523 -1.8067  0.5650  1.1712
 5767TIP3    H217266   2.374   2.740   3.524 -0.9338 -1.5663 -1.2339
 5768TIP3   OH217267   3.274   0.066   2.109  0.7666 -0.4504  0.2444
 5768TIP3    H117268   3.258   0.146   2.159  2.1823  0.8247 -1.2241
 5768TIP3    H217269   3.369   0.052   2.117  0.6818 -1.4058 -0.3267
 5769TIP3   OH217270   2.822   5.183   3.046 -0.4074  0.2611  0.1454
 5769TIP3    H117271   2.741   5.161   2.999 -0.1808  0.6978 -0.4568
 5769TIP3    H217272   2.892   5.166   2.983  0.0344 -0.6747  0.8493
 5770TIP3   OH217273   0.263  -0.025   1.066 -0.4711  0.1213 -0.1516
 5770TIP3    H117274   0.291   0.058   1.104  0.1318 -0.0004 -0.3204
 5770TIP3    H217275   0.170  -0.030   1.086 -0.4960  0.7972 -0.0611
 5771TIP3   OH217276   2.209   6.455   5.286 -0.0262  0.5620 -0.2236
 5771TIP3    H117277   2.164   6.388   5.338 -3.3263  0.9427 -2.2927
 5771TIP3    H217278   2.264   6.501   5.349 -0.2252 -1.9145  1.9345
 5772TIP3   OH217279   5.886   0.288   0.744  0.5745  0.3267 -0.1165
 5772TIP3    H117280   5.954   0.284   0.811  1.4797 -0.2414 -1.0447
 5772TIP3    H217281   5.822   0.350   0.779  1.4016  0.6241  0.9279
 5773TIP3   OH217282   2.188   0.938   5.838  0.2115  0.3141 -0.3083
 5773TIP3    H117283   2.177   0.863   5.779  0.4609 -0.2278  0.3239
 5773TIP3    H217284   2.139   0.913   5.917 -0.6353  1.2918 -0.5018
 5774TIP3   OH217285   3.697   3.630   2.843 -0.5929 -1.0083 -0.1342
 5774TIP3    H117286   3.603   3.649   2.847 -0.3217  0.7225 -1.2505
 5774TIP3    H217287   3.730   3.683   2.771  1.6724  0.2299  1.6601
 5775TIP3   OH217288   0.342   0.228   2.415  0.8287 -0.2457  0.3239
 5775TIP3    H117289   0.423   0.199   2.373 -0.1163 -1.4157 -0.8019
 5775TIP3    H217290   0.326   0.315   2.380 -0.8402 -1.8104 -3.3543
 5776TIP3   OH217291   4.912   6.370   0.994  0.2311 -0.0359  0.7119
 5776TIP3    H117292   4.886   6.278   0.999  2.2881 -0.7609 -0.8757
 5776TIP3    H217293   4.887   6.406   1.079 -0.1010 -2.1789  1.5856
 5777TIP3   OH217294   0.763   4.149   4.720 -0.7389 -0.0838  0.9035
 5777TIP3    H117295   0.817   4.078   4.688 -0.0312  0.2950  1.2410
 5777TIP3    H217296   0.819   4.197   4.782 -0.1130  2.5558 -1.4821
 5778TIP3   OH217297   3.214   6.259   5.812 -0.1159  0.0286  0.3440
 5778TIP3    H117298   3.286   6.199   5.830 -0.7281 -0.8246  0.0555
 5778TIP3    H217299   3.255   6.336   5.774  0.7524  0.0663  1.3258
 5779TIP3   OH217300   5.559   4.180   4.475  0.8601 -0.9236  0.4699
 5779TIP3    H117301   5.605   4.098   4.489  0.1619 -1.1864  1.3840
 5779TIP3    H217302   5.619   4.234   4.424  1.3600 -1.9653 -0.0558
 5780TIP3   OH217303   6.026   5.026   1.328  0.2278  0.0104 -0.1594
 5780TIP3    H117304   5.966   4.985   1.390 -1.3240  0.4086 -1.3123
 5780TIP3    H217305   6.063   5.101   1.375  0.8678 -1.0026  1.0005
 5781TIP3   OH217306   6.091   3.245   1.931  0.2726 -0.9180 -0.3481
 5781TIP3    H117307   6.152   3.218   2.000  1.0754 -2.1564 -1.4908
 5781TIP3    H217308   6.139   3.310   1.881  0.3054 -1.1953 -0.6812
 5782TIP3   OH217309   3.904   2.348   3.564  0.4799 -0.0763  0.2985
 5782TIP3    H117310   3.996   2.328   3.549  0.2643  0.2475 -1.7604
 5782TIP3    H217311   3.863   2.340   3.478 -1.2651  0.5833  1.0128
 5783TIP3   OH217312   4.092   1.931   3.571 -0.2761 -0.1949  0.3473
 5783TIP3    H117313   4.093   1.999   3.639  0.1898 -0.9537  1.1288
 5783TIP3    H217314   4.039   1.967   3.501 -0.2383  0.8751  0.8550
 5784TIP3   OH217315   4.732   3.444   4.561  0.4221 -0.1481  0.2239
 5784TIP3    H117316   4.814   3.492   4.566 -1.8076  4.1593  0.7947
 5784TIP3    H217317   4.703   3.456   4.470 -0.7994  0.8923  0.7198
 5785TIP3   OH217318   4.646   1.232   3.798  0.2229 -0.2862 -0.6985
 5785TIP3    H117319   4.658   1.150   3.846 -0.8014  0.9314  1.8583
 5785TIP3    H217320   4.621   1.205   3.710 -2.4982 -2.8150  0.6748
 5786TIP3   OH217321   4.508   3.993   2.746 -0.0899 -0.0295  0.6881
 5786TIP3    H117322   4.418   3.992   2.778 -0.3653  1.7583  0.1283
 5786TIP3    H217323   4.511   4.067   2.685  1.4781 -0.7461 -0.1753
 5787TIP3   OH217324   0.475   5.622   5.880 -0.3300 -0.2189  0.1292
 5787TIP3    H117325   0.440   5.541   5.842  0.2968 -0.8020  0.7607
 5787TIP3    H217326   0.486   5.680   5.806 -1.0440 -0.6135 -0.3058
 5788TIP3   OH217327   1.143   3.888   4.983  0.4019 -0.1337  0.3784
 5788TIP3    H117328   1.068   3.936   4.946  1.2960  0.0050 -1.3575
 5788TIP3    H217329   1.213   3.953   4.987  0.7462 -0.5331  0.9984
 5789TIP3   OH217330   4.747   3.865   2.675 -0.1668  0.3221 -0.0523
 5789TIP3    H117331   4.668   3.899   2.717 -1.6361 -1.3461 -1.2923
 5789TIP3    H217332   4.768   3.929   2.607 -0.1447  1.0160  0.5968
 5790TIP3   OH217333   2.312   2.519   2.855 -0.4083  0.2118 -0.6389
 5790TIP3    H117334   2.337   2.607   2.828  0.2546 -0.3358 -1.8889
 5790TIP3    H217335   2.369   2.500   2.930  0.7383  0.1758 -1.4928
 5791TIP3   OH217336   5.602   5.216   5.036 -0.4995 -0.2707  0.2102
 5791TIP3    H117337   5.627   5.291   5.089  0.5604 -1.0570  0.8750
 5791TIP3    H217338   5.640   5.234   4.950 -0.8389  0.2645  0.1701
 5792TIP3   OH217339   4.586   5.067   1.364  0.0779 -0.4167  0.8276
 5792TIP3    H117340   4.512   5.021   1.325  0.1273  1.2299 -1.4061
 5792TIP3    H217341   4.545   5.131   1.423 -0.2177 -0.3563  0.5596
 5793TIP3   OH217342   6.757   4.031   3.440 -0.0666 -0.3225 -0.2132
 5793TIP3    H117343   6.824   3.974   3.404 -0.2232  0.4235 -1.7545
 5793TIP3    H217344   6.680   4.016   3.386  0.0274  1.6537 -1.0051
 5794TIP3   OH217345   6.224   0.005   3.539  0.0816 -0.2952  0.2025
 5794TIP3    H117346   6.230  -0.044   3.621 -0.0396 -1.6560 -0.5618
 5794TIP3    H217347   6.253   0.093   3.561 -0.2817 -0.5400  1.7730
 5795TIP3   OH217348   1.432   1.812   0.327 -0.3139 -0.0093  0.3565
 5795TIP3    H117349   1.416   1.733   0.378 -0.5417 -0.3090 -0.1626
 5795TIP3    H217350   1.477   1.780   0.248 -2.3202  0.0574 -0.8874
 5796TIP3   OH217351   0.462   4.637   4.241 -0.1881 -0.1852 -0.1260
 5796TIP3    H117352   0.465   4.653   4.146  0.0157 -2.7254 -0.6284
 5796TIP3    H217353   0.544   4.592   4.260 -1.1301 -1.5983  0.8087
 5797TIP3   OH217354   1.153   0.913   4.705  0.0755  0.2744 -0.6401
 5797TIP3    H117355   1.088   0.891   4.638  1.1266 -0.5459 -1.3990
 5797TIP3    H217356   1.236   0.917   4.659  0.5940  1.3400  0.3248
 5798TIP3   OH217357   5.424   5.590   5.249  0.4755  0.4420  0.2245
 5798TIP3    H117358   5.351   5.630   5.296 -1.3224 -0.4348 -1.6644
 5798TIP3    H217359   5.467   5.663   5.205 -1.0351  0.7270 -0.8879
 5799TIP3   OH217360   4.734   3.525   0.113  0.7932  0.2764 -0.2747
 5799TIP3    H117361   4.713   3.577   0.190  0.2537 -0.2250 -0.0664
 5799TIP3    H217362   4.699   3.575   0.039  0.2133  0.1888 -0.0694
 5800TIP3   OH217363   4.152   4.270   4.269  0.3669  0.0351  0.0351
 5800TIP3    H117364   4.195   4.187   4.247 -0.5155 -0.1613 -1.0121
 5800TIP3    H217365   4.065   4.262   4.232 -0.4577  0.6049  1.7532
 5801TIP3   OH217366   3.024   6.242   2.381 -0.0004  0.1615 -0.2647
 5801TIP3    H117367   2.938   6.206   2.403  0.0832 -0.0909 -0.3468
 5801TIP3    H217368   3.085   6.192   2.434 -0.0522  1.6227  1.2687
 5802TIP3   OH217369   4.370   6.107   5.878  0.1592  0.7710 -0.1423
 5802TIP3    H117370   4.290   6.094   5.827  0.6363 -0.8610 -0.5089
 5802TIP3    H217371   4.441   6.094   5.816  0.7587  2.8880  0.0178
 5803TIP3   OH217372   4.123   6.238   3.656  0.0580 -0.0557  0.1748
 5803TIP3    H117373   4.032   6.211   3.646 -0.2275  0.8714  0.2003
 5803TIP3    H217374   4.126   6.285   3.739  0.7432 -0.8048  0.5884
 5804TIP3   OH217375   4.522   6.701   0.524  0.1743  0.1859 -0.5786
 5804TIP3    H117376   4.605   6.747   0.507  1.2500 -0.9468  1.2331
 5804TIP3    H217377   4.546   6.609   0.527 -1.2549 -0.2050 -0.4378
 5805TIP3   OH217378   6.609   3.000   2.682 -0.1564 -0.3302 -0.1466
 5805TIP3    H117379   6.596   2.943   2.757 -0.1920  0.7089  0.6628
 5805TIP3    H217380   6.634   3.084   2.720  0.5573  0.0155 -1.3384
 5806TIP3   OH217381   5.242   5.247   5.172  0.0326 -0.1876  0.2461
 5806TIP3    H117382   5.323   5.255   5.222  0.5402 -2.0700 -0.1741
 5806TIP3    H217383   5.177   5.292   5.225  0.6906 -1.5373  2.3212
 5807TIP3   OH217384   3.919   5.908   0.240  0.0181 -0.3305 -0.0823
 5807TIP3    H117385   3.927   5.814   0.227 -1.5955 -0.4311 -0.6584
 5807TIP3    H217386   4.008   5.942   0.234  0.4607 -1.6437 -1.3423
 5808TIP3   OH217387   0.847   1.675   5.227 -0.5022 -0.0421  0.0635
 5808TIP3    H117388   0.812   1.704   5.311  1.6392 -0.8396  1.3121
 5808TIP3    H217389   0.832   1.580   5.225  0.2936 -0.1778  0.0027
 5809TIP3   OH217390   4.569   1.081   0.988  0.2721  0.5321 -0.3370
 5809TIP3    H117391   4.542   1.104   0.899  0.3799  0.2500 -0.4405
 5809TIP3    H217392   4.519   1.002   1.009 -1.1164  1.5932  0.5180
 5810TIP3   OH217393   3.925   6.350   2.294  0.4074  0.0191  0.7136
 5810TIP3    H117394   3.854   6.384   2.241  0.7570  0.3722  0.4697
 5810TIP3    H217395   3.886   6.333   2.380 -0.7187 -2.6135 -0.2034
 5811TIP3   OH217396   6.145   6.763   5.493  0.7492  0.4220 -0.2767
 5811TIP3    H117397   6.095   6.745   5.572  1.0742 -0.8203 -0.3344
 5811TIP3    H217398   6.081   6.796   5.430  0.2097 -0.0774  0.0105
 5812TIP3   OH217399   2.927   2.893   2.064  0.0705 -0.4987  0.1899
 5812TIP3    H117400   2.872   2.867   2.138 -0.3109 -0.8313 -0.2082
 5812TIP3    H217401   2.868   2.938   2.004  0.7461  1.4528  0.9262
 5813TIP3   OH217402   1.319   1.426   2.070  0.6064 -0.1549  0.0898
 5813TIP3    H117403   1.412   1.404   2.065  0.6881 -0.0419  1.0489
 5813TIP3    H217404   1.274   1.343   2.053  0.8598 -0.0344 -1.2717
 5814TIP3   OH217405   5.284   2.620   4.124 -0.3278  0.0500  0.0998
 5814TIP3    H117406   5.286   2.524   4.117 -1.1878 -0.0138  0.5867
 5814TIP3    H217407   5.251   2.636   4.212  0.1787  0.8043  0.1568
 5815TIP3   OH217408   3.122   1.565   1.939  0.2635  0.1837  0.6479
 5815TIP3    H117409   3.078   1.575   2.023  0.4649  0.7665  0.6924
 5815TIP3    H217410   3.185   1.494   1.952 -1.0116 -1.0141  0.4307
 5816TIP3   OH217411   5.243   1.668   0.912 -0.1064 -0.2918 -0.0083
 5816TIP3    H117412   5.311   1.629   0.857  0.3317  0.4625 -0.0098
 5816TIP3    H217413   5.168   1.609   0.903 -0.0480 -0.1837 -1.4199
 5817TIP3   OH217414   3.372   3.158   3.285  1.2229 -0.0313  0.2270
 5817TIP3    H117415   3.283   3.193   3.285  1.4377  0.5352 -0.9523
 5817TIP3    H217416   3.368   3.080   3.230  1.3683 -0.2488  0.5201
 5818TIP3   OH217417   4.284   0.004   1.488  0.3047  0.4374  0.0611
 5818TIP3    H117418   4.304   0.076   1.547  0.9932  0.8400 -0.6472
 5818TIP3    H217419   4.363  -0.007   1.436  0.3419 -1.0596  0.3842
 5819TIP3   OH217420   4.257   6.418   1.909 -0.2662 -0.4677  0.2195
 5819TIP3    H117421   4.190   6.462   1.961  0.4035  2.0115 -0.9107
 5819TIP3    H217422   4.328   6.402   1.971 -0.3105  0.5371  0.5478
 5820TIP3   OH217423   3.830   2.799   0.891 -0.3362  0.8745 -0.4930
 5820TIP3    H117424   3.898   2.762   0.834  1.0280 -1.0378  2.1797
 5820TIP3    H217425   3.757   2.737   0.886  0.1213  0.2331  0.4038
 5821TIP3   OH217426   2.808   3.024   2.401  0.1891  0.0028 -0.1036
 5821TIP3    H117427   2.825   3.074   2.481  0.6025  2.1443 -1.4298
 5821TIP3    H217428   2.894   3.009   2.363  0.0576 -1.6696  0.1832
 5822TIP3   OH217429   4.599   3.434   5.091  0.4072  0.3599 -0.1803
 5822TIP3    H117430   4.620   3.351   5.048  1.0588  0.2253  0.3844
 5822TIP3    H217431   4.643   3.501   5.038  0.1038  0.3272 -0.4806
 5823TIP3   OH217432   5.729   6.271   3.484 -0.0353 -0.2531  0.2517
 5823TIP3    H117433   5.709   6.298   3.395  1.6654 -2.4528 -0.8950
 5823TIP3    H217434   5.815   6.310   3.502 -1.0735  1.5350  1.6122
 5824TIP3   OH217435   5.964   3.433   2.761  0.7586  0.1252 -0.0035
 5824TIP3    H117436   6.003   3.463   2.679  0.2750  0.2057 -0.2101
 5824TIP3    H217437   5.910   3.507   2.790  0.1736 -0.2498 -0.1142
 5825TIP3   OH217438   4.553   0.585   0.566  0.2853 -0.0549 -0.0484
 5825TIP3    H117439   4.595   0.498   0.568 -0.0192 -0.2079 -0.3186
 5825TIP3    H217440   4.611   0.640   0.618  0.4978 -0.4158  0.1023
 5826TIP3   OH217441   3.564   5.082   2.908 -0.5804 -0.4111  0.3349
 5826TIP3    H117442   3.606   5.003   2.941 -0.7439 -0.0103  1.5409
 5826TIP3    H217443   3.567   5.144   2.981 -2.4039 -0.0447  0.1546
 5827TIP3   OH217444   2.456   5.076   4.057 -0.4569 -0.1938 -0.2844
 5827TIP3    H117445   2.393   5.008   4.081 -0.5674  0.3907  1.2262
 5827TIP3    H217446   2.434   5.098   3.967 -2.1173 -0.3532  0.0331
 5828TIP3   OH217447   5.464   5.977   0.250 -0.6778 -0.1099  0.4667
 5828TIP3    H117448   5.535   6.024   0.205 -2.3132  0.5422 -1.5672
 5828TIP3    H217449   5.510   5.922   0.314  1.7736 -0.4515 -1.3979
 5829TIP3   OH217450   1.197   2.749   2.696 -0.8921  0.0588  0.8572
 5829TIP3    H117451   1.109   2.780   2.674 -1.2767 -0.5271  1.5334
 5829TIP3    H217452   1.231   2.711   2.615 -0.0814  2.8946 -0.2649
 5830TIP3   OH217453   2.756   5.472   0.922 -0.1809 -0.3318 -0.3698
 5830TIP3    H117454   2.827   5.492   0.984 -0.4333 -1.5766  0.3354
 5830TIP3    H217455   2.735   5.557   0.883  0.0262  0.4725  1.1981
 5831TIP3   OH217456   1.552   6.140   0.370 -0.5644  0.6246 -0.4310
 5831TIP3    H117457   1.551   6.099   0.457  1.8524  0.2298 -0.5245
 5831TIP3    H217458   1.480   6.097   0.323 -1.6509  0.5471  1.2123
 5832TIP3   OH217459   0.683   1.926   3.761 -0.1707  0.1443  0.3227
 5832TIP3    H117460   0.708   1.851   3.706 -0.6478  0.4406 -0.3090
 5832TIP3    H217461   0.686   1.892   3.850 -1.6224 -1.0328 -0.0211
 5833TIP3   OH217462   3.928   0.127   4.457 -0.1414 -0.0959 -0.2635
 5833TIP3    H117463   3.967   0.196   4.510  1.9880 -0.1241 -1.7037
 5833TIP3    H217464   3.865   0.172   4.401  0.6184  0.5592 -0.6027
 5834TIP3   OH217465   1.707   2.917   1.290  0.2048  0.2799  0.1044
 5834TIP3    H117466   1.702   2.873   1.375 -1.0816 -1.5963 -0.8862
 5834TIP3    H217467   1.681   3.008   1.308 -0.5268 -0.2069  1.6295
 5835TIP3   OH217468   1.255   1.682   4.211  0.1217  0.1966  0.3373
 5835TIP3    H117469   1.237   1.599   4.168  2.2700 -0.6727  0.9976
 5835TIP3    H217470   1.242   1.664   4.305  1.7138  0.2362  0.5908
 5836TIP3   OH217471   2.223   5.138   4.693 -0.1361 -0.8050  0.4987
 5836TIP3    H117472   2.221   5.162   4.601  0.0962 -1.2631  0.3715
 5836TIP3    H217473   2.184   5.213   4.738  0.6091 -0.1738  0.1159
 5837TIP3   OH217474   0.980   1.086   1.349  0.0407  0.1415  0.0100
 5837TIP3    H117475   0.990   1.127   1.263 -0.1220 -0.2512 -0.1969
 5837TIP3    H217476   1.029   1.005   1.343 -0.3847 -0.1292  0.1205
 5838TIP3   OH217477   0.577   0.171   0.449  0.1595  0.0280  0.3789
 5838TIP3    H117478   0.670   0.156   0.433  0.5394  0.2011  2.1451
 5838TIP3    H217479   0.572   0.264   0.472 -0.4286 -0.0178  0.4543
 5839TIP3   OH217480   3.646   4.598   4.255  0.4464 -0.6328  0.7479
 5839TIP3    H117481   3.715   4.657   4.286  0.5659 -0.9639  1.1317
 5839TIP3    H217482   3.694   4.520   4.226  0.3925 -0.0862 -0.8900
 5840TIP3   OH217483   3.704   2.319   3.374  0.2905 -0.0731  0.0567
 5840TIP3    H117484   3.609   2.310   3.381  0.2833 -0.6118 -0.7128
 5840TIP3    H217485   3.722   2.327   3.281  0.9610  0.5662  0.2268
 5841TIP3   OH217486   4.555   3.511   5.516  0.1548 -0.5892  0.4748
 5841TIP3    H117487   4.635   3.535   5.563 -0.0180  1.1126 -0.0548
 5841TIP3    H217488   4.516   3.594   5.490 -0.2770 -1.4274 -1.8274
 5842TIP3   OH217489   5.339   3.685   2.610  0.5257 -0.0550 -0.1519
 5842TIP3    H117490   5.249   3.715   2.605  0.6986  0.9461  1.9185
 5842TIP3    H217491   5.386   3.738   2.545  0.0021  0.8911  0.2339
 5843TIP3   OH217492   1.553   1.989   5.817  0.1284 -0.4031  0.1546
 5843TIP3    H117493   1.526   2.075   5.848 -0.4126 -1.1622  1.9230
 5843TIP3    H217494   1.516   1.982   5.729 -1.2361  0.5243  0.6250
 5844TIP3   OH217495   0.034   1.319   2.817 -0.2165 -0.2541 -0.1687
 5844TIP3    H117496   0.092   1.347   2.747  1.8800  0.7691  1.8548
 5844TIP3    H217497  -0.006   1.400   2.849 -1.6422 -0.7787 -0.5522
 5845TIP3   OH217498   6.111   4.538   1.264 -0.2527  0.4206 -0.2273
 5845TIP3    H117499   6.108   4.494   1.179 -1.0211  0.0480 -0.0157
 5845TIP3    H217500   6.191   4.590   1.262 -0.6388  0.9982 -1.4747
 5846TIP3   OH217501   2.780   3.737   0.735 -0.5858  0.1917 -0.0910
 5846TIP3    H117502   2.867   3.773   0.751 -1.5270  1.7319  1.8998
 5846TIP3    H217503   2.765   3.753   0.641  0.9811  0.5011 -0.3226
 5847TIP3   OH217504   3.409   0.015   1.342 -0.0193 -0.1551 -0.2427
 5847TIP3    H117505   3.392   0.101   1.304 -1.9545 -0.2344  0.3333
 5847TIP3    H217506   3.405   0.028   1.437  1.3576 -0.5883 -0.1022
 5848TIP3   OH217507   6.841   0.255   3.862  0.0011 -0.1788  0.0647
 5848TIP3    H117508   6.752   0.287   3.853  0.4848  1.0640 -0.5401
 5848TIP3    H217509   6.884   0.279   3.780  0.8219 -1.0090  0.2305
 5849TIP3   OH217510   4.073   6.133   3.201 -0.0574  0.2513  0.0028
 5849TIP3    H117511   3.990   6.181   3.196 -0.2525  0.2925  2.3408
 5849TIP3    H217512   4.117   6.153   3.119 -0.1560  4.4377  0.7131
 5850TIP3   OH217513   4.383   3.655   4.106 -0.0617 -0.3412 -0.4340
 5850TIP3    H117514   4.289   3.640   4.093 -0.2311  0.6320 -0.3805
 5850TIP3    H217515   4.419   3.568   4.121 -0.8972 -0.7691 -0.8493
 5851TIP3   OH217516   5.705   2.719   3.955  0.1813  0.4582  0.0889
 5851TIP3    H117517   5.758   2.798   3.959 -1.1739  1.4448 -0.8457
 5851TIP3    H217518   5.753   2.661   3.896  2.2521 -0.3326  2.3528
 5852TIP3   OH217519   6.281   3.964   0.341  0.1739 -0.1160 -0.6279
 5852TIP3    H117520   6.229   3.911   0.402  0.6741 -0.7299 -0.7241
 5852TIP3    H217521   6.239   3.951   0.256  0.5224 -0.6709 -0.7185
 5853TIP3   OH217522   3.015   4.366   0.543 -0.5036  0.0020 -0.4752
 5853TIP3    H117523   2.936   4.420   0.550 -0.4811 -0.1793  1.6241
 5853TIP3    H217524   3.085   4.421   0.579  0.0468 -0.4158 -0.8789
 5854TIP3   OH217525   0.467   0.971   0.890  0.2625 -0.1820  0.3449
 5854TIP3    H117526   0.519   1.052   0.887  0.5650 -0.2764  1.9730
 5854TIP3    H217527   0.376   1.001   0.897  0.1310 -0.0182 -1.5401
 5855TIP3   OH217528   6.159   5.415   4.168  0.3125 -0.0212  0.2989
 5855TIP3    H117529   6.142   5.388   4.258 -2.3527 -0.7932 -0.3461
 5855TIP3    H217530   6.141   5.509   4.167 -0.4672 -0.1648  0.4148
 5856TIP3   OH217531   3.076   0.877   0.494  0.5532 -0.1420 -0.0489
 5856TIP3    H117532   3.042   0.888   0.582 -1.2403 -2.7786 -0.2893
 5856TIP3    H217533   2.998   0.868   0.439  1.6119 -1.0123 -1.4928
 5857TIP3   OH217534   4.993   1.872   3.943  0.2152 -0.0666 -0.1007
 5857TIP3    H117535   5.073   1.824   3.966  0.5155  0.3219 -0.3159
 5857TIP3    H217536   4.922   1.816   3.973  0.5844  0.1552  1.2587
 5858TIP3   OH217537   5.475   3.231   5.354  0.0105 -0.3378  0.3426
 5858TIP3    H117538   5.486   3.145   5.395  0.8709 -0.8000 -0.8193
 5858TIP3    H217539   5.512   3.292   5.417 -2.9736 -0.4594  2.4207
 5859TIP3   OH217540   1.262   5.084   1.204  0.4660 -0.6248  0.1039
 5859TIP3    H117541   1.173   5.050   1.200  0.6458 -0.9591 -2.4094
 5859TIP3    H217542   1.310   5.021   1.258 -0.1854 -2.0431 -0.9174
 5860TIP3   OH217543   5.290   0.677   2.688  0.0463 -0.0876 -0.1030
 5860TIP3    H117544   5.227   0.669   2.759  0.8615 -1.4070  0.5250
 5860TIP3    H217545   5.267   0.606   2.628  0.9428 -0.6256  0.1680
 5861TIP3   OH217546   3.073   4.435   0.287 -0.6808  0.6748  0.3123
 5861TIP3    H117547   3.146   4.490   0.315  0.0232 -0.0557 -0.0520
 5861TIP3    H217548   3.054   4.380   0.363  0.4224 -0.4591 -0.2096
 5862TIP3   OH217549   1.636   1.399   0.602  0.3670 -0.1278 -0.7006
 5862TIP3    H117550   1.635   1.395   0.507  0.1572  0.2963 -0.7178
 5862TIP3    H217551   1.688   1.476   0.623 -0.3002  0.2741 -0.4940
 5863TIP3   OH217552  -0.007   0.086   2.069 -0.6149 -0.2614 -0.2048
 5863TIP3    H117553   0.045   0.034   2.130  0.4319  0.7388 -0.2223
 5863TIP3    H217554  -0.024   0.027   1.996  1.4721 -0.2950 -0.7253
 5864TIP3   OH217555   1.373   0.401   0.889  0.6915  0.1106  0.1566
 5864TIP3    H117556   1.430   0.403   0.965  0.4441 -2.3954  0.4697
 5864TIP3    H217557   1.425   0.358   0.821 -0.1095 -0.3549 -0.1747
 5865TIP3   OH217558   1.394   6.407   0.387 -0.5149 -0.5904  0.5061
 5865TIP3    H117559   1.459   6.425   0.455 -1.1204 -1.1558  1.2501
 5865TIP3    H217560   1.315   6.454   0.414 -0.6243 -0.4359 -0.0530
 5866TIP3   OH217561   5.009   2.839   2.008 -0.1037 -0.0455  0.2269
 5866TIP3    H117562   5.041   2.793   2.085  0.7974  0.5351  0.2038
 5866TIP3    H217563   5.049   2.925   2.012 -0.9205  0.3746 -0.3111
 5867TIP3   OH217564   0.237   1.415   5.250  0.2405  0.2651 -0.1736
 5867TIP3    H117565   0.200   1.503   5.263  1.3583  0.7286 -0.0422
 5867TIP3    H217566   0.285   1.397   5.331  1.4652  0.2656 -0.8816
 5868TIP3   OH217567   5.928   2.727   1.272  0.3302  0.1524  0.4022
 5868TIP3    H117568   5.907   2.724   1.179 -1.6954 -1.3597  0.8422
 5868TIP3    H217569   6.018   2.694   1.278 -0.1669 -1.5562 -0.8712
 5869TIP3   OH217570   4.777   3.649   5.612 -0.5717 -0.0903 -0.0299
 5869TIP3    H117571   4.776   3.744   5.624  0.5204 -0.2081  1.2900
 5869TIP3    H217572   4.826   3.616   5.688  0.1289 -1.6118 -1.0889
 5870TIP3   OH217573   7.199   5.892   1.883 -0.3954  0.4925 -0.2402
 5870TIP3    H117574   7.261   5.824   1.854 -1.0722 -0.1864 -0.1144
 5870TIP3    H217575   7.145   5.848   1.948  0.1755  1.5953  1.0317
 5871TIP3   OH217576   4.727   6.154   1.058  0.2825 -0.1814  0.0306
 5871TIP3    H117577   4.768   6.101   1.126  0.8260  2.0260  1.5329
 5871TIP3    H217578   4.658   6.203   1.103  0.4130  1.0728 -1.0487
 5872TIP3   OH217579   5.444   6.675   1.781  0.5171  0.2418  0.0789
 5872TIP3    H117580   5.435   6.738   1.852 -1.9730  0.7007 -0.5404
 5872TIP3    H217581   5.459   6.591   1.824  0.2652  0.7035  1.0881
 5873TIP3   OH217582   4.237   2.962   2.202 -0.1428  0.4760  0.1011
 5873TIP3    H117583   4.160   2.977   2.258 -0.4551 -0.7134  0.0226
 5873TIP3    H217584   4.293   2.904   2.253  0.4165  0.8277 -0.1016
 5874TIP3   OH217585   1.204   5.090   2.619  0.0358 -0.2258 -0.0263
 5874TIP3    H117586   1.215   4.997   2.598 -1.4789 -0.7002  1.1614
 5874TIP3    H217587   1.278   5.110   2.677  1.6344 -0.0590 -1.9785
 5875TIP3   OH217588   7.107   5.629   1.002 -0.0714  0.0695 -0.6140
 5875TIP3    H117589   7.195   5.662   1.015  0.5052 -1.9236  1.0222
 5875TIP3    H217590   7.056   5.667   1.074 -0.5545  1.0686 -1.4485
 5876TIP3   OH217591   6.388   4.890   0.953 -0.0194  0.0674  0.3367
 5876TIP3    H117592   6.466   4.934   0.987 -0.4818  0.7006  0.6039
 5876TIP3    H217593   6.413   4.863   0.864  0.0642  1.4897 -0.0967
 5877TIP3   OH217594   2.060   6.146   1.135  0.0420  0.2177  0.0622
 5877TIP3    H117595   2.100   6.173   1.217  1.2986  0.1957 -0.5190
 5877TIP3    H217596   1.998   6.216   1.114  0.9802  1.0919  0.1548
 5878TIP3   OH217597   0.762   5.953   1.896  0.6796  0.3431 -0.2683
 5878TIP3    H117598   0.795   5.944   1.806 -0.6689  1.2900 -0.8986
 5878TIP3    H217599   0.762   6.048   1.912  0.8575  0.1850  0.7272
 5879TIP3   OH217600   1.618   0.225   1.941  0.5548 -0.3641  0.1332
 5879TIP3    H117601   1.539   0.263   1.901 -0.2403 -0.2387  1.7317
 5879TIP3    H217602   1.620   0.263   2.029  1.7755 -1.2666  0.5135
 5880TIP3   OH217603   0.317   5.497   2.874 -0.2733 -0.3081 -0.2089
 5880TIP3    H117604   0.346   5.441   2.947 -0.0194 -0.4462 -0.4126
 5880TIP3    H217605   0.224   5.511   2.891 -0.8877 -2.5687 -1.2804
 5881TIP3   OH217606   1.152   0.510   4.150  0.1628  0.4913 -0.2959
 5881TIP3    H117607   1.199   0.580   4.106  1.2194  0.9524  1.4496
 5881TIP3    H217608   1.206   0.432   4.136  1.2627  0.9151  1.2559
 5882TIP3   OH217609   2.046   2.290   5.563  1.0615  0.1581  0.0202
 5882TIP3    H117610   1.967   2.240   5.541  1.1793  0.0959 -0.2540
 5882TIP3    H217611   2.091   2.235   5.628  1.3423 -0.2422 -0.5002
 5883TIP3   OH217612   6.909   3.006   4.161  0.0513  0.2804 -0.2049
 5883TIP3    H117613   6.916   2.910   4.159  1.3591  0.3497 -1.9912
 5883TIP3    H217614   6.815   3.023   4.169 -0.5191 -1.2101 -2.6315
 5884TIP3   OH217615   7.169   5.507   1.628  0.6561 -0.7169  0.2174
 5884TIP3    H117616   7.257   5.480   1.651  0.8492 -1.8229 -1.5623
 5884TIP3    H217617   7.123   5.517   1.711  2.5147  0.1713  1.1778
 5885TIP3   OH217618   0.369   5.094   5.838  0.3082  0.1817  0.2060
 5885TIP3    H117619   0.343   5.061   5.924  1.4687  1.3216  1.0565
 5885TIP3    H217620   0.422   5.025   5.800 -0.1911 -0.3237  0.4247
 5886TIP3   OH217621   4.373   5.454   1.673 -0.3122 -0.2264 -0.2220
 5886TIP3    H117622   4.311   5.381   1.676  0.8203 -1.2128 -0.0101
 5886TIP3    H217623   4.391   5.474   1.765 -1.2334  0.8814 -0.2657
 5887TIP3   OH217624   0.956   6.378  -0.027  0.0725 -0.2875 -0.0236
 5887TIP3    H117625   1.003   6.299   0.001  0.3571 -0.0504  0.1685
 5887TIP3    H217626   0.934   6.423   0.055 -0.7799 -0.5621 -0.0927
 5888TIP3   OH217627   1.956   5.183   1.890  0.0045 -0.6755  0.3713
 5888TIP3    H117628   1.996   5.113   1.839 -0.2445 -1.2903  1.0049
 5888TIP3    H217629   1.902   5.138   1.955 -0.6804  0.1135  0.3742
 5889TIP3   OH217630   4.624   0.061   0.984 -0.1370  0.9756 -0.0685
 5889TIP3    H117631   4.697   0.018   1.028 -0.8556 -0.8586 -0.6080
 5889TIP3    H217632   4.660   0.146   0.956  1.7143  0.2124 -0.1386
 5890TIP3   OH217633   5.122   5.886   5.538 -0.1058 -0.3388 -0.2001
 5890TIP3    H117634   5.054   5.847   5.594 -0.7415 -0.8094 -1.2648
 5890TIP3    H217635   5.155   5.813   5.486 -1.1153  0.4418 -2.0295
 5891TIP3   OH217636   3.677   4.804   2.733 -0.8694 -0.0405 -0.2497
 5891TIP3    H117637   3.628   4.725   2.756 -1.9216  0.4749 -0.6469
 5891TIP3    H217638   3.759   4.797   2.782 -1.0092 -1.3035 -0.1783
 5892TIP3   OH217639   4.923   1.277   1.358 -0.6056  0.4462  0.4191
 5892TIP3    H117640   4.938   1.314   1.445  0.6776 -2.3871  1.5064
 5892TIP3    H217641   4.828   1.276   1.348 -0.7280  2.2313  1.0829
 5893TIP3   OH217642   4.382   5.724   5.351  0.2649 -0.6374  0.1731
 5893TIP3    H117643   4.362   5.714   5.444  1.4300 -1.3140  0.3685
 5893TIP3    H217644   4.403   5.636   5.322  1.9414 -0.1290 -0.2382
 5894TIP3   OH217645   3.261   3.885   3.309  0.1998 -0.4766 -0.6271
 5894TIP3    H117646   3.172   3.919   3.302  0.8681  1.6727  0.5175
 5894TIP3    H217647   3.307   3.922   3.233  0.4405 -0.5181 -0.5031
 5895TIP3   OH217648   3.346   4.534   0.332 -0.1207  0.3698  0.3072
 5895TIP3    H117649   3.385   4.480   0.400  0.3696  0.9519  0.5034
 5895TIP3    H217650   3.421   4.569   0.283 -0.4067  1.0573  0.3415
 5896TIP3   OH217651   2.339   3.548   1.914  0.2563  0.2129  0.1312
 5896TIP3    H117652   2.385   3.584   1.838  0.8375 -0.7236  0.0214
 5896TIP3    H217653   2.398   3.564   1.987  0.5745 -0.6115  0.0606
 5897TIP3   OH217654   6.689   4.557   2.978  0.4340  0.3794  0.0774
 5897TIP3    H117655   6.632   4.481   2.970 -1.1956  1.5244  0.4324
 5897TIP3    H217656   6.690   4.596   2.891 -1.2883  1.6798  0.5891
 5898TIP3   OH217657   5.492   2.740   5.337 -0.1176  0.5117 -0.2385
 5898TIP3    H117658   5.511   2.801   5.265 -0.3011 -0.3516 -1.0378
 5898TIP3    H217659   5.479   2.656   5.294  1.4906 -0.4120  0.9483
 5899TIP3   OH217660   1.492   0.753   4.376  0.0243  1.1564 -0.5189
 5899TIP3    H117661   1.507   0.798   4.293  1.1553  2.8761  0.5512
 5899TIP3    H217662   1.432   0.810   4.424 -1.3646 -0.2822 -0.4721
 5900TIP3   OH217663   3.001   6.412   2.960  0.0082 -0.1646 -0.0691
 5900TIP3    H117664   3.057   6.366   3.022  0.7613 -1.0539 -1.3630
 5900TIP3    H217665   3.055   6.482   2.925  0.0157 -0.4323 -0.6145
 5901TIP3   OH217666   2.818   3.570   3.540  0.2050  0.3443 -0.6884
 5901TIP3    H117667   2.895   3.605   3.496  0.9816 -0.2581  0.1488
 5901TIP3    H217668   2.774   3.646   3.577  1.4175  0.5274  0.4081
 5902TIP3   OH217669   1.953   4.125   5.603 -0.2224 -0.4275 -0.2767
 5902TIP3    H117670   2.032   4.170   5.573  0.7465 -1.7321  0.2411
 5902TIP3    H217671   1.930   4.169   5.685 -0.7341  0.7054 -0.9932
 5903TIP3   OH217672   1.493   2.367   1.640  0.0312  0.0364 -0.5106
 5903TIP3    H117673   1.467   2.403   1.725 -1.3015  0.1112 -0.9277
 5903TIP3    H217674   1.557   2.430   1.606  1.1593 -0.3865  0.7511
 5904TIP3   OH217675   0.337   1.680   0.005  0.1287 -0.2720  0.2281
 5904TIP3    H117676   0.262   1.733   0.034  0.5707 -0.5131  1.9450
 5904TIP3    H217677   0.336   1.604   0.064  1.1015 -0.8182 -0.4312
 5905TIP3   OH217678   3.427   6.039   3.942 -0.1963 -0.4336 -0.4027
 5905TIP3    H117679   3.340   6.027   3.903 -0.1941 -0.4139 -0.4135
 5905TIP3    H217680   3.409   6.063   4.033 -0.1955 -0.7787 -0.3131
 5906TIP3   OH217681   1.506   4.838   0.139  0.2066  0.1003  0.1550
 5906TIP3    H117682   1.534   4.877   0.222 -1.0885 -0.0136  0.6673
 5906TIP3    H217683   1.585   4.799   0.103  0.7761  0.0880  1.3765
 5907TIP3   OH217684   0.033   2.174   4.599  0.3629 -0.5859  0.2220
 5907TIP3    H117685   0.085   2.160   4.520 -1.0315  0.7318 -1.0028
 5907TIP3    H217686  -0.021   2.095   4.606  0.5219 -0.7305 -0.1362
 5908TIP3   OH217687   2.384   5.876   1.682 -0.1076 -0.4885  0.0085
 5908TIP3    H117688   2.313   5.819   1.711 -1.4892  2.1652  2.2722
 5908TIP3    H217689   2.438   5.888   1.760 -0.2435  1.7536 -0.1853
 5909TIP3   OH217690   1.562   6.229   4.074 -0.1885 -0.1715 -0.4882
 5909TIP3    H117691   1.511   6.308   4.090  0.3423 -0.0916  0.9564
 5909TIP3    H217692   1.497   6.159   4.070 -0.7896  0.4400 -3.0636
 5910TIP3   OH217693   3.388   5.071   2.046  0.1758  0.0247  0.0492
 5910TIP3    H117694   3.435   5.154   2.060  0.1838 -0.0701  0.6024
 5910TIP3    H217695   3.350   5.080   1.958 -0.4801  0.9337  0.4076
 5911TIP3   OH217696   5.401   0.662   0.414 -0.3059 -0.3212  0.7061
 5911TIP3    H117697   5.385   0.728   0.481 -1.0075 -0.7409  0.9556
 5911TIP3    H217698   5.496   0.648   0.417 -0.3274 -0.3334  1.5981
 5912TIP3   OH217699   3.579   6.103   5.854 -0.0593  0.3598  0.0426
 5912TIP3    H117700   3.608   6.194   5.845 -0.5612  0.9109  2.8749
 5912TIP3    H217701   3.650   6.060   5.903 -1.2967  0.1865  1.7824
 5913TIP3   OH217702   5.166   4.836   0.901  0.4038  0.7542 -0.5309
 5913TIP3    H117703   5.232   4.855   0.967  0.2364 -1.4949  0.3691
 5913TIP3    H217704   5.084   4.869   0.938  0.3953 -0.0598  0.2145
 5914TIP3   OH217705   6.199   0.093   5.069 -0.2614 -0.3746  0.0352
 5914TIP3    H117706   6.238   0.139   5.143  0.3987 -1.2282  0.2368
 5914TIP3    H217707   6.122   0.049   5.106 -0.0162 -0.6793  0.1917
 5915TIP3   OH217708   4.209   2.488   4.479 -0.6585 -0.2025  0.1426
 5915TIP3    H117709   4.262   2.494   4.558  1.0849 -2.2524 -0.7735
 5915TIP3    H217710   4.161   2.406   4.488 -0.5943 -0.3591 -0.8056
 5916TIP3   OH217711   3.042   3.010   1.208 -0.1095 -0.0514  0.1647
 5916TIP3    H117712   2.964   2.955   1.199 -0.5190  0.7802 -1.8527
 5916TIP3    H217713   3.008   3.096   1.231  0.4842 -0.3893  2.5424
 5917TIP3   OH217714   0.155   6.372   1.797 -0.6344 -0.0790 -0.0376
 5917TIP3    H117715   0.137   6.282   1.823 -1.2158 -0.2477 -0.9853
 5917TIP3    H217716   0.118   6.380   1.709  1.2884  0.4742 -0.8345
 5918TIP3   OH217717   0.054   2.901   5.155 -0.4906  0.4536 -0.0647
 5918TIP3    H117718  -0.015   2.908   5.089 -0.1373  0.9270 -0.3918
 5918TIP3    H217719   0.074   2.991   5.179 -0.2957  0.3025  0.3629
 5919TIP3   OH217720   0.336   2.974   1.637  0.3218 -0.1943  0.2360
 5919TIP3    H117721   0.379   2.940   1.715  1.8033 -1.3048 -1.0006
 5919TIP3    H217722   0.386   3.053   1.614  0.3763 -0.2952 -0.0027
 5920TIP3   OH217723   3.324   4.305   4.130  0.0458 -0.3135  0.0196
 5920TIP3    H117724   3.348   4.300   4.223 -1.7518  0.0380  0.5617
 5920TIP3    H217725   3.381   4.373   4.094  0.0549  0.3053  1.1468
 5921TIP3   OH217726   2.243   0.582   1.797  0.2900 -0.1641 -0.0758
 5921TIP3    H117727   2.197   0.607   1.877  0.2057  0.0220 -0.1817
 5921TIP3    H217728   2.292   0.503   1.821  0.5821  0.1188  0.2647
 5922TIP3   OH217729   2.411   4.399   3.356 -0.3045  0.1518 -0.1941
 5922TIP3    H117730   2.495   4.438   3.381  0.1216 -1.3162  0.8448
 5922TIP3    H217731   2.435   4.332   3.292 -0.8112  0.4021 -0.6485
 5923TIP3   OH217732   4.364   4.995   1.650  0.0269 -0.2607  0.2847
 5923TIP3    H117733   4.329   4.945   1.576 -0.1925 -1.0630  0.9152
 5923TIP3    H217734   4.441   4.946   1.678  1.5623  1.3379 -0.9080
 5924TIP3   OH217735   3.126   0.900   3.654 -0.0405  0.2546 -0.2000
 5924TIP3    H117736   3.124   0.914   3.559 -1.3010  0.6162 -0.1365
 5924TIP3    H217737   3.045   0.940   3.686  0.6641  0.6962  1.1116
 5925TIP3   OH217738   1.101   0.512   2.286 -0.0862  0.1318 -0.1628
 5925TIP3    H117739   1.054   0.537   2.365 -0.2886 -1.6801  0.3449
 5925TIP3    H217740   1.071   0.423   2.267  0.8219  0.0947 -1.6207
 5926TIP3   OH217741   2.807   4.497   0.675  0.7114  0.4669 -0.5777
 5926TIP3    H117742   2.786   4.590   0.670 -1.2206  0.0106 -2.9200
 5926TIP3    H217743   2.807   4.477   0.768  0.2151  2.6170 -0.0674
 5927TIP3   OH217744   6.375   0.549   1.756  0.0522  0.4850  0.1489
 5927TIP3    H117745   6.298   0.592   1.718  1.2228  2.5307 -0.0743
 5927TIP3    H217746   6.415   0.502   1.683 -0.8121 -0.3322  0.1976
 5928TIP3   OH217747   6.379   5.731   0.929  0.3009  0.3569 -0.2457
 5928TIP3    H117748   6.414   5.759   0.844 -0.3761 -1.4040 -1.1614
 5928TIP3    H217749   6.284   5.741   0.920  0.3258  3.1181  1.4731
 5929TIP3   OH217750   5.352   3.614   5.221 -0.5065 -0.0602 -0.1256
 5929TIP3    H117751   5.380   3.525   5.198 -1.0937 -0.2368 -0.1717
 5929TIP3    H217752   5.345   3.659   5.137 -1.3838 -0.3264 -0.2035
 5930TIP3   OH217753   5.503   4.076   4.213  0.5353  0.0345 -0.3963
 5930TIP3    H117754   5.418   4.112   4.242 -0.0575 -1.0668 -0.7066
 5930TIP3    H217755   5.565   4.109   4.278 -0.5654 -1.3394  1.4705
 5931TIP3   OH217756   0.288   3.735   1.203  0.5078  0.3102 -0.4952
 5931TIP3    H117757   0.207   3.689   1.181 -0.9174  2.9296 -1.2747
 5931TIP3    H217758   0.318   3.695   1.284 -0.5118 -1.9719 -1.1640
 5932TIP3   OH217759   0.373   5.917   3.239  1.1446 -0.0499  0.0311
 5932TIP3    H117760   0.464   5.943   3.255  0.3855  2.9491 -0.0210
 5932TIP3    H217761   0.332   5.919   3.326  1.0063 -1.0497  0.0049
 5933TIP3   OH217762   1.434   6.566   5.781 -0.1983  0.6828 -0.1537
 5933TIP3    H117763   1.441   6.481   5.824 -1.6139  1.4902  1.8228
 5933TIP3    H217764   1.474   6.553   5.695  0.3998 -1.7236  0.4185
 5934TIP3   OH217765   6.104   5.295   1.041 -0.6240 -0.3791 -0.1436
 5934TIP3    H117766   6.045   5.301   1.116 -1.7887 -0.7968 -0.9797
 5934TIP3    H217767   6.070   5.221   0.991  0.8277 -0.8227 -0.4993
 5935TIP3   OH217768   1.966   3.027   4.213  0.6079  0.1338 -0.3445
 5935TIP3    H117769   1.880   3.030   4.173  0.5945  0.5135 -0.2920
 5935TIP3    H217770   2.026   3.005   4.142  0.5028  0.1627 -0.4406
 5936TIP3   OH217771   6.600   6.572   2.911  0.3415  0.1555  0.3407
 5936TIP3    H117772   6.560   6.496   2.870 -0.7582  0.3889  0.9357
 5936TIP3    H217773   6.610   6.636   2.841 -0.7658  0.2572  0.2609
 5937TIP3   OH217774   1.326   2.608   1.075  0.3864 -0.3551  0.1899
 5937TIP3    H117775   1.371   2.577   1.153  2.7605  0.8364 -0.5898
 5937TIP3    H217776   1.396   2.641   1.019 -1.5780  3.5015 -0.3256
 5938TIP3   OH217777   3.241   5.337   5.331  0.1015  1.0075  0.3632
 5938TIP3    H117778   3.211   5.412   5.280  2.2709  1.3556 -0.5284
 5938TIP3    H217779   3.219   5.261   5.277  2.1052  1.3540 -1.0521
 5939TIP3   OH217780   4.225   5.987   3.572 -0.0665  0.1606  0.1496
 5939TIP3    H117781   4.190   6.066   3.612 -0.1650 -0.3821  1.1616
 5939TIP3    H217782   4.314   6.010   3.546 -0.3857  0.8590 -0.3773
 5940TIP3   OH217783   6.590   0.745   1.632  0.5089 -0.2288  0.2263
 5940TIP3    H117784   6.544   0.677   1.681  0.4361  0.6294  1.4083
 5940TIP3    H217785   6.658   0.776   1.693  1.1808  0.0750 -0.6570
 5941TIP3   OH217786   3.421   6.140   0.868  0.1790  0.6063  0.0980
 5941TIP3    H117787   3.425   6.095   0.784  0.6998 -0.6700  0.7788
 5941TIP3    H217788   3.456   6.227   0.850  3.1769 -0.5834 -0.4246
 5942TIP3   OH217789   4.198   3.793   0.928  0.7000 -0.3399 -0.4501
 5942TIP3    H117790   4.225   3.708   0.963  0.8070 -0.2404 -0.2865
 5942TIP3    H217791   4.107   3.781   0.902  1.2158 -1.0212 -2.1002
 5943TIP3   OH217792   4.119   2.960   1.907 -0.3588  0.0755  0.0612
 5943TIP3    H117793   4.045   2.958   1.967 -0.1721 -0.1567  0.2870
 5943TIP3    H217794   4.191   2.995   1.959 -0.2907  0.2331 -0.1368
 5944TIP3   OH217795   2.259   2.497   3.336  0.0366 -0.1496  0.5600
 5944TIP3    H117796   2.189   2.436   3.361  1.5442 -2.1074  0.3075
 5944TIP3    H217797   2.304   2.516   3.418  0.4716 -0.5865  0.4247
 5945TIP3   OH217798   6.975   3.794   0.471 -0.0762  1.1801 -0.0197
 5945TIP3    H117799   7.030   3.755   0.539  0.5483  1.6264 -0.2643
 5945TIP3    H217800   7.023   3.871   0.442  0.6814 -0.1075 -2.4523
 5946TIP3   OH217801   0.797   0.933   3.798  0.1344 -0.1081 -0.3108
 5946TIP3    H117802   0.751   1.011   3.830  1.0086  0.5221 -0.5653
 5946TIP3    H217803   0.727   0.869   3.782 -0.3807 -0.3919  2.5980
 5947TIP3   OH217804   4.606   2.152   5.032 -0.2025 -0.3074 -0.3705
 5947TIP3    H117805   4.541   2.145   5.102  0.7697  1.8159  0.8464
 5947TIP3    H217806   4.627   2.061   5.009 -2.5734 -1.0545  0.1062
 5948TIP3   OH217807   6.758   1.241   4.526 -0.0737  0.2546 -0.3822
 5948TIP3    H117808   6.693   1.190   4.477  1.1533 -0.2822 -1.5038
 5948TIP3    H217809   6.828   1.257   4.463  0.5927  1.4129  0.6085
 5949TIP3   OH217810   3.363   0.566   1.784 -0.2397 -0.2812 -0.5096
 5949TIP3    H117811   3.328   0.654   1.776  1.3599  0.5203  0.7139
 5949TIP3    H217812   3.377   0.537   1.694  0.4438  1.2497 -0.9178
 5950TIP3   OH217813   6.086   6.242   5.645  0.4152 -0.4495  0.1032
 5950TIP3    H117814   6.016   6.294   5.605  1.6772  0.2015 -1.3745
 5950TIP3    H217815   6.112   6.293   5.721  0.0913 -0.0701 -0.0323
 5951TIP3   OH217816   4.067   6.691   4.341  0.0928 -0.4331  0.3967
 5951TIP3    H117817   4.091   6.641   4.263  0.8713 -1.3737  1.2188
 5951TIP3    H217818   3.974   6.712   4.328  0.6196  0.9269 -1.5776
 5952TIP3   OH217819   0.543   0.766   2.298  0.3393  0.4837  0.1597
 5952TIP3    H117820   0.494   0.840   2.262  0.4775 -0.1431 -1.3801
 5952TIP3    H217821   0.479   0.720   2.353  0.0086  1.2535  0.4262
 5953TIP3   OH217822   2.395   6.182   2.564 -0.5702 -0.6227  0.5489
 5953TIP3    H117823   2.454   6.249   2.598 -0.7721  0.8181 -1.7326
 5953TIP3    H217824   2.446   6.136   2.498 -1.7211  0.2077 -0.9830
 5954TIP3   OH217825   5.807   1.409   2.168  0.7043  0.5337 -0.0388
 5954TIP3    H117826   5.805   1.412   2.072 -0.2341 -1.9158 -0.1713
 5954TIP3    H217827   5.728   1.455   2.195  0.7118  0.8001 -0.4565
 5955TIP3   OH217828   5.059   2.180   5.600 -0.7386 -0.3011  0.0499
 5955TIP3    H117829   5.003   2.168   5.523 -3.8226 -0.5904  2.1496
 5955TIP3    H217830   5.108   2.098   5.607 -1.0063 -0.5839 -1.1369
 5956TIP3   OH217831   5.842   2.022   5.388  0.3405 -0.1732  0.4586
 5956TIP3    H117832   5.893   2.011   5.308 -1.0588 -0.0694 -0.4775
 5956TIP3    H217833   5.844   2.116   5.405  0.9712 -0.2417  0.7767
 5957TIP3   OH217834   5.843   1.824   3.223  0.2699  0.0138  0.6775
 5957TIP3    H117835   5.854   1.761   3.152  2.1981  1.9151 -0.8064
 5957TIP3    H217836   5.760   1.868   3.204  0.4762  0.0909 -0.0559
 5958TIP3   OH217837   1.400   0.636   2.005 -0.2198  0.2691  0.2434
 5958TIP3    H117838   1.447   0.677   1.933 -1.7962  0.8431 -0.5260
 5958TIP3    H217839   1.348   0.567   1.962 -0.7380  0.2323  0.9180
 5959TIP3   OH217840   4.207   5.751   1.724  0.4518 -0.3869 -0.1327
 5959TIP3    H117841   4.286   5.768   1.775 -0.0011  0.8065  0.2088
 5959TIP3    H217842   4.171   5.838   1.705 -0.0827 -0.8569 -1.4072
 5960TIP3   OH217843   7.152   4.406   1.463 -0.6454  0.5613 -0.3254
 5960TIP3    H117844   7.216   4.476   1.478  1.5393 -1.1886 -0.8974
 5960TIP3    H217845   7.080   4.426   1.523  0.9976  1.9314  1.3075
 5961TIP3   OH217846   2.230   4.243   5.887 -0.0493  0.1109  0.1221
 5961TIP3    H117847   2.142   4.210   5.866  0.1103 -0.0230 -0.3460
 5961TIP3    H217848   2.230   4.332   5.854 -0.4536  0.5753  1.3176
 5962TIP3   OH217849   3.112   3.258   3.317 -0.1141  0.5117 -0.2979
 5962TIP3    H117850   3.115   3.353   3.325 -0.0493  0.4728  0.2052
 5962TIP3    H217851   3.034   3.241   3.264  0.1825  0.8653 -0.8568
 5963TIP3   OH217852   0.074   3.165   5.221 -0.0388  0.4902 -0.3635
 5963TIP3    H117853   0.035   3.228   5.160  0.2252  0.1953 -0.8469
 5963TIP3    H217854   0.045   3.193   5.307 -0.6116  0.7807 -0.6465
 5964TIP3   OH217855   1.451   5.668   3.413 -0.9065 -0.2343 -0.2563
 5964TIP3    H117856   1.518   5.622   3.465 -0.8320  1.3399  1.1098
 5964TIP3    H217857   1.425   5.604   3.346 -0.5801 -2.1404  1.3449
 5965TIP3   OH217858   5.770   1.987   4.780  0.6281 -0.0228 -0.1280
 5965TIP3    H117859   5.684   1.981   4.821  0.1046  1.7336 -0.9006
 5965TIP3    H217860   5.781   2.079   4.758  2.4865 -0.2929 -0.5551
 5966TIP3   OH217861   2.674   2.872   4.848 -0.1921  0.4255  0.0419
 5966TIP3    H117862   2.667   2.892   4.941  0.0249  0.2787  0.0910
 5966TIP3    H217863   2.652   2.779   4.842  0.7854  0.1739  0.0864
 5967TIP3   OH217864   6.442   5.539   1.337 -0.1566  0.3476 -0.0519
 5967TIP3    H117865   6.353   5.568   1.353  0.4648  1.8813  0.8444
 5967TIP3    H217866   6.448   5.455   1.383 -1.5980 -0.6211 -1.5533
 5968TIP3   OH217867   0.168   3.195   4.375  0.4278 -0.0029  0.0885
 5968TIP3    H117868   0.073   3.188   4.375  0.2958  0.2737 -3.0246
 5968TIP3    H217869   0.197   3.121   4.322  1.8592  0.6483 -0.0808
 5969TIP3   OH217870   3.753   1.976   4.159  0.0597  0.7831  0.1840
 5969TIP3    H117871   3.708   1.895   4.184 -1.0463  0.4951 -2.4884
 5969TIP3    H217872   3.697   2.045   4.193 -0.0167  0.4533  0.7580
 5970TIP3   OH217873   5.752   3.680   3.801  0.1787  0.2871 -0.0983
 5970TIP3    H117874   5.699   3.756   3.779  1.3395  1.5290  1.1954
 5970TIP3    H217875   5.759   3.631   3.719 -0.9033  1.3638 -0.8700
 5971TIP3   OH217876   0.712   5.276   5.723  0.1937 -0.4275 -0.1962
 5971TIP3    H117877   0.794   5.286   5.675  0.3219  2.9342  0.5118
 5971TIP3    H217878   0.738   5.252   5.812  0.5703  1.5856  0.2881
 5972TIP3   OH217879   5.252   0.285   3.254 -0.1954  0.2904 -0.8396
 5972TIP3    H117880   5.295   0.239   3.181  2.3647  0.9422  0.1515
 5972TIP3    H217881   5.313   0.354   3.278 -0.4897 -0.4360  2.4875
 5973TIP3   OH217882   6.563   0.979   3.609 -0.4903  0.1938 -0.0317
 5973TIP3    H117883   6.592   0.986   3.518  0.5397 -1.0254  0.1735
 5973TIP3    H217884   6.552   1.070   3.638  2.8169  0.7896 -0.2737
 5974TIP3   OH217885   1.575   3.939   0.565  0.1015 -0.2745 -0.2281
 5974TIP3    H117886   1.604   3.849   0.550  1.3573 -0.0620  0.8222
 5974TIP3    H217887   1.598   3.957   0.656 -1.9443  0.4535  0.1929
 5975TIP3   OH217888   7.118   6.226   2.783 -0.9174  0.2346  0.2233
 5975TIP3    H117889   7.098   6.299   2.725  0.8132  0.5501 -0.0408
 5975TIP3    H217890   7.146   6.156   2.724 -3.0218 -0.8553  0.4360
 5976TIP3   OH217891   5.000   1.012   4.430  0.0306  0.2664  0.7117
 5976TIP3    H117892   5.000   0.925   4.468 -2.1488  0.3337  1.0247
 5976TIP3    H217893   5.092   1.031   4.411  0.7004 -1.4726  2.0103
 5977TIP3   OH217894   3.291   2.706   5.792  0.0610 -0.1701  0.1623
 5977TIP3    H117895   3.315   2.798   5.785 -1.3546  0.3177  1.1656
 5977TIP3    H217896   3.333   2.676   5.873  0.1525 -0.2932  0.0709
 5978TIP3   OH217897   0.224   1.372   2.086 -0.2877 -0.0220  0.3565
 5978TIP3    H117898   0.300   1.320   2.109 -1.2831 -0.6611  2.4893
 5978TIP3    H217899   0.251   1.422   2.009  1.9852 -0.8132  0.5680
 5979TIP3   OH217900   3.260   4.666   1.588  0.4670  0.1567  0.8969
 5979TIP3    H117901   3.351   4.669   1.558  0.1260 -0.9059 -0.3084
 5979TIP3    H217902   3.233   4.575   1.575 -1.1538  0.7227  0.0364
 5980TIP3   OH217903   1.490   5.046   0.614  0.3870  0.0930  0.3933
 5980TIP3    H117904   1.406   5.079   0.582  0.7619  0.2946 -0.4266
 5980TIP3    H217905   1.472   5.017   0.703 -0.0028  2.3651  1.1339
 5981TIP3   OH217906   1.091   3.185   3.918  0.0257 -0.4660 -0.5635
 5981TIP3    H117907   1.134   3.235   3.849  0.3177  1.6760  1.1013
 5981TIP3    H217908   1.034   3.248   3.962 -1.1043 -2.0766  0.4056
 5982TIP3   OH217909   0.436   6.554   4.078  0.4843  0.1577  0.2091
 5982TIP3    H117910   0.408   6.503   4.154  1.2843  0.2078  0.5457
 5982TIP3    H217911   0.529   6.570   4.093  0.8783 -0.6191 -1.2182
 5983TIP3   OH217912   5.274   1.058   4.447  0.0703  0.0908 -0.1711
 5983TIP3    H117913   5.297   1.067   4.355  0.8780  1.2248  0.1217
 5983TIP3    H217914   5.343   1.106   4.494 -0.9146  0.4501  0.9577
 5984TIP3   OH217915   5.153   4.671   4.489 -0.2653 -0.3110 -0.0015
 5984TIP3    H117916   5.095   4.605   4.527 -0.3184  0.0125  0.4733
 5984TIP3    H217917   5.110   4.755   4.507  0.2380 -0.0855  0.1646
 5985TIP3   OH217918   3.341   2.874   4.044 -0.4277  0.3409 -0.6033
 5985TIP3    H117919   3.307   2.945   4.099  2.4342  0.9843  0.5306
 5985TIP3    H217920   3.311   2.794   4.088 -1.5206  0.8195 -0.4346
 5986TIP3   OH217921   6.009   0.626   0.613  0.2367  0.1260  0.5445
 5986TIP3    H117922   5.941   0.594   0.553  0.2520 -2.0004  1.5813
 5986TIP3    H217923   5.962   0.649   0.693  0.7120 -1.4864  1.3170
 5987TIP3   OH217924   4.683   1.249   4.892  0.2836 -0.1801  0.3765
 5987TIP3    H117925   4.646   1.171   4.851  0.0847  0.6049 -0.9755
 5987TIP3    H217926   4.764   1.265   4.844 -0.0462  0.8581  0.1470
 5988TIP3   OH217927   1.611   4.820   5.657  0.1370  0.2442  0.3784
 5988TIP3    H117928   1.594   4.877   5.732  1.8530  0.8635  0.3564
 5988TIP3    H217929   1.706   4.827   5.643 -0.0748 -0.1804 -1.5875
 5989TIP3   OH217930   1.546   1.619   5.496 -0.2255 -0.1575  0.1066
 5989TIP3    H117931   1.476   1.556   5.480 -0.5036  0.3365 -0.6590
 5989TIP3    H217932   1.595   1.623   5.414 -1.1281  1.7434 -0.3952
 5990TIP3   OH217933   6.028   6.774   4.470 -0.1423  0.3467 -0.7061
 5990TIP3    H117934   6.030   6.705   4.404  1.3381 -0.0301 -0.3127
 5990TIP3    H217935   6.099   6.833   4.445  1.2878 -0.4727  1.1974
 5991TIP3   OH217936   2.876   6.591   1.813  0.1087 -0.3557 -0.4352
 5991TIP3    H117937   2.968   6.572   1.833  0.1606 -2.2775 -2.2815
 5991TIP3    H217938   2.835   6.506   1.801 -1.7195  0.4995 -0.6435
 5992TIP3   OH217939   3.827   6.019   3.027 -0.3507 -0.3341  0.1867
 5992TIP3    H117940   3.738   5.994   3.001 -0.0354 -1.0306 -0.2533
 5992TIP3    H217941   3.846   5.963   3.102  0.0714 -0.8749 -0.3180
 5993TIP3   OH217942   1.822   3.603   0.068  0.0912  0.9470  0.2427
 5993TIP3    H117943   1.911   3.606   0.103 -0.2113  1.9248  0.9562
 5993TIP3    H217944   1.827   3.540  -0.004  1.4641  1.3227 -0.0226
 5994TIP3   OH217945   1.890   5.554   0.556  0.1450  0.4039 -0.3250
 5994TIP3    H117946   1.822   5.487   0.559 -0.4555  1.0386  1.4397
 5994TIP3    H217947   1.969   5.506   0.528  0.0471 -1.3726  2.0840
 5995TIP3   OH217948   6.782   1.705   2.976  0.3726  0.6352 -0.8959
 5995TIP3    H117949   6.867   1.662   2.982 -0.1603 -0.4352 -0.7987
 5995TIP3    H217950   6.724   1.652   3.031 -0.9824 -0.2494 -3.0446
 5996TIP3   OH217951   3.629   1.833   5.888  0.1184  0.1271 -0.2767
 5996TIP3    H117952   3.709   1.880   5.865  0.6782 -0.7455 -0.1466
 5996TIP3    H217953   3.586   1.815   5.804 -0.0315  0.7462 -0.3349
 5997TIP3   OH217954   0.864   6.290   5.340 -0.3142 -0.3870 -0.6250
 5997TIP3    H117955   0.828   6.294   5.428 -1.2676 -2.2523 -0.8857
 5997TIP3    H217956   0.924   6.365   5.335 -0.8008  0.1812  1.3304
 5998TIP3   OH217957   1.777   3.232   5.189 -0.9259  0.2303 -0.3223
 5998TIP3    H117958   1.845   3.245   5.122  0.5714  1.2442  1.3001
 5998TIP3    H217959   1.736   3.318   5.199 -2.2550 -0.2906 -1.0255
 5999TIP3   OH217960   0.130   4.984   0.730  0.2910  0.3519  0.2164
 5999TIP3    H117961   0.116   5.022   0.644 -1.8567 -0.0117  0.3432
 5999TIP3    H217962   0.209   4.931   0.721  0.2382  0.5109 -1.4484
 6000TIP3   OH217963   1.650   0.675   3.405 -0.1164  0.4667 -0.1721
 6000TIP3    H117964   1.612   0.730   3.473  1.3444  1.8434 -0.4155
 6000TIP3    H217965   1.588   0.602   3.395 -1.8619  1.8060  0.4884
 6001TIP3   OH217966   5.676   3.718   1.504 -0.1840 -0.1824 -0.1206
 6001TIP3    H117967   5.768   3.705   1.478  0.0387  1.7841 -0.4787
 6001TIP3    H217968   5.649   3.634   1.539  1.9725 -0.6354  0.6162
 6002TIP3   OH217969   0.617   1.006   3.478 -0.0578 -0.4142  0.0697
 6002TIP3    H117970   0.661   0.925   3.505  1.0460  0.0523 -0.2740
 6002TIP3    H217971   0.677   1.075   3.506 -2.2035  0.4951  2.8098
 6003TIP3   OH217972   4.785   0.768   3.490  0.6506  0.1153  0.1709
 6003TIP3    H117973   4.753   0.683   3.518  1.1591 -0.5355 -1.0990
 6003TIP3    H217974   4.782   0.823   3.568  0.3103 -1.0656  1.0085
 6004TIP3   OH217975   5.113   6.706   2.023  0.3642 -0.0943  0.6160
 6004TIP3    H117976   5.141   6.727   1.934  0.3817 -0.7518  0.4553
 6004TIP3    H217977   5.130   6.612   2.031 -1.8146 -0.5399  0.5144
 6005TIP3   OH217978   3.187   6.331   1.696 -0.1188 -0.6119 -0.9202
 6005TIP3    H117979   3.202   6.240   1.722  0.9038 -0.3881 -0.6943
 6005TIP3    H217980   3.139   6.369   1.770  0.6713 -0.6096 -0.3990
 6006TIP3   OH217981   0.772   4.199   2.055 -0.0722 -0.3460  0.3679
 6006TIP3    H117982   0.691   4.220   2.101 -1.9105  1.3512 -3.2665
 6006TIP3    H217983   0.817   4.283   2.047 -0.5136 -0.2752 -1.9967
 6007TIP3   OH217984   4.926   1.221   2.135  0.1555 -0.4291 -0.4081
 6007TIP3    H117985   4.870   1.144   2.133 -1.0541  0.3791  0.4158
 6007TIP3    H217986   4.950   1.231   2.227  0.2202  0.2165 -0.4889
 6008TIP3   OH217987   6.701   1.110   3.043  0.0274  0.1429  0.0521
 6008TIP3    H117988   6.735   1.087   2.957 -0.7486  0.7544 -0.4292
 6008TIP3    H217989   6.610   1.081   3.042  0.1155 -0.1814  0.8084
 6009TIP3   OH217990   2.704   4.012   3.419 -0.1198  0.4468  0.0796
 6009TIP3    H117991   2.723   3.961   3.340 -0.2416  1.1405 -0.4160
 6009TIP3    H217992   2.648   4.083   3.387 -1.1918  0.0513  1.0087
 6010TIP3   OH217993   1.725   1.652   2.504 -0.2904  0.8125 -0.3142
 6010TIP3    H117994   1.646   1.667   2.555 -0.1263  1.5399 -0.2529
 6010TIP3    H217995   1.720   1.561   2.476 -0.8218  0.6696  0.2435
 6011TIP3   OH217996   0.150   3.262   3.234 -0.0076 -0.1073  0.0711
 6011TIP3    H117997   0.135   3.324   3.305 -0.8376 -0.0120 -0.1842
 6011TIP3    H217998   0.068   3.214   3.226 -0.6784  1.2749 -2.1862
 6012TIP3   OH217999   6.359   5.911   1.138 -0.4435  0.5215  0.3358
 6012TIP3    H118000   6.434   5.892   1.194 -1.6755 -2.5127  1.1608
 6012TIP3    H218001   6.361   5.845   1.070 -2.8705 -0.3347  0.9850
 6013TIP3   OH218002   3.368   5.812   2.261 -0.5075  0.4718  0.3992
 6013TIP3    H118003   3.464   5.814   2.257 -0.4866  0.4256  0.9268
 6013TIP3    H218004   3.341   5.884   2.204 -0.2274 -1.0600 -1.7974
 6014TIP3   OH218005   5.821   2.436   4.516 -0.0420  0.0408  0.7344
 6014TIP3    H118006   5.915   2.429   4.532  0.0818 -1.3233 -0.3762
 6014TIP3    H218007   5.781   2.433   4.603  0.9640  2.1643  1.3440
 6015TIP3   OH218008   4.208   5.704   4.104 -0.5934 -0.0536 -0.0979
 6015TIP3    H118009   4.273   5.635   4.094 -3.6022 -2.9926 -1.1060
 6015TIP3    H218010   4.211   5.752   4.021  0.0654 -0.3612 -0.2552
 6016TIP3   OH218011   1.170   2.980   1.808 -0.1850  0.0336  0.4394
 6016TIP3    H118012   1.074   2.973   1.814 -0.4694  2.9846  0.5062
 6016TIP3    H218013   1.186   3.013   1.720  0.7678 -0.0085  0.5931
 6017TIP3   OH218014   1.090   4.516   0.265 -0.3535 -0.0429 -0.1038
 6017TIP3    H118015   1.026   4.583   0.242 -0.1026  0.3827  0.3995
 6017TIP3    H218016   1.167   4.536   0.212 -0.0642  0.4454  0.4818
 6018TIP3   OH218017   6.131   1.579   0.102 -0.4630 -0.3617  0.1920
 6018TIP3    H118018   6.119   1.645   0.171 -0.8592  0.3235 -0.5085
 6018TIP3    H218019   6.042   1.554   0.077 -0.3191 -1.6586  0.8846
 6019TIP3   OH218020   6.919   0.154   2.079  0.0764 -0.0352  0.1872
 6019TIP3    H118021   6.868   0.153   2.160  0.6422 -1.1105  0.5464
 6019TIP3    H218022   7.007   0.127   2.105  0.3316 -0.1199 -0.7384
 6020TIP3   OH218023   4.754   2.252   2.090 -0.2281  0.4408  0.2342
 6020TIP3    H118024   4.798   2.253   2.175  0.7525  1.0822 -0.2538
 6020TIP3    H218025   4.822   2.224   2.028 -0.5353  1.3119 -0.5248
 6021TIP3   OH218026   1.578   5.400   4.913  0.3398 -0.0053 -0.0463
 6021TIP3    H118027   1.615   5.333   4.857  0.1253 -0.7203  0.6432
 6021TIP3    H218028   1.652   5.458   4.934  0.4643  0.1359 -0.8594
 6022TIP3   OH218029   1.270   4.726   3.951  0.2141  0.6350 -0.4616
 6022TIP3    H118030   1.233   4.812   3.933  1.6077  2.0862  2.7091
 6022TIP3    H218031   1.346   4.744   4.007  0.2362 -2.6716  0.8243
 6023TIP3   OH218032   5.827   6.459   4.183 -0.5714 -0.9606  0.0185
 6023TIP3    H118033   5.895   6.478   4.247 -1.6813  1.8280  0.5012
 6023TIP3    H218034   5.867   6.480   4.098 -0.0484 -1.8819  0.0131
 6024TIP3   OH218035   0.686   2.702   2.150 -0.2711 -0.2010  0.7637
 6024TIP3    H118036   0.732   2.738   2.074  0.8952  0.1897  1.6239
 6024TIP3    H218037   0.620   2.768   2.171 -1.0507 -0.6239 -0.3054
 6025TIP3   OH218038   6.909   4.170   3.132  0.4928 -0.2705  0.5647
 6025TIP3    H118039   6.833   4.178   3.189  0.1898 -1.7004  0.4007
 6025TIP3    H218040   6.976   4.226   3.172 -0.4640  0.5993  0.9910
 6026TIP3   OH218041   5.572   6.657   0.676  0.0989 -0.3385  0.4863
 6026TIP3    H118042   5.629   6.732   0.691 -1.9499  0.8825  2.7893
 6026TIP3    H218043   5.588   6.600   0.752  1.5796 -2.3100 -1.1878
 6027TIP3   OH218044   5.468   5.427   0.389 -0.2726 -0.1102  0.6233
 6027TIP3    H118045   5.503   5.435   0.301 -2.3325 -1.4146 -0.3780
 6027TIP3    H218046   5.442   5.335   0.397 -1.1029  0.2174  2.1953
 6028TIP3   OH218047   6.804   3.452   3.561 -0.1945 -0.3103 -0.1030
 6028TIP3    H118048   6.898   3.441   3.551 -0.2153 -0.6844  0.0831
 6028TIP3    H218049   6.786   3.540   3.530  0.0268 -0.6897 -1.3299
 6029TIP3   OH218050   3.708   3.408   4.143 -0.3607  0.4664  0.0364
 6029TIP3    H118051   3.741   3.442   4.226 -2.2495 -0.2220  1.1262
 6029TIP3    H218052   3.679   3.319   4.163 -0.9177  0.3185 -1.3378
 6030TIP3   OH218053   4.403   6.009   0.382  0.0865  0.4279 -0.0439
 6030TIP3    H118054   4.319   6.041   0.347  0.6049  0.6837 -1.0958
 6030TIP3    H218055   4.388   5.916   0.398 -0.7954  0.7306  1.0476
 6031TIP3   OH218056   6.746   5.540   1.997  0.3013 -0.1376 -0.5496
 6031TIP3    H118057   6.790   5.540   1.912 -0.3406  1.5570 -0.9199
 6031TIP3    H218058   6.657   5.511   1.977  0.4600 -0.8561 -0.2499
 6032TIP3   OH218059   0.862   1.163   3.291  0.4242  0.3427  0.5118
 6032TIP3    H118060   0.886   1.071   3.306  1.1056  0.4519  0.1397
 6032TIP3    H218061   0.942   1.212   3.310 -0.0578  0.9051  1.1230
 6033TIP3   OH218062   6.825   3.227   3.751  0.0173 -0.4940  0.3654
 6033TIP3    H118063   6.812   3.296   3.686 -0.0994 -1.0128 -0.1655
 6033TIP3    H218064   6.737   3.206   3.781  0.0432 -0.4997  0.4373
 6034TIP3   OH218065   6.739   3.357   2.229  0.0225  0.0248  0.7163
 6034TIP3    H118066   6.680   3.289   2.197  0.0555  0.5143 -0.4421
 6034TIP3    H218067   6.719   3.364   2.323 -1.6852  0.0932  0.3855
 6035TIP3   OH218068   0.993   0.629   2.520 -0.3108  0.8572 -0.2447
 6035TIP3    H118069   1.059   0.674   2.573 -0.5514 -0.5869  1.4024
 6035TIP3    H218070   0.911   0.672   2.543 -0.2974  0.8091 -0.1018
 6036TIP3   OH218071   1.555   0.976   4.660 -0.3591  0.4000 -0.0606
 6036TIP3    H118072   1.503   0.896   4.652  1.1412 -0.6017 -0.1669
 6036TIP3    H218073   1.505   1.041   4.610 -1.7540 -0.3642  0.2666
 6037TIP3   OH218074   7.182   2.716   3.198  0.0854 -0.3693 -0.5746
 6037TIP3    H118075   7.100   2.766   3.206  0.3077 -0.0663 -0.1039
 6037TIP3    H218076   7.205   2.722   3.106  1.0126  1.9029 -0.2590
 6038TIP3   OH218077   6.431   2.968   4.930  0.3154 -0.4645 -0.0589
 6038TIP3    H118078   6.383   2.997   5.007  2.1469  0.4736  0.8100
 6038TIP3    H218079   6.367   2.970   4.859 -0.6860  1.7343  0.8043
 6039TIP3   OH218080   6.920   1.190   1.255 -0.0839 -0.1828 -0.3418
 6039TIP3    H118081   6.966   1.107   1.241  0.4579  0.3077 -1.6055
 6039TIP3    H218082   6.985   1.247   1.295  0.1918  0.2774 -1.4284
 6040TIP3   OH218083   0.862   1.594   1.586  0.6647  0.8630 -0.4679
 6040TIP3    H118084   0.821   1.569   1.503  0.0480  1.7722 -0.4470
 6040TIP3    H218085   0.883   1.510   1.628  0.3809  0.3909 -1.2409
 6041TIP3   OH218086   1.553   4.248   4.304  0.2057  0.2742 -0.8966
 6041TIP3    H118087   1.594   4.169   4.339 -2.0080 -0.9429 -0.9275
 6041TIP3    H218088   1.627   4.301   4.274  1.9764 -0.3887  1.8666
 6042TIP3   OH218089   4.886   1.216   0.553  0.1305 -0.8411  0.3632
 6042TIP3    H118090   4.977   1.197   0.577  0.2236 -0.4717  0.3160
 6042TIP3    H218091   4.835   1.190   0.630  0.2048 -1.6632  0.1385
 6043TIP3   OH218092   5.875   5.086   3.589  0.3921  0.1051 -0.0742
 6043TIP3    H118093   5.915   5.031   3.656 -1.1493  1.2271  1.8597
 6043TIP3    H218094   5.803   5.034   3.554 -1.0223  0.7603  1.7034
 6044TIP3   OH218095   1.691   3.981   2.005  0.4450  0.4221 -0.3110
 6044TIP3    H118096   1.749   3.936   2.066  1.7596 -0.6317 -2.2383
 6044TIP3    H218097   1.686   4.070   2.040  0.0546 -0.4326  2.0314
 6045TIP3   OH218098   4.892   5.200   5.212 -0.1701  0.2595 -0.0016
 6045TIP3    H118099   4.848   5.169   5.291 -0.5227  1.5841  0.3482
 6045TIP3    H218100   4.915   5.290   5.232  0.7534  0.2616 -1.0088
 6046TIP3   OH218101   0.464   2.687   0.887  0.2690 -0.8533 -0.0456
 6046TIP3    H118102   0.502   2.632   0.817  0.3666 -1.2688  0.3303
 6046TIP3    H218103   0.370   2.671   0.881  0.1751 -0.0721 -0.7680
 6047TIP3   OH218104   0.438   0.740   4.003 -0.1584  0.6981  0.0217
 6047TIP3    H118105   0.355   0.701   3.975  1.0439 -1.2402 -1.1432
 6047TIP3    H218106   0.475   0.777   3.923 -0.5774  2.9977  0.8398
 6048TIP3   OH218107   6.260   3.929   3.730 -0.5310  0.5085  0.0788
 6048TIP3    H118108   6.194   3.990   3.696  0.4896  1.1800 -0.7326
 6048TIP3    H218109   6.333   3.935   3.669  0.0757 -0.6467  0.6529
 6049TIP3   OH218110   4.339   0.190   0.096 -0.0469 -0.4986 -0.1733
 6049TIP3    H118111   4.386   0.156   0.172 -1.2293  1.0540  1.3075
 6049TIP3    H218112   4.292   0.114   0.061  0.3951 -1.2062  0.7351
 6050TIP3   OH218113   4.845   3.530   5.359 -0.7647 -0.4855 -0.2634
 6050TIP3    H118114   4.845   3.587   5.436 -0.4372  1.1042 -1.3920
 6050TIP3    H218115   4.805   3.449   5.390  0.2772 -0.2766  1.8467
 6051TIP3   OH218116   1.159   3.081   5.391  0.0173  0.3005  0.1192
 6051TIP3    H118117   1.082   3.099   5.445 -0.2307 -0.0233 -0.1230
 6051TIP3    H218118   1.123   3.065   5.303  0.1556 -1.8422  0.3925
 6052TIP3   OH218119   0.104   2.442   0.698 -0.5718 -0.2266 -0.0724
 6052TIP3    H118120   0.097   2.538   0.701  0.0634 -0.0771 -1.9816
 6052TIP3    H218121   0.078   2.419   0.609  0.3250 -1.7431  0.0250
 6053TIP3   OH218122   0.034   5.611   5.549 -0.1417  0.3738  0.3626
 6053TIP3    H118123   0.006   5.665   5.475 -0.5035 -0.0838  0.1665
 6053TIP3    H218124   0.126   5.636   5.563  0.7659 -1.3227 -1.8570
 6054TIP3   OH218125   1.697   6.473   3.775 -0.4392 -0.8717 -0.0391
 6054TIP3    H118126   1.647   6.508   3.849  1.1476  1.1768  0.1664
 6054TIP3    H218127   1.781   6.519   3.779 -0.1460 -0.9556 -2.9028
 6055TIP3   OH218128   3.385   6.782   3.789  0.4292 -1.1168  0.5177
 6055TIP3    H118129   3.352   6.795   3.877  0.0531  2.2193  0.0205
 6055TIP3    H218130   3.480   6.778   3.799  0.4424  0.2009  1.0039
 6056TIP3   OH218131   0.407   5.218   1.537  0.2626 -0.0636 -0.1003
 6056TIP3    H118132   0.497   5.243   1.557  0.2757 -0.8414  0.8968
 6056TIP3    H218133   0.368   5.198   1.622  0.3265 -3.5885 -0.7307
 6057TIP3   OH218134   6.282   0.055   0.183 -0.0478 -0.0414  0.3563
 6057TIP3    H118135   6.339   0.039   0.108 -0.3313  1.6241 -0.2818
 6057TIP3    H218136   6.203   0.004   0.165  0.5726 -1.0363  0.4134
 6058TIP3   OH218137   5.216   2.600   1.085  0.0627  0.1720 -0.3466
 6058TIP3    H118138   5.249   2.677   1.040 -0.4875  0.4074 -0.3524
 6058TIP3    H218139   5.234   2.528   1.024  0.1643  0.3542 -0.5356
 6059TIP3   OH218140   4.623   5.044   4.854  0.8613  0.5818  0.4932
 6059TIP3    H118141   4.672   5.101   4.795  1.9812  0.5933  1.3945
 6059TIP3    H218142   4.542   5.091   4.871  1.2425  1.3413  0.2599
 6060TIP3   OH218143   0.755   0.801   2.100  0.3644  0.0538 -0.2704
 6060TIP3    H118144   0.758   0.896   2.110 -0.2541  0.0809 -0.2613
 6060TIP3    H218145   0.709   0.769   2.178  0.3892 -0.2303 -0.3674
 6061TIP3   OH218146   0.359   5.857   4.443 -0.0660  0.1116 -0.5141
 6061TIP3    H118147   0.283   5.900   4.404 -0.3108  0.3281  0.1929
 6061TIP3    H218148   0.392   5.920   4.508  0.7111  0.0151 -0.7984
 6062TIP3   OH218149   3.407   1.639   3.202  0.5703 -0.9885 -0.1297
 6062TIP3    H118150   3.477   1.578   3.227  1.1777  0.3064  1.5552
 6062TIP3    H218151   3.453   1.713   3.162  0.1805 -0.2177  0.7999
 6063TIP3   OH218152   3.014   1.617   2.821  0.3474  0.3903  0.0763
 6063TIP3    H118153   3.063   1.557   2.877 -1.0299 -0.2037  0.6957
 6063TIP3    H218154   3.078   1.647   2.757  1.8757  0.8009  1.7141
 6064TIP3   OH218155   7.102   6.593   0.548 -0.1624  0.5265 -1.1140
 6064TIP3    H118156   7.182   6.599   0.601  0.2077 -0.5929 -1.5267
 6064TIP3    H218157   7.080   6.500   0.548 -2.5639  1.0041  0.5820
 6065TIP3   OH218158   0.929   1.490   3.195 -0.1654 -0.5486 -0.1097
 6065TIP3    H118159   0.963   1.555   3.256  2.0514  0.1493 -1.9563
 6065TIP3    H218160   0.861   1.537   3.146  0.2476 -0.1234 -0.2858
 6066TIP3   OH218161   6.354   0.020   1.702 -0.4215 -0.1609 -0.0413
 6066TIP3    H118162   6.404   0.062   1.772 -1.3238  1.4984 -0.3265
 6066TIP3    H218163   6.420  -0.006   1.638  0.4284 -1.7896  1.4256
 6067TIP3   OH218164   3.370   0.360   1.961  0.2927 -0.4669 -0.4561
 6067TIP3    H118165   3.366   0.431   1.897 -0.0167 -1.3248 -1.4135
 6067TIP3    H218166   3.432   0.298   1.924  0.3255 -0.8530  0.2245
 6068TIP3   OH218167   0.187   5.478   0.652  0.0590  0.2822 -0.1079
 6068TIP3    H118168   0.205   5.472   0.558  0.6079 -0.5501  0.0388
 6068TIP3    H218169   0.097   5.510   0.657  0.1005  0.5539 -0.9134
 6069TIP3   OH218170   5.924   3.689   1.383  0.6495  0.3188 -0.1685
 6069TIP3    H118171   5.927   3.751   1.310  0.5898 -0.1114 -0.5407
 6069TIP3    H218172   5.995   3.715   1.441  0.5018  0.8549 -0.2242
 6070TIP3   OH218173   1.172   3.916   3.929 -0.0556 -0.6560  0.2882
 6070TIP3    H118174   1.106   3.968   3.884  1.1283  1.1278  0.5436
 6070TIP3    H218175   1.244   3.908   3.866  0.6146 -0.2084  0.9868
 6071TIP3   OH218176   4.071   0.928   1.946 -0.4325  0.0478 -0.2037
 6071TIP3    H118177   4.136   0.910   1.879 -1.5736  0.2007 -1.4035
 6071TIP3    H218178   4.062   1.023   1.948 -0.8301  0.0147 -0.2643
 6072TIP3   OH218179   5.904   1.245   3.830 -0.4554  0.7386 -0.4078
 6072TIP3    H118180   5.854   1.210   3.757 -0.1219 -1.3745  0.3295
 6072TIP3    H218181   5.976   1.183   3.843  0.9801  2.4161  0.0993
 6073TIP3   OH218182   6.043   0.613   3.968  0.0385 -0.2647  0.2784
 6073TIP3    H118183   5.969   0.554   3.954 -0.3984  0.9094 -3.3110
 6073TIP3    H218184   6.021   0.660   4.049 -1.6065 -2.0123  0.9298
 6074TIP3   OH218185   2.684   0.075   1.706  0.1250  0.1695 -0.3237
 6074TIP3    H118186   2.752   0.040   1.649  0.1121  0.6960 -0.6731
 6074TIP3    H218187   2.637   0.138   1.651 -1.3343 -0.9598 -0.4252
 6075TIP3   OH218188   0.441   2.152   3.928 -0.0893  0.4575 -0.1297
 6075TIP3    H118189   0.515   2.189   3.882  0.7475 -2.4196 -1.3150
 6075TIP3    H218190   0.365   2.176   3.875  0.2462  1.3887 -0.2092
 6076TIP3   OH218191   5.234   0.058   1.924  0.4423 -0.0288  0.0948
 6076TIP3    H118192   5.232  -0.031   1.887  0.2120 -0.0619  0.1850
 6076TIP3    H218193   5.327   0.080   1.928  0.6159 -0.8691  1.5196
 6077TIP3   OH218194   6.398   2.708   4.746 -0.4429 -0.5259 -0.1524
 6077TIP3    H118195   6.449   2.721   4.826 -1.5292 -0.0837  0.4988
 6077TIP3    H218196   6.352   2.791   4.733 -0.8544 -0.8477 -0.8137
 6078TIP3   OH218197   0.177   0.937   1.492 -0.3964 -0.3880  0.5685
 6078TIP3    H118198   0.084   0.962   1.493 -0.6723 -1.3603  0.4603
 6078TIP3    H218199   0.196   0.917   1.584 -0.4914 -0.8758  0.4828
 6079TIP3   OH218200   1.595   3.167   1.375  0.3156  0.0234 -0.1965
 6079TIP3    H118201   1.590   3.174   1.471  1.9496 -0.2141 -0.0724
 6079TIP3    H218202   1.506   3.187   1.345  0.1548  1.7432  1.2623
 6080TIP3   OH218203   3.670   5.687   1.274  0.0747  0.5855  0.9765
 6080TIP3    H118204   3.675   5.772   1.231 -2.2029  0.0015 -0.6228
 6080TIP3    H218205   3.635   5.706   1.361 -1.0388  1.2728  0.4070
 6081TIP3   OH218206   4.908   1.180   3.593 -0.3684  0.2154  0.4205
 6081TIP3    H118207   4.865   1.219   3.517 -0.6771  2.4888  1.6824
 6081TIP3    H218208   4.981   1.130   3.556 -1.1115  0.3856 -1.4130
 6082TIP3   OH218209   2.229   1.656   2.907 -0.2810  0.4137 -0.0602
 6082TIP3    H118210   2.201   1.582   2.852  0.6609  1.3504 -1.9038
 6082TIP3    H218211   2.317   1.633   2.935 -0.1287  0.6553 -0.3306
 6083TIP3   OH218212   4.675   5.521   0.553 -0.0016  0.3897 -0.5492
 6083TIP3    H118213   4.643   5.454   0.614 -0.0479 -0.1980 -1.2026
 6083TIP3    H218214   4.634   5.602   0.582 -0.3379  0.0439 -0.0454
 6084TIP3   OH218215   0.727   3.325   3.770 -0.5930  0.6716 -0.0308
 6084TIP3    H118216   0.681   3.355   3.691 -1.8033  1.6705  1.0080
 6084TIP3    H218217   0.746   3.405   3.818  0.6752  0.1199  0.4256
 6085TIP3   OH218218   6.668   1.651   1.409  0.3721  0.3705  0.4851
 6085TIP3    H118219   6.698   1.570   1.450  1.6226  0.1006 -0.8771
 6085TIP3    H218220   6.746   1.686   1.366 -1.1372 -0.1975 -3.0270
 6086TIP3   OH218221   5.714   5.540   0.189  1.0070  0.0828 -0.0797
 6086TIP3    H118222   5.673   5.481   0.124  2.0608 -0.2195 -0.4838
 6086TIP3    H218223   5.807   5.519   0.185  0.9669 -0.9492  2.5694
 6087TIP3   OH218224   4.181   6.257   4.765 -0.1329  0.0821  0.3717
 6087TIP3    H118225   4.120   6.183   4.758 -0.5639  0.3568  1.0771
 6087TIP3    H218226   4.268   6.218   4.759 -0.3665 -0.4221  0.2549
 6088TIP3   OH218227   6.565   0.124   3.504 -0.1577  0.1316  0.0716
 6088TIP3    H118228   6.488   0.181   3.501  0.0250  0.4170  0.5832
 6088TIP3    H218229   6.631   0.171   3.453  0.1457  0.6285  0.8983
 6089TIP3   OH218230   4.788   0.943   5.730  0.2849 -0.0577 -0.5817
 6089TIP3    H118231   4.710   0.922   5.680 -0.2115  0.3047  0.0171
 6089TIP3    H218232   4.789   1.039   5.734  2.1143  0.0817 -2.6735
 6090TIP3   OH218233   5.242   0.995   1.761 -0.3613 -0.5162  0.2514
 6090TIP3    H118234   5.283   1.030   1.681 -1.8798  1.7133  0.3538
 6090TIP3    H218235   5.218   0.905   1.738  1.3500 -0.7241 -0.9604
 6091TIP3   OH218236   1.965   5.590   3.998 -0.8954  0.1878 -0.0008
 6091TIP3    H118237   2.023   5.626   4.066  0.4228 -0.6624 -0.6483
 6091TIP3    H218238   1.906   5.532   4.045  0.5582 -1.0613  0.3576
 6092TIP3   OH218239   4.262   4.861   1.428  0.3379 -0.0403 -0.2165
 6092TIP3    H118240   4.303   4.897   1.350 -0.2972 -0.3905 -0.7142
 6092TIP3    H218241   4.243   4.770   1.406 -2.1803  0.5090 -0.5930
 6093TIP3   OH218242   2.319   5.443   3.273  0.1090 -0.3044  0.0397
 6093TIP3    H118243   2.308   5.532   3.306 -0.0266  0.3062 -1.5659
 6093TIP3    H218244   2.282   5.445   3.184  2.6454 -1.1835 -1.1345
 6094TIP3   OH218245   5.526   2.734   1.545  0.6591 -0.0028 -0.2491
 6094TIP3    H118246   5.454   2.794   1.566  1.9211  1.2175  0.7709
 6094TIP3    H218247   5.599   2.791   1.523  0.9711 -1.2171 -2.7815
 6095TIP3   OH218248   1.729   0.072   4.996 -0.3495 -0.5614 -0.0083
 6095TIP3    H118249   1.665   0.004   5.015  1.0654 -1.6872  1.0124
 6095TIP3    H218250   1.813   0.034   5.022  0.7429  0.8687 -1.2287
 6096TIP3   OH218251   7.040   4.518   0.549 -0.4989  0.6748 -0.3127
 6096TIP3    H118252   7.083   4.561   0.475  1.5851  0.7918  0.8817
 6096TIP3    H218253   7.067   4.570   0.625 -0.0336 -1.2176  0.8821
 6097TIP3   OH218254   7.112   3.118   4.341 -0.4891 -0.0856 -0.4052
 6097TIP3    H118255   7.046   3.060   4.302  0.4621 -0.8397 -0.9453
 6097TIP3    H218256   7.089   3.122   4.434 -1.0565 -0.6765 -0.5108
 6098TIP3   OH218257   4.510   0.660   1.389 -0.4431  0.0743  0.2490
 6098TIP3    H118258   4.435   0.607   1.415 -0.3669  0.2874  0.9201
 6098TIP3    H218259   4.579   0.597   1.372 -0.7732 -0.1250 -0.3949
 6099TIP3   OH218260   1.905   2.937   4.846  0.9457 -0.4500 -0.3796
 6099TIP3    H118261   1.857   2.868   4.891  2.0767 -0.2113  1.2815
 6099TIP3    H218262   1.965   2.972   4.912  1.2788  1.2844 -1.5313
 6100TIP3   OH218263   1.037   5.879   0.438 -0.0608 -0.0555  0.9468
 6100TIP3    H118264   1.061   5.862   0.529  0.9606  0.3739  0.7686
 6100TIP3    H218265   0.979   5.955   0.443 -0.4955 -0.4035  1.2876
 6101TIP3   OH218266   3.229   4.133   5.461  0.0707  0.4081 -0.0396
 6101TIP3    H118267   3.314   4.165   5.433 -0.8649  2.2491 -0.9560
 6101TIP3    H218268   3.201   4.194   5.529 -0.2322 -0.5994  0.7698
 6102TIP3   OH218269   1.561   1.072   4.089  0.1282  0.2815  0.6426
 6102TIP3    H118270   1.640   1.125   4.084  0.7314 -0.6772 -2.2370
 6102TIP3    H218271   1.519   1.098   4.170  1.5922  3.4195  0.5292
 6103TIP3   OH218272   3.654   3.888   2.667 -0.0741  0.8773 -0.5769
 6103TIP3    H118273   3.560   3.868   2.670  0.2288 -0.5987 -0.0100
 6103TIP3    H218274   3.688   3.829   2.600  0.9160 -0.9277  1.3887
 6104TIP3   OH218275   4.015   0.001   1.396 -0.3487 -0.9734  0.0548
 6104TIP3    H118276   3.984   0.087   1.424  0.3667 -0.7528  0.1786
 6104TIP3    H218277   4.107  -0.002   1.424  0.9824 -0.0804 -3.7052
 6105TIP3   OH218278   6.491   1.261   3.514 -0.0013 -0.6880  0.0733
 6105TIP3    H118279   6.405   1.237   3.547  0.6103 -3.5003 -0.1416
 6105TIP3    H218280   6.488   1.240   3.421  0.2116  1.4677 -0.4671
 6106TIP3   OH218281   6.488   6.064   5.431 -0.0480  0.2695  0.6811
 6106TIP3    H118282   6.471   6.109   5.514 -1.5314 -2.6544  2.1161
 6106TIP3    H218283   6.406   6.072   5.382 -0.6558 -1.5101  1.3413
 6107TIP3   OH218284   5.085   3.070   4.878  0.1608 -0.6186  0.2142
 6107TIP3    H118285   5.025   3.121   4.933  1.0915  0.6271  0.1343
 6107TIP3    H218286   5.073   2.980   4.907 -0.0776 -0.1158  1.7939
 6108TIP3   OH218287   1.683   5.873   2.628  0.6631 -0.0372 -0.3391
 6108TIP3    H118288   1.658   5.799   2.682  0.6033 -0.2952 -0.7169
 6108TIP3    H218289   1.628   5.865   2.550 -0.6770  1.4228  0.3986
 6109TIP3   OH218290   5.690   1.501   5.705 -0.1003 -0.1716  0.3183
 6109TIP3    H118291   5.682   1.406   5.715  1.0087 -0.3005  0.1050
 6109TIP3    H218292   5.600   1.532   5.694 -0.3777 -1.3359 -0.8971
 6110TIP3   OH218293   2.942   1.625   2.134 -0.3706  0.6901  0.2415
 6110TIP3    H118294   2.967   1.715   2.112 -2.1114  0.6537 -2.2643
 6110TIP3    H218295   2.971   1.614   2.224  0.0678  3.6885  0.5750
 6111TIP3   OH218296   5.735   2.342   1.783 -0.0797 -0.0794 -0.5006
 6111TIP3    H118297   5.804   2.382   1.730  0.0472  0.3198 -0.0410
 6111TIP3    H218298   5.654   2.369   1.741 -0.0462  1.6478  0.4545
 6112TIP3   OH218299   1.542   6.771   3.137  0.1932 -0.5314  0.0082
 6112TIP3    H118300   1.605   6.699   3.134 -1.4609 -2.0299 -0.1511
 6112TIP3    H218301   1.472   6.744   3.077 -2.0233 -0.3262  2.3534
 6113TIP3   OH218302   6.579   0.075   3.151 -0.0325 -0.4260 -0.0066
 6113TIP3    H118303   6.651   0.060   3.090  1.0227 -0.6561  1.2543
 6113TIP3    H218304   6.601   0.158   3.194  0.4845 -1.3969  1.7010
 6114TIP3   OH218305   5.951   2.114   4.474  0.2193  0.4607 -0.0140
 6114TIP3    H118306   6.044   2.091   4.471  0.2774  0.5410  0.7956
 6114TIP3    H218307   5.950   2.209   4.487  0.0120  0.5395 -0.5675
 6115TIP3   OH218308   5.394   0.598   1.502 -0.2017  0.0029 -0.3144
 6115TIP3    H118309   5.447   0.582   1.424  0.9107  0.5215  0.3107
 6115TIP3    H218310   5.393   0.694   1.511 -0.4649 -0.0458  0.2147
 6116TIP3   OH218311   2.444   0.291   3.825  0.4105 -0.0259 -0.3020
 6116TIP3    H118312   2.536   0.314   3.819  0.5950 -1.1208 -2.5555
 6116TIP3    H218313   2.402   0.339   3.754 -0.6791  0.0913  0.4023
 6117TIP3   OH218314   3.358   2.925   3.115  0.1328 -0.0692  0.0208
 6117TIP3    H118315   3.327   2.840   3.082 -0.8960  0.2190  0.1927
 6117TIP3    H218316   3.313   2.989   3.060 -2.9712  0.4955  2.9011
 6118TIP3   OH218317   1.829   0.457   2.070 -0.3099  0.0212  0.1165
 6118TIP3    H118318   1.921   0.447   2.096  0.3797  1.0924 -1.7653
 6118TIP3    H218319   1.782   0.394   2.125  1.4305 -0.0070  1.6726
 6119TIP3   OH218320   0.991   2.782   3.517 -0.0692  0.4654 -0.0797
 6119TIP3    H118321   1.026   2.837   3.586  0.8992  1.7773 -1.5439
 6119TIP3    H218322   0.954   2.843   3.453 -0.1021 -0.6323 -1.1606
 6120TIP3   OH218323   0.114   0.147   4.820 -0.3845 -0.4708  0.3268
 6120TIP3    H118324   0.052   0.154   4.748 -0.8086 -2.8436  0.3660
 6120TIP3    H218325   0.174   0.077   4.792 -0.3608 -1.2129  2.1120
 6121TIP3   OH218326   1.195   4.172   0.677  0.6333  0.1461 -0.3631
 6121TIP3    H118327   1.238   4.238   0.624  1.2701  0.3517  0.3929
 6121TIP3    H218328   1.221   4.088   0.638  0.0763  0.3228 -1.1304
 6122TIP3   OH218329   3.064   1.879   5.295  0.0464 -0.5528  0.3980
 6122TIP3    H118330   3.111   1.852   5.375  0.8690  0.8894  0.4378
 6122TIP3    H218331   3.124   1.940   5.252  0.6213 -2.9032 -2.5188
 6123TIP3   OH218332   6.803   1.600   0.086  0.6559  0.0179 -0.3467
 6123TIP3    H118333   6.769   1.670   0.142  1.7222 -0.2255  0.6525
 6123TIP3    H218334   6.898   1.610   0.091  0.7936 -0.9798 -0.8692
 6124TIP3   OH218335   5.648   3.957   1.891  0.2385  0.1403 -0.1195
 6124TIP3    H118336   5.650   3.868   1.855  1.3196  0.2402 -0.3293
 6124TIP3    H218337   5.658   4.014   1.814 -1.9557  0.5216 -0.1800
 6125TIP3   OH218338   5.770   2.436   3.019 -0.2432  0.9200  0.2563
 6125TIP3    H118339   5.774   2.406   2.928  0.2926 -0.9720  0.8513
 6125TIP3    H218340   5.853   2.479   3.034  1.1314 -1.6724  0.7232
 6126TIP3   OH218341   1.823   2.385   3.022  0.0458 -0.1643 -0.2038
 6126TIP3    H118342   1.888   2.402   2.954  0.7453 -0.7863  0.3012
 6126TIP3    H218343   1.820   2.466   3.073  0.6629 -0.2410 -0.0375
 6127TIP3   OH218344   2.725   6.324   2.909  0.1536 -0.2212 -0.1811
 6127TIP3    H118345   2.726   6.375   2.828 -1.0370  1.4751  0.8213
 6127TIP3    H218346   2.816   6.322   2.937  0.4462 -0.0761 -1.0890
 6128TIP3   OH218347   5.367   6.230   4.264 -0.2406  0.4196 -1.3538
 6128TIP3    H118348   5.431   6.232   4.336 -1.1353  1.5949 -0.5489
 6128TIP3    H218349   5.310   6.305   4.281 -0.2073  1.0199 -3.5556
 6129TIP3   OH218350   3.165   1.391   1.262 -0.3860 -0.1814 -0.0284
 6129TIP3    H118351   3.160   1.375   1.168  0.8026  0.5324 -0.2297
 6129TIP3    H218352   3.160   1.487   1.271 -0.4676 -0.2404  0.6335
 6130TIP3   OH218353   1.565   4.501   2.821 -0.5199 -0.4811 -0.1129
 6130TIP3    H118354   1.592   4.593   2.819 -0.2488 -0.5678 -0.7881
 6130TIP3    H218355   1.628   4.459   2.879  0.2556 -0.5074 -0.9526
 6131TIP3   OH218356   2.386   0.354   1.865 -0.8675 -0.0300  0.4783
 6131TIP3    H118357   2.359   0.338   1.956 -2.9269  1.0322  0.1083
 6131TIP3    H218358   2.366   0.272   1.820  0.1819 -0.5685  0.9680
 6132TIP3   OH218359   3.934   3.278   2.001  0.4479  0.5308  0.5469
 6132TIP3    H118360   3.890   3.193   1.999 -2.4234  1.8881 -1.5560
 6132TIP3    H218361   3.891   3.325   2.072 -0.0303  1.1385 -0.1308
 6133TIP3   OH218362   2.271   2.417   1.936 -0.0544 -0.3144  0.7309
 6133TIP3    H118363   2.245   2.507   1.955 -0.6812 -0.1679 -0.6895
 6133TIP3    H218364   2.362   2.412   1.965  1.0847  1.7777 -1.9721
 6134TIP3   OH218365   0.378   4.714   2.100  0.9999 -0.2480 -0.2312
 6134TIP3    H118366   0.308   4.763   2.145  0.1626  0.0172 -1.7421
 6134TIP3    H218367   0.458   4.759   2.126  0.3654  1.1345 -0.5260
 6135TIP3   OH218368   7.206   2.824   4.188 -0.2966 -0.7480  0.3305
 6135TIP3    H118369   7.283   2.882   4.191  0.8628 -2.1869 -0.2459
 6135TIP3    H218370   7.136   2.879   4.153  0.3090  0.7545  1.3868
 6136TIP3   OH218371   3.010   3.693   0.131 -0.3124 -0.3021  0.1084
 6136TIP3    H118372   3.097   3.734   0.131 -0.0440 -0.8529  0.4412
 6136TIP3    H218373   3.015   3.626   0.063 -0.5389 -0.2094  0.0001
 6137TIP3   OH218374   6.933   0.037   4.013 -0.0828  0.2437 -0.1384
 6137TIP3    H118375   6.902   0.106   3.955  0.5815  0.8690  0.2400
 6137TIP3    H218376   6.978  -0.025   3.955 -0.2994  0.3484 -0.4204
 6138TIP3   OH218377   1.456   2.620   0.537  0.4955  0.8216  0.6002
 6138TIP3    H118378   1.462   2.537   0.584  0.3685  0.5001  0.0587
 6138TIP3    H218379   1.374   2.659   0.567 -0.8108 -0.4825 -1.0796
 6139TIP3   OH218380   2.909   4.619   1.168 -0.5196 -0.4487  0.1052
 6139TIP3    H118381   2.821   4.596   1.139 -0.4909  1.0889 -1.3689
 6139TIP3    H218382   2.956   4.535   1.172 -0.9519 -0.9609 -3.0433
 6140TIP3   OH218383   4.435   1.939   3.112 -0.7558 -0.5537 -0.1258
 6140TIP3    H118384   4.520   1.948   3.068 -0.9717 -1.6374 -0.7900
 6140TIP3    H218385   4.385   1.880   3.056 -0.5412 -3.2021  2.2416
 6141TIP3   OH218386   0.320   5.424   1.099 -0.7987  0.1945  0.8351
 6141TIP3    H118387   0.410   5.457   1.094 -0.1184 -1.0792  3.1511
 6141TIP3    H218388   0.298   5.403   1.008  0.7107  1.7913  0.0186
 6142TIP3   OH218389   0.518   1.608   3.855 -0.1686 -0.3508  0.0246
 6142TIP3    H118390   0.477   1.655   3.782 -1.2114 -1.7423 -0.3230
 6142TIP3    H218391   0.504   1.664   3.931 -2.1041 -0.4299 -0.2308
 6143TIP3   OH218392   6.359   4.628   5.683  0.4063  0.5203 -1.2475
 6143TIP3    H118393   6.422   4.687   5.643  1.1533 -0.9777 -2.3757
 6143TIP3    H218394   6.407   4.585   5.754  0.4728 -0.1329 -1.6788
 6144TIP3   OH218395   7.194   0.502   3.246  0.8572 -0.1933  0.2612
 6144TIP3    H118396   7.185   0.553   3.166 -0.8129 -2.6740 -1.2546
 6144TIP3    H218397   7.106   0.497   3.281  1.4082 -0.0238  1.7426
 6145TIP3   OH218398   0.194   3.911   2.962 -0.4402  0.0422  0.2870
 6145TIP3    H118399   0.281   3.889   2.929 -0.2152  0.9272  0.2534
 6145TIP3    H218400   0.152   3.956   2.889 -0.8866 -0.2688  0.3473
 6146TIP3   OH218401   6.483   5.029   3.628  0.5004  0.0652  0.0022
 6146TIP3    H118402   6.473   5.018   3.534 -0.9053  0.3794  0.0950
 6146TIP3    H218403   6.409   4.981   3.666  1.1969 -0.2937  0.9718
 6147TIP3   OH218404   6.755   3.425   4.318 -0.3664 -0.3211 -0.6074
 6147TIP3    H118405   6.836   3.456   4.358 -1.5731 -0.8558  2.5690
 6147TIP3    H218406   6.725   3.356   4.377 -2.7112 -0.7092 -2.1388
 6148TIP3   OH218407   0.260   4.075   3.195 -0.4429 -0.2030  0.1175
 6148TIP3    H118408   0.218   4.048   3.114 -1.7644 -0.7104  0.9324
 6148TIP3    H218409   0.328   4.137   3.168 -3.1921  2.5041 -1.1543
 6149TIP3   OH218410   4.569   1.912   0.794 -0.1535 -0.2496 -0.6904
 6149TIP3    H118411   4.510   1.840   0.815 -0.5064  0.4916  1.0442
 6149TIP3    H218412   4.559   1.974   0.867  2.1485  0.2929 -0.7417
 6150TIP3   OH218413   6.526   2.794   5.238 -0.0806 -0.2449  0.6624
 6150TIP3    H118414   6.525   2.843   5.321 -0.3901 -0.6281  0.8922
 6150TIP3    H218415   6.435   2.765   5.227  0.0224 -0.4488  0.3380
 6151TIP3   OH218416   2.391   3.949   3.571 -0.0729 -0.2108 -0.9023
 6151TIP3    H118417   2.408   3.911   3.657 -1.4566 -1.3805 -1.1060
 6151TIP3    H218418   2.450   4.025   3.566 -0.0093 -0.0809  1.0775
 6152TIP3   OH218419   4.402   4.856   2.104 -1.1796  0.1266  0.1370
 6152TIP3    H118420   4.451   4.936   2.087 -1.6224  0.3521 -0.0768
 6152TIP3    H218421   4.330   4.857   2.041 -2.0397  0.2908  1.0983
 6153TIP3   OH218422   4.932   0.357   1.658 -0.5507  0.1861 -0.0829
 6153TIP3    H118423   4.901   0.362   1.568  0.7560 -0.6050 -0.6099
 6153TIP3    H218424   4.909   0.442   1.696  1.5377  1.7554 -2.0573
 6154TIP3   OH218425   1.299   2.211   4.448 -0.2876 -0.1665 -0.4082
 6154TIP3    H118426   1.337   2.296   4.471  2.8256 -1.2590 -0.9063
 6154TIP3    H218427   1.335   2.151   4.514 -2.5916 -1.1220  0.0573
 6155TIP3   OH218428   0.880   3.040   3.769  0.0963  0.4948 -0.0431
 6155TIP3    H118429   0.974   3.025   3.761  0.0154  0.5018 -1.2451
 6155TIP3    H218430   0.871   3.102   3.841  0.9956  0.3390  0.2083
 6156TIP3   OH218431   3.692   1.700   1.039 -0.3295 -0.1141  0.1598
 6156TIP3    H118432   3.787   1.700   1.045 -0.2427 -0.2394 -1.0578
 6156TIP3    H218433   3.663   1.652   1.118  0.6263 -0.5722  0.2470
 6157TIP3   OH218434   4.184   3.405   2.886  0.2938 -0.1294  0.6405
 6157TIP3    H118435   4.097   3.440   2.869 -0.2024 -1.7286 -0.2987
 6157TIP3    H218436   4.235   3.481   2.915 -1.3125  0.8934  0.9228
 6158TIP3   OH218437   7.046   6.230   5.599 -0.3309  0.6119 -0.1715
 6158TIP3    H118438   7.043   6.180   5.518 -0.3988  2.3773 -1.3192
 6158TIP3    H218439   7.107   6.302   5.581  1.4374 -0.1894  2.1312
 6159TIP3   OH218440   6.825   3.695   0.245  0.1649 -0.6777 -0.2626
 6159TIP3    H118441   6.827   3.600   0.249  0.0907 -0.6480  2.5449
 6159TIP3    H218442   6.888   3.724   0.311  0.8269  1.2546 -1.6431
 6160TIP3   OH218443   3.489   2.507   2.939  0.5881 -0.0091  0.0302
 6160TIP3    H118444   3.413   2.542   2.986  1.1329  0.2082  0.7620
 6160TIP3    H218445   3.452   2.471   2.859 -0.4057 -0.6691  0.7583
 6161TIP3   OH218446   0.411   4.454   5.381 -0.3325  0.0765  0.3582
 6161TIP3    H118447   0.385   4.397   5.453 -0.1168  2.4196  2.3908
 6161TIP3    H218448   0.471   4.517   5.420  1.4255  0.2508 -2.3241
 6162TIP3   OH218449   1.264   3.407   4.394 -0.2479 -0.1693  0.3774
 6162TIP3    H118450   1.336   3.430   4.336  2.1130 -1.2005  2.6641
 6162TIP3    H218451   1.199   3.477   4.383  2.0693  1.9950 -0.2388
 6163TIP3   OH218452   3.891   2.202   3.129  0.3134 -0.1370  0.2827
 6163TIP3    H118453   3.977   2.202   3.085  0.7014  0.1113  1.0239
 6163TIP3    H218454   3.861   2.293   3.121  1.0923  0.2958  1.8462
 6164TIP3   OH218455   5.363   5.366   4.701 -0.3205  0.3425 -0.0958
 6164TIP3    H118456   5.371   5.283   4.748  0.6677  0.4374 -0.0619
 6164TIP3    H218457   5.307   5.347   4.626 -2.5271  0.3571  1.4645
 6165TIP3   OH218458   3.782   0.102   0.071 -0.5343  0.2502 -0.1090
 6165TIP3    H118459   3.818   0.020   0.036  0.2695 -0.3069  1.9159
 6165TIP3    H218460   3.727   0.136   0.000 -1.1472 -2.1969 -0.8868
 6166TIP3   OH218461   4.780   0.139   4.292  0.0601  0.4166  0.1844
 6166TIP3    H118462   4.875   0.134   4.287  0.0612  1.3923 -1.4014
 6166TIP3    H218463   4.762   0.206   4.358  0.3464 -2.1345  3.0984
 6167TIP3   OH218464   0.277   6.381   0.192  0.0880 -0.5168 -0.4387
 6167TIP3    H118465   0.327   6.347   0.118  0.2784  0.1420 -0.6172
 6167TIP3    H218466   0.298   6.474   0.195  0.9487 -0.7243  1.1199
 6168TIP3   OH218467   4.851   4.035   5.108 -0.5854 -0.3708  0.1308
 6168TIP3    H118468   4.844   4.059   5.016 -1.1482 -0.4557  0.1423
 6168TIP3    H218469   4.851   3.939   5.108  1.4424 -0.4094  0.0960
 6169TIP3   OH218470   2.342   0.334   3.136 -0.5186 -0.0434  0.1951
 6169TIP3    H118471   2.323   0.413   3.187 -1.4070  0.6899 -1.2089
 6169TIP3    H218472   2.270   0.275   3.156  0.4584 -0.7782  1.7135
 6170TIP3   OH218473   5.662   1.525   3.721 -0.2355  0.0602  0.4179
 6170TIP3    H118474   5.672   1.605   3.772 -0.9507  1.0373 -0.9028
 6170TIP3    H218475   5.607   1.468   3.776 -1.7233  1.4263  0.4099
 6171TIP3   OH218476   6.404   0.035   2.941  0.0197  0.1778 -0.5325
 6171TIP3    H118477   6.408   0.126   2.909  0.2514  0.2816 -0.2140
 6171TIP3    H218478   6.445   0.039   3.027 -1.1507  0.0162  0.0513
 6172TIP3   OH218479   4.645   2.763   2.396  0.6604  0.2887 -0.1628
 6172TIP3    H118480   4.633   2.799   2.484 -0.5102 -1.1022  0.2809
 6172TIP3    H218481   4.695   2.683   2.409  0.6007  0.1450 -0.7684
 6173TIP3   OH218482   4.520   3.454   1.997  0.0761  0.0881 -0.2270
 6173TIP3    H118483   4.522   3.366   2.035  0.7255  0.2696  0.1741
 6173TIP3    H218484   4.523   3.513   2.073 -0.3689  0.4581 -0.4918
 6174TIP3   OH218485   2.409   6.363   5.511  0.0014  0.2276  0.6032
 6174TIP3    H118486   2.380   6.303   5.580  1.4334 -0.9416  0.2322
 6174TIP3    H218487   2.406   6.450   5.552  0.9300 -0.4521  2.2012
 6175TIP3   OH218488   3.471   1.084   3.541 -0.4842  0.5100  0.1808
 6175TIP3    H118489   3.543   1.111   3.597  0.4223 -1.0631 -0.1721
 6175TIP3    H218490   3.488   1.127   3.457 -0.5009  0.9271  0.3912
 6176TIP3   OH218491   5.470   6.683   0.406  0.2732 -0.1113  0.2215
 6176TIP3    H118492   5.497   6.639   0.326 -1.4222 -1.1672  0.1666
 6176TIP3    H218493   5.538   6.662   0.470  1.5448  0.5815 -0.8541
 6177TIP3   OH218494   6.936   3.045   5.549  0.5603 -0.4744  0.6975
 6177TIP3    H118495   6.852   3.069   5.587  0.7875 -1.0537  1.5987
 6177TIP3    H218496   6.917   3.023   5.459 -0.1997 -0.2905  0.8101
 6178TIP3   OH218497   2.454   3.806   0.637 -0.0863 -0.0414  0.1900
 6178TIP3    H118498   2.468   3.731   0.695  0.4059 -0.3026 -0.2569
 6178TIP3    H218499   2.521   3.797   0.569  0.1715  0.9610  0.2912
 6179TIP3   OH218500   0.134   3.441   3.484 -0.0263  0.9150  0.3663
 6179TIP3    H118501   0.148   3.394   3.566 -0.8828  2.0282  1.1910
 6179TIP3    H218502   0.222   3.466   3.455  0.2811  0.6248  1.0276
 6180TIP3   OH218503   2.334   5.056   5.583 -0.0799  0.0974 -0.0608
 6180TIP3    H118504   2.386   5.121   5.630  0.9739  0.1237 -1.2128
 6180TIP3    H218505   2.244   5.088   5.590  0.3930  1.6080 -0.4545
 6181TIP3   OH218506   3.214   3.537   3.361  0.4745  0.0274 -0.1314
 6181TIP3    H118507   3.223   3.489   3.443  1.4615  0.6258  0.1417
 6181TIP3    H218508   3.304   3.564   3.340 -0.1609  2.7745  0.3711
 6182TIP3   OH218509   5.400   2.930   2.016 -0.2647  0.2910 -0.2757
 6182TIP3    H118510   5.443   2.850   1.985 -1.6355  0.2344 -2.2884
 6182TIP3    H218511   5.421   2.996   1.950 -1.8902  0.6645 -0.4684
 6183TIP3   OH218512   2.141   1.301   3.750 -0.0033  0.2600 -0.2282
 6183TIP3    H118513   2.099   1.239   3.690  0.2937  0.4873 -0.6746
 6183TIP3    H218514   2.182   1.366   3.693 -0.5173  1.0095  0.2312
 6184TIP3   OH218515   5.988   0.445   1.262  0.1535 -0.1033  0.0613
 6184TIP3    H118516   6.074   0.441   1.220  0.5948  0.8830  0.8365
 6184TIP3    H218517   5.948   0.360   1.241  1.4336 -0.7148 -0.0317
 6185TIP3   OH218518   1.063   4.822   2.095  0.1669 -0.1627 -0.3180
 6185TIP3    H118519   1.112   4.864   2.165  1.5420 -0.3259 -1.1524
 6185TIP3    H218520   1.119   4.749   2.068 -0.8010 -0.6955 -0.9191
 6186TIP3   OH218521   0.819   1.909   0.992  0.1057 -0.3221  0.0377
 6186TIP3    H118522   0.862   1.903   1.077  0.3606 -1.0262 -0.1283
 6186TIP3    H218523   0.853   1.834   0.943 -0.3647 -0.1706 -0.5326
 6187TIP3   OH218524   0.911   6.630   5.825 -0.2002 -0.9776  0.4422
 6187TIP3    H118525   0.930   6.669   5.910  0.1670 -1.8601  0.7794
 6187TIP3    H218526   0.825   6.589   5.836 -1.5318  1.3922 -0.5137
 6188TIP3   OH218527   3.445   6.015   5.318 -1.0875 -0.0031  0.1648
 6188TIP3    H118528   3.370   6.011   5.258 -2.0263 -2.8379  1.3441
 6188TIP3    H218529   3.412   6.057   5.397 -0.9275  0.2856  0.0814
 6189TIP3   OH218530   0.248   3.726   2.307 -0.3684  0.0566  0.4545
 6189TIP3    H118531   0.251   3.768   2.221 -2.0505 -1.5517 -0.4687
 6189TIP3    H218532   0.191   3.781   2.360 -2.8890 -1.0930 -0.8635
 6190TIP3   OH218533   4.529   4.481   4.552  0.0126  0.2361 -0.1158
 6190TIP3    H118534   4.599   4.444   4.606 -1.7753 -0.3170  1.9429
 6190TIP3    H218535   4.508   4.565   4.595 -1.1614 -0.0181 -0.1554
 6191TIP3   OH218536   5.118   5.826   3.203 -0.0119 -0.2254 -0.2780
 6191TIP3    H118537   5.078   5.850   3.286 -0.8722 -0.6040 -0.5726
 6191TIP3    H218538   5.188   5.765   3.227  0.3892  0.4168  0.2341
 6192TIP3   OH218539   6.445   2.686   3.159  0.0330 -0.8493 -0.0639
 6192TIP3    H118540   6.513   2.750   3.140 -0.6386 -0.2173 -0.3880
 6192TIP3    H218541   6.489   2.601   3.152  0.8548 -0.4404  0.0535
 6193TIP3   OH218542   6.161   2.731   3.030 -1.0433 -0.4861  0.1028
 6193TIP3    H118543   6.098   2.755   3.098 -0.4362  0.6850  0.2796
 6193TIP3    H218544   6.247   2.738   3.073 -0.5549  1.4323 -1.0461
 6194TIP3   OH218545   2.702   0.578   5.057 -0.1456  0.2002 -0.3888
 6194TIP3    H118546   2.782   0.548   5.015  0.0158 -0.0903  0.1193
 6194TIP3    H218547   2.731   0.619   5.138 -0.5451 -0.4981  0.1267
 6195TIP3   OH218548   5.225   3.017   2.962 -0.3569 -0.0028 -0.1607
 6195TIP3    H118549   5.258   2.956   2.896 -3.6411 -1.4915 -0.6488
 6195TIP3    H218550   5.160   3.070   2.915 -1.4960  0.1145  1.4784
 6196TIP3   OH218551   3.260   6.373   0.101  0.3580  0.2442 -0.0131
 6196TIP3    H118552   3.350   6.386   0.130 -0.1155  0.1995  1.5816
 6196TIP3    H218553   3.247   6.436   0.031  0.8698  2.0304  1.4370
 6197TIP3   OH218554   5.174   6.040   2.404 -0.0091 -0.2184  0.0973
 6197TIP3    H118555   5.251   6.096   2.403 -1.6572  2.1699 -0.7611
 6197TIP3    H218556   5.163   6.013   2.313 -0.6420  0.1198  0.0715
 6198TIP3   OH218557   2.466   2.678   2.464  0.0019  0.0906  0.0098
 6198TIP3    H118558   2.530   2.745   2.438  0.8213 -0.5534  0.2972
 6198TIP3    H218559   2.519   2.599   2.477 -0.8352 -0.4105  0.4429
 6199TIP3   OH218560   0.931   3.706   2.428 -0.4084  0.2146  0.0496
 6199TIP3    H118561   0.941   3.750   2.343  0.0466  0.3304  0.1646
 6199TIP3    H218562   0.971   3.620   2.416  0.6132  0.6183  0.4574
 6200TIP3   OH218563   4.524   1.625   0.198 -0.1234 -0.2018  0.0819
 6200TIP3    H118564   4.611   1.620   0.157 -0.5232  1.0798 -0.9905
 6200TIP3    H218565   4.483   1.702   0.158 -1.2184  0.0586  1.6282
 6201TIP3   OH218566   4.500   6.462   2.107  0.1001 -0.2478  0.4405
 6201TIP3    H118567   4.419   6.479   2.155  0.7568  0.0726  1.4687
 6201TIP3    H218568   4.568   6.507   2.157  1.1411 -1.7016  0.4065
 6202TIP3   OH218569   3.710   5.260   1.667 -0.2232 -0.3018 -0.4686
 6202TIP3    H118570   3.654   5.270   1.589 -0.4685 -0.2106 -0.2820
 6202TIP3    H218571   3.668   5.315   1.733  0.2803  0.0318 -0.4252
 6203TIP3   OH218572   5.004   0.718   5.775 -0.1399 -0.7941  1.0489
 6203TIP3    H118573   4.966   0.805   5.767 -2.9625 -2.0939 -1.8813
 6203TIP3    H218574   5.082   0.721   5.720  1.1414  0.4135  2.8188
 6204TIP3   OH218575   4.297   2.767   4.711 -0.1005  0.5461  0.5467
 6204TIP3    H118576   4.223   2.825   4.729 -1.2652 -0.7635  0.1962
 6204TIP3    H218577   4.302   2.710   4.787  0.9990  1.0360  0.8642
 6205TIP3   OH218578   4.849   5.652   3.513  0.5583  0.0635  0.1085
 6205TIP3    H118579   4.882   5.617   3.596  0.5804 -0.0783  0.0403
 6205TIP3    H218580   4.864   5.582   3.450  1.3061  0.4761 -0.1879
 6206TIP3   OH218581   2.180   5.860   4.044  0.4622  0.2447  0.2726
 6206TIP3    H118582   2.135   5.883   4.125  1.6694  0.2882  0.9648
 6206TIP3    H218583   2.192   5.943   3.998 -0.8141  0.1358 -0.2857
 6207TIP3   OH218584   5.234   3.845   1.122  0.5143  0.7282 -0.5858
 6207TIP3    H118585   5.311   3.839   1.178  0.6081  0.8754 -0.7014
 6207TIP3    H218586   5.250   3.920   1.066  0.3607  0.6589 -0.7231
 6208TIP3   OH218587   6.907   0.505   3.304  0.2740 -0.3205  0.6164
 6208TIP3    H118588   6.835   0.556   3.341  1.3211  0.6235  1.4149
 6208TIP3    H218589   6.923   0.544   3.218 -0.3793 -0.7567  0.2896
 6209TIP3   OH218590   1.514   1.725   1.382  0.2658 -0.6982 -0.2323
 6209TIP3    H118591   1.466   1.803   1.355  1.1600 -0.0224  0.0899
 6209TIP3    H218592   1.535   1.740   1.474 -1.3881 -2.2826  0.4575
 6210TIP3   OH218593   2.053   1.406   1.301  0.0972  0.1348 -0.1579
 6210TIP3    H118594   2.142   1.376   1.287 -0.0451 -0.4247  0.1338
 6210TIP3    H218595   2.059   1.466   1.376  0.3364  0.6595 -0.5861
 6211TIP3   OH218596   3.556   1.234   3.344  0.6336  0.0159  0.3821
 6211TIP3    H118597   3.615   1.199   3.278  0.2079 -0.7513  0.3995
 6211TIP3    H218598   3.614   1.258   3.417  0.9423 -0.5390  0.3239
 6212TIP3   OH218599   3.532   0.165   1.576 -0.2660  0.3919 -0.0007
 6212TIP3    H118600   3.550   0.232   1.641 -1.6429  0.7295  0.0552
 6212TIP3    H218601   3.531   0.211   1.492  1.1141  0.0241 -0.2432
 6213TIP3   OH218602   0.902   5.853   1.668 -0.2415  0.3333  0.2670
 6213TIP3    H118603   0.965   5.868   1.598 -0.3373 -1.0182 -0.1192
 6213TIP3    H218604   0.956   5.840   1.746 -0.0943  0.3665  0.1707
 6214TIP3   OH218605   1.682   4.573   0.275  0.0528 -0.3891  0.0476
 6214TIP3    H118606   1.736   4.646   0.304 -1.3052  0.5191  0.3508
 6214TIP3    H218607   1.599   4.585   0.320 -0.7704 -1.1808 -1.1927
 6215TIP3   OH218608   2.221   3.031   3.196  0.6661 -0.3900  0.1490
 6215TIP3    H118609   2.192   2.958   3.251  2.4265 -2.2725 -1.2542
 6215TIP3    H218610   2.315   3.035   3.209  1.1891 -0.9598 -2.6407
 6216TIP3   OH218611   0.546   3.723   4.773 -0.3371  0.2006 -0.3901
 6216TIP3    H118612   0.506   3.651   4.823 -0.2368  0.1967 -0.3150
 6216TIP3    H218613   0.636   3.727   4.806  0.0409 -0.4868 -1.3118
 6217TIP3   OH218614   6.671   1.333   0.632  0.0473 -0.3279 -0.1965
 6217TIP3    H118615   6.737   1.315   0.565  0.7955  2.1462 -0.2030
 6217TIP3    H218616   6.597   1.369   0.584  0.7433  1.8495  0.2663
 6218TIP3   OH218617   2.611   1.177   1.950 -0.0545  0.3487  0.1174
 6218TIP3    H118618   2.540   1.238   1.969 -0.6909 -0.3163 -0.0544
 6218TIP3    H218619   2.636   1.196   1.860 -0.6272  0.0061 -0.1235
 6219TIP3   OH218620   4.508   0.979   1.703  0.3674  0.1325  0.2056
 6219TIP3    H118621   4.590   1.028   1.705  1.7021 -2.0060  1.2923
 6219TIP3    H218622   4.530   0.897   1.660 -1.0095 -0.7955  1.1918
 6220TIP3   OH218623   2.682   5.615   2.065 -0.0231 -0.1993 -0.0813
 6220TIP3    H118624   2.689   5.694   2.118 -2.3736 -0.3362  0.5221
 6220TIP3    H218625   2.739   5.551   2.108 -0.4115  0.2818  1.1710
 6221TIP3   OH218626   4.776   4.270   0.920  0.1008  0.0432 -0.1770
 6221TIP3    H118627   4.746   4.217   0.845  0.1646  2.5513 -2.1090
 6221TIP3    H218628   4.868   4.288   0.900 -0.1583  1.5799 -0.0416
 6222TIP3   OH218629   1.565   6.776   5.160  0.2250 -0.1230 -0.2810
 6222TIP3    H118630   1.470   6.779   5.147  0.0883  0.0811  0.6924
 6222TIP3    H218631   1.592   6.695   5.117  0.2147  1.6777 -4.0809
 6223TIP3   OH218632   4.946   1.631   4.581 -0.1684 -0.4334  0.0116
 6223TIP3    H118633   4.965   1.559   4.521  0.8894  0.3153 -0.5860
 6223TIP3    H218634   5.011   1.622   4.651  0.0828  0.0416 -0.1579
 6224TIP3   OH218635   3.907   6.509   0.026 -0.0779 -0.5791  0.2611
 6224TIP3    H118636   3.822   6.480  -0.005 -0.0809  0.6006 -0.9288
 6224TIP3    H218637   3.890   6.545   0.113 -0.7008 -0.8122  0.2397
 6225TIP3   OH218638   3.393   3.276   5.157 -0.1331  0.2231 -0.0581
 6225TIP3    H118639   3.400   3.333   5.234  0.0818  0.5433 -0.3088
 6225TIP3    H218640   3.346   3.199   5.188  2.3636 -0.9368  1.1205
 6226TIP3   OH218641   0.296   2.480   5.375  0.2189  0.8907  0.1000
 6226TIP3    H118642   0.334   2.424   5.308  1.1984  1.3811  0.2396
 6226TIP3    H218643   0.249   2.548   5.326  1.0972  1.3606 -0.0969
 6227TIP3   OH218644   3.981   1.755   2.399 -0.2440 -0.7001  0.0550
 6227TIP3    H118645   4.076   1.741   2.391 -0.6070 -2.5762 -1.7102
 6227TIP3    H218646   3.971   1.850   2.402  1.7112 -0.4637  0.8970
 6228TIP3   OH218647   6.986   0.427   2.769  0.5484 -0.1692 -0.2452
 6228TIP3    H118648   7.029   0.341   2.770  1.0643  0.0798 -0.5351
 6228TIP3    H218649   6.892   0.407   2.767  0.6761 -0.7365 -1.1945
 6229TIP3   OH218650   1.852   1.644   0.792 -0.0850 -0.3641 -0.2302
 6229TIP3    H118651   1.879   1.608   0.876 -0.6442  0.4059  0.2856
 6229TIP3    H218652   1.772   1.692   0.810 -1.4247 -1.9525 -1.5866
 6230TIP3   OH218653   1.776   0.022   0.575  0.0288 -0.2982 -0.4576
 6230TIP3    H118654   1.792   0.030   0.669  1.3060  0.7987 -0.7285
 6230TIP3    H218655   1.683   0.037   0.564  0.2757  2.3535  0.4031
 6231TIP3   OH218656   3.662   4.692   1.990  0.2473 -0.3098 -0.4373
 6231TIP3    H118657   3.691   4.777   2.021 -0.1733  0.6180 -2.4177
 6231TIP3    H218658   3.669   4.635   2.066 -0.7467  1.7770  1.3326
 6232TIP3   OH218659   6.802   3.936   0.654  0.4035 -0.2695  0.5532
 6232TIP3    H118660   6.823   3.902   0.741  3.5227  1.2328  0.5228
 6232TIP3    H218661   6.859   3.886   0.595  0.4679  0.6975 -0.2304
 6233TIP3   OH218662   3.572   2.250   4.236  0.1281  0.1738 -0.1903
 6233TIP3    H118663   3.543   2.318   4.176 -0.8203  0.7546  0.8781
 6233TIP3    H218664   3.493   2.225   4.284  0.6557 -0.9978  0.1077
 6234TIP3   OH218665   4.162   5.399   5.635  0.3957 -0.1651 -0.0669
 6234TIP3    H118666   4.179   5.423   5.544  0.0676 -1.9413 -0.6380
 6234TIP3    H218667   4.233   5.439   5.684  1.5980 -0.6633 -1.3423
 6235TIP3   OH218668   0.105   5.946   0.315  0.1131 -0.2878 -0.2891
 6235TIP3    H118669   0.100   6.042   0.313  0.7438 -0.2288  0.4753
 6235TIP3    H218670   0.020   5.917   0.283 -1.1242  0.5494  1.9902
 6236TIP3   OH218671   1.239   5.364   0.255  0.4705 -0.3215 -0.3693
 6236TIP3    H118672   1.290   5.409   0.188 -0.3233 -0.4106 -1.0518
 6236TIP3    H218673   1.201   5.434   0.308 -0.5489 -0.1669 -1.2683
 6237TIP3   OH218674   7.005   1.689   0.301 -0.3569  0.1503 -0.0809
 6237TIP3    H118675   7.069   1.731   0.359 -0.2627  0.1449 -0.1809
 6237TIP3    H218676   6.972   1.760   0.246 -0.9232  0.2811  0.4129
 6238TIP3   OH218677   2.405   1.151   3.155 -0.2015  0.1804 -0.0040
 6238TIP3    H118678   2.333   1.133   3.215 -0.6284  0.1699 -0.5116
 6238TIP3    H218679   2.432   1.241   3.177 -1.1307  0.6116 -0.5725
 6239TIP3   OH218680   5.902   2.081   3.390 -0.2109 -0.1869  0.1054
 6239TIP3    H118681   5.998   2.072   3.390 -0.2335 -0.9976  2.4473
 6239TIP3    H218682   5.878   2.072   3.297  1.9595 -0.0603 -0.5296
 6240TIP3   OH218683   1.325   5.785   4.492 -0.0014 -0.5295 -0.2388
 6240TIP3    H118684   1.270   5.707   4.486 -0.3885 -0.2902  0.1531
 6240TIP3    H218685   1.373   5.775   4.575  2.6429 -2.0787 -1.8024
 6241TIP3   OH218686   4.120   3.134   1.161  0.4260 -0.4665 -0.2420
 6241TIP3    H118687   4.155   3.129   1.072 -0.3897  0.6163 -0.6504
 6241TIP3    H218688   4.055   3.063   1.165  0.5824 -0.6208 -0.4592
 6242TIP3   OH218689   1.594   6.579   4.029 -0.4392  0.8388  0.4671
 6242TIP3    H118690   1.576   6.672   4.043 -1.3959  0.9530 -1.2234
 6242TIP3    H218691   1.594   6.541   4.117 -0.8865  2.2859  1.1238
 6243TIP3   OH218692   6.765   3.173   1.211 -0.4143  0.8072  0.6688
 6243TIP3    H118693   6.768   3.225   1.131 -0.4316  0.5340  0.4876
 6243TIP3    H218694   6.826   3.101   1.194 -0.1259  0.9607  1.0526
 6244TIP3   OH218695   6.643   4.949   1.073  0.0184 -0.4061 -0.2274
 6244TIP3    H118696   6.708   4.891   1.112  1.4777  0.9467 -0.5379
 6244TIP3    H218697   6.652   5.031   1.121  0.7147  0.7696 -2.2342
 6245TIP3   OH218698   3.023   3.648   3.848 -0.1619 -0.6427  0.6547
 6245TIP3    H118699   3.025   3.582   3.917  1.4262  1.5117  2.8279
 6245TIP3    H218700   3.115   3.663   3.826 -0.4623  0.8672  0.3011
 6246TIP3   OH218701   6.506   6.406   4.231 -0.0485 -0.4364  0.3108
 6246TIP3    H118702   6.558   6.361   4.164  0.7121  0.3949  0.3224
 6246TIP3    H218703   6.483   6.337   4.293  1.1550 -0.8160  0.3657
 6247TIP3   OH218704   0.459   5.200   4.292 -0.3028 -0.5908  0.1722
 6247TIP3    H118705   0.418   5.143   4.357  1.7064 -0.5417  1.5469
 6247TIP3    H218706   0.446   5.288   4.326  1.2144 -0.5954  0.8144
 6248TIP3   OH218707   1.419   6.572   3.345 -0.0411  0.6507 -0.1109
 6248TIP3    H118708   1.325   6.581   3.359 -0.1673 -0.0626 -0.4015
 6248TIP3    H218709   1.426   6.529   3.259  0.5206  0.0591  0.2178
 6249TIP3   OH218710   6.919   0.100   0.234 -0.4588 -0.2810  0.7216
 6249TIP3    H118711   6.928   0.182   0.186 -0.5252 -0.3259  0.6320
 6249TIP3    H218712   6.972   0.112   0.312  0.8301 -0.7462 -0.0609
 6250TIP3   OH218713   5.084   4.226   2.507 -0.1260  0.6795 -0.0498
 6250TIP3    H118714   5.131   4.143   2.511  0.1034  0.7087 -1.5545
 6250TIP3    H218715   5.104   4.269   2.590 -0.5345 -0.8979  0.9193
 6251TIP3   OH218716   3.643   4.721   3.310 -0.5197 -0.0189 -0.0266
 6251TIP3    H118717   3.710   4.682   3.367 -0.7498 -1.3138 -0.6069
 6251TIP3    H218718   3.610   4.648   3.258 -3.4418  0.2599  1.2428
 6252TIP3   OH218719   3.385   6.500   4.429 -0.0536 -0.0150 -0.3304
 6252TIP3    H118720   3.320   6.570   4.415  1.1742  1.2948  0.2027
 6252TIP3    H218721   3.451   6.515   4.361 -0.3872 -1.4713 -1.0131
 6253TIP3   OH218722   3.077   5.757   4.164 -0.4266 -0.1016 -0.1070
 6253TIP3    H118723   2.998   5.718   4.201 -0.7632  0.1152 -0.5937
 6253TIP3    H218724   3.050   5.791   4.079  0.3682 -0.7475 -0.6388
 6254TIP3   OH218725   2.238   2.545   4.083  0.1962 -0.0946  0.4929
 6254TIP3    H118726   2.220   2.455   4.111  0.5009 -0.3567 -0.1250
 6254TIP3    H218727   2.269   2.535   3.993 -0.5134  0.6945  0.1512
 6255TIP3   OH218728   4.331   1.215   0.377 -0.4063 -0.4915  0.0109
 6255TIP3    H118729   4.238   1.226   0.356 -0.2187  0.0145 -0.5960
 6255TIP3    H218730   4.334   1.138   0.433 -1.1409 -0.8067 -0.3705
 6256TIP3   OH218731   3.383   0.832   3.577 -0.1293 -0.2491  0.0307
 6256TIP3    H118732   3.427   0.916   3.563 -0.3165 -0.1910 -0.2185
 6256TIP3    H218733   3.297   0.856   3.612  0.3860 -0.3940  1.4579
 6257TIP3   OH218734   1.341   4.884   3.241  0.3469  0.2311 -0.6962
 6257TIP3    H118735   1.294   4.952   3.192 -2.2136  0.7363  2.1659
 6257TIP3    H218736   1.278   4.814   3.252  0.8578  0.0470  1.5885
 6258TIP3   OH218737   3.857   3.637   1.810 -0.0448  0.5629  0.1902
 6258TIP3    H118738   3.796   3.631   1.884  1.5314 -1.2349  1.4500
 6258TIP3    H218739   3.838   3.559   1.758  0.5102  0.4974  0.0795
 6259TIP3   OH218740   6.794   3.425   1.918 -0.0218 -0.3245 -0.4303
 6259TIP3    H118741   6.775   3.511   1.878  0.1301 -0.8536 -1.6910
 6259TIP3    H218742   6.887   3.428   1.937 -0.3005  0.3396  0.9451
 6260TIP3   OH218743   1.163   6.571   2.472 -0.1725  0.3785 -0.2862
 6260TIP3    H118744   1.258   6.574   2.457 -0.0845  1.0206  0.3415
 6260TIP3    H218745   1.125   6.608   2.392  0.1331  0.6167 -0.3258
 6261TIP3   OH218746   7.190   1.420   3.114 -0.0735  0.0153 -0.0885
 6261TIP3    H118747   7.246   1.393   3.186 -0.2259  0.1697  0.0892
 6261TIP3    H218748   7.190   1.346   3.054  0.5136  0.1052 -0.2036
 6262TIP3   OH218749   2.137   2.810   3.333  0.2099 -0.0945 -0.6805
 6262TIP3    H118750   2.047   2.782   3.345  0.6448 -1.4062 -0.2331
 6262TIP3    H218751   2.188   2.728   3.335  1.5404  0.7005  0.4404
 6263TIP3   OH218752   6.850   2.275   4.051  0.1904  0.6055 -0.6737
 6263TIP3    H118753   6.859   2.223   4.132  1.4143  1.5902 -0.1553
 6263TIP3    H218754   6.781   2.230   4.002  0.7824 -1.1680  0.0301
 6264TIP3   OH218755   2.786   4.836   4.718  0.4002 -0.3604 -0.2405
 6264TIP3    H118756   2.808   4.817   4.810  0.9827 -0.4514 -0.3952
 6264TIP3    H218757   2.717   4.772   4.697 -1.1503  0.9057  0.6999
 6265TIP3   OH218758   1.315   3.221   1.316  0.0644 -0.4933 -0.2181
 6265TIP3    H118759   1.320   3.205   1.221 -1.1107  0.2888 -0.4365
 6265TIP3    H218760   1.278   3.309   1.323  2.3800  0.4767  0.9721
 6266TIP3   OH218761   0.533   4.757   5.198 -0.1927 -0.1254 -0.5051
 6266TIP3    H118762   0.471   4.726   5.132  0.1258 -0.8514 -0.4719
 6266TIP3    H218763   0.609   4.786   5.148  0.3912 -1.4706 -0.4269
 6267TIP3   OH218764   3.587   5.848   4.063  0.2352 -0.3456 -0.2712
 6267TIP3    H118765   3.653   5.868   3.996 -1.2521 -2.2920 -2.4444
 6267TIP3    H218766   3.523   5.919   4.055 -0.0784 -0.7175 -1.1240
 6268TIP3   OH218767   2.876   4.195   4.607  0.5054  0.4541  0.1755
 6268TIP3    H118768   2.971   4.206   4.601  0.4534  2.1146  1.4837
 6268TIP3    H218769   2.864   4.105   4.636  1.5958 -0.2321 -1.3644
 6269TIP3   OH218770   1.752   5.197   1.630  0.0914  0.5350 -0.2105
 6269TIP3    H118771   1.759   5.225   1.721 -0.3849  2.1215 -0.6259
 6269TIP3    H218772   1.707   5.270   1.586 -0.4928 -0.5823 -1.5349
 6270TIP3   OH218773   2.529   2.095   1.635  0.3347 -0.1764  0.3167
 6270TIP3    H118774   2.470   2.027   1.601  0.9885 -0.2466 -0.7132
 6270TIP3    H218775   2.477   2.175   1.631 -0.9122 -0.7700  2.7783
 6271TIP3   OH218776   0.152   2.992   4.824  0.2560  0.4450  0.4422
 6271TIP3    H118777   0.111   2.965   4.742 -0.3835  0.2742  0.8122
 6271TIP3    H218778   0.243   3.011   4.801  0.5312 -1.2491  0.0103
 6272TIP3   OH218779   4.237   6.314   0.993  0.1314 -0.5000 -0.8042
 6272TIP3    H118780   4.316   6.304   1.046  0.5625 -0.3677 -1.4125
 6272TIP3    H218781   4.261   6.280   0.907  0.7797  2.9246 -2.1335
 6273TIP3   OH218782   6.461   4.625   1.677 -0.3292 -0.9032  0.2036
 6273TIP3    H118783   6.396   4.581   1.622 -0.8238  0.4085 -0.3056
 6273TIP3    H218784   6.461   4.716   1.646  2.4337 -1.0305 -0.4490
 6274TIP3   OH218785   4.433   5.128   5.407 -0.0940  0.5675  0.2094
 6274TIP3    H118786   4.486   5.176   5.343  0.3006  2.5801  1.9433
 6274TIP3    H218787   4.360   5.093   5.356  2.1338 -1.2232 -2.0355
 6275TIP3   OH218788   6.297   0.603   3.849  0.4331  0.2107  0.6129
 6275TIP3    H118789   6.214   0.623   3.892  1.3808 -0.4087  2.8655
 6275TIP3    H218790   6.338   0.688   3.835  0.3702  0.4047  1.5355
 6276TIP3   OH218791   3.332   2.980   2.721  0.2934  0.3877 -0.3235
 6276TIP3    H118792   3.390   2.919   2.766  0.6266  1.1905  0.3555
 6276TIP3    H218793   3.293   3.033   2.790 -0.6229  0.4064 -0.8398
 6277TIP3   OH218794   5.180   3.058   4.628 -0.0907 -0.0369 -0.1149
 6277TIP3    H118795   5.146   3.051   4.717  0.2251 -2.1273 -0.1186
 6277TIP3    H218796   5.217   3.146   4.623 -2.6321  1.1979  0.8918
 6278TIP3   OH218797   6.894   6.225   0.325  0.3677  0.4179 -0.1224
 6278TIP3    H118798   6.858   6.137   0.322  0.0919  0.4834  0.8375
 6278TIP3    H218799   6.833   6.274   0.381  0.9825  0.9843  0.0662
 6279TIP3   OH218800   4.593   3.463   1.019 -0.4239  0.6296 -0.1629
 6279TIP3    H118801   4.504   3.458   1.054 -0.3854  1.2963  0.0372
 6279TIP3    H218802   4.649   3.453   1.096 -0.2898 -1.0948 -0.4351
 6280TIP3   OH218803   0.900   0.106   3.106  0.2069 -0.2505  0.2123
 6280TIP3    H118804   0.848   0.036   3.145 -0.5225 -0.0596 -0.4072
 6280TIP3    H218805   0.853   0.131   3.026  1.8219 -0.8341 -0.9766
 6281TIP3   OH218806   3.106   6.106   5.022 -0.3311 -0.1161 -0.5508
 6281TIP3    H118807   3.020   6.115   4.982 -0.2200  0.3974 -0.6813
 6281TIP3    H218808   3.097   6.148   5.108  0.3821  2.0020 -1.4398
 6282TIP3   OH218809   6.914   6.227   2.479 -0.0199  0.3026  0.4989
 6282TIP3    H118810   6.969   6.151   2.498 -0.3380 -0.7496 -2.3320
 6282TIP3    H218811   6.830   6.206   2.519 -0.6500 -1.7524 -1.6986
 6283TIP3   OH218812   0.155   1.428   3.711 -0.0380  0.0414  0.5256
 6283TIP3    H118813   0.249   1.416   3.696 -0.2407 -0.2455 -0.6124
 6283TIP3    H218814   0.148   1.448   3.805  1.2261  0.8268  0.4838
 6284TIP3   OH218815   3.464   3.731   4.003 -0.0722  0.0360 -0.2322
 6284TIP3    H118816   3.454   3.636   4.008 -0.4827  0.1408  2.0650
 6284TIP3    H218817   3.504   3.756   4.087 -1.2910  2.0117 -0.1625
 6285TIP3   OH218818   1.067   2.485   4.345 -0.3076 -0.1772 -0.1960
 6285TIP3    H118819   1.040   2.561   4.295 -1.5676  0.5447  1.4620
 6285TIP3    H218820   1.156   2.505   4.375  0.5584 -0.7323 -2.2482
 6286TIP3   OH218821   1.151   3.457   4.927  0.3573 -0.4432 -0.2039
 6286TIP3    H118822   1.100   3.507   4.991  0.0535 -0.8333 -0.1370
 6286TIP3    H218823   1.227   3.426   4.975 -0.7581 -2.2655  0.4870
 6287TIP3   OH218824   2.635   0.677   1.861  0.0220 -0.2311  0.8802
 6287TIP3    H118825   2.554   0.633   1.834  0.1577  0.1845 -0.2710
 6287TIP3    H218826   2.701   0.643   1.801  0.3328  0.7694  0.6458
 6288TIP3   OH218827   0.126   6.650   1.541 -0.1480 -0.6687 -0.0009
 6288TIP3    H118828   0.135   6.710   1.615 -2.7036 -0.0447 -0.0853
 6288TIP3    H218829   0.077   6.576   1.577  0.0687 -1.1498 -0.6783
 6289TIP3   OH218830   0.344   0.378   0.699 -0.5815 -0.4053  0.6839
 6289TIP3    H118831   0.293   0.438   0.753 -1.1225  0.3187 -0.5938
 6289TIP3    H218832   0.304   0.293   0.713 -0.9106 -0.1743  1.1732
 6290TIP3   OH218833   0.951   4.713   3.016 -0.4276  0.2204 -0.1269
 6290TIP3    H118834   0.905   4.768   3.080  0.6960 -0.5989  1.4699
 6290TIP3    H218835   1.042   4.713   3.047 -0.3637 -2.4070 -0.1295
 6291TIP3   OH218836   1.979   1.780   1.092  0.1916 -0.5183  0.5368
 6291TIP3    H118837   1.928   1.699   1.086  0.9570 -0.9300 -1.1202
 6291TIP3    H218838   1.915   1.847   1.115 -0.2476 -1.7441  3.3328
 6292TIP3   OH218839   3.859   1.877   0.732 -0.0293  0.0879 -0.7779
 6292TIP3    H118840   3.799   1.833   0.793  0.9146 -0.4508 -0.2252
 6292TIP3    H218841   3.902   1.806   0.685  0.4676  0.4566 -0.8902
 6293TIP3   OH218842   4.285   5.640   3.557  0.3669 -0.4221  0.4377
 6293TIP3    H118843   4.222   5.697   3.602 -0.8538  1.3246 -3.0603
 6293TIP3    H218844   4.371   5.674   3.582 -0.2783  1.1164  0.7178
 6294TIP3   OH218845   6.479   6.241   1.542 -0.4019 -0.3585  0.4708
 6294TIP3    H118846   6.456   6.151   1.518 -0.6152 -0.1035 -0.2863
 6294TIP3    H218847   6.409   6.294   1.505 -0.6922  0.0570  1.5781
 6295TIP3   OH218848   2.131   1.870   4.741 -0.2875 -0.1574 -0.4181
 6295TIP3    H118849   2.144   1.776   4.729 -0.8232 -0.2130 -0.6015
 6295TIP3    H218850   2.041   1.886   4.711 -0.5480  0.2448  0.5333
 6296TIP3   OH218851   0.890   4.340   3.950 -0.5172 -0.5232 -0.0630
 6296TIP3    H118852   0.886   4.425   3.907 -0.8575 -0.5950 -0.1842
 6296TIP3    H218853   0.980   4.332   3.982 -0.8161  0.4426  1.1074
 6297TIP3   OH218854   0.755   0.159   5.293 -0.2219 -0.1331  0.2146
 6297TIP3    H118855   0.841   0.175   5.332 -0.6853 -0.1411  1.2753
 6297TIP3    H218856   0.733   0.240   5.249  0.5964 -0.3393 -0.6077
 6298TIP3   OH218857   5.759   3.492   5.031 -0.7460 -0.3208 -0.4067
 6298TIP3    H118858   5.778   3.559   4.965 -0.2487 -0.1051 -0.0509
 6298TIP3    H218859   5.770   3.537   5.114  2.0381 -1.4464 -0.0808
 6299TIP3   OH218860   6.585   2.594   4.135  0.2513  0.4649 -0.6613
 6299TIP3    H118861   6.566   2.500   4.128  0.1033  0.4312  0.1073
 6299TIP3    H218862   6.664   2.606   4.081 -0.5540  0.1752 -1.9416
 6300TIP3   OH218863   5.897   0.228   5.132 -0.1750 -0.4279  0.2002
 6300TIP3    H118864   5.821   0.241   5.075  0.4466 -1.4150 -0.9001
 6300TIP3    H218865   5.971   0.260   5.081  0.2628 -0.3170  0.8963
 6301TIP3   OH218866   5.930   0.708   4.218  0.0191 -0.0506 -0.1549
 6301TIP3    H118867   5.869   0.693   4.290  0.2666  1.0598  0.3077
 6301TIP3    H218868   6.017   0.700   4.258  0.1587  0.8349 -0.2548
 6302TIP3   OH218869   2.955   3.305   1.264  0.0597  0.7110  0.3324
 6302TIP3    H118870   2.869   3.262   1.258  0.0547  0.8325 -0.6631
 6302TIP3    H218871   2.939   3.396   1.238  0.6443  0.5130 -0.7748
 6303TIP3   OH218872   4.318   2.975   0.587  0.2126  0.0260 -0.4705
 6303TIP3    H118873   4.289   3.064   0.607  0.8347  0.0268  0.5449
 6303TIP3    H218874   4.262   2.947   0.515  0.1824  1.3319 -0.9869
 6304TIP3   OH218875   2.127   6.447   4.424  0.0630  0.2417 -0.0956
 6304TIP3    H118876   2.063   6.491   4.480  0.6442 -0.1324  0.8791
 6304TIP3    H218877   2.204   6.435   4.479  0.9667  0.5975 -1.2239
 6305TIP3   OH218878   0.451   5.588   2.028 -0.4203  0.0518  0.6912
 6305TIP3    H118879   0.460   5.495   2.010 -3.4613 -0.3004  0.4327
 6305TIP3    H218880   0.537   5.625   2.009 -0.1342 -2.0786 -3.2070
 6306TIP3   OH218881   4.875   1.027   1.028  0.2973 -0.2292  0.1633
 6306TIP3    H118882   4.804   1.088   1.006  0.5209  0.4265  1.1973
 6306TIP3    H218883   4.836   0.940   1.015  0.2468  0.0774 -2.1917
 6307TIP3   OH218884   3.738   3.838   3.699 -0.2824  0.0252  0.2167
 6307TIP3    H118885   3.832   3.824   3.682  0.2141  2.1991  0.8499
 6307TIP3    H218886   3.725   3.811   3.789  0.5657  2.7553  1.2766
 6308TIP3   OH218887   2.702   4.392   5.773  0.0511  0.4223  0.0545
 6308TIP3    H118888   2.718   4.312   5.823  1.0127  1.5248  1.5726
 6308TIP3    H218889   2.789   4.418   5.741 -0.3188  0.6183 -0.8237
 6309TIP3   OH218890   2.304   2.848   1.240  0.3233  0.3376  0.1557
 6309TIP3    H118891   2.296   2.757   1.212 -1.5322  0.2176  0.9469
 6309TIP3    H218892   2.243   2.856   1.313 -0.0570  2.3809 -0.3246
 6310TIP3   OH218893   2.845   5.601   1.550  0.1811  0.2737 -0.3346
 6310TIP3    H118894   2.924   5.581   1.499 -0.2099 -0.2955 -0.7290
 6310TIP3    H218895   2.775   5.604   1.485  0.0210  1.7924 -0.1303
 6311TIP3   OH218896   1.246   3.578   0.595 -0.0795 -0.5798 -1.1610
 6311TIP3    H118897   1.335   3.594   0.625 -0.1284 -1.0429 -0.7540
 6311TIP3    H218898   1.257   3.532   0.511  0.0994 -2.3744 -0.1995
 6312TIP3   OH218899   0.613   3.275   0.927  0.1228 -0.0276  1.3186
 6312TIP3    H118900   0.543   3.215   0.902 -0.4904  0.4818  1.7990
 6312TIP3    H218901   0.678   3.219   0.970 -0.9597 -0.1949  2.8079
 6313TIP3   OH218902   5.228   4.712   2.028 -0.2526  0.1324  0.4717
 6313TIP3    H118903   5.312   4.700   2.074 -0.5575  0.0271  1.0165
 6313TIP3    H218904   5.198   4.799   2.055 -1.5910 -0.8548  2.4453
 6314TIP3   OH218905   1.188   6.295   3.963  0.4698 -0.3782 -0.3223
 6314TIP3    H118906   1.105   6.334   3.936  0.9418  0.5249 -0.5070
 6314TIP3    H218907   1.218   6.246   3.886  0.4574 -0.1053 -0.5017
 6315TIP3   OH218908   6.527   4.295   2.979  0.1951 -0.2541 -0.5101
 6315TIP3    H118909   6.557   4.235   2.910 -0.1921 -2.0974  0.8600
 6315TIP3    H218910   6.432   4.283   2.982 -0.0010  1.0784 -0.7680
 6316TIP3   OH218911   3.037   3.495   1.626  0.1706 -0.5636 -0.2095
 6316TIP3    H118912   2.973   3.535   1.567  1.2948  0.9989 -0.4082
 6316TIP3    H218913   3.008   3.521   1.714  0.2415 -0.2929 -0.2660
 6317TIP3   OH218914   6.019   5.446   2.505  0.2157 -0.4219 -0.0898
 6317TIP3    H118915   6.106   5.485   2.497  0.4357 -0.7850  0.4650
 6317TIP3    H218916   6.032   5.370   2.561 -0.9571  1.2144  2.5936
 6318TIP3   OH218917   2.421   4.840   4.927 -0.1359 -0.1825  0.1079
 6318TIP3    H118918   2.348   4.786   4.896  0.0882 -0.9557  0.8705
 6318TIP3    H218919   2.498   4.784   4.917 -0.1723 -0.9046  2.9239
 6319TIP3   OH218920   4.902   0.017   1.083 -0.0242  0.2665  0.5609
 6319TIP3    H118921   4.932  -0.057   1.031 -0.5748 -0.0947  0.7494
 6319TIP3    H218922   4.982   0.052   1.123  0.1368 -0.7977  1.2067
 6320TIP3   OH218923   1.987   3.009   1.964 -0.0414 -0.4356  0.4350
 6320TIP3    H118924   1.931   2.962   2.026  0.0334  0.1180  0.9414
 6320TIP3    H218925   2.076   2.982   1.987 -0.0290 -0.4039  0.4246
 6321TIP3   OH218926   2.507   1.204   4.363  0.0283 -0.5623 -0.4472
 6321TIP3    H118927   2.501   1.132   4.425  1.8553 -0.6358 -0.3018
 6321TIP3    H218928   2.597   1.200   4.331 -0.1351  1.0467 -1.1799
 6322TIP3   OH218929   3.168   6.017   2.479 -0.2226 -0.4362  0.2973
 6322TIP3    H118930   3.133   5.998   2.566  0.4668 -1.9699  0.2715
 6322TIP3    H218931   3.122   5.956   2.421 -0.3215  0.2358 -0.3469
 6323TIP3   OH218932   3.996   2.387   4.121 -0.1721 -0.3513 -0.1185
 6323TIP3    H118933   3.997   2.389   4.025 -1.3130 -0.4813 -0.1393
 6323TIP3    H218934   4.032   2.300   4.143 -0.7951 -0.6987 -0.4512
 6324TIP3   OH218935   0.272   5.734   1.375 -0.3209 -0.0277 -0.2089
 6324TIP3    H118936   0.324   5.668   1.421 -0.7616 -0.0603  0.2537
 6324TIP3    H218937   0.301   5.817   1.411 -2.6664 -0.1696  2.3230
 6325TIP3   OH218938   1.619   1.499   2.958  0.0847 -0.2593  0.3231
 6325TIP3    H118939   1.658   1.492   3.046  0.5020  1.9013  0.3819
 6325TIP3    H218940   1.572   1.417   2.946  0.5544 -0.8883  2.3090
 6326TIP3   OH218941   5.541   0.412   1.090 -0.0989  0.2594 -0.1172
 6326TIP3    H118942   5.607   0.411   1.021  0.9058  0.2496  0.8217
 6326TIP3    H218943   5.458   0.425   1.044  0.4529 -0.5431 -1.3926
 6327TIP3   OH218944   4.882   4.689   4.334  0.2019 -0.9399 -0.3604
 6327TIP3    H118945   4.873   4.642   4.417  0.8558  0.1883  0.3789
 6327TIP3    H218946   4.818   4.648   4.276  0.5663 -2.5554  0.3181
 6328TIP3   OH218947   4.628   6.119   2.555 -0.2199 -0.4077  0.2627
 6328TIP3    H118948   4.595   6.046   2.503 -1.8446  1.4711 -1.5310
 6328TIP3    H218949   4.591   6.106   2.642  1.3202 -2.8147  0.6625
 6329TIP3   OH218950   2.082   6.371   1.987 -0.2281  0.4071  0.6609
 6329TIP3    H118951   2.041   6.456   1.973 -0.8124  0.2998  1.5760
 6329TIP3    H218952   2.176   6.388   1.983 -0.2958  0.4996 -2.3688
 6330TIP3   OH218953   0.887   0.878   5.890  0.1485  0.2738  0.1717
 6330TIP3    H118954   0.957   0.929   5.931  0.6855 -1.6126  1.7548
 6330TIP3    H218955   0.928   0.839   5.813  0.0226  1.3795 -0.4674
 6331TIP3   OH218956   2.432   0.411   5.031  0.2816 -0.1292 -0.0424
 6331TIP3    H118957   2.360   0.468   5.005  0.4385  0.1860  0.2104
 6331TIP3    H218958   2.509   0.468   5.032  0.9547 -0.8800 -2.3692
 6332TIP3   OH218959   6.040   5.288   5.415  0.1691  0.5852 -0.0241
 6332TIP3    H118960   5.982   5.333   5.476  0.1214 -1.4139  1.5328
 6332TIP3    H218961   6.123   5.281   5.463  0.5085  0.0372 -0.6837
 6333TIP3   OH218962   6.582   1.603   1.134  0.1813 -0.4913  0.0031
 6333TIP3    H118963   6.634   1.523   1.136 -0.2457 -0.7698  0.0943
 6333TIP3    H218964   6.618   1.658   1.204  0.7513 -0.4239 -0.3368
 6334TIP3   OH218965   6.443   6.638   3.104  0.3868  0.2541  0.4606
 6334TIP3    H118966   6.498   6.607   3.032  1.7525 -0.8096  1.8723
 6334TIP3    H218967   6.358   6.597   3.089  0.9054 -0.6540 -0.0904
 6335TIP3   OH218968   3.174   6.298   3.136  0.1566 -0.3331  0.1436
 6335TIP3    H118969   3.203   6.315   3.226  2.1076  0.2646 -0.5438
 6335TIP3    H218970   3.146   6.207   3.136  0.4702 -0.4454  1.2611
 6336TIP3   OH218971   3.100   2.198   1.414 -0.3354  0.0867  0.3219
 6336TIP3    H118972   3.059   2.215   1.499  0.1128 -1.9684  1.0226
 6336TIP3    H218973   3.074   2.271   1.359  2.0833  3.3279  3.0909
 6337TIP3   OH218974   6.717   5.181   0.364  0.3518 -0.2781  0.3767
 6337TIP3    H118975   6.672   5.153   0.284  0.6698  0.0047  0.0976
 6337TIP3    H218976   6.651   5.170   0.433  0.2106 -0.9338  0.1498
 6338TIP3   OH218977   4.769   4.944   4.047 -0.6379 -0.4163 -0.6467
 6338TIP3    H118978   4.852   4.919   4.006 -0.3157  0.8761 -0.8346
 6338TIP3    H218979   4.764   5.039   4.034 -1.0605 -0.1186  1.3206
 6339TIP3   OH218980   5.716   3.643   5.712 -0.5855 -0.2489 -0.0764
 6339TIP3    H118981   5.752   3.710   5.653 -1.2206  1.9247  1.8797
 6339TIP3    H218982   5.736   3.674   5.800  1.1783 -3.8736  1.0022
 6340TIP3   OH218983   1.925   0.911   3.739 -0.1307 -0.3695 -0.7944
 6340TIP3    H118984   1.841   0.871   3.714 -1.2760  1.1722  0.3576
 6340TIP3    H218985   1.976   0.838   3.775 -1.6929 -1.0439  0.1696
 6341TIP3   OH218986   7.207   2.349   1.647 -0.2501 -0.3538  0.3264
 6341TIP3    H118987   7.181   2.285   1.580  0.1763 -0.3878  0.1942
 6341TIP3    H218988   7.154   2.325   1.724 -1.7820  0.5512 -0.4101
 6342TIP3   OH218989   3.563   6.374   0.867 -0.2519 -0.4241 -0.0056
 6342TIP3    H118990   3.629   6.306   0.850  0.7614  0.4734  0.2758
 6342TIP3    H218991   3.613   6.454   0.882 -1.4393  0.5009 -0.7679
 6343TIP3   OH218992   0.652   2.283   4.635 -0.3174  0.2850  0.2146
 6343TIP3    H118993   0.571   2.313   4.594  0.0944 -0.3043 -1.0611
 6343TIP3    H218994   0.721   2.307   4.574  0.4555  0.4877  1.1329
 6344TIP3   OH218995   5.676   1.789   5.355  0.5107 -0.2252  0.4441
 6344TIP3    H118996   5.720   1.868   5.325  2.3149 -0.8483  1.3192
 6344TIP3    H218997   5.734   1.717   5.328 -0.8083 -1.2380  0.1534
 6345TIP3   OH218998   0.289   3.434   4.818  0.3072 -0.1323 -0.2952
 6345TIP3    H118999   0.384   3.420   4.819  0.5312  1.1284 -1.5047
 6345TIP3    H219000   0.276   3.513   4.870 -0.1337 -0.5182  0.1906
 6346TIP3   OH219001   3.102   5.522   1.936  0.0917 -0.1490  0.0439
 6346TIP3    H119002   3.117   5.568   1.854 -0.9568 -0.7740 -0.5279
 6346TIP3    H219003   3.101   5.429   1.912  0.0367 -0.3548  0.8035
 6347TIP3   OH219004   1.560   4.523   1.321  0.6535  0.8009 -0.2387
 6347TIP3    H119005   1.563   4.588   1.391  0.5212  0.4719  0.0727
 6347TIP3    H219006   1.547   4.440   1.365  1.9908  0.4059 -0.5364
 6348TIP3   OH219007   5.902   2.720   4.497 -0.2500 -0.0683  0.4570
 6348TIP3    H119008   5.824   2.675   4.466 -0.6388 -0.1708  1.5311
 6348TIP3    H219009   5.965   2.710   4.427 -0.8463 -0.9307  0.0240
 6349TIP3   OH219010   5.696   6.712   3.354 -0.2180 -0.0640 -0.5315
 6349TIP3    H119011   5.668   6.692   3.443 -0.6074 -0.0420 -0.6499
 6349TIP3    H219012   5.615   6.732   3.306  0.0474  0.5697 -0.7280
 6350TIP3   OH219013   6.144   3.559   4.597 -0.5868  0.0919 -0.3800
 6350TIP3    H119014   6.144   3.537   4.503 -1.5979 -0.8528 -0.1717
 6350TIP3    H219015   6.226   3.524   4.630 -0.3447  0.1984 -0.8647
 6351TIP3   OH219016   4.164   2.622   4.993  0.0292 -0.3283 -0.1162
 6351TIP3    H119017   4.097   2.599   5.057 -1.2492 -0.0923 -1.3073
 6351TIP3    H219018   4.155   2.716   4.981  2.0509  0.0748  1.2735
 6352TIP3   OH219019   5.372   4.723   0.707 -0.2015  0.6107  0.3183
 6352TIP3    H119020   5.326   4.756   0.784  0.8261  3.6239 -0.2309
 6352TIP3    H219021   5.432   4.657   0.741 -2.2482 -0.7520  1.5241
 6353TIP3   OH219022   5.753   5.943   3.509 -0.1689  0.0407  0.5417
 6353TIP3    H119023   5.728   5.933   3.417  0.2299 -0.0905  0.4453
 6353TIP3    H219024   5.695   6.012   3.543 -1.8647 -1.4620  0.8008
 6354TIP3   OH219025   1.532   5.207   0.330  0.1217  0.2893  0.1389
 6354TIP3    H119026   1.556   5.115   0.319  1.1257  0.6455 -0.8304
 6354TIP3    H219027   1.612   5.255   0.311  0.3600  1.3011  3.1264
 6355TIP3   OH219028   1.094   3.671   1.763 -0.0233  0.7326  0.0967
 6355TIP3    H119029   1.180   3.644   1.795 -0.5901 -1.9543 -0.4045
 6355TIP3    H219030   1.112   3.724   1.686  1.1906  1.1524  0.6507
 6356TIP3   OH219031   2.989   0.166   4.231  0.3060 -0.7110  0.0475
 6356TIP3    H119032   2.965   0.241   4.285  0.0532 -0.7776  0.0273
 6356TIP3    H219033   2.915   0.155   4.171 -0.0401 -1.5004  0.6045
 6357TIP3   OH219034   0.672   0.069   3.579 -0.0137 -0.1568 -0.0120
 6357TIP3    H119035   0.610   0.011   3.624 -0.1328  0.3492  0.4914
 6357TIP3    H219036   0.712   0.120   3.650 -0.2315  0.6810 -0.4883
 6358TIP3   OH219037   6.533   3.152   3.748 -0.5854  0.4624 -0.6090
 6358TIP3    H119038   6.482   3.112   3.818  0.6548  0.9933  0.6678
 6358TIP3    H219039   6.521   3.246   3.761  0.3769  0.5843 -0.5212
 6359TIP3   OH219040   1.904   2.657   1.282  0.2823 -0.1729  0.1885
 6359TIP3    H119041   1.931   2.568   1.305  1.2596 -0.2123 -1.0184
 6359TIP3    H219042   1.845   2.645   1.207  0.3976  0.1935  0.0391
 6360TIP3   OH219043   1.310   1.333   3.887  0.2335 -0.4666 -0.0785
 6360TIP3    H119044   1.303   1.254   3.833  2.6058 -1.6032  1.1265
 6360TIP3    H219045   1.401   1.333   3.917 -0.2940  1.5590  1.7395
 6361TIP3   OH219046   6.800   5.522   1.720  0.1345 -0.3571 -0.7200
 6361TIP3    H119047   6.817   5.433   1.688  2.6663 -0.2249  0.0388
 6361TIP3    H219048   6.779   5.572   1.642 -0.9795 -1.5268 -1.2115
 6362TIP3   OH219049   2.202   2.288   4.203  0.1588  0.1869 -0.0655
 6362TIP3    H119050   2.159   2.280   4.288  1.6184 -0.0970  0.6886
 6362TIP3    H219051   2.293   2.264   4.221  0.7014  1.0499 -1.5207
 6363TIP3   OH219052   1.242   1.084   0.787  0.3855 -0.2642  0.1316
 6363TIP3    H119053   1.232   1.010   0.847 -1.5890  0.7058  1.1037
 6363TIP3    H219054   1.336   1.099   0.783  0.7231 -1.8487  1.1164
 6364TIP3   OH219055   3.244   2.559   3.940 -0.0865 -0.1925 -0.2689
 6364TIP3    H119056   3.339   2.552   3.933 -0.1366  0.1113 -1.6651
 6364TIP3    H219057   3.215   2.572   3.850 -1.3420  0.9461  0.2682
 6365TIP3   OH219058   2.900   4.052   3.016  0.3745  0.6370 -0.3942
 6365TIP3    H119059   2.891   3.965   3.055 -2.2055  1.1043  0.2199
 6365TIP3    H219060   2.971   4.094   3.065 -0.1865 -0.1687  1.1711
 6366TIP3   OH219061   5.833   6.405   1.146 -0.2271 -0.0737  0.4056
 6366TIP3    H119062   5.829   6.380   1.054 -1.0784 -2.2005  0.9549
 6366TIP3    H219063   5.744   6.393   1.178 -0.5361  3.0105  1.0036
 6367TIP3   OH219064   0.532   5.473   2.369  0.3052 -0.1294  0.1635
 6367TIP3    H119065   0.497   5.475   2.458 -1.1779 -1.4687 -0.3408
 6367TIP3    H219066   0.606   5.533   2.371 -1.2910  1.9464  1.6237
 6368TIP3   OH219067   5.218   6.329   2.638  0.6210 -0.1944 -0.2897
 6368TIP3    H119068   5.276   6.276   2.584 -0.6522 -1.4654 -0.4550
 6368TIP3    H219069   5.134   6.284   2.635  0.3941 -0.1324  2.4268
 6369TIP3   OH219070   4.985   3.703   1.815 -0.0996  0.0382  0.4427
 6369TIP3    H119071   5.038   3.782   1.804  1.0861 -0.3301  2.7889
 6369TIP3    H219072   5.048   3.636   1.843 -1.5600 -0.8420  1.7746
 6370TIP3   OH219073   1.556   5.839   1.868  0.4390 -0.4417 -0.0848
 6370TIP3    H119074   1.599   5.831   1.783 -2.0199 -0.3698 -1.4376
 6370TIP3    H219075   1.560   5.932   1.889 -0.4263 -0.1687 -1.0176
 6371TIP3   OH219076   5.421   4.091   2.230  0.4399 -0.4989  0.4871
 6371TIP3    H119077   5.476   4.015   2.210  0.8239 -0.5326  1.5910
 6371TIP3    H219078   5.481   4.155   2.268 -0.2954 -0.6288  1.9330
 6372TIP3   OH219079   4.370   2.642   1.068  0.0722 -0.7010 -0.2185
 6372TIP3    H119080   4.421   2.643   1.148 -0.7977  0.7242  0.3404
 6372TIP3    H219081   4.384   2.728   1.028 -1.7323 -0.3121 -0.1163
 6373TIP3   OH219082   2.945   5.066   4.734 -0.1264  0.0198 -0.7055
 6373TIP3    H119083   3.019   5.023   4.777  0.9223  0.7438 -1.7109
 6373TIP3    H219084   2.879   4.998   4.724  0.4336 -0.6623  0.1628
 6374TIP3   OH219085   4.614   2.245   1.692  0.2990  0.3937  0.1630
 6374TIP3    H119086   4.598   2.232   1.785 -0.2439 -0.6329 -0.0588
 6374TIP3    H219087   4.660   2.329   1.687 -2.8848  2.3809  1.0596
 6375TIP3   OH219088   6.371   3.773   4.442 -0.1725  0.0597 -0.1262
 6375TIP3    H119089   6.334   3.709   4.503 -0.0017 -0.3486 -0.4475
 6375TIP3    H219090   6.324   3.855   4.461 -0.9844 -0.3596 -0.2890
 6376TIP3   OH219091   2.300   0.334   3.511 -0.0523  0.1242  0.0177
 6376TIP3    H119092   2.381   0.385   3.512 -0.4037  0.7023 -0.0824
 6376TIP3    H219093   2.255   0.363   3.431 -1.6099  1.8594  1.4468
 6377TIP3   OH219094   4.316   4.559   3.682 -0.2458 -0.1197  0.4224
 6377TIP3    H119095   4.242   4.615   3.656 -0.4415 -0.4749  0.2081
 6377TIP3    H219096   4.276   4.490   3.734 -0.0677 -0.3361  0.2718
 6378TIP3   OH219097   1.586   3.999   1.775 -0.2494  0.3412 -0.1974
 6378TIP3    H119098   1.615   4.087   1.751  0.4522 -0.0999 -1.0343
 6378TIP3    H219099   1.625   3.984   1.862 -0.3094  0.8196 -0.0842
 6379TIP3   OH219100   2.754   6.496   2.156  0.0452  0.2349 -0.4610
 6379TIP3    H119101   2.680   6.442   2.181  0.1930 -0.7537 -2.0719
 6379TIP3    H219102   2.797   6.449   2.085  0.5163  2.1824 -1.5596
 6380TIP3   OH219103   0.367   2.826   4.614 -0.4469 -0.6992  0.3302
 6380TIP3    H119104   0.283   2.849   4.574 -0.1743  0.0045  0.1306
 6380TIP3    H219105   0.345   2.762   4.681 -1.2550  0.0927  0.8512
 6381TIP3   OH219106   1.875   5.643   5.124  0.7928 -0.1571 -0.1845
 6381TIP3    H119107   1.921   5.679   5.048  0.7022 -0.7121 -0.5025
 6381TIP3    H219108   1.784   5.671   5.113  0.2552 -2.2905 -1.5872
 6382TIP3   OH219109   1.539   2.894   4.768 -0.7915 -0.0472  0.3729
 6382TIP3    H119110   1.510   2.841   4.695 -1.9024 -0.7693  1.2937
 6382TIP3    H219111   1.618   2.851   4.800 -0.3823  0.1943 -0.3163
 6383TIP3   OH219112   6.532   3.857   1.696 -0.0288 -0.2904 -0.2254
 6383TIP3    H119113   6.455   3.816   1.737 -0.5716 -0.2140 -1.1549
 6383TIP3    H219114   6.508   3.867   1.604  0.4774  1.2071 -0.2182
 6384TIP3   OH219115   2.792   0.137   0.514 -0.1981  1.0180  0.2389
 6384TIP3    H119116   2.815   0.185   0.435 -0.8771 -0.5981 -0.9755
 6384TIP3    H219117   2.829   0.050   0.502 -0.8036  0.5648  1.4489
 6385TIP3   OH219118   5.847   0.716   0.024  0.2742  0.0866 -0.2299
 6385TIP3    H119119   5.934   0.688   0.051  1.7021  1.5191 -2.9217
 6385TIP3    H219120   5.820   0.779   0.091  1.3776 -0.2076  0.5190
 6386TIP3   OH219121   4.860   3.924   5.691 -0.1281 -0.1132  0.8278
 6386TIP3    H119122   4.774   3.953   5.660 -0.2484 -0.3624  0.9284
 6386TIP3    H219123   4.907   4.005   5.711 -0.6006  0.0073  1.4722
 6387TIP3   OH219124   1.278   5.018   3.985  0.2426  0.1537 -0.0790
 6387TIP3    H119125   1.293   4.967   4.065 -0.5310 -0.2672 -0.1889
 6387TIP3    H219126   1.361   5.062   3.969  0.6673 -0.4108  0.4974
 6388TIP3   OH219127   6.470   2.950   1.161 -0.1863 -0.5566 -0.1314
 6388TIP3    H119128   6.378   2.932   1.178  0.0753 -1.3503  0.5333
 6388TIP3    H219129   6.517   2.906   1.232  0.6998 -0.0903 -0.4064
 6389TIP3   OH219130   4.903   5.887   2.731  0.2539  0.3697  0.0051
 6389TIP3    H119131   4.856   5.862   2.811  0.8821  0.8096  0.5259
 6389TIP3    H219132   4.990   5.846   2.741  0.8925  1.7458  0.3292
 6390TIP3   OH219133   6.033   5.047   3.357 -0.8271 -0.0433  0.1508
 6390TIP3    H119134   6.011   5.133   3.321  0.0654 -0.1436 -0.6629
 6390TIP3    H219135   5.987   5.045   3.441 -0.7878  1.2684  0.2365
 6391TIP3   OH219136   3.033   0.460   0.766  0.3456 -0.3236 -0.0528
 6391TIP3    H119137   3.099   0.471   0.835  1.2299 -2.3024 -0.4857
 6391TIP3    H219138   3.070   0.505   0.690  0.6427 -0.4085  0.0391
 6392TIP3   OH219139   1.564   5.831   1.205  0.0214  0.6390 -0.2326
 6392TIP3    H119140   1.649   5.798   1.174  0.5018  1.8156 -0.1994
 6392TIP3    H219141   1.511   5.752   1.218  1.0458 -0.0979 -0.4338
 6393TIP3   OH219142   2.292   2.264   5.426  0.6536 -0.0860 -0.2967
 6393TIP3    H119143   2.310   2.349   5.387  1.2069  0.7611  1.6663
 6393TIP3    H219144   2.203   2.271   5.460  1.7815  1.0240  2.8159
 6394TIP3   OH219145   4.075   2.730   1.738 -0.8047 -0.1592  0.1396
 6394TIP3    H119146   4.018   2.767   1.671 -0.4634 -1.8173 -1.1392
 6394TIP3    H219147   4.113   2.806   1.782 -3.1772  0.9936  0.3698
 6395TIP3   OH219148   5.295   0.386   0.957  0.3302  0.1959  0.4668
 6395TIP3    H119149   5.302   0.316   0.892  1.1841  0.7036  0.0089
 6395TIP3    H219150   5.201   0.399   0.968  0.1467 -1.3108  0.8716
 6396TIP3   OH219151   2.472   5.022   4.663 -0.6057  0.0599 -0.3590
 6396TIP3    H119152   2.493   4.958   4.731  1.9433 -0.2773 -1.3412
 6396TIP3    H219153   2.385   5.054   4.686 -1.3654 -2.6816  0.9722
 6397TIP3   OH219154   3.491   6.481   1.340 -0.0603 -0.4149  0.2523
 6397TIP3    H119155   3.457   6.491   1.251  0.8903  0.8605 -0.0001
 6397TIP3    H219156   3.417   6.502   1.397 -0.2411  0.4298 -0.2705
 6398TIP3   OH219157   0.435   6.407   1.805 -0.2022 -0.2461 -0.9770
 6398TIP3    H119158   0.434   6.453   1.721  0.3430 -0.4447 -1.0984
 6398TIP3    H219159   0.352   6.359   1.808 -1.9571  2.6152  0.2243
 6399TIP3   OH219160   1.746   0.670   2.400  0.5532 -0.2441 -0.2525
 6399TIP3    H119161   1.741   0.607   2.472  0.4346  0.4759  0.3850
 6399TIP3    H219162   1.665   0.720   2.408  1.6526  1.4765  0.6688
 6400TIP3   OH219163   6.287   2.954   3.700  0.2698 -0.1901 -0.0306
 6400TIP3    H119164   6.288   2.980   3.792  1.2474 -0.4241  0.0375
 6400TIP3    H219165   6.291   3.036   3.651  1.1083 -0.1089  0.1592
 6401TIP3   OH219166   3.860   3.789   0.524  0.6087 -0.1794  0.4609
 6401TIP3    H119167   3.938   3.745   0.558 -0.2857 -1.0173  1.5060
 6401TIP3    H219168   3.877   3.882   0.539  1.3273 -0.3628  0.8533
 6402TIP3   OH219169   1.272   3.895   0.573 -0.1492 -0.1455 -0.3912
 6402TIP3    H119170   1.252   3.833   0.644  0.2397 -0.6348 -0.7029
 6402TIP3    H219171   1.363   3.876   0.550 -0.1171  0.3537 -0.6846
 6403TIP3   OH219172   1.411   5.811   2.196 -0.0480 -0.2388 -0.7397
 6403TIP3    H119173   1.440   5.769   2.276 -0.9088  0.0242 -0.2757
 6403TIP3    H219174   1.442   5.901   2.202 -0.2563 -0.1740 -0.6203
 6404TIP3   OH219175   1.081   3.966   2.560  0.0718 -0.1997 -0.5588
 6404TIP3    H119176   1.063   3.872   2.567  2.1368 -0.7243 -1.5086
 6404TIP3    H219177   1.004   4.002   2.516  0.1547 -1.8306 -2.1385
 6405TIP3   OH219178   2.317   4.856   3.951 -0.2365  0.9267 -0.2949
 6405TIP3    H119179   2.357   4.770   3.960 -1.0706  0.5319 -0.2999
 6405TIP3    H219180   2.266   4.868   4.031  0.2876  1.6418 -0.0559
 6406TIP3   OH219181   1.393   3.278   2.510 -0.3147 -0.0855 -0.1440
 6406TIP3    H119182   1.445   3.247   2.435 -0.2712  0.5413 -0.3815
 6406TIP3    H219183   1.365   3.366   2.485 -1.2590 -0.3044  0.1063
 6407TIP3   OH219184   6.082   5.731   1.867 -0.3059 -0.9488 -0.0337
 6407TIP3    H119185   6.107   5.744   1.958 -0.2825 -1.2220 -0.0022
 6407TIP3    H219186   6.142   5.787   1.818  0.2735 -1.4823  0.0535
 6408TIP3   OH219187   1.716   5.633   4.363 -0.0037  0.6347 -0.6033
 6408TIP3    H119188   1.791   5.675   4.322  0.4334  0.4548 -0.0176
 6408TIP3    H219189   1.660   5.606   4.291  0.0570  1.5692 -1.0160
 6409TIP3   OH219190   6.199   6.370   4.857  0.1607 -0.1713 -0.0116
 6409TIP3    H119191   6.188   6.408   4.770 -0.3946 -0.5350 -0.1027
 6409TIP3    H219192   6.265   6.426   4.899 -1.0347  1.2661  0.0595
 6410TIP3   OH219193   6.299   5.187   5.810  0.0901  0.3210 -0.2452
 6410TIP3    H119194   6.384   5.230   5.814  0.5277 -0.4540 -0.7649
 6410TIP3    H219195   6.258   5.221   5.730  0.0695  0.4220 -0.1913
 6411TIP3   OH219196   5.919   1.611   3.066  0.0932 -0.3174 -0.2650
 6411TIP3    H119197   6.003   1.646   3.037  1.2360 -1.2323  1.7403
 6411TIP3    H219198   5.900   1.540   3.004  0.2045  0.6213 -1.4005
 6412TIP3   OH219199   5.679   5.206   5.502  0.0194  0.1036 -0.0304
 6412TIP3    H119200   5.739   5.278   5.482 -0.1287 -0.2286 -1.8910
 6412TIP3    H219201   5.592   5.247   5.501 -0.0922 -0.1091 -1.3955
 6413TIP3   OH219202   6.123   0.219   4.063  0.0064 -0.2539  0.4220
 6413TIP3    H119203   6.075   0.154   4.114  0.5281 -0.3258  0.8251
 6413TIP3    H219204   6.121   0.299   4.117  0.2026 -0.2143  0.3726
 6414TIP3   OH219205   4.373   1.418   1.568  0.8451  0.7081 -0.5768
 6414TIP3    H119206   4.283   1.397   1.591  0.7766  0.9854 -0.5954
 6414TIP3    H219207   4.426   1.372   1.633  0.6531  1.5832  0.2040
 6415TIP3   OH219208   1.179   1.327   4.949 -0.1661  0.1928 -0.7555
 6415TIP3    H119209   1.138   1.265   5.009  1.6389 -0.7686 -0.4632
 6415TIP3    H219210   1.172   1.285   4.863 -0.0273  0.1594 -0.7498
 6416TIP3   OH219211   2.423   0.384   2.250  0.0779 -0.3125  0.3958
 6416TIP3    H119212   2.384   0.469   2.271  1.8655  0.6969 -0.1562
 6416TIP3    H219213   2.354   0.336   2.205 -0.6842  1.2169 -0.1201
 6417TIP3   OH219214   2.067   1.464   0.042  0.3670  0.1020 -0.1862
 6417TIP3    H119215   2.123   1.508   0.105 -0.1507  0.9491 -0.2938
 6417TIP3    H219216   2.125   1.439  -0.030  0.6453  0.7760 -0.1991
 6418TIP3   OH219217   1.773   3.227   0.394  0.4103  0.1497  0.3532
 6418TIP3    H119218   1.855   3.225   0.443 -0.8164 -0.7037  2.4915
 6418TIP3    H219219   1.766   3.140   0.355  1.9015  1.1504 -2.4051
 6419TIP3   OH219220   2.382   1.906   2.191  0.3640  0.1178 -0.5940
 6419TIP3    H119221   2.423   1.854   2.259 -0.8113 -0.4749 -0.3180
 6419TIP3    H219222   2.314   1.955   2.236  0.1650  0.4051 -1.1954
 6420TIP3   OH219223   5.234   4.327   3.183 -0.4031 -0.3072  0.0325
 6420TIP3    H119224   5.197   4.415   3.184 -0.4670 -0.3323  0.6475
 6420TIP3    H219225   5.302   4.329   3.250  0.4836 -0.3600 -0.8466
 6421TIP3   OH219226   4.078   5.803   0.646  0.1740  0.0275  0.2480
 6421TIP3    H119227   4.117   5.771   0.727  0.6876  0.3845  0.1429
 6421TIP3    H219228   4.133   5.768   0.577 -1.4669 -2.0872 -0.1097
 6422TIP3   OH219229   5.267   4.075   0.304  0.7462  0.8662 -0.2866
 6422TIP3    H119230   5.355   4.070   0.267  0.5106  0.3608 -0.7947
 6422TIP3    H219231   5.216   4.125   0.241 -0.1101 -1.5218 -1.6313
 6423TIP3   OH219232   6.624   1.656   5.482  0.0289  0.0568 -0.4767
 6423TIP3    H119233   6.598   1.678   5.571  0.7046 -0.3850 -0.1624
 6423TIP3    H219234   6.674   1.575   5.491  1.5296  0.8662 -1.0436
 6424TIP3   OH219235   1.262   4.209   1.215  0.2932 -0.0342 -0.1956
 6424TIP3    H119236   1.193   4.275   1.223  0.9525  0.5507  0.7813
 6424TIP3    H219237   1.306   4.209   1.300  0.4656 -1.5628 -0.2595
 6425TIP3   OH219238   0.120   0.891   2.112 -0.0795  0.0179 -0.0109
 6425TIP3    H119239   0.102   0.984   2.127  2.3173  0.7309 -1.0310
 6425TIP3    H219240   0.056   0.864   2.046 -0.4271  1.1018 -0.1402
 6426TIP3   OH219241   2.065   3.721   2.579 -0.8603  0.0908  0.2349
 6426TIP3    H119242   2.052   3.816   2.568 -0.8090  0.1924  1.0033
 6426TIP3    H219243   2.053   3.706   2.673 -0.9313 -0.6781  0.1061
 6427TIP3   OH219244   1.102   2.818   3.051  0.4904 -0.5143 -0.3643
 6427TIP3    H119245   1.149   2.820   2.968  0.2819 -0.0194 -0.4735
 6427TIP3    H219246   1.132   2.896   3.098  0.5867 -0.7764  0.0155
 6428TIP3   OH219247   2.339   5.596   5.808  0.2882  0.0041 -0.1172
 6428TIP3    H119248   2.341   5.652   5.885  0.9819 -1.3969  0.9295
 6428TIP3    H219249   2.313   5.654   5.736  0.2887  1.4817  1.0400
 6429TIP3   OH219250   6.146   1.943   4.074 -0.1403 -0.1635 -0.4227
 6429TIP3    H119251   6.147   1.886   4.151  3.6819  1.4902  0.9898
 6429TIP3    H219252   6.074   2.004   4.090  0.0956 -0.3252  1.4986
 6430TIP3   OH219253   5.836   2.281   5.465  0.5778  0.5669 -0.0754
 6430TIP3    H119254   5.840   2.373   5.489  0.0619  0.5415  0.1272
 6430TIP3    H219255   5.818   2.235   5.547 -3.3145  0.6511 -0.7041
 6431TIP3   OH219256   3.645   5.099   0.444  0.2183 -0.9287 -0.3216
 6431TIP3    H119257   3.651   5.122   0.537  2.0112  0.9484 -0.8328
 6431TIP3    H219258   3.555   5.120   0.420 -0.3750 -1.7568  1.0231
 6432TIP3   OH219259   3.518   2.852   0.739 -0.8116  0.3854 -0.6427
 6432TIP3    H119260   3.586   2.877   0.802 -0.6401 -0.0717 -0.6487
 6432TIP3    H219261   3.557   2.871   0.653 -0.2211 -0.9937 -0.7045
 6433TIP3   OH219262   6.908   4.885   4.249 -0.3215  0.6989  0.0028
 6433TIP3    H119263   6.882   4.794   4.258  1.4834  0.0943 -0.4328
 6433TIP3    H219264   6.854   4.919   4.178 -0.8256 -0.1109 -0.0102
 6434TIP3   OH219265   4.029   3.593   0.227 -0.2945  0.0364  0.1256
 6434TIP3    H119266   4.104   3.629   0.275  0.2111 -0.2507 -0.4477
 6434TIP3    H219267   4.067   3.530   0.167 -1.0929 -0.7857  0.4717
 6435TIP3   OH219268   0.952   3.060   1.969  0.3218  0.6072 -0.4778
 6435TIP3    H119269   1.004   3.138   1.949  0.8547  0.2105 -0.6580
 6435TIP3    H219270   0.984   3.031   2.054 -0.7901  1.3358  0.2052
 6436TIP3   OH219271   2.201   2.618   1.612  0.3694 -0.2428 -0.3721
 6436TIP3    H119272   2.285   2.645   1.574  0.0210  0.5623 -0.5891
 6436TIP3    H219273   2.202   2.654   1.701 -0.2810  0.8885 -0.8096
 6437TIP3   OH219274   0.071   1.274   0.082 -0.1906  0.3047  0.2609
 6437TIP3    H119275   0.002   1.244   0.142 -1.3794  1.8079 -0.3074
 6437TIP3    H219276   0.032   1.268  -0.004  1.0089 -0.4283 -0.2642
 6438TIP3   OH219277   5.005   2.470   2.460 -0.1220  0.1145 -0.4388
 6438TIP3    H119278   5.064   2.472   2.535 -0.6477  0.9098 -0.0239
 6438TIP3    H219279   5.054   2.424   2.392  0.9564  0.7027 -0.0930
 6439TIP3   OH219280   0.796   3.431   5.421 -0.8488  0.1911 -0.9612
 6439TIP3    H119281   0.889   3.410   5.423 -0.8973 -0.4201 -3.1142
 6439TIP3    H219282   0.755   3.362   5.474 -0.1243  0.3677 -0.1438
 6440TIP3   OH219283   0.140   2.195   5.343 -0.5610  0.8218  0.2988
 6440TIP3    H119284   0.079   2.129   5.376 -2.1579  1.4305 -1.2308
 6440TIP3    H219285   0.113   2.276   5.386 -0.3576  0.9653  0.1559
 6441TIP3   OH219286   3.131   0.289   3.923 -0.1027 -0.3703 -0.1007
 6441TIP3    H119287   3.085   0.371   3.941 -2.4861 -1.6820  0.2454
 6441TIP3    H219288   3.175   0.267   4.005  0.6750  0.6172 -0.2435
 6442TIP3   OH219289   3.372   3.973   4.311 -0.6411 -0.1184  0.1793
 6442TIP3    H119290   3.449   4.025   4.289 -0.6364 -0.3982 -0.4921
 6442TIP3    H219291   3.380   3.894   4.257 -2.8406  1.0809 -2.1267
 6443TIP3   OH219292   2.073   4.454   1.319  0.1985 -0.2833  0.2658
 6443TIP3    H119293   1.982   4.423   1.322  0.5995 -1.4454  1.3943
 6443TIP3    H219294   2.107   4.420   1.237  0.2325 -1.7466  0.8595
 6444TIP3   OH219295   1.673   0.574   1.437  0.2218  0.0683  0.5209
 6444TIP3    H119296   1.594   0.585   1.385  0.0997  0.2767  0.7489
 6444TIP3    H219297   1.701   0.664   1.458  0.9440  0.0240 -0.1990
 6445TIP3   OH219298   5.812   2.200   2.412  0.2610  0.1306 -0.7283
 6445TIP3    H119299   5.898   2.170   2.382  0.3639 -0.3298 -0.0084
 6445TIP3    H219300   5.824   2.293   2.431  0.3869  0.2505 -1.3804
 6446TIP3   OH219301   3.454   2.007   4.178  0.2681 -0.8524  0.8514
 6446TIP3    H119302   3.467   1.979   4.087 -0.6265 -3.2660  1.3765
 6446TIP3    H219303   3.399   1.938   4.216 -0.9108  1.0256  2.7492
 6447TIP3   OH219304   6.859   6.702   4.697  0.2255  0.8124  0.2950
 6447TIP3    H119305   6.882   6.675   4.786  0.0768 -0.3983 -0.0150
 6447TIP3    H219306   6.840   6.795   4.705  0.6828  0.8325  1.4383
 6448TIP3   OH219307   2.640   0.923   0.244 -0.1904  0.3423  0.0546
 6448TIP3    H119308   2.596   0.909   0.328  2.4439  0.5605  1.5674
 6448TIP3    H219309   2.633   1.018   0.229  1.2043  0.6464  1.1795
 6449TIP3   OH219310   2.769   4.299   3.646 -0.0908 -0.7880 -0.1350
 6449TIP3    H119311   2.790   4.369   3.708 -0.4479 -0.0717 -0.7976
 6449TIP3    H219312   2.828   4.228   3.668 -0.0076 -0.4317  0.8290
 6450TIP3   OH219313   1.902   4.402   4.692  0.1210 -0.1830 -0.5383
 6450TIP3    H119314   1.930   4.466   4.627  0.1392 -1.0269 -1.3722
 6450TIP3    H219315   1.815   4.374   4.664  0.6683 -1.5421 -0.9818
 6451TIP3   OH219316   0.825   4.086   3.835  0.2012  0.2297 -0.5637
 6451TIP3    H119317   0.882   4.086   3.758  2.4767 -0.7432  1.0164
 6451TIP3    H219318   0.851   4.165   3.883 -0.4929  0.2909 -0.2857
 6452TIP3   OH219319   6.224   0.431   5.748 -0.2667  0.0397 -0.3683
 6452TIP3    H119320   6.230   0.518   5.708  0.7653  0.7314  1.2007
 6452TIP3    H219321   6.282   0.435   5.824  1.1941 -2.5959 -1.2077
 6453TIP3   OH219322   4.765   1.357   1.626  0.6194  0.1588 -0.0618
 6453TIP3    H119323   4.729   1.410   1.698  0.6237  0.2036 -0.0928
 6453TIP3    H219324   4.860   1.371   1.631  0.5980  0.3731 -0.2433
 6454TIP3   OH219325   1.133   4.870   5.472  0.5663 -0.0266 -0.2960
 6454TIP3    H119326   1.108   4.895   5.383  0.7406 -0.2996 -0.4270
 6454TIP3    H219327   1.087   4.787   5.487  1.4008 -0.5498 -0.5521
 6455TIP3   OH219328   4.802   5.190   4.679  0.3018 -0.4330 -0.0115
 6455TIP3    H119329   4.881   5.138   4.673  1.3012  0.9887  0.3936
 6455TIP3    H219330   4.816   5.263   4.619 -0.6728 -0.1366  0.1002
 6456TIP3   OH219331   1.280   5.533   5.067 -0.1527 -0.0087 -0.5537
 6456TIP3    H119332   1.248   5.577   5.146 -0.8094  0.3546 -1.0201
 6456TIP3    H219333   1.275   5.599   4.999  1.7408  0.1274 -0.6321
 6457TIP3   OH219334   0.331   5.872   2.064 -0.0163 -0.0863 -0.1201
 6457TIP3    H119335   0.379   5.792   2.087 -1.5055 -0.6247  1.3389
 6457TIP3    H219336   0.250   5.841   2.024 -1.1450  0.6106  1.5299
 6458TIP3   OH219337   5.650   5.434   2.812 -0.2648  0.8904 -0.5274
 6458TIP3    H119338   5.630   5.516   2.857 -1.8078  0.4060 -0.2739
 6458TIP3    H219339   5.606   5.442   2.728 -0.8861  0.1004 -0.2807
 6459TIP3   OH219340   6.883   1.075   1.937 -0.0524 -0.4071  0.1310
 6459TIP3    H119341   6.966   1.035   1.911  0.0296 -1.0842  1.3591
 6459TIP3    H219342   6.878   1.060   2.031 -0.9691  0.7639  0.2880
 6460TIP3   OH219343   5.958   5.958   4.332  0.5155 -1.0630 -0.2921
 6460TIP3    H119344   5.899   5.892   4.367  0.7461 -1.1638 -0.0822
 6460TIP3    H219345   6.046   5.927   4.355  0.6137 -0.5344  0.0835
 6461TIP3   OH219346   6.733   3.719   3.463 -0.1192 -0.5420  0.1238
 6461TIP3    H119347   6.759   3.778   3.392  1.5615 -1.3751 -0.0009
 6461TIP3    H219348   6.639   3.704   3.448  0.1959 -0.7717 -2.0179
 6462TIP3   OH219349   5.900   5.130   2.198 -0.6844  0.5053  0.0715
 6462TIP3    H119350   5.911   5.142   2.104 -2.2693 -0.1240 -0.2334
 6462TIP3    H219351   5.885   5.218   2.232 -1.1968  0.6260 -0.4476
 6463TIP3   OH219352   0.109   2.668   0.222  0.0629  0.0681 -0.1487
 6463TIP3    H119353   0.175   2.717   0.173 -0.3757 -0.3345 -1.1773
 6463TIP3    H219354   0.159   2.605   0.274  0.5309  0.3173 -0.2931
 6464TIP3   OH219355   6.861   2.797   0.084  0.3434 -0.6801  0.2320
 6464TIP3    H119356   6.854   2.780   0.178 -0.0488 -1.0897  0.1329
 6464TIP3    H219357   6.937   2.745   0.056 -2.0363 -4.2056 -0.4569
 6465TIP3   OH219358   1.328   1.187   3.113  0.5135  0.0712 -0.0464
 6465TIP3    H119359   1.417   1.216   3.091  0.1249 -0.4472 -2.7786
 6465TIP3    H219360   1.312   1.114   3.053 -1.4205 -0.4773  1.0626
 6466TIP3   OH219361   0.459   3.965   0.843 -0.0484 -0.5053 -0.2873
 6466TIP3    H119362   0.385   3.942   0.787  0.3669  0.8722 -1.4731
 6466TIP3    H219363   0.450   4.059   0.857  1.5576 -0.2640 -0.6106
 6467TIP3   OH219364   2.557   2.955   2.478  0.0686  0.0574  0.0764
 6467TIP3    H119365   2.517   3.028   2.430 -0.1449  0.2720  0.5651
 6467TIP3    H219366   2.648   2.953   2.448 -0.2808 -0.3727 -0.9704
 6468TIP3   OH219367   0.670   0.855   5.643  0.0856  0.2767 -0.2720
 6468TIP3    H119368   0.762   0.871   5.620  0.6235 -1.9468  0.1464
 6468TIP3    H219369   0.667   0.763   5.667 -2.1855  0.4271  0.2053
 6469TIP3   OH219370   5.259   0.207   0.399 -0.4456  0.2191  0.0730
 6469TIP3    H119371   5.307   0.139   0.447 -0.3671  0.1113 -0.1515
 6469TIP3    H219372   5.256   0.281   0.458  0.1902  0.2977  0.0106
 6470TIP3   OH219373   3.815   4.162   1.507 -0.5545 -0.2565  0.3992
 6470TIP3    H119374   3.838   4.144   1.598  1.4796 -1.1849 -0.2440
 6470TIP3    H219375   3.895   4.195   1.467 -1.7983  1.6360 -0.7319
 6471TIP3   OH219376   5.510   5.185   3.727 -0.5419 -0.5587  0.7332
 6471TIP3    H119377   5.442   5.251   3.713 -0.4024 -0.7149 -0.8501
 6471TIP3    H219378   5.466   5.101   3.715 -0.4060 -0.7169  1.3026
 6472TIP3   OH219379   4.697   0.817   1.887  0.2272 -0.2090 -0.0470
 6472TIP3    H119380   4.609   0.826   1.923  0.1533 -2.0256  0.3178
 6472TIP3    H219381   4.703   0.884   1.819 -1.3977 -0.0088 -0.0209
 6473TIP3   OH219382   1.418   1.097   5.116 -0.0665 -0.3694 -0.0895
 6473TIP3    H119383   1.355   1.030   5.085 -0.7473  0.1166  0.2186
 6473TIP3    H219384   1.484   1.100   5.047 -0.6582 -0.5245 -0.6832
 6474TIP3   OH219385   6.366   5.890   5.720 -0.1083  0.1238 -0.3050
 6474TIP3    H119386   6.343   5.915   5.809 -1.7513 -2.1690 -0.0043
 6474TIP3    H219387   6.449   5.843   5.728 -1.4235 -2.2395  0.4814
 6475TIP3   OH219388   5.580   4.476   0.704 -0.1551 -0.3640  0.6088
 6475TIP3    H119389   5.549   4.481   0.794 -0.1058 -0.2174  0.6176
 6475TIP3    H219390   5.674   4.462   0.711 -0.4925 -3.2721  0.6218
 6476TIP3   OH219391   7.063   6.042   3.350 -0.2796 -0.0837  0.1236
 6476TIP3    H119392   7.076   6.135   3.330 -1.7044  0.3081  0.9158
 6476TIP3    H219393   7.147   6.001   3.328  0.1287  1.2527 -0.9755
 6477TIP3   OH219394   4.523   4.151   2.070 -0.0977  0.0801  0.2152
 6477TIP3    H119395   4.534   4.211   2.144 -2.5428 -0.8913  1.5099
 6477TIP3    H219396   4.464   4.197   2.011  0.7222  0.2820 -0.4541
 6478TIP3   OH219397   7.071   3.466   3.533  0.2790 -0.4197  0.5422
 6478TIP3    H119398   7.162   3.493   3.524  0.1186 -0.0770 -0.0950
 6478TIP3    H219399   7.076   3.375   3.563  0.8177 -0.0466  1.6478
 6479TIP3   OH219400   1.280   3.384   1.717  0.4927 -0.1566 -0.1947
 6479TIP3    H119401   1.344   3.333   1.667  1.7118  0.6524  0.4754
 6479TIP3    H219402   1.260   3.460   1.661  1.4620  0.4806  0.2956
 6480TIP3   OH219403   6.199   5.753   4.690 -0.0435 -0.2445 -0.2644
 6480TIP3    H119404   6.178   5.714   4.605 -0.6051  0.0621 -0.2673
 6480TIP3    H219405   6.225   5.678   4.744 -0.2502 -0.5136 -0.5312
 6481TIP3   OH219406   2.420   1.695   4.143 -0.7769 -0.3629  0.7321
 6481TIP3    H119407   2.446   1.625   4.204 -1.0180 -0.4796  0.7027
 6481TIP3    H219408   2.489   1.696   4.077 -1.6633 -1.7803 -0.2629
 6482TIP3   OH219409   0.927   4.587   3.836 -0.3134 -0.1996 -0.5518
 6482TIP3    H119410   0.994   4.635   3.884 -0.7896  0.4833 -0.5515
 6482TIP3    H219411   0.971   4.557   3.757 -0.2161  0.9583 -0.9515
 6483TIP3   OH219412   2.545   4.434   3.752 -0.4286  0.1187 -0.0984
 6483TIP3    H119413   2.597   4.424   3.832 -0.2466  0.7510 -0.1382
 6483TIP3    H219414   2.566   4.356   3.700 -0.0904  0.0027  0.2110
 6484TIP3   OH219415   3.936   3.998   3.111 -0.1929 -0.4092 -1.0651
 6484TIP3    H119416   3.860   3.940   3.103 -0.7953  0.3678 -1.0372
 6484TIP3    H219417   3.908   4.080   3.072 -0.4560  0.9001  1.6058
 6485TIP3   OH219418   1.367   3.662   5.265  0.2496 -0.0188  0.1523
 6485TIP3    H119419   1.291   3.691   5.316 -0.9772 -0.3970 -1.3603
 6485TIP3    H219420   1.363   3.567   5.267  1.6772 -0.0832  1.4168
 6486TIP3   OH219421   3.164   1.310   5.545  0.0924 -0.1669  0.5654
 6486TIP3    H119422   3.097   1.248   5.517 -1.8528  2.0377  0.0382
 6486TIP3    H219423   3.228   1.309   5.474 -1.1933  0.1939 -0.6477
 6487TIP3   OH219424  -0.023   4.087   3.472 -0.2255  0.1512 -0.3976
 6487TIP3    H119425  -0.029   4.088   3.376  0.3954 -1.7453 -0.5021
 6487TIP3    H219426   0.071   4.080   3.490 -0.4309 -1.3946  0.2532
 6488TIP3   OH219427   5.441   2.551   2.973  0.7065 -0.0586  0.7782
 6488TIP3    H119428   5.367   2.610   2.961  1.5651  1.1727  1.2966
 6488TIP3    H219429   5.517   2.603   2.947  1.3431 -1.5752 -0.6118
 6489TIP3   OH219430   3.148   0.662   5.363  0.1653 -0.2408  0.4375
 6489TIP3    H119431   3.153   0.567   5.350  1.6800 -0.1777  0.4085
 6489TIP3    H219432   3.232   0.695   5.331 -0.1581  1.0665  0.8759
 6490TIP3   OH219433   3.504   1.777   3.873 -0.8004 -0.3595  0.2943
 6490TIP3    H119434   3.497   1.869   3.898  1.3437 -0.6374  2.3376
 6490TIP3    H219435   3.563   1.777   3.797  0.3134 -0.0751  1.1238
 6491TIP3   OH219436   3.894   2.839   5.645  0.1901  0.2192 -0.1376
 6491TIP3    H119437   3.990   2.835   5.646  0.2407  1.3065 -0.1534
 6491TIP3    H219438   3.871   2.840   5.552  0.0306 -2.1304 -0.2048
 6492TIP3   OH219439   2.724   0.725   3.483  0.2066  0.2073  0.0223
 6492TIP3    H119440   2.723   0.705   3.389  0.8162  0.7643 -0.1117
 6492TIP3    H219441   2.671   0.804   3.491  0.6278  0.4898  0.0608
 6493TIP3   OH219442   6.127   0.252   3.185  0.2443 -0.0698  0.2650
 6493TIP3    H119443   6.087   0.281   3.103 -0.9186  0.8447  1.1108
 6493TIP3    H219444   6.126   0.157   3.181 -2.3261 -0.1193  0.3303
 6494TIP3   OH219445   1.201   4.138   4.103  0.1341 -0.3605  0.4520
 6494TIP3    H119446   1.168   4.071   4.044  0.6981 -1.2628  1.1378
 6494TIP3    H219447   1.292   4.151   4.076  0.5006 -1.0301  1.3241
 6495TIP3   OH219448   4.238   0.542   3.087  0.1804 -0.4698  0.5172
 6495TIP3    H119449   4.229   0.495   3.169 -2.3129  0.5562  0.9235
 6495TIP3    H219450   4.308   0.605   3.103  0.1594 -0.7085  1.6383
 6496TIP3   OH219451   0.216   3.458   2.895  0.5220  0.7725 -0.1085
 6496TIP3    H119452   0.230   3.485   2.804 -2.9027  1.4767 -0.5641
 6496TIP3    H219453   0.172   3.374   2.888  1.5610  0.1105  1.0078
 6497TIP3   OH219454   3.713   5.115   4.645  0.1094 -0.0521  0.4462
 6497TIP3    H119455   3.659   5.066   4.583  2.0248  2.2137 -3.3745
 6497TIP3    H219456   3.654   5.182   4.681 -0.7235 -0.5211 -0.0224
 6498TIP3   OH219457   1.704   3.062   4.375  0.1948  0.0665 -0.2150
 6498TIP3    H119458   1.693   2.968   4.391  1.1304 -0.0341 -0.1269
 6498TIP3    H219459   1.703   3.070   4.279  2.1494 -0.3215 -0.3140
 6499TIP3   OH219460   6.792   5.984   5.820  0.0819 -0.3688 -0.1604
 6499TIP3    H119461   6.879   6.017   5.799  1.1466 -1.9234  1.5496
 6499TIP3    H219462   6.777   5.914   5.756 -0.2528  0.3436 -0.8900
 6500TIP3   OH219463   1.357   0.621   2.285 -0.3501  0.0815 -0.0973
 6500TIP3    H119464   1.368   0.617   2.190  1.6766 -3.7102  0.1030
 6500TIP3    H219465   1.273   0.576   2.300 -1.1468  1.5200 -0.0665
 6501TIP3   OH219466   4.603   0.182   2.365 -0.1917 -0.0604 -0.6042
 6501TIP3    H119467   4.699   0.185   2.358 -0.0804 -2.6524 -1.5933
 6501TIP3    H219468   4.572   0.208   2.278 -0.2286 -1.5654 -1.0720
 6502TIP3   OH219469   6.018   1.601   3.338 -0.0521 -0.2455  0.2146
 6502TIP3    H119470   6.093   1.605   3.278  1.8981  3.9371  2.5019
 6502TIP3    H219471   5.957   1.666   3.304  0.3067  0.9256  1.7377
 6503TIP3   OH219472   6.122   3.041   0.171  0.6260  0.1480 -0.0316
 6503TIP3    H119473   6.200   3.018   0.121  0.4624  3.4604 -2.1635
 6503TIP3    H219474   6.153   3.101   0.239  0.0423  1.5992 -0.9796
 6504TIP3   OH219475   3.352   4.213   0.283  0.5697 -0.0376 -0.2824
 6504TIP3    H119476   3.392   4.152   0.344  0.2959  0.8053  0.7606
 6504TIP3    H219477   3.403   4.293   0.291 -0.4157  0.5838  0.0055
 6505TIP3   OH219478   2.206   2.088   5.722 -0.2292  0.0377  0.6876
 6505TIP3    H119479   2.275   2.045   5.672 -0.7591 -0.6093  0.5002
 6505TIP3    H219480   2.180   2.023   5.787 -0.0796  0.5919  1.3149
 6506TIP3   OH219481   0.978   0.994   2.044  0.4321 -0.1557  0.1809
 6506TIP3    H119482   0.901   1.051   2.048  0.6920  0.1519  1.0386
 6506TIP3    H219483   1.047   1.042   2.090  1.1209 -0.4637 -0.5124
 6507TIP3   OH219484   6.199   5.914   2.947 -0.1206 -0.5231  0.3735
 6507TIP3    H119485   6.187   5.946   2.857 -0.9023 -0.5226  0.4733
 6507TIP3    H219486   6.275   5.856   2.942  0.3640  0.1267 -0.1197
 6508TIP3   OH219487   2.652   0.219   1.036 -0.3406 -0.0710 -0.6427
 6508TIP3    H119488   2.706   0.144   1.012 -2.7378 -1.8664 -0.7977
 6508TIP3    H219489   2.634   0.263   0.953  0.0569 -0.0235 -0.7076
 6509TIP3   OH219490   6.271   3.395   1.798  0.2961 -0.5099 -0.0951
 6509TIP3    H119491   6.314   3.420   1.716 -0.8742  1.0704 -0.2845
 6509TIP3    H219492   6.299   3.462   1.861 -0.0703 -0.7911  0.3748
 6510TIP3   OH219493   6.148   5.430   0.379  0.0129  0.4031 -0.5721
 6510TIP3    H119494   6.170   5.509   0.428  1.5158 -0.0631 -0.4506
 6510TIP3    H219495   6.218   5.369   0.400 -1.3843 -1.1616 -0.2670
 6511TIP3   OH219496   3.612   4.315   5.807  0.2670  0.5134 -0.1947
 6511TIP3    H119497   3.588   4.363   5.728 -1.0599 -1.9188 -1.3841
 6511TIP3    H219498   3.699   4.280   5.789  0.8611  1.6604  0.3234
 6512TIP3   OH219499   1.460   3.075   2.716  0.0343 -0.3551  0.1368
 6512TIP3    H119500   1.372   3.064   2.754 -0.3424  0.7979 -0.3822
 6512TIP3    H219501   1.444   3.109   2.628  0.9626 -1.5287 -0.5189
 6513TIP3   OH219502   3.409   6.014   5.656  0.0359  0.2390  0.0150
 6513TIP3    H119503   3.410   5.922   5.684  2.8125  0.2490  0.1966
 6513TIP3    H219504   3.433   6.063   5.734 -0.0290  0.9870 -0.4286
 6514TIP3   OH219505   1.266   0.887   5.012 -0.2752  0.2390 -0.4567
 6514TIP3    H119506   1.317   0.807   4.999  0.5290  0.4945  0.8225
 6514TIP3    H219507   1.219   0.900   4.930  0.8233 -0.6710 -1.2695
 6515TIP3   OH219508   2.183   1.697   2.436 -0.7119 -0.2207 -0.3410
 6515TIP3    H119509   2.272   1.729   2.420 -0.1523 -1.2564  0.5307
 6515TIP3    H219510   2.160   1.731   2.522 -1.2738  0.2730 -0.6845
 6516TIP3   OH219511   4.012   5.178   5.279  0.0373 -0.0793  0.1154
 6516TIP3    H119512   3.928   5.209   5.313 -0.1922  0.0800 -0.5769
 6516TIP3    H219513   3.988   5.116   5.210  0.4927 -0.3406  0.1853
 6517TIP3   OH219514   1.306   0.091   2.296  0.0656  0.1908  0.2775
 6517TIP3    H119515   1.250   0.090   2.217  0.3849  0.5421  0.0443
 6517TIP3    H219516   1.380   0.035   2.274  0.4262  0.7142  0.1208
 6518TIP3   OH219517   4.297   5.715   2.188 -0.4190 -0.0253  0.3339
 6518TIP3    H119518   4.282   5.621   2.189 -1.0084  0.0519 -0.1590
 6518TIP3    H219519   4.247   5.746   2.112  0.9906  0.4915 -0.4069
 6519TIP3   OH219520   3.033   1.019   0.748 -0.4103 -0.0495 -0.3304
 6519TIP3    H119521   3.024   0.954   0.817 -0.7689  0.1480 -0.1926
 6519TIP3    H219522   2.985   1.095   0.780  1.8337  1.0974  0.5112
 6520TIP3   OH219523   3.684   4.629   0.442  0.1267 -0.1828 -0.1506
 6520TIP3    H119524   3.646   4.670   0.520  0.1484 -0.4999  0.0279
 6520TIP3    H219525   3.642   4.673   0.369  2.3635  2.3607 -0.0585
 6521TIP3   OH219526   2.245   3.478   2.430 -0.4325 -0.2267  0.0517
 6521TIP3    H119527   2.155   3.495   2.404 -0.6269 -1.3821 -0.0565
 6521TIP3    H219528   2.297   3.501   2.352 -0.3909  2.4682  0.7808
 6522TIP3   OH219529   5.826   3.714   3.390 -0.4912 -0.6588 -0.2193
 6522TIP3    H119530   5.796   3.631   3.426 -0.2804 -1.3104 -1.4942
 6522TIP3    H219531   5.777   3.725   3.309 -0.3355  0.3466 -0.1937
 6523TIP3   OH219532   2.406   3.818   5.024 -0.2224  0.5659 -0.3393
 6523TIP3    H119533   2.429   3.778   5.107 -0.1947  2.4256  0.5911
 6523TIP3    H219534   2.310   3.823   5.025 -0.3276 -0.7642 -1.1133
 6524TIP3   OH219535   0.159   5.647   2.019  0.3065 -0.2453  0.5677
 6524TIP3    H119536   0.135   5.654   2.111 -1.6438 -0.9737  0.1585
 6524TIP3    H219537   0.241   5.597   2.019  2.0318  2.3301  2.0326
 6525TIP3   OH219538   6.674   1.297   3.235 -0.1247 -0.0973 -0.1781
 6525TIP3    H119539   6.684   1.233   3.164  0.5340 -0.2434  0.0319
 6525TIP3    H219540   6.761   1.338   3.242  0.0493 -0.6215  1.0324
 6526TIP3   OH219541   2.936   2.832   3.752  0.3171  0.1537 -0.0650
 6526TIP3    H119542   2.871   2.849   3.820  1.0496  0.4337  0.5631
 6526TIP3    H219543   2.956   2.918   3.716 -0.0255  0.0141 -0.6153
 6527TIP3   OH219544   3.560   4.699   3.023  0.1634  0.1282 -0.5702
 6527TIP3    H119545   3.540   4.618   3.071 -0.0101  0.1482 -0.6052
 6527TIP3    H219546   3.489   4.759   3.048  0.8351  0.6064  0.2325
 6528TIP3   OH219547   1.707   2.568   4.318 -0.2718 -0.3792 -0.1123
 6528TIP3    H119548   1.639   2.582   4.252  0.4557 -2.0778 -1.2729
 6528TIP3    H219549   1.722   2.474   4.317  1.1337 -0.1900  1.1153
 6529TIP3   OH219550   0.173   0.697   2.598 -0.1838  0.0384  0.4221
 6529TIP3    H119551   0.123   0.736   2.669  0.1932 -0.6971  1.1042
 6529TIP3    H219552   0.111   0.638   2.554 -0.6564  1.1099 -0.4020
 6530TIP3   OH219553   2.557   5.019   2.999  0.2921  0.5728  0.0198
 6530TIP3    H119554   2.594   4.969   2.926 -0.0524  0.4830 -0.0959
 6530TIP3    H219555   2.591   4.976   3.077 -1.1538 -0.7821 -0.0381
 6531TIP3   OH219556   6.402   4.772   0.704  0.2064 -0.7231  0.3236
 6531TIP3    H119557   6.371   4.790   0.616 -1.1971 -0.0531  0.9228
 6531TIP3    H219558   6.378   4.681   0.720 -0.1292 -0.6483  0.2466
 6532TIP3   OH219559   0.735   2.871   0.217 -0.0531  0.2279 -0.1119
 6532TIP3    H119560   0.709   2.949   0.168  0.3039  0.1046 -0.4976
 6532TIP3    H219561   0.826   2.855   0.190 -0.1664 -0.3915 -0.1291
 6533TIP3   OH219562   2.115   5.583   4.245  0.0641  0.3138 -0.0832
 6533TIP3    H119563   2.097   5.522   4.317 -0.7610  2.5795  1.7683
 6533TIP3    H219564   2.069   5.663   4.270  3.1949  2.6093 -1.0276
 6534TIP3   OH219565   1.289   1.964   3.734  0.5987 -0.1478 -0.2620
 6534TIP3    H119566   1.195   1.949   3.744  0.3674  1.2531 -0.1272
 6534TIP3    H219567   1.294   2.041   3.678  1.6787 -0.4368 -0.5682
 6535TIP3   OH219568   5.766   5.366   3.057  0.3049  0.3136  0.2060
 6535TIP3    H119569   5.707   5.353   2.983  0.9489 -0.4410 -0.1865
 6535TIP3    H219570   5.854   5.369   3.018  0.6549 -0.1212  0.9294
 6536TIP3   OH219571   3.276   6.526   1.536  0.1679  0.6481  0.2949
 6536TIP3    H119572   3.229   6.605   1.562 -0.4611  0.1087  0.8203
 6536TIP3    H219573   3.247   6.459   1.598  0.1715 -0.1695 -0.5649
 6537TIP3   OH219574   3.584   0.977   1.989 -0.0684 -0.0952 -0.1674
 6537TIP3    H119575   3.580   1.061   1.944 -1.5733 -0.3173 -0.5235
 6537TIP3    H219576   3.565   0.998   2.080 -4.0625 -0.3256 -0.7649
 6538TIP3   OH219577   1.730   0.776   3.150  0.1584  0.5767 -0.1906
 6538TIP3    H119578   1.664   0.844   3.160 -0.6118  0.2021 -2.2911
 6538TIP3    H219579   1.725   0.726   3.232 -0.2796  2.1313  0.7750
 6539TIP3   OH219580   2.880   5.511   2.691 -1.1581 -0.0625  0.3961
 6539TIP3    H119581   2.946   5.447   2.665 -1.8831 -0.8461  0.4342
 6539TIP3    H219582   2.800   5.459   2.702 -1.2212  0.4559  2.7517
 6540TIP3   OH219583   5.419   4.785   3.449  0.1551  0.0200 -0.3515
 6540TIP3    H119584   5.350   4.806   3.386 -0.5453 -0.3776  0.2605
 6540TIP3    H219585   5.391   4.702   3.489  0.8396  0.0020  0.1133
 6541TIP3   OH219586   2.015   2.227   4.404  0.1072  0.0920 -0.1751
 6541TIP3    H119587   2.018   2.255   4.496 -1.0815  0.7585 -0.3116
 6541TIP3    H219588   1.993   2.134   4.408  2.6594 -0.5830  0.2464
 6542TIP3   OH219589   1.400   3.196   5.415 -0.5053 -0.4267  0.6425
 6542TIP3    H119590   1.318   3.147   5.426 -0.7266 -0.8974 -2.3959
 6542TIP3    H219591   1.460   3.134   5.376  1.2503  0.0568  2.4213
 6543TIP3   OH219592   1.591   0.824   0.602  0.3915  0.3487 -0.3917
 6543TIP3    H119593   1.586   0.911   0.563 -0.0633  0.1946 -0.6848
 6543TIP3    H219594   1.500   0.802   0.622  0.2796 -0.8104 -1.9932
 6544TIP3   OH219595   2.101   3.492   5.205  0.6129 -0.0107 -0.2212
 6544TIP3    H119596   2.023   3.547   5.208 -0.3191 -1.3124 -0.0790
 6544TIP3    H219597   2.174   3.555   5.207 -0.4051  1.2131 -0.0667
 6545TIP3   OH219598   5.678   5.662   2.928  0.4853  0.5664  0.1695
 6545TIP3    H119599   5.733   5.659   3.006  0.0228 -1.3883  0.4799
 6545TIP3    H219600   5.637   5.749   2.931  1.3183  0.9465  1.5049
 6546TIP3   OH219601   7.157   6.476   4.377 -0.1005 -0.2161  0.3658
 6546TIP3    H119602   7.137   6.383   4.368  0.7265 -0.4435  0.7889
 6546TIP3    H219603   7.099   6.507   4.447 -1.6162 -0.0014 -0.9353
 6547TIP3   OH219604   1.048   4.393   5.660 -0.1079 -0.1738  0.0117
 6547TIP3    H119605   1.040   4.456   5.732 -0.7615 -0.6412  0.3555
 6547TIP3    H219606   1.001   4.432   5.588  0.6781  0.3683 -0.2235
 6548TIP3   OH219607   3.553   3.152   3.756  0.2597  0.1408 -0.2863
 6548TIP3    H119608   3.536   3.178   3.665 -0.2017 -2.5494 -1.0618
 6548TIP3    H219609   3.518   3.063   3.762  1.6058 -0.3045  2.1392
 6549TIP3   OH219610   6.006   1.547   5.604  0.4337 -0.4234 -0.7169
 6549TIP3    H119611   5.916   1.515   5.595 -0.5151  1.1929  1.7638
 6549TIP3    H219612   6.045   1.487   5.669 -1.2560  2.7279  3.7107
 6550TIP3   OH219613   5.920   3.144   0.854 -0.1856  0.2666 -0.3686
 6550TIP3    H119614   5.906   3.237   0.838  1.4027  0.4727 -0.7087
 6550TIP3    H219615   5.964   3.141   0.939  3.2528  0.1740 -2.0256
 6551TIP3   OH219616   2.452   3.701   1.654  0.3814 -0.1009 -0.1630
 6551TIP3    H119617   2.420   3.689   1.564 -3.4798 -0.7178  1.1293
 6551TIP3    H219618   2.408   3.780   1.685 -0.0686 -1.0765  1.8312
 6552TIP3   OH219619   5.824   0.326   4.255  0.6066 -0.1868 -0.6368
 6552TIP3    H119620   5.823   0.308   4.349 -0.5988 -2.1672 -0.9802
 6552TIP3    H219621   5.742   0.372   4.238  0.0118 -1.3446 -0.9621
 6553TIP3   OH219622   2.755   1.693   3.438  0.0016  0.4982 -0.1065
 6553TIP3    H119623   2.772   1.641   3.517 -0.8378 -1.5491 -1.1936
 6553TIP3    H219624   2.831   1.678   3.383  1.1318  2.8579  0.7021
 6554TIP3   OH219625   3.120   0.337   2.659  0.1867  0.1077 -0.0672
 6554TIP3    H119626   3.155   0.329   2.748  0.0305 -1.6453 -0.1298
 6554TIP3    H219627   3.048   0.275   2.656  0.1918  0.1409 -1.4291
 6555TIP3   OH219628   5.527   5.219   2.914  0.5190  0.6436  0.0668
 6555TIP3    H119629   5.536   5.292   2.853 -1.2373 -0.7982 -2.0314
 6555TIP3    H219630   5.469   5.158   2.871  1.0471 -1.5476  2.2292
 6556TIP3   OH219631   4.284   2.264   1.130 -0.0533 -0.1285 -0.1564
 6556TIP3    H119632   4.213   2.220   1.083 -0.7608 -1.4248  1.9934
 6556TIP3    H219633   4.243   2.294   1.212  1.4581  0.6958  0.3285
 6557TIP3   OH219634   1.587   4.787   1.105 -0.1320 -0.6267 -0.3175
 6557TIP3    H119635   1.667   4.837   1.088  0.1196 -0.8457  0.1912
 6557TIP3    H219636   1.603   4.703   1.062 -0.5424 -0.2901 -1.1470
 6558TIP3   OH219637   3.136   2.273   5.094  0.3668 -0.1165  0.3030
 6558TIP3    H119638   3.099   2.242   5.176  2.4963 -3.5528  0.1629
 6558TIP3    H219639   3.135   2.369   5.102 -1.9217 -0.2252  3.1112
 6559TIP3   OH219640   2.904   5.734   2.518 -0.2245 -0.1884  0.0459
 6559TIP3    H119641   2.900   5.671   2.590 -2.0188 -0.8772 -0.5877
 6559TIP3    H219642   2.973   5.796   2.543 -0.4709 -0.6899  2.1105
 6560TIP3   OH219643   4.761   4.288   1.238  0.2209  0.3166  0.2523
 6560TIP3    H119644   4.690   4.224   1.237  0.2085  0.3411 -0.2934
 6560TIP3    H219645   4.782   4.303   1.146  1.0488  0.1839  0.4093
 6561TIP3   OH219646   4.586   2.637   0.224  0.4090 -0.3274  0.2176
 6561TIP3    H119647   4.641   2.710   0.197  1.2507 -1.0146  0.0071
 6561TIP3    H219648   4.521   2.629   0.154  1.2406 -0.7090 -0.5431
 6562TIP3   OH219649   6.667   5.784   2.103  0.1639 -0.9347 -0.1979
 6562TIP3    H119650   6.715   5.847   2.049 -0.7344  0.0694  0.1397
 6562TIP3    H219651   6.713   5.702   2.089  2.3250  0.0663  0.5382
 6563TIP3   OH219652   0.844   6.642   3.410 -0.8557  0.2973  0.0370
 6563TIP3    H119653   0.883   6.706   3.351 -1.7258 -0.3490 -1.2932
 6563TIP3    H219654   0.749   6.655   3.400 -1.0333 -0.6601  0.3455
 6564TIP3   OH219655   6.956   3.633   5.025 -0.0163  0.5599  0.0042
 6564TIP3    H119656   7.013   3.689   5.078 -0.1680 -1.1817  2.1210
 6564TIP3    H219657   7.015   3.585   4.967  0.5094  0.0915  0.9190
 6565TIP3   OH219658   5.008   0.226   0.864 -0.2284  0.3270  0.1358
 6565TIP3    H119659   4.984   0.143   0.905  0.2971 -0.0070 -0.2056
 6565TIP3    H219660   5.093   0.208   0.822 -0.1793  0.9941 -0.0666
 6566TIP3   OH219661   1.509   4.172   2.981 -0.1832  0.6476  0.2615
 6566TIP3    H119662   1.552   4.113   3.043 -1.7449 -0.4576  0.3691
 6566TIP3    H219663   1.573   4.183   2.910  0.0770 -1.4733  0.0778
 6567TIP3   OH219664   7.158   3.996   0.404  0.4559 -0.4713 -0.4416
 6567TIP3    H119665   7.251   3.991   0.425  0.3207  1.1546  0.7332
 6567TIP3    H219666   7.146   4.085   0.369 -0.4794 -1.0068 -1.5593
 6568TIP3   OH219667   0.867   4.000   5.218 -0.7510 -0.2419  0.4018
 6568TIP3    H119668   0.943   4.004   5.276  0.1896  0.9144 -0.8236
 6568TIP3    H219669   0.841   4.092   5.207  0.8761 -0.0513 -3.1435
 6569TIP3   OH219670   0.123   0.994   0.535  0.0806  0.1906  0.3904
 6569TIP3    H119671   0.179   0.917   0.542  0.2470  0.2881  0.1445
 6569TIP3    H219672   0.128   1.035   0.622 -1.0475 -0.7737  0.9444
 6570TIP3   OH219673   1.353   6.391   4.159  0.4697 -0.0505  0.5512
 6570TIP3    H119674   1.319   6.480   4.167 -0.5409 -0.3845  0.1153
 6570TIP3    H219675   1.293   6.347   4.098 -0.6908 -1.8038  2.7903
 6571TIP3   OH219676   6.023   0.072   0.074 -0.2819  0.2255  0.4419
 6571TIP3    H119677   5.928   0.065   0.081 -0.3046  0.3536  0.2857
 6571TIP3    H219678   6.048   0.134   0.143 -0.5321  1.6776 -0.7224
 6572TIP3   OH219679   1.238   6.434   1.727 -0.2469 -0.2680  0.0481
 6572TIP3    H119680   1.184   6.364   1.764 -0.6038 -0.0186  0.0021
 6572TIP3    H219681   1.193   6.460   1.647  0.6403 -0.9621 -0.7043
 6573TIP3   OH219682   2.484   2.862   3.822  0.1633  0.4232 -0.7858
 6573TIP3    H119683   2.563   2.809   3.817 -0.1895 -0.0975 -0.8675
 6573TIP3    H219684   2.417   2.810   3.779 -1.1761 -0.9104  2.5924
 6574TIP3   OH219685   0.216   0.119   0.432  0.0523 -0.7242 -0.2752
 6574TIP3    H119686   0.283   0.067   0.388 -0.0486 -0.6588 -0.5072
 6574TIP3    H219687   0.236   0.109   0.525  0.0361 -1.1700 -0.3182
 6575TIP3   OH219688   0.449   2.646   2.397  0.3525  0.0368  0.0922
 6575TIP3    H119689   0.532   2.608   2.428  0.6779  0.8736  0.2827
 6575TIP3    H219690   0.464   2.663   2.304  0.3589  0.0755  0.1000
 6576TIP3   OH219691   5.622   5.569   2.553  0.1212  0.3456  0.5297
 6576TIP3    H119692   5.698   5.621   2.525  0.4142 -0.4490 -0.2234
 6576TIP3    H219693   5.550   5.631   2.555  0.7181  1.0462  0.9033
 6577TIP3   OH219694   2.738   1.565   2.987  0.4185  0.3365 -0.1689
 6577TIP3    H119695   2.644   1.558   2.970  0.4211 -0.0221 -0.0482
 6577TIP3    H219696   2.779   1.539   2.904  0.4096  1.1543 -0.4399
 6578TIP3   OH219697   5.504   3.679   2.859  0.4837 -0.0674  0.2766
 6578TIP3    H119698   5.464   3.640   2.781  1.6431  1.1853 -0.9897
 6578TIP3    H219699   5.483   3.773   2.853  1.7738  0.2672  0.7242
 6579TIP3   OH219700   0.823   3.127   2.577 -0.0067 -0.0824 -0.4081
 6579TIP3    H119701   0.751   3.109   2.637 -0.0343 -0.1166 -0.4517
 6579TIP3    H219702   0.805   3.215   2.544  0.8444  0.5906  0.8312
 6580TIP3   OH219703   4.562   6.422   0.514  0.0789 -0.1701  0.2543
 6580TIP3    H119704   4.633   6.368   0.549  0.9478  2.2314  2.5022
 6580TIP3    H219705   4.486   6.400   0.568  0.8615  1.9142  2.3734
 6581TIP3   OH219706   6.784   5.607   1.036 -0.1221 -0.8492  0.6153
 6581TIP3    H119707   6.784   5.675   0.969  1.8512 -1.1700  0.2269
 6581TIP3    H219708   6.760   5.527   0.989  0.4712 -0.9293  0.4373
 6582TIP3   OH219709   4.934   6.624   4.527 -0.2366  0.3169  0.8192
 6582TIP3    H119710   4.969   6.537   4.510  0.2805  0.3664  1.5803
 6582TIP3    H219711   5.001   6.684   4.495 -0.6976  0.4525  0.0719
 6583TIP3   OH219712   5.455   1.442   0.046  0.3130 -0.5381 -0.1637
 6583TIP3    H119713   5.543   1.469   0.019 -1.1942  2.8869 -2.4219
 6583TIP3    H219714   5.441   1.487   0.129  0.4026 -0.3950 -0.2248
 6584TIP3   OH219715   4.070   0.953   0.195  0.2593  0.2248 -0.0935
 6584TIP3    H119716   4.141   0.888   0.196  0.5416  0.5143  1.2406
 6584TIP3    H219717   4.095   1.016   0.263 -0.7695  0.8983 -0.3222
 6585TIP3   OH219718   0.657   5.834   1.516  0.4492 -0.0228  0.1147
 6585TIP3    H119719   0.611   5.809   1.596 -0.4150 -0.1873 -0.4182
 6585TIP3    H219720   0.746   5.856   1.545  0.0246  0.3534  1.1718
 6586TIP3   OH219721   2.090   5.145   2.401 -0.3984  0.1105  0.1000
 6586TIP3    H119722   2.078   5.189   2.485  0.0023 -1.3389  0.9456
 6586TIP3    H219723   2.093   5.216   2.337 -4.4201  1.1420  0.7960
 6587TIP3   OH219724   6.537   0.690   1.097 -0.3320 -0.2087  0.1164
 6587TIP3    H119725   6.522   0.765   1.040  1.9251 -0.2071 -0.5355
 6587TIP3    H219726   6.555   0.617   1.038 -0.5634 -0.8359  0.7962
 6588TIP3   OH219727   4.621   0.762   5.205 -0.4063 -0.2931  0.1567
 6588TIP3    H119728   4.566   0.839   5.216 -1.6300 -0.8702 -1.5133
 6588TIP3    H219729   4.625   0.722   5.292 -0.7134  0.9988  0.7871
 6589TIP3   OH219730   0.976   2.653   0.404  0.2084 -0.2609  0.3145
 6589TIP3    H119731   0.925   2.577   0.377  1.4226 -0.6547 -0.9406
 6589TIP3    H219732   1.042   2.618   0.464 -0.0663  0.0285  0.7990
 6590TIP3   OH219733   4.040   4.095   1.334  0.2413 -0.2739  0.3691
 6590TIP3    H119734   4.021   4.011   1.375  0.1354  0.8844  2.8858
 6590TIP3    H219735   4.115   4.130   1.383  0.7855  0.7781 -1.1233
 6591TIP3   OH219736   4.802   0.172   3.573  0.1237 -0.1247  0.7401
 6591TIP3    H119737   4.799   0.103   3.507 -1.6030  0.6319 -0.0455
 6591TIP3    H219738   4.776   0.128   3.654 -2.9672 -0.1437 -0.1081
 6592TIP3   OH219739   1.948   5.805   4.889  0.3469 -0.0693 -0.1397
 6592TIP3    H119740   1.865   5.848   4.867  0.9642  1.4456  0.3554
 6592TIP3    H219741   1.982   5.776   4.804 -0.1159  0.3794 -0.4891
 6593TIP3   OH219742   1.099   6.200   3.444 -0.0580 -0.0263 -0.2303
 6593TIP3    H119743   1.138   6.245   3.369  0.4359  1.5212  0.9062
 6593TIP3    H219744   1.027   6.257   3.472 -0.6483 -0.9036  0.1068
 6594TIP3   OH219745   4.256   4.372   5.116  0.1258  0.0771 -0.0181
 6594TIP3    H119746   4.273   4.349   5.024  1.0427 -0.5178  0.2915
 6594TIP3    H219747   4.284   4.295   5.166  1.2876  1.0593  0.8907
 6595TIP3   OH219748   4.140   4.844   5.668 -0.3729 -0.0940  0.3400
 6595TIP3    H119749   4.174   4.866   5.754 -2.1380 -0.1202  1.0787
 6595TIP3    H219750   4.142   4.927   5.620  0.4375 -0.0402  0.4554
 6596TIP3   OH219751   3.877   6.132   2.762 -0.0545 -0.0242  0.4511
 6596TIP3    H119752   3.880   6.065   2.831  0.5555  1.7339  2.2438
 6596TIP3    H219753   3.967   6.140   2.733  0.3773  1.6941  2.0543
 6597TIP3   OH219754   3.950   5.599   1.809  0.6895  0.1958 -0.2526
 6597TIP3    H119755   4.038   5.602   1.848  1.5518 -1.3937 -1.9053
 6597TIP3    H219756   3.956   5.657   1.733  0.2303  0.3069 -0.2021
 6598TIP3   OH219757   0.653   0.078   2.013 -0.2817  0.0080  0.0609
 6598TIP3    H119758   0.606   0.036   2.085 -2.0907  1.2731 -0.2876
 6598TIP3    H219759   0.656   0.171   2.039  1.0745  0.1222 -0.4622
 6599TIP3   OH219760   5.100   4.865   0.067  0.1852 -0.1330  0.6916
 6599TIP3    H119761   5.082   4.772   0.077 -2.5978  0.3453  0.7697
 6599TIP3    H219762   5.192   4.874   0.094  0.1045 -2.6106  2.0917
 6600TIP3   OH219763   3.229   3.122   4.570 -0.0796  0.1096 -0.5633
 6600TIP3    H119764   3.229   3.212   4.538 -0.5531 -0.0250 -0.9538
 6600TIP3    H219765   3.286   3.124   4.647 -0.6066  0.8813 -0.1772
 6601TIP3   OH219766   7.129   1.807   2.274 -0.1536  0.3314 -0.1840
 6601TIP3    H119767   7.068   1.743   2.310 -2.3883  2.0498 -0.7211
 6601TIP3    H219768   7.173   1.845   2.350 -1.1817  0.4205  0.3849
 6602TIP3   OH219769   5.917   0.258   3.886  0.1645  0.0297 -0.4058
 6602TIP3    H119770   5.996   0.229   3.931 -0.5699  0.6388  1.3424
 6602TIP3    H219771   5.862   0.180   3.882 -0.4475  0.3288  1.3193
 6603TIP3   OH219772   3.364   4.344   2.880 -0.0969  0.5553 -0.7459
 6603TIP3    H119773   3.315   4.418   2.846  1.1313  2.4700  1.3565
 6603TIP3    H219774   3.343   4.342   2.973  0.8095 -1.0386 -0.5349
 6604TIP3   OH219775   4.321   4.306   4.576  0.1245 -0.9509  0.2626
 6604TIP3    H119776   4.401   4.353   4.554 -0.6409  0.6619  0.8200
 6604TIP3    H219777   4.350   4.237   4.636  0.8211  1.1960  2.5607
 6605TIP3   OH219778   4.713   4.042   1.910 -0.0669 -0.7977 -0.3204
 6605TIP3    H119779   4.785   4.106   1.909 -1.5714  1.0360 -2.7813
 6605TIP3    H219780   4.640   4.090   1.948 -0.6933 -1.7699 -0.2774
 6606TIP3   OH219781   6.091   6.499   2.652 -0.1630 -0.0330 -0.2844
 6606TIP3    H119782   6.072   6.581   2.606  1.2298  0.8457  0.6108
 6606TIP3    H219783   6.148   6.451   2.593  0.4185  0.4252 -0.1023
 6607TIP3   OH219784   4.317   1.716   4.504  0.2863 -0.4206  0.2045
 6607TIP3    H119785   4.412   1.724   4.499  0.1662  0.1810 -1.4215
 6607TIP3    H219786   4.293   1.659   4.432 -0.7042  0.5431 -0.2674
 6608TIP3   OH219787   2.943   1.424   4.960  0.2058 -0.3809  0.7166
 6608TIP3    H119788   2.937   1.486   5.033 -0.6496 -0.6552  0.8920
 6608TIP3    H219789   2.853   1.392   4.949  0.3888 -0.5776 -0.2498
 6609TIP3   OH219790   3.049   2.799   4.191 -0.3044 -0.2078  0.2029
 6609TIP3    H119791   3.045   2.883   4.145 -1.0541  0.7985  1.9859
 6609TIP3    H219792   3.099   2.818   4.270 -0.0890 -1.5716  0.4128
 6610TIP3   OH219793   4.137   2.382   1.349 -0.3083 -0.3868 -0.0529
 6610TIP3    H119794   4.109   2.461   1.303  2.8443 -0.2396 -2.0107
 6610TIP3    H219795   4.177   2.414   1.430 -0.3734 -0.1276 -0.1215
 6611TIP3   OH219796   5.473   1.869   0.769  0.5137 -0.4516  0.0482
 6611TIP3    H119797   5.532   1.800   0.800  1.1782  0.3134  0.4911
 6611TIP3    H219798   5.399   1.867   0.830 -0.5503 -2.2104 -1.1886
 6612TIP3   OH219799   4.805   3.206   2.433  0.7070 -0.1347 -0.1880
 6612TIP3    H119800   4.844   3.142   2.373 -0.1153  0.0452 -0.9259
 6612TIP3    H219801   4.713   3.181   2.439 -0.0357  1.9591 -1.8467
 6613TIP3   OH219802   4.439   4.813   4.261 -0.4637  0.6188  0.7407
 6613TIP3    H119803   4.495   4.738   4.285 -0.7374  0.3266  0.4598
 6613TIP3    H219804   4.357   4.797   4.308 -0.8480  0.2694 -0.0386
 6614TIP3   OH219805   3.235   2.728   0.060  0.1870 -0.1412  0.1764
 6614TIP3    H119806   3.278   2.648   0.089 -1.4583 -1.0944  0.1381
 6614TIP3    H219807   3.227   2.781   0.140  0.0883 -0.6094  0.4844
 6615TIP3   OH219808   7.149   3.266   0.469  0.6661  0.2444  0.5081
 6615TIP3    H119809   7.192   3.181   0.461 -0.4741 -0.3319  0.2485
 6615TIP3    H219810   7.185   3.318   0.397  2.0840  0.3283  1.2394
 6616TIP3   OH219811   6.656   6.632   4.183  0.1750 -0.4689 -0.3485
 6616TIP3    H119812   6.568   6.603   4.206 -0.8818  0.2402 -3.0470
 6616TIP3    H219813   6.698   6.555   4.146 -0.2550 -0.2432 -1.3570
 6617TIP3   OH219814   7.206   5.712   0.627 -0.2723  0.0648  0.3210
 6617TIP3    H119815   7.117   5.745   0.638 -0.0306  0.2538  2.0492
 6617TIP3    H219816   7.261   5.777   0.671  0.8755  0.5187 -1.6432
 6618TIP3   OH219817   6.392   1.543   2.540  0.3474  0.4499  0.1807
 6618TIP3    H119818   6.372   1.604   2.611 -0.7615 -0.9241  1.1031
 6618TIP3    H219819   6.377   1.593   2.460 -2.9319  0.7602  0.8568
 6619TIP3   OH219820   3.780   3.088   3.889 -0.3515 -0.6684 -0.5633
 6619TIP3    H119821   3.725   3.017   3.922 -2.9690  1.1092 -0.8390
 6619TIP3    H219822   3.719   3.149   3.848  1.9206  1.1756 -1.4047
 6620TIP3   OH219823   5.274   4.883   0.474 -0.0944  0.4725 -0.5771
 6620TIP3    H119824   5.291   4.827   0.549  1.3114 -0.3583 -1.4690
 6620TIP3    H219825   5.189   4.923   0.492 -0.1249 -0.2850  1.0825
 6621TIP3   OH219826   3.128   1.490   3.414  0.0613 -0.0696 -0.0494
 6621TIP3    H119827   3.040   1.453   3.406 -0.1307  0.7698 -3.1952
 6621TIP3    H219828   3.186   1.421   3.382  0.3742  0.0012  0.3620
 6622TIP3   OH219829   1.402   2.828   5.672 -0.4648  0.3171  0.1331
 6622TIP3    H119830   1.357   2.776   5.739  0.2383  0.0502  0.4059
 6622TIP3    H219831   1.353   2.910   5.670 -2.2489 -0.7074 -1.0431
 6623TIP3   OH219832   2.411   5.727   3.669 -0.1519  0.2049  0.1077
 6623TIP3    H119833   2.412   5.686   3.755  2.2372 -0.4345 -0.1556
 6623TIP3    H219834   2.495   5.772   3.662 -0.7646  1.2023 -1.4555
 6624TIP3   OH219835   5.246   6.159   3.830 -0.1548  0.3429 -0.0869
 6624TIP3    H119836   5.332   6.118   3.844 -0.2109  1.0620  2.9342
 6624TIP3    H219837   5.216   6.122   3.747  1.8455 -2.1064  0.1341
 6625TIP3   OH219838   4.843   1.812   4.750  0.2628 -0.3995  0.0483
 6625TIP3    H119839   4.756   1.772   4.752 -0.4804  1.0977 -0.8296
 6625TIP3    H219840   4.889   1.765   4.681 -0.2482 -0.4205 -0.2833
 6626TIP3   OH219841   5.657   5.989   4.198  0.0835  0.0439 -0.6718
 6626TIP3    H119842   5.708   5.942   4.132  3.6472  2.8776 -0.2528
 6626TIP3    H219843   5.638   6.074   4.157  0.3699  1.0084  1.1133
 6627TIP3   OH219844   1.396   6.343   2.053  0.1256 -0.1037 -0.1979
 6627TIP3    H119845   1.397   6.438   2.067  1.2471 -0.0061 -0.8366
 6627TIP3    H219846   1.418   6.307   2.139  0.6743  0.2561 -0.1822
 6628TIP3   OH219847   7.218   2.731   5.354  0.4284 -0.2526 -0.1402
 6628TIP3    H119848   7.210   2.807   5.297 -2.6001  0.9847  1.7111
 6628TIP3    H219849   7.143   2.676   5.331  0.3241 -0.7152  1.2169
 6629TIP3   OH219850   4.014   5.602   2.993  0.2091 -0.1820  0.0288
 6629TIP3    H119851   4.008   5.697   2.991  0.0008 -0.2061 -1.8634
 6629TIP3    H219852   4.086   5.584   3.054 -0.5532  1.1076  1.3746
 6630TIP3   OH219853   6.354   5.234   0.912 -0.0603  0.9123  0.0029
 6630TIP3    H119854   6.286   5.274   0.966  1.1586  0.3332  2.1059
 6630TIP3    H219855   6.427   5.295   0.917  0.7773 -0.1104  0.7513
 6631TIP3   OH219856   0.272   0.333   5.026  0.3593 -0.0817  0.3145
 6631TIP3    H119857   0.178   0.346   5.042  0.3327 -1.1908  1.2509
 6631TIP3    H219858   0.276   0.253   4.974  0.8464 -1.2361  2.0463
 6632TIP3   OH219859   4.035   1.620   3.913  0.0464 -0.2824 -0.0858
 6632TIP3    H119860   3.966   1.686   3.904  1.1044  0.8197 -0.5643
 6632TIP3    H219861   4.093   1.636   3.838  0.9168 -1.0480  0.4029
 6633TIP3   OH219862   3.055   3.283   0.951  0.2749  0.1809  0.2538
 6633TIP3    H119863   3.116   3.357   0.949 -0.3525  0.7629 -3.1773
 6633TIP3    H219864   2.989   3.309   1.016  1.7463  1.1097  1.4608
 6634TIP3   OH219865   6.273   1.335   2.848 -0.5204 -0.1523  0.4489
 6634TIP3    H119866   6.349   1.372   2.803 -1.6615  0.3410 -1.1610
 6634TIP3    H219867   6.303   1.250   2.881  0.1831 -0.9046 -1.9649
 6635TIP3   OH219868   0.994   2.141   5.394  0.0087 -0.3692  0.2335
 6635TIP3    H119869   0.999   2.046   5.404 -0.4207 -0.4628 -0.3530
 6635TIP3    H219870   1.040   2.159   5.312 -1.6347 -0.3128 -0.7308
 6636TIP3   OH219871   1.747   5.783   2.212  0.2588 -0.5267 -0.3711
 6636TIP3    H119872   1.760   5.840   2.136 -0.5743 -0.2850 -0.3454
 6636TIP3    H219873   1.780   5.835   2.286 -0.8717  0.1234 -0.2896
 6637TIP3   OH219874   5.805   0.892   1.955  0.3257  0.3498  0.8278
 6637TIP3    H119875   5.814   0.939   1.872  1.4823 -0.6125  0.3785
 6637TIP3    H219876   5.719   0.849   1.949  0.2493  0.5778  0.2767
 6638TIP3   OH219877   0.700   1.399   2.133 -0.2047 -0.5519 -0.2331
 6638TIP3    H119878   0.762   1.453   2.183  0.6720 -1.1125 -0.6898
 6638TIP3    H219879   0.647   1.462   2.085 -0.1309 -0.0502  0.3272
 6639TIP3   OH219880   5.073   5.388   2.610  0.5514 -0.0497  0.1503
 6639TIP3    H119881   5.133   5.381   2.684  0.5103  2.1048  0.4399
 6639TIP3    H219882   5.130   5.387   2.533  0.7367 -0.5282  0.2906
 6640TIP3   OH219883   0.820   1.703   1.938 -0.3497  0.1764 -0.7665
 6640TIP3    H119884   0.848   1.646   1.868 -0.5675 -0.4378 -0.3632
 6640TIP3    H219885   0.733   1.670   1.963 -2.0801  2.7630 -2.8126
 6641TIP3   OH219886   3.473   1.258   2.375 -0.0491  0.3577  0.3500
 6641TIP3    H119887   3.440   1.227   2.460 -1.2887  1.9161  0.4808
 6641TIP3    H219888   3.538   1.324   2.396  0.8589 -0.4206  0.0629
 6642TIP3   OH219889   2.678   0.632   3.222 -0.3367 -0.0886  0.5043
 6642TIP3    H119890   2.726   0.666   3.146  0.7730 -0.8772  0.8302
 6642TIP3    H219891   2.711   0.542   3.233 -0.7398 -0.1030  1.7071
 6643TIP3   OH219892   3.107   5.231   1.878  0.5298 -0.4984  0.3048
 6643TIP3    H119893   3.049   5.160   1.852  0.8498 -1.4601  2.0884
 6643TIP3    H219894   3.121   5.218   1.972  2.5864  0.4552  0.1880
 6644TIP3   OH219895   6.860   0.943   3.177 -0.1556  0.0146 -0.0258
 6644TIP3    H119896   6.842   1.016   3.118 -1.7203  0.8500  1.3926
 6644TIP3    H219897   6.900   0.876   3.121  1.1653  1.8470 -1.4127
 6645TIP3   OH219898   3.280   3.441   0.879 -0.7636 -0.1306  0.3929
 6645TIP3    H119899   3.330   3.372   0.836 -0.1036  1.0955 -0.8763
 6645TIP3    H219900   3.339   3.477   0.945 -0.3040  0.6208 -0.4019
 6646TIP3   OH219901   1.590   1.800   1.643  0.2045  0.1479 -0.4334
 6646TIP3    H119902   1.558   1.869   1.702 -0.5101 -0.2220 -0.3705
 6646TIP3    H219903   1.684   1.814   1.638  0.1541  0.7240  0.1022
 6647TIP3   OH219904   3.593   4.776   4.650 -0.1598  0.0848 -0.1191
 6647TIP3    H119905   3.503   4.809   4.645 -0.2949 -0.3370 -0.6435
 6647TIP3    H219906   3.639   4.820   4.579  0.4996  1.5749  1.1771
 6648TIP3   OH219907   3.105   1.061   3.389 -0.0131 -0.2848  0.0665
 6648TIP3    H119908   3.067   1.035   3.305  0.3184  2.2698 -0.9596
 6648TIP3    H219909   3.035   1.109   3.433  1.1383  2.3287 -0.7846
 6649TIP3   OH219910   2.820   4.773   2.243 -0.1472 -0.1970 -0.2242
 6649TIP3    H119911   2.905   4.783   2.287  0.4693  2.3298 -1.7822
 6649TIP3    H219912   2.840   4.725   2.163  0.1535  1.6469 -1.3061
 6650TIP3   OH219913   6.809   3.851   4.140  0.3504  0.2449  0.0913
 6650TIP3    H119914   6.852   3.813   4.063  1.1721  1.0125  0.1634
 6650TIP3    H219915   6.743   3.786   4.164 -0.9493  0.6306 -2.1480
 6651TIP3   OH219916   4.231   3.730   1.683  0.2546  0.2012 -0.8125
 6651TIP3    H119917   4.304   3.791   1.685  0.1472  0.3265 -0.6874
 6651TIP3    H219918   4.219   3.703   1.774  0.7416 -0.5349 -0.9526
 6652TIP3   OH219919   0.057   5.140   4.960 -0.2063 -0.3785  0.0732
 6652TIP3    H119920   0.152   5.148   4.954 -0.1641 -0.2262  0.8064
 6652TIP3    H219921   0.041   5.113   5.051 -1.0196  2.6301  0.9359
 6653TIP3   OH219922   3.303   6.347   4.785 -0.0273 -0.7832  0.3156
 6653TIP3    H119923   3.224   6.393   4.812  0.0466 -0.9916  0.8931
 6653TIP3    H219924   3.372   6.413   4.787  0.2023 -1.0491  1.7463
 6654TIP3   OH219925   6.595   0.650   4.276  0.3363 -0.0338 -0.2206
 6654TIP3    H119926   6.508   0.676   4.247  0.2833 -0.4693 -0.4542
 6654TIP3    H219927   6.607   0.695   4.360 -0.0725  0.0983 -0.2337
 6655TIP3   OH219928   2.997   2.589   3.015 -0.1085 -0.4309 -0.2442
 6655TIP3    H119929   2.988   2.499   3.047  2.0189  0.1642  2.4608
 6655TIP3    H219930   2.988   2.582   2.920  0.6050 -3.5995 -0.1896
 6656TIP3   OH219931   3.539   3.154   5.567  0.8144 -0.0276 -0.0861
 6656TIP3    H119932   3.596   3.147   5.490  0.4871 -1.3210 -0.2341
 6656TIP3    H219933   3.599   3.166   5.641  1.1299  1.3571 -0.5182
 6657TIP3   OH219934   2.576   1.789   0.699 -0.4385  0.0741  0.3009
 6657TIP3    H119935   2.635   1.844   0.751 -0.3620  2.5569 -2.1657
 6657TIP3    H219936   2.490   1.803   0.737 -0.3921  1.8497 -0.1713
 6658TIP3   OH219937   6.042   2.136   5.194 -0.1389  0.1862  0.1535
 6658TIP3    H119938   6.084   2.111   5.112  2.8441  1.7977  1.0540
 6658TIP3    H219939   6.110   2.126   5.260 -1.9356  0.5808  2.1876
 6659TIP3   OH219940   6.119   1.370   1.458 -0.6555  0.0293 -0.6016
 6659TIP3    H119941   6.114   1.391   1.365 -0.5649 -0.6120 -0.7568
 6659TIP3    H219942   6.153   1.450   1.499  0.8689 -0.2044 -1.3268
 6660TIP3   OH219943   2.532   3.041   3.247 -0.3419  0.5232  0.0382
 6660TIP3    H119944   2.560   2.999   3.328  1.9554  0.0185 -0.9098
 6660TIP3    H219945   2.530   2.970   3.183 -1.3824  1.0352 -0.5179
 6661TIP3   OH219946   3.449   0.120   3.652 -0.1453 -0.2644 -0.0138
 6661TIP3    H119947   3.526   0.116   3.708 -0.5509 -0.6062  0.5231
 6661TIP3    H219948   3.469   0.189   3.588 -0.4251  1.4315  1.6407
 6662TIP3   OH219949   3.012   3.885   0.785 -0.4919  0.2891  0.1686
 6662TIP3    H119950   3.010   3.977   0.760  0.6782  0.3516  0.2392
 6662TIP3    H219951   3.099   3.855   0.758 -0.8525 -0.7857  0.1673
 6663TIP3   OH219952   1.633   2.294   3.463  0.4072 -0.0169 -0.5294
 6663TIP3    H119953   1.546   2.264   3.488  0.3613  0.6951  0.2320
 6663TIP3    H219954   1.655   2.243   3.385 -0.3688 -0.7453 -0.2877
 6664TIP3   OH219955   6.204   3.891   2.547  0.4110  0.4472 -0.5308
 6664TIP3    H119956   6.295   3.912   2.565  0.4412  0.9389 -1.2542
 6664TIP3    H219957   6.193   3.905   2.453  0.0586 -1.3534 -0.8062
 6665TIP3   OH219958   2.832   2.235   3.928  0.2627  0.1105  0.4704
 6665TIP3    H119959   2.764   2.175   3.895  0.1557 -0.0176  0.9242
 6665TIP3    H219960   2.914   2.200   3.891 -0.0020  0.7766 -0.8086
 6666TIP3   OH219961   4.799   6.683   0.492  0.1171 -0.3645  0.1743
 6666TIP3    H119962   4.848   6.615   0.539  0.8047  0.6684  1.0046
 6666TIP3    H219963   4.821   6.764   0.538 -0.2100  0.5079 -1.1635
 6667TIP3   OH219964   5.301   4.171   1.443 -0.4375 -0.5022  0.2542
 6667TIP3    H119965   5.375   4.229   1.425 -0.9461 -0.1490 -0.7782
 6667TIP3    H219966   5.320   4.135   1.529  1.3263 -1.0148 -0.3032
 6668TIP3   OH219967   5.436   6.612   1.524 -0.8178  0.2024 -0.3552
 6668TIP3    H119968   5.462   6.691   1.477  0.5338  0.2003  0.3355
 6668TIP3    H219969   5.460   6.629   1.615 -0.6035 -0.9506 -0.1768
 6669TIP3   OH219970   6.112   6.015   0.331 -0.2207  0.0124  0.6262
 6669TIP3    H119971   6.051   5.948   0.299  0.2373  0.2162 -0.7500
 6669TIP3    H219972   6.141   5.982   0.416 -0.0638 -1.5245  0.0130
 6670TIP3   OH219973   1.824   6.296   1.721  0.4588  0.3261 -0.1316
 6670TIP3    H119974   1.745   6.276   1.771  1.0555 -0.8369  0.3890
 6670TIP3    H219975   1.808   6.383   1.685 -1.3034 -0.1151 -0.5364
 6671TIP3   OH219976   4.264   3.198   2.061 -0.1647  0.5555  0.1642
 6671TIP3    H119977   4.204   3.186   2.134 -0.9668 -2.9885 -0.8902
 6671TIP3    H219978   4.207   3.221   1.987  0.3863  1.8618  0.1148
 6672TIP3   OH219979   3.282   2.977   5.599  0.1954  0.6900  0.0082
 6672TIP3    H119980   3.367   3.016   5.619  0.5777  0.0808 -0.3873
 6672TIP3    H219981   3.299   2.917   5.527 -0.4827  0.2244  0.2164
 6673TIP3   OH219982   3.871   6.217   1.971 -0.4082 -0.7280 -0.0663
 6673TIP3    H119983   3.819   6.186   1.897 -0.5571 -2.7760  0.8261
 6673TIP3    H219984   3.807   6.236   2.039 -0.1951 -0.0076 -0.0612
 6674TIP3   OH219985   5.377   1.472   5.304 -0.4836  0.7806 -0.0124
 6674TIP3    H119986   5.351   1.541   5.243 -0.5780  0.3138 -0.5118
 6674TIP3    H219987   5.294   1.431   5.330 -0.4910  1.3518  0.8871
 6675TIP3   OH219988   7.014   6.643   4.945  0.4454  0.0939 -0.1660
 6675TIP3    H119989   7.080   6.689   4.996  0.1502  1.6573 -1.1178
 6675TIP3    H219990   7.054   6.559   4.924  0.4601 -0.7373  2.8031
 6676TIP3   OH219991   1.578   3.467   1.380  0.1432  0.0699 -0.0877
 6676TIP3    H119992   1.658   3.474   1.432  0.5691 -0.8911 -0.5836
 6676TIP3    H219993   1.523   3.406   1.428  0.1412 -0.0755 -0.2722
 6677TIP3   OH219994   1.501   0.159   3.514  0.5078  0.5651  0.4232
 6677TIP3    H119995   1.487   0.181   3.422  0.4003  0.8266  0.5000
 6677TIP3    H219996   1.538   0.071   3.512 -0.2580  0.2355  0.1650
 6678TIP3   OH219997   0.838   6.408   5.034  0.5252 -0.0142  0.8588
 6678TIP3    H119998   0.817   6.387   4.943 -1.7157  0.0031  1.2987
 6678TIP3    H219999   0.908   6.473   5.029  0.9339 -0.5439 -0.8094
 6679TIP3   OH220000   1.320   1.933   4.105  0.1026 -0.4661  0.5153
 6679TIP3    H120001   1.278   2.010   4.144 -0.3901  1.0070 -2.5953
 6679TIP3    H220002   1.264   1.860   4.130  0.3423  0.1649  3.2023
 6680TIP3   OH220003   4.734   5.209   4.006 -0.6038 -0.1538  0.1407
 6680TIP3    H120004   4.638   5.207   4.005 -0.6071  0.2152 -0.1545
 6680TIP3    H220005   4.756   5.302   4.015 -0.2534 -0.0397 -1.6078
 6681TIP3   OH220006   0.928   5.583   3.350  0.1381  0.5675  0.1722
 6681TIP3    H120007   1.020   5.609   3.345 -0.4915  2.8273 -3.1805
 6681TIP3    H220008   0.882   5.662   3.379 -0.9787  0.4676 -1.1995
 6682TIP3   OH220009   0.098   1.938   3.203 -0.3900 -0.1663  0.6515
 6682TIP3    H120010   0.183   1.899   3.185 -0.1426  0.3738  0.6424
 6682TIP3    H220011   0.116   2.004   3.270 -0.6530  0.5537  0.0227
 6683TIP3   OH220012   5.042   4.912   4.575 -0.5149  0.2436 -0.1141
 6683TIP3    H120013   5.075   5.001   4.589 -1.7968  0.9813 -1.4764
 6683TIP3    H220014   4.970   4.903   4.638 -1.5289  0.8560 -1.1466
 6684TIP3   OH220015   2.048   1.310   5.385 -0.0006  0.1671 -0.1821
 6684TIP3    H120016   2.040   1.268   5.300 -1.8085 -2.5019  1.1798
 6684TIP3    H220017   2.119   1.263   5.428  0.1856  0.7774  0.1868
 6685TIP3   OH220018   0.797   5.037   5.583  0.4785 -0.4244  0.4869
 6685TIP3    H120019   0.728   5.091   5.544 -0.1285  0.5071  2.6368
 6685TIP3    H220020   0.866   5.100   5.605 -0.0126 -0.5151  2.5455
 6686TIP3   OH220021   1.163   2.277   5.724  0.1308 -0.1238 -0.0083
 6686TIP3    H120022   1.253   2.263   5.750  0.0134  1.8793  1.7216
 6686TIP3    H220023   1.169   2.332   5.646  0.4334  1.2792  0.9731
 6687TIP3   OH220024   5.823   6.100   1.042 -0.2893 -0.4473 -0.1898
 6687TIP3    H120025   5.898   6.100   1.101  0.0505 -0.2188 -0.6144
 6687TIP3    H220026   5.760   6.159   1.083  0.3817  0.5665 -0.5918
 6688TIP3   OH220027   2.512   0.613   4.527  0.4876 -0.6723  0.3281
 6688TIP3    H120028   2.493   0.547   4.594 -0.8871 -0.3366  0.3117
 6688TIP3    H220029   2.482   0.696   4.567 -0.5392 -0.4965 -0.7455
 6689TIP3   OH220030   4.501   1.295   1.764  0.3437 -0.3478 -0.1984
 6689TIP3    H120031   4.511   1.216   1.817  1.7690 -0.5860 -0.7848
 6689TIP3    H220032   4.558   1.359   1.807  1.0325 -0.3592 -1.0751
 6690TIP3   OH220033   1.539   2.245   2.306 -0.1282  0.6768  0.6819
 6690TIP3    H120034   1.578   2.293   2.233  0.2433  0.9507  1.0562
 6690TIP3    H220035   1.446   2.243   2.285  0.0536  0.1597 -0.1394
 6691TIP3   OH220036   1.411   2.504   1.340  1.0340 -0.2234  0.6827
 6691TIP3    H120037   1.386   2.412   1.353  1.2752 -0.6330 -1.4438
 6691TIP3    H220038   1.447   2.531   1.424  0.2261 -1.8380  1.5903
 6692TIP3   OH220039   6.873   3.940   4.421 -0.1093 -0.7888 -0.4031
 6692TIP3    H120040   6.834   3.861   4.459  1.7335 -0.8780  1.4810
 6692TIP3    H220041   6.866   3.926   4.326 -1.4065 -2.3796 -0.1250
 6693TIP3   OH220042   2.955   0.174   2.123 -0.0587  0.1675 -0.0135
 6693TIP3    H120043   2.987   0.263   2.106 -0.1118  0.3208  0.6430
 6693TIP3    H220044   2.883   0.162   2.062 -1.5358  1.4279  1.3961
 6694TIP3   OH220045   2.060   5.141   5.633  0.4105 -0.9369 -0.3066
 6694TIP3    H120046   1.965   5.132   5.641 -0.1027  0.0413 -3.6285
 6694TIP3    H220047   2.077   5.233   5.654  0.5223 -0.9376 -0.3921
 6695TIP3   OH220048   1.072   5.776   1.985  0.2396  0.0566  0.4748
 6695TIP3    H120049   1.044   5.855   2.029  0.2880 -0.0381  0.6745
 6695TIP3    H220050   1.154   5.800   1.941  0.8869 -0.2082  1.5185
 6696TIP3   OH220051   5.041   5.535   4.210 -0.0292 -0.5411 -0.0028
 6696TIP3    H120052   5.045   5.599   4.281  1.1436 -0.3386 -0.2267
 6696TIP3    H220053   5.119   5.482   4.222  0.5734 -0.0607 -1.5499
 6697TIP3   OH220054   1.256   0.511   5.520  0.5940  0.6720 -0.0800
 6697TIP3    H120055   1.262   0.465   5.437  0.9878 -0.6179  0.6300
 6697TIP3    H220056   1.228   0.600   5.497 -1.0200 -0.1253 -1.4395
 6698TIP3   OH220057   2.351   3.726   4.615 -0.3017 -0.1741  0.3299
 6698TIP3    H120058   2.369   3.726   4.520 -1.6349 -1.6761  0.0449
 6698TIP3    H220059   2.303   3.807   4.630 -1.4988 -0.6842 -0.5966
 6699TIP3   OH220060   6.966   5.053   2.610  0.3573  0.0877 -0.0335
 6699TIP3    H120061   6.883   5.012   2.634  0.2938 -1.1460 -2.1267
 6699TIP3    H220062   7.002   4.997   2.541  2.0444  1.6026 -0.4671
 6700TIP3   OH220063   0.482   3.113   2.414  0.3339  0.0705 -0.0697
 6700TIP3    H120064   0.565   3.139   2.373  2.2674 -1.6714  2.4637
 6700TIP3    H220065   0.467   3.179   2.482 -0.2028  0.1881 -0.2961
 6701TIP3   OH220066   0.646   1.489   5.615  0.6334  0.2379  0.3407
 6701TIP3    H120067   0.645   1.394   5.626  2.8723  0.0824 -0.3553
 6701TIP3    H220068   0.632   1.523   5.704 -0.8295 -0.6901  0.5019
 6702TIP3   OH220069   6.517   5.351   5.054  0.6478  0.3393  0.1057
 6702TIP3    H120070   6.439   5.387   5.096 -1.1606 -1.9349 -1.0724
 6702TIP3    H220071   6.556   5.294   5.121  1.1391  1.1816  0.5629
 6703TIP3   OH220072   1.164   3.171   0.509  0.4666  0.1065  0.2758
 6703TIP3    H120073   1.163   3.114   0.586  1.1184  0.2093  0.3678
 6703TIP3    H220074   1.133   3.116   0.437 -2.0517  0.5342  0.9393
 6704TIP3   OH220075   2.722   5.757   0.915 -0.6713  0.6839  0.0172
 6704TIP3    H120076   2.628   5.742   0.929 -0.8437  1.7809  0.0676
 6704TIP3    H220077   2.726   5.828   0.852  0.1341  1.2867  0.7263
 6705TIP3   OH220078   6.841   3.638   2.174  0.8934 -0.0088  0.4832
 6705TIP3    H120079   6.791   3.698   2.230  0.6648  0.5083 -0.2650
 6705TIP3    H220080   6.780   3.566   2.156  0.8916 -0.0652  0.7119
 6706TIP3   OH220081   0.344   5.013   0.394 -0.3512 -0.2502 -0.1774
 6706TIP3    H120082   0.344   5.083   0.329 -0.0348  2.7523  2.8066
 6706TIP3    H220083   0.435   5.005   0.422 -0.5548 -1.1476  0.2674
 6707TIP3   OH220084   2.913   5.266   0.184  0.3844  0.1408 -0.8611
 6707TIP3    H120085   2.923   5.359   0.164 -0.0257  0.8098  1.6901
 6707TIP3    H220086   2.982   5.248   0.249 -0.6949 -0.8475  0.0448
 6708TIP3   OH220087   4.761   2.953   3.529 -0.3743  0.0509 -0.0203
 6708TIP3    H120088   4.827   3.010   3.569 -0.0045 -0.7534  0.5295
 6708TIP3    H220089   4.790   2.864   3.550 -1.8870 -0.3095  0.6662
 6709TIP3   OH220090   1.130   5.025   5.722 -0.2365 -0.2858 -0.7772
 6709TIP3    H120091   1.147   5.118   5.705 -0.7390  0.0789  0.5703
 6709TIP3    H220092   1.128   4.985   5.635  0.7632  0.8205 -1.3460
 6710TIP3   OH220093   0.849   4.552   1.783 -0.2787 -0.0131  0.4800
 6710TIP3    H120094   0.814   4.547   1.694 -1.9433 -1.7605  1.1723
 6710TIP3    H220095   0.850   4.646   1.803  0.2072  0.4193 -1.3697
 6711TIP3   OH220096   4.126   0.846   0.576 -0.4847 -0.3302 -0.6619
 6711TIP3    H120097   4.106   0.753   0.561  0.2995 -0.3888 -1.3903
 6711TIP3    H220098   4.040   0.886   0.592 -0.7811 -1.2838  0.3449
 6712TIP3   OH220099   0.765   2.331   1.575  0.3704 -0.7874  0.7732
 6712TIP3    H120100   0.736   2.345   1.484 -0.6047  0.3521  1.2208
 6712TIP3    H220101   0.786   2.238   1.579 -1.2892 -1.2648 -0.1786
 6713TIP3   OH220102   4.923  -0.003   5.268 -0.1579  0.3853  0.1189
 6713TIP3    H120103   4.992   0.017   5.331  0.9296  1.2785 -1.3036
 6713TIP3    H220104   4.853   0.059   5.287 -0.6048 -0.4926  1.5366
 6714TIP3   OH220105   3.691   2.667   4.542  0.0679 -0.9556 -0.1139
 6714TIP3    H120106   3.711   2.576   4.519  0.6423 -0.8078 -0.1979
 6714TIP3    H220107   3.771   2.715   4.523  0.3848 -0.7259  1.6617
 6715TIP3   OH220108   1.292   6.137   4.646  0.4735  0.7655  0.3117
 6715TIP3    H120109   1.318   6.218   4.602  0.3604  0.5817 -0.0966
 6715TIP3    H220110   1.301   6.069   4.578  1.8807  0.2163  1.0101
 6716TIP3   OH220111   3.681   6.309   1.281 -0.2034 -0.0651 -0.3740
 6716TIP3    H120112   3.597   6.352   1.298 -1.4070 -1.7926 -1.5197
 6716TIP3    H220113   3.659   6.237   1.221  1.8507 -1.5456  0.5204
 6717TIP3   OH220114   4.816   4.971   4.326 -0.5976 -0.1967  0.5542
 6717TIP3    H120115   4.860   4.904   4.274  0.1293  0.7366 -0.0773
 6717TIP3    H220116   4.848   5.054   4.289 -0.3945  0.4955  2.1998
 6718TIP3   OH220117   4.653   0.587   4.435 -0.3663  0.4682 -0.0364
 6718TIP3    H120118   4.604   0.523   4.487  0.5024  0.5717  0.9241
 6718TIP3    H220119   4.698   0.534   4.369 -0.3005  0.1734  0.2409
 6719TIP3   OH220120   1.906   1.091   1.990  0.6123 -0.7012 -0.1328
 6719TIP3    H120121   1.866   1.176   1.977  0.1084 -0.7409  1.0574
 6719TIP3    H220122   1.925   1.087   2.083  1.1067 -1.6856 -0.2574
 6720TIP3   OH220123   4.972   5.872   3.431 -0.0160  0.4679  0.0621
 6720TIP3    H120124   4.931   5.935   3.490 -0.6708 -1.8682  2.2725
 6720TIP3    H220125   4.923   5.791   3.443  0.7689 -0.5517 -2.6695
 6721TIP3   OH220126   2.467   1.553   1.896  0.0332  0.2355  0.0920
 6721TIP3    H120127   2.538   1.568   1.959  0.8207 -1.9031 -0.1822
 6721TIP3    H220128   2.513   1.539   1.813 -0.9106  1.5902 -0.6840
 6722TIP3   OH220129   6.883   2.391   1.817 -0.2654  0.3374  0.3966
 6722TIP3    H120130   6.848   2.421   1.901  1.2215  3.9347 -0.0929
 6722TIP3    H220131   6.814   2.410   1.754 -0.0102  1.0901  0.3374
 6723TIP3   OH220132   5.218   4.179   0.042 -0.2589  0.3219  0.5197
 6723TIP3    H120133   5.296   4.132   0.012 -0.6991  0.2847 -0.6428
 6723TIP3    H220134   5.145   4.134  -0.001 -0.8232  1.0403  0.6963
 6724TIP3   OH220135   5.771   1.465   5.156  0.5387 -0.1004 -0.2377
 6724TIP3    H120136   5.827   1.542   5.149  0.3065  0.2088  1.0428
 6724TIP3    H220137   5.771   1.443   5.249  0.7381 -1.7659 -0.5976
 6725TIP3   OH220138   3.915   1.255   1.927  0.7092  0.4757 -0.0946
 6725TIP3    H120139   3.950   1.344   1.922 -0.3223  1.0399  1.7170
 6725TIP3    H220140   3.831   1.264   1.971 -0.1306 -1.2491 -1.2293
 6726TIP3   OH220141   6.625   3.449   0.213 -0.0945  0.3950  0.2897
 6726TIP3    H120142   6.633   3.481   0.123 -2.6061  2.3645  0.6692
 6726TIP3    H220143   6.560   3.506   0.254 -0.9251 -2.0168  2.6457
 6727TIP3   OH220144   5.361   2.924   1.622 -0.4303 -0.0216  0.0322
 6727TIP3    H120145   5.403   2.982   1.686  2.8698 -1.5215 -0.5735
 6727TIP3    H220146   5.289   2.883   1.670  1.8322 -1.0132  2.8728
 6728TIP3   OH220147   5.131   0.797   1.607 -0.3307 -0.2933  0.0924
 6728TIP3    H120148   5.137   0.867   1.542  0.2435  0.4325  0.8861
 6728TIP3    H220149   5.046   0.757   1.592 -0.4351  0.2250 -0.7419
 6729TIP3   OH220150   6.417   1.092   4.839  0.3840  0.1358  0.4180
 6729TIP3    H120151   6.465   1.011   4.823 -0.0531  0.1823 -1.3595
 6729TIP3    H220152   6.349   1.068   4.901  0.7827 -0.6639  0.5517
 6730TIP3   OH220153   1.949   3.491   0.611  0.1408  0.1667 -0.1482
 6730TIP3    H120154   1.934   3.456   0.523 -1.6773  0.4271  0.0121
 6730TIP3    H220155   1.918   3.422   0.669  0.0986  0.5214  0.2501
 6731TIP3   OH220156   4.540   2.973   1.823 -0.1866 -0.6527 -0.1225
 6731TIP3    H120157   4.526   3.051   1.876  0.5225 -0.9772  0.5579
 6731TIP3    H220158   4.620   2.934   1.858  0.3877 -0.7996 -1.5237
 6732TIP3   OH220159   4.893   5.752   5.650 -0.2951  0.1661 -0.2343
 6732TIP3    H120160   4.802   5.778   5.637 -0.2376 -0.0221 -1.0431
 6732TIP3    H220161   4.889   5.662   5.682 -0.3819  0.1195 -0.3808
 6733TIP3   OH220162   4.963   4.158   1.739  0.1335  0.4876 -0.2286
 6733TIP3    H120163   4.944   4.115   1.655 -0.2232  1.8454 -0.8601
 6733TIP3    H220164   5.051   4.193   1.728  0.8121 -0.8528  0.6374
 6734TIP3   OH220165   3.104   4.019   2.670  0.1767 -0.2569  0.0347
 6734TIP3    H120166   3.066   3.932   2.657  0.6016 -0.1129 -3.0870
 6734TIP3    H220167   3.030   4.073   2.698 -0.0402 -1.6061  2.2747
 6735TIP3   OH220168   5.821   5.120   0.144 -0.6590 -0.2527 -0.2249
 6735TIP3    H120169   5.885   5.160   0.085  0.0618  0.3911  0.9753
 6735TIP3    H220170   5.826   5.026   0.122  1.7392 -0.4375  0.7657
 6736TIP3   OH220171   3.309   4.524   1.162 -0.4046  0.4975 -0.1188
 6736TIP3    H120172   3.311   4.600   1.220  0.0410  0.4211 -0.0268
 6736TIP3    H220173   3.392   4.478   1.180 -0.4401  0.2624 -0.5339
 6737TIP3   OH220174   3.314   5.478   4.320  0.2549 -0.7276 -0.0381
 6737TIP3    H120175   3.237   5.515   4.363 -0.7240 -0.7123 -1.7105
 6737TIP3    H220176   3.356   5.554   4.278  0.3960 -0.9401 -0.2841
 6738TIP3   OH220177   3.285   5.004   2.339  0.4815 -0.1944 -0.2060
 6738TIP3    H120178   3.303   5.045   2.255 -0.2586  0.7618  0.0704
 6738TIP3    H220179   3.332   5.059   2.403  0.9915 -0.8748  0.0148
 6739TIP3   OH220180   4.474   5.554   4.815  0.1978 -0.0898  0.2598
 6739TIP3    H120181   4.452   5.605   4.737 -0.5272  0.4345  0.7913
 6739TIP3    H220182   4.530   5.611   4.867  1.1323 -0.6441 -0.1188
 6740TIP3   OH220183   0.419   4.406   4.646 -0.4542  0.4014 -0.0213
 6740TIP3    H120184   0.484   4.475   4.659 -0.2229  0.0658  0.6569
 6740TIP3    H220185   0.398   4.376   4.734 -2.5446  1.4077 -0.0967
 6741TIP3   OH220186   0.505   5.868   5.462 -0.1031  0.3731  0.7501
 6741TIP3    H120187   0.519   5.876   5.557  0.0325  1.1119  0.6725
 6741TIP3    H220188   0.592   5.884   5.424  0.2535 -1.6920  0.5636
 6742TIP3   OH220189   5.454   3.814   1.304 -0.7000  0.1626  0.3022
 6742TIP3    H120190   5.425   3.736   1.352 -0.4013 -0.5952 -0.7048
 6742TIP3    H220191   5.537   3.838   1.346  0.0869 -1.1120 -0.4532
 6743TIP3   OH220192   2.585   2.459   1.946 -0.0222  0.4262 -0.2462
 6743TIP3    H120193   2.635   2.434   2.024 -0.3363  0.5286 -0.0135
 6743TIP3    H220194   2.596   2.385   1.886 -2.3274 -1.1018  1.0549
 6744TIP3   OH220195   4.256   2.076   1.343 -0.0460  0.0648  0.0049
 6744TIP3    H120196   4.316   2.110   1.409 -1.6195  0.2988  1.3752
 6744TIP3    H220197   4.303   2.088   1.260  2.0747 -0.4384  1.0413
 6745TIP3   OH220198   6.242   2.098   2.127 -0.5093 -0.1014  0.2606
 6745TIP3    H120199   6.217   2.087   2.036  0.3031  1.6060 -0.2149
 6745TIP3    H220200   6.311   2.033   2.142 -1.4057 -1.1327  0.0010
 6746TIP3   OH220201   3.327   3.450   1.552  0.6325  0.0747  0.4616
 6746TIP3    H120202   3.360   3.502   1.626  4.0326 -0.1544 -0.7064
 6746TIP3    H220203   3.238   3.481   1.539 -0.2506 -0.0331  4.7348
 6747TIP3   OH220204   4.832   2.775   0.162  0.0697 -0.0226 -0.9544
 6747TIP3    H120205   4.864   2.692   0.127  0.3170  0.1963 -1.2512
 6747TIP3    H220206   4.884   2.789   0.241 -0.3265 -0.3997 -0.6180
 6748TIP3   OH220207   0.243   4.709   4.712  0.1881 -0.2446  0.4223
 6748TIP3    H120208   0.183   4.783   4.705  0.3553 -0.2939 -3.8519
 6748TIP3    H220209   0.309   4.738   4.775 -0.5436  2.6595  0.0008
 6749TIP3   OH220210   3.510   1.602   1.967 -0.1604 -0.2339 -0.2763
 6749TIP3    H120211   3.450   1.627   2.037  1.9685  0.7388  1.3123
 6749TIP3    H220212   3.538   1.685   1.927  0.8845 -0.5745 -0.3003
 6750TIP3   OH220213   2.371   1.918   4.642 -0.2259  0.1937  0.2859
 6750TIP3    H120214   2.288   1.918   4.689  0.5166 -0.6560  1.6622
 6750TIP3    H220215   2.406   2.006   4.654 -1.7291  1.1830 -1.8910
 6751TIP3   OH220216   4.605   3.244   1.613  0.4802 -0.1977  0.2889
 6751TIP3    H120217   4.617   3.152   1.591  0.1037 -0.9013  2.6954
 6751TIP3    H220218   4.520   3.267   1.577 -0.4277 -1.4839  1.5119
 6752TIP3   OH220219   0.063   4.004   1.142  0.5367 -0.0354 -0.0045
 6752TIP3    H120220   0.032   4.079   1.090  0.9078  0.1044 -0.0309
 6752TIP3    H220221   0.066   3.932   1.079  0.2406 -0.0574  0.0054
 6753TIP3   OH220222   2.733   0.795   0.014  0.4765 -0.5393 -0.0813
 6753TIP3    H120223   2.697   0.837   0.092  0.9844 -1.3553  0.6201
 6753TIP3    H220224   2.678   0.825  -0.058  1.3765  2.0285  0.2203
 6754TIP3   OH220225   4.211   2.197   1.713 -0.1316  0.4999  0.2017
 6754TIP3    H120226   4.192   2.262   1.780 -0.8232 -0.2185  0.7152
 6754TIP3    H220227   4.139   2.204   1.651  0.3627  0.9699 -0.3389
 6755TIP3   OH220228   4.266   5.814   2.770 -0.0192  0.1955  0.0356
 6755TIP3    H120229   4.199   5.863   2.818 -0.6448  1.3349 -1.8884
 6755TIP3    H220230   4.222   5.734   2.742  0.3036 -0.4007  1.1567
 6756TIP3   OH220231   4.588   2.275   3.923  0.3141  0.0693  0.4339
 6756TIP3    H120232   4.598   2.286   3.828 -0.9569  0.0593  0.2879
 6756TIP3    H220233   4.610   2.361   3.959  0.0423  0.2953  0.0643
 6757TIP3   OH220234   6.592   2.526   0.424  0.3039 -0.5350  0.0452
 6757TIP3    H120235   6.664   2.463   0.416 -0.9687 -2.1871  0.8069
 6757TIP3    H220236   6.549   2.502   0.507  0.5895  2.2925  1.0928
 6758TIP3   OH220237   5.778   2.002   0.004  0.5252  0.5567 -0.3008
 6758TIP3    H120238   5.785   2.057   0.083  0.6548  1.6639 -1.0516
 6758TIP3    H220239   5.753   1.916   0.037 -1.0588  1.3876  0.8299
 6759TIP3   OH220240   1.576   2.220   2.586 -0.1570 -0.0889 -0.5675
 6759TIP3    H120241   1.564   2.222   2.492 -0.8237 -0.4082 -0.4906
 6759TIP3    H220242   1.648   2.159   2.600  0.6109  0.6989 -0.9239
 6760TIP3   OH220243   6.866   1.885   4.080 -0.7777 -0.0088 -0.1082
 6760TIP3    H120244   6.935   1.919   4.024 -2.1263  0.4554 -1.5699
 6760TIP3    H220245   6.793   1.867   4.020 -1.3447 -2.1161  1.1268
 6761TIP3   OH220246   0.666   0.948   1.127  0.2605 -0.5179 -0.2076
 6761TIP3    H120247   0.707   0.863   1.144 -1.1417 -0.7453  2.4838
 6761TIP3    H220248   0.695   0.970   1.038  3.2669 -2.2768  0.1764
 6762TIP3   OH220249   6.273   3.190   4.397 -0.1155  0.6101  0.5005
 6762TIP3    H120250   6.210   3.212   4.466  0.4469  1.2945  0.8119
 6762TIP3    H220251   6.357   3.181   4.443 -0.4321 -3.3996  0.5892
 6763TIP3   OH220252   4.430   0.654   3.525 -0.4840 -0.0342  0.3299
 6763TIP3    H120253   4.398   0.652   3.616 -0.3759 -0.0008  0.3686
 6763TIP3    H220254   4.462   0.565   3.509 -1.8141 -0.4520 -0.1456
 6764TIP3   OH220255   1.154   4.242   2.625 -0.6550  0.3016  0.2317
 6764TIP3    H120256   1.162   4.214   2.716 -0.1980  2.3120  0.8618
 6764TIP3    H220257   1.119   4.166   2.579  1.1656 -1.5042  1.6535
 6765TIP3   OH220258   2.391   3.658   1.379 -0.4139  0.2087 -0.1064
 6765TIP3    H120259   2.472   3.625   1.340  0.2633  0.2777  1.1868
 6765TIP3    H220260   2.323   3.598   1.350  0.2017 -0.1878 -0.7341
 6766TIP3   OH220261   3.656   5.162   3.634  0.3628  0.1259 -0.2218
 6766TIP3    H120262   3.634   5.098   3.702  0.8647 -3.4515 -3.0856
 6766TIP3    H220263   3.572   5.193   3.601 -0.1045 -1.9037 -1.1028
 6767TIP3   OH220264   7.028   5.574   1.842 -0.1075  0.6630  0.0120
 6767TIP3    H120265   7.018   5.659   1.884  0.6507 -0.0114  1.6276
 6767TIP3    H220266   6.939   5.552   1.812 -0.3675  1.8640 -0.1854
 6768TIP3   OH220267   5.850   4.531   2.628  0.2186  0.1159  0.3210
 6768TIP3    H120268   5.864   4.437   2.613  0.6940  0.3075 -0.4731
 6768TIP3    H220269   5.783   4.534   2.697  0.3238 -0.8033  0.4785
 6769TIP3   OH220270   6.793   5.337   4.928  0.0278 -0.1468 -0.3045
 6769TIP3    H120271   6.736   5.273   4.971  1.7320 -0.5405  1.4892
 6769TIP3    H220272   6.733   5.406   4.899 -1.4927 -1.0593  0.4936
 6770TIP3   OH220273   4.954   3.980   0.891  0.1375 -0.1143 -0.0079
 6770TIP3    H120274   4.862   3.968   0.913  0.7538 -3.6202  1.3157
 6770TIP3    H220275   4.989   4.031   0.964 -0.4103 -0.4082  0.4743
 6771TIP3   OH220276   2.725   4.978   2.418 -0.2898 -0.3032 -0.3332
 6771TIP3    H120277   2.633   5.000   2.427 -0.6923 -1.1064 -2.0642
 6771TIP3    H220278   2.728   4.918   2.344  1.6242 -0.3524 -0.2659
 6772TIP3   OH220279   1.685   6.463   5.672 -0.1401 -0.5360 -0.2177
 6772TIP3    H120280   1.699   6.369   5.681  2.0931 -0.3090 -0.8235
 6772TIP3    H220281   1.716   6.500   5.754 -0.3845 -0.2570 -0.2500
 6773TIP3   OH220282   5.113   1.941   3.502 -0.5040 -0.5885 -0.1539
 6773TIP3    H120283   5.072   1.882   3.564 -0.5939 -1.4339 -1.0014
 6773TIP3    H220284   5.071   2.026   3.517 -0.6126 -0.8082  0.8328
 6774TIP3   OH220285   5.163   0.052   1.165  0.0452  0.5157  0.3507
 6774TIP3    H120286   5.236   0.061   1.103  0.0562  1.4618  0.4809
 6774TIP3    H220287   5.155   0.139   1.204 -1.8948  0.7547 -0.4740
 6775TIP3   OH220288   2.052   5.438   0.126  0.1302  0.0164 -0.3295
 6775TIP3    H120289   2.046   5.534   0.125  0.2661  0.0276  0.0714
 6775TIP3    H220290   2.081   5.416   0.214  1.6487 -0.3034 -0.8778
 6776TIP3   OH220291   1.592   4.968   3.120  0.2970  0.7937  0.2255
 6776TIP3    H120292   1.498   4.956   3.134  0.3089  1.2708  0.7301
 6776TIP3    H220293   1.621   4.884   3.085 -0.9177  1.6581 -3.2110
 6777TIP3   OH220294   3.476   2.073   4.540  0.3138  0.0031 -0.7860
 6777TIP3    H120295   3.434   2.122   4.610 -0.3691 -0.0365 -1.1546
 6777TIP3    H220296   3.426   2.096   4.461 -0.8513 -2.2348 -0.7778
 6778TIP3   OH220297   3.833   1.819   5.312 -0.1419  0.3565  0.1673
 6778TIP3    H120298   3.925   1.794   5.299  0.0241  1.5064 -1.1678
 6778TIP3    H220299   3.800   1.758   5.378  1.2457 -0.8480 -0.2041
 6779TIP3   OH220300   1.565   5.372   4.017  0.2050  0.0342  0.4487
 6779TIP3    H120301   1.558   5.454   4.066 -0.1699  0.4490 -0.2842
 6779TIP3    H220302   1.517   5.308   4.071 -1.2335  0.7438  0.0777
 6780TIP3   OH220303   4.370   2.769   2.347 -0.6750 -0.6321  0.1188
 6780TIP3    H120304   4.370   2.715   2.268  0.8027 -1.2150  0.4848
 6780TIP3    H220305   4.461   2.766   2.378 -1.0875  0.1186  1.4795
 6781TIP3   OH220306   0.364   2.618   2.089 -0.1870 -0.2069  0.6918
 6781TIP3    H120307   0.308   2.637   2.014 -1.0521 -1.7120  0.9089
 6781TIP3    H220308   0.440   2.573   2.052 -0.8616 -1.4286  0.7287
 6782TIP3   OH220309   3.171   0.838   4.830 -0.0142  0.1211 -0.1131
 6782TIP3    H120310   3.260   0.870   4.812 -0.0334  1.2780  1.6266
 6782TIP3    H220311   3.142   0.801   4.746  2.4028 -1.0933 -0.5114
 6783TIP3   OH220312   1.016   1.622   3.425  0.2468  0.1429 -0.3866
 6783TIP3    H120313   1.043   1.549   3.481 -0.5662  0.5276  0.5226
 6783TIP3    H220314   0.997   1.694   3.485 -1.5538  0.2816 -1.0455
 6784TIP3   OH220315   1.154   4.287   0.356  0.4740 -0.1037 -0.1915
 6784TIP3    H120316   1.158   4.371   0.311  0.3555 -0.2592 -0.4936
 6784TIP3    H220317   1.236   4.282   0.405  0.7342 -0.0633 -0.6200
 6785TIP3   OH220318   5.289   5.948   5.754  0.3921  0.0817  0.6224
 6785TIP3    H120319   5.311   6.034   5.790 -0.3626  0.1858  0.8592
 6785TIP3    H220320   5.217   5.966   5.693  0.7039 -0.2864  0.1477
 6786TIP3   OH220321   3.164   0.582   3.756  0.2244  0.1070 -0.2801
 6786TIP3    H120322   3.096   0.607   3.694  1.5523 -0.5392 -2.1024
 6786TIP3    H220323   3.124   0.515   3.810 -0.6040 -0.2498 -1.3025
 6787TIP3   OH220324   6.360   2.670   0.044  0.2882  0.0715 -0.0651
 6787TIP3    H120325   6.294   2.673  -0.024  0.5535  2.1826 -0.2916
 6787TIP3    H220326   6.427   2.611   0.010  0.7332  1.5828 -1.9820
 6788TIP3   OH220327   4.172   5.626   1.497  0.0847 -0.2052  0.3842
 6788TIP3    H120328   4.207   5.661   1.579 -1.3589 -0.1071  0.9779
 6788TIP3    H220329   4.189   5.531   1.503 -0.4077 -0.2596  0.9999
 6789TIP3   OH220330   2.443   0.744   2.942 -0.3064 -0.0243 -0.7525
 6789TIP3    H120331   2.480   0.825   2.979 -0.9544  0.8557 -1.9547
 6789TIP3    H220332   2.508   0.677   2.962  0.9764  1.0791 -1.0297
 6790TIP3   OH220333   3.950   4.554   0.972  0.9949 -0.7109  0.1386
 6790TIP3    H120334   3.993   4.630   1.013  1.2982 -1.2497  0.8336
 6790TIP3    H220335   3.911   4.506   1.045  0.8458 -1.2511 -0.2908
 6791TIP3   OH220336   1.726   2.306   4.937  0.1176  0.5820 -0.2979
 6791TIP3    H120337   1.757   2.361   5.009  0.6739  0.9448 -0.8026
 6791TIP3    H220338   1.786   2.325   4.865  0.2044 -0.5474 -0.5418
 6792TIP3   OH220339   6.650   0.367   4.597 -0.5003 -0.6538  0.2148
 6792TIP3    H120340   6.634   0.285   4.643  2.3039 -1.3113  0.1498
 6792TIP3    H220341   6.742   0.363   4.570 -0.8107  1.6602 -1.5337
 6793TIP3   OH220342   3.902   0.803   3.155 -0.0554  0.2626  0.2544
 6793TIP3    H120343   3.905   0.713   3.188 -0.5082  0.8227  1.9252
 6793TIP3    H220344   3.986   0.815   3.111  0.2043 -0.8137  0.4261
 6794TIP3   OH220345   4.786   5.195   1.852 -0.0361 -0.2471  0.4234
 6794TIP3    H120346   4.881   5.203   1.862  0.0851 -0.6493 -0.3364
 6794TIP3    H220347   4.753   5.186   1.941  0.6333 -0.0560  0.6984
 6795TIP3   OH220348   6.275   6.410   1.502  0.1544 -0.0924  0.0616
 6795TIP3    H120349   6.219   6.469   1.553 -0.3876 -1.1355  0.7177
 6795TIP3    H220350   6.257   6.432   1.411  3.3648  3.9420  0.1275
 6796TIP3   OH220351   5.661   4.551   2.059 -0.2990 -0.3603  0.0706
 6796TIP3    H120352   5.706   4.620   2.108  2.7466 -2.4362  0.4547
 6796TIP3    H220353   5.647   4.590   1.972  2.2763  0.5032 -0.0635
 6797TIP3   OH220354   3.962   3.192   0.126 -0.2025 -0.1701  0.5818
 6797TIP3    H120355   4.031   3.229   0.071 -1.8710 -1.4150 -2.6303
 6797TIP3    H220356   3.998   3.108   0.156  0.8019  0.6041  1.6196
 6798TIP3   OH220357   0.080   2.839   4.606 -0.4977  0.0940  0.4803
 6798TIP3    H120358  -0.009   2.845   4.571 -0.2017  0.5451 -0.2025
 6798TIP3    H220359   0.110   2.752   4.579 -0.5410  0.1460  0.2608
 6799TIP3   OH220360   6.563   4.968   4.218  0.0785  0.3548  0.3852
 6799TIP3    H120361   6.576   4.875   4.236 -2.0464 -0.5473 -2.1858
 6799TIP3    H220362   6.610   4.983   4.136  1.4255  1.9433  1.3663
 6800TIP3   OH220363   5.926   5.599   4.768 -0.2541  0.2728 -0.4298
 6800TIP3    H120364   5.902   5.570   4.679 -0.3567 -0.2400 -0.2356
 6800TIP3    H220365   5.993   5.538   4.796  1.8585  2.0725 -1.2136
 6801TIP3   OH220366   6.366   1.235   3.234  0.6663  0.1012 -0.0090
 6801TIP3    H120367   6.309   1.160   3.250 -0.6072  1.3189  1.5341
 6801TIP3    H220368   6.427   1.205   3.167  0.2933 -2.3282  0.6416
 6802TIP3   OH220369   2.796   2.636   3.190 -0.5168  0.1148  0.2393
 6802TIP3    H120370   2.875   2.637   3.135 -1.1087 -0.9909 -0.6716
 6802TIP3    H220371   2.814   2.701   3.258  1.0105  0.1868 -0.1823
 6803TIP3   OH220372   6.921   3.734   0.899 -0.2387  0.5786  0.1057
 6803TIP3    H120373   6.844   3.677   0.903 -0.6861  1.1788  0.2106
 6803TIP3    H220374   6.964   3.723   0.984  0.3765 -0.5483 -0.3366
 6804TIP3   OH220375   2.240   6.520   4.838  0.5753  0.3170  0.3605
 6804TIP3    H120376   2.183   6.596   4.831  1.7004  1.0823 -1.0697
 6804TIP3    H220377   2.283   6.530   4.923  2.2375  2.4753 -0.6202
 6805TIP3   OH220378   5.879   0.832   3.807  0.5458 -0.1134  0.9582
 6805TIP3    H120379   5.786   0.853   3.816 -0.0768  0.7311 -4.3771
 6805TIP3    H220380   5.886   0.742   3.841 -2.8276 -1.1634 -0.6971
 6806TIP3   OH220381   1.178   1.694   4.878 -0.1419 -0.3148  0.3210
 6806TIP3    H120382   1.166   1.718   4.970 -2.5232 -0.5586  0.1318
 6806TIP3    H220383   1.201   1.776   4.835  0.4951 -0.1026  1.0220
 6807TIP3   OH220384   3.981   2.588   1.199 -0.4236 -0.1173  0.5069
 6807TIP3    H120385   3.900   2.548   1.167 -0.2830  0.6137 -0.8493
 6807TIP3    H220386   4.043   2.579   1.127 -0.0011  1.3551  0.6403
 6808TIP3   OH220387   5.563   0.505   3.672  0.4584 -0.2660  0.4982
 6808TIP3    H120388   5.634   0.560   3.707  0.0911 -0.4760  1.6283
 6808TIP3    H220389   5.484   0.540   3.712  0.1936 -1.4712  1.0782
 6809TIP3   OH220390   3.694   0.999   1.395  0.1037 -0.4057  0.4197
 6809TIP3    H120391   3.617   0.946   1.412 -0.9895  0.9552 -0.1511
 6809TIP3    H220392   3.716   1.037   1.480 -0.5636  0.1184  0.3646
 6810TIP3   OH220393   5.620   5.764   0.350 -0.0513 -0.0243  0.1076
 6810TIP3    H120394   5.630   5.676   0.313  1.2569 -0.7604  2.0591
 6810TIP3    H220395   5.683   5.767   0.422 -1.6421  1.7263  1.5133
 6811TIP3   OH220396   4.985   5.085   2.271  0.1510 -0.0650  0.9690
 6811TIP3    H120397   5.080   5.073   2.264  0.3386  1.3037  1.0421
 6811TIP3    H220398   4.971   5.104   2.364  0.0348  1.5468  0.6367
 6812TIP3   OH220399   2.880   0.584   5.278 -0.0121 -0.3700  0.0570
 6812TIP3    H120400   2.946   0.638   5.321  0.2297 -1.6379  1.3881
 6812TIP3    H220401   2.927   0.538   5.208 -0.1188  0.7639 -0.7735
 6813TIP3   OH220402   2.276   4.585   0.698 -0.0671 -0.2260 -0.2467
 6813TIP3    H120403   2.223   4.542   0.765 -0.6611  1.2002  0.2290
 6813TIP3    H220404   2.334   4.516   0.665  1.4264 -0.6517  2.8918
 6814TIP3   OH220405   1.587   1.089   0.505 -0.1107  0.0159 -0.6548
 6814TIP3    H120406   1.539   1.161   0.547  1.1386 -0.1692  1.1698
 6814TIP3    H220407   1.642   1.133   0.440 -1.7084  0.3477 -1.8717
 6815TIP3   OH220408   2.125   4.528   5.504  0.7146 -0.4081  0.1406
 6815TIP3    H120409   2.195   4.590   5.486  0.7691 -0.6684 -0.5674
 6815TIP3    H220410   2.094   4.551   5.592  0.4071  0.9069 -0.3041
 6816TIP3   OH220411   3.772   5.289   4.419  0.5269  0.1860 -0.3800
 6816TIP3    H120412   3.763   5.206   4.466  1.8320  0.3222  0.1473
 6816TIP3    H220413   3.705   5.285   4.351  1.1505 -1.6990 -0.9529
 6817TIP3   OH220414   7.026   5.438   2.810 -0.3302  0.6147  0.2498
 6817TIP3    H120415   7.010   5.392   2.727 -1.2347  0.0483  0.7354
 6817TIP3    H220416   7.073   5.518   2.784 -1.4245  0.9055 -0.9064
 6818TIP3   OH220417   0.019   3.264   2.068  0.2670 -0.8019  0.1708
 6818TIP3    H120418   0.004   3.180   2.024 -0.2824 -1.1523  1.0133
 6818TIP3    H220419   0.098   3.299   2.026 -1.5292  0.0244 -2.7716
 6819TIP3   OH220420   2.537   4.793   0.233 -0.1435 -0.5661  0.2263
 6819TIP3    H120421   2.577   4.859   0.290 -1.1984 -0.9949  1.5239
 6819TIP3    H220422   2.604   4.773   0.169  0.0498  2.1075 -0.5237
 6820TIP3   OH220423   6.798   5.706   0.375  0.1334  0.1077  0.7072
 6820TIP3    H120424   6.833   5.630   0.420  0.2931 -0.9369 -1.0739
 6820TIP3    H220425   6.752   5.670   0.299 -0.2608  1.7574  0.1201
 6821TIP3   OH220426   6.464   5.755   3.630  0.2743 -0.4633 -0.0967
 6821TIP3    H120427   6.493   5.716   3.547  0.2748 -0.6717  0.0011
 6821TIP3    H220428   6.371   5.772   3.617  0.4128  0.0906 -0.3660
 6822TIP3   OH220429   6.703   4.608   4.722  0.0749 -0.0238 -0.4539
 6822TIP3    H120430   6.661   4.580   4.641 -1.0610  0.7516 -0.1594
 6822TIP3    H220431   6.634   4.602   4.788 -0.2630  3.2991 -0.3388
 6823TIP3   OH220432   6.454   3.143   3.440 -0.2152  0.3020 -0.8760
 6823TIP3    H120433   6.493   3.091   3.369 -0.7434  0.0511 -0.9866
 6823TIP3    H220434   6.506   3.121   3.517 -1.6836 -2.0263 -0.4458
 6824TIP3   OH220435   1.423   1.654   1.927  0.0580  0.0759 -0.5990
 6824TIP3    H120436   1.363   1.594   1.973  0.7001  0.7027  1.1189
 6824TIP3    H220437   1.388   1.658   1.838 -1.2921 -1.1211 -0.1699
 6825TIP3   OH220438   6.500   0.451   2.658 -0.2736  0.1964  0.0249
 6825TIP3    H120439   6.439   0.403   2.714 -0.4267  0.0990 -0.2202
 6825TIP3    H220440   6.465   0.540   2.655 -0.2942  0.1888  0.0445
 6826TIP3   OH220441   4.446   4.413   1.764 -0.0719  0.2065 -0.3878
 6826TIP3    H120442   4.536   4.431   1.739  0.0369  0.1568 -0.0438
 6826TIP3    H220443   4.444   4.318   1.779 -0.0062  0.2994  0.2619
 6827TIP3   OH220444   3.968   3.142   3.297 -0.0818 -0.6497  0.2460
 6827TIP3    H120445   4.049   3.191   3.308  1.6018 -3.4229  1.1368
 6827TIP3    H220446   3.931   3.173   3.214  2.0239  0.4786 -0.3210
 6828TIP3   OH220447   2.013   0.586   5.815 -0.3210 -0.0783 -0.0709
 6828TIP3    H120448   2.077   0.624   5.755 -1.4047  1.5848 -0.2209
 6828TIP3    H220449   2.055   0.590   5.900  1.0929 -2.1398 -0.5824
 6829TIP3   OH220450   2.075   0.245   3.170 -0.3351  0.1466  0.0210
 6829TIP3    H120451   2.034   0.293   3.098 -0.5390 -0.5046 -0.2971
 6829TIP3    H220452   2.068   0.153   3.146 -0.0296 -0.0578  0.6767
 6830TIP3   OH220453   2.246   4.647   1.034 -0.2895  0.5888 -0.1896
 6830TIP3    H120454   2.239   4.741   1.054  0.0698  0.5456  0.1459
 6830TIP3    H220455   2.326   4.619   1.078  0.2599  0.3804 -1.3052
 6831TIP3   OH220456   5.908   3.437   4.641 -0.5871  0.6143  0.6142
 6831TIP3    H120457   5.990   3.465   4.599 -0.7205 -1.4706 -1.2243
 6831TIP3    H220458   5.844   3.437   4.570 -1.4071 -0.7903  1.3299
 6832TIP3   OH220459   4.811   1.398   5.404 -0.0663 -0.3119 -0.3115
 6832TIP3    H120460   4.738   1.459   5.409 -1.2973 -1.7127 -0.4786
 6832TIP3    H220461   4.772   1.312   5.420  1.4970 -1.1339 -0.6686
 6833TIP3   OH220462   7.193   4.341   5.187  0.2609  0.0019  0.0541
 6833TIP3    H120463   7.260   4.403   5.216 -1.6056  2.1674 -0.0511
 6833TIP3    H220464   7.146   4.387   5.118 -0.3968 -2.0640 -0.9557
 6834TIP3   OH220465   4.767   6.055   1.787  0.0208  0.2852 -0.0555
 6834TIP3    H120466   4.772   6.037   1.880 -0.4500  0.1261 -0.0584
 6834TIP3    H220467   4.815   5.983   1.746  2.7830  1.8359  0.1773
 6835TIP3   OH220468   0.350   5.683   5.348  0.3519  0.1948  0.7142
 6835TIP3    H120469   0.303   5.715   5.271 -1.4726 -0.1446  1.6231
 6835TIP3    H220470   0.405   5.757   5.375  1.5585  0.0837 -1.2744
 6836TIP3   OH220471   0.206   5.733   1.754 -0.9584  0.2662  0.1767
 6836TIP3    H120472   0.211   5.709   1.847 -1.3384 -0.1396  0.0962
 6836TIP3    H220473   0.253   5.663   1.709 -2.6192 -0.7078 -0.1192
 6837TIP3   OH220474   7.011   5.107   4.598  0.0395  0.0557 -0.0781
 6837TIP3    H120475   7.022   5.156   4.679  1.3159 -0.3687  0.0391
 6837TIP3    H220476   6.993   5.017   4.627  2.7949 -0.6061 -0.1659
 6838TIP3   OH220477   5.049   1.813   3.237 -0.4586 -0.1221  0.6034
 6838TIP3    H120478   5.081   1.861   3.314  1.7933 -0.6114  0.0317
 6838TIP3    H220479   5.033   1.881   3.172  2.9720 -0.0035 -0.2917
 6839TIP3   OH220480   3.051   1.161   3.124 -0.4797  0.1633  0.0539
 6839TIP3    H120481   3.102   1.080   3.117 -0.8423 -0.0231 -0.5231
 6839TIP3    H220482   3.082   1.215   3.051 -1.8917 -0.4110 -1.0267
 6840TIP3   OH220483   5.668   2.097   0.996 -0.6061  0.1883  0.5146
 6840TIP3    H120484   5.748   2.086   1.048  0.3999 -1.1155 -1.2397
 6840TIP3    H220485   5.694   2.153   0.923 -0.6528 -2.0056 -1.2785
 6841TIP3   OH220486   4.946   2.346   4.885  0.6760 -0.3581  0.7355
 6841TIP3    H120487   4.919   2.433   4.856  0.4509 -0.8776 -0.6961
 6841TIP3    H220488   4.913   2.339   4.975 -2.3405 -0.2502 -0.2603
 6842TIP3   OH220489   3.103   1.132   1.080 -0.7197  0.4593 -0.5338
 6842TIP3    H120490   3.153   1.120   1.161 -0.0085 -0.8989 -1.1483
 6842TIP3    H220491   3.145   1.206   1.037  1.8239 -1.5350 -1.7430
 6843TIP3   OH220492   3.671   3.311   0.467  0.1707 -0.0213 -0.1311
 6843TIP3    H120493   3.643   3.397   0.498  1.6917 -0.3547  2.4991
 6843TIP3    H220494   3.762   3.324   0.439  0.4222 -0.7362  0.3177
 6844TIP3   OH220495   0.520   2.577   5.815  0.2957  0.1009 -0.3073
 6844TIP3    H120496   0.530   2.636   5.890 -1.9976  1.4350 -0.9524
 6844TIP3    H220497   0.609   2.547   5.796  1.1848  1.2763  1.7007
 6845TIP3   OH220498   0.829   3.223   4.318  0.3224  0.2028 -0.0968
 6845TIP3    H120499   0.751   3.177   4.288 -1.4588  2.6219  0.5418
 6845TIP3    H220500   0.876   3.246   4.238  1.2106 -2.4531 -0.4367
 6846TIP3   OH220501   2.844   3.841   3.211  0.4785  0.0305 -0.0505
 6846TIP3    H120502   2.763   3.791   3.202  0.0898  0.6216  0.0806
 6846TIP3    H220503   2.893   3.794   3.279 -0.1009  0.1074  0.4360
 6847TIP3   OH220504   4.051   4.317   4.536 -0.0504  0.3748 -0.5284
 6847TIP3    H120505   4.134   4.328   4.583  0.2394 -1.2426 -0.5931
 6847TIP3    H220506   4.077   4.282   4.451 -0.7896  0.0033 -0.6082
 6848TIP3   OH220507   0.521   5.128   5.507 -0.1681 -0.7733 -0.6027
 6848TIP3    H120508   0.517   5.037   5.480  0.0257 -1.1416  0.5812
 6848TIP3    H220509   0.510   5.126   5.602 -2.9435  0.6309 -0.7712
 6849TIP3   OH220510   4.350   2.668   2.062  0.1929  0.1700  0.5981
 6849TIP3    H120511   4.392   2.582   2.061  1.7304  0.8311  2.0477
 6849TIP3    H220512   4.351   2.697   1.971  2.8591  0.0970  0.5376
 6850TIP3   OH220513   2.636   5.187   5.424  0.1645 -0.2706  1.2087
 6850TIP3    H120514   2.545   5.158   5.434  0.2422 -1.1333 -0.3423
 6850TIP3    H220515   2.663   5.211   5.513 -1.9184  1.0981  1.5489
 6851TIP3   OH220516   2.176   0.809   2.536  0.6152 -0.2437 -0.2358
 6851TIP3    H120517   2.088   0.824   2.570  0.5854  1.0759 -0.8372
 6851TIP3    H220518   2.234   0.850   2.601  0.7075 -0.0138 -0.4612
 6852TIP3   OH220519   1.721   0.542   0.291 -0.4725  0.0174 -0.1331
 6852TIP3    H120520   1.709   0.587   0.208 -1.1696 -1.3686 -0.8191
 6852TIP3    H220521   1.814   0.521   0.294 -0.4452  0.0700 -0.5530
 6853TIP3   OH220522   0.433   0.190   4.794 -1.1013  0.2010  0.5407
 6853TIP3    H120523   0.359   0.133   4.774 -0.4742  0.1432 -1.8993
 6853TIP3    H220524   0.397   0.279   4.786 -1.0011  0.1704 -0.3237
 6854TIP3   OH220525   5.181   0.671   3.181 -0.0694  0.4703  0.4616
 6854TIP3    H120526   5.254   0.723   3.216  0.8335  1.0757 -2.1316
 6854TIP3    H220527   5.167   0.603   3.247  1.0710  1.8831  2.2707
 6855TIP3   OH220528   4.364   1.849   5.081 -0.5012 -0.1873  0.5606
 6855TIP3    H120529   4.332   1.899   5.006 -1.8807 -2.8119 -0.7781
 6855TIP3    H220530   4.294   1.855   5.146 -1.0374 -0.9635  0.0755
 6856TIP3   OH220531   1.376   5.932   3.509 -0.3332  0.0505 -0.1634
 6856TIP3    H120532   1.319   5.874   3.561  2.0013 -1.3750  0.9704
 6856TIP3    H220533   1.420   5.873   3.448  1.3980  0.7359  0.3583
 6857TIP3   OH220534   6.823   6.323   3.666 -0.0289  0.2039  0.3372
 6857TIP3    H120535   6.893   6.271   3.705  1.1825 -0.6980 -2.7499
 6857TIP3    H220536   6.851   6.414   3.678  2.0342 -0.1448 -1.2954
 6858TIP3   OH220537   6.266   6.674   0.953  0.0437 -0.3511 -0.3569
 6858TIP3    H120538   6.197   6.632   1.003  0.4667 -1.7952 -0.9490
 6858TIP3    H220539   6.235   6.764   0.939 -2.0804 -1.1723 -1.2761
 6859TIP3   OH220540   0.135   2.435   4.636  0.4004 -0.3094 -0.5777
 6859TIP3    H120541   0.131   2.340   4.644  0.1519 -0.2744 -0.2934
 6859TIP3    H220542   0.071   2.456   4.567  1.3407 -0.4558 -1.5169
 6860TIP3   OH220543   7.089   5.113   1.116 -0.2981  0.4054  0.1813
 6860TIP3    H120544   7.179   5.143   1.130  0.1411 -0.1539 -1.3153
 6860TIP3    H220545   7.044   5.189   1.080 -0.5523  0.8166  1.3358
 6861TIP3   OH220546   5.716   0.298   3.234  0.2949  0.3820 -0.1913
 6861TIP3    H120547   5.742   0.316   3.325 -0.1102 -1.0925  0.2474
 6861TIP3    H220548   5.775   0.228   3.206 -0.8020 -0.4719 -0.4151
 6862TIP3   OH220549   1.415   3.060   3.374 -0.0630  0.0503 -0.0907
 6862TIP3    H120550   1.450   3.148   3.387 -0.7113 -0.0135  2.5414
 6862TIP3    H220551   1.321   3.073   3.362 -0.1276 -0.2765  0.0514
 6863TIP3   OH220552   5.050   1.599   4.837  0.4911  0.1240 -0.2686
 6863TIP3    H120553   4.957   1.584   4.856  0.6999  0.8292  1.4984
 6863TIP3    H220554   5.096   1.562   4.912  1.4941  1.7056 -0.0493
 6864TIP3   OH220555   5.177   6.650   3.438  0.1812  0.5296 -0.1867
 6864TIP3    H120556   5.108   6.715   3.425 -1.0459 -0.5907  0.4792
 6864TIP3    H220557   5.207   6.665   3.527  0.1088  0.3965 -0.1390
 6865TIP3   OH220558   7.063   0.956   1.182 -0.0248 -0.2146  0.3936
 6865TIP3    H120559   6.985   0.919   1.141  0.7379  0.2064 -1.5506
 6865TIP3    H220560   7.106   0.882   1.224  0.4431 -1.2110 -1.7331
 6866TIP3   OH220561   1.780   0.521   4.957  0.6192  0.0016 -0.5085
 6866TIP3    H120562   1.844   0.581   4.920  1.7431 -0.8386  0.0428
 6866TIP3    H220563   1.733   0.574   5.022  0.6733  0.6356 -0.9698
 6867TIP3   OH220564   2.355   5.912   2.676  0.1131  0.2700  0.3814
 6867TIP3    H120565   2.387   5.995   2.641 -0.1233 -0.1917 -0.9930
 6867TIP3    H220566   2.264   5.930   2.701  0.4376  0.7362  1.2940
 6868TIP3   OH220567   3.652   0.414   1.667  0.2320  0.0683 -1.1299
 6868TIP3    H120568   3.672   0.506   1.685  1.9443 -0.2572 -1.2304
 6868TIP3    H220569   3.736   0.369   1.674 -0.8604 -1.8624  0.9714
 6869TIP3   OH220570   1.274   0.834   5.717 -0.3701  0.0038  0.0101
 6869TIP3    H120571   1.233   0.747   5.717 -0.3679  0.0029  0.2332
 6869TIP3    H220572   1.353   0.823   5.770  0.8041 -0.4070 -1.7162
 6870TIP3   OH220573   4.731   5.771   2.918  0.3996 -0.3973 -0.0167
 6870TIP3    H120574   4.660   5.809   2.970  0.1620  2.1579 -1.9645
 6870TIP3    H220575   4.685   5.722   2.849  0.6779 -2.5905  1.3026
 6871TIP3   OH220576   6.877   0.047   4.590 -0.5024 -0.0659 -0.1034
 6871TIP3    H120577   6.851   0.116   4.529  3.4330 -0.7098 -2.8641
 6871TIP3    H220578   6.918   0.093   4.663 -0.7905  0.5736 -0.3391
 6872TIP3   OH220579   6.750   2.770   2.553  0.2054  0.1421 -0.1770
 6872TIP3    H120580   6.791   2.709   2.614 -1.1202 -0.6420 -0.0366
 6872TIP3    H220581   6.719   2.843   2.608 -1.0248 -0.5831  0.1344
 6873TIP3   OH220582   2.041   0.192   1.570  1.0706 -0.1159 -0.0805
 6873TIP3    H120583   2.078   0.274   1.535  1.3674  0.1153  0.7441
 6873TIP3    H220584   1.964   0.220   1.620  1.8059 -0.1836  1.1532
 6874TIP3   OH220585   4.860   4.825   1.999 -0.5572  0.1430  0.0934
 6874TIP3    H120586   4.914   4.746   2.010  1.3794  1.0761 -1.7959
 6874TIP3    H220587   4.772   4.798   2.022 -0.2704 -3.0480 -2.0081
 6875TIP3   OH220588   0.242   5.803   3.022 -0.3668 -0.2495  0.2340
 6875TIP3    H120589   0.275   5.856   3.095  0.5292 -1.5866  0.8357
 6875TIP3    H220590   0.242   5.713   3.055 -1.3729 -0.7110 -0.9314
 6876TIP3   OH220591   7.104   6.113   4.974 -0.1101 -0.4621  0.5638
 6876TIP3    H120592   7.166   6.083   5.041  0.1988  1.9141  1.4164
 6876TIP3    H220593   7.035   6.157   5.023 -0.5515  0.1752 -0.6051
 6877TIP3   OH220594   4.857   0.237   2.296 -0.2291  0.4092  0.1463
 6877TIP3    H120595   4.866   0.141   2.297 -0.1596  0.3849 -1.2000
 6877TIP3    H220596   4.899   0.264   2.214  0.4068  1.6699  0.8669
 6878TIP3   OH220597   3.271   1.655   4.428 -0.1309 -0.1426 -0.0835
 6878TIP3    H120598   3.345   1.596   4.414 -0.3083 -0.4603  0.2995
 6878TIP3    H220599   3.289   1.695   4.513 -0.5774 -0.4859  0.1732
 6879TIP3   OH220600   6.044   4.125   1.332 -0.2157  0.0876  0.4173
 6879TIP3    H120601   5.995   4.207   1.323 -1.3054 -0.4671  1.1173
 6879TIP3    H220602   6.103   4.140   1.405 -0.1361  0.3718  0.2955
 6880TIP3   OH220603   3.986   6.521   5.079 -0.4279  0.3085 -0.5836
 6880TIP3    H120604   3.939   6.532   4.996  0.2532 -0.1086 -1.0394
 6880TIP3    H220605   4.037   6.441   5.066  0.2244  0.6292 -0.0204
 6881TIP3   OH220606   2.267   6.304   0.563 -0.5735 -0.1444 -0.0902
 6881TIP3    H120607   2.219   6.229   0.598  1.1006 -3.1464 -3.5297
 6881TIP3    H220608   2.346   6.310   0.618 -1.3085 -0.0369  0.9831
 6882TIP3   OH220609   0.479   3.932   1.212 -0.2844  0.1052 -0.6152
 6882TIP3    H120610   0.555   3.900   1.163  1.0893  0.4511  1.1958
 6882TIP3    H220611   0.411   3.866   1.195  1.2561 -1.7125 -0.1493
 6883TIP3   OH220612   1.826   4.037   0.467  0.1762  0.2740  0.0564
 6883TIP3    H120613   1.869   3.953   0.455  1.2108  0.8080 -0.1497
 6883TIP3    H220614   1.743   4.017   0.511  1.0698 -0.6983  1.3376
 6884TIP3   OH220615   2.372   6.813   4.577  0.3102  0.0014 -0.6951
 6884TIP3    H120616   2.276   6.811   4.574  0.2295  2.0747 -1.3191
 6884TIP3    H220617   2.400   6.750   4.511 -0.5365 -2.2714  0.9937
 6885TIP3   OH220618   3.997   2.024   2.471  0.0738 -0.1971 -0.2012
 6885TIP3    H120619   3.954   2.110   2.471  0.8623  0.2488 -1.8857
 6885TIP3    H220620   4.042   2.020   2.555  0.2250  1.1653 -0.1866
 6886TIP3   OH220621   1.580   2.444   5.302 -0.8296  0.0486  0.6702
 6886TIP3    H120622   1.533   2.525   5.326  0.6936  0.6211  1.8720
 6886TIP3    H220623   1.649   2.473   5.243 -0.2861 -0.3609  1.0918
 6887TIP3   OH220624   2.263   2.676   3.653 -0.2514  0.2417 -0.2829
 6887TIP3    H120625   2.177   2.701   3.688 -0.8246 -1.2543 -0.5127
 6887TIP3    H220626   2.298   2.615   3.719  0.9243  1.2896  0.1025
 6888TIP3   OH220627   1.903   3.692   5.240 -0.5703  0.3433 -0.7631
 6888TIP3    H120628   1.859   3.754   5.298  0.6811  0.0862  0.5365
 6888TIP3    H220629   1.842   3.618   5.234 -1.0706  0.7204 -0.4258
 6889TIP3   OH220630   6.784   1.439   3.692 -0.1445 -0.2147  0.4585
 6889TIP3    H120631   6.876   1.429   3.717  0.1279  0.1290 -0.3721
 6889TIP3    H220632   6.747   1.497   3.760  0.2005 -0.5095  0.9028
 6890TIP3   OH220633   1.637   5.219   3.215 -0.0648  0.1041 -0.7029
 6890TIP3    H120634   1.616   5.130   3.186  1.5654 -0.0384 -1.5543
 6890TIP3    H220635   1.722   5.237   3.175  1.1787  0.8309  2.1017
 6891TIP3   OH220636   6.645   4.180   1.380 -0.3542 -1.1159 -0.2763
 6891TIP3    H120637   6.619   4.211   1.467  0.6056  0.8949 -0.6624
 6891TIP3    H220638   6.578   4.214   1.321 -0.8328 -2.2187 -0.4022
 6892TIP3   OH220639   3.774   6.134   4.177 -0.3540 -0.2253  0.1775
 6892TIP3    H120640   3.792   6.105   4.266 -0.3894  0.3869  0.3914
 6892TIP3    H220641   3.681   6.116   4.164 -0.9824  1.9591  1.1762
 6893TIP3   OH220642   4.516   1.590   3.981 -0.6118 -0.7347  0.2467
 6893TIP3    H120643   4.471   1.674   3.977  1.2199  0.2472 -1.5352
 6893TIP3    H220644   4.488   1.542   3.903 -0.3170 -1.0454  0.3246
 6894TIP3   OH220645   1.979   0.023   1.336  0.4273 -0.0235 -0.4495
 6894TIP3    H120646   2.010   0.065   1.256  1.0459 -1.2427 -0.8745
 6894TIP3    H220647   2.006   0.083   1.406  1.5889  0.1379 -1.0084
 6895TIP3   OH220648   3.705   0.571   3.002  0.2957 -0.0036 -0.2087
 6895TIP3    H120649   3.689   0.606   3.090  0.2421  0.9149 -0.5665
 6895TIP3    H220650   3.799   0.556   2.998  0.4975  1.2550 -0.4455
 6896TIP3   OH220651   3.815   4.416   2.641  0.2452 -0.0025 -0.0676
 6896TIP3    H120652   3.747   4.441   2.703 -0.8407  0.7753 -1.5136
 6896TIP3    H220653   3.769   4.363   2.575  1.4689 -1.2587  0.0319
 6897TIP3   OH220654   4.691   6.533   4.585 -0.0175 -0.3440  0.3419
 6897TIP3    H120655   4.662   6.571   4.668  1.0416  0.2694  0.4485
 6897TIP3    H220656   4.779   6.569   4.571  0.3284 -1.4385 -0.4190
 6898TIP3   OH220657   6.789   2.412   1.141  0.3402  0.2030 -0.3683
 6898TIP3    H120658   6.768   2.319   1.146  0.5105  0.1567 -0.5332
 6898TIP3    H220659   6.861   2.417   1.079 -0.1992  0.5347 -0.9800
 6899TIP3   OH220660   2.683   4.688   4.968 -0.6288 -0.3983 -0.2274
 6899TIP3    H120661   2.678   4.635   5.047 -0.8585 -0.0529 -0.0065
 6899TIP3    H220662   2.738   4.638   4.909  2.0737  0.6684  1.2130
 6900TIP3   OH220663   4.593   3.211   4.934 -0.0566 -0.0525  0.4696
 6900TIP3    H120664   4.609   3.117   4.920 -2.1000 -1.0131  3.5844
 6900TIP3    H220665   4.673   3.254   4.903  0.9163 -2.7639 -1.1592
 6901TIP3   OH220666   0.999   6.227   0.872 -0.0855  0.0253  0.4977
 6901TIP3    H120667   1.043   6.310   0.853 -0.1394  0.2285  1.2202
 6901TIP3    H220668   1.006   6.218   0.967 -2.6532  0.6639  0.8111
 6902TIP3   OH220669   5.555   2.426   3.176  0.0943  0.1589  0.3651
 6902TIP3    H120670   5.642   2.438   3.137  0.5165 -2.4549  0.2966
 6902TIP3    H220671   5.495   2.467   3.114  1.1751  1.0204 -0.1485
 6903TIP3   OH220672   4.203   2.389   2.797  0.3109 -0.0689  0.3391
 6903TIP3    H120673   4.138   2.452   2.766  0.0005  0.3366  1.7395
 6903TIP3    H220674   4.285   2.438   2.799 -0.0846  0.6077  2.2468
 6904TIP3   OH220675   1.055   6.216   0.596 -0.3710  0.1595 -0.2672
 6904TIP3    H120676   1.042   6.199   0.689 -1.1336  1.6001 -0.0843
 6904TIP3    H220677   1.071   6.310   0.591 -2.6751  0.5518 -1.7842
 6905TIP3   OH220678   0.500   6.088   2.347 -0.2224  0.0617 -0.3164
 6905TIP3    H120679   0.450   6.169   2.353  0.3068  0.2958  1.5414
 6905TIP3    H220680   0.577   6.111   2.295  0.0766  0.8267  0.4610
 6906TIP3   OH220681   1.140   4.485   0.981 -0.3501  0.6747  0.6590
 6906TIP3    H120682   1.089   4.451   1.054 -0.8470  1.6831  0.7866
 6906TIP3    H220683   1.183   4.563   1.015  1.5478 -0.2919  0.6489
 6907TIP3   OH220684   0.155   5.453   5.868 -0.9187  0.7703 -0.3281
 6907TIP3    H120685   0.200   5.496   5.795 -1.3118 -0.1073 -1.1047
 6907TIP3    H220686   0.225   5.421   5.924 -0.6033  2.6779  0.4645
 6908TIP3   OH220687   4.255   1.973   4.514 -0.0450 -0.0435  0.3369
 6908TIP3    H120688   4.265   1.878   4.526  0.1352  0.2421  3.0700
 6908TIP3    H220689   4.333   2.000   4.466  0.4115 -1.1255  0.4446
 6909TIP3   OH220690   6.337   0.267   3.589 -0.3982 -0.6166 -0.3619
 6909TIP3    H120691   6.276   0.330   3.552  0.3993  0.9208  0.8145
 6909TIP3    H220692   6.321   0.269   3.683 -0.0212 -1.8235 -0.2494
 6910TIP3   OH220693   2.141   6.011   1.501  0.1900  0.2951  0.1723
 6910TIP3    H120694   2.204   5.959   1.552  0.9137  0.0511 -0.9409
 6910TIP3    H220695   2.190   6.088   1.474  0.3224 -0.3465 -1.5021
 6911TIP3   OH220696   1.365   5.797   5.851 -0.6016 -0.3411  0.3269
 6911TIP3    H120697   1.340   5.867   5.792  4.1540  0.7230 -0.8512
 6911TIP3    H220698   1.317   5.815   5.932 -2.5227  1.8491 -1.1875
 6912TIP3   OH220699   5.092   5.742   1.669  0.1629 -0.1429 -0.6906
 6912TIP3    H120700   5.076   5.662   1.621 -0.2966  0.8006 -2.1701
 6912TIP3    H220701   5.078   5.812   1.605  2.2925  1.0617  0.0503
 6913TIP3   OH220702   1.306   6.703   4.847 -0.0411  0.4969 -0.8677
 6913TIP3    H120703   1.241   6.745   4.903  0.1821 -0.5348  0.1941
 6913TIP3    H220704   1.291   6.741   4.760 -1.7508  0.6171 -0.5554
 6914TIP3   OH220705   6.980   1.745   4.293  0.5050 -0.4544  0.2707
 6914TIP3    H120706   7.044   1.815   4.307 -1.2994  1.1557  0.9370
 6914TIP3    H220707   6.933   1.772   4.213 -3.1761  1.6664  2.8552
 6915TIP3   OH220708   6.363   2.930   0.448  0.2645  0.4752  0.0698
 6915TIP3    H120709   6.435   2.878   0.412  1.1134  1.6804 -0.0273
 6915TIP3    H220710   6.332   2.879   0.522  0.5137 -0.5697 -0.5162
 6916TIP3   OH220711   1.416   2.224   3.263  0.6370 -0.0957 -0.2862
 6916TIP3    H120712   1.446   2.309   3.231 -1.8427  0.8637 -0.2659
 6916TIP3    H220713   1.353   2.194   3.197  0.0472 -1.0024  0.6563
 6917TIP3   OH220714   2.792   6.564   3.646 -0.4107  0.0811 -0.1322
 6917TIP3    H120715   2.799   6.659   3.645 -0.1856  0.0639 -0.2513
 6917TIP3    H220716   2.870   6.534   3.599  0.9531 -0.2408  2.1987
 6918TIP3   OH220717   0.594   1.273   4.618  0.6768 -0.6000  0.3612
 6918TIP3    H120718   0.572   1.218   4.693  0.4309  0.3604  1.0078
 6918TIP3    H220719   0.689   1.265   4.610  0.5382 -2.0173 -0.2815
 6919TIP3   OH220720   6.421   5.961   3.160 -0.4587 -0.0061 -0.1776
 6919TIP3    H120721   6.342   5.914   3.187  0.0751 -0.4108  0.7223
 6919TIP3    H220722   6.464   5.984   3.243  0.5007 -0.0257 -0.6616
 6920TIP3   OH220723   3.749   3.165   5.753 -0.1832  0.4345  0.0098
 6920TIP3    H120724   3.824   3.224   5.766  1.6166 -1.1613 -2.2736
 6920TIP3    H220725   3.770   3.088   5.806 -1.5239  0.9413  1.3506
 6921TIP3   OH220726   1.317   6.365   1.019 -0.5717 -0.3296 -0.5296
 6921TIP3    H120727   1.234   6.411   1.030 -0.9125 -1.1292  0.4336
 6921TIP3    H220728   1.359   6.369   1.106 -0.5245 -1.6318 -0.4622
 6922TIP3   OH220729   4.679   5.237   3.152  0.7116 -0.1304  0.0779
 6922TIP3    H120730   4.765   5.224   3.113  0.1825 -0.5995 -0.9609
 6922TIP3    H220731   4.626   5.165   3.117 -0.5196  1.0381 -0.5334
 6923TIP3   OH220732   7.065   0.048   5.834  0.4952  0.6073  0.0906
 6923TIP3    H120733   7.118   0.107   5.888  1.8103  0.8536 -1.4150
 6923TIP3    H220734   7.127  -0.015   5.799 -0.8210 -1.5469  1.3677
 6924TIP3   OH220735   4.446   3.652   1.327 -0.4835  0.5546 -0.3439
 6924TIP3    H120736   4.540   3.668   1.332 -0.6987  1.4743  1.8550
 6924TIP3    H220737   4.431   3.576   1.384 -0.9773 -0.2076 -1.4487
 6925TIP3   OH220738   3.721   4.655   5.045 -0.3225  0.1901  0.3795
 6925TIP3    H120739   3.786   4.660   5.115 -0.1462 -1.3732  0.3583
 6925TIP3    H220740   3.741   4.730   4.988  1.4924 -0.2716  0.3568
 6926TIP3   OH220741   3.879   1.371   3.775 -0.3610 -0.1077  0.3915
 6926TIP3    H120742   3.867   1.442   3.711 -1.2318  2.2534  2.9812
 6926TIP3    H220743   3.973   1.372   3.793 -0.6601  2.5296  2.4779
 6927TIP3   OH220744   1.163   5.373   2.530  0.1088 -0.0724  0.4710
 6927TIP3    H120745   1.148   5.354   2.437 -2.6906  0.1827  0.7909
 6927TIP3    H220746   1.178   5.287   2.570  0.4184 -0.2754 -0.0688
 6928TIP3   OH220747   6.139   6.268   0.227 -0.2011 -0.0168  0.3090
 6928TIP3    H120748   6.144   6.179   0.261  0.3177 -0.1554 -0.1087
 6928TIP3    H220749   6.047   6.278   0.201 -0.2884 -0.3881  0.4635
 6929TIP3   OH220750   4.956   0.974   3.972 -0.1344 -0.6735 -0.3691
 6929TIP3    H120751   4.937   0.934   3.887 -2.3091 -2.1162  0.7027
 6929TIP3    H220752   4.870   0.995   4.009  0.7524  0.1162  1.3785
 6930TIP3   OH220753   0.961   5.503   4.800 -0.0333 -0.0687  0.5251
 6930TIP3    H120754   1.011   5.556   4.862 -1.3806 -0.0306  1.6490
 6930TIP3    H220755   1.016   5.428   4.781  0.5514  0.0845  1.5424
 6931TIP3   OH220756   2.436   1.223   3.506 -0.2404  0.5123 -0.7384
 6931TIP3    H120757   2.503   1.291   3.500  3.0558 -2.3923 -0.0496
 6931TIP3    H220758   2.431   1.203   3.599 -1.5532  0.1543 -0.8693
 6932TIP3   OH220759   0.494   0.560   4.296 -0.3239  0.2269  0.5085
 6932TIP3    H120760   0.489   0.532   4.205 -1.6053 -0.0470  0.6348
 6932TIP3    H220761   0.437   0.637   4.300 -1.5413 -0.6849  1.3796
 6933TIP3   OH220762   1.467   2.589   4.225  0.4364  0.2199 -0.7168
 6933TIP3    H120763   1.426   2.587   4.311  0.2097 -1.9207 -0.8347
 6933TIP3    H220764   1.394   2.605   4.165  0.6668  2.2405 -0.5235
 6934TIP3   OH220765   6.723   3.780   4.976 -0.3336 -0.5300  0.0057
 6934TIP3    H120766   6.805   3.736   5.000  0.1326  0.3791  0.1466
 6934TIP3    H220767   6.752   3.857   4.926 -1.0865 -0.0836  0.2452
 6935TIP3   OH220768   2.172   3.916   2.039 -0.1105  0.4060 -0.3011
 6935TIP3    H120769   2.180   4.006   2.070  1.1512 -0.0192  0.7001
 6935TIP3    H220770   2.231   3.911   1.964  0.1018  0.3267 -0.1308
 6936TIP3   OH220771   6.066   3.295   3.947 -0.1543 -0.6398  0.2570
 6936TIP3    H120772   5.997   3.351   3.982  0.4800 -0.1054  0.6658
 6936TIP3    H220773   6.025   3.251   3.872 -1.0145 -0.5367  0.6539
 6937TIP3   OH220774   1.280   2.615   4.025  0.2695  0.1087  0.5022
 6937TIP3    H120775   1.283   2.542   3.962 -0.5472  0.7536 -0.3090
 6937TIP3    H220776   1.186   2.632   4.036  0.4586  1.7318 -0.1503
 6938TIP3   OH220777   1.250   0.627   3.495 -0.5818 -0.2023  0.6127
 6938TIP3    H120778   1.318   0.604   3.557  1.4547  1.1057 -1.0060
 6938TIP3    H220779   1.274   0.714   3.464 -1.1069 -1.0152 -2.4179
 6939TIP3   OH220780   3.035   3.723   4.198 -0.0077  0.6279 -0.5034
 6939TIP3    H120781   3.038   3.817   4.213 -1.4488  0.8416 -1.3560
 6939TIP3    H220782   2.944   3.698   4.217  0.0174 -0.3496 -1.5007
 6940TIP3   OH220783   4.454   2.886   1.306 -0.4320 -0.0916  0.0389
 6940TIP3    H120784   4.473   2.848   1.392  2.1095 -0.1690 -0.4865
 6940TIP3    H220785   4.495   2.972   1.308 -3.0790  1.2936 -0.0659
 6941TIP3   OH220786   6.698   2.186   0.417  0.1141 -0.3800 -0.3545
 6941TIP3    H120787   6.646   2.108   0.400 -0.1805 -0.0409 -1.0731
 6941TIP3    H220788   6.689   2.201   0.511  0.5051 -1.4279 -0.1374
 6942TIP3   OH220789   5.938   6.547   5.447  0.5451 -0.0647  0.2359
 6942TIP3    H120790   5.925   6.475   5.508  3.1565 -0.9376 -0.1115
 6942TIP3    H220791   5.901   6.623   5.492  0.3669 -1.0898  1.9141
 6943TIP3   OH220792   3.855   0.552   1.460 -0.2636  0.6105 -0.2694
 6943TIP3    H120793   3.894   0.595   1.536 -0.2713  0.3575 -0.1192
 6943TIP3    H220794   3.859   0.617   1.390  2.3983 -0.0843 -0.8834
 6944TIP3   OH220795   6.145   4.852   4.154 -0.1632  0.3628 -0.4436
 6944TIP3    H120796   6.095   4.904   4.217 -0.5420 -0.9938  0.4288
 6944TIP3    H220797   6.230   4.896   4.149  0.6758 -0.6128  2.7037
 6945TIP3   OH220798   1.191   5.170   5.076  0.1203  0.2662  0.4207
 6945TIP3    H120799   1.257   5.209   5.134  0.0516  0.0549  0.6403
 6945TIP3    H220800   1.111   5.217   5.095  0.6358  1.9375 -1.2876
 6946TIP3   OH220801   2.040   2.590   5.627  0.1028 -0.2204  0.1195
 6946TIP3    H120802   1.999   2.605   5.541  0.4752 -0.4603 -0.1000
 6946TIP3    H220803   2.097   2.515   5.614 -1.4324 -1.6505  1.1093
 6947TIP3   OH220804   6.410   4.061   4.548 -0.6852  0.0987 -0.0755
 6947TIP3    H120805   6.345   4.101   4.605  0.1756  2.3122 -0.5482
 6947TIP3    H220806   6.492   4.065   4.597 -0.5061 -0.8278 -0.2725
 6948TIP3   OH220807   5.041   6.322   1.359  0.2230 -0.1440 -0.0123
 6948TIP3    H120808   4.965   6.291   1.409  0.3954 -1.3649 -0.4692
 6948TIP3    H220809   5.053   6.413   1.388 -1.1746 -0.0405  0.3430
 6949TIP3   OH220810   3.391   1.764   0.678 -0.1746 -0.8641  0.0486
 6949TIP3    H120811   3.433   1.692   0.632 -0.0220 -0.5648 -0.2910
 6949TIP3    H220812   3.373   1.730   0.766  0.5431 -1.0843  0.1180
 6950TIP3   OH220813   4.417   0.300   4.005 -0.7731 -0.3237 -0.2482
 6950TIP3    H120814   4.362   0.222   4.000 -2.1257  0.5170  0.7811
 6950TIP3    H220815   4.410   0.340   3.919  0.1955 -1.4598 -0.8996
 6951TIP3   OH220816   4.940   1.252   4.747  0.0845  0.2970  0.2857
 6951TIP3    H120817   4.907   1.260   4.658 -1.7853  0.9326  0.9851
 6951TIP3    H220818   5.018   1.308   4.749 -1.1695  2.1567 -0.3670
 6952TIP3   OH220819   6.878   2.916   1.073  0.7252 -0.2892 -0.0627
 6952TIP3    H120820   6.895   2.861   1.150 -0.1427 -2.3349 -1.2488
 6952TIP3    H220821   6.877   2.855   1.000 -1.3760  1.1479 -1.3410
 6953TIP3   OH220822   1.120   2.806   4.660  0.1043 -0.1787 -0.6851
 6953TIP3    H120823   1.055   2.736   4.660 -0.8145  0.6389  0.4067
 6953TIP3    H220824   1.087   2.870   4.722  2.8881 -0.5919  1.4266
 6954TIP3   OH220825   1.775   3.569   4.298 -0.1985 -0.5024 -0.1307
 6954TIP3    H120826   1.787   3.661   4.273 -0.8112 -0.5870 -0.7715
 6954TIP3    H220827   1.797   3.566   4.391 -1.0032  0.4787  0.1119
 6955TIP3   OH220828   5.973   0.532   2.181 -0.4250  0.0466 -0.5588
 6955TIP3    H120829   5.992   0.625   2.188  1.8050 -0.3271 -0.9603
 6955TIP3    H220830   5.927   0.523   2.097 -0.8697  0.7949 -0.4032
 6956TIP3   OH220831   0.820   2.030   2.139 -0.3659  0.0425  0.0536
 6956TIP3    H120832   0.794   2.037   2.231  0.9872  2.8361  0.3368
 6956TIP3    H220833   0.760   2.090   2.094  0.9947  1.1923 -0.3162
 6957TIP3   OH220834   4.545   5.635   2.288  0.6486  0.3526  0.9533
 6957TIP3    H120835   4.463   5.669   2.252  0.5711  1.5449  2.1333
 6957TIP3    H220836   4.580   5.708   2.340  2.9753  0.2145 -0.2989
 6958TIP3   OH220837   5.046   3.066   3.213  0.4026 -0.3517  0.2604
 6958TIP3    H120838   4.994   2.993   3.246  0.5119  0.3187  2.0479
 6958TIP3    H220839   5.118   3.025   3.166 -0.3338 -1.3469 -0.0377
 6959TIP3   OH220840   6.810   2.867   4.414  0.1388 -0.0323 -0.0379
 6959TIP3    H120841   6.732   2.813   4.398 -0.4346  1.1313 -1.3004
 6959TIP3    H220842   6.789   2.915   4.494  1.4329 -2.9947  2.2626
 6960TIP3   OH220843   1.695   4.015   1.244 -0.0467 -0.2554  0.6833
 6960TIP3    H120844   1.647   4.062   1.176 -1.2729 -1.2998  0.7972
 6960TIP3    H220845   1.777   3.990   1.202  0.6863  1.9962  0.6390
 6961TIP3   OH220846   6.536   3.180   2.164 -0.1671 -0.2613 -0.2014
 6961TIP3    H120847   6.574   3.165   2.077 -1.1962  0.3546 -0.7771
 6961TIP3    H220848   6.476   3.107   2.177 -0.0112 -0.3541 -0.0051
 6962TIP3   OH220849   1.713   2.506   1.512 -0.1961 -0.2371 -1.2686
 6962TIP3    H120850   1.716   2.601   1.517 -1.4257 -0.2090  2.9016
 6962TIP3    H220851   1.804   2.478   1.525 -0.2672  0.4751  1.2973
 6963TIP3   OH220852   7.036   6.329   0.562 -0.1060 -0.2333  0.1768
 6963TIP3    H120853   6.946   6.316   0.591 -0.7495 -1.0348 -2.0004
 6963TIP3    H220854   7.079   6.245   0.579 -0.2503 -0.4178 -0.3471
 6964TIP3   OH220855   1.085   3.609   3.767  0.1031  0.4247 -0.0814
 6964TIP3    H120856   1.004   3.656   3.746  0.6171  1.0489 -0.7345
 6964TIP3    H220857   1.089   3.610   3.863 -0.1467  1.3000 -0.0708
 6965TIP3   OH220858   3.558   1.017   5.501  0.3285  0.3592  0.3874
 6965TIP3    H120859   3.553   1.054   5.413  0.9179 -1.0388 -0.2783
 6965TIP3    H220860   3.467   1.003   5.527  0.1300  1.5157  0.3350
 6966TIP3   OH220861   7.028   4.952   2.172  0.1228 -0.0077  0.4063
 6966TIP3    H120862   7.022   4.959   2.076  1.6860  0.6028  0.3221
 6966TIP3    H220863   6.938   4.962   2.202 -0.3153  0.4636 -0.9742
 6967TIP3   OH220864   3.261   0.809   3.338 -0.4120  0.3832  0.1223
 6967TIP3    H120865   3.290   0.797   3.428  1.6456 -0.7161 -0.5980
 6967TIP3    H220866   3.219   0.727   3.314 -3.2361  1.5240  0.7493
 6968TIP3   OH220867   5.322   5.057   2.832 -0.5265 -0.1143 -0.2298
 6968TIP3    H120868   5.281   4.978   2.867  0.0144 -0.3492 -0.1170
 6968TIP3    H220869   5.372   5.026   2.756  2.8002 -0.5874  1.9512
 6969TIP3   OH220870   6.399   3.495   1.546 -0.2082 -1.0732  0.3212
 6969TIP3    H120871   6.335   3.520   1.478 -1.9526 -2.9287  1.1598
 6969TIP3    H220872   6.483   3.497   1.501 -0.9204  0.6765 -1.0754
 6970TIP3   OH220873   0.030   2.640   2.944  0.3273  0.6514 -0.2269
 6970TIP3    H120874   0.121   2.629   2.969 -0.2224 -1.4251  1.1263
 6970TIP3    H220875   0.012   2.565   2.887 -0.2622  1.6526 -1.4043
 6971TIP3   OH220876   1.086   1.533   5.254 -0.3432  0.4769  0.3432
 6971TIP3    H120877   1.010   1.579   5.221 -0.1506  0.2174 -0.4688
 6971TIP3    H220878   1.093   1.561   5.346 -0.7789  1.3182  0.1236
 6972TIP3   OH220879   3.111   0.862   3.958 -0.4106  0.2641  0.5739
 6972TIP3    H120880   3.171   0.882   3.886  1.5563 -1.1270  1.7149
 6972TIP3    H220881   3.040   0.813   3.917 -0.4863  1.4036 -0.7354
 6973TIP3   OH220882   3.306   0.324   0.665 -0.3356  0.2490  0.2384
 6973TIP3    H120883   3.222   0.280   0.654  0.0774 -0.9044  1.5295
 6973TIP3    H220884   3.371   0.259   0.638  0.2006  0.7606  0.2778
 6974TIP3   OH220885   4.543   6.391   3.888  0.0536 -0.1505 -0.2478
 6974TIP3    H120886   4.483   6.319   3.906 -1.0822  0.7912 -0.2158
 6974TIP3    H220887   4.539   6.403   3.793  0.1040 -0.0094 -0.2325
 6975TIP3   OH220888   6.561   5.108   0.141 -0.3619 -0.1144  0.0511
 6975TIP3    H120889   6.471   5.077   0.149  0.7721 -3.8994 -0.3245
 6975TIP3    H220890   6.576   5.113   0.047  0.5088 -2.0323  0.0434
 6976TIP3   OH220891   2.352   1.380   5.061  0.4136 -0.5167 -0.2816
 6976TIP3    H120892   2.425   1.442   5.054  0.4398 -0.6903 -2.3736
 6976TIP3    H220893   2.393   1.294   5.053  0.1203 -0.6764 -0.0818
 6977TIP3   OH220894   3.371   5.878   1.000  0.0493 -0.6194  0.1891
 6977TIP3    H120895   3.348   5.968   0.978  0.0431 -0.8485 -0.7949
 6977TIP3    H220896   3.450   5.886   1.054 -0.2946 -0.0065  0.6133
 6978TIP3   OH220897   6.774   4.196   4.405  0.1925 -0.1878 -0.8897
 6978TIP3    H120898   6.796   4.103   4.397 -0.0452 -0.4637  1.0567
 6978TIP3    H220899   6.832   4.239   4.343  2.9177 -1.3496  0.6529
 6979TIP3   OH220900   5.628   3.049   4.059 -0.1597  0.2693 -0.5072
 6979TIP3    H120901   5.535   3.067   4.041  0.0287  0.8896 -0.8631
 6979TIP3    H220902   5.627   2.962   4.099 -0.8390  0.0035 -1.0682
 6980TIP3   OH220903   3.100   6.710   0.203 -0.8681 -1.0765  0.6731
 6980TIP3    H120904   3.036   6.779   0.185 -0.6200 -1.3731 -1.6359
 6980TIP3    H220905   3.050   6.640   0.245 -1.6846 -0.5906  0.5147
 6981TIP3   OH220906   3.054   3.834   1.830 -0.5029 -0.2665 -0.0174
 6981TIP3    H120907   2.973   3.783   1.837  0.9092 -2.7629 -0.5758
 6981TIP3    H220908   3.111   3.798   1.898  0.6535  0.4309 -0.5830
 6982TIP3   OH220909   5.510   6.458   2.757 -0.1224  0.5804  0.1356
 6982TIP3    H120910   5.466   6.430   2.677  0.8346  0.6827 -0.4436
 6982TIP3    H220911   5.440   6.492   2.813 -0.8015  0.4725 -0.6356
 6983TIP3   OH220912   0.950   3.922   3.334 -0.3943 -0.0473  0.0730
 6983TIP3    H120913   0.988   4.006   3.305  0.2942 -0.3274  0.1340
 6983TIP3    H220914   1.004   3.856   3.291  0.9733 -0.4949  2.2868
 6984TIP3   OH220915   4.222   2.067   2.298 -0.6702  0.3994 -0.4957
 6984TIP3    H120916   4.291   2.116   2.343 -0.7366  1.3781 -1.4377
 6984TIP3    H220917   4.152   2.059   2.363  0.7257 -1.6677  0.9146
 6985TIP3   OH220918   4.044   6.020   5.452  0.5403  0.1385  0.0320
 6985TIP3    H120919   3.997   5.951   5.405  0.1646  0.4519 -0.0648
 6985TIP3    H220920   4.110   6.051   5.390  0.5102  0.0713 -0.0332
 6986TIP3   OH220921   2.458   0.704   4.017  0.8576  0.0935  0.0886
 6986TIP3    H120922   2.442   0.796   4.040  2.4219  0.4747 -0.2123
 6986TIP3    H220923   2.436   0.655   4.096 -0.9157  0.6100 -0.0555
 6987TIP3   OH220924   2.947   6.091   1.842 -0.2034 -0.1662  0.0793
 6987TIP3    H120925   2.912   6.149   1.909 -0.8551 -1.8484  1.2758
 6987TIP3    H220926   2.908   6.122   1.761 -1.9927 -0.0403  0.9401
 6988TIP3   OH220927   5.630   0.800   1.617  0.0424  0.0267 -0.3158
 6988TIP3    H120928   5.620   0.769   1.707  0.1888  0.0373 -0.2947
 6988TIP3    H220929   5.721   0.829   1.612 -0.2457  1.0092 -0.1527
 6989TIP3   OH220930   6.682   6.136   3.798  0.1982 -0.2261  0.1448
 6989TIP3    H120931   6.736   6.060   3.776  1.3342  0.2815  1.0874
 6989TIP3    H220932   6.707   6.203   3.734  0.8801  0.0843  0.7236
 6990TIP3   OH220933   3.905   6.717   4.051  0.1390 -0.4253 -0.3259
 6990TIP3    H120934   3.928   6.624   4.050  0.2173 -0.5266  2.4031
 6990TIP3    H220935   3.981   6.762   4.015  2.8750 -1.1023  3.9663
 6991TIP3   OH220936   3.197   2.567   3.673 -0.1650  0.1278 -0.1610
 6991TIP3    H120937   3.116   2.581   3.624 -0.1870  0.1317 -0.1238
 6991TIP3    H220938   3.244   2.650   3.664 -0.2964  0.2293  0.0589
 6992TIP3   OH220939   1.275   4.184   1.495  0.5615 -0.2862  0.5056
 6992TIP3    H120940   1.259   4.092   1.515 -0.6872 -0.8516 -2.6302
 6992TIP3    H220941   1.201   4.230   1.534  0.4321 -0.7564  0.8246
 6993TIP3   OH220942   0.405   3.065   3.914 -0.3722  0.3824 -0.0256
 6993TIP3    H120943   0.448   2.984   3.944  1.1373  1.6717  1.5379
 6993TIP3    H220944   0.421   3.067   3.820  0.0563 -0.8568 -0.0083
 6994TIP3   OH220945   5.198   2.354   0.636 -0.1578  0.7234  0.2054
 6994TIP3    H120946   5.172   2.270   0.675  0.5445  0.3228 -0.1620
 6994TIP3    H220947   5.135   2.417   0.670  0.2316  0.3379  1.7220
 6995TIP3   OH220948   2.271   5.292  -0.010  0.1690  0.2645 -0.2053
 6995TIP3    H120949   2.338   5.233   0.023 -0.5652 -0.6634 -0.3459
 6995TIP3    H220950   2.242   5.342   0.066 -1.7018 -2.0355  0.6933
 6996TIP3   OH220951   7.062   3.841   2.284  0.2452  0.1139  0.7690
 6996TIP3    H120952   7.138   3.795   2.318  0.2794 -1.9886 -1.8375
 6996TIP3    H220953   7.000   3.772   2.261 -0.6231  1.4651 -1.2695
 6997TIP3   OH220954   5.117   3.618   4.579  0.0045  0.4473 -0.7673
 6997TIP3    H120955   5.107   3.597   4.672 -0.5435 -0.5171 -1.0266
 6997TIP3    H220956   5.209   3.601   4.560  0.1337  0.7181 -0.3809
 6998TIP3   OH220957   5.091   5.377   5.399 -0.1764  0.3162 -0.3090
 6998TIP3    H120958   4.996   5.373   5.406 -0.3195 -0.4811 -2.1251
 6998TIP3    H220959   5.122   5.306   5.455 -0.5585  1.2357  1.1187
 6999TIP3   OH220960   2.903   0.306   0.287 -0.2967 -0.5963 -0.2790
 6999TIP3    H120961   2.870   0.273   0.203  0.8082  0.4628 -1.1632
 6999TIP3    H220962   2.926   0.397   0.269  0.4120 -0.4952  1.0613
 7000TIP3   OH220963   3.325   4.921   4.652  0.4469  0.3719  0.2551
 7000TIP3    H120964   3.296   4.916   4.743 -1.4433  0.5109 -0.2949
 7000TIP3    H220965   3.350   5.012   4.639  2.6524 -0.0477  1.1354
 7001TIP3   OH220966   2.568   2.178   5.757 -0.1686  0.0239 -1.0586
 7001TIP3    H120967   2.567   2.267   5.720 -2.0241  0.1514 -0.8200
 7001TIP3    H220968   2.543   2.190   5.849  1.2204 -0.6071 -0.5817
 7002TIP3   OH220969   2.978   4.549   5.170 -0.1530 -0.0724 -0.2216
 7002TIP3    H120970   3.015   4.508   5.092 -0.9871 -2.8714  0.7214
 7002TIP3    H220971   2.884   4.549   5.155 -0.1796  2.3925 -0.4978
 7003TIP3   OH220972   6.582   0.656   0.356  0.2397  0.4000  0.6131
 7003TIP3    H120973   6.570   0.562   0.368  1.1381  0.0714 -0.7871
 7003TIP3    H220974   6.532   0.696   0.427 -1.4411 -1.0828  0.3498
 7004TIP3   OH220975   4.262   0.889   0.842  0.1357 -0.0854  0.6429
 7004TIP3    H120976   4.212   0.814   0.874  0.4817 -0.1625  1.0078
 7004TIP3    H220977   4.239   0.896   0.749  1.6633 -1.9305  0.0720
 7005TIP3   OH220978   7.079   0.095   0.701 -0.1157 -0.1158 -0.3661
 7005TIP3    H120979   7.077   0.038   0.778  0.4825 -0.3161 -0.4919
 7005TIP3    H220980   7.007   0.157   0.715  0.4727  0.3415  0.7408
 7006TIP3   OH220981   3.904   2.065   0.483  0.1025 -0.1132 -0.1900
 7006TIP3    H120982   3.970   2.008   0.443 -0.1567 -0.8142  0.3504
 7006TIP3    H220983   3.849   2.005   0.535 -1.2144  0.3920 -0.9542
 7007TIP3   OH220984   3.316   4.069   2.832  0.3607  0.3733  0.1514
 7007TIP3    H120985   3.243   4.066   2.770  0.2931  0.9594  0.1928
 7007TIP3    H220986   3.342   4.161   2.832 -0.6896  0.7285  2.1977
 7008TIP3   OH220987   0.828   2.381   0.494  0.2461  0.5289 -0.2999
 7008TIP3    H120988   0.912   2.356   0.533 -0.0739 -1.2243 -0.6425
 7008TIP3    H220989   0.775   2.301   0.499 -1.4402  1.6214 -0.0192
 7009TIP3   OH220990   6.647   0.320   5.326 -0.3452 -0.4096  0.2237
 7009TIP3    H120991   6.732   0.358   5.301 -0.4554  0.0325  0.5074
 7009TIP3    H220992   6.590   0.338   5.251 -0.1607 -0.8176 -0.0206
 7010TIP3   OH220993   4.306   3.713   1.961  0.2455 -0.1347  0.4457
 7010TIP3    H120994   4.300   3.649   2.032 -2.1670 -1.3315 -0.7172
 7010TIP3    H220995   4.398   3.741   1.962  1.8409 -4.5854  0.1914
 7011TIP3   OH220996   3.187   5.126   5.166  0.1647 -0.1039 -0.2412
 7011TIP3    H120997   3.103   5.080   5.155  0.1240 -0.4011  1.1945
 7011TIP3    H220998   3.202   5.168   5.081 -1.3660 -0.1720 -0.5777
 7012TIP3   OH220999   6.481   5.076   2.062  0.8227  0.0062  0.2989
 7012TIP3    H121000   6.418   5.013   2.028  2.7736 -2.3973  0.8597
 7012TIP3    H221001   6.489   5.054   2.155  1.5994  1.0506  0.5017
 7013TIP3   OH221002   5.089   6.655   0.739 -0.0520 -0.4735 -0.5622
 7013TIP3    H121003   5.088   6.575   0.687 -1.2441 -0.6093 -0.3731
 7013TIP3    H221004   5.171   6.698   0.717  1.8546 -2.9567  1.2250
 7014TIP3   OH221005   6.675   5.227   3.975  0.4526  0.1430 -0.0928
 7014TIP3    H121006   6.582   5.203   3.978 -0.3027  2.5739 -1.1768
 7014TIP3    H221007   6.694   5.261   4.062  0.2208 -0.0468  0.0323
 7015TIP3   OH221008   3.732   0.276   0.545 -0.3950 -0.2770 -0.1491
 7015TIP3    H121009   3.786   0.262   0.467 -0.3303  0.1483 -0.1824
 7015TIP3    H221010   3.794   0.291   0.616 -0.4042 -2.0951  0.2959
 7016TIP3   OH221011   3.453   6.420   3.633  0.0589  0.0889 -0.0550
 7016TIP3    H121012   3.505   6.345   3.660  0.6144 -0.2361 -1.9214
 7016TIP3    H221013   3.434   6.466   3.715 -0.6445 -2.2613  1.2038
 7017TIP3   OH221014   4.863   0.956   5.369  0.4234 -0.6948 -0.4108
 7017TIP3    H121015   4.862   0.861   5.367 -1.2700 -0.7006 -1.5414
 7017TIP3    H221016   4.853   0.982   5.277 -1.2061  0.5452  0.0771
 7018TIP3   OH221017   6.501   2.063   1.782 -0.6774  0.5993  0.1121
 7018TIP3    H121018   6.447   2.024   1.713 -0.8695  1.2362 -0.1025
 7018TIP3    H221019   6.473   2.019   1.862 -0.4075 -0.1929 -0.2235
 7019TIP3   OH221020   3.376   5.798   4.891 -0.3726  0.3864 -0.1447
 7019TIP3    H121021   3.321   5.805   4.969  1.5696  0.1457  1.3220
 7019TIP3    H221022   3.417   5.884   4.883 -0.3520  0.3259 -0.7369
 7020TIP3   OH221023   5.348   3.137   4.900  0.1411  0.0489  0.2052
 7020TIP3    H121024   5.363   3.126   4.994  0.1044  0.5474  0.2743
 7020TIP3    H221025   5.257   3.111   4.888  0.4833 -1.1684  0.0995
 7021TIP3   OH221026   0.203   2.679   0.625 -0.2063 -0.0383 -0.0977
 7021TIP3    H121027   0.169   2.685   0.536 -2.4942 -0.9197  0.6485
 7021TIP3    H221028   0.296   2.701   0.616 -0.3652 -0.0560 -2.6703
 7022TIP3   OH221029   3.545   6.753   2.916 -0.0861 -0.1603 -0.1137
 7022TIP3    H121030   3.580   6.665   2.901  0.0881 -0.2137  0.5760
 7022TIP3    H221031   3.467   6.758   2.860 -0.6961 -1.1424  0.6046
 7023TIP3   OH221032   6.703   4.285   4.903  0.5058 -0.2610  0.2585
 7023TIP3    H121033   6.717   4.196   4.935  2.4389 -0.0685  0.0607
 7023TIP3    H221034   6.748   4.288   4.818 -0.5288  0.5813 -0.2912
 7024TIP3   OH221035   3.857   2.246   2.464  0.1715  0.6806 -0.2388
 7024TIP3    H121036   3.781   2.242   2.522 -1.7435  0.5696 -2.5891
 7024TIP3    H221037   3.871   2.340   2.451 -0.5830  0.7017 -0.9945
 7025TIP3   OH221038   1.318   6.666   1.868 -0.7508  0.2686 -0.0429
 7025TIP3    H121039   1.290   6.734   1.807  0.0108  0.8109  0.1969
 7025TIP3    H221040   1.291   6.584   1.827 -1.1172  0.6759 -0.6338
 7026TIP3   OH221041   4.255   3.969   4.380 -0.1602  0.0683  0.0993
 7026TIP3    H121042   4.281   3.881   4.406  0.5540  0.8037  2.0460
 7026TIP3    H221043   4.315   3.991   4.309 -0.8189 -1.2535 -0.9096
 7027TIP3   OH221044   4.424   6.740   3.630 -0.4983 -0.0514 -0.1525
 7027TIP3    H121045   4.409   6.812   3.568 -0.9985  0.2179  0.2762
 7027TIP3    H221046   4.338   6.718   3.663 -0.1801  0.1406  0.8221
 7028TIP3   OH221047   4.211   5.041   4.100 -0.1128  0.2711  0.3509
 7028TIP3    H121048   4.165   4.976   4.048 -1.0770  0.8316  0.4794
 7028TIP3    H221049   4.146   5.072   4.163  0.9906 -0.3239  1.8431
 7029TIP3   OH221050   0.091   2.578   4.167 -0.4288  0.0941  0.4744
 7029TIP3    H121051   0.027   2.550   4.101  0.6324  1.7957 -1.3874
 7029TIP3    H221052   0.066   2.668   4.188  1.0473  0.6066  0.0963
 7030TIP3   OH221053   6.800   5.831   5.174 -0.3821 -0.8532  0.4038
 7030TIP3    H121054   6.809   5.852   5.081  1.1707 -0.6780  0.5701
 7030TIP3    H221055   6.795   5.917   5.217 -0.8924 -0.9326  0.5077
 7031TIP3   OH221056   3.056   2.444   2.536 -0.2620 -1.0376 -0.3430
 7031TIP3    H121057   3.146   2.475   2.524 -0.3583 -0.2920  0.7396
 7031TIP3    H221058   3.066   2.359   2.580 -0.0398 -2.1019 -2.3140
 7032TIP3   OH221059   3.108  -0.008   4.414  0.1028 -0.0825 -0.2509
 7032TIP3    H121060   3.056   0.051   4.359 -2.4937  0.3180  2.4340
 7032TIP3    H221061   3.166   0.050   4.462  0.5481 -0.1901 -0.6442
 7033TIP3   OH221062   4.710   0.778   3.228 -0.4381  0.2428 -0.0378
 7033TIP3    H121063   4.735   0.789   3.320  0.4698  1.0079 -0.3623
 7033TIP3    H221064   4.770   0.711   3.195 -0.6832  0.0583 -0.1196
 7034TIP3   OH221065   6.406   5.183   4.319 -0.0664  0.0555  0.3342
 7034TIP3    H121066   6.441   5.094   4.310 -1.1728 -0.2611 -1.1582
 7034TIP3    H221067   6.457   5.235   4.257  1.0639  0.6692  1.7014
 7035TIP3   OH221068   6.949   2.755   5.229 -0.2353  0.4775  0.2263
 7035TIP3    H121069   7.003   2.717   5.160  0.0351  0.5198  0.4117
 7035TIP3    H221070   6.890   2.684   5.255 -0.6600  0.6081 -0.3743
 7036TIP3   OH221071   0.535   1.937   2.158  0.0197 -0.5307 -0.3094
 7036TIP3    H121072   0.479   1.995   2.209 -0.4223 -1.1700 -0.0472
 7036TIP3    H221073   0.550   1.984   2.076  0.1992  0.2200  0.1486
 7037TIP3   OH221074   5.526   5.873   5.644 -0.1169 -0.6082 -0.0405
 7037TIP3    H121075   5.526   5.903   5.553  0.3148 -1.0247 -0.1889
 7037TIP3    H221076   5.441   5.897   5.678  0.3967  1.2378  0.0163
 7038TIP3   OH221077   4.077   6.503   4.014 -0.0663  0.4011 -0.0251
 7038TIP3    H121078   4.150   6.550   3.973 -0.6825  1.2746 -0.1634
 7038TIP3    H221079   4.119   6.442   4.075  0.7820  0.8137 -0.1760
 7039TIP3   OH221080   6.795   4.810   1.397 -0.5331 -0.5694  0.3280
 7039TIP3    H121081   6.845   4.783   1.320 -0.1893 -0.6424  0.5725
 7039TIP3    H221082   6.748   4.731   1.423 -0.6606 -0.5409  0.1849
 7040TIP3   OH221083   2.521   1.343   5.355  0.2175 -0.1443 -0.3453
 7040TIP3    H121084   2.528   1.379   5.443  1.4017 -0.3119 -0.3462
 7040TIP3    H221085   2.497   1.418   5.300 -0.1614  0.0352  0.0626
 7041TIP3   OH221086   5.663   6.276   5.336  0.2436 -0.0415 -0.0046
 7041TIP3    H121087   5.725   6.267   5.263  0.3950  1.0529 -0.0223
 7041TIP3    H221088   5.578   6.253   5.298  0.2674  0.8668 -0.6315
 7042TIP3   OH221089   2.637   4.035   2.674  0.4879  0.1459 -0.4356
 7042TIP3    H121090   2.589   4.024   2.592  0.1041  0.2654 -0.2304
 7042TIP3    H221091   2.673   3.949   2.693 -0.9601 -0.3413  0.2176
 7043TIP3   OH221092   2.458   6.588   4.443  0.5520  0.9820  0.0077
 7043TIP3    H121093   2.442   6.498   4.469  1.6774  0.4686 -1.0087
 7043TIP3    H221094   2.550   6.604   4.466  0.4301  1.7875 -0.0282
 7044TIP3   OH221095   7.078   3.277   1.523  0.1764 -0.3285 -0.2180
 7044TIP3    H121096   7.110   3.200   1.571  0.9480  0.5384  0.7198
 7044TIP3    H221097   6.999   3.303   1.569 -0.0363 -0.5051 -0.4819
 7045TIP3   OH221098   4.675   4.099   5.576  0.4948 -0.5012 -0.4238
 7045TIP3    H121099   4.693   4.124   5.486 -0.6440  0.0464 -0.5184
 7045TIP3    H221100   4.579   4.090   5.580 -0.0239  3.4445  1.6418
 7046TIP3   OH221101   2.460   3.322   0.667 -0.1565 -0.0722  0.3003
 7046TIP3    H121102   2.434   3.272   0.589  2.4580 -0.1490 -0.6111
 7046TIP3    H221103   2.476   3.255   0.734  2.2752 -0.4960 -0.5979
 7047TIP3   OH221104   5.188   3.537   1.945 -0.1649 -0.4279 -0.4505
 7047TIP3    H121105   5.231   3.585   2.015 -1.7111 -0.0410  0.2888
 7047TIP3    H221106   5.240   3.457   1.935 -0.2761 -0.8390  1.6678
 7048TIP3   OH221107   2.919   1.611   5.182 -0.0564 -0.0927  0.0680
 7048TIP3    H121108   3.000   1.609   5.233  0.7610 -2.1453 -1.1722
 7048TIP3    H221109   2.850   1.598   5.247  0.5048  2.0633  1.1958
 7049TIP3   OH221110   2.581   2.994   2.749 -0.0445 -0.3250 -0.1784
 7049TIP3    H121111   2.631   2.915   2.767  0.4908  0.4418  1.9834
 7049TIP3    H221112   2.584   3.003   2.653  1.6703 -1.7384 -0.3006
 7050TIP3   OH221113   2.053   4.452   4.167 -0.3781  0.1144  0.4806
 7050TIP3    H121114   2.091   4.476   4.082 -1.8159 -1.1595 -0.5751
 7050TIP3    H221115   2.103   4.374   4.193 -0.1684  0.3015  0.6416
 7051TIP3   OH221116   6.865   5.427   0.468 -0.1630  0.1081  1.1170
 7051TIP3    H121117   6.816   5.380   0.400  1.7005  0.9972 -0.9377
 7051TIP3    H221118   6.897   5.358   0.526 -1.4739 -0.7021  0.9241
 7052TIP3   OH221119   6.907   6.681   2.665  0.5025 -0.1649 -0.7821
 7052TIP3    H121120   6.876   6.766   2.694  0.1173 -1.1196  1.9371
 7052TIP3    H221121   6.894   6.680   2.570 -2.3727  1.6232 -0.5007
 7053TIP3   OH221122   1.366   1.481   5.208 -0.3143 -0.2053  0.1088
 7053TIP3    H121123   1.359   1.392   5.242 -2.3502 -1.8970 -4.0222
 7053TIP3    H221124   1.276   1.509   5.195  0.2982  1.4299 -1.0102
 7054TIP3   OH221125   4.107   4.613   1.418  0.1920  0.1637 -0.0295
 7054TIP3    H121126   4.152   4.583   1.497 -0.7250  0.3120  0.5556
 7054TIP3    H221127   4.167   4.588   1.347  1.1495  0.2605  0.7128
 7055TIP3   OH221128  -0.027   5.888   2.180 -0.0886  0.2167  0.2408
 7055TIP3    H121129   0.010   5.802   2.199  1.0500  0.5545 -0.4108
 7055TIP3    H221130   0.036   5.950   2.215  0.5541  0.8108 -1.8200
 7056TIP3   OH221131   2.715   0.290   4.878 -0.0607 -0.2729  0.2973
 7056TIP3    H121132   2.776   0.250   4.816 -0.4541 -1.6097  0.7366
 7056TIP3    H221133   2.746   0.379   4.889  0.6644 -0.3569 -0.9753
 7057TIP3   OH221134   4.525   6.356   4.736 -0.5865 -1.1475  0.1075
 7057TIP3    H121135   4.512   6.264   4.715  1.4175 -1.2037 -1.0951
 7057TIP3    H221136   4.598   6.384   4.680 -2.1805  1.6131 -0.8013
 7058TIP3   OH221137   2.284   1.210   4.115 -0.2241 -0.4080  0.0726
 7058TIP3    H121138   2.270   1.297   4.078 -2.1571 -0.1380  1.2999
 7058TIP3    H221139   2.343   1.225   4.189  0.0250 -0.2534 -0.1554
 7059TIP3   OH221140   6.344   0.200   5.666 -0.1665  0.4876 -0.7246
 7059TIP3    H121141   6.428   0.230   5.634 -0.4477  0.6291 -1.3366
 7059TIP3    H221142   6.307   0.275   5.713 -0.2224  0.6192 -0.9824
 7060TIP3   OH221143   5.787   6.170   4.408  0.0695  0.2009 -0.1701
 7060TIP3    H121144   5.829   6.088   4.383  0.2454  0.9449 -2.6065
 7060TIP3    H221145   5.694   6.148   4.418  0.0642 -0.2402 -1.1466
 7061TIP3   OH221146   3.791   6.244   0.818  0.1898  0.6807 -0.9569
 7061TIP3    H121147   3.832   6.178   0.762  0.3723  0.6243 -0.7602
 7061TIP3    H221148   3.865   6.296   0.850  0.2136 -0.0415  0.1993
 7062TIP3   OH221149   0.161   5.183   4.467  0.3225  0.9034 -0.4306
 7062TIP3    H121150   0.199   5.237   4.537  1.2185 -0.2759  0.0306
 7062TIP3    H221151   0.067   5.187   4.482  0.5320 -0.2448  1.5899
 7063TIP3   OH221152   0.837   2.703   5.772 -0.2380 -0.1460  0.5487
 7063TIP3    H121153   0.772   2.727   5.838  0.8003 -0.4637  1.7146
 7063TIP3    H221154   0.848   2.608   5.782  0.0417 -0.1705  0.0347
 7064TIP3   OH221155   0.361   1.183   0.053  0.0034 -0.2973 -0.5254
 7064TIP3    H121156   0.354   1.128  -0.025 -1.4563 -0.4059 -0.3583
 7064TIP3    H221157   0.271   1.187   0.087  0.4922  0.3041  0.7640
 7065TIP3   OH221158   1.264   0.291   0.448 -0.8645  0.2767  0.5188
 7065TIP3    H121159   1.265   0.375   0.402 -0.1749 -0.8720 -1.7389
 7065TIP3    H221160   1.227   0.229   0.384 -2.1156 -1.0311  2.3810
 7066TIP3   OH221161   5.410   0.672   2.228  0.5820  0.6212  0.1208
 7066TIP3    H121162   5.445   0.685   2.140 -1.0049 -0.5233 -0.7375
 7066TIP3    H221163   5.339   0.736   2.236  2.1520  2.2998  1.4982
 7067TIP3   OH221164   3.891   0.756   4.834  0.7730  0.0095 -0.0960
 7067TIP3    H121165   3.905   0.792   4.746  1.8049 -0.3460 -0.1007
 7067TIP3    H221166   3.972   0.709   4.853  0.4227 -0.2120  0.9109
 7068TIP3   OH221167   4.887   0.264   1.906  0.2423 -0.0551 -0.0013
 7068TIP3    H121168   4.892   0.282   1.812  4.2520  0.1775  0.0964
 7068TIP3    H221169   4.900   0.350   1.948 -0.7856 -0.2624  0.7852
 7069TIP3   OH221170   1.446   3.338   1.037 -0.0552  0.1997  0.3664
 7069TIP3    H121171   1.531   3.367   1.070  0.6231 -0.0218 -1.0904
 7069TIP3    H221172   1.406   3.417   1.001 -0.1656  0.1733  0.4314
 7070TIP3   OH221173   4.557   1.384   5.114 -0.5528 -0.2202  0.1771
 7070TIP3    H121174   4.609   1.341   5.046 -1.8270 -2.7142  0.6529
 7070TIP3    H221175   4.571   1.477   5.099  2.0922 -0.7314 -1.1863
 7071TIP3   OH221176   6.203   0.062   4.288  0.3547 -0.5578  0.1212
 7071TIP3    H121177   6.252   0.076   4.207  0.3213 -0.4278  0.1230
 7071TIP3    H221178   6.127   0.010   4.261  0.0547 -0.0459 -0.0252
 7072TIP3   OH221179   2.619   6.586   5.105  0.4748 -0.1381 -0.0896
 7072TIP3    H121180   2.597   6.654   5.041  1.3944  0.6519  0.3991
 7072TIP3    H221181   2.591   6.621   5.189  0.0313 -0.8140  0.0522
 7073TIP3   OH221182   6.373   5.285   4.067  0.3954  0.0117  0.4830
 7073TIP3    H121183   6.299   5.338   4.096  0.7539  0.8535 -0.0699
 7073TIP3    H221184   6.441   5.349   4.048  1.0206 -0.7005  0.2839
 7074TIP3   OH221185   2.965   5.575   5.406 -0.2049 -0.5599  0.0562
 7074TIP3    H121186   2.901   5.510   5.378  0.2824 -0.9412 -0.1905
 7074TIP3    H221187   3.040   5.562   5.348  0.3593 -0.5790  0.7653
 7075TIP3   OH221188   2.393   4.909   1.285  0.6807  0.0866  0.7315
 7075TIP3    H121189   2.326   4.934   1.221  0.7225 -2.1062 -0.2538
 7075TIP3    H221190   2.468   4.882   1.233  1.5380  0.3315  1.7884
 7076TIP3   OH221191   5.223   3.103   4.357  0.3635 -0.0038  0.1727
 7076TIP3    H121192   5.207   3.071   4.445 -1.2118  1.7774  0.6141
 7076TIP3    H221193   5.137   3.135   4.327  1.1579  0.7605 -1.4180
 7077TIP3   OH221194   1.651   5.955   3.276  0.1313 -0.1480 -0.1450
 7077TIP3    H121195   1.595   5.879   3.290  1.4933 -0.9339  1.3334
 7077TIP3    H221196   1.736   5.930   3.312  0.9857  1.6071 -0.8080
 7078TIP3   OH221197   4.616   5.685   4.131  0.1277 -0.2184 -0.8892
 7078TIP3    H121198   4.582   5.699   4.220 -0.8199  1.9278 -1.5230
 7078TIP3    H221199   4.538   5.668   4.078  0.3205  1.5201 -1.7998
 7079TIP3   OH221200   1.449   0.631   3.054  0.4287  0.0689  0.1441
 7079TIP3    H121201   1.482   0.715   3.021  0.2785  0.5662  1.2236
 7079TIP3    H221202   1.361   0.650   3.085  0.1052 -0.6686 -0.3044
 7080TIP3   OH221203   2.855   1.020   2.986 -0.1107 -0.0600  0.0309
 7080TIP3    H121204   2.919   1.071   3.037  1.7241 -3.8772  1.9151
 7080TIP3    H221205   2.865   1.053   2.897  4.7408 -0.4835  0.1473
 7081TIP3   OH221206   2.671   1.783   5.837  0.2569  0.2289  0.0215
 7081TIP3    H121207   2.662   1.713   5.901  0.1489  0.9504  0.8098
 7081TIP3    H221208   2.581   1.800   5.807  0.2199  0.3975  0.2291
 7082TIP3   OH221209   5.660   2.615   0.154  0.3007  0.0795 -0.0286
 7082TIP3    H121210   5.657   2.519   0.153 -1.1814  0.0773  0.9268
 7082TIP3    H221211   5.597   2.642   0.087 -2.2875  0.3036  2.3144
 7083TIP3   OH221212   1.143   2.350   3.930  0.4068  0.4425  0.0550
 7083TIP3    H121213   1.095   2.315   3.854 -2.1225 -1.1307  2.2071
 7083TIP3    H221214   1.181   2.273   3.972  1.0027  1.1709  0.8856
 7084TIP3   OH221215   6.727   1.351   0.907 -0.1748  0.0288 -0.7052
 7084TIP3    H121216   6.697   1.363   0.816  0.8427  2.1062 -0.8318
 7084TIP3    H221217   6.777   1.430   0.926  1.7781 -1.4695  0.8461
 7085TIP3   OH221218   6.411   6.646   4.380 -0.8543 -0.3492  0.6279
 7085TIP3    H121219   6.408   6.588   4.304  2.1113  1.0472 -0.7401
 7085TIP3    H221220   6.459   6.597   4.446 -1.6187 -0.7904  0.8688
 7086TIP3   OH221221   2.094   4.406   5.238 -0.9038  0.4157 -0.2300
 7086TIP3    H121222   2.108   4.358   5.157 -0.4530  1.4668 -0.7877
 7086TIP3    H221223   2.182   4.429   5.268 -0.9375 -1.3614  1.4568
 7087TIP3   OH221224   1.899   6.038   1.652  0.0222 -0.1292  0.5511
 7087TIP3    H121225   1.873   6.127   1.676  1.1234  0.4358 -0.2920
 7087TIP3    H221226   1.988   6.047   1.617  1.1492 -1.8959  2.7115
 7088TIP3   OH221227   0.413   6.175   1.038  0.4332 -0.2986 -0.0068
 7088TIP3    H121228   0.478   6.106   1.023  0.8534  0.3105 -1.0617
 7088TIP3    H221229   0.329   6.129   1.037  0.7486 -0.8946  0.0178
 7089TIP3   OH221230   0.384   1.466   1.817  0.3395 -0.3343 -0.2591
 7089TIP3    H121231   0.301   1.430   1.786 -1.1723  1.3759  1.4978
 7089TIP3    H221232   0.443   1.391   1.822 -1.2171 -1.6730 -1.2124
 7090TIP3   OH221233   2.550   1.041   2.443  0.2599  0.3251  0.1947
 7090TIP3    H121234   2.636   1.000   2.445  0.5338  0.7767 -1.2848
 7090TIP3    H221235   2.534   1.067   2.534  1.6549  0.2024  0.4993
 7091TIP3   OH221236   1.621   2.044   3.703 -0.2285  0.0890 -0.0395
 7091TIP3    H121237   1.554   2.064   3.638 -0.7764 -2.0984 -0.2181
 7091TIP3    H221238   1.667   1.968   3.668  0.8421  0.1329  1.1804
 7092TIP3   OH221239   0.014   6.059   5.221 -0.2959 -0.0574 -0.3540
 7092TIP3    H121240   0.073   6.134   5.221 -0.0989 -0.1917 -1.4291
 7092TIP3    H221241  -0.060   6.086   5.275  0.1938  0.5617  0.0191
 7093TIP3   OH221242   7.173   2.770   0.487 -0.3416 -0.1253 -0.2874
 7093TIP3    H121243   7.225   2.846   0.463  0.7621 -0.9133 -0.4357
 7093TIP3    H221244   7.151   2.728   0.404 -3.6666  1.6930 -0.5090
 7094TIP3   OH221245   2.019   4.196   4.004 -0.2032  0.3574  0.1667
 7094TIP3    H121246   2.066   4.226   4.081 -0.5649 -0.5084  0.7442
 7094TIP3    H221247   2.087   4.183   3.937 -0.0791  2.8380 -0.2762
 7095TIP3   OH221248   0.854   0.608   0.374  0.0050  0.3065  0.0531
 7095TIP3    H121249   0.905   0.686   0.394 -0.7767  0.8243  0.0842
 7095TIP3    H221250   0.832   0.618   0.281  0.1906 -0.0469 -0.0287
 7096TIP3   OH221251   0.684   1.451   3.425  0.1721  0.1306 -0.0771
 7096TIP3    H121252   0.692   1.371   3.477 -1.2245 -0.4126 -0.6416
 7096TIP3    H221253   0.773   1.471   3.396  0.6211 -0.8742  0.5757
 7097TIP3   OH221254   1.679   1.831   1.143  0.1082 -0.8909  0.6903
 7097TIP3    H121255   1.648   1.920   1.126  0.7654 -0.9535 -1.0808
 7097TIP3    H221256   1.600   1.782   1.163 -0.3259 -0.0168  1.1531
 7098TIP3   OH221257   2.578   4.242   1.081  0.7139 -0.0549 -0.2115
 7098TIP3    H121258   2.512   4.274   1.019  0.9219  0.6042 -0.1077
 7098TIP3    H221259   2.631   4.181   1.030 -0.8040 -1.6710  0.0667
 7099TIP3   OH221260   6.450   6.463   3.359  0.3956  0.0663  0.0184
 7099TIP3    H121261   6.453   6.414   3.276 -0.3517 -0.9949  0.5940
 7099TIP3    H221262   6.448   6.395   3.427 -0.0037  0.9089  0.8677
 7100TIP3   OH221263   0.653   3.979   4.044 -0.5102 -0.0635  0.2001
 7100TIP3    H121264   0.720   4.014   3.985 -1.3548 -0.8601 -1.2757
 7100TIP3    H221265   0.578   4.036   4.032 -1.1633 -1.0689 -0.5866
 7101TIP3   OH221266   0.735   1.338   2.438  0.0311 -0.3903  0.0618
 7101TIP3    H121267   0.796   1.310   2.506 -2.6442  0.5216  3.1100
 7101TIP3    H221268   0.779   1.412   2.396  1.9535 -1.2472  0.4399
 7102TIP3   OH221269   1.209   3.108   1.545  0.4542 -0.1346  0.2267
 7102TIP3    H121270   1.271   3.035   1.545  1.0021  0.3018  1.5134
 7102TIP3    H221271   1.245   3.169   1.480  2.1161  0.6692  1.7947
 7103TIP3   OH221272   2.130   6.682   1.677  0.6913  0.5840  0.3879
 7103TIP3    H121273   2.160   6.591   1.675 -0.9645  0.0181 -1.2241
 7103TIP3    H221274   2.041   6.677   1.711 -0.2245  1.2961 -1.7582
 7104TIP3   OH221275   1.667   3.693   1.645 -0.0095  0.4166  0.0582
 7104TIP3    H121276   1.668   3.770   1.590 -0.3813  0.2579 -0.1719
 7104TIP3    H221277   1.744   3.643   1.618  1.1308  1.4257  1.2583
 7105TIP3   OH221278   4.248   1.687   2.070  0.4212 -0.2248 -0.5921
 7105TIP3    H121279   4.163   1.728   2.087  1.2883  0.9434  1.3246
 7105TIP3    H221280   4.295   1.751   2.016  0.5927 -0.2180 -0.4348
 7106TIP3   OH221281   3.980   5.396   0.344  0.3279  0.6756  0.1489
 7106TIP3    H121282   4.067   5.374   0.309 -0.3984 -0.6575 -0.9720
 7106TIP3    H221283   3.919   5.358   0.280 -1.0843  0.3457  1.6247
 7107TIP3   OH221284   5.453   1.140   4.843  0.6512 -0.6060 -0.1996
 7107TIP3    H121285   5.523   1.194   4.880  2.7364 -2.2650 -1.4615
 7107TIP3    H221286   5.453   1.060   4.895 -0.7553 -0.4058  0.1509
 7108TIP3   OH221287   2.034   3.065   1.162  0.2726  0.2508  0.1349
 7108TIP3    H121288   1.989   3.015   1.093 -0.4462  0.2092  0.6270
 7108TIP3    H221289   2.080   2.999   1.213 -0.8358  0.0442  0.9041
 7109TIP3   OH221290   3.940   4.228   1.115  0.4913 -0.1221  0.1435
 7109TIP3    H121291   3.885   4.302   1.141 -0.2360 -0.5103 -0.2629
 7109TIP3    H221292   3.949   4.176   1.195 -3.5876 -2.5028 -0.6727
 7110TIP3   OH221293   5.637   1.704   0.914 -0.5374 -0.4427 -0.5077
 7110TIP3    H121294   5.713   1.758   0.934  0.6126 -2.0345 -0.4512
 7110TIP3    H221295   5.618   1.657   0.995 -1.1686 -0.5501 -0.7109
 7111TIP3   OH221296   3.474   6.112   3.244 -0.5001 -0.1355 -0.3136
 7111TIP3    H121297   3.399   6.065   3.207  0.4062 -1.3548 -0.6706
 7111TIP3    H221298   3.517   6.047   3.300  1.1084  0.0663 -1.2567
 7112TIP3   OH221299   0.174   0.302   0.935 -0.5000  0.3026  0.4701
 7112TIP3    H121300   0.157   0.333   1.024 -1.1597  0.3870  0.3268
 7112TIP3    H221301   0.099   0.334   0.885 -0.0856  0.3352 -0.1349
 7113TIP3   OH221302   3.739   5.762   2.797  0.7481  0.2793 -0.5595
 7113TIP3    H121303   3.722   5.821   2.724 -3.0162 -0.7759 -0.7777
 7113TIP3    H221304   3.690   5.801   2.870 -2.0280 -2.4338 -0.7698
 7114TIP3   OH221305   3.769   0.930   5.647  0.2514  0.2673 -0.5065
 7114TIP3    H121306   3.697   0.964   5.594  0.5311  0.2429 -0.8973
 7114TIP3    H221307   3.740   0.841   5.672  0.3192  0.1105 -0.9869
 7115TIP3   OH221308   5.839   0.881   5.530  0.0139  0.0039 -0.0530
 7115TIP3    H121309   5.901   0.954   5.541 -0.4013  0.5577 -1.2101
 7115TIP3    H221310   5.861   0.844   5.444 -1.1082  0.0776 -0.3932
 7116TIP3   OH221311   4.239   4.819   2.524 -0.1692  0.7552 -0.5569
 7116TIP3    H121312   4.180   4.891   2.544 -1.4628 -0.0742 -1.2432
 7116TIP3    H221313   4.207   4.783   2.441  0.0322 -0.9930  0.0652
 7117TIP3   OH221314   6.718   2.946   4.654  0.1107 -0.1296 -0.5899
 7117TIP3    H121315   6.749   3.008   4.721 -1.1692  0.2719 -0.3301
 7117TIP3    H221316   6.720   2.861   4.697 -1.5526  0.2445  0.3052
 7118TIP3   OH221317   0.411   3.832   0.595 -0.0779 -0.4209  0.8050
 7118TIP3    H121318   0.493   3.786   0.577  0.4945  1.1034 -0.7553
 7118TIP3    H221319   0.429   3.923   0.571 -2.3368 -0.1141  0.0478
 7119TIP3   OH221320   3.351   1.331   5.750  0.3976 -0.4800  0.0989
 7119TIP3    H121321   3.334   1.424   5.758  0.7953 -0.3065 -0.8571
 7119TIP3    H221322   3.297   1.303   5.676 -0.2001 -1.1374  0.7775
 7120TIP3   OH221323   5.473   3.730   5.491  0.3063 -0.1077  0.6984
 7120TIP3    H121324   5.503   3.818   5.514 -1.3336  1.0747 -1.3122
 7120TIP3    H221325   5.553   3.683   5.466  1.0125  1.4957 -0.2315
 7121TIP3   OH221326   2.818   2.386   3.301  0.0305  0.0125  0.6597
 7121TIP3    H121327   2.737   2.336   3.316 -0.4690  0.7329  0.4254
 7121TIP3    H221328   2.789   2.465   3.255  0.6831  0.9153  1.7460
 7122TIP3   OH221329   4.004   2.449   1.690  0.1603  0.5586 -0.0332
 7122TIP3    H121330   3.995   2.542   1.671 -0.7164  0.4305 -0.2790
 7122TIP3    H221331   3.940   2.406   1.634  2.0370 -0.4173 -1.5646
 7123TIP3   OH221332   1.850   0.701   5.350  0.0780  0.4176 -0.0392
 7123TIP3    H121333   1.806   0.770   5.300 -0.1879  2.2150  2.4680
 7123TIP3    H221334   1.876   0.744   5.431  0.4700 -2.3233  1.3923
 7124TIP3   OH221335   0.849   5.512   5.191  0.6439  0.2606 -0.3359
 7124TIP3    H121336   0.807   5.577   5.247 -0.9639 -1.7706  0.9819
 7124TIP3    H221337   0.785   5.494   5.122  0.5007 -0.8002  0.0466
 7125TIP3   OH221338   2.209   4.838   0.610 -0.2748 -0.7231  0.5485
 7125TIP3    H121339   2.227   4.745   0.628  0.3691 -0.7909 -0.3646
 7125TIP3    H221340   2.292   4.882   0.626 -0.9040 -0.0897  2.2252
 7126TIP3   OH221341   1.733   2.466   0.267 -0.1336 -0.6915  0.5417
 7126TIP3    H121342   1.681   2.541   0.294 -1.3160 -0.9078 -1.0216
 7126TIP3    H221343   1.691   2.391   0.309 -0.9559 -0.8314 -0.4886
 7127TIP3   OH221344   5.390   0.868   3.241  0.6265  0.1619  0.9338
 7127TIP3    H121345   5.480   0.876   3.272  1.0987  0.3492 -0.4355
 7127TIP3    H221346   5.370   0.953   3.201  0.3861 -0.3779 -0.1395
 7128TIP3   OH221347   2.382   1.711   5.764 -0.2733 -0.0609 -0.1188
 7128TIP3    H121348   2.370   1.757   5.847 -0.1258 -2.4872  1.3324
 7128TIP3    H221349   2.298   1.669   5.748  0.7122 -2.5306  0.7532
 7129TIP3   OH221350   2.978   2.902   5.618  0.0289  0.4976  0.2846
 7129TIP3    H121351   3.003   2.978   5.565  0.8427 -0.1969 -0.3436
 7129TIP3    H221352   3.013   2.922   5.705 -0.4854  1.2069  0.3433
 7130TIP3   OH221353   6.001   0.883   3.575 -0.2893 -0.6576 -0.3057
 7130TIP3    H121354   6.037   0.798   3.548  0.0257 -1.4171  2.2406
 7130TIP3    H221355   5.942   0.862   3.648 -0.6559  1.2750  0.0150
 7131TIP3   OH221356   3.658   1.177   0.622 -0.5407  0.2576  0.7750
 7131TIP3    H121357   3.738   1.214   0.659 -0.3973  1.2767 -0.4618
 7131TIP3    H221358   3.603   1.253   0.602 -0.8345 -0.2716 -0.5457
 7132TIP3   OH221359   2.375   4.084   0.703  0.4386 -0.3217  0.2237
 7132TIP3    H121360   2.448   4.128   0.660 -1.3911 -0.2205 -3.0906
 7132TIP3    H221361   2.393   3.990   0.692  0.4190 -0.3070  0.0713
 7133TIP3   OH221362   0.423   6.662   5.147  0.4005 -0.5953 -0.3766
 7133TIP3    H121363   0.488   6.594   5.161 -0.1930 -1.3433 -1.1410
 7133TIP3    H221364   0.342   6.627   5.185  0.9784  1.5461  3.3738
 7134TIP3   OH221365   0.646   2.268   2.795 -0.0174  0.0422  0.1535
 7134TIP3    H121366   0.742   2.273   2.797  0.0575  0.1621 -1.7653
 7134TIP3    H221367   0.628   2.187   2.746 -0.8705  0.5972 -0.4786
 7135TIP3   OH221368   4.624   4.459   3.717 -0.1992  0.5760 -0.3085
 7135TIP3    H121369   4.632   4.437   3.810  0.5523  1.7329 -0.0762
 7135TIP3    H221370   4.534   4.491   3.707 -0.2471  0.5507  0.0378
 7136TIP3   OH221371   2.031   5.015   3.045  0.1615  0.2444  0.1389
 7136TIP3    H121372   2.123   4.993   3.037 -0.2892 -1.4283 -1.0468
 7136TIP3    H221373   1.991   4.937   3.083 -0.6848  1.2118  1.3183
 7137TIP3   OH221374   4.618   5.751   5.619 -0.0618 -0.1577 -0.3082
 7137TIP3    H121375   4.532   5.736   5.659 -1.0626  1.9434 -1.4840
 7137TIP3    H221376   4.616   5.701   5.537 -0.7601  0.9819 -1.0131
 7138TIP3   OH221377   4.577   1.911   0.170  0.0520 -0.1312  0.5120
 7138TIP3    H121378   4.653   1.886   0.119 -0.2837 -0.6786  0.2636
 7138TIP3    H221379   4.587   2.004   0.186  1.1752 -0.3445  1.1700
 7139TIP3   OH221380   1.215   6.170   3.723  0.0822 -0.1288 -0.0738
 7139TIP3    H121381   1.270   6.245   3.702 -0.4939  0.3092 -0.0251
 7139TIP3    H221382   1.182   6.140   3.639  0.6203 -0.5718 -0.1321
 7140TIP3   OH221383   5.693   4.953   5.078 -0.0065 -0.0304  0.7218
 7140TIP3    H121384   5.602   4.923   5.083  0.1908 -0.5311  1.2827
 7140TIP3    H221385   5.687   5.048   5.089 -0.4083 -0.1268  1.3863
 7141TIP3   OH221386   6.608   1.062   0.119  0.1536 -0.3670  0.0254
 7141TIP3    H121387   6.526   1.106   0.098 -0.4339  0.8987  4.1019
 7141TIP3    H221388   6.668   1.132   0.143  0.2222 -1.4401  3.5235
 7142TIP3   OH221389   6.851   4.702   1.969  0.3683  0.1653  0.1946
 7142TIP3    H121390   6.813   4.646   1.901  0.6479  1.1839 -0.8394
 7142TIP3    H221391   6.776   4.733   2.020  0.2135 -1.1492  0.8080
 7143TIP3   OH221392   6.286   6.310   4.503 -0.2285  0.6662 -0.3279
 7143TIP3    H121393   6.260   6.398   4.531  0.5114  1.0055 -0.6546
 7143TIP3    H221394   6.211   6.255   4.522 -1.3756  1.6751 -1.6648
 7144TIP3   OH221395   2.499  -0.031   0.675 -0.4631  0.5382 -0.2244
 7144TIP3    H121396   2.537   0.040   0.727 -2.2196  0.9192  0.6172
 7144TIP3    H221397   2.411   0.000   0.653 -0.5908 -0.6066 -1.4558
 7145TIP3   OH221398   5.517   6.418   2.172  0.2149 -0.5671 -0.0316
 7145TIP3    H121399   5.499   6.389   2.082  0.0165 -3.2257  0.7984
 7145TIP3    H221400   5.610   6.399   2.185  0.3087  0.0626  0.2783
 7146TIP3   OH221401   6.265   2.890   1.542  0.5816  0.0267  0.0977
 7146TIP3    H121402   6.318   2.969   1.535  0.6357 -0.0804 -0.8280
 7146TIP3    H221403   6.253   2.878   1.636  0.2253  1.3588  0.2474
 7147TIP3   OH221404   1.516   6.730   0.842  0.3916  0.3108  0.2744
 7147TIP3    H121405   1.437   6.713   0.893  0.6841  0.6682  0.8540
 7147TIP3    H221406   1.484   6.749   0.753 -0.0942 -0.7093  0.2207
 7148TIP3   OH221407   2.077   4.043   4.830 -0.1233  0.2207  0.0671
 7148TIP3    H121408   1.982   4.047   4.840 -0.1042 -0.8346  0.8112
 7148TIP3    H221409   2.097   4.111   4.766 -1.2400  1.2952  0.8135
 7149TIP3   OH221410   1.171   6.668   3.135  0.6824 -0.2041 -0.3882
 7149TIP3    H121411   1.118   6.738   3.097  0.3760 -0.1181  0.1862
 7149TIP3    H221412   1.233   6.644   3.066  0.4881  0.3174 -0.7456
 7150TIP3   OH221413   5.447   5.158   1.018  0.4687  0.0548  0.2874
 7150TIP3    H121414   5.433   5.067   1.046  0.3590  0.3709  1.2987
 7150TIP3    H221415   5.378   5.207   1.062  0.4466  0.6166 -0.3603
 7151TIP3   OH221416   5.850   5.076   5.311 -0.2566 -0.4382 -0.3030
 7151TIP3    H121417   5.917   5.083   5.379 -1.3808 -1.3716  0.9711
 7151TIP3    H221418   5.773   5.118   5.350 -0.8414 -0.7503 -1.1002
 7152TIP3   OH221419   0.462   6.027   4.648  0.1055  0.0924 -0.7631
 7152TIP3    H121420   0.525   6.096   4.628  2.6952 -1.5082  1.1679
 7152TIP3    H221421   0.514   5.959   4.691 -2.7759 -1.9129 -0.1433
 7153TIP3   OH221422   1.172   6.294   0.284 -0.4170 -0.3319  0.1166
 7153TIP3    H121423   1.258   6.319   0.317 -0.6074 -0.5956  0.8353
 7153TIP3    H221424   1.117   6.287   0.362 -1.4466  1.1654 -0.4377
 7154TIP3   OH221425   6.189   1.729   5.486  0.3244 -0.0222 -0.0785
 7154TIP3    H121426   6.273   1.687   5.505 -0.1084 -0.2446  1.4684
 7154TIP3    H221427   6.126   1.679   5.537 -0.5558  0.9792 -0.1655
 7155TIP3   OH221428   2.267   6.524   1.204  0.5602  0.1417  0.5037
 7155TIP3    H121429   2.291   6.590   1.138 -2.3175 -0.1261 -0.9913
 7155TIP3    H221430   2.322   6.448   1.183  1.5137  0.9313  0.0687
 7156TIP3   OH221431   5.934   4.595   2.054 -0.3789  0.9832  1.1738
 7156TIP3    H121432   5.879   4.519   2.033 -0.2688  1.3015 -0.3423
 7156TIP3    H221433   5.963   4.579   2.144  0.5345 -1.3653  0.5535
 7157TIP3   OH221434   1.102   5.231   3.949  0.6336 -0.0057 -0.4056
 7157TIP3    H121435   1.151   5.150   3.963  3.2917  1.7882  1.3516
 7157TIP3    H221436   1.111   5.249   3.855  1.9095 -0.6090 -0.4129
 7158TIP3   OH221437   1.967   0.626   3.525  0.0800  0.0803  0.5956
 7158TIP3    H121438   1.891   0.665   3.483  0.6410  0.5504 -0.0049
 7158TIP3    H221439   1.966   0.535   3.497  0.9353  0.5779 -1.2105
 7159TIP3   OH221440   6.061   2.978   5.567  0.5015  0.0089 -0.0742
 7159TIP3    H121441   6.088   2.964   5.476 -0.5540  0.1929 -0.4399
 7159TIP3    H221442   5.998   3.051   5.561  1.2865  0.7918  0.9612
 7160TIP3   OH221443   5.088   5.641   5.118 -0.0756  0.3607 -0.0257
 7160TIP3    H121444   5.133   5.587   5.052  0.7402  0.1599  0.6775
 7160TIP3    H221445   5.094   5.730   5.084  1.0882  0.3681  0.1627
 7161TIP3   OH221446   2.892   5.052   2.790 -0.4863 -0.8435  0.0959
 7161TIP3    H121447   2.955   4.997   2.837  1.7415  1.4000 -0.0645
 7161TIP3    H221448   2.941   5.086   2.715 -2.0718  0.5964 -0.3447
 7162TIP3   OH221449   4.782   0.830   4.645 -0.0425 -0.4364  0.5267
 7162TIP3    H121450   4.760   0.784   4.563  1.0736  1.8192 -1.1533
 7162TIP3    H221451   4.704   0.882   4.665  0.0974 -0.1039  0.2216
 7163TIP3   OH221452   2.974   2.262   5.309  0.4892  0.1179  0.4280
 7163TIP3    H121453   2.887   2.271   5.269  0.9341  0.5974 -0.4447
 7163TIP3    H221454   2.958   2.209   5.387 -1.0310  2.1916  1.6750
 7164TIP3   OH221455   2.621   4.917   3.714 -0.2641 -0.2324 -0.1083
 7164TIP3    H121456   2.630   5.001   3.670  1.3405 -0.2307  0.1591
 7164TIP3    H221457   2.545   4.877   3.673 -1.6601  1.7328  0.4312
 7165TIP3   OH221458   4.254   5.222   1.740 -0.0216 -0.6952  0.3031
 7165TIP3    H121459   4.173   5.198   1.784 -0.0433  0.6967  1.0930
 7165TIP3    H221460   4.291   5.139   1.710 -0.7592 -1.5449  1.6542
 7166TIP3   OH221461   5.723   6.485   3.109 -0.0424 -0.4356  0.7527
 7166TIP3    H121462   5.685   6.479   3.197  0.3638 -2.0775  0.8452
 7166TIP3    H221463   5.726   6.395   3.078  1.8047 -0.1347 -0.0903
 7167TIP3   OH221464   1.028   6.594   5.062  0.2984  0.5972 -0.5163
 7167TIP3    H121465   1.042   6.660   4.994 -1.8609  2.3010  0.5676
 7167TIP3    H221466   0.983   6.641   5.133 -2.0988 -2.1635 -0.0003
 7168TIP3   OH221467   4.636   1.624   5.782  0.1347 -0.5420  0.2273
 7168TIP3    H121468   4.684   1.560   5.834  0.8213 -1.1616 -1.1161
 7168TIP3    H221469   4.551   1.584   5.766 -0.4508  0.0709  1.6560
 7169TIP3   OH221470   5.735   6.229   5.038  0.2706 -0.3363  0.3205
 7169TIP3    H121471   5.679   6.269   4.972 -0.2421 -2.3254 -0.5418
 7169TIP3    H221472   5.819   6.217   4.995 -0.0113 -1.4768  0.0483
 7170TIP3   OH221473   4.619   3.203   4.325  0.5055 -0.1947  0.1135
 7170TIP3    H121474   4.668   3.285   4.323  0.1170  0.1570  2.2983
 7170TIP3    H221475   4.528   3.229   4.326  0.2254 -0.8085 -2.4764
 7171TIP3   OH221476   6.453   0.380   1.987 -0.0514  0.3503  0.5942
 7171TIP3    H121477   6.411   0.398   2.071  0.4766 -0.3616  1.0113
 7171TIP3    H221478   6.390   0.413   1.922 -1.4573 -1.0416  1.1778
 7172TIP3   OH221479   5.136   1.650   1.335 -0.3034 -0.2370  0.6826
 7172TIP3    H121480   5.145   1.578   1.397  2.7473 -0.0638  0.5658
 7172TIP3    H221481   5.210   1.641   1.276 -1.8467  0.9339 -1.5948
 7173TIP3   OH221482   2.443   5.830   0.981 -0.2321 -0.0358  0.0302
 7173TIP3    H121483   2.413   5.902   1.037  1.2924 -0.8109  1.9360
 7173TIP3    H221484   2.403   5.752   1.019 -0.2259 -0.4365 -0.7774
 7174TIP3   OH221485   4.693   3.040   4.121  0.1097  0.6007 -0.2874
 7174TIP3    H121486   4.632   2.976   4.083 -0.5531 -0.6060  2.5385
 7174TIP3    H221487   4.638   3.097   4.174  1.2416  0.5154  1.0261
 7175TIP3   OH221488   1.767   4.988   5.332  0.1718  0.8616  0.2803
 7175TIP3    H121489   1.727   5.004   5.418  1.3818  3.5534  0.4464
 7175TIP3    H221490   1.857   5.020   5.342  1.0130 -0.7989 -1.4026
 7176TIP3   OH221491   6.988   3.011   0.599  0.5309  0.6202  0.3098
 7176TIP3    H121492   7.082   3.001   0.615  0.7895  3.9397  1.8024
 7176TIP3    H221493   6.947   2.971   0.676  0.8139  0.5661  0.4341
 7177TIP3   OH221494   0.442   6.561   1.147 -0.1347 -0.4683  0.2802
 7177TIP3    H121495   0.478   6.488   1.197  0.5373 -0.9257 -0.8334
 7177TIP3    H221496   0.514   6.591   1.092 -0.8489 -0.0146 -0.4403
 7178TIP3   OH221497   5.043   0.849   4.730  0.7806  0.0994  0.3825
 7178TIP3    H121498   5.039   0.923   4.791  0.5076  1.2819 -1.0384
 7178TIP3    H221499   4.952   0.823   4.718  0.8250 -0.0366  0.3326
 7179TIP3   OH221500   4.618   3.249   5.708  0.0792 -0.6122 -0.3390
 7179TIP3    H121501   4.576   3.232   5.792  1.2874  0.7821  0.5898
 7179TIP3    H221502   4.573   3.325   5.672  0.1478 -0.6591 -0.5284
 7180TIP3   OH221503   1.468   2.925   5.036  0.6312  0.5851  0.5098
 7180TIP3    H121504   1.451   2.931   4.942  1.7586 -1.2741  0.1258
 7180TIP3    H221505   1.384   2.901   5.074  0.8190 -2.1417 -0.5358
 7181TIP3   OH221506   5.285   6.585   4.658 -0.2875  0.3521 -0.0617
 7181TIP3    H121507   5.300   6.555   4.747 -2.1041  1.0290  0.5330
 7181TIP3    H221508   5.353   6.651   4.643  1.2495 -1.1318  0.0584
 7182TIP3   OH221509   2.288   1.000   1.714  0.2105  0.3318  0.0515
 7182TIP3    H121510   2.224   1.009   1.785 -0.1572  0.3978 -0.2838
 7182TIP3    H221511   2.329   1.086   1.707  2.7067 -0.5281  2.4580
 7183TIP3   OH221512   3.544   0.253   1.309 -0.2803 -0.8734  0.7474
 7183TIP3    H121513   3.572   0.343   1.325 -0.6293 -0.6977  0.4028
 7183TIP3    H221514   3.595   0.225   1.233  0.5997 -1.3384  1.4938
 7184TIP3   OH221515   5.909   4.647   5.133  0.0877 -0.0550 -0.0183
 7184TIP3    H121516   5.945   4.729   5.166 -1.0528  0.8313 -0.9317
 7184TIP3    H221517   5.865   4.608   5.209 -0.6794  0.9259  0.0572
 7185TIP3   OH221518   4.479   3.195   3.934 -0.3033  0.2754  0.2805
 7185TIP3    H121519   4.548   3.129   3.922 -0.4797 -0.1199  1.2970
 7185TIP3    H221520   4.439   3.204   3.848  0.6549  0.1012 -0.1959
 7186TIP3   OH221521   5.680   5.267   0.871 -0.1171  0.1681  0.3111
 7186TIP3    H121522   5.621   5.273   0.796  0.4995 -1.2750 -0.3332
 7186TIP3    H221523   5.629   5.220   0.938  0.0115 -0.3659  0.0420
 7187TIP3   OH221524   6.290   4.221   4.717  0.2346 -0.5061  0.0919
 7187TIP3    H121525   6.344   4.281   4.768 -0.7085  0.3964  0.0710
 7187TIP3    H221526   6.201   4.257   4.723  0.0108 -0.6033 -1.8314
 7188TIP3   OH221527   0.657   2.026   2.656  0.3401 -0.2029 -0.9198
 7188TIP3    H121528   0.583   1.965   2.659  0.8089 -0.7496  0.4366
 7188TIP3    H221529   0.730   1.974   2.624  1.3924 -1.2038  2.6099
 7189TIP3   OH221530   5.727   5.315   1.950  0.5869 -0.3169 -0.5196
 7189TIP3    H121531   5.810   5.268   1.960  0.8229  0.0711 -0.6202
 7189TIP3    H221532   5.660   5.247   1.956  0.9219 -0.6633 -0.6454
 7190TIP3   OH221533   0.405   1.641   3.584 -0.3658  0.5204  0.3443
 7190TIP3    H121534   0.475   1.626   3.520 -1.5545 -1.2900 -0.6148
 7190TIP3    H221535   0.352   1.562   3.580 -1.5300  1.1552  2.2737
 7191TIP3   OH221536   4.633   4.691   2.115 -0.0190 -0.0619 -0.0696
 7191TIP3    H121537   4.550   4.736   2.121  0.5308  1.0390 -0.4795
 7191TIP3    H221538   4.651   4.662   2.205 -0.9015 -0.4476 -0.0081
 7192TIP3   OH221539   4.558   1.673   5.044  0.7057 -0.2411  0.6376
 7192TIP3    H121540   4.484   1.733   5.055 -1.0488 -2.3714  1.2930
 7192TIP3    H221541   4.612   1.688   5.121  1.3203  1.7118 -0.1015
 7193TIP3   OH221542   1.203   6.167   2.783 -0.4596 -0.0305  0.1695
 7193TIP3    H121543   1.151   6.124   2.852 -1.1616 -0.5356 -0.6560
 7193TIP3    H221544   1.137   6.205   2.725  0.1326  0.4766 -0.1682
 7194TIP3   OH221545   7.219   2.210   2.974 -0.4144  0.2095  0.2733
 7194TIP3    H121546   7.199   2.215   3.068 -3.5733 -0.3729 -0.2507
 7194TIP3    H221547   7.161   2.274   2.934  1.0890  0.6411 -1.3156
 7195TIP3   OH221548   1.897   0.297   5.087  0.0470 -0.4324  0.1654
 7195TIP3    H121549   1.840   0.227   5.055 -0.4122 -1.2137  2.5112
 7195TIP3    H221550   1.839   0.373   5.098 -0.3450 -0.9005  1.4784
 7196TIP3   OH221551   7.041   4.761   2.890 -0.3090  0.1135 -0.0389
 7196TIP3    H121552   7.029   4.846   2.847 -0.8617 -0.0363 -0.1934
 7196TIP3    H221553   6.995   4.770   2.973  1.0715  0.5265  0.7046
 7197TIP3   OH221554   1.635   0.790   0.920 -0.3413  0.4826  0.1027
 7197TIP3    H121555   1.646   0.771   0.827  0.0918  1.3223 -0.0325
 7197TIP3    H221556   1.711   0.750   0.962 -0.5606  0.0641  0.1072
 7198TIP3   OH221557   6.070   3.064   5.111 -0.2219  0.0365 -0.6637
 7198TIP3    H121558   6.067   3.158   5.128  1.0396  0.1324 -0.9147
 7198TIP3    H221559   6.157   3.036   5.139 -1.0088 -1.3076  0.5731
 7199TIP3   OH221560   1.287   6.075   0.987 -0.2425 -0.1779  0.3007
 7199TIP3    H121561   1.303   6.055   1.079  1.1584 -1.5573 -0.2064
 7199TIP3    H221562   1.285   6.170   0.982 -0.2027 -0.0952  1.7275
 7200TIP3   OH221563   0.769   2.071   1.298  0.0511 -0.2029  0.1532
 7200TIP3    H121564   0.847   2.023   1.270 -1.1063 -2.0480 -0.0971
 7200TIP3    H221565   0.747   2.127   1.223  1.4428  0.8024  0.4576
 7201TIP3   OH221566   4.638   4.427   0.224 -0.0152 -0.3345  0.3413
 7201TIP3    H121567   4.731   4.448   0.230  0.0405  0.8541 -2.9384
 7201TIP3    H221568   4.594   4.511   0.237 -0.3657 -0.1103 -1.9309
 7202TIP3   OH221569   4.123   3.480   4.767  0.2364  0.4693 -1.0033
 7202TIP3    H121570   4.196   3.420   4.749 -0.1948  0.2198 -1.9631
 7202TIP3    H221571   4.165   3.559   4.801  0.7781 -0.6141  1.0588
 7203TIP3   OH221572   0.783   5.627   0.104 -0.1964 -0.6230  0.3285
 7203TIP3    H121573   0.802   5.563   0.035 -1.1120  2.0650 -2.6803
 7203TIP3    H221574   0.688   5.624   0.114 -0.4759  1.3160 -1.1320
 7204TIP3   OH221575   5.881   3.052   3.295 -0.1802 -0.3364  0.0531
 7204TIP3    H121576   5.943   3.020   3.362  1.0597  1.0384 -0.3907
 7204TIP3    H221577   5.795   3.029   3.330  0.5272 -2.0449  0.8422
 7205TIP3   OH221578   4.081   2.292   0.307  0.1554  0.1798 -0.4971
 7205TIP3    H121579   4.001   2.254   0.343  0.5169 -0.1071  0.0035
 7205TIP3    H221580   4.050   2.349   0.236 -0.3527 -1.5806 -1.7674
 7206TIP3   OH221581   4.639   5.122   2.640 -0.0866 -0.3050  0.5297
 7206TIP3    H121582   4.562   5.066   2.640  1.2621 -2.2751  1.6684
 7206TIP3    H221583   4.621   5.189   2.706 -1.3921  0.2007 -0.2882
 7207TIP3   OH221584   4.128   4.355   3.788  0.0262 -0.4754 -0.2112
 7207TIP3    H121585   4.060   4.288   3.780 -1.0907  0.4505  1.3064
 7207TIP3    H221586   4.205   4.306   3.817  0.3875 -1.6975 -2.8687
 7208TIP3   OH221587   0.847   3.111   5.387 -0.2408  0.1493  0.1557
 7208TIP3    H121588   0.874   3.140   5.474  1.8418 -1.9092  0.2792
 7208TIP3    H221589   0.858   3.016   5.388 -2.5557 -0.2342 -1.6104
 7209TIP3   OH221590   4.834   5.433   5.782  0.0360 -0.0639 -0.6206
 7209TIP3    H121591   4.794   5.468   5.862  0.6177  0.7483 -0.6673
 7209TIP3    H221592   4.834   5.338   5.795  0.5610  0.0735  0.5771
 7210TIP3   OH221593   0.639   6.153   3.147 -0.3085 -0.6945  0.2885
 7210TIP3    H121594   0.711   6.098   3.176  0.2739  0.6536  1.5669
 7210TIP3    H221595   0.648   6.157   3.052 -1.3211 -4.0005 -0.0467
 7211TIP3   OH221596   1.265   5.086   3.068  0.4599 -0.2079 -0.4662
 7211TIP3    H121597   1.186   5.126   3.102  2.0926  1.5475  1.5306
 7211TIP3    H221598   1.288   5.138   2.991 -0.8476 -1.4118 -1.7223
 7212TIP3   OH221599   0.964   5.601   0.356  0.0342  0.2459  0.0409
 7212TIP3    H121600   0.943   5.689   0.389 -2.2021 -0.2030 -0.0131
 7212TIP3    H221601   0.971   5.612   0.261 -1.0051  0.2624 -0.0463
 7213TIP3   OH221602   4.795   0.116   0.332 -0.2137  0.5886 -0.2974
 7213TIP3    H121603   4.889   0.097   0.335 -0.3122  0.1742  0.5832
 7213TIP3    H221604   4.783   0.168   0.253  0.9654  1.7365  0.2399
 7214TIP3   OH221605   1.352   3.586   3.734  0.1166  0.3543 -0.2815
 7214TIP3    H121606   1.367   3.565   3.642  0.6471  2.4924 -0.7237
 7214TIP3    H221607   1.257   3.597   3.741 -0.0181 -0.6001 -0.3496
 7215TIP3   OH221608   5.741   0.391   3.498 -0.1206  0.0490 -0.8300
 7215TIP3    H121609   5.821   0.383   3.549 -0.7190 -1.2515 -0.0275
 7215TIP3    H221610   5.676   0.424   3.561 -0.6771 -0.8267 -0.9164
 7216TIP3   OH221611   6.408   0.936   1.550 -0.0481 -0.2062 -0.7219
 7216TIP3    H121612   6.324   0.894   1.531 -0.8679  1.3039 -0.6445
 7216TIP3    H221613   6.461   0.867   1.590 -1.0840 -1.3116 -1.1748
 7217TIP3   OH221614   2.651   0.564   5.446  0.1804 -0.1184  0.8068
 7217TIP3    H121615   2.727   0.589   5.393  0.0372 -2.3900 -0.6146
 7217TIP3    H221616   2.676   0.480   5.484 -1.5346 -0.8066  0.4908
 7218TIP3   OH221617   2.982   1.609   3.988  0.0451  0.1430 -0.7169
 7218TIP3    H121618   3.028   1.582   4.067 -0.8295 -0.2163 -0.3180
 7218TIP3    H221619   3.018   1.553   3.919  0.2686 -0.0695 -0.4316
 7219TIP3   OH221620   1.647   0.593   4.713 -0.1943  0.6539  0.2981
 7219TIP3    H121621   1.708   0.559   4.647  0.8365  1.5021  0.7840
 7219TIP3    H221622   1.671   0.547   4.794 -0.3960  0.7660  0.4212
 7220TIP3   OH221623   2.831   1.689   4.492 -0.5112  0.4680 -0.7896
 7220TIP3    H121624   2.827   1.783   4.472 -1.9580  0.5743 -0.1507
 7220TIP3    H221625   2.755   1.674   4.548  1.1311 -0.5906  1.2804
 7221TIP3   OH221626   3.907   2.608   0.247 -0.4698  0.3536 -0.3652
 7221TIP3    H121627   3.839   2.548   0.277 -1.0041  1.1574  0.0748
 7221TIP3    H221628   3.881   2.629   0.157  0.4315 -1.0626 -0.9812
 7222TIP3   OH221629   5.445   0.389   5.520  0.3087  0.0980  0.5508
 7222TIP3    H121630   5.527   0.435   5.537  1.5294 -2.7176  3.1365
 7222TIP3    H221631   5.379   0.441   5.566  0.9733  1.2834  0.1987
 7223TIP3   OH221632   0.204   5.442   1.755  0.4086  0.0310  0.0625
 7223TIP3    H121633   0.175   5.421   1.844 -1.0363 -0.3218 -0.4776
 7223TIP3    H221634   0.248   5.363   1.725 -0.4526 -0.4035 -0.0802
 7224TIP3   OH221635   6.798   6.649   0.519 -0.0446 -0.4201 -0.5547
 7224TIP3    H121636   6.734   6.719   0.529  0.7980  0.3681 -0.5177
 7224TIP3    H221637   6.847   6.649   0.602  0.5549 -0.4347 -0.9025
 7225TIP3   OH221638   5.986   5.366   5.155  0.1561  0.1546 -0.5951
 7225TIP3    H121639   5.985   5.322   5.240 -1.5329 -0.7189 -1.0197
 7225TIP3    H221640   5.899   5.405   5.147 -0.1040 -0.6790 -2.3528
 7226TIP3   OH221641   6.837   1.084   2.227 -0.6445  0.2897  0.1556
 7226TIP3    H121642   6.741   1.088   2.223 -0.6568 -0.2478 -0.1027
 7226TIP3    H221643   6.855   0.998   2.265 -0.2812  0.7254  0.9814
 7227TIP3   OH221644   6.539   5.122   3.165  0.1753 -0.0647 -0.3192
 7227TIP3    H121645   6.576   5.034   3.158 -0.0458 -0.1411 -0.5365
 7227TIP3    H221646   6.583   5.161   3.241  1.6770  0.3030 -1.3207
 7228TIP3   OH221647   3.676   1.052   0.370  0.0641  0.3112  0.0669
 7228TIP3    H121648   3.679   1.126   0.430  2.2220 -0.4027  0.9322
 7228TIP3    H221649   3.591   1.011   0.386 -1.0381  2.3637 -0.2073
 7229TIP3   OH221650   1.673   4.765   2.776  0.0965  0.4543 -0.0020
 7229TIP3    H121651   1.666   4.778   2.682  2.2134  0.2205 -0.2487
 7229TIP3    H221652   1.706   4.848   2.810  1.3428 -0.1048  0.2156
 7230TIP3   OH221653   0.472   6.294   0.668 -0.1842  0.1226  0.0457
 7230TIP3    H121654   0.563   6.291   0.637  0.2003 -0.4389  1.1378
 7230TIP3    H221655   0.438   6.207   0.649 -0.6624  0.4879 -0.8041
 7231TIP3   OH221656   5.603   1.225   4.233  0.0416 -0.2671  0.4604
 7231TIP3    H121657   5.663   1.285   4.188  1.6949 -2.1563  0.0376
 7231TIP3    H221658   5.611   1.249   4.326  1.5196 -0.5329  0.4189
 7232TIP3   OH221659   2.763   6.191   4.195  0.2172 -0.1021  0.4528
 7232TIP3    H121660   2.823   6.208   4.267 -0.1949  0.9505  0.5652
 7232TIP3    H221661   2.714   6.114   4.223 -0.0757  0.4104  1.4002
 7233TIP3   OH221662   6.435   2.372   1.925 -0.8987 -0.1286 -0.1464
 7233TIP3    H121663   6.361   2.414   1.881 -0.6879 -1.1345 -1.5249
 7233TIP3    H221664   6.487   2.334   1.854 -0.2173 -1.2848  0.9344
 7234TIP3   OH221665   2.678   4.349   2.503 -0.1798 -0.1440 -0.2965
 7234TIP3    H121666   2.665   4.399   2.423 -1.3182  0.4210  0.2230
 7234TIP3    H221667   2.590   4.329   2.535  0.2488 -0.4022  0.7905
 7235TIP3   OH221668   6.782   6.241   3.386  0.1312 -0.3626 -0.5026
 7235TIP3    H121669   6.727   6.165   3.366  1.6045 -1.6448  0.0769
 7235TIP3    H221670   6.778   6.250   3.481  2.0737 -1.4623 -0.2643
 7236TIP3   OH221671   3.471   5.598   4.073 -0.0635  0.3240  0.2725
 7236TIP3    H121672   3.523   5.678   4.070  0.8142 -0.2084  0.8864
 7236TIP3    H221673   3.521   5.539   4.130 -0.1493 -1.0498 -1.0199
 7237TIP3   OH221674   0.949   4.785   1.848 -0.4214  0.0374  0.2379
 7237TIP3    H121675   0.980   4.814   1.933 -0.5541 -1.2157  0.7397
 7237TIP3    H221676   1.013   4.819   1.785  0.3764 -0.1028  0.9641
 7238TIP3   OH221677   1.758   0.022   5.340 -0.1984 -0.5028  0.4972
 7238TIP3    H121678   1.844   0.062   5.356 -0.4517  0.9220 -1.3339
 7238TIP3    H221679   1.769  -0.070   5.364  1.6636 -0.2250  0.8572
 7239TIP3   OH221680   3.289   2.455   0.171 -0.4519 -0.5972 -0.3889
 7239TIP3    H121681   3.202   2.417   0.159 -0.3655 -1.1916  0.7085
 7239TIP3    H221682   3.348   2.380   0.170 -0.1181 -0.3575  0.3616
 7240TIP3   OH221683   5.674   2.351   0.113 -0.0692  0.1533  0.1825
 7240TIP3    H121684   5.609   2.299   0.066  0.9656 -0.2082 -0.8957
 7240TIP3    H221685   5.682   2.308   0.198 -1.6622  0.5715  0.5846
 7241TIP3   OH221686   3.962   0.499   1.802  0.2883 -0.4681 -0.5166
 7241TIP3    H121687   3.914   0.428   1.759 -2.9052  1.6071 -0.6600
 7241TIP3    H221688   3.966   0.473   1.894  0.2657 -1.3803 -0.7623
 7242TIP3   OH221689   0.474   2.314   3.487 -0.1725 -0.0796  0.2577
 7242TIP3    H121690   0.459   2.382   3.553 -2.4565  1.1571 -1.4209
 7242TIP3    H221691   0.479   2.232   3.538  1.0357  1.0851  2.1680
 7243TIP3   OH221692   0.904   0.560   1.686  0.0379  0.3389 -0.6977
 7243TIP3    H121693   0.871   0.484   1.638 -0.1584 -0.3101  0.4271
 7243TIP3    H221694   0.888   0.634   1.627  1.3643 -0.6163 -2.3427
 7244TIP3   OH221695   5.948   2.504   1.590 -0.2686 -0.3840 -0.1978
 7244TIP3    H121696   5.905   2.589   1.601 -0.0958 -0.3264  0.0453
 7244TIP3    H221697   5.983   2.484   1.677 -0.1601 -0.6226 -0.2965
 7245TIP3   OH221698   3.726   5.736   2.476 -0.2067 -0.0621  0.1252
 7245TIP3    H121699   3.685   5.655   2.505 -0.9669  0.0947 -0.4679
 7245TIP3    H221700   3.688   5.804   2.531 -0.7089  0.0734 -0.3748
 7246TIP3   OH221701   5.909   6.481   4.818 -0.2822 -0.4099  0.4733
 7246TIP3    H121702   5.871   6.430   4.746 -1.7479 -1.2090  1.7556
 7246TIP3    H221703   5.995   6.441   4.833  0.4317  0.3198 -1.3474
 7247TIP3   OH221704   6.594   5.706   3.868  0.0551  0.9501 -1.1624
 7247TIP3    H121705   6.540   5.709   3.947  0.9722  1.6415 -0.5447
 7247TIP3    H221706   6.533   5.726   3.797 -0.1007  4.3336 -0.2309
 7248TIP3   OH221707   6.456   6.340   1.801 -0.0185  0.2387 -0.1725
 7248TIP3    H121708   6.483   6.279   1.733 -2.6620 -1.2007 -0.0385
 7248TIP3    H221709   6.499   6.422   1.777  3.3376 -1.4649 -0.5824
 7249TIP3   OH221710   3.177   5.563   5.196  0.0995 -0.2648 -0.1441
 7249TIP3    H121711   3.132   5.591   5.116  1.1319  1.0530 -0.3059
 7249TIP3    H221712   3.217   5.643   5.230  0.6641 -1.0258  1.0551
 7250TIP3   OH221713   1.966   6.605   3.744 -0.1234  0.1325 -0.9769
 7250TIP3    H121714   2.033   6.595   3.677  0.3692  0.1949 -0.5042
 7250TIP3    H221715   2.015   6.607   3.826 -0.8225 -1.7572 -0.4558
 7251TIP3   OH221716   6.895   3.764   5.370  0.2555  0.0825  0.1091
 7251TIP3    H121717   6.860   3.835   5.316  1.0523  0.7052  0.4031
 7251TIP3    H221718   6.840   3.765   5.449  1.4479  1.6351  0.9626
 7252TIP3   OH221719   4.324   5.769   0.495 -0.0333 -0.1818  0.1304
 7252TIP3    H121720   4.366   5.752   0.579 -0.9943  0.3367  0.7335
 7252TIP3    H221721   4.280   5.687   0.473 -1.0227  0.1165  0.8919
 7253TIP3   OH221722   5.853   2.709   1.755  0.2519  0.1160  0.1149
 7253TIP3    H121723   5.926   2.713   1.816 -0.7134 -1.5044  1.4682
 7253TIP3    H221724   5.778   2.741   1.805 -1.0075 -3.2115  0.6764
 7254TIP3   OH221725   0.789   2.027   0.609 -0.3001 -0.6371  0.4361
 7254TIP3    H121726   0.747   1.941   0.605 -0.5952 -0.4760 -0.0104
 7254TIP3    H221727   0.724   2.087   0.573 -0.6762  0.0069  2.0694
 7255TIP3   OH221728   2.094   0.870   2.251  0.2942  0.3172 -0.1703
 7255TIP3    H121729   2.115   0.823   2.331 -1.8132  1.0454  0.8826
 7255TIP3    H221730   2.177   0.877   2.205  0.9953 -2.9838  0.3550
 7256TIP3   OH221731   4.287   4.587   1.614 -0.9414  0.4918 -0.1491
 7256TIP3    H121732   4.310   4.680   1.616 -2.5589  0.9311  1.5198
 7256TIP3    H221733   4.330   4.550   1.691  2.3574 -0.9739 -2.4522
 7257TIP3   OH221734   0.944   2.200   5.869  0.0931  0.0046  0.3830
 7257TIP3    H121735   0.995   2.220   5.790 -0.2556 -0.0727  0.1384
 7257TIP3    H221736   0.935   2.105   5.868  0.2101 -0.0103  0.5951
 7258TIP3   OH221737   7.101   4.872   0.950  0.1406  0.5563  0.2168
 7258TIP3    H121738   7.179   4.838   0.993  0.1956  0.0329 -0.2926
 7258TIP3    H221739   7.094   4.962   0.982  0.9829  0.6292  0.2259
 7259TIP3   OH221740   6.467   5.965   2.269  0.0458  0.4420 -0.6518
 7259TIP3    H121741   6.422   5.893   2.225 -1.4364  0.8745  0.0816
 7259TIP3    H221742   6.439   5.958   2.361 -0.1940  1.9679 -0.5811
 7260TIP3   OH221743   4.527   3.893   2.432 -0.5590 -0.2340  0.2965
 7260TIP3    H121744   4.559   3.895   2.522 -0.0981 -1.2871  0.1784
 7260TIP3    H221745   4.598   3.851   2.383 -1.4682 -1.1496 -0.2687
 7261TIP3   OH221746   1.535   1.736   3.352 -0.8305 -0.1126  0.7385
 7261TIP3    H121747   1.550   1.699   3.439 -0.3949  0.1403  0.7746
 7261TIP3    H221748   1.441   1.725   3.337 -0.7940 -0.7501  0.9656
 7262TIP3   OH221749   4.875   3.998   4.808 -0.7406  0.0447 -0.6947
 7262TIP3    H121750   4.869   3.903   4.800 -0.5556  0.0889 -1.4017
 7262TIP3    H221751   4.952   4.022   4.757  0.1384  0.4247  0.7685
 7263TIP3   OH221752   1.024   5.966   4.789 -0.1475  0.7744 -0.1938
 7263TIP3    H121753   1.107   6.010   4.808 -0.2267  0.6028  0.5841
 7263TIP3    H221754   1.047   5.873   4.784 -0.0320  0.8544 -1.5349
 7264TIP3   OH221755   5.172   3.507   3.641  0.8964 -0.9296  0.3122
 7264TIP3    H121756   5.243   3.527   3.580 -0.2047 -0.1542 -0.7599
 7264TIP3    H221757   5.109   3.577   3.629 -1.4345 -3.0581 -0.9093
 7265TIP3   OH221758   1.536   4.548   3.557  0.7251  0.1360  0.4382
 7265TIP3    H121759   1.579   4.464   3.571 -1.7580 -1.7160 -1.9071
 7265TIP3    H221760   1.590   4.592   3.492  0.7592 -0.7839 -0.1746
 7266TIP3   OH221761   1.216   0.931   0.532  0.7915 -0.9278 -0.2352
 7266TIP3    H121762   1.222   0.873   0.607  0.4614  0.4197  0.8725
 7266TIP3    H221763   1.291   0.908   0.477  0.2108 -2.9377 -0.2729
 7267TIP3   OH221764   1.026   4.552   2.595 -0.2670 -0.0683 -0.0351
 7267TIP3    H121765   1.024   4.647   2.584 -2.4847  0.0903  1.1371
 7267TIP3    H221766   1.033   4.539   2.690 -1.7378 -1.0104 -0.0247
 7268TIP3   OH221767   0.927   3.772   0.908  0.4631 -0.2292  0.0221
 7268TIP3    H121768   0.890   3.695   0.950 -1.7674  1.4584  1.3840
 7268TIP3    H221769   0.856   3.806   0.853  1.6048  0.5182 -1.0435
 7269TIP3   OH221770   0.133   5.173   1.098 -0.1834 -0.0072 -0.5391
 7269TIP3    H121771   0.205   5.190   1.038 -0.4442  0.7252 -0.6562
 7269TIP3    H221772   0.174   5.167   1.184  0.2766 -1.7291 -0.8522
 7270TIP3   OH221773   2.593   4.634   4.665  0.0467  0.0571 -0.2429
 7270TIP3    H121774   2.521   4.667   4.611 -0.3079  0.5980  0.5393
 7270TIP3    H221775   2.567   4.545   4.688 -0.0365  0.0039 -0.5320
 7271TIP3   OH221776   5.003   4.535   4.856  0.6864 -0.0399  0.0021
 7271TIP3    H121777   5.054   4.596   4.909  0.5785 -0.2088  0.3025
 7271TIP3    H221778   5.054   4.525   4.776  2.2519 -1.8259  1.1288
 7272TIP3   OH221779   0.464   6.473   4.882  0.3845  0.3401  0.5765
 7272TIP3    H121780   0.546   6.435   4.915  0.2449  0.6821  1.3284
 7272TIP3    H221781   0.482   6.567   4.878 -0.3553  0.5548  1.8861
 7273TIP3   OH221782   0.834   5.913   1.255 -0.1218 -0.4420 -0.1102
 7273TIP3    H121783   0.741   5.920   1.277  0.1420 -0.6006  1.1287
 7273TIP3    H221784   0.838   5.843   1.190 -0.6631 -1.8304  1.2971
 7274TIP3   OH221785   7.161   1.203   3.896 -0.1895 -0.0776 -0.0689
 7274TIP3    H121786   7.224   1.159   3.839  0.7236 -1.8818  2.1731
 7274TIP3    H221787   7.076   1.175   3.864  0.2276 -0.0696 -1.2523
 7275TIP3   OH221788   5.337   5.662   3.311  0.0773  0.5454  0.1799
 7275TIP3    H121789   5.412   5.604   3.302 -1.0346 -1.0929  0.9120
 7275TIP3    H221790   5.367   5.732   3.369  1.6741  1.1848 -1.3234
 7276TIP3   OH221791   4.699   4.675   3.366 -0.0553  0.1258  0.0262
 7276TIP3    H121792   4.707   4.761   3.323 -1.0383 -0.1941 -0.8293
 7276TIP3    H221793   4.625   4.685   3.426 -1.0634 -0.4951 -1.0699
 7277TIP3   OH221794   6.111   4.729   1.666 -0.3363 -0.3968  0.4391
 7277TIP3    H121795   6.067   4.754   1.747 -1.2286 -0.1524 -0.1079
 7277TIP3    H221796   6.041   4.697   1.610 -0.3819  2.8479 -1.6068
 7278TIP3   OH221797   1.358   0.165   3.770 -0.0323  0.1201  0.0988
 7278TIP3    H121798   1.289   0.099   3.774 -1.7745  1.7260 -1.4380
 7278TIP3    H221799   1.379   0.173   3.677 -0.4789  2.2469  0.1154
 7279TIP3   OH221800   6.995   3.740   3.932  0.6255 -0.0505  0.1386
 7279TIP3    H121801   6.998   3.732   3.836 -1.2354 -0.6141  0.0895
 7279TIP3    H221802   6.996   3.650   3.964 -0.1102  0.0933  0.5805
 7280TIP3   OH221803   4.402   2.393   4.273  0.3147  0.0511  0.4130
 7280TIP3    H121804   4.434   2.484   4.274  1.1342 -0.2126 -0.1699
 7280TIP3    H221805   4.340   2.388   4.345 -0.1265  1.2176  0.1366
 7281TIP3   OH221806   2.596   6.539   0.403  1.1167  0.0073  0.3586
 7281TIP3    H121807   2.549   6.597   0.463  0.2608  0.6445 -0.8675
 7281TIP3    H221808   2.614   6.461   0.454  1.4342  0.9670  1.7730
 7282TIP3   OH221809   2.517   4.130   0.227  0.2024 -0.0864  0.4475
 7282TIP3    H121810   2.570   4.085   0.293 -0.1482 -0.3552  0.5514
 7282TIP3    H221811   2.490   4.211   0.270 -0.7216 -0.6422  0.9573
 7283TIP3   OH221812   5.601   5.300   0.141  0.4443 -0.5164 -0.1721
 7283TIP3    H121813   5.673   5.239   0.125 -0.0294 -0.8460 -1.1408
 7283TIP3    H221814   5.532   5.247   0.180  0.7912 -0.1494  1.0051
 7284TIP3   OH221815   3.713   2.411   0.325 -0.3214 -0.0557  0.0174
 7284TIP3    H121816   3.660   2.369   0.393 -1.0140  1.1594  0.2586
 7284TIP3    H221817   3.688   2.367   0.244 -2.1517  0.8587  0.0422
 7285TIP3   OH221818   3.502   4.394   2.175  0.4134 -0.4070  0.1459
 7285TIP3    H121819   3.441   4.325   2.202 -1.2600  1.2297  0.7538
 7285TIP3    H221820   3.459   4.436   2.101  0.2134  1.4703  1.2695
 7286TIP3   OH221821   5.904   5.586   2.751 -0.2107  0.2085 -0.4721
 7286TIP3    H121822   5.811   5.562   2.750 -0.2261  0.1683  0.7564
 7286TIP3    H221823   5.936   5.559   2.665 -1.6124  1.3474 -1.4065
 7287TIP3   OH221824   6.893   1.208   1.696  0.7194 -0.5821 -0.0464
 7287TIP3    H121825   6.851   1.174   1.775 -0.6264  0.4072 -0.3012
 7287TIP3    H221826   6.888   1.135   1.633  4.7175 -2.5999  1.6423
 7288TIP3   OH221827   3.903   5.369   2.484  0.8777 -0.0422  0.1211
 7288TIP3    H121828   3.934   5.449   2.526  0.8515 -0.2631  0.5615
 7288TIP3    H221829   3.870   5.316   2.555 -1.1471  0.4541 -0.3843
 7289TIP3   OH221830   3.520   3.276   1.433 -0.5537  0.4437 -0.3776
 7289TIP3    H121831   3.516   3.210   1.364 -1.1736  0.3722 -0.2753
 7289TIP3    H221832   3.457   3.343   1.406 -0.2696  0.7686 -0.2452
 7290TIP3   OH221833   5.918   0.907   2.880  0.8147 -0.1435 -0.2587
 7290TIP3    H121834   5.892   0.998   2.869  0.4855  0.1115  2.1360
 7290TIP3    H221835   5.836   0.857   2.872  0.8246 -0.1297 -0.4582
 7291TIP3   OH221836   2.723   3.741   5.509  0.3791 -0.1465  0.4066
 7291TIP3    H121837   2.702   3.661   5.557 -0.4090 -1.9645 -2.7370
 7291TIP3    H221838   2.766   3.711   5.429 -1.2638  2.4397 -1.6143
 7292TIP3   OH221839   6.255   2.436   2.947 -0.0623  0.9464 -0.3007
 7292TIP3    H121840   6.266   2.527   2.921  0.4587  0.9288 -0.1653
 7292TIP3    H221841   6.214   2.441   3.033  0.8550  1.0938  0.1481
 7293TIP3   OH221842   3.942   5.706   5.704  0.4712 -0.6045 -0.6642
 7293TIP3    H121843   4.023   5.737   5.744  0.5420  0.3287 -1.4763
 7293TIP3    H221844   3.882   5.691   5.777  1.1948 -0.7559 -0.0987
 7294TIP3   OH221845   1.849   2.897   1.052 -0.4560 -0.1940 -0.0457
 7294TIP3    H121846   1.850   2.803   1.030  0.4870 -0.3416  0.5399
 7294TIP3    H221847   1.790   2.904   1.126 -1.0857 -0.2052 -0.5366
 7295TIP3   OH221848   3.520   0.764   2.907  0.2008  0.1522 -0.2686
 7295TIP3    H121849   3.494   0.822   2.979 -2.6284 -0.9869 -0.2417
 7295TIP3    H221850   3.589   0.709   2.944  1.4756  2.0823  0.3382
 7296TIP3   OH221851   6.370   4.627   3.136  0.4159 -0.1276  0.3705
 7296TIP3    H121852   6.292   4.608   3.187 -1.3449  0.4481 -1.9520
 7296TIP3    H221853   6.364   4.570   3.059  2.4250 -0.2369  0.2349
 7297TIP3   OH221854   6.736   1.734   2.433  0.1645  0.0663 -0.5790
 7297TIP3    H121855   6.745   1.640   2.449 -0.3466 -0.1575 -1.5282
 7297TIP3    H221856   6.819   1.771   2.460 -0.1485 -0.4445  1.2327
 7298TIP3   OH221857   0.966   0.828  -0.003 -0.4589 -0.1548 -0.1243
 7298TIP3    H121858   0.967   0.889   0.071  0.9091 -0.0886 -0.1671
 7298TIP3    H221859   1.052   0.839  -0.043 -0.9416 -0.6795 -1.3295
 7299TIP3   OH221860   5.492   6.618   4.393 -0.0095  0.4717 -0.6171
 7299TIP3    H121861   5.459   6.530   4.377 -0.5021  0.5583 -0.1298
 7299TIP3    H221862   5.436   6.652   4.463  0.7894  0.8140 -0.1185
 7300TIP3   OH221863   0.326   6.444   4.295 -0.2344 -0.3997  0.4824
 7300TIP3    H121864   0.340   6.477   4.384  0.6299 -0.3047  0.3260
 7300TIP3    H221865   0.331   6.349   4.303 -1.4397 -0.4529  0.7312
 7301TIP3   OH221866   0.040   6.637   2.738 -0.6932 -0.0337  0.4038
 7301TIP3    H121867   0.010   6.727   2.755 -0.6758 -0.0732  0.6485
 7301TIP3    H221868  -0.030   6.598   2.686 -0.5266  0.2399 -0.0353
 7302TIP3   OH221869   3.186   5.541   1.609 -0.1807 -0.2734 -0.6375
 7302TIP3    H121870   3.198   5.465   1.666  1.9498  0.3406 -0.1927
 7302TIP3    H221871   3.143   5.506   1.531 -1.4319 -1.4635  0.5231
 7303TIP3   OH221872   2.377   5.971   0.720  0.2523  0.1695 -0.5085
 7303TIP3    H121873   2.446   5.981   0.786  1.0863  0.1268 -1.3553
 7303TIP3    H221874   2.408   5.900   0.663 -1.1739 -0.8425 -0.0761
 7304TIP3   OH221875   0.701   3.560   2.273  0.0048 -0.2367  0.0129
 7304TIP3    H121876   0.616   3.602   2.282  0.4120  0.6569 -0.2383
 7304TIP3    H221877   0.734   3.590   2.188 -0.1715 -1.9619 -0.7128
 7305TIP3   OH221878   3.879   0.044   5.596 -0.6386 -0.1492  0.0042
 7305TIP3    H121879   3.801  -0.012   5.593 -0.4657 -0.3694 -1.5470
 7305TIP3    H221880   3.944  -0.003   5.544  0.7843 -0.2660  1.7898
 7306TIP3   OH221881   0.288   4.128   2.318 -0.0547  0.1117 -0.3244
 7306TIP3    H121882   0.292   4.184   2.395 -2.5475 -1.6786  1.2428
 7306TIP3    H221883   0.372   4.081   2.318 -0.1275 -0.0916  1.5330
 7307TIP3   OH221884   2.603   5.065   1.067  0.8018 -0.0598 -0.3111
 7307TIP3    H121885   2.616   5.136   1.131 -0.6488 -0.8405  0.9327
 7307TIP3    H221886   2.560   5.108   0.993 -0.8590  0.2875  0.7812
 7308TIP3   OH221887   1.948   5.574   2.138 -0.4375  0.1339  0.4232
 7308TIP3    H121888   1.895   5.647   2.170  1.8461  2.5524 -0.9226
 7308TIP3    H221889   1.918   5.561   2.048  0.5615  0.8877 -0.0354
 7309TIP3   OH221890   0.793   6.076   2.336 -0.7298  0.3251  0.3546
 7309TIP3    H121891   0.850   6.032   2.273  0.4369  1.3624  0.6490
 7309TIP3    H221892   0.805   6.027   2.417 -1.5426 -0.4548  0.0304
 7310TIP3   OH221893   3.652   2.501   2.345  0.0601 -0.0974  0.1818
 7310TIP3    H121894   3.736   2.455   2.338  0.5069  0.6044  0.7409
 7310TIP3    H221895   3.587   2.435   2.321  0.8407 -0.3088 -1.4999
 7311TIP3   OH221896   2.032   6.528   0.850  0.2917 -0.4063  0.0614
 7311TIP3    H121897   2.027   6.447   0.900  0.5079  1.3615  3.2713
 7311TIP3    H221898   1.944   6.541   0.815  0.6791 -2.7941 -2.0863
 7312TIP3   OH221899   3.611   3.029   2.938  0.2535  0.0919 -0.0631
 7312TIP3    H121900   3.543   3.098   2.941 -0.2847 -0.3756 -1.1318
 7312TIP3    H221901   3.667   3.054   2.865  0.1889 -0.4779 -0.3113
 7313TIP3   OH221902   1.871   5.242   3.072  0.6361 -0.0972 -0.0489
 7313TIP3    H121903   1.912   5.328   3.083  0.1659  0.1490 -0.1946
 7313TIP3    H221904   1.943   5.180   3.081  0.8275  0.2640  0.9894
 7314TIP3   OH221905   0.748   0.445   4.181  0.4998  0.0755  0.3662
 7314TIP3    H121906   0.766   0.357   4.147  0.4142  0.0036  0.5032
 7314TIP3    H221907   0.702   0.429   4.264 -1.3797  0.2585 -0.5832
 7315TIP3   OH221908   0.176   0.279   3.199  0.0902  0.2361 -0.2536
 7315TIP3    H121909   0.121   0.352   3.227  0.1501  0.0907  0.2411
 7315TIP3    H221910   0.254   0.321   3.162 -0.3401  0.4446 -0.9555
 7316TIP3   OH221911   0.574   4.521   1.146 -0.1100 -0.1626 -0.3659
 7316TIP3    H121912   0.524   4.569   1.212  0.1072  0.7477 -0.8399
 7316TIP3    H221913   0.631   4.587   1.107  0.4504 -0.8891 -0.8073
 7317TIP3   OH221914   5.999   2.177   0.474 -0.3751 -0.0186 -0.1188
 7317TIP3    H121915   5.963   2.188   0.562  2.7378  0.3687  1.2632
 7317TIP3    H221916   6.026   2.265   0.448  0.1664 -0.3647 -0.7616
 7318TIP3   OH221917   4.001   4.475   5.546  0.0272  0.3752 -0.1553
 7318TIP3    H121918   3.947   4.441   5.474 -0.7194 -0.1136  0.6124
 7318TIP3    H221919   3.949   4.547   5.583  0.0386  0.1143  0.3832
 7319TIP3   OH221920   1.836   6.279   2.292  0.2009 -0.0305 -0.0025
 7319TIP3    H121921   1.820   6.273   2.386  2.8080 -0.3500  0.5123
 7319TIP3    H221922   1.908   6.342   2.285 -1.3798  1.6925 -2.0262
 7320TIP3   OH221923   2.819   0.392   2.587 -0.0253 -0.3454  0.3438
 7320TIP3    H121924   2.797   0.466   2.531 -1.2014 -1.0195 -0.1338
 7320TIP3    H221925   2.899   0.356   2.550  0.3011  0.4070  0.3074
 7321TIP3   OH221926   7.045   1.444   3.772 -0.2412  0.3609  0.8730
 7321TIP3    H121927   7.092   1.429   3.854 -1.2083 -0.0855  1.3626
 7321TIP3    H221928   7.087   1.522   3.734  0.7861  0.0576  1.3564
 7322TIP3   OH221929   1.092   3.220   0.849  0.5907 -0.4111 -0.2628
 7322TIP3    H121930   1.065   3.301   0.805  0.9223 -0.0212  0.2337
 7322TIP3    H221931   1.174   3.244   0.893 -1.9801  0.7168  4.5655
 7323TIP3   OH221932   0.128   5.266   2.480  0.1632  0.0020  0.6611
 7323TIP3    H121933   0.104   5.184   2.437  0.5268  0.6473 -0.8307
 7323TIP3    H221934   0.188   5.308   2.418  1.3324  0.6124  2.1584
 7324TIP3   OH221935   3.032   0.643   1.575  0.4266  0.8501  0.2950
 7324TIP3    H121936   3.029   0.647   1.479 -2.6376 -0.4271  0.2141
 7324TIP3    H221937   2.986   0.722   1.604 -1.6125 -0.3570  0.5348
 7325TIP3   OH221938   0.879   4.824   0.481 -0.0179 -0.3578 -0.1653
 7325TIP3    H121939   0.898   4.832   0.387  0.7087 -0.7318 -0.0640
 7325TIP3    H221940   0.966   4.827   0.522 -0.0338 -3.1371  0.2664
 7326TIP3   OH221941   4.400   6.077   5.590  0.0420 -0.4011  0.3935
 7326TIP3    H121942   4.316   6.051   5.628  0.1625 -0.7776  0.4095
 7326TIP3    H221943   4.381   6.093   5.498  0.1101 -1.2739  0.2215
 7327TIP3   OH221944   5.006   3.979   3.321 -0.1993  0.0338 -0.1919
 7327TIP3    H121945   5.049   4.040   3.261  2.3212 -0.0397  1.3931
 7327TIP3    H221946   4.980   3.906   3.265 -0.5868  1.2336 -1.6472
 7328TIP3   OH221947   3.834   2.434   4.457 -0.1252 -0.2537 -0.4135
 7328TIP3    H121948   3.804   2.343   4.454 -0.2706 -0.1926 -2.5377
 7328TIP3    H221949   3.930   2.428   4.454 -0.1459 -0.3513 -1.1073
 7329TIP3   OH221950   6.185   3.163   3.392 -0.4288 -0.3783  0.0523
 7329TIP3    H121951   6.280   3.146   3.393 -0.5258 -0.9403  1.7049
 7329TIP3    H221952   6.145   3.077   3.405 -1.1197  0.0650  0.9207
 7330TIP3   OH221953   4.785   1.704   2.451  0.2987 -0.1305 -0.3296
 7330TIP3    H121954   4.812   1.714   2.542  1.3443 -0.8939 -0.5327
 7330TIP3    H221955   4.851   1.752   2.401  0.1795 -0.3775 -0.7279
 7331TIP3   OH221956   5.996   4.749   2.637  0.0404 -0.2179 -0.5136
 7331TIP3    H121957   5.949   4.794   2.707 -1.6633  1.2130 -2.4368
 7331TIP3    H221958   5.955   4.663   2.632 -0.0510 -0.2096  0.0306
 7332TIP3   OH221959   7.074   1.372   2.086 -0.1624 -1.1289  0.0119
 7332TIP3    H121960   6.980   1.392   2.087 -0.0789 -0.7388  0.4526
 7332TIP3    H221961   7.114   1.450   2.048  0.1338 -0.5859  1.3908
 7333TIP3   OH221962   5.483   3.814   0.613  0.5079  0.5976  0.1197
 7333TIP3    H121963   5.504   3.799   0.521 -1.4974 -0.5422 -0.1917
 7333TIP3    H221964   5.500   3.730   0.656  0.3311  0.7971  0.5868
 7334TIP3   OH221965   0.436   6.508   1.566 -0.5158 -0.3528 -0.3051
 7334TIP3    H121966   0.469   6.597   1.558 -1.7122  0.2207  0.8301
 7334TIP3    H221967   0.350   6.510   1.525 -0.1488 -1.2502 -1.1604
 7335TIP3   OH221968   4.376   0.613   1.831 -0.1540  0.1733  0.1086
 7335TIP3    H121969   4.448   0.556   1.806 -0.8690 -0.1864 -1.1996
 7335TIP3    H221970   4.366   0.599   1.925  2.0340  0.9004  0.4964
 7336TIP3   OH221971   0.279   0.079   2.999 -0.1829 -0.6375 -0.1100
 7336TIP3    H121972   0.223   0.062   2.923  1.7235 -0.4921 -1.6158
 7336TIP3    H221973   0.228   0.139   3.053 -1.4080 -0.3449 -1.5100
 7337TIP3   OH221974   5.890   1.853   3.783 -0.3255 -0.3455 -0.2925
 7337TIP3    H121975   5.976   1.813   3.785 -0.3634 -0.5225 -1.3274
 7337TIP3    H221976   5.860   1.841   3.692 -1.2310  0.1324 -0.0743
 7338TIP3   OH221977   5.626   0.937   5.687 -0.1902 -0.1468 -0.2851
 7338TIP3    H121978   5.688   0.941   5.614 -0.4184  0.1398 -0.4730
 7338TIP3    H221979   5.580   1.022   5.683 -0.8057 -0.4776 -0.3455
 7339TIP3   OH221980   3.810   2.156   2.223 -0.1691 -0.1898  0.2024
 7339TIP3    H121981   3.852   2.183   2.305 -0.0495  0.2512 -0.0010
 7339TIP3    H221982   3.736   2.102   2.251 -1.3183  1.5557  0.7037
 7340TIP3   OH221983   4.953   5.225   0.721 -0.0742  0.3001  0.3483
 7340TIP3    H121984   4.874   5.239   0.773 -0.9751  1.1241 -1.1877
 7340TIP3    H221985   5.020   5.277   0.765 -1.1025  1.9195  0.0887
 7341TIP3   OH221986   6.610   1.590   3.857  0.0926  0.4864 -0.2590
 7341TIP3    H121987   6.613   1.655   3.927 -1.5684  0.8008 -0.4527
 7341TIP3    H221988   6.590   1.507   3.902 -1.7680  0.8241 -0.4102
 7342TIP3   OH221989   1.548   5.019   1.601 -0.0485  0.2422 -0.4064
 7342TIP3    H121990   1.467   5.070   1.601 -0.5534 -0.4815  1.3799
 7342TIP3    H221991   1.618   5.084   1.597 -0.7039  0.9219 -0.9277
 7343TIP3   OH221992   0.148   0.928   5.013  0.4878 -0.2094 -0.4861
 7343TIP3    H121993   0.119   0.927   4.922 -1.8391  1.5526  0.1422
 7343TIP3    H221994   0.196   1.011   5.021  2.1562 -1.1386 -0.4626
 7344TIP3   OH221995   5.053   2.262   1.504 -0.2665 -0.1648 -0.3779
 7344TIP3    H121996   5.007   2.280   1.422 -1.3825  2.8638  0.8071
 7344TIP3    H221997   4.991   2.210   1.555 -0.2200 -0.6281 -0.7777
 7345TIP3   OH221998   6.167   1.001   4.923  0.2731 -0.1943 -0.3312
 7345TIP3    H121999   6.227   0.931   4.948  0.6896  0.4294  0.4534
 7345TIP3    H222000   6.116   0.964   4.851  0.6217 -1.2288 -0.0634
 7346TIP3   OH222001   3.054   4.417   2.160 -0.1174 -0.5167  0.0826
 7346TIP3    H122002   3.106   4.346   2.198 -0.9731 -0.7521  0.8648
 7346TIP3    H222003   3.100   4.497   2.186 -0.6127 -0.6771  1.5719
 7347TIP3   OH222004   2.042   3.794   4.642  0.2273  0.2600 -0.6247
 7347TIP3    H122005   2.011   3.721   4.695  3.4743 -0.4061  0.6241
 7347TIP3    H222006   2.042   3.869   4.701  0.2826  0.4135 -0.8183
 7348TIP3   OH222007   6.107   4.425   1.890  0.1926  0.2555  0.0461
 7348TIP3    H122008   6.062   4.495   1.938  0.0507 -0.3197  0.7488
 7348TIP3    H222009   6.131   4.361   1.956  1.1379  0.0580 -0.4708
 7349TIP3   OH222010   6.986   0.626   0.272 -0.2725  0.4833  0.1014
 7349TIP3    H122011   7.020   0.624   0.183 -0.5792  1.7872 -0.0603
 7349TIP3    H222012   6.996   0.536   0.303  2.7672  0.6197 -0.1502
 7350TIP3   OH222013   0.022   6.385   3.817 -0.2145  0.2474 -0.0143
 7350TIP3    H122014  -0.052   6.325   3.828 -0.4323  0.7609  1.3911
 7350TIP3    H222015   0.091   6.347   3.870  0.9550 -0.8220 -2.1551
 7351TIP3   OH222016   4.355   5.271   1.222 -0.3783  0.1079 -0.0193
 7351TIP3    H122017   4.383   5.274   1.314  0.7630 -1.1549 -0.2960
 7351TIP3    H222018   4.285   5.336   1.216  1.1179  1.9351  1.1934
 7352TIP3   OH222019   5.692   6.796   4.465  0.4999  0.1367  0.1923
 7352TIP3    H122020   5.629   6.742   4.419 -0.3171  0.4763  0.8845
 7352TIP3    H222021   5.706   6.751   4.548 -0.1697  0.9511  0.7679
 7353TIP3   OH222022   4.126   1.205   2.144 -0.2188 -0.1445 -0.1847
 7353TIP3    H122023   4.161   1.289   2.175  1.2666 -1.3329  1.5029
 7353TIP3    H222024   4.031   1.220   2.139 -0.1054  1.2980  1.1803
 7354TIP3   OH222025   3.112   1.687   1.673 -0.7220 -0.1659  0.4234
 7354TIP3    H122026   3.132   1.649   1.759  0.4212 -1.0001 -0.1942
 7354TIP3    H222027   3.110   1.782   1.689  0.3521 -0.2575  1.1937
 7355TIP3   OH222028   5.070   3.373   5.286  0.2114 -0.1146  0.4096
 7355TIP3    H122029   5.097   3.350   5.375  0.5059  0.6195  0.5109
 7355TIP3    H222030   5.016   3.451   5.297  0.5192  0.1690 -0.0884
 7356TIP3   OH222031   5.619   6.525   0.912 -0.0874  0.4377 -0.1416
 7356TIP3    H122032   5.665   6.574   0.980  0.5397 -1.1049  0.5883
 7356TIP3    H222033   5.526   6.533   0.935 -0.0358  1.5360 -0.2425
 7357TIP3   OH222034   4.148   4.008   1.738 -0.2060 -0.7820  0.0010
 7357TIP3    H122035   4.124   3.923   1.703 -1.6219  0.1676 -1.4485
 7357TIP3    H222036   4.163   3.992   1.832 -2.9541 -2.1793  0.3033
 7358TIP3   OH222037   4.810   5.598   4.865  0.3159  0.3408 -0.1417
 7358TIP3    H122038   4.795   5.503   4.871 -1.3036  0.4789 -1.3330
 7358TIP3    H222039   4.845   5.610   4.777  1.6784  0.7394  0.4420
 7359TIP3   OH222040   1.328   1.675   4.544  0.3691 -0.8822  0.1993
 7359TIP3    H122041   1.338   1.760   4.588 -0.5123 -0.8174  0.2987
 7359TIP3    H222042   1.397   1.620   4.581  1.2466 -0.0772 -0.2029
 7360TIP3   OH222043   1.124   1.351   2.541  0.2371  0.2269  0.0024
 7360TIP3    H122044   1.077   1.432   2.561  0.9765  0.2955  1.5867
 7360TIP3    H222045   1.166   1.327   2.623 -1.0458 -2.5118 -0.0373
 7361TIP3   OH222046   0.144   4.084   0.168  0.2540  0.0372 -0.5415
 7361TIP3    H122047   0.151   4.087   0.072  0.9004  2.1346 -0.4966
 7361TIP3    H222048   0.140   3.991   0.189  1.4563 -0.5359 -2.5266
 7362TIP3   OH222049   4.888   3.637   2.553  0.4214  0.7198 -0.5529
 7362TIP3    H122050   4.863   3.721   2.592 -1.5591  0.3088 -0.8175
 7362TIP3    H222051   4.894   3.655   2.459  0.3283  0.6524 -0.5725
 7363TIP3   OH222052   3.920   1.381   4.666  0.7483  0.0931 -0.0117
 7363TIP3    H122053   3.995   1.413   4.616 -0.0835 -2.7720 -3.4860
 7363TIP3    H222054   3.851   1.445   4.650  1.4412  0.9329  0.2998
 7364TIP3   OH222055   6.977   6.737   1.599 -0.5677  0.2171  0.5411
 7364TIP3    H122056   6.950   6.683   1.525  0.6516  0.2620  0.0431
 7364TIP3    H222057   6.917   6.812   1.598  0.3233  0.9777 -1.3265
 7365TIP3   OH222058   6.592   5.803   4.245 -0.4419  0.2994 -0.0569
 7365TIP3    H122059   6.579   5.861   4.171 -0.2916  1.7115  0.9944
 7365TIP3    H222060   6.556   5.849   4.320  0.6879 -0.4573  1.0056
 7366TIP3   OH222061   6.825   2.555   2.021  0.1444  0.0937 -0.2869
 7366TIP3    H122062   6.749   2.516   2.063 -0.0609  1.6005  0.8082
 7366TIP3    H222063   6.894   2.551   2.088  0.9343 -0.8782 -1.1190
 7367TIP3   OH222064   1.421   2.056   3.503  1.0781 -0.2564  0.1180
 7367TIP3    H122065   1.396   2.127   3.444  0.3847 -0.5796  0.0126
 7367TIP3    H222066   1.475   1.998   3.449  0.6783 -0.4061 -0.1281
 7368TIP3   OH222067   3.399   4.690   2.633 -0.4264 -0.2435  0.4828
 7368TIP3    H122068   3.333   4.752   2.603 -0.8606 -0.1150  1.6614
 7368TIP3    H222069   3.373   4.668   2.722  1.0223 -0.3113  0.9245
 7369TIP3   OH222070   1.231   1.170   2.111  0.1930  0.4877  0.2740
 7369TIP3    H122071   1.294   1.106   2.144 -1.8036 -1.4774  0.4816
 7369TIP3    H222072   1.172   1.186   2.185  0.4903  2.4020  0.1340
 7370TIP3   OH222073   2.430   1.424   3.911  0.0203 -0.0498  0.3987
 7370TIP3    H122074   2.353   1.426   3.855  0.5024 -1.3879 -0.3671
 7370TIP3    H222075   2.481   1.501   3.886  0.9550 -1.3956 -2.1259
 7371TIP3   OH222076   6.334   4.467   0.600  0.1346  0.1120  0.6372
 7371TIP3    H122077   6.425   4.496   0.595 -0.1162  0.9379  0.6912
 7371TIP3    H222078   6.297   4.487   0.514 -0.0047 -0.2017  0.6218
 7372TIP3   OH222079   0.582   0.420   0.559  0.5055  0.4526  0.8425
 7372TIP3    H122080   0.624   0.470   0.629 -0.3425 -0.1485  1.7986
 7372TIP3    H222081   0.508   0.376   0.601  0.5965 -0.7547 -0.2020
 7373TIP3   OH222082   0.022   4.841   0.010 -0.0386  0.4582 -0.1281
 7373TIP3    H122083   0.093   4.824  -0.053  0.0458  1.7887 -0.4364
 7373TIP3    H222084   0.066   4.840   0.095 -0.0566 -0.8276 -0.1152
 7374TIP3   OH222085   2.255   6.233   1.357 -0.7550 -0.2807 -0.7123
 7374TIP3    H122086   2.336   6.283   1.351 -1.3009  0.7965  0.4564
 7374TIP3    H222087   2.188   6.298   1.377 -1.4119 -1.4975  1.3737
 7375TIP3   OH222088   2.909   0.245   5.754 -0.1957  0.2829  0.1444
 7375TIP3    H122089   2.852   0.289   5.818 -0.1187  0.2608  0.2283
 7375TIP3    H222090   2.956   0.179   5.805 -0.7608 -0.3197 -0.0993
 7376TIP3   OH222091   3.694   5.272   5.080 -0.6077 -0.1889  0.1174
 7376TIP3    H122092   3.634   5.346   5.071 -2.6651 -1.9382 -2.0075
 7376TIP3    H222093   3.715   5.269   5.173 -1.2767  2.3876  0.4298
 7377TIP3   OH222094   3.415   1.584   4.896 -0.2533  0.5386  0.3921
 7377TIP3    H122095   3.454   1.517   4.953  0.4643 -0.7138 -1.4893
 7377TIP3    H222096   3.487   1.642   4.874  0.0831 -0.4301 -1.2010
 7378TIP3   OH222097   4.180   2.831   0.396 -0.7296 -0.2117 -0.3139
 7378TIP3    H122098   4.104   2.779   0.421 -1.1970  1.1537  1.2312
 7378TIP3    H222099   4.252   2.768   0.391 -1.8490 -1.4560 -1.4210
 7379TIP3   OH222100   2.019   1.830   5.236  0.4984 -0.0980 -0.4421
 7379TIP3    H122101   2.078   1.756   5.249 -1.0124 -1.2620  0.1242
 7379TIP3    H222102   1.937   1.803   5.277 -0.5955  1.2485 -1.6266
 7380TIP3   OH222103   2.830   2.922   3.971  0.2078  0.0066  0.1162
 7380TIP3    H122104   2.766   2.911   4.041 -0.9601 -0.3264 -0.9674
 7380TIP3    H222105   2.800   2.998   3.922 -0.4679 -1.2283 -1.5015
 7381TIP3   OH222106   5.520   2.385   1.617  0.2655 -0.1128  0.3797
 7381TIP3    H122107   5.484   2.300   1.643  1.3433 -1.2385 -1.5805
 7381TIP3    H222108   5.514   2.385   1.522 -0.5039  2.4231  0.3573
 7382TIP3   OH222109   7.112   3.991   3.949 -0.2913  0.8141 -0.2224
 7382TIP3    H122110   7.089   4.004   3.857  2.2888 -0.3256 -1.1250
 7382TIP3    H222111   7.067   3.911   3.974 -1.0578  1.1632 -0.4383
 7383TIP3   OH222112   6.040   4.671   4.790 -0.5919  0.8802  0.0968
 7383TIP3    H122113   6.062   4.684   4.883  0.7600 -0.4099 -0.0085
 7383TIP3    H222114   5.954   4.629   4.792  0.6290 -1.7699  0.9384
 7384TIP3   OH222115   4.329   1.337   0.799  0.3356 -0.2498 -0.2170
 7384TIP3    H122116   4.364   1.365   0.884 -0.1567 -0.5169  0.0766
 7384TIP3    H222117   4.252   1.284   0.821  1.1075 -1.6281 -0.7830
 7385TIP3   OH222118   2.807   2.046   5.752  0.4840  0.0204  0.4784
 7385TIP3    H122119   2.718   2.081   5.753  0.0213 -1.1278  1.5526
 7385TIP3    H222120   2.839   2.064   5.664 -1.4119 -0.9994 -0.4753
 7386TIP3   OH222121   3.106   1.963   1.683 -0.1854 -0.0667  0.1248
 7386TIP3    H122122   3.156   1.982   1.604  1.1631 -1.9698  0.4447
 7386TIP3    H222123   3.125   2.037   1.741  0.2912  0.4470 -0.6598
 7387TIP3   OH222124   5.196   0.231   2.335 -0.8136 -0.5198 -0.2686
 7387TIP3    H122125   5.143   0.218   2.257 -1.8189  0.2950  0.2433
 7387TIP3    H222126   5.242   0.148   2.348 -0.1224 -0.4676 -2.0686
 7388TIP3   OH222127   4.380   6.589   4.591 -0.1190 -0.4338  0.5644
 7388TIP3    H122128   4.432   6.530   4.646  1.2451 -0.4645 -0.6870
 7388TIP3    H222129   4.426   6.672   4.594  0.3366 -0.6021 -0.9830
 7389TIP3   OH222130   3.911   0.754   1.675  0.1553  0.0725 -0.0657
 7389TIP3    H122131   3.938   0.697   1.748 -1.2163  0.7227  1.0024
 7389TIP3    H222132   3.822   0.781   1.698 -1.3730 -1.6969 -3.2061
 7390TIP3   OH222133   3.721   0.370   3.578  0.3442 -0.3326  0.0506
 7390TIP3    H122134   3.647   0.417   3.616  0.1328 -0.3988 -0.2789
 7390TIP3    H222135   3.720   0.285   3.623  0.8259  0.0346  0.7618
 7391TIP3   OH222136   0.783   6.448   0.526  0.0768  0.6766 -0.7587
 7391TIP3    H122137   0.783   6.372   0.585 -1.5289  0.5068 -0.9361
 7391TIP3    H222138   0.725   6.511   0.568  0.9265  1.5790 -0.9183
 7392TIP3   OH222139   5.269   4.118   3.566 -0.1683  0.0449  0.4594
 7392TIP3    H122140   5.359   4.147   3.556 -0.5728  1.4967  0.8427
 7392TIP3    H222141   5.245   4.142   3.655 -0.5496 -1.4651  0.7835
 7393TIP3   OH222142   1.573   2.278   0.376  0.4577  0.1519 -0.1041
 7393TIP3    H122143   1.537   2.193   0.402  0.2296  0.5579  0.9314
 7393TIP3    H222144   1.501   2.322   0.331  0.4999 -0.0979 -0.4216
 7394TIP3   OH222145   5.741   2.604   0.756 -0.5076  0.4691  0.3239
 7394TIP3    H122146   5.835   2.622   0.758 -0.7032  1.5467  0.7016
 7394TIP3    H222147   5.735   2.511   0.735  0.6064  0.7392 -1.3927
 7395TIP3   OH222148   3.565   4.106   1.100 -0.0489 -0.1571  0.1275
 7395TIP3    H122149   3.502   4.043   1.066  1.6469 -0.7656 -2.1373
 7395TIP3    H222150   3.627   4.053   1.151  0.0078  0.0604  0.2891
 7396TIP3   OH222151   0.849   3.167   3.201 -0.4482 -0.0509  0.0651
 7396TIP3    H122152   0.918   3.232   3.216  0.2369 -0.7503  0.0702
 7396TIP3    H222153   0.770   3.206   3.238  0.4874 -0.2833  2.5164
 7397TIP3   OH222154   0.662   3.849   3.413  0.6101 -0.0653 -0.2238
 7397TIP3    H122155   0.641   3.881   3.501  1.3710 -1.1166  0.3615
 7397TIP3    H222156   0.747   3.887   3.392  0.3455  0.3333 -0.5897
 7398TIP3   OH222157   0.168   4.853   0.260  0.1743  0.0910  0.6426
 7398TIP3    H122158   0.249   4.848   0.210 -0.4524 -1.0452 -0.3203
 7398TIP3    H222159   0.188   4.911   0.334  2.4328 -1.6913  1.5307
 7399TIP3   OH222160   4.019   1.778   4.984 -0.6844  0.4882 -0.3061
 7399TIP3    H122161   4.013   1.808   4.893 -1.1595 -0.4075 -0.5826
 7399TIP3    H222162   4.000   1.855   5.036  1.0291  1.3856 -0.9215
 7400TIP3   OH222163   6.698   3.957   0.941  0.4501 -0.3692 -0.1078
 7400TIP3    H122164   6.787   3.994   0.946  0.4100 -0.3083  0.2015
 7400TIP3    H222165   6.648   4.008   1.005 -0.1152  0.4284 -1.1621
 7401TIP3   OH222166   3.932   5.766   1.547 -0.4100  0.6555  0.4497
 7401TIP3    H122167   3.917   5.833   1.479 -0.9031  0.0582 -0.0444
 7401TIP3    H222168   4.021   5.736   1.531 -1.1292 -0.8105 -1.1716
 7402TIP3   OH222169   0.394   3.354   4.373 -0.6529  0.3267  0.3386
 7402TIP3    H122170   0.313   3.310   4.346 -0.1671 -0.3547 -0.0325
 7402TIP3    H222171   0.418   3.312   4.455  1.0988 -1.8726 -1.1668
 7403TIP3   OH222172   2.447   1.650   4.735  0.4207  0.2641 -0.6990
 7403TIP3    H122173   2.361   1.628   4.773  0.0890  1.6073 -0.6088
 7403TIP3    H222174   2.434   1.737   4.696  1.5282  0.1217 -1.4084
 7404TIP3   OH222175   2.238   3.862   1.760  0.1750 -0.0891 -0.2232
 7404TIP3    H122176   2.173   3.792   1.751 -0.8922  0.4191  2.5140
 7404TIP3    H222177   2.229   3.913   1.679 -2.4557 -0.3852 -0.2168
 7405TIP3   OH222178   5.560   4.339   1.429 -0.2877 -0.1786 -0.5296
 7405TIP3    H122179   5.557   4.432   1.406 -0.9554  0.0669  0.4923
 7405TIP3    H222180   5.634   4.304   1.379  1.8609  1.5009  1.2435
 7406TIP3   OH222181   3.352   4.897   0.462  0.4504  0.2581 -0.3222
 7406TIP3    H122182   3.298   4.892   0.542  0.7674 -2.1161 -0.1965
 7406TIP3    H222183   3.441   4.882   0.493  0.4966 -1.4319 -1.1447
 7407TIP3   OH222184   4.009   3.984   4.561  0.6177  0.1476  0.4897
 7407TIP3    H122185   4.081   4.042   4.535  0.4283 -0.3276 -1.2148
 7407TIP3    H222186   4.048   3.897   4.565  0.1687 -0.1013 -0.3630
 7408TIP3   OH222187   3.016   1.087   4.124 -0.0663 -0.1928 -0.1206
 7408TIP3    H122188   3.099   1.040   4.110 -0.6532 -1.3935  0.2617
 7408TIP3    H222189   2.949   1.025   4.093 -0.8185  0.8206 -0.5569
 7409TIP3   OH222190   5.948   2.143   4.053  0.0472 -0.3034 -0.3598
 7409TIP3    H122191   5.943   2.228   4.098  0.2051 -0.0001 -0.9045
 7409TIP3    H222192   5.891   2.152   3.977  0.7269 -0.3912 -0.8863
 7410TIP3   OH222193   5.709   1.323   1.870 -0.1804  0.4795 -0.2521
 7410TIP3    H122194   5.666   1.300   1.788  0.0938  1.1993 -0.6042
 7410TIP3    H222195   5.638   1.324   1.935 -0.2686 -0.8696 -0.3079
 7411TIP3   OH222196   6.063   2.946   3.461  0.1571 -0.4646  0.6516
 7411TIP3    H122197   6.012   2.924   3.540 -1.2066  0.4905  0.0653
 7411TIP3    H222198   6.150   2.910   3.479 -0.4933 -1.4795  2.0153
 7412TIP3   OH222199   5.866   2.120   1.188 -0.2441 -0.0146  0.9256
 7412TIP3    H122200   5.862   2.205   1.233  1.6297 -0.1888  1.4745
 7412TIP3    H222201   5.898   2.059   1.254 -0.4284 -0.9241  0.1941
 7413TIP3   OH222202   1.353   2.287   0.043  0.0529 -0.0270  0.1730
 7413TIP3    H122203   1.276   2.232   0.032 -0.4967  0.7011  0.2614
 7413TIP3    H222204   1.406   2.243   0.110  0.6587 -1.5217 -1.2183
 7414TIP3   OH222205   0.265   6.722   1.304 -0.1662 -0.1682 -0.3952
 7414TIP3    H122206   0.319   6.645   1.287  1.7027  0.9979 -0.1630
 7414TIP3    H222207   0.203   6.695   1.371 -0.7700 -1.9472 -1.6205
 7415TIP3   OH222208   0.642   6.730   0.472  0.0900 -0.5051 -0.4962
 7415TIP3    H122209   0.686   6.812   0.495 -1.1760  0.8485 -2.5180
 7415TIP3    H222210   0.635   6.683   0.555  0.9100  1.4105  0.7478
 7416TIP3   OH222211   3.276   4.702   4.232  0.1773  0.4536  0.4265
 7416TIP3    H122212   3.317   4.626   4.273 -1.3511  0.6559  2.4848
 7416TIP3    H222213   3.262   4.676   4.142 -1.3931 -2.2286  1.3332
 7417TIP3   OH222214   1.888   6.242   5.314 -0.5981  0.3050 -0.3771
 7417TIP3    H122215   1.915   6.206   5.229 -0.7385 -0.8421  0.0405
 7417TIP3    H222216   1.971   6.267   5.356 -0.2273 -1.8001  0.2847
 7418TIP3   OH222217   6.502   3.701   5.127  0.7506 -0.4477  0.1144
 7418TIP3    H122218   6.430   3.655   5.084 -1.0310  2.6168 -0.4492
 7418TIP3    H222219   6.580   3.674   5.080 -0.7993  0.7664 -3.4586
 7419TIP3   OH222220   0.437   0.556   2.815  0.2540 -0.2728 -0.0953
 7419TIP3    H122221   0.369   0.506   2.771 -0.1828 -1.1279  1.4942
 7419TIP3    H222222   0.519   0.514   2.789  0.1634  0.3426 -1.4708
 7420TIP3   OH222223   6.785   4.084   2.250  0.1484  0.4391  0.3040
 7420TIP3    H122224   6.743   4.139   2.316  1.0260  0.5702  0.7568
 7420TIP3    H222225   6.874   4.070   2.282  0.7328  0.8760 -1.0613
 7421TIP3   OH222226   6.643   4.283   5.604  0.2423  0.2288 -0.0006
 7421TIP3    H122227   6.708   4.352   5.612  2.2602 -1.4403 -0.9326
 7421TIP3    H222228   6.568   4.325   5.562  1.4678  1.8122 -0.7096
 7422TIP3   OH222229   0.094   3.276   4.950  0.1719 -0.5173 -0.0152
 7422TIP3    H122230   0.179   3.305   4.916 -0.1491  0.2741 -0.1693
 7422TIP3    H222231   0.097   3.180   4.944  0.5468 -0.4479 -1.2822
 7423TIP3   OH222232   0.643   4.720   3.199 -0.1233  0.4222  0.3378
 7423TIP3    H122233   0.563   4.761   3.231  0.9550  1.1803  2.1985
 7423TIP3    H222234   0.709   4.790   3.201  0.7992 -0.3931 -0.3603
 7424TIP3   OH222235   1.023   6.732   4.343 -0.0711  0.3997 -0.0803
 7424TIP3    H122236   1.043   6.653   4.393  0.2284 -0.1934 -1.1105
 7424TIP3    H222237   0.992   6.794   4.408 -0.6295 -0.6772  0.7134
 7425TIP3   OH222238   3.193   6.487   0.427  0.2781 -0.1985  0.5597
 7425TIP3    H122239   3.132   6.457   0.359  1.7149 -2.1314  0.0197
 7425TIP3    H222240   3.155   6.568   0.460 -1.8409 -0.6119 -0.7043
 7426TIP3   OH222241   3.303   4.148   3.670  0.3252 -0.4052 -0.1727
 7426TIP3    H122242   3.347   4.080   3.721  0.9846  0.7390  0.8365
 7426TIP3    H222243   3.290   4.220   3.732  1.1841  1.0583 -1.5965
 7427TIP3   OH222244   1.061   6.246   3.116  0.2621  0.3200  0.5940
 7427TIP3    H122245   1.014   6.176   3.070 -0.9702 -0.1515  2.4630
 7427TIP3    H222246   1.151   6.238   3.085  0.3656 -2.7086  1.3824
 7428TIP3   OH222247   4.788   2.799   4.231  0.7636  0.6415 -0.2013
 7428TIP3    H122248   4.757   2.750   4.154  0.1603  1.3828 -0.4364
 7428TIP3    H222249   4.771   2.891   4.210 -2.3509  0.7265  2.0674
 7429TIP3   OH222250   1.479   6.546   1.622 -0.3993 -0.5448 -0.4693
 7429TIP3    H122251   1.426   6.624   1.601  0.9183  0.1671 -1.2961
 7429TIP3    H222252   1.422   6.493   1.677 -0.7918  1.7812  1.5823
 7430TIP3   OH222253   5.363   1.857   0.275 -0.1279  0.4084  0.2146
 7430TIP3    H122254   5.419   1.779   0.270 -0.7014 -0.0168  0.2351
 7430TIP3    H222255   5.343   1.866   0.368  1.8898  2.0243  0.5565
 7431TIP3   OH222256   4.918   3.220   0.196 -0.3718  0.2002  0.1792
 7431TIP3    H122257   4.852   3.289   0.187 -0.7744 -0.1840  0.1345
 7431TIP3    H222258   4.905   3.165   0.119 -0.1026  0.0361  0.2517
 7432TIP3   OH222259   2.160   0.904   5.029 -0.2737 -0.6725 -0.0830
 7432TIP3    H122260   2.166   0.867   5.117 -0.3689 -0.4718  0.0063
 7432TIP3    H222261   2.067   0.923   5.017 -0.1985 -0.2808 -0.0573
 7433TIP3   OH222262   3.925   0.373   3.777 -0.8005 -0.2819 -0.1049
 7433TIP3    H122263   3.849   0.371   3.719 -1.3879 -1.6332  0.6829
 7433TIP3    H222264   4.000   0.354   3.720 -1.1936 -0.1960 -0.6538
 7434TIP3   OH222265   1.925   0.360   2.956  0.1825 -0.3458 -0.6416
 7434TIP3    H122266   1.953   0.439   2.911  0.5754 -0.8399 -1.2857
 7434TIP3    H222267   1.832   0.374   2.974  0.0806 -0.0281 -1.3728
 7435TIP3   OH222268   1.831   4.349   0.380 -0.0072  0.4458 -0.0207
 7435TIP3    H122269   1.763   4.416   0.374 -0.0646  0.4669  0.7428
 7435TIP3    H222270   1.888   4.379   0.451 -0.8191 -0.9835  1.2872
 7436TIP3   OH222271   2.722   0.006   4.346  0.3343 -0.5197  0.4000
 7436TIP3    H122272   2.636  -0.036   4.338 -1.4253  2.3877  2.2538
 7436TIP3    H222273   2.734   0.051   4.263 -0.1001 -0.6544  0.2599
 7437TIP3   OH222274   3.530   4.521   4.598 -0.5833 -0.2364  0.1425
 7437TIP3    H122275   3.535   4.611   4.565  1.9903 -0.9027 -1.6254
 7437TIP3    H222276   3.578   4.523   4.681 -0.4869  0.0323  0.0800
 7438TIP3   OH222277   4.534   4.760   0.544  0.5791  0.4647  0.7583
 7438TIP3    H122278   4.530   4.813   0.623 -1.7440 -0.0044  1.0142
 7438TIP3    H222279   4.443   4.735   0.526  1.2020 -0.6320 -1.2534
 7439TIP3   OH222280   4.456   3.831   0.875 -0.6319 -0.2293  0.1043
 7439TIP3    H122281   4.506   3.870   0.947 -0.4776  0.4264 -0.3478
 7439TIP3    H222282   4.365   3.833   0.905 -0.6750  0.8219 -0.0437
 7440TIP3   OH222283   6.253   6.662   1.809  0.6150 -0.2326  0.3774
 7440TIP3    H122284   6.211   6.731   1.861 -0.2759  0.4389 -1.1663
 7440TIP3    H222285   6.191   6.589   1.813 -0.1699  0.3226 -0.8646
 7441TIP3   OH222286   5.311   2.810   3.925 -0.1580 -0.5948  0.3813
 7441TIP3    H122287   5.265   2.890   3.951  1.6811  0.1770  1.5013
 7441TIP3    H222288   5.297   2.750   3.998 -2.3007 -1.7123 -0.8557
 7442TIP3   OH222289   1.731   5.610   5.458 -0.1048 -0.1056  0.6756
 7442TIP3    H122290   1.810   5.663   5.464 -0.1179 -0.2270  2.1503
 7442TIP3    H222291   1.674   5.643   5.527 -0.2366 -1.7960  1.4313
 7443TIP3   OH222292   3.489   0.886   4.422  0.3081  0.6538 -0.5859
 7443TIP3    H122293   3.478   0.793   4.399  1.5043  0.0686  1.0053
 7443TIP3    H222294   3.516   0.928   4.341 -0.6736 -0.2953 -1.4378
 7444TIP3   OH222295   4.012   3.877   3.900  0.0592 -0.0421  0.0117
 7444TIP3    H122296   3.990   3.784   3.892 -1.3559  0.2533  0.0977
 7444TIP3    H222297   4.019   3.893   3.994 -0.1571  0.0250  0.0182
 7445TIP3   OH222298   5.711   6.174   4.734 -0.2855 -0.1587  0.1135
 7445TIP3    H122299   5.734   6.169   4.641  2.0469  2.1272  0.4192
 7445TIP3    H222300   5.761   6.104   4.775 -0.5554 -0.5664 -0.2544
 7446TIP3   OH222301   6.365   6.485   5.351  0.1323 -0.4251  0.1493
 7446TIP3    H122302   6.415   6.412   5.314 -0.6480 -0.2607 -1.3210
 7446TIP3    H222303   6.282   6.483   5.303 -0.2743  0.8375  0.7700
 7447TIP3   OH222304   2.336   6.517   2.034 -0.2242  0.1756 -0.0264
 7447TIP3    H122305   2.372   6.485   2.117  0.6792  1.6474  0.1980
 7447TIP3    H222306   2.411   6.556   1.989 -0.8191 -0.1284 -1.2992
 7448TIP3   OH222307   3.763   2.354   1.579 -0.1815 -0.1755 -0.0471
 7448TIP3    H122308   3.755   2.269   1.623 -0.1029 -0.5527 -0.7498
 7448TIP3    H222309   3.675   2.392   1.587 -0.4080 -0.6273 -0.3382
 7449TIP3   OH222310   3.892   4.121   1.777 -0.5166  0.4570  0.4196
 7449TIP3    H122311   3.872   4.042   1.827 -0.4799  0.5838  0.6366
 7449TIP3    H222312   3.981   4.106   1.743 -0.0767  0.8509  1.3517
 7450TIP3   OH222313   6.106   4.775   0.566 -0.4688  0.3593  0.2056
 7450TIP3    H122314   6.066   4.689   0.580  1.6196 -0.6851  0.1406
 7450TIP3    H222315   6.166   4.763   0.493 -0.8596  2.1630 -0.4761
 7451TIP3   OH222316   1.237   1.648   1.065 -0.4516  0.2571 -0.3848
 7451TIP3    H122317   1.256   1.619   0.975  0.2971  2.5618 -1.0389
 7451TIP3    H222318   1.287   1.587   1.120  2.9912  1.5677 -1.7760
 7452TIP3   OH222319   2.116   0.861   4.392  0.3718  0.1944  0.3205
 7452TIP3    H122320   2.102   0.924   4.462  0.3829 -0.6567  1.1175
 7452TIP3    H222321   2.152   0.784   4.437 -0.4787 -0.6898 -0.4875
 7453TIP3   OH222322   7.146   4.296   5.688 -0.1198  0.1810 -0.3484
 7453TIP3    H122323   7.175   4.341   5.610 -0.7253  1.2475  0.0148
 7453TIP3    H222324   7.093   4.223   5.656  2.3321 -1.4283 -0.9927
 7454TIP3   OH222325   5.492   5.407   5.557  0.1886  0.1194  0.0369
 7454TIP3    H122326   5.479   5.499   5.581  1.2211 -0.1865  1.8985
 7454TIP3    H222327   5.448   5.358   5.627  0.5073 -0.8111 -0.4053
 7455TIP3   OH222328   2.219   3.963   5.378  0.1915  0.1069 -0.0702
 7455TIP3    H122329   2.210   4.052   5.412  2.3998  0.9886 -1.5525
 7455TIP3    H222330   2.219   3.974   5.283  0.5608 -1.4732 -0.2688
 7456TIP3   OH222331   4.262   3.913   1.389 -0.7084 -0.0577  0.4725
 7456TIP3    H122332   4.289   3.999   1.419 -0.1882 -0.5251  1.3695
 7456TIP3    H222333   4.341   3.859   1.395 -1.1387 -0.7186  0.3725
 7457TIP3   OH222334   6.132   4.808   0.893  0.1660 -0.4208 -0.0005
 7457TIP3    H122335   6.209   4.850   0.932 -0.5436 -0.5788  1.6552
 7457TIP3    H222336   6.132   4.838   0.802  1.5103  0.5368  0.2818
 7458TIP3   OH222337   5.132   0.650   0.287  0.0291 -0.0709  0.6561
 7458TIP3    H122338   5.153   0.621   0.199 -0.0181 -1.2863  1.0253
 7458TIP3    H222339   5.217   0.658   0.330 -0.0196 -3.1401  1.5795
 7459TIP3   OH222340   0.625   1.746   5.858  0.0789 -0.0393  0.5004
 7459TIP3    H122341   0.605   1.801   5.782 -1.0058 -0.5496  0.4069
 7459TIP3    H222342   0.605   1.801   5.934 -0.5110 -0.1220  0.4086
 7460TIP3   OH222343   2.179   3.792   0.543 -0.0991  0.0113  0.1773
 7460TIP3    H122344   2.267   3.805   0.581 -0.6132 -1.1272  1.8683
 7460TIP3    H222345   2.186   3.710   0.494 -0.0934  0.1797 -0.1049
 7461TIP3   OH222346   2.194   1.576   1.672 -0.3487 -0.3101 -0.4157
 7461TIP3    H122347   2.114   1.605   1.627 -0.2425 -1.1733 -1.1955
 7461TIP3    H222348   2.169   1.493   1.713 -0.4996  0.5710  1.3376
 7462TIP3   OH222349   2.270   2.454   0.206 -0.1137 -0.6008 -0.4604
 7462TIP3    H122350   2.195   2.512   0.223  1.3036  1.1752  0.1079
 7462TIP3    H222351   2.323   2.460   0.286  0.5042 -2.0616 -0.7336
 7463TIP3   OH222352   5.320   3.077   0.268  0.4899  0.3209 -0.6129
 7463TIP3    H122353   5.368   3.096   0.188  0.6604  0.4441 -0.4810
 7463TIP3    H222354   5.279   2.992   0.251  1.2731 -0.0930 -0.4832
 7464TIP3   OH222355   6.173   3.219   5.815  0.1034  0.5435  0.2622
 7464TIP3    H122356   6.166   3.125   5.834  1.0726  0.7036  1.5488
 7464TIP3    H222357   6.266   3.232   5.798  0.0307  1.3327  0.4648
 7465TIP3   OH222358   0.323   6.622   0.771 -0.5619  0.1141  0.1074
 7465TIP3    H122359   0.229   6.606   0.771 -0.4452 -0.6008 -0.3680
 7465TIP3    H222360   0.358   6.563   0.837 -0.3978  0.0830 -0.0045
 7466TIP3   OH222361   6.692   4.530   0.074  0.3483  0.1386  0.0713
 7466TIP3    H122362   6.686   4.624   0.057  0.8849  0.0764 -0.5004
 7466TIP3    H222363   6.714   4.492  -0.011  3.6161 -0.1321  0.9077
 7467TIP3   OH222364   6.195   6.569   4.644  0.0747  0.1212  0.0744
 7467TIP3    H122365   6.136   6.631   4.600 -1.5197 -0.8891  0.6861
 7467TIP3    H222366   6.247   6.624   4.702 -1.6979  0.9091  1.0263
 7468TIP3   OH222367   4.216   6.570   2.591 -0.2057  0.5562  0.2301
 7468TIP3    H122368   4.245   6.582   2.682 -1.3165  0.4194  0.6183
 7468TIP3    H222369   4.225   6.657   2.552  0.0355  0.6772  0.5444
 7469TIP3   OH222370   2.260   1.122   0.529 -0.2117  0.1605  0.1333
 7469TIP3    H122371   2.193   1.178   0.568  0.7068  0.5847  1.1463
 7469TIP3    H222372   2.232   1.033   0.549  1.3366  0.3388  3.8766
 7470TIP3   OH222373   0.075   0.140   2.520  0.0685 -0.2622 -0.3230
 7470TIP3    H122374   0.169   0.137   2.500  0.1883  0.2201  0.1606
 7470TIP3    H222375   0.039   0.200   2.454  0.3440  0.7185  0.3863
 7471TIP3   OH222376   5.218   4.466   1.537 -0.2349  0.1823  0.3167
 7471TIP3    H122377   5.197   4.473   1.444  0.7630  2.0821  0.1801
 7471TIP3    H222378   5.288   4.401   1.540  0.4732  0.8814 -0.4189
 7472TIP3   OH222379   0.766   1.995   3.191 -0.1116  0.4186  0.5174
 7472TIP3    H122380   0.787   2.028   3.104  0.8304  0.1906  0.6438
 7472TIP3    H222381   0.790   2.067   3.250 -2.1688  1.1635  0.5074
 7473TIP3   OH222382   1.766   2.535   3.983  0.1217  0.0252 -0.4284
 7473TIP3    H122383   1.718   2.489   3.914  1.6137 -0.9420 -0.8487
 7473TIP3    H222384   1.819   2.467   4.024  2.7651  1.3924 -1.3791
 7474TIP3   OH222385   0.546   4.826   4.480  0.1234  0.3037 -0.1628
 7474TIP3    H122386   0.541   4.771   4.402 -0.3736 -2.4391  1.6604
 7474TIP3    H222387   0.473   4.887   4.472  0.5506  0.6219 -2.1567
 7475TIP3   OH222388   7.005   6.202   3.823 -0.0582  0.0987  0.4551
 7475TIP3    H122389   6.964   6.156   3.895 -2.3183 -1.1051 -1.4633
 7475TIP3    H222390   7.074   6.143   3.793 -0.8425 -0.6265  0.0277
 7476TIP3   OH222391   2.209   3.305   1.868  0.0029  0.1855  0.2527
 7476TIP3    H122392   2.235   3.239   1.932 -2.0121  0.0385  1.0096
 7476TIP3    H222393   2.268   3.378   1.884  1.4625 -0.9506  0.2474
 7477TIP3   OH222394   1.847   3.312   4.524 -0.5421 -0.5416 -0.2328
 7477TIP3    H122395   1.875   3.339   4.436  0.7089 -1.3608 -0.1071
 7477TIP3    H222396   1.768   3.261   4.509 -0.9813  0.2862 -0.7812
 7478TIP3   OH222397   3.262   1.420   3.106 -0.5119  0.2038  0.6899
 7478TIP3    H122398   3.266   1.360   3.181 -1.4918 -0.1422  0.4811
 7478TIP3    H222399   3.283   1.506   3.144  4.7886 -0.6395  0.3521
 7479TIP3   OH222400   1.072   2.530   4.969  0.2279 -0.2536 -0.1893
 7479TIP3    H122401   1.023   2.469   4.913  0.6961  1.1485 -2.2811
 7479TIP3    H222402   1.006   2.567   5.027 -0.6651 -0.5090 -1.0068
 7480TIP3   OH222403   1.164   4.655   3.194 -0.0171 -0.1210  0.7492
 7480TIP3    H122404   1.127   4.639   3.281  0.7605  1.0457  1.3198
 7480TIP3    H222405   1.206   4.573   3.170  0.1501 -0.3186  1.6862
 7481TIP3   OH222406   4.777   3.443   2.327  0.1620  0.1885  0.3073
 7481TIP3    H122407   4.715   3.410   2.262  0.7260  0.3024 -0.2950
 7481TIP3    H222408   4.815   3.364   2.366  1.0125  0.1068 -0.6556
 7482TIP3   OH222409   0.972   4.537   4.851 -0.2804 -0.1004  0.4241
 7482TIP3    H122410   1.051   4.554   4.902  0.4923 -2.3905  0.0999
 7482TIP3    H222411   0.997   4.557   4.761  0.2737 -1.6948  0.1947
 7483TIP3   OH222412   1.944   2.189   3.383 -0.3992 -0.5065  0.4029
 7483TIP3    H122413   1.962   2.278   3.414  0.2418 -0.1940 -0.7922
 7483TIP3    H222414   1.951   2.135   3.461  1.3057  0.2281  0.8185
 7484TIP3   OH222415   5.422   4.590   2.184 -0.2350 -0.0014 -0.2056
 7484TIP3    H122416   5.397   4.510   2.230 -1.3691 -0.6129 -1.8048
 7484TIP3    H222417   5.500   4.566   2.135 -0.0620  0.1377 -0.0008
 7485TIP3   OH222418   6.840   2.073   4.269 -0.2290  0.3409  0.1304
 7485TIP3    H122419   6.862   2.032   4.353  0.8415  2.0730  0.7656
 7485TIP3    H222420   6.844   2.001   4.206 -1.3509 -1.0663  1.5759
 7486TIP3   OH222421   2.395   6.616   3.922  0.0165 -0.2256 -0.0953
 7486TIP3    H122422   2.405   6.572   3.838  0.3456 -2.1184  0.8943
 7486TIP3    H222423   2.303   6.603   3.946  0.2107 -0.7140  0.3869
 7487TIP3   OH222424   1.864   0.070   4.051  0.3404 -0.0204  0.1132
 7487TIP3    H122425   1.856  -0.006   4.108  0.7698 -0.0533  0.1298
 7487TIP3    H222426   1.799   0.133   4.084 -1.7996 -1.3031 -1.3756
 7488TIP3   OH222427   6.820   4.202   2.857 -0.3949 -0.0217  0.3840
 7488TIP3    H122428   6.858   4.216   2.944  1.5805  0.7170 -0.5302
 7488TIP3    H222429   6.805   4.108   2.853 -0.1899 -0.1121  1.4121
 7489TIP3   OH222430   1.562   1.070   2.493  0.0041  0.7543  0.2340
 7489TIP3    H122431   1.543   1.121   2.413  0.8387 -0.3739 -0.7139
 7489TIP3    H222432   1.546   0.979   2.467 -0.2103  0.4126  1.5220
 7490TIP3   OH222433   3.786   2.543   4.209 -0.2595 -0.1320 -0.6100
 7490TIP3    H122434   3.766   2.506   4.295 -0.3249 -0.4844 -0.7737
 7490TIP3    H222435   3.876   2.516   4.191 -1.0903 -2.4362 -1.8340
 7491TIP3   OH222436   1.404   2.943   1.622 -0.3477 -0.0238 -0.2207
 7491TIP3    H122437   1.371   2.954   1.711 -0.6113  0.7000 -0.3949
 7491TIP3    H222438   1.499   2.951   1.631 -0.4307  1.0292 -0.1185
 7492TIP3   OH222439   0.354   2.765   1.273  0.2384 -0.0265  0.2388
 7492TIP3    H122440   0.311   2.850   1.275 -0.6878 -0.4940  0.4893
 7492TIP3    H222441   0.447   2.786   1.264 -0.0342  0.9909 -0.3592
 7493TIP3   OH222442   5.829   5.734   2.465 -0.6287  0.0102  0.1094
 7493TIP3    H122443   5.868   5.734   2.377 -0.1739 -1.3829  0.2810
 7493TIP3    H222444   5.902   5.748   2.524 -0.9823  1.2675  0.2738
 7494TIP3   OH222445   3.943   5.534   5.326 -0.3054 -0.2600 -0.4104
 7494TIP3    H122446   3.961   5.525   5.233  0.7071 -0.9855 -0.1531
 7494TIP3    H222447   3.895   5.455   5.350 -1.2771  0.2859 -0.4556
 7495TIP3   OH222448   6.270   2.003   0.464 -0.0437 -0.6604  0.1852
 7495TIP3    H122449   6.306   1.992   0.376  1.3305  0.3004  0.6073
 7495TIP3    H222450   6.190   2.054   0.450  0.5531  0.1223 -0.4333
 7496TIP3   OH222451   2.156   6.246   4.758  0.2182  0.3662 -0.0844
 7496TIP3    H122452   2.236   6.193   4.755 -0.4505 -0.7054  0.5111
 7496TIP3    H222453   2.188   6.336   4.762  1.4277 -0.0924  1.6689
 7497TIP3   OH222454   1.856   4.677   4.538 -0.8826  0.2305 -0.3736
 7497TIP3    H122455   1.793   4.689   4.467 -0.8696 -1.2401 -0.6743
 7497TIP3    H222456   1.825   4.735   4.607 -1.7177  0.6297 -1.0548
 7498TIP3   OH222457   1.679   6.485   4.318 -0.4037  0.4211  0.2142
 7498TIP3    H122458   1.667   6.391   4.307  1.6467  0.2780 -1.6112
 7498TIP3    H222459   1.672   6.500   4.412 -1.5371 -1.4015  0.4612
 7499TIP3   OH222460   5.133   1.597   1.894  0.5298 -0.5196  0.5907
 7499TIP3    H122461   5.077   1.523   1.869  0.8661 -0.6522  0.2142
 7499TIP3    H222462   5.218   1.557   1.911  1.6805  0.1117 -2.8877
 7500TIP3   OH222463   4.798   2.598   5.171 -0.3433 -0.2212 -0.3405
 7500TIP3    H122464   4.755   2.554   5.097  0.4413  0.3928 -1.1765
 7500TIP3    H222465   4.886   2.619   5.138  0.2055 -0.4185  0.9540
 7501TIP3   OH222466   7.163   2.780   0.010  0.0178 -0.2150  0.0027
 7501TIP3    H122467   7.179   2.717  -0.060  0.7163 -2.2335  1.8633
 7501TIP3    H222468   7.207   2.742   0.087  0.2498  2.4426  1.2815
 7502TIP3   OH222469   6.487   4.879   4.708 -0.0129 -0.0973  0.0649
 7502TIP3    H122470   6.565   4.935   4.708  0.5321 -0.7404 -2.1407
 7502TIP3    H222471   6.415   4.938   4.684  0.3587 -0.0782 -1.0617
 7503TIP3   OH222472   5.271   6.356   0.517  0.2553 -0.6544  0.4350
 7503TIP3    H122473   5.285   6.396   0.603  1.2083 -0.5504  0.2445
 7503TIP3    H222474   5.309   6.268   0.525 -0.6786 -1.0679  0.4617
 7504TIP3   OH222475   6.964   5.286   0.019  0.0337 -0.2742  0.3781
 7504TIP3    H122476   7.053   5.277   0.054  0.6140  0.1261 -0.9477
 7504TIP3    H222477   6.959   5.223  -0.052 -0.5754  0.0693  0.1073
 7505TIP3   OH222478   5.088   5.494   5.771 -0.3614  0.2652 -0.1714
 7505TIP3    H122479   4.997   5.466   5.764 -0.1512  0.0021 -3.9299
 7505TIP3    H222480   5.139   5.413   5.772 -0.1074  0.3799 -1.5283
 7506TIP3   OH222481   2.392   0.641   2.095 -0.1457  0.0668 -0.3324
 7506TIP3    H122482   2.431   0.714   2.049  0.7370  0.4901  1.0216
 7506TIP3    H222483   2.308   0.626   2.051 -0.4221  1.9957 -0.5201
 7507TIP3   OH222484   5.711   0.728   3.036 -0.3093  0.0187 -0.2315
 7507TIP3    H122485   5.636   0.704   2.981  0.5569 -1.6055 -0.7971
 7507TIP3    H222486   5.673   0.758   3.118 -1.6021  0.6187 -1.0303
 7508TIP3   OH222487   3.638   5.795   5.605 -0.1548  0.4005 -0.5180
 7508TIP3    H122488   3.713   5.774   5.661 -0.1069  1.1982 -0.2685
 7508TIP3    H222489   3.569   5.822   5.666 -0.1486  1.1408 -0.8225
 7509TIP3   OH222490   3.341   5.892   3.156 -0.0812  0.1192 -0.4402
 7509TIP3    H122491   3.266   5.876   3.098  1.2163  0.4773 -2.3430
 7509TIP3    H222492   3.386   5.808   3.162 -0.2242  0.0796  0.0614
 7510TIP3   OH222493   1.589   4.737   4.918 -0.8257  0.2823  0.1408
 7510TIP3    H122494   1.535   4.776   4.987 -1.2718 -1.3654  0.7780
 7510TIP3    H222495   1.637   4.667   4.962  0.9761  0.9673 -0.6695
 7511TIP3   OH222496   5.540   0.150   4.508  0.0015  0.6113 -0.5848
 7511TIP3    H122497   5.445   0.138   4.506  0.1425 -0.6910 -0.6477
 7511TIP3    H222498   5.553   0.229   4.561 -1.0830  0.3048  0.1913
 7512TIP3   OH222499   2.512   0.865   1.166 -0.1474  0.4971 -0.5867
 7512TIP3    H122500   2.511   0.883   1.260 -1.2335  0.3737 -0.5581
 7512TIP3    H222501   2.543   0.947   1.126 -0.7858  0.9428 -0.1878
 7513TIP3   OH222502   2.010   0.597   2.854 -0.3373  0.3776 -0.0274
 7513TIP3    H122503   2.101   0.586   2.826 -0.3043 -2.2129  0.8739
 7513TIP3    H222504   2.017   0.626   2.946 -0.3098 -2.3455  0.9148
 7514TIP3   OH222505   0.903   1.964   1.860 -0.4301  0.3522  0.4151
 7514TIP3    H122506   0.921   1.896   1.795  0.1914  0.9573 -0.0628
 7514TIP3    H222507   0.822   1.936   1.902 -1.5971  0.6119 -1.5473
 7515TIP3   OH222508   2.769   3.378   3.792 -0.5601 -0.4582 -0.0414
 7515TIP3    H122509   2.818   3.450   3.754  0.9187 -2.5804 -2.4781
 7515TIP3    H222510   2.750   3.320   3.718 -1.9253 -2.4337  1.7411
 7516TIP3   OH222511   5.627   3.924   0.832  0.3744 -0.5947 -0.3579
 7516TIP3    H122512   5.706   3.907   0.781  0.2760  0.9514 -1.1045
 7516TIP3    H222513   5.557   3.878   0.785  0.8415 -2.1616  0.4373
 7517TIP3   OH222514   6.197   4.360   5.751 -0.0030  0.2079 -0.4126
 7517TIP3    H122515   6.205   4.375   5.846 -1.3856  0.7214 -0.3512
 7517TIP3    H222516   6.184   4.448   5.715 -0.9018 -0.1136 -0.9029
 7518TIP3   OH222517   1.178   4.564   0.608 -0.1845 -0.7328  0.1822
 7518TIP3    H122518   1.213   4.541   0.694 -1.0938  1.1271  1.1127
 7518TIP3    H222519   1.091   4.525   0.605  0.5344 -2.3894 -0.7161
 7519TIP3   OH222520   1.718   2.647   2.360  0.3002 -0.3312 -0.2675
 7519TIP3    H122521   1.767   2.570   2.332  0.3469  0.0050 -1.1376
 7519TIP3    H222522   1.785   2.710   2.388  0.3666 -0.0013 -1.1283
 7520TIP3   OH222523   0.962   2.267   3.060  0.4629 -0.0700 -0.1247
 7520TIP3    H122524   0.914   2.219   2.993 -0.7787  1.3914 -0.3431
 7520TIP3    H222525   0.939   2.359   3.045  2.0698  0.5284  0.8012
 7521TIP3   OH222526   1.843   0.942   4.691 -0.3372  0.2445 -0.2164
 7521TIP3    H122527   1.751   0.929   4.669  0.0206 -0.0472 -1.6395
 7521TIP3    H222528   1.875   1.003   4.624  0.0453  1.9514  1.4222
 7522TIP3   OH222529   4.914   2.805   1.635 -0.0491  0.0157  0.3853
 7522TIP3    H122530   5.003   2.815   1.670 -0.5885  0.8825  1.5485
 7522TIP3    H222531   4.916   2.719   1.591  1.9719  0.9369 -1.5548
 7523TIP3   OH222532   0.468   2.155   1.680 -0.0390  0.1221 -0.0503
 7523TIP3    H122533   0.482   2.061   1.667  0.9646  0.3952 -1.1810
 7523TIP3    H222534   0.481   2.193   1.593 -0.0811  1.3387  0.4589
 7524TIP3   OH222535   0.739   0.124   0.113  0.3130  0.5183  0.0669
 7524TIP3    H122536   0.644   0.133   0.103  0.5220  0.3128 -3.7919
 7524TIP3    H222537   0.771   0.214   0.117  0.0593  0.6699 -0.9855
 7525TIP3   OH222538   6.683   2.754   0.557  0.1411 -0.0201  0.0183
 7525TIP3    H122539   6.630   2.829   0.586 -0.7419 -0.4013 -0.5443
 7525TIP3    H222540   6.619   2.683   0.546  0.8138 -0.5660 -0.4279
 7526TIP3   OH222541   4.734   3.175   5.290 -0.3719  0.2949 -0.3730
 7526TIP3    H122542   4.700   3.086   5.292  1.4512 -0.4559 -1.4344
 7526TIP3    H222543   4.657   3.229   5.271 -1.9341 -0.7531  2.4456
 7527TIP3   OH222544   0.237   2.158   3.380  0.0919 -0.1104  0.3633
 7527TIP3    H122545   0.279   2.220   3.439  0.9583  0.1102 -0.4617
 7527TIP3    H222546   0.310   2.120   3.329 -0.5724 -0.7041 -0.1669
 7528TIP3   OH222547   4.974   4.870   3.880  0.1849  0.5438 -0.2950
 7528TIP3    H122548   4.945   4.781   3.898  1.1968  0.1978 -0.2848
 7528TIP3    H222549   5.047   4.859   3.818  0.0430  1.3907 -0.6284
 7529TIP3   OH222550   1.522   4.221   3.424 -0.1475  0.1900 -0.3150
 7529TIP3    H122551   1.598   4.197   3.371  0.4172 -0.3451  0.6988
 7529TIP3    H222552   1.559   4.257   3.504 -0.8319 -2.6890  1.4384
 7530TIP3   OH222553   5.067   0.765   0.872  0.3003  0.0226 -0.0633
 7530TIP3    H122554   4.998   0.770   0.937  0.2711 -2.1852  0.1363
 7530TIP3    H222555   5.028   0.719   0.798  0.9757  0.5442 -0.7689
 7531TIP3   OH222556   5.064   3.540   4.011  0.3220  0.2689  0.3281
 7531TIP3    H122557   5.062   3.629   3.977 -0.1387  1.0575  2.2922
 7531TIP3    H222558   4.972   3.513   4.013  0.2808  0.4493  1.4217
 7532TIP3   OH222559   2.754   3.676   4.296  0.5406  0.3594 -0.5136
 7532TIP3    H122560   2.797   3.684   4.382  0.0529  0.4209 -0.2733
 7532TIP3    H222561   2.687   3.744   4.297 -0.9438 -1.0542 -0.0791
 7533TIP3   OH222562   6.244   1.508   4.766  0.4036 -0.1399 -0.0104
 7533TIP3    H122563   6.184   1.535   4.696  0.2010 -0.8536 -0.1169
 7533TIP3    H222564   6.202   1.539   4.846  0.9813  1.3064 -0.2431
 7534TIP3   OH222565   5.314   4.951   4.600  0.3715  0.0394  0.0918
 7534TIP3    H122566   5.344   4.992   4.681  1.6006 -0.5411 -0.0489
 7534TIP3    H222567   5.229   4.913   4.622 -0.0676  1.3010  0.6434
 7535TIP3   OH222568   6.934   3.869   1.592 -0.2220  0.1984 -0.4843
 7535TIP3    H122569   6.847   3.848   1.557 -0.2569  1.0861 -0.9499
 7535TIP3    H222570   6.988   3.881   1.514 -0.0194  1.0506 -0.2237
 7536TIP3   OH222571   7.141   5.257   5.855 -0.1191  0.4716  0.6407
 7536TIP3    H122572   7.217   5.315   5.856  0.0883  0.2124  0.4620
 7536TIP3    H222573   7.071   5.308   5.815 -0.1411  0.8327  1.1376
 7537TIP3   OH222574   5.994   6.562   1.833 -0.1073  0.3901 -0.1654
 7537TIP3    H122575   5.901   6.577   1.853  0.0951  0.4901  0.7752
 7537TIP3    H222576   6.034   6.550   1.919  0.2308 -2.7115 -0.6307
 7538TIP3   OH222577   4.927   2.818   0.937  0.1092 -0.1706  0.1911
 7538TIP3    H122578   4.943   2.847   1.027 -0.7127  1.2170 -0.0876
 7538TIP3    H222579   4.955   2.727   0.936  2.0596  0.3655  1.3150
 7539TIP3   OH222580   6.557   0.565   4.787  0.0875  0.3973  0.0719
 7539TIP3    H122581   6.590   0.500   4.724  1.1963 -0.5146  1.5508
 7539TIP3    H222582   6.544   0.516   4.868 -1.5641  1.4988  0.5256
 7540TIP3   OH222583   0.466   5.633   3.219 -0.8737  0.1090  0.0269
 7540TIP3    H122584   0.484   5.654   3.311  0.2350  0.3097 -0.2171
 7540TIP3    H222585   0.551   5.643   3.175 -1.0463 -1.4666 -0.7501
 7541TIP3   OH222586   6.066   1.606   1.645  0.0099 -0.4745 -0.3498
 7541TIP3    H122587   6.005   1.575   1.712  0.4320 -0.8767 -0.1447
 7541TIP3    H222588   6.045   1.698   1.635  1.2528  0.1175  1.7956
 7542TIP3   OH222589   3.110   1.834   0.757 -0.1413  0.2563 -0.5400
 7542TIP3    H122590   3.125   1.844   0.663 -0.4801 -0.4670 -0.6756
 7542TIP3    H222591   3.183   1.780   0.788  0.6518  1.5009 -0.1484
 7543TIP3   OH222592   4.781   1.716   1.599  0.0031  0.1830 -0.4180
 7543TIP3    H122593   4.730   1.797   1.591  0.4619  0.7848  2.0213
 7543TIP3    H222594   4.855   1.740   1.655  2.0920 -1.1004 -2.4393
 7544TIP3   OH222595   2.004   5.688   2.749 -0.6025  0.1023 -0.2529
 7544TIP3    H122596   2.058   5.624   2.702  1.3369  1.3103  0.2147
 7544TIP3    H222597   1.938   5.635   2.795  0.1518 -1.4374 -0.8804
 7545TIP3   OH222598   5.429   3.294   3.545 -0.3121  0.1458  0.3177
 7545TIP3    H122599   5.336   3.278   3.530  0.0563 -2.4270  0.2722
 7545TIP3    H222600   5.464   3.320   3.460 -0.6762 -0.7572 -0.1198
 7546TIP3   OH222601   1.938   2.734   1.739  0.2713  0.3103 -0.4350
 7546TIP3    H122602   1.945   2.736   1.835 -2.5263  0.2823 -0.1667
 7546TIP3    H222603   1.973   2.648   1.715  0.6449  0.1535  0.5935
 7547TIP3   OH222604   1.554   1.084   3.806  0.4679  0.4046  0.2841
 7547TIP3    H122605   1.506   1.086   3.889 -0.0844 -1.8060  0.0774
 7547TIP3    H222606   1.514   1.153   3.754  0.1884  1.1976  1.5114
 7548TIP3   OH222607   0.555   4.488   3.117 -0.0643  0.8229 -0.4177
 7548TIP3    H122608   0.516   4.502   3.031  0.1684 -0.6668 -0.7856
 7548TIP3    H222609   0.609   4.566   3.132 -0.0811  1.0857 -1.6230
 7549TIP3   OH222610   6.546   2.693   4.977 -0.1462  0.3203 -0.2181
 7549TIP3    H122611   6.638   2.667   4.980 -0.4820 -0.9345 -0.0119
 7549TIP3    H222612   6.535   2.750   5.053 -0.0491 -1.4043  1.1467
 7550TIP3   OH222613   5.738   1.727   1.667 -0.4080 -0.6406  0.2588
 7550TIP3    H122614   5.678   1.800   1.649 -0.4506 -0.7973 -0.2618
 7550TIP3    H222615   5.825   1.764   1.659 -0.4087 -0.9065 -1.2294
 7551TIP3   OH222616   4.297   3.655   3.015 -0.3326  0.3159  0.0341
 7551TIP3    H122617   4.268   3.737   3.055  1.4981  1.3118 -0.5880
 7551TIP3    H222618   4.325   3.680   2.927  0.7470 -0.8791  0.0160
 7552TIP3   OH222619   0.931   1.410   5.488 -0.3060 -0.5695 -0.6359
 7552TIP3    H122620   0.937   1.316   5.505  1.1506 -0.1623  1.5353
 7552TIP3    H222621   0.838   1.430   5.500 -0.7074 -1.7685 -1.5346
 7553TIP3   OH222622   5.302   6.050   1.952 -0.3843 -0.5964  0.4455
 7553TIP3    H122623   5.375   6.112   1.955 -0.4693 -0.4588 -0.1318
 7553TIP3    H222624   5.320   5.989   2.023  0.5916 -0.8876 -0.0292
 7554TIP3   OH222625   7.145   1.326   4.153 -0.4685 -0.2471 -0.3618
 7554TIP3    H122626   7.060   1.310   4.193 -0.7349  1.6119 -0.1027
 7554TIP3    H222627   7.140   1.285   4.067 -1.8128  0.2672 -0.5426
 7555TIP3   OH222628   6.395   4.594   0.965 -0.3855  0.4609  0.9071
 7555TIP3    H122629   6.372   4.621   1.053 -0.5433  1.5982  0.5263
 7555TIP3    H222630   6.440   4.669   0.927 -0.4808  0.0536 -0.0409
 7556TIP3   OH222631   6.086   0.605   1.748  0.4650 -0.1296  0.2727
 7556TIP3    H122632   6.125   0.545   1.813 -0.9507 -0.1136  1.1806
 7556TIP3    H222633   6.027   0.549   1.697  1.4624 -0.1104 -0.9478
 7557TIP3   OH222634   1.053   0.106   2.146 -0.2180  0.3825 -0.5953
 7557TIP3    H122635   1.012   0.183   2.186 -1.2733  0.3118 -1.4867
 7557TIP3    H222636   0.980   0.054   2.114  0.4537 -1.3349  0.5463
 7558TIP3   OH222637   2.747   5.326   0.586  0.1327 -0.3018 -0.2525
 7558TIP3    H122638   2.828   5.275   0.583 -0.5608 -1.3802 -0.7949
 7558TIP3    H222639   2.693   5.281   0.651  0.1495  0.7191  0.4988
 7559TIP3   OH222640   6.146   5.080   3.802  0.5945 -0.3780  0.1297
 7559TIP3    H122641   6.139   5.166   3.760 -0.3169  0.1784  1.3822
 7559TIP3    H222642   6.081   5.027   3.756 -0.0067  0.0704  0.4475
 7560TIP3   OH222643   5.770   0.507   3.885  0.0054  0.3291  0.7172
 7560TIP3    H122644   5.703   0.508   3.953 -1.5354 -0.4345 -0.6910
 7560TIP3    H222645   5.808   0.419   3.890  1.5797  1.0371  2.0733
 7561TIP3   OH222646   0.544   4.488   3.594 -0.2986  0.2760 -0.1027
 7561TIP3    H122647   0.587   4.552   3.651  1.0675 -0.3341 -0.4277
 7561TIP3    H222648   0.522   4.416   3.653 -0.4118  0.3552 -0.0448
 7562TIP3   OH222649   4.918   4.272   3.878  0.2730 -0.2781 -0.5552
 7562TIP3    H122650   4.935   4.313   3.963  0.0982  0.7164 -0.9862
 7562TIP3    H222651   4.837   4.314   3.847 -0.0915 -1.1901 -0.8714
 7563TIP3   OH222652   4.100   3.700   0.682 -0.3073 -0.1815  0.0378
 7563TIP3    H122653   4.135   3.716   0.594  0.2018 -0.9212  0.0943
 7563TIP3    H222654   4.177   3.704   0.739 -0.7606  1.1642  0.5713
 7564TIP3   OH222655  -0.035   5.211   0.837  0.2098  0.6778 -0.0094
 7564TIP3    H122656   0.041   5.213   0.778  0.0025 -0.5914 -0.3457
 7564TIP3    H222657   0.002   5.192   0.923  0.3034  0.1964 -0.1496
 7565TIP3   OH222658   2.836   1.856   1.768  0.8298 -0.2642  0.3529
 7565TIP3    H122659   2.895   1.907   1.712  0.8614 -1.2705 -0.5587
 7565TIP3    H222660   2.893   1.821   1.837  1.3836 -1.4215 -0.6489
 7566TIP3   OH222661   5.885   4.162   2.968 -0.1473 -0.2417  0.8188
 7566TIP3    H122662   5.862   4.138   3.058 -0.4397 -0.2695  0.7381
 7566TIP3    H222663   5.819   4.118   2.914  0.3429 -0.6601  0.5546
 7567TIP3   OH222664   3.495   5.946   0.685  0.1437  0.2288  0.4699
 7567TIP3    H122665   3.569   5.906   0.733  1.7910  0.5865 -1.6004
 7567TIP3    H222666   3.496   5.902   0.601  0.1073  2.5403 -0.8114
 7568TIP3   OH222667   0.007   1.900   2.930  0.2501 -0.1995 -0.5043
 7568TIP3    H122668  -0.027   1.968   2.987  1.9298 -1.5252  2.2625
 7568TIP3    H222669   0.055   1.947   2.862 -0.3795  1.4071  0.1231
 7569TIP3   OH222670   1.486   0.083   0.182 -0.5439  0.1673 -0.0963
 7569TIP3    H122671   1.439   0.046   0.256 -0.2319  1.0183  0.5491
 7569TIP3    H222672   1.576   0.092   0.213 -0.6428  1.5905 -0.1589
 7570TIP3   OH222673   3.125   5.061   2.633 -0.4089 -0.4055  0.5657
 7570TIP3    H122674   3.054   5.103   2.583 -1.1955 -1.0974  1.0709
 7570TIP3    H222675   3.205   5.087   2.587 -1.0294 -0.0984 -0.3799
 7571TIP3   OH222676   5.871   2.561   3.537 -0.8983 -0.0888 -0.3579
 7571TIP3    H122677   5.825   2.643   3.519  0.5694  0.8495 -0.0586
 7571TIP3    H222678   5.863   2.510   3.457 -0.6885  0.9207 -1.0371
 7572TIP3   OH222679   4.854   0.930   3.708  0.3428 -0.3047  0.4837
 7572TIP3    H122680   4.930   0.947   3.653  0.5820 -1.5436  0.4223
 7572TIP3    H222681   4.797   1.007   3.695  0.6422 -0.3289 -1.0460
 7573TIP3   OH222682   0.626   0.821   2.739  0.3403 -0.3141  0.1070
 7573TIP3    H122683   0.596   0.911   2.745  1.0458  0.1095 -1.8286
 7573TIP3    H222684   0.568   0.772   2.797 -1.2219  1.1211 -0.1653
 7574TIP3   OH222685   1.143   2.625   3.717  0.0206  0.2358 -0.6447
 7574TIP3    H122686   1.091   2.665   3.648 -0.6516 -1.6640 -1.2927
 7574TIP3    H222687   1.082   2.568   3.763  0.8260  0.3175  0.5649
 7575TIP3   OH222688   2.150   5.815   2.006 -0.6599  0.1753 -0.5080
 7575TIP3    H122689   2.071   5.774   1.972 -0.1500 -0.4194 -1.0039
 7575TIP3    H222690   2.138   5.909   1.990 -1.3823  0.1247 -0.3104
 7576TIP3   OH222691   1.104   0.638   0.599  0.4392  0.4048  0.9694
 7576TIP3    H122692   1.012   0.664   0.596 -0.4745 -2.5134 -1.5458
 7576TIP3    H222693   1.133   0.643   0.508  2.2584 -0.3691  1.4577
 7577TIP3   OH222694   5.704   2.940   0.148  0.4677  0.1086  0.0147
 7577TIP3    H122695   5.636   2.978   0.092  0.3286 -2.3641 -1.6653
 7577TIP3    H222696   5.678   2.964   0.237 -0.9952  1.6340 -0.7706
 7578TIP3   OH222697   0.030   2.029   4.035 -0.3471  0.3070  0.0263
 7578TIP3    H122698   0.124   2.042   4.024 -0.2764 -0.4178 -0.2739
 7578TIP3    H222699  -0.009   2.114   4.016  0.3568  1.0214  1.6410
 7579TIP3   OH222700   2.286   2.055   4.384 -0.3756  0.6656  0.1506
 7579TIP3    H122701   2.315   2.028   4.471 -0.5230 -0.4076 -0.1133
 7579TIP3    H222702   2.365   2.086   4.341  0.6920 -2.9325 -0.8265
 7580TIP3   OH222703   2.485   1.780   5.503 -0.0187  0.5596  0.3943
 7580TIP3    H122704   2.460   1.754   5.591  2.7730  0.5956  1.3013
 7580TIP3    H222705   2.431   1.857   5.485 -1.0676  0.2003  1.8044
 7581TIP3   OH222706   0.524   3.381   2.085 -0.0881  0.3209 -0.3212
 7581TIP3    H122707   0.577   3.458   2.106 -0.3367  1.0892 -2.2880
 7581TIP3    H222708   0.455   3.381   2.152 -0.4336  2.1943 -0.6084
 7582TIP3   OH222709   3.730   6.350   3.981  0.5701  0.6222 -0.2154
 7582TIP3    H122710   3.807   6.408   3.981  1.3468 -0.3384 -2.0631
 7582TIP3    H222711   3.744   6.293   4.057  1.2940  0.9396 -0.0908
 7583TIP3   OH222712   5.990   4.595   3.566 -0.1948  0.1135  0.3570
 7583TIP3    H122713   6.074   4.625   3.532  0.4087 -2.8039 -1.0838
 7583TIP3    H222714   6.009   4.560   3.653  0.4058 -1.6548 -0.4460
 7584TIP3   OH222715   2.904   0.780   4.216 -0.0875 -0.0698  0.1530
 7584TIP3    H122716   2.815   0.771   4.249  0.1309 -1.6906  0.3987
 7584TIP3    H222717   2.896   0.833   4.137 -1.1535  0.4584  0.6059
 7585TIP3   OH222718   3.231   2.239   5.664  0.4911 -0.1707 -0.0584
 7585TIP3    H122719   3.239   2.284   5.580 -0.3361  0.6736  0.3022
 7585TIP3    H222720   3.205   2.307   5.726 -0.5097 -1.0771  0.5561
 7586TIP3   OH222721   1.415   4.806   1.743  0.1271  0.5584 -0.2865
 7586TIP3    H122722   1.442   4.879   1.799  0.1854  1.1398 -1.0509
 7586TIP3    H222723   1.321   4.818   1.730  0.1043  0.4001 -0.2760
 7587TIP3   OH222724   6.669   4.041   1.838 -0.3146  0.5853  0.3770
 7587TIP3    H122725   6.753   4.053   1.793  1.1216 -1.2201  2.3047
 7587TIP3    H222726   6.627   3.969   1.791 -0.9398  1.6647 -0.7536
 7588TIP3   OH222727   0.181   1.413   4.250 -0.2584 -0.2677 -0.5313
 7588TIP3    H122728   0.169   1.500   4.287 -1.8148 -0.4093 -0.6374
 7588TIP3    H222729   0.093   1.378   4.240  0.3441 -2.1050  0.0555
 7589TIP3   OH222730   3.617   5.967   0.205 -0.4632 -0.4886 -0.5580
 7589TIP3    H122731   3.610   5.952   0.111  1.6401 -0.7742 -0.7044
 7589TIP3    H222732   3.709   5.987   0.220 -0.9529  0.6675  1.3081
 7590TIP3   OH222733   5.623   5.403   4.615 -0.1006  0.3338  0.1557
 7590TIP3    H122734   5.540   5.430   4.654  0.7874  2.0531  0.9937
 7590TIP3    H222735   5.601   5.381   4.524 -1.9753 -2.4953  1.1720
 7591TIP3   OH222736   2.400   4.324   1.563 -0.5551  0.2963 -0.7040
 7591TIP3    H122737   2.330   4.268   1.531  0.7621 -1.9819  0.1175
 7591TIP3    H222738   2.474   4.306   1.504 -0.5065  2.3584 -1.3317
 7592TIP3   OH222739   2.297   0.195   0.351  0.4132 -0.4378  0.3379
 7592TIP3    H122740   2.244   0.116   0.342 -2.2851  1.4116 -1.5546
 7592TIP3    H222741   2.301   0.212   0.445 -2.6401 -0.5895  0.5810
 7593TIP3   OH222742   6.578   1.062   2.157  0.2672 -0.1664 -0.4656
 7593TIP3    H122743   6.607   0.977   2.123 -1.7403 -0.3023 -2.0492
 7593TIP3    H222744   6.482   1.057   2.154  0.0380  1.0137  2.4120
 7594TIP3   OH222745   5.574   2.384   3.443 -0.1269  0.4225  0.1019
 7594TIP3    H122746   5.604   2.471   3.470 -3.0845  1.3406  0.7005
 7594TIP3    H222747   5.578   2.386   3.348 -1.4755  1.7636  0.0430
 7595TIP3   OH222748   6.486   0.752   0.648 -0.3985 -0.2679  0.2213
 7595TIP3    H122749   6.462   0.844   0.659  1.4728  0.2598  0.1036
 7595TIP3    H222750   6.562   0.740   0.704  0.6716 -1.1946 -1.3621
 7596TIP3   OH222751   0.710   5.175   4.946  0.3240  0.0835 -0.1653
 7596TIP3    H122752   0.682   5.266   4.938  0.0329 -0.1219 -1.6568
 7596TIP3    H222753   0.684   5.134   4.864  1.9819 -0.9414 -0.2173
 7597TIP3   OH222754   2.309   1.777   0.801  0.5074  0.8532  0.3907
 7597TIP3    H122755   2.322   1.706   0.863  0.5394  0.3306 -0.2018
 7597TIP3    H222756   2.266   1.846   0.851 -2.0509 -0.6007  0.3650
 7598TIP3   OH222757   6.637   0.606   3.714 -0.0659  0.6095  0.5253
 7598TIP3    H122758   6.555   0.560   3.696  0.4047 -0.2543  0.5434
 7598TIP3    H222759   6.610   0.685   3.762 -0.8376  0.0663  1.0164
 7599TIP3   OH222760   3.009   3.063   5.103 -0.7306 -0.1835 -0.0970
 7599TIP3    H122761   3.020   3.059   5.008 -0.5824  0.3246 -0.1003
 7599TIP3    H222762   3.021   2.972   5.131  0.9855 -0.0824 -0.3774
 7600TIP3   OH222763   3.918   1.667   5.875 -0.3948 -0.1151 -0.4477
 7600TIP3    H122764   3.886   1.749   5.838  0.6845  2.2991  3.4021
 7600TIP3    H222765   3.840   1.625   5.912 -0.7060  0.0518 -0.9121
 7601TIP3   OH222766   4.409   2.908   3.285  0.0456  0.2716  0.3844
 7601TIP3    H122767   4.322   2.930   3.252  0.1324 -0.1888 -0.1776
 7601TIP3    H222768   4.429   2.976   3.349 -0.6920  0.4273  0.4552
 7602TIP3   OH222769   5.818   6.269   3.844 -0.4548  0.0625  0.4121
 7602TIP3    H122770   5.814   6.242   3.936 -0.6667  0.7558  0.6079
 7602TIP3    H222771   5.853   6.192   3.798 -1.0941 -0.5647  0.9529
 7603TIP3   OH222772   3.617   0.527   1.283 -0.2572  0.1074  0.1711
 7603TIP3    H122773   3.556   0.596   1.257  1.5276  0.8662 -2.4159
 7603TIP3    H222774   3.695   0.574   1.313  0.7503 -0.7373 -1.0199
 7604TIP3   OH222775   5.607   3.073   2.564 -0.3220 -0.0396 -0.1551
 7604TIP3    H122776   5.660   3.149   2.544 -0.3493 -0.0408 -0.2323
 7604TIP3    H222777   5.620   3.058   2.658 -0.6261  0.2995 -0.0564
 7605TIP3   OH222778   6.428   0.339   1.065 -0.5778 -0.5464 -0.2880
 7605TIP3    H122779   6.519   0.367   1.071 -0.3657 -1.4158  0.9560
 7605TIP3    H222780   6.378   0.419   1.049  0.5731 -0.3134 -3.4514
 7606TIP3   OH222781   3.474   4.467   3.459  0.6482  0.3704  0.0978
 7606TIP3    H122782   3.500   4.450   3.550  0.0446 -1.2602  0.0007
 7606TIP3    H222783   3.381   4.490   3.465  0.5087 -0.1368 -0.1510
 7607TIP3   OH222784   0.211   2.992   4.178 -0.3419  0.5145  0.1662
 7607TIP3    H122785   0.214   3.032   4.091  1.9977 -0.8086 -0.4528
 7607TIP3    H222786   0.289   2.935   4.181 -0.8905 -0.2323  2.7654
 7608TIP3   OH222787   4.773   6.675   3.372  0.4095 -0.0427  0.4093
 7608TIP3    H122788   4.754   6.581   3.369  0.5684 -0.0509 -0.7089
 7608TIP3    H222789   4.822   6.692   3.292  0.9861  0.8740  0.9369
 7609TIP3   OH222790   2.880   6.622   5.250 -0.3965 -0.1133  0.0917
 7609TIP3    H122791   2.878   6.693   5.314 -1.1420  0.5395 -0.6313
 7609TIP3    H222792   2.826   6.654   5.178  0.9134 -0.5672 -1.1389
 7610TIP3   OH222793   1.339   2.192   5.493 -0.2312 -0.5932 -0.1708
 7610TIP3    H122794   1.375   2.172   5.407 -0.0293 -1.1906  0.0441
 7610TIP3    H222795   1.245   2.176   5.485 -0.1841 -0.8445 -0.2267
 7611TIP3   OH222796   5.159   0.898   4.134  0.6507  0.1565  0.2696
 7611TIP3    H122797   5.092   0.911   4.066 -0.6564 -0.2147  1.4471
 7611TIP3    H222798   5.234   0.951   4.104 -0.4218  1.1841 -0.7120
 7612TIP3   OH222799   1.779   6.091   1.117  0.0501 -0.2014  0.3497
 7612TIP3    H122800   1.848   6.049   1.170  0.1418  0.5141  0.8109
 7612TIP3    H222801   1.723   6.134   1.182 -1.5954 -1.8223  0.1033
 7613TIP3   OH222802   5.073   5.297   0.419 -0.3855 -0.4006  0.0377
 7613TIP3    H122803   4.997   5.352   0.403  0.8290  1.3799  0.1339
 7613TIP3    H222804   5.048   5.244   0.495 -1.7336 -0.2942 -0.3007
 7614TIP3   OH222805   5.845   4.359   5.368  0.5989  0.3760  0.2435
 7614TIP3    H122806   5.815   4.309   5.445  0.6989  1.6696  1.1530
 7614TIP3    H222807   5.767   4.370   5.315  1.0181 -2.8935 -1.3006
 7615TIP3   OH222808   5.353   5.802   3.707 -0.7715  0.3178  0.0196
 7615TIP3    H122809   5.324   5.720   3.748 -1.3311 -0.0629 -1.0897
 7615TIP3    H222810   5.385   5.855   3.779  0.2976 -1.1561  0.6923
 7616TIP3   OH222811   6.884   5.892   4.900 -0.3321  0.0872 -0.1856
 7616TIP3    H122812   6.938   5.822   4.864  0.9559  0.9343  0.0081
 7616TIP3    H222813   6.947   5.958   4.929 -1.4393  0.6761  1.0124
 7617TIP3   OH222814   1.978   1.693   1.886 -0.2880  0.1507  0.3615
 7617TIP3    H122815   2.064   1.651   1.885 -0.5473 -0.4369 -1.1814
 7617TIP3    H222816   1.930   1.650   1.956 -0.5268 -2.1900 -1.1407
 7618TIP3   OH222817   4.486   0.760   0.884 -0.4151  0.2641  0.1563
 7618TIP3    H122818   4.398   0.796   0.891 -0.9446 -0.9190 -0.2995
 7618TIP3    H222819   4.478   0.670   0.914  0.5125 -0.0543 -0.5004
 7619TIP3   OH222820   1.772   5.063   0.728 -0.0222 -0.1498 -0.0230
 7619TIP3    H122821   1.856   5.019   0.731  0.5389  0.5881 -2.4361
 7619TIP3    H222822   1.714   5.001   0.683 -0.6265 -0.4291  1.1196
 7620TIP3   OH222823   6.434   4.198   3.577  0.1678 -0.0116  0.2479
 7620TIP3    H122824   6.403   4.228   3.663  0.0183  1.6501 -0.3484
 7620TIP3    H222825   6.423   4.103   3.579 -0.7241  0.0944  1.7131
 7621TIP3   OH222826   2.125   0.191   5.221 -0.0960 -0.1820 -0.0360
 7621TIP3    H122827   2.030   0.193   5.232  0.0268  1.0857  0.9656
 7621TIP3    H222828   2.156   0.131   5.289 -0.2905 -2.2596 -1.6675
 7622TIP3   OH222829   6.655   2.004   3.661 -0.3653  0.2301  1.1157
 7622TIP3    H122830   6.728   1.969   3.610 -0.0002  3.1252 -0.5857
 7622TIP3    H222831   6.584   1.942   3.646  1.3538 -2.0645  1.8985
 7623TIP3   OH222832   6.666   6.509   5.486 -0.6049  0.2638 -0.7305
 7623TIP3    H122833   6.648   6.418   5.509 -0.4122  0.7080  1.3188
 7623TIP3    H222834   6.742   6.533   5.539 -0.7349  1.6678 -1.1391
 7624TIP3   OH222835   0.523   3.464   4.086 -0.6792 -0.1963  0.2224
 7624TIP3    H122836   0.572   3.544   4.069  0.4311 -0.9826 -0.4246
 7624TIP3    H222837   0.468   3.485   4.161  0.9899  0.5960  1.2855
 7625TIP3   OH222838   4.174   4.228   0.075  0.0529  0.2221  0.2855
 7625TIP3    H122839   4.162   4.322   0.060 -0.0716  0.2805  0.7333
 7625TIP3    H222840   4.266   4.212   0.057  0.0060  0.3749 -0.0862
 7626TIP3   OH222841   0.730   5.740   0.398  0.4094  1.1567  0.4864
 7626TIP3    H122842   0.760   5.657   0.360 -2.6359  0.0372  0.2540
 7626TIP3    H222843   0.700   5.791   0.324 -1.7107  0.6487  0.9395
 7627TIP3   OH222844   4.823   5.901   2.470 -0.0788 -0.2125 -0.1592
 7627TIP3    H122845   4.865   5.890   2.555  1.9661 -3.3625 -1.4136
 7627TIP3    H222846   4.735   5.864   2.481  0.7603 -2.1896  0.2185
 7628TIP3   OH222847   0.403   1.034   2.833 -0.0725  0.2118 -0.2613
 7628TIP3    H122848   0.485   1.076   2.857  0.4575 -1.2507  0.6205
 7628TIP3    H222849   0.400   1.039   2.737  0.5495  1.1368 -0.2441
 7629TIP3   OH222850   6.940   4.809   0.230 -0.3409  0.2925  0.1091
 7629TIP3    H122851   7.011   4.748   0.210 -0.6765  0.9527 -3.8337
 7629TIP3    H222852   6.981   4.895   0.227 -0.9572  0.5760 -0.2951
 7630TIP3   OH222853   6.424   5.856   2.004  0.0100 -0.3361 -0.5472
 7630TIP3    H122854   6.507   5.875   2.047  0.3972 -1.2416 -0.8733
 7630TIP3    H222855   6.420   5.916   1.930 -1.3244  2.2748  1.4907
 7631TIP3   OH222856   2.112   1.089   0.928 -0.3310 -0.1075  0.1371
 7631TIP3    H122857   2.097   1.140   0.848  1.4200 -0.2796 -0.3564
 7631TIP3    H222858   2.025   1.075   0.965 -0.9780  2.1102 -0.4054
 7632TIP3   OH222859   6.736   3.599   3.153  0.1704  0.0211  0.0169
 7632TIP3    H122860   6.799   3.637   3.215  1.5090  0.5671 -1.6080
 7632TIP3    H222861   6.787   3.534   3.105 -0.5411  0.3771 -1.2401
 7633TIP3   OH222862   2.251   0.241   2.080  0.2267 -0.2599 -0.3796
 7633TIP3    H122863   2.165   0.254   2.039  0.1481  0.2348 -0.0669
 7633TIP3    H222864   2.274   0.150   2.059 -1.6073 -1.3314  1.7972
 7634TIP3   OH222865   4.463   1.943   4.737 -0.1043  0.5362 -0.9279
 7634TIP3    H122866   4.393   1.970   4.796  2.4798  1.8311  1.8821
 7634TIP3    H222867   4.500   2.026   4.706  2.2180  0.1166  0.4437
 7635TIP3   OH222868   2.935   3.714   4.510 -0.2060  0.9145 -0.0671
 7635TIP3    H122869   2.990   3.791   4.519  0.5620  0.2498  1.2909
 7635TIP3    H222870   2.945   3.667   4.593 -1.2380 -0.2627 -0.5675
 7636TIP3   OH222871   7.140   4.286   2.970 -0.0962 -0.2760  0.1482
 7636TIP3    H122872   7.068   4.341   3.001  0.5311  0.6388  0.0327
 7636TIP3    H222873   7.103   4.198   2.966 -1.6405  0.3744 -1.2560
 7637TIP3   OH222874   0.091   0.708   1.715 -0.2751  0.0119  0.0210
 7637TIP3    H122875   0.040   0.783   1.745  0.6694  0.3996  0.7354
 7637TIP3    H222876   0.051   0.632   1.758  0.0306  0.3707  0.9632
 7638TIP3   OH222877   2.146   4.884   5.694 -0.2825 -0.0412  0.9248
 7638TIP3    H122878   2.202   4.901   5.770 -0.9591  0.0812  1.3945
 7638TIP3    H222879   2.106   4.968   5.674  0.6989  0.1916 -0.2449
 7639TIP3   OH222880   1.118   5.911   2.444 -0.3337  0.1034  0.1768
 7639TIP3    H122881   1.088   5.856   2.516  0.6346  2.0507  2.1979
 7639TIP3    H222882   1.199   5.869   2.414 -0.5739 -0.5589  0.4497
 7640TIP3   OH222883   0.440   2.986   0.655 -0.1329  0.0715 -0.2792
 7640TIP3    H122884   0.358   2.990   0.703 -0.2563  0.8970 -0.5341
 7640TIP3    H222885   0.502   3.035   0.709 -0.7522  2.8031 -1.8020
 7641TIP3   OH222886   0.191   6.495   3.184  0.4564  0.3957  0.2982
 7641TIP3    H122887   0.243   6.454   3.115  0.5151  3.2173 -1.5117
 7641TIP3    H222888   0.124   6.431   3.205  2.6494 -2.0601  0.3767
 7642TIP3   OH222889   2.424   3.799   5.469  0.0140  0.6521  0.4296
 7642TIP3    H122890   2.519   3.803   5.458 -0.1786  0.8741 -1.4607
 7642TIP3    H222891   2.391   3.877   5.424 -1.1211  0.0290  0.1484
 7643TIP3   OH222892   2.255   1.491   3.588  0.2099  0.1228 -0.1842
 7643TIP3    H122893   2.236   1.529   3.503  0.9200  2.3779  0.5898
 7643TIP3    H222894   2.350   1.478   3.588  0.3262  0.8744  0.5207
 7644TIP3   OH222895   1.986   3.952   2.955  0.2487 -0.0047 -0.0228
 7644TIP3    H122896   2.011   4.043   2.938 -1.0327  0.4415  0.3700
 7644TIP3    H222897   2.041   3.925   3.029  1.8867 -0.1488 -1.2528
 7645TIP3   OH222898   2.962   6.541   1.430  0.0423 -0.3246 -0.0246
 7645TIP3    H122899   2.868   6.553   1.417  0.3543  0.2984 -2.2296
 7645TIP3    H222900   2.977   6.565   1.521 -1.5357  2.3717 -0.3558
 7646TIP3   OH222901   2.821   2.590   0.331 -0.2045  0.1978 -0.3874
 7646TIP3    H122902   2.856   2.506   0.301  0.2039 -0.3224  1.4591
 7646TIP3    H222903   2.898   2.646   0.341 -0.2190  0.0427  0.6453
 7647TIP3   OH222904   2.183   5.463   0.631 -0.0633  0.0025  0.1095
 7647TIP3    H122905   2.209   5.549   0.665 -0.6247  0.0171  0.5252
 7647TIP3    H222906   2.122   5.429   0.697 -2.4502  0.7018 -1.5837
 7648TIP3   OH222907   2.045   6.306   3.188  0.1188  0.5602 -0.2085
 7648TIP3    H122908   1.955   6.305   3.157 -0.1810 -0.6643  0.6060
 7648TIP3    H222909   2.094   6.258   3.121  0.0997  0.8895 -0.4597
 7649TIP3   OH222910   4.195   4.657   0.275 -0.6208  0.0348 -0.2072
 7649TIP3    H122911   4.152   4.591   0.331  1.0463  0.1314  1.2948
 7649TIP3    H222912   4.233   4.719   0.337  0.0437  0.9884 -1.5255
 7650TIP3   OH222913   6.636   1.016   3.336 -0.0485 -0.0494  0.5328
 7650TIP3    H122914   6.629   1.108   3.311 -0.8947 -0.1356  0.4182
 7650TIP3    H222915   6.684   0.975   3.264 -2.5572 -0.3233 -1.0991
 7651TIP3   OH222916   6.091   1.381   2.578  0.3446  0.2021 -0.6711
 7651TIP3    H122917   6.088   1.423   2.492  0.9356  0.2350 -0.6845
 7651TIP3    H222918   6.185   1.368   2.594  0.2628  0.5752  0.1538
 7652TIP3   OH222919   3.412   1.579   2.624  0.5815  0.0217  0.5984
 7652TIP3    H122920   3.474   1.516   2.588  0.2577 -0.6048  1.1085
 7652TIP3    H222921   3.436   1.663   2.585  1.1889 -0.3742  0.1199
 7653TIP3   OH222922   6.412   6.075   1.849  0.0996  0.2452 -0.1289
 7653TIP3    H122923   6.347   6.036   1.791 -0.0581  0.4774 -0.1074
 7653TIP3    H222924   6.376   6.160   1.872 -0.2031 -0.1516  0.9210
 7654TIP3   OH222925   2.567   0.199   0.242 -0.4494 -0.2755 -0.1274
 7654TIP3    H122926   2.504   0.236   0.181  0.4573  0.5194 -0.6162
 7654TIP3    H222927   2.514   0.148   0.303 -1.5916  0.6129 -0.3321
 7655TIP3   OH222928   3.325   4.790   2.030  0.0228 -0.5977 -0.0879
 7655TIP3    H122929   3.327   4.885   2.038  0.0043 -0.5038 -1.0902
 7655TIP3    H222930   3.365   4.758   2.112 -1.6842  0.2093  1.1250
 7656TIP3   OH222931   4.785   2.343   0.743 -0.1471  0.0524  0.3091
 7656TIP3    H122932   4.800   2.423   0.692  1.3551 -0.3502  0.0642
 7656TIP3    H222933   4.740   2.372   0.822  1.6573  1.3785  0.9042
 7657TIP3   OH222934   3.166   6.098   5.293  0.0659 -0.1115  0.3311
 7657TIP3    H122935   3.073   6.091   5.315 -0.2132  0.7728 -0.5068
 7657TIP3    H222936   3.198   6.171   5.346 -0.6427  2.1276 -2.0598
 7658TIP3   OH222937   5.283   4.424   0.626 -0.6741  0.2778 -0.4081
 7658TIP3    H122938   5.377   4.434   0.609 -0.6923  0.1184 -0.6015
 7658TIP3    H222939   5.247   4.511   0.609 -0.6851  0.1319 -1.1481
 7659TIP3   OH222940   2.980   3.199   4.094  0.3000  0.2689 -0.3935
 7659TIP3    H122941   3.022   3.281   4.067  1.6757 -1.0848 -2.7149
 7659TIP3    H222942   2.911   3.186   4.029 -0.3042 -0.1403  0.3215
 7660TIP3   OH222943   0.701   0.447   3.310  0.0163  0.1193  0.2240
 7660TIP3    H122944   0.611   0.414   3.318  0.2228 -0.3816  0.4869
 7660TIP3    H222945   0.690   0.536   3.278 -0.4824 -0.9095 -2.7445
 7661TIP3   OH222946   2.432   1.237   2.684  0.0968 -0.0861  0.2968
 7661TIP3    H122947   2.447   1.271   2.596  0.3050 -0.3866  0.2167
 7661TIP3    H222948   2.519   1.220   2.719 -0.0154 -2.7009 -0.5098
 7662TIP3   OH222949   2.156   6.652   0.586  0.2432 -0.3859 -0.5480
 7662TIP3    H122950   2.075   6.701   0.570  1.1209  1.5041  0.5072
 7662TIP3    H222951   2.147   6.619   0.675  0.5212 -0.3574 -0.5075
 7663TIP3   OH222952   2.395   5.671   0.201 -0.4125 -0.0008 -0.5429
 7663TIP3    H122953   2.434   5.659   0.114 -0.2690  0.5375 -0.5591
 7663TIP3    H222954   2.362   5.584   0.225 -1.1422  0.0098 -1.4612
 7664TIP3   OH222955   2.960   2.081   5.512  0.1951  0.0588  0.0456
 7664TIP3    H122956   2.891   2.027   5.473  0.3650  0.4324 -0.7852
 7664TIP3    H222957   3.040   2.031   5.495  0.1671 -0.2716  0.8248
 7665TIP3   OH222958   6.921   2.530   2.619  0.1137  0.4582 -0.5063
 7665TIP3    H122959   6.884   2.460   2.566  0.1518  0.4472 -0.5180
 7665TIP3    H222960   7.010   2.540   2.587  1.3983 -2.0007  1.9383
 7666TIP3   OH222961   6.104   1.738   1.979 -0.1889 -0.3175  0.0441
 7666TIP3    H122962   6.128   1.691   1.900  0.9269 -1.0184  0.7743
 7666TIP3    H222963   6.162   1.703   2.047 -1.1103  0.2673  1.1756
 7667TIP3   OH222964   2.263   0.613   2.813 -0.0140 -0.3409 -0.1574
 7667TIP3    H122965   2.323   0.600   2.739  0.9218 -1.5473  0.7702
 7667TIP3    H222966   2.300   0.687   2.861 -0.9072  0.7761 -1.1389
 7668TIP3   OH222967   4.276   1.027   5.707 -0.2123  0.6163  0.5447
 7668TIP3    H122968   4.193   0.994   5.743  0.3514 -0.7430  0.6391
 7668TIP3    H222969   4.254   1.053   5.617 -0.7037  0.1004  0.5071
 7669TIP3   OH222970   1.523   1.119   2.212 -0.6540  0.3891 -0.2425
 7669TIP3    H122971   1.570   1.191   2.168  1.1882 -1.3530 -1.2900
 7669TIP3    H222972   1.511   1.053   2.144 -2.5949 -0.2196  0.6217
 7670TIP3   OH222973   1.513   2.654   5.504  0.2481 -0.9745 -0.1863
 7670TIP3    H122974   1.499   2.715   5.577  3.3524  0.0054 -0.2527
 7670TIP3    H222975   1.502   2.567   5.543  0.3736 -0.4420  1.1068
 7671TIP3   OH222976   6.430   4.391   1.996  0.5211  0.0139 -0.1875
 7671TIP3    H122977   6.468   4.308   2.026  1.6819  0.1613 -1.1495
 7671TIP3    H222978   6.387   4.427   2.074 -0.2047 -1.5726  0.2005
 7672TIP3   OH222979   2.195   1.785   1.258 -0.0447  0.1963  0.0724
 7672TIP3    H122980   2.127   1.768   1.193  0.0657 -1.7875  0.3985
 7672TIP3    H222981   2.267   1.728   1.232 -0.0855 -0.8391  2.0006
 7673TIP3   OH222982   0.713   6.147   5.851 -0.4268  0.5807  0.2864
 7673TIP3    H122983   0.804   6.179   5.851 -0.1088 -0.3027  0.6074
 7673TIP3    H222984   0.662   6.222   5.881  0.1534  1.2067 -0.2555
 7674TIP3   OH222985   3.135  -0.009   1.215 -0.0955  0.1995 -0.4786
 7674TIP3    H122986   3.206  -0.002   1.278 -0.3422 -3.4107  0.3844
 7674TIP3    H222987   3.057   0.016   1.264 -0.0403 -0.7713  0.1224
 7675TIP3   OH222988   1.545   0.351   5.659  0.2676 -0.7164 -0.4678
 7675TIP3    H122989   1.517   0.310   5.577  0.0426  1.0938 -1.3512
 7675TIP3    H222990   1.625   0.303   5.684  0.4959 -1.1215 -1.8948
 7676TIP3   OH222991   3.416   0.361   2.566  0.0954  0.3052 -0.8373
 7676TIP3    H122992   3.445   0.448   2.595 -0.4609 -0.0519  0.9501
 7676TIP3    H222993   3.322   0.360   2.583  0.2847 -1.0309  0.3182
 7677TIP3   OH222994   3.399   6.772   5.244 -0.2698  1.1266 -0.5117
 7677TIP3    H122995   3.371   6.861   5.221 -1.9796  0.3004 -1.8064
 7677TIP3    H222996   3.323   6.717   5.226 -0.0900 -0.3351  2.5269
 7678TIP3   OH222997   4.709   4.275   1.667  0.0395 -0.1378 -0.1054
 7678TIP3    H122998   4.693   4.184   1.691 -0.5047  0.1029  0.4828
 7678TIP3    H222999   4.802   4.289   1.687 -0.5074  0.2156  2.5099
 7679TIP3   OH223000   1.424   1.321   2.411  0.1887  0.3992 -0.1641
 7679TIP3    H123001   1.354   1.378   2.441 -0.2013 -0.1562 -0.0188
 7679TIP3    H223002   1.381   1.255   2.357  0.5333 -0.2249  0.3139
 7680TIP3   OH223003   3.462   0.698   1.075  0.4741 -0.2568 -0.3550
 7680TIP3    H123004   3.378   0.715   1.033  0.3604  0.2939  0.0872
 7680TIP3    H223005   3.523   0.758   1.031 -0.0510  1.8596  1.6372
 7681TIP3   OH223006   6.839   1.613   4.897 -0.9689 -0.5614  0.0643
 7681TIP3    H123007   6.794   1.552   4.838 -2.0272  0.9909 -0.8249
 7681TIP3    H223008   6.773   1.637   4.962 -0.1824 -1.2909  1.1772
 7682TIP3   OH223009   3.645   4.763   1.180 -0.3272 -0.7105  0.3607
 7682TIP3    H123010   3.636   4.762   1.275 -0.2089 -1.4375  0.3665
 7682TIP3    H223011   3.574   4.820   1.149  1.6896  2.4417  1.0884
 7683TIP3   OH223012   5.409   3.687   5.753 -0.2706  0.3834 -0.1349
 7683TIP3    H123013   5.407   3.712   5.660 -0.3293  1.3445  0.1098
 7683TIP3    H223014   5.442   3.765   5.798 -2.1831  0.6578  0.8732
 7684TIP3   OH223015   3.383   4.645   5.424 -0.1926 -0.4690  0.1801
 7684TIP3    H123016   3.305   4.687   5.459  0.2589  0.4870  0.0767
 7684TIP3    H223017   3.389   4.676   5.334  1.7783  1.7183  0.9515
 7685TIP3   OH223018   6.295   2.194   3.709 -0.8100  0.2994 -0.1153
 7685TIP3    H123019   6.333   2.123   3.761  0.2161  0.1659 -1.0164
 7685TIP3    H223020   6.360   2.264   3.713 -1.0444  0.5502 -0.6274
 7686TIP3   OH223021   0.573   1.680   2.036 -0.0267 -0.3354  0.2324
 7686TIP3    H123022   0.532   1.705   1.954  0.1478 -1.6269 -0.2660
 7686TIP3    H223023   0.575   1.761   2.088  1.0485  0.8373 -1.5206
 7687TIP3   OH223024   5.624   4.598   2.783 -0.0845 -0.3841 -0.0833
 7687TIP3    H123025   5.622   4.622   2.875  1.5897 -0.9834  0.1361
 7687TIP3    H223026   5.582   4.672   2.738  0.7819  0.7917  0.9776
 7688TIP3   OH223027   4.215   0.524   4.424 -0.1366  0.4415  0.5910
 7688TIP3    H123028   4.151   0.464   4.464  1.2203 -0.5723  1.3473
 7688TIP3    H223029   4.275   0.467   4.376  0.7758  1.2480  0.7310
 7689TIP3   OH223030   0.358   3.505   0.958 -0.4371 -0.2829 -0.7319
 7689TIP3    H123031   0.380   3.598   0.963 -0.5337 -0.1763 -1.9626
 7689TIP3    H223032   0.418   3.469   0.893  0.9699 -1.5423  1.1314
 7690TIP3   OH223033   6.082   3.670   3.243  0.1768  0.1135  0.2713
 7690TIP3    H123034   6.124   3.656   3.158 -1.4187  0.1862 -0.5736
 7690TIP3    H223035   6.058   3.582   3.272  1.4107  0.0115  1.0502
 7691TIP3   OH223036   4.985   6.208   5.622 -0.4249  0.3064 -0.1546
 7691TIP3    H123037   5.026   6.295   5.618  0.4801 -0.1324 -0.7068
 7691TIP3    H223038   5.028   6.158   5.553 -0.3660 -0.8324  0.6838
 7692TIP3   OH223039   5.756   4.739   0.649 -0.5380 -0.3729 -0.0554
 7692TIP3    H123040   5.765   4.823   0.603  0.5794 -0.8406 -0.7433
 7692TIP3    H223041   5.795   4.675   0.589 -0.6699 -1.2676  0.7961
 7693TIP3   OH223042   5.694   1.511   0.737  0.3993  0.0658 -0.4223
 7693TIP3    H123043   5.654   1.570   0.801 -0.2863  0.7029 -1.3904
 7693TIP3    H223044   5.781   1.547   0.721  1.1823 -0.9784  1.2530
 7694TIP3   OH223045   5.754   3.400   5.864 -0.3171 -0.3550  0.0978
 7694TIP3    H123046   5.692   3.349   5.917 -0.5467 -1.1908 -0.9532
 7694TIP3    H223047   5.698   3.460   5.814 -0.1514 -0.0629  0.2572
 7695TIP3   OH223048   3.509   0.562   2.091  0.5028 -0.4159 -0.2813
 7695TIP3    H123049   3.454   0.513   2.029  0.5356 -1.0513  0.1722
 7695TIP3    H223050   3.446   0.605   2.149  0.4773 -0.6544 -0.1301
 7696TIP3   OH223051   1.484   4.186   2.418 -0.2374  0.0236 -0.1321
 7696TIP3    H123052   1.403   4.146   2.386 -0.9141 -0.7187  2.3116
 7696TIP3    H223053   1.456   4.261   2.470  0.2030 -2.2773  3.8203
 7697TIP3   OH223054   6.538   3.995   0.171  0.0414  0.5609  0.0401
 7697TIP3    H123055   6.600   4.042   0.115 -1.6692 -0.7383 -3.2558
 7697TIP3    H223056   6.499   3.930   0.112 -1.3041 -1.5826  3.0711
 7698TIP3   OH223057   0.705   6.404   2.888 -0.4338  0.0242 -0.3400
 7698TIP3    H123058   0.622   6.417   2.935 -0.0523  0.4356  0.2225
 7698TIP3    H223059   0.678   6.391   2.797 -1.0497  1.3659 -0.3726
 7699TIP3   OH223060   2.990   3.221   2.902 -0.0576 -0.1559  0.1377
 7699TIP3    H123061   2.899   3.249   2.913  0.1868  0.2669  1.2065
 7699TIP3    H223062   3.009   3.238   2.810 -1.2184 -0.7459 -0.2359
 7700TIP3   OH223063   3.149   2.971   1.698 -0.0825  0.0011 -0.3737
 7700TIP3    H123064   3.159   3.027   1.775  1.7103 -0.7671  0.0045
 7700TIP3    H223065   3.126   3.032   1.628  2.0170  1.3001 -0.0235
 7701TIP3   OH223066   6.958   3.062   0.318 -0.3488  0.1092  0.5095
 7701TIP3    H123067   6.990   3.068   0.407 -3.1313  1.2985  1.5364
 7701TIP3    H223068   6.905   3.141   0.305  1.1296  0.7691 -2.7544
 7702TIP3   OH223069   6.109   4.437   1.012 -0.1402  0.1937  0.2548
 7702TIP3    H123070   6.180   4.455   0.950  0.2454 -0.7210  0.4253
 7702TIP3    H223071   6.030   4.471   0.968 -0.0713 -1.5016 -1.2998
 7703TIP3   OH223072   4.140   0.300   3.626 -0.0599  0.3702  0.0214
 7703TIP3    H123073   4.131   0.288   3.532 -2.2369 -0.6762  0.2993
 7703TIP3    H223074   4.183   0.220   3.657  0.2967  0.5428 -0.0170
 7704TIP3   OH223075   4.171   0.935   3.101 -0.0430 -0.2091 -0.0151
 7704TIP3    H123076   4.255   0.896   3.126  0.8027  1.3382 -0.2870
 7704TIP3    H223077   4.165   0.921   3.006 -0.9323 -1.8056  0.2455
 7705TIP3   OH223078   5.565   4.845   2.962 -0.3821 -0.3086  0.2089
 7705TIP3    H123079   5.603   4.790   3.030 -0.9852 -0.3525  0.5151
 7705TIP3    H223080   5.598   4.933   2.982 -0.1529 -0.4027  0.2550
 7706TIP3   OH223081   1.481   2.381   5.646  0.1723 -0.5297 -0.2877
 7706TIP3    H123082   1.551   2.342   5.698 -1.4365 -1.6986  1.1041
 7706TIP3    H223083   1.444   2.309   5.596  0.6178  0.2807 -1.8474
 7707TIP3   OH223084   2.162   1.592   4.101 -0.2429 -0.0497 -0.0653
 7707TIP3    H123085   2.242   1.643   4.108 -0.3838  0.0850  0.6600
 7707TIP3    H223086   2.126   1.615   4.016  0.4206 -0.0132 -0.3382
 7708TIP3   OH223087   0.052   3.443   4.007  0.0035  0.2866 -0.2114
 7708TIP3    H123088   0.144   3.444   3.980  0.2457  0.6634  0.5932
 7708TIP3    H223089   0.032   3.350   4.019  0.5126  0.2444  0.3509
 7709TIP3   OH223090   5.242   0.254   4.888 -0.1119 -0.5836 -0.3352
 7709TIP3    H123091   5.292   0.336   4.890  1.2931 -1.2538 -2.9045
 7709TIP3    H223092   5.213   0.241   4.978  0.6802  2.0849  0.3892
 7710TIP3   OH223093   6.249   5.349   5.605  0.0264 -0.0233  0.1202
 7710TIP3    H123094   6.272   5.440   5.587  0.1349  0.0593  0.6686
 7710TIP3    H223095   6.316   5.298   5.559 -0.2246  0.1668 -0.4550
 7711TIP3   OH223096   6.831   3.365   0.911 -0.8133 -0.3055  0.5693
 7711TIP3    H123097   6.913   3.365   0.862  0.4234 -1.6152  2.4885
 7711TIP3    H223098   6.817   3.274   0.936 -1.1509  0.3035  2.9036
 7712TIP3   OH223099   5.694   4.326   0.421  0.0360  0.1947  0.0100
 7712TIP3    H123100   5.693   4.297   0.512  0.5558 -0.1258 -0.0785
 7712TIP3    H223101   5.656   4.253   0.372 -0.8226  0.6146  0.0275
 7713TIP3   OH223102   4.174   6.737   5.086 -0.2625  0.0350  0.4711
 7713TIP3    H123103   4.123   6.794   5.144 -0.9370  1.9320 -1.7953
 7713TIP3    H223104   4.122   6.657   5.079  0.1114 -0.4948  2.8128
 7714TIP3   OH223105   2.093   0.510   5.483  0.1019  0.5680  0.2395
 7714TIP3    H123106   2.020   0.463   5.523  0.8432  0.5243  1.5734
 7714TIP3    H223107   2.059   0.536   5.397 -0.7710 -1.2688 -0.0403
 7715TIP3   OH223108   5.572   2.216   0.362  0.6136 -0.1202 -0.4735
 7715TIP3    H123109   5.484   2.207   0.398  0.3338 -0.7460 -1.2773
 7715TIP3    H223110   5.566   2.176   0.275  1.8324 -0.6938 -0.3074
 7716TIP3   OH223111   2.817   3.182   1.554  0.7421  0.4081  0.3207
 7716TIP3    H123112   2.774   3.268   1.550 -0.8694 -0.3527  0.5079
 7716TIP3    H223113   2.911   3.202   1.550  0.4003  2.0080 -3.0826
 7717TIP3   OH223114   5.504   2.597   0.911 -0.1027 -0.1271  0.7008
 7717TIP3    H123115   5.582   2.593   0.856  0.0710 -1.3289  1.0113
 7717TIP3    H223116   5.513   2.680   0.958 -0.0495  0.7207 -0.7557
 7718TIP3   OH223117   5.771   1.139   0.398  0.4493  0.4249 -0.0105
 7718TIP3    H123118   5.706   1.183   0.343  0.5140 -0.9997 -1.3102
 7718TIP3    H223119   5.830   1.209   0.426 -0.0898  1.3437 -1.0595
 7719TIP3   OH223120   4.589   5.928   3.362  0.4772 -0.0189 -0.4963
 7719TIP3    H123121   4.649   5.913   3.288  0.5610 -0.3635 -0.3610
 7719TIP3    H223122   4.503   5.937   3.322  0.7238  1.2947 -0.7652
 7720TIP3   OH223123   7.073   0.413   4.823 -0.2831  0.2829  0.0448
 7720TIP3    H123124   7.026   0.402   4.740 -0.8637 -0.6550  0.4866
 7720TIP3    H223125   7.019   0.473   4.874  0.2171  1.0846 -0.3525
 7721TIP3   OH223126   5.152   6.519   0.990  0.1946  0.0122 -0.4664
 7721TIP3    H123127   5.090   6.446   0.997 -0.2242  0.1845 -2.1114
 7721TIP3    H223128   5.099   6.597   1.002  0.4423  0.1039  0.0761
 7722TIP3   OH223129   0.212   5.957   2.432 -0.2087  0.1695  0.2358
 7722TIP3    H123130   0.213   6.014   2.509 -1.1213  0.9381 -0.2929
 7722TIP3    H223131   0.181   6.014   2.361 -1.6314 -1.0801 -0.2086
 7723TIP3   OH223132   5.756   5.270   3.748 -0.5035  0.1334 -0.2379
 7723TIP3    H123133   5.820   5.215   3.702 -1.0477 -0.9422  0.2493
 7723TIP3    H223134   5.674   5.222   3.741 -0.3818 -0.7620  2.8709
 7724TIP3   OH223135   0.413   3.607   4.298 -0.2518  0.3877  0.5721
 7724TIP3    H123136   0.390   3.518   4.326 -1.2398  0.2566 -0.5351
 7724TIP3    H223137   0.427   3.655   4.379 -2.2997 -0.1344  1.3090
 7725TIP3   OH223138   3.206   1.578   5.657 -0.0342 -0.1125 -0.2119
 7725TIP3    H123139   3.178   1.498   5.612  1.0800 -0.6763  0.0430
 7725TIP3    H223140   3.237   1.635   5.587  0.0059 -0.2637 -0.3180
 7726TIP3   OH223141   2.389   2.319   1.671  0.3705  0.2481 -0.2615
 7726TIP3    H123142   2.352   2.337   1.585 -1.2044 -0.9066  0.1354
 7726TIP3    H223143   2.346   2.381   1.730 -0.7441 -0.8659  0.1429
 7727TIP3   OH223144   0.273   3.878   2.071 -0.4633  0.4905 -0.8561
 7727TIP3    H123145   0.240   3.968   2.070 -1.1209  0.3023  0.8069
 7727TIP3    H223146   0.367   3.888   2.089 -0.5649  0.8489 -0.5038
 7728TIP3   OH223147   5.948   0.391   4.913  0.4543 -0.0928 -0.1175
 7728TIP3    H123148   6.005   0.436   4.851  1.9286 -0.9143  0.5729
 7728TIP3    H223149   5.861   0.393   4.873  0.8886  1.5029 -1.0527
 7729TIP3   OH223150   3.504   3.564   1.354 -0.2758  0.0527  0.2488
 7729TIP3    H123151   3.448   3.536   1.426  1.2408 -1.8521  0.7948
 7729TIP3    H223152   3.593   3.555   1.388  0.4795 -0.6369 -1.7276
 7730TIP3   OH223153   6.400   0.741   4.125  0.4700  0.1305 -0.1532
 7730TIP3    H123154   6.384   0.684   4.049 -1.3663  1.4589 -0.8487
 7730TIP3    H223155   6.443   0.818   4.088 -1.8688  1.5045 -0.2219
 7731TIP3   OH223156   0.783   1.197   0.893  0.5055 -0.2274 -0.3191
 7731TIP3    H123157   0.716   1.189   0.824 -0.1326  1.1365  0.1061
 7731TIP3    H223158   0.822   1.283   0.878  1.6037 -0.6656 -0.0424
 7732TIP3   OH223159   5.139   5.344   0.907  0.1529 -0.1068 -0.1197
 7732TIP3    H123160   5.230   5.317   0.914  0.9873  2.3568 -0.4529
 7732TIP3    H223161   5.099   5.318   0.990  1.1995 -0.9919  0.1198
 7733TIP3   OH223162   1.898   0.684   4.187  0.4169  0.5180  0.4161
 7733TIP3    H123163   1.981   0.684   4.234  0.7240 -2.1162  0.0102
 7733TIP3    H223164   1.852   0.607   4.221 -0.0544 -0.4948 -2.3157
 7734TIP3   OH223165   5.529   0.888   1.099  0.5570 -0.3935 -0.4002
 7734TIP3    H123166   5.460   0.822   1.103 -0.2075  0.2935 -1.6073
 7734TIP3    H223167   5.530   0.917   1.008  1.8010  0.2964 -0.1970
 7735TIP3   OH223168   1.527   4.279   1.451 -0.5878 -0.0834 -0.2845
 7735TIP3    H123169   1.568   4.253   1.534  0.0034 -0.3841 -0.6632
 7735TIP3    H223170   1.433   4.277   1.470 -0.4582 -0.0671  0.4014
 7736TIP3   OH223171   1.881   1.917   2.388 -0.5311 -0.7935  0.2777
 7736TIP3    H123172   1.785   1.923   2.380 -0.6373 -0.7270  1.4470
 7736TIP3    H223173   1.895   1.845   2.450  0.1551 -0.3139  0.6823
 7737TIP3   OH223174   5.948   3.956   0.096 -0.2351 -0.1028  0.3061
 7737TIP3    H123175   5.969   3.887   0.159  0.1799 -0.4303 -0.1775
 7737TIP3    H223176   5.944   4.036   0.148  0.7108 -0.2741  0.6671
 7738TIP3   OH223177   0.611   2.819   1.243 -0.6299  0.3927  0.1360
 7738TIP3    H123178   0.661   2.772   1.310 -0.8697 -1.5468 -0.9724
 7738TIP3    H223179   0.653   2.905   1.238  2.2972 -0.9225 -0.2953
 7739TIP3   OH223180   5.634   1.757   0.110  0.2667  0.0812 -0.0734
 7739TIP3    H123181   5.667   1.678   0.066 -1.7909  0.0947 -1.7943
 7739TIP3    H223182   5.596   1.725   0.192  0.6823 -0.5188 -0.1064
 7740TIP3   OH223183   6.825   1.227   0.406  0.3060  0.3747  0.6832
 7740TIP3    H123184   6.745   1.175   0.408  0.4567  0.1532  0.9104
 7740TIP3    H223185   6.887   1.174   0.355  0.0640  0.8934 -0.1663
 7741TIP3   OH223186   6.613   0.300   5.625 -0.2920  0.4554  0.0950
 7741TIP3    H123187   6.706   0.293   5.649 -0.9012 -2.0049  2.2040
 7741TIP3    H223188   6.613   0.304   5.530  1.9516 -1.5967 -0.1031
 7742TIP3   OH223189   4.432   2.776   4.032  0.0027  0.1769 -0.2074
 7742TIP3    H123190   4.419   2.788   4.125 -0.1871 -0.9422 -0.0688
 7742TIP3    H223191   4.368   2.833   3.990 -0.1621  0.4021  0.3574
 7743TIP3   OH223192   6.815   4.870   0.639 -0.2818 -0.9316  0.2952
 7743TIP3    H123193   6.770   4.939   0.689  0.1416 -1.5565  1.5909
 7743TIP3    H223194   6.899   4.909   0.615 -1.2202  0.0462 -1.6563
 7744TIP3   OH223195   6.222   5.656   0.523 -0.7448 -0.6071  0.2566
 7744TIP3    H123196   6.203   5.607   0.603  2.5401 -1.7253  0.4945
 7744TIP3    H223197   6.202   5.747   0.546 -2.7967 -1.2493  1.2573
 7745TIP3   OH223198   2.971   0.408   4.395 -0.4833  0.0747 -0.0127
 7745TIP3    H123199   2.897   0.443   4.345 -0.5188  0.7796  0.5142
 7745TIP3    H223200   2.955   0.437   4.485  0.1362 -0.2533  0.2118
 7746TIP3   OH223201   3.880   5.988   4.680  0.2673  0.6547  0.7366
 7746TIP3    H123202   3.834   6.016   4.601  0.9692  0.0866  0.1178
 7746TIP3    H223203   3.921   5.905   4.656  2.7234  1.7550  0.8278
 7747TIP3   OH223204   0.446   5.029   5.031  0.4144  0.1416  0.3430
 7747TIP3    H123205   0.444   5.120   5.000 -0.5578 -0.2225 -0.7120
 7747TIP3    H223206   0.395   5.030   5.111 -0.2436  0.4019 -0.0667
 7748TIP3   OH223207   1.917   6.544   0.344  0.1575 -0.1978 -0.0665
 7748TIP3    H123208   1.895   6.623   0.394 -1.8654 -0.8549  0.1560
 7748TIP3    H223209   1.940   6.480   0.411  0.4682 -0.2147 -0.1841
 7749TIP3   OH223210   2.010   5.817   5.775  0.0706  0.0909  0.4043
 7749TIP3    H123211   1.996   5.806   5.681  0.1171  0.6942  0.3222
 7749TIP3    H223212   2.105   5.826   5.784  0.0424  0.3163  0.4776
 7750TIP3   OH223213   5.403   6.191   5.290 -0.3507  0.4071  0.1136
 7750TIP3    H123214   5.351   6.215   5.214 -1.5560  0.0642  0.8080
 7750TIP3    H223215   5.339   6.164   5.356  0.6919  0.1955  1.0754
 7751TIP3   OH223216   0.976   5.298   2.027 -0.7192 -0.0983 -0.2080
 7751TIP3    H123217   0.937   5.379   2.057  1.8468  1.7254 -1.4293
 7751TIP3    H223218   1.026   5.265   2.101  0.0439  0.6786 -0.3668
 7752TIP3   OH223219   2.718   0.003   5.455  0.1905  0.2317  0.5391
 7752TIP3    H123220   2.782   0.069   5.482  0.1528  0.1168  0.9278
 7752TIP3    H223221   2.743  -0.021   5.366 -0.4994  1.6267 -0.0626
 7753TIP3   OH223222   3.753   3.331   3.462 -0.7578 -0.0081  0.7083
 7753TIP3    H123223   3.829   3.388   3.449  0.7737 -1.3396  2.9973
 7753TIP3    H223224   3.758   3.268   3.391  0.2282  0.0108  0.7443
 7754TIP3   OH223225   6.893   4.405   0.801 -0.4200  0.2790  0.0353
 7754TIP3    H123226   6.811   4.363   0.828 -0.0077 -0.8797 -0.4272
 7754TIP3    H223227   6.889   4.406   0.706  0.4404 -0.5415 -0.0298
 7755TIP3   OH223228   4.949   2.383   3.377  0.2016 -0.4122  0.2245
 7755TIP3    H123229   5.017   2.446   3.354 -1.6229  1.3587 -0.6205
 7755TIP3    H223230   4.905   2.422   3.453 -2.7375  0.9147 -1.9743
 7756TIP3   OH223231   5.303   1.487   3.596  0.4938 -0.2164 -0.6257
 7756TIP3    H123232   5.222   1.536   3.608  0.8293 -0.0460  1.3496
 7756TIP3    H223233   5.362   1.550   3.554  1.2817  1.6996  2.8512
 7757TIP3   OH223234   0.595   4.050   1.515  0.0494  0.0542 -0.3205
 7757TIP3    H123235   0.643   4.031   1.595  0.9210  0.4940 -0.7326
 7757TIP3    H223236   0.617   3.979   1.455  1.9172  1.3399 -1.2473
 7758TIP3   OH223237   1.175   1.904   0.656  0.0275 -0.4841 -0.0003
 7758TIP3    H123238   1.132   1.830   0.699  0.8576 -1.8684 -1.4454
 7758TIP3    H223239   1.268   1.890   0.673  0.2599 -0.3059 -1.0622
 7759TIP3   OH223240   5.166   0.802   3.792  0.1504  0.0407  0.2101
 7759TIP3    H123241   5.188   0.789   3.700  3.4501 -3.1063  1.1991
 7759TIP3    H223242   5.219   0.877   3.819  0.1282  0.1961 -0.1713
 7760TIP3   OH223243   4.750   0.122   3.092 -0.3503 -0.1656  0.2775
 7760TIP3    H123244   4.797   0.187   3.145  2.0524 -1.0669 -0.5848
 7760TIP3    H223245   4.712   0.062   3.156  0.9666 -0.2214  1.0485
 7761TIP3   OH223246   6.240   3.187   0.364 -0.2850 -0.1271  0.3759
 7761TIP3    H123247   6.289   3.256   0.410  0.3083 -0.6619  0.5674
 7761TIP3    H223248   6.277   3.106   0.398 -1.0357 -0.5451  0.2128
 7762TIP3   OH223249   6.273   6.155   0.655 -0.0996 -0.0277 -0.0471
 7762TIP3    H123250   6.297   6.188   0.569  2.0684 -1.9576 -0.3091
 7762TIP3    H223251   6.333   6.199   0.715 -3.0384  3.0008  0.9471
 7763TIP3   OH223252   6.842   2.814   3.898  0.4233  0.2838 -0.1325
 7763TIP3    H123253   6.771   2.863   3.940 -1.1052 -1.3056 -0.7501
 7763TIP3    H223254   6.848   2.733   3.947  2.3131  0.6589  0.3207
 7764TIP3   OH223255   0.996   4.571   2.255 -0.2509  0.1879  0.0650
 7764TIP3    H123256   0.975   4.634   2.323  0.6105  0.1395  0.3811
 7764TIP3    H223257   1.065   4.612   2.204 -0.8934  0.2315 -0.8068
 7765TIP3   OH223258   5.741   4.694   3.715  0.3411  0.0770  0.3474
 7765TIP3    H123259   5.786   4.778   3.723  0.6345  0.2012 -2.0555
 7765TIP3    H223260   5.812   4.629   3.711  0.1655 -0.1243  0.4556
 7766TIP3   OH223261   2.071   4.981   1.731 -0.1930 -0.3139  0.3104
 7766TIP3    H123262   1.984   4.941   1.726 -0.2742 -0.0644 -0.4258
 7766TIP3    H223263   2.107   4.972   1.642  1.0162 -1.4675  0.8819
 7767TIP3   OH223264   5.376   1.183   0.840  0.2918  0.1464 -0.1257
 7767TIP3    H123265   5.411   1.098   0.812 -2.1081 -0.8778 -0.2459
 7767TIP3    H223266   5.358   1.172   0.934 -0.4969  0.3461 -0.2483
 7768TIP3   OH223267   6.775   6.422   1.085  0.2974  0.1603  0.4952
 7768TIP3    H123268   6.682   6.446   1.087  0.4214  0.8543 -0.6464
 7768TIP3    H223269   6.796   6.398   1.175 -0.8521  0.5240  0.8803
 7769TIP3   OH223270   5.712   4.329   4.288 -0.3478 -0.2232  0.0389
 7769TIP3    H123271   5.689   4.410   4.242 -3.4437 -1.9307 -1.7475
 7769TIP3    H223272   5.784   4.292   4.238  1.4129  1.5376  1.1354
 7770TIP3   OH223273   5.180   1.946   0.093  0.3320  0.1251 -0.4900
 7770TIP3    H123274   5.192   1.901   0.010  1.5886  0.6692 -0.6327
 7770TIP3    H223275   5.236   1.898   0.155 -0.9464 -0.5618  0.1780
 7771TIP3   OH223276   6.366   3.798   3.176  0.6085 -0.0131 -0.2434
 7771TIP3    H123277   6.310   3.757   3.242  2.3558  1.0733  2.0528
 7771TIP3    H223278   6.310   3.865   3.136  0.0532  0.6188  1.5307
 7772TIP3   OH223279   5.994   4.853   3.696 -0.4963  0.0616  0.4751
 7772TIP3    H123280   6.049   4.793   3.644 -0.6878 -0.4862  0.9015
 7772TIP3    H223281   6.018   4.835   3.787 -0.4983  0.6976  0.6060
 7773TIP3   OH223282   1.772   6.731   0.812  0.6665 -0.4059 -0.0931
 7773TIP3    H123283   1.685   6.770   0.817  0.3901 -0.7853 -1.6588
 7773TIP3    H223284   1.761   6.643   0.848  1.1394  0.5897  2.7548
 7774TIP3   OH223285   3.574   1.841   1.856  0.2793  0.4040  0.3097
 7774TIP3    H123286   3.527   1.903   1.911  0.0779  1.8825 -1.4246
 7774TIP3    H223287   3.667   1.863   1.870  0.2898  0.0204  0.8787
 7775TIP3   OH223288   5.818   6.748   5.590  0.3765 -0.0884  0.3853
 7775TIP3    H123289   5.735   6.700   5.595  0.8744 -1.2112 -1.4059
 7775TIP3    H223290   5.829   6.784   5.678 -2.4830  0.9693  0.4314
 7776TIP3   OH223291   7.114   4.920   1.320  0.2742  0.3591  0.0249
 7776TIP3    H123292   7.123   4.987   1.252 -1.5652 -0.0194 -0.6488
 7776TIP3    H223293   7.126   4.967   1.402  1.1712  1.0813 -0.4948
 7777TIP3   OH223294   2.778   6.636   4.384 -0.0977 -0.0671 -0.1063
 7777TIP3    H123295   2.845   6.604   4.444 -0.2911  1.1251  0.7765
 7777TIP3    H223296   2.732   6.557   4.355  0.7037 -0.7562  0.4519
 7778TIP3   OH223297   5.534   6.233   3.806 -0.4491  0.1431  0.3436
 7778TIP3    H123298   5.469   6.297   3.777 -1.2631 -0.2152  1.2795
 7778TIP3    H223299   5.617   6.281   3.805 -0.6924  0.5800 -0.9846
 7779TIP3   OH223300   5.011   1.786   2.346 -0.2749 -0.0185  0.9180
 7779TIP3    H123301   5.085   1.827   2.392 -0.9837  1.4722  0.8059
 7779TIP3    H223302   5.030   1.798   2.253  0.6806 -2.1589  0.7961
 7780TIP3   OH223303   3.890   3.612   3.961 -0.2717 -0.5919 -0.2238
 7780TIP3    H123304   3.898   3.561   4.042 -1.7210  1.5706  1.3721
 7780TIP3    H223305   3.818   3.570   3.913  0.2691 -1.5854 -0.2046
 7781TIP3   OH223306   2.950   4.272   3.971 -0.5556  0.3380 -0.0422
 7781TIP3    H123307   2.935   4.331   4.045 -0.0496  0.0406  0.3090
 7781TIP3    H223308   3.037   4.234   3.988 -1.1103 -0.9534  0.0654
 7782TIP3   OH223309   4.646   6.060   4.270  0.0142 -0.5138  0.1189
 7782TIP3    H123310   4.636   6.037   4.177 -0.4498  2.3729 -0.6231
 7782TIP3    H223311   4.599   5.990   4.316 -0.8981 -1.3121 -1.8789
 7783TIP3   OH223312   6.318   1.300   1.671  0.3994  0.0812 -0.3863
 7783TIP3    H123313   6.324   1.223   1.727 -0.9471 -0.6430 -1.1692
 7783TIP3    H223314   6.368   1.277   1.593  1.2570  0.6124 -0.0072
 7784TIP3   OH223315   5.246   0.911   2.951  0.0969  0.5437 -0.2135
 7784TIP3    H123316   5.181   0.845   2.927  0.3702  0.9770 -2.3286
 7784TIP3    H223317   5.309   0.863   3.006 -0.5196 -0.5635 -0.4370
 7785TIP3   OH223318   1.359   0.696   0.036 -0.6568 -0.7070  0.4102
 7785TIP3    H123319   1.384   0.645   0.112 -0.8859 -0.9525  0.3194
 7785TIP3    H223320   1.284   0.651  -0.001 -0.3813 -0.7461 -0.1222
 7786TIP3   OH223321   1.834   2.066   4.156  0.4296 -0.3465  0.3828
 7786TIP3    H123322   1.909   2.040   4.210  0.4189 -0.2770  0.4314
 7786TIP3    H223323   1.758   2.054   4.214  0.4037 -0.4166  0.3338
 7787TIP3   OH223324   5.159   4.579   3.214  0.0640  0.0848 -0.3675
 7787TIP3    H123325   5.093   4.581   3.283 -0.5084 -0.4068 -0.8998
 7787TIP3    H223326   5.195   4.668   3.213  1.2954 -0.3159  1.7083
 7788TIP3   OH223327   5.054   0.993   1.444 -0.1082 -0.2574 -0.0786
 7788TIP3    H123328   4.967   1.026   1.424 -0.4130 -0.2110  1.2570
 7788TIP3    H223329   5.096   0.984   1.358 -1.5711 -0.7108 -0.7844
 7789TIP3   OH223330   3.646   5.301   3.087 -0.0102  0.3378 -0.6353
 7789TIP3    H123331   3.634   5.383   3.039 -0.9794 -0.1775 -1.2994
 7789TIP3    H223332   3.724   5.317   3.141  0.0024  1.5814 -0.9763
 7790TIP3   OH223333   6.206   0.221   2.346  0.6598 -0.3843  0.1072
 7790TIP3    H123334   6.253   0.195   2.425  1.7177  1.9541  0.3302
 7790TIP3    H223335   6.117   0.241   2.377  0.8138 -0.3587  0.5392
 7791TIP3   OH223336   5.540   4.105   0.530  0.2557  0.3423 -0.0822
 7791TIP3    H123337   5.517   4.015   0.554  0.4368  0.4569  0.5541
 7791TIP3    H223338   5.551   4.104   0.435 -0.5062 -0.1348 -0.1686
 7792TIP3   OH223339   0.373   1.450   2.892  0.2995  0.4788  0.1220
 7792TIP3    H123340   0.441   1.488   2.836  0.0781  1.0901  0.2580
 7792TIP3    H223341   0.311   1.410   2.831 -1.1078  3.0374 -0.2654
 7793TIP3   OH223342   5.699   4.946   2.219  0.2221  0.7632 -0.1692
 7793TIP3    H123343   5.783   4.993   2.224  0.6912  0.1548 -1.4975
 7793TIP3    H223344   5.720   4.857   2.248  0.4032  0.2370 -1.7777
 7794TIP3   OH223345   4.550   4.477   2.751  0.0784  0.4095 -0.3486
 7794TIP3    H123346   4.511   4.511   2.832  2.2924  0.0584  0.9487
 7794TIP3    H223347   4.500   4.520   2.681 -0.6942  2.2071  1.1896
 7795TIP3   OH223348   1.246   3.451   3.985 -0.1194 -0.8338  0.4845
 7795TIP3    H123349   1.330   3.464   4.030  0.3024 -0.5120 -0.3885
 7795TIP3    H223350   1.264   3.473   3.894 -1.3047 -0.1689  0.3952
 7796TIP3   OH223351   7.012   1.812   4.917 -0.4031 -0.0281 -0.0598
 7796TIP3    H123352   7.093   1.762   4.929  0.3335  1.4185  1.3799
 7796TIP3    H223353   6.944   1.746   4.912  1.0093 -1.4114 -3.3299
 7797TIP3   OH223354   2.247   4.514   1.754  0.1280 -0.4296  0.2198
 7797TIP3    H123355   2.277   4.437   1.706 -0.6335 -0.5944 -0.0202
 7797TIP3    H223356   2.302   4.585   1.723 -1.4760 -0.1619 -2.2991
 7798TIP3   OH223357   5.219   1.974   5.605  0.4415 -0.1226 -0.3371
 7798TIP3    H123358   5.306   2.001   5.577  1.3096 -0.6664  1.6273
 7798TIP3    H223359   5.223   1.879   5.607 -0.1290 -0.1453 -0.0365
 7799TIP3   OH223360   7.032   4.171   2.348 -0.0514  0.4724 -0.1373
 7799TIP3    H123361   6.990   4.256   2.355  0.0670  0.5292 -0.1111
 7799TIP3    H223362   7.047   4.159   2.254 -3.6329 -1.2583 -0.6580
 7800TIP3   OH223363   2.934   1.188   2.741 -0.0845  0.5796  0.2435
 7800TIP3    H123364   3.014   1.233   2.768  0.2239  0.9085 -1.1377
 7800TIP3    H223365   2.952   1.160   2.652 -1.1598 -0.2142  0.2590
 7801TIP3   OH223366   2.016   5.433   1.762 -0.4759  0.5052  0.3366
 7801TIP3    H123367   1.996   5.366   1.827 -0.9703 -1.4613 -1.7047
 7801TIP3    H223368   2.100   5.405   1.725 -0.6629  1.0431 -0.5042
 7802TIP3   OH223369   6.423   0.772   5.416  0.3784 -0.0961  0.4658
 7802TIP3    H123370   6.391   0.733   5.335 -1.2548 -0.4219  1.2297
 7802TIP3    H223371   6.381   0.857   5.420  1.5114  0.4948  0.3372
 7803TIP3   OH223372   0.181   6.116   2.192  0.3419 -0.1695  0.1999
 7803TIP3    H123373   0.231   6.197   2.180 -0.7914  0.2209 -2.6342
 7803TIP3    H223374   0.239   6.047   2.162  0.2334 -0.0545 -0.2775
 7804TIP3   OH223375   4.402   6.245   3.566  0.2218  0.0147  0.4841
 7804TIP3    H123376   4.369   6.288   3.487 -1.1399 -0.3779  0.8079
 7804TIP3    H223377   4.326   6.241   3.624  0.6481 -1.6439  0.9702
 7805TIP3   OH223378   2.111   2.037   2.985  0.6104  0.2174 -0.1962
 7805TIP3    H123379   2.100   2.061   3.077 -0.5027  0.6960 -0.4388
 7805TIP3    H223380   2.050   1.965   2.972 -0.0505  0.8680 -0.8135
 7806TIP3   OH223381   6.772   3.169   0.613  0.2495  0.1619 -0.2554
 7806TIP3    H123382   6.745   3.193   0.525 -0.8080 -0.8900 -0.2452
 7806TIP3    H223383   6.851   3.117   0.601 -0.1736 -0.4007 -0.6224
 7807TIP3   OH223384   0.248   6.258   5.229 -0.0561  0.4987 -0.2021
 7807TIP3    H123385   0.214   6.340   5.263 -0.2377  0.8346 -1.1552
 7807TIP3    H223386   0.340   6.256   5.258 -0.1572  0.8451  0.1452
 7808TIP3   OH223387   3.881   4.408   1.773  0.8542  0.7194  0.0829
 7808TIP3    H123388   3.896   4.386   1.681 -0.5227  1.0410 -0.2445
 7808TIP3    H223389   3.894   4.325   1.820 -1.2330 -0.1536 -0.7594
 7809TIP3   OH223390   2.235   4.179   2.111  0.0818  0.1140  0.3778
 7809TIP3    H123391   2.248   4.217   2.024  0.4607 -2.7039 -0.8994
 7809TIP3    H223392   2.156   4.222   2.144 -0.4873  0.7612 -1.6493
 7810TIP3   OH223393   2.756   6.071   2.104  0.5730  0.0059 -0.3313
 7810TIP3    H123394   2.682   6.100   2.051  0.2030 -0.7722 -0.2594
 7810TIP3    H223395   2.761   6.136   2.175  0.3499  0.4075 -0.6772
 7811TIP3   OH223396   3.594   6.488   1.886  0.0366  0.1970  0.3665
 7811TIP3    H123397   3.665   6.550   1.869  0.2419 -0.2185 -0.3615
 7811TIP3    H223398   3.586   6.438   1.804 -1.3418  0.4788  0.2968
 7812TIP3   OH223399   6.813   5.242   3.010 -0.5977  0.1600  0.0013
 7812TIP3    H123400   6.799   5.306   3.080  0.9864 -0.3307  0.8118
 7812TIP3    H223401   6.782   5.286   2.931  1.0609  2.2312  0.4075
 7813TIP3   OH223402   7.093   6.212   4.381  0.0576  0.0075 -0.0447
 7813TIP3    H123403   7.155   6.173   4.319  0.2687  1.0069 -0.4749
 7813TIP3    H223404   7.015   6.157   4.375  0.6719 -0.8906  0.0411
 7814TIP3   OH223405   4.090   5.020   2.171  0.1922 -0.6751 -0.3481
 7814TIP3    H123406   4.024   5.042   2.237 -2.3110  0.2997 -2.9363
 7814TIP3    H223407   4.085   4.924   2.164 -0.1201 -0.7120  0.2701
 7815TIP3   OH223408   4.408   3.577   0.103  0.0529  0.3214  0.7513
 7815TIP3    H123409   4.347   3.629   0.051  0.2696  0.2875  0.4633
 7815TIP3    H223410   4.365   3.492   0.113  0.6773 -0.1898 -0.6767
 7816TIP3   OH223411   5.791   4.473   1.052  0.0087  0.3005 -0.5655
 7816TIP3    H123412   5.840   4.505   0.976  0.9538  0.2578  0.0083
 7816TIP3    H223413   5.746   4.395   1.020  0.5252  0.1912 -1.0491
 7817TIP3   OH223414   3.364   1.915   0.249  0.3546  0.2642 -0.1020
 7817TIP3    H123415   3.417   1.984   0.210  3.9818 -0.3723  3.1489
 7817TIP3    H223416   3.352   1.851   0.179  1.0967  1.9303 -1.8290
 7818TIP3   OH223417   5.346   4.920   1.794 -0.2447  0.0407 -0.3099
 7818TIP3    H123418   5.299   4.946   1.873  1.8881 -3.4384  2.4087
 7818TIP3    H223419   5.289   4.855   1.752  0.2585 -1.0722  0.6725
 7819TIP3   OH223420   1.591   2.100   0.122 -0.2271 -0.3165 -0.4608
 7819TIP3    H123421   1.580   2.057   0.037  0.0676  0.8319 -1.1156
 7819TIP3    H223422   1.652   2.045   0.170  0.2434 -0.5600 -1.3174
 7820TIP3   OH223423   4.111   3.223   0.580 -0.4445 -0.1552  0.3849
 7820TIP3    H123424   4.062   3.245   0.501 -0.6418  0.4779  0.6737
 7820TIP3    H223425   4.202   3.240   0.558 -0.5753  0.7819  0.5359
 7821TIP3   OH223426   6.245   5.499   5.125 -0.0438 -0.0356  0.3343
 7821TIP3    H123427   6.164   5.447   5.127 -0.6689  0.7110 -1.9674
 7821TIP3    H223428   6.225   5.576   5.179 -1.2034  0.5037 -0.7922
 7822TIP3   OH223429   6.427   2.294   0.152 -0.2253  0.2240 -0.8697
 7822TIP3    H123430   6.387   2.217   0.192 -0.1086  0.3873 -0.4281
 7822TIP3    H223431   6.387   2.300   0.065 -0.0162 -0.4999 -1.0263
 7823TIP3   OH223432   2.669   4.967   5.041 -0.1413  0.1856  0.0874
 7823TIP3    H123433   2.577   4.955   5.064 -0.3625  0.7020 -0.4836
 7823TIP3    H223434   2.697   4.882   5.007 -0.7335  0.3234 -0.7780
 7824TIP3   OH223435   2.438   5.202   2.005  0.6372 -0.0876  0.3201
 7824TIP3    H123436   2.493   5.272   1.970  0.8147  0.1196  1.0049
 7824TIP3    H223437   2.440   5.134   1.938  1.2616  0.1583  0.0837
 7825TIP3   OH223438   5.096   0.017   5.518 -0.1510  0.1855 -0.5342
 7825TIP3    H123439   5.033   0.087   5.531  1.0502  1.0170  1.1756
 7825TIP3    H223440   5.090  -0.037   5.597  1.2004  0.2621 -0.3409
 7826TIP3   OH223441   1.799   0.769   3.962  0.2575 -0.7935 -0.3368
 7826TIP3    H123442   1.797   0.691   3.907  1.4472 -1.2483  0.2405
 7826TIP3    H223443   1.837   0.740   4.044 -0.3072  0.1641  0.2863
 7827TIP3   OH223444   6.937   4.450   2.363  0.6097  0.6081  0.5537
 7827TIP3    H123445   6.852   4.493   2.357  0.0578 -0.6424 -1.6188
 7827TIP3    H223446   7.000   4.517   2.338  0.0556  0.9887  0.1544
 7828TIP3   OH223447   4.790   4.437   4.078 -0.7284 -0.3365  0.1983
 7828TIP3    H123448   4.793   4.501   4.149  0.4214  0.2307 -0.3354
 7828TIP3    H223449   4.697   4.415   4.070 -0.8405 -0.9074  2.2831
 7829TIP3   OH223450   2.237   4.274   0.074  0.5994 -0.1721  0.4515
 7829TIP3    H123451   2.143   4.274   0.093  0.2339  0.6405 -1.1958
 7829TIP3    H223452   2.278   4.304   0.156 -0.6529  0.4026  0.8887
 7830TIP3   OH223453   4.016   4.538   3.953 -0.0231  0.3594  0.5316
 7830TIP3    H123454   4.098   4.574   3.986 -0.9226  1.0103  2.1907
 7830TIP3    H223455   4.042   4.475   3.886  1.6948  2.9655 -1.4445
 7831TIP3   OH223456   1.519   1.191   0.784  0.0599  0.7885  0.0765
 7831TIP3    H123457   1.530   1.285   0.777 -0.2371  1.2022  3.4855
 7831TIP3    H223458   1.594   1.161   0.836  1.3368 -1.3119 -2.6662
 7832TIP3   OH223459   1.490   0.804   2.428  0.5327  0.3482 -0.3571
 7832TIP3    H123460   1.426   0.769   2.366  1.0521 -1.2974 -0.0098
 7832TIP3    H223461   1.450   0.790   2.514 -0.6526  3.5585 -0.2561
 7833TIP3   OH223462   0.936   1.635   0.993  0.3119 -0.0065 -0.2756
 7833TIP3    H123463   1.004   1.636   1.061 -0.8072  0.2488  0.8695
 7833TIP3    H223464   0.874   1.568   1.022 -1.5256  1.8580  0.3427
 7834TIP3   OH223465   5.866   4.835   2.888  0.5529  0.0069 -0.1358
 7834TIP3    H123466   5.839   4.901   2.951 -2.1891 -0.0222 -1.1452
 7834TIP3    H223467   5.923   4.776   2.937 -2.1661 -0.5490  2.6596
 7835TIP3   OH223468   3.096   4.763   3.861  0.0542  0.4379 -0.8570
 7835TIP3    H123469   3.152   4.828   3.818 -1.4975  1.6435 -1.1073
 7835TIP3    H223470   3.010   4.803   3.865 -0.5383 -0.8726  0.6847
 7836TIP3   OH223471   5.430   5.592   4.161 -0.2065 -0.3366 -0.6563
 7836TIP3    H123472   5.487   5.563   4.089 -0.4686  0.8624 -1.3779
 7836TIP3    H223473   5.488   5.637   4.222 -0.1335 -0.4894 -0.6139
 7837TIP3   OH223474   3.612   2.410   5.407  0.2291 -0.4577 -0.0230
 7837TIP3    H123475   3.562   2.412   5.489 -1.5224  1.1826 -1.0375
 7837TIP3    H223476   3.594   2.495   5.366  0.9315 -1.2716 -2.1587
 7838TIP3   OH223477   0.383   2.209   4.192  0.0896  0.4876  0.2977
 7838TIP3    H123478   0.461   2.215   4.247  0.8320  2.6501 -0.8903
 7838TIP3    H223479   0.417   2.211   4.102 -1.1489 -2.0558 -0.3030
 7839TIP3   OH223480   4.113   2.527   0.956 -0.0383  0.1485 -0.3788
 7839TIP3    H123481   4.070   2.569   0.881 -2.1607 -0.0368  0.6660
 7839TIP3    H223482   4.197   2.573   0.964 -1.4064  2.8730 -0.5110
 7840TIP3   OH223483   6.303   0.027   1.299 -0.1059  0.3313  0.1638
 7840TIP3    H123484   6.289   0.111   1.342 -2.2987  0.4274 -0.5880
 7840TIP3    H223485   6.394   0.029   1.269  0.6730  1.3207  2.4235
 7841TIP3   OH223486   0.594   5.124   0.017  0.0619 -0.4093  0.7802
 7841TIP3    H123487   0.641   5.076   0.086  0.8658 -0.5379  0.1593
 7841TIP3    H223488   0.599   5.215   0.045  1.5166 -0.3038  0.2729
 7842TIP3   OH223489   2.278   5.921   2.393 -0.4938  0.1490 -0.0614
 7842TIP3    H123490   2.283   5.897   2.486  1.6029 -2.1048 -0.6827
 7842TIP3    H223491   2.224   5.853   2.353 -1.4468  1.1471 -0.5633
 7843TIP3   OH223492   3.213   1.940   0.481 -0.1264 -0.2652 -0.1529
 7843TIP3    H123493   3.262   1.905   0.555  1.4155  0.8015 -0.6407
 7843TIP3    H223494   3.266   1.918   0.404 -0.8988  0.0682 -0.8027
 7844TIP3   OH223495   3.779   1.933   1.533  0.2435  0.6954 -0.3238
 7844TIP3    H123496   3.849   1.995   1.511 -0.7644  2.0399  0.1320
 7844TIP3    H223497   3.748   1.960   1.619 -0.0030 -0.6824  0.0483
 7845TIP3   OH223498   0.555   1.172   4.853  0.3009  0.6441  0.0298
 7845TIP3    H123499   0.545   1.187   4.947 -0.0915  0.9629 -0.0604
 7845TIP3    H223500   0.587   1.082   4.847 -0.7806  0.2141  0.4315
 7846TIP3   OH223501   4.672   6.019   5.604 -0.0024  0.2792  0.0633
 7846TIP3    H123502   4.587   6.061   5.604  0.0057  0.2982 -0.1401
 7846TIP3    H223503   4.653   5.926   5.592 -0.0112  0.2486  0.3311
 7847TIP3   OH223504   5.040   3.626   0.304  0.1273 -0.1212 -0.1028
 7847TIP3    H123505   4.963   3.605   0.357  0.7832 -1.3457  0.4028
 7847TIP3    H223506   5.085   3.542   0.293  0.8917  0.4104 -1.1958
 7848TIP3   OH223507   3.621   5.535   2.951  0.1128  0.3577 -0.7142
 7848TIP3    H123508   3.690   5.583   2.907 -0.9414  0.8162 -1.9470
 7848TIP3    H223509   3.541   5.558   2.904 -0.8152 -0.5711  0.3105
 7849TIP3   OH223510   4.130   6.175   1.860  0.1745 -0.2270 -0.1606
 7849TIP3    H123511   4.062   6.169   1.927  0.0762 -2.3516 -0.3717
 7849TIP3    H223512   4.180   6.254   1.883  0.2644 -0.9619  2.5318
 7850TIP3   OH223513   7.214   0.806   0.206 -0.7577 -0.2292 -0.0862
 7850TIP3    H123514   7.161   0.826   0.129  0.6639  2.4693 -0.4994
 7850TIP3    H223515   7.166   0.847   0.278 -0.2282  0.5131 -0.1508
 7851TIP3   OH223516   3.506   4.030   0.453  0.0340 -0.4922 -0.8381
 7851TIP3    H123517   3.586   4.081   0.469 -0.0878 -0.8965  1.3391
 7851TIP3    H223518   3.537   3.941   0.437  0.0336 -0.7478  0.4816
 7852TIP3   OH223519   5.965   4.196   0.280 -0.8222 -0.3558  0.4083
 7852TIP3    H123520   5.970   4.245   0.363 -1.5280  0.4095  0.0215
 7852TIP3    H223521   6.053   4.202   0.244 -0.7398  0.1138  0.6646
 7853TIP3   OH223522   3.862   5.243   0.975  0.5711  0.1392  0.6186
 7853TIP3    H123523   3.776   5.206   0.996  0.7905 -0.8235 -0.1142
 7853TIP3    H223524   3.843   5.328   0.935 -0.0502 -0.1183  0.3566
 7854TIP3   OH223525   2.528   5.814   0.530  0.8427  0.6544 -0.2316
 7854TIP3    H123526   2.620   5.829   0.548  1.2279 -0.5124 -1.0833
 7854TIP3    H223527   2.526   5.731   0.483 -0.8016 -0.1813  1.1926
 7855TIP3   OH223528   7.172   6.098   0.547 -0.1178 -0.2217 -0.3163
 7855TIP3    H123529   7.235   6.073   0.614  0.3171  0.1605 -0.5759
 7855TIP3    H223530   7.127   6.017   0.524 -0.2674 -0.3571  0.4247
 7856TIP3   OH223531   0.890   4.136   4.185 -0.2957  0.2771 -0.6573
 7856TIP3    H123532   0.968   4.179   4.218 -1.8719  1.9088  1.2330
 7856TIP3    H223533   0.906   4.042   4.199  1.4155  0.5456 -0.6581
 7857TIP3   OH223534   2.030   1.864   3.490 -0.2409  0.1448 -0.0312
 7857TIP3    H123535   2.006   1.894   3.578  1.1310 -1.6138  1.0260
 7857TIP3    H223536   2.037   1.769   3.499  0.7860  0.0156 -1.8316
 7858TIP3   OH223537   2.456   1.153   1.399 -0.1513  0.4527  0.1446
 7858TIP3    H123538   2.381   1.094   1.407  0.8608 -0.9486 -0.3799
 7858TIP3    H223539   2.526   1.110   1.448  0.5849  1.2811 -0.1504
 7859TIP3   OH223540   3.769   3.398   2.989 -0.0082 -0.2341  0.3627
 7859TIP3    H123541   3.744   3.468   2.928 -2.0808 -0.7225  0.5746
 7859TIP3    H223542   3.706   3.406   3.061  2.0035 -0.0464  2.2004
 7860TIP3   OH223543   2.827   1.161   1.178  0.1584 -0.2602  0.5125
 7860TIP3    H123544   2.805   1.071   1.203  0.4644 -0.6081 -0.4481
 7860TIP3    H223545   2.923   1.165   1.184  0.1077  0.2201  1.2297
 7861TIP3   OH223546   5.577   2.933   4.476 -0.1380  0.3806  0.1958
 7861TIP3    H123547   5.586   2.881   4.396 -0.6294  0.1731  0.2718
 7861TIP3    H223548   5.512   2.886   4.528  0.3405  0.3963  0.8187
 7862TIP3   OH223549   3.521   4.494   3.200  0.0017  0.4953 -0.2007
 7862TIP3    H123550   3.535   4.409   3.159  0.1825  0.6323 -0.4233
 7862TIP3    H223551   3.512   4.474   3.293 -1.0359  0.1110 -0.3650
 7863TIP3   OH223552   0.740   0.576   1.924 -0.1929  0.2829  0.4459
 7863TIP3    H123553   0.767   0.660   1.960 -0.8730  0.4411  0.6015
 7863TIP3    H223554   0.781   0.573   1.837  0.2109  0.5654  0.6207
 7864TIP3   OH223555   1.172   2.160   5.168 -0.8113  0.8551  0.7781
 7864TIP3    H123556   1.219   2.242   5.182  1.3323 -0.3733  1.2223
 7864TIP3    H223557   1.196   2.134   5.079  0.2429 -0.2779  1.3593
 7865TIP3   OH223558   7.150   4.509   4.926 -0.0701 -0.0738 -0.3459
 7865TIP3    H123559   7.133   4.603   4.926 -0.5241 -0.1471  0.3988
 7865TIP3    H223560   7.108   4.477   4.846  0.8283  0.4740 -1.0520
 7866TIP3   OH223561   2.233   3.350   2.944 -0.7087 -0.0946 -0.2430
 7866TIP3    H123562   2.170   3.405   2.990  0.2274  0.4918  0.3750
 7866TIP3    H223563   2.195   3.263   2.946 -1.9459  0.4134 -0.7269
 7867TIP3   OH223564   6.371   4.083   5.219  0.2593 -0.1550  0.1148
 7867TIP3    H123565   6.306   4.083   5.289  0.8803 -0.8320  0.7125
 7867TIP3    H223566   6.320   4.078   5.139 -0.4832  1.1537  0.4830
 7868TIP3   OH223567   2.545   5.314   0.816  0.3395  0.1501  0.3097
 7868TIP3    H123568   2.493   5.379   0.864 -0.4049 -0.8040  0.8323
 7868TIP3    H223569   2.635   5.346   0.823 -0.1181  1.7048 -0.4069
 7869TIP3   OH223570   2.614   4.514   0.406  0.5090 -0.0444 -0.0361
 7869TIP3    H123571   2.664   4.586   0.367 -0.6385 -0.5363 -2.5987
 7869TIP3    H223572   2.665   4.435   0.384  0.4581 -0.2408  0.5365
 7870TIP3   OH223573   4.269   0.039   3.487 -0.3906 -0.5968  0.6263
 7870TIP3    H123574   4.274  -0.008   3.404 -0.9438  0.3905  0.0067
 7870TIP3    H223575   4.232  -0.025   3.549 -0.7112 -1.1111 -0.0835
 7871TIP3   OH223576   4.947   4.050   0.620  0.3018 -0.4772 -0.4863
 7871TIP3    H123577   4.992   4.128   0.586 -0.0249  0.2284  0.6285
 7871TIP3    H223578   4.970   4.049   0.713 -0.9436 -0.8397 -0.1707
 7872TIP3   OH223579   1.092   6.212   4.382 -0.2164  0.4608 -0.1988
 7872TIP3    H123580   1.124   6.299   4.357 -0.6338  0.4265 -0.9045
 7872TIP3    H223581   1.165   6.153   4.364 -0.1972  0.5649 -0.4682
 7873TIP3   OH223582   1.475   5.563   1.177 -0.1049 -0.6256 -0.2093
 7873TIP3    H123583   1.423   5.485   1.196 -1.1623  0.1154 -0.0099
 7873TIP3    H223584   1.444   5.594   1.092 -3.0188  2.1457  1.6442
 7874TIP3   OH223585   2.574   5.409   2.503  0.6086  0.0631 -0.1708
 7874TIP3    H123586   2.611   5.363   2.578  2.0248  0.0902 -0.8324
 7874TIP3    H223587   2.636   5.395   2.432 -0.2982  0.7201 -1.1320
 7875TIP3   OH223588   2.012   2.826   2.897 -0.6289 -0.5985  0.0265
 7875TIP3    H123589   1.927   2.814   2.939 -2.5432  1.6164 -2.7817
 7875TIP3    H223590   2.046   2.737   2.886 -2.2220 -1.5061  1.8769
 7876TIP3   OH223591   0.839   4.287   5.128  0.1865  0.0150 -0.4515
 7876TIP3    H123592   0.803   4.315   5.043 -0.5516  1.3668  0.2832
 7876TIP3    H223593   0.928   4.322   5.128 -0.0172  0.5433 -0.4233
 7877TIP3   OH223594   3.165   4.442   3.489 -0.1000  0.6231 -0.1380
 7877TIP3    H123595   3.097   4.503   3.462 -1.5333  0.1427  2.1674
 7877TIP3    H223596   3.181   4.462   3.581  1.4975 -0.5839 -0.0991
 7878TIP3   OH223597   6.970   2.124   5.215  0.2561  0.3718 -0.7686
 7878TIP3    H123598   6.916   2.187   5.263 -0.5993 -0.1418 -1.0443
 7878TIP3    H223599   6.922   2.109   5.133 -0.6792 -2.2699  0.1814
 7879TIP3   OH223600   4.924   3.254   3.834  0.6365  0.0341 -0.0285
 7879TIP3    H123601   4.866   3.321   3.871  1.0981  0.8665 -0.7771
 7879TIP3    H223602   4.888   3.171   3.866  0.1334  0.6345  1.0320
 7880TIP3   OH223603   4.998   1.541   4.111 -0.3882  0.7676 -0.0115
 7880TIP3    H123604   5.035   1.454   4.127 -0.0812  0.9474  0.2473
 7880TIP3    H223605   5.066   1.588   4.064 -0.6671  0.7757 -0.4075
 7881TIP3   OH223606   1.759   0.287   3.334  0.1714 -0.1866 -0.1249
 7881TIP3    H123607   1.810   0.259   3.258 -1.3829 -2.2138 -0.4810
 7881TIP3    H223608   1.702   0.356   3.300  0.5370 -0.0240 -0.4215
 7882TIP3   OH223609   0.147   6.502   5.179 -0.0818 -0.1367  0.4216
 7882TIP3    H123610   0.070   6.558   5.189 -1.1192 -1.2379 -0.8895
 7882TIP3    H223611   0.136   6.462   5.092  2.0700 -0.2020  0.1120
 7883TIP3   OH223612   0.292   2.432   2.271 -0.7895  0.6545  0.5721
 7883TIP3    H123613   0.372   2.421   2.322  0.9398 -2.1407 -2.3537
 7883TIP3    H223614   0.308   2.509   2.216  0.2712 -0.3023 -0.5038
 7884TIP3   OH223615   5.184   6.635   3.131  0.8817  0.2530 -0.3315
 7884TIP3    H123616   5.148   6.711   3.086  1.2768  0.9197  0.4495
 7884TIP3    H223617   5.166   6.651   3.224 -1.5347 -1.9507 -0.3137
 7885TIP3   OH223618   1.239   6.724   5.234 -0.0202  0.2596  0.1088
 7885TIP3    H123619   1.271   6.636   5.211 -0.0854 -0.0286  1.0815
 7885TIP3    H223620   1.158   6.734   5.185 -0.4701 -0.5800  0.6688
 7886TIP3   OH223621   6.907   3.406   5.732 -0.2750 -0.0562  0.1726
 7886TIP3    H123622   6.981   3.354   5.761 -0.0015 -0.0133 -0.4253
 7886TIP3    H223623   6.946   3.479   5.685 -0.5476  1.7963  2.6301
 7887TIP3   OH223624   2.926   4.084   3.759 -0.2904  0.5768  0.4855
 7887TIP3    H123625   2.962   4.133   3.832  2.2803 -1.2946  0.6462
 7887TIP3    H223626   2.879   4.011   3.799 -0.3733  0.5028  0.2574
 7888TIP3   OH223627   3.086   0.805   4.441 -0.6849  0.4962  0.3705
 7888TIP3    H123628   3.006   0.820   4.491 -1.6007 -2.0401 -0.1503
 7888TIP3    H223629   3.055   0.792   4.351  0.6829  2.5521 -0.4542
 7889TIP3   OH223630   5.470   0.213   3.564  0.4468  0.2086 -0.1289
 7889TIP3    H123631   5.563   0.190   3.561  0.3381 -0.1350 -1.1449
 7889TIP3    H223632   5.469   0.307   3.585  1.0663  0.4264 -0.9877
 7890TIP3   OH223633   0.587   6.437   2.641 -0.4631  0.0393 -0.4239
 7890TIP3    H123634   0.495   6.425   2.618 -1.1597  0.3039  1.9086
 7890TIP3    H223635   0.635   6.387   2.575 -2.0487  2.0294 -3.3202
 7891TIP3   OH223636   6.354   2.255   4.865 -0.2619  0.1305  0.6982
 7891TIP3    H123637   6.377   2.311   4.940 -0.0972  0.1849  0.6073
 7891TIP3    H223638   6.387   2.303   4.789  0.1345 -0.2247  0.6400
 7892TIP3   OH223639   7.173   0.589   1.050  0.3078  0.0069 -0.3405
 7892TIP3    H123640   7.090   0.604   1.097  0.4841  1.3343 -0.3965
 7892TIP3    H223641   7.235   0.649   1.092  1.2117 -0.8799 -0.3906
 7893TIP3   OH223642   4.182   5.237   0.558  0.1139 -0.8399  0.1858
 7893TIP3    H123643   4.179   5.246   0.653  0.6994 -0.4867  0.1812
 7893TIP3    H223644   4.100   5.194   0.534 -0.0404 -0.9174  0.8482
 7894TIP3   OH223645   4.356   4.259   2.661 -0.2988 -0.1664  0.2389
 7894TIP3    H123646   4.433   4.316   2.669  0.4169 -0.7070 -2.0442
 7894TIP3    H223647   4.288   4.316   2.624 -0.4992 -0.1005  0.6998
 7895TIP3   OH223648   3.534   0.591   2.695  0.1506 -0.0957 -0.3037
 7895TIP3    H123649   3.565   0.528   2.759  1.8043 -0.6139 -1.5666
 7895TIP3    H223650   3.534   0.675   2.742  0.8524 -0.5416  0.5102
 7896TIP3   OH223651   5.779   4.980   2.655 -0.1983 -0.3157  0.4306
 7896TIP3    H123652   5.792   4.946   2.743  0.4056 -1.1637  0.0221
 7896TIP3    H223653   5.727   4.913   2.610  1.6490 -1.1182 -0.6092
 7897TIP3   OH223654   3.404   1.863   3.411 -0.0017 -0.2393 -0.1623
 7897TIP3    H123655   3.481   1.887   3.359  1.5019 -3.3130  0.4263
 7897TIP3    H223656   3.404   1.926   3.484  2.2476 -0.4295  0.0690
 7898TIP3   OH223657   1.056   6.625   3.930  0.3105  0.0989  0.2605
 7898TIP3    H123658   1.063   6.647   3.837  1.2910 -0.1427  0.2689
 7898TIP3    H223659   1.067   6.530   3.933  2.2331  0.3000  0.7837
 7899TIP3   OH223660   2.033   4.389   2.694 -0.4937 -0.0762  0.3389
 7899TIP3    H123661   2.082   4.362   2.616 -1.3873 -0.9593  0.0578
 7899TIP3    H223662   2.033   4.484   2.691  2.2757  0.0255  1.0388
 7900TIP3   OH223663   1.630   4.261   4.646  0.8677  0.6075 -0.0800
 7900TIP3    H123664   1.563   4.320   4.611  2.0973  1.6209 -0.7981
 7900TIP3    H223665   1.641   4.194   4.578  0.3554  0.2280  0.1975
 7901TIP3   OH223666   6.969   3.391   1.291 -0.6799  0.5011  0.1515
 7901TIP3    H123667   6.874   3.382   1.302 -0.6173  0.0303  0.3616
 7901TIP3    H223668   7.006   3.322   1.347 -0.2540  0.0519 -0.6527
 7902TIP3   OH223669   3.682   3.939   5.043  0.6335  0.1804 -0.3329
 7902TIP3    H123670   3.761   3.920   5.093  0.4513  2.0645  0.7769
 7902TIP3    H223671   3.657   4.027   5.071 -1.0119  0.2228 -1.7826
 7903TIP3   OH223672   6.296   3.219   2.726 -0.1249 -0.2300  0.3195
 7903TIP3    H123673   6.221   3.161   2.713  0.1001 -0.4799  0.1328
 7903TIP3    H223674   6.322   3.203   2.817 -1.5598  1.3580  1.0716
 7904TIP3   OH223675   4.008   4.357   1.517  0.5786 -0.9421  0.2335
 7904TIP3    H123676   3.970   4.415   1.452  1.9924 -0.8551 -0.5498
 7904TIP3    H223677   4.102   4.370   1.510  0.8292 -1.7551  1.5320
 7905TIP3   OH223678   5.174   0.433   0.067 -0.2465 -0.3112  0.0342
 7905TIP3    H123679   5.133   0.473  -0.010  0.0169 -1.6820 -0.8439
 7905TIP3    H223680   5.158   0.339   0.057 -0.9000 -0.4662  2.0796
 7906TIP3   OH223681   5.675   6.557   5.345 -0.4071 -0.2534 -0.2594
 7906TIP3    H123682   5.654   6.465   5.363  2.1981 -0.5547  1.8466
 7906TIP3    H223683   5.762   6.569   5.382 -0.6608  3.0896 -0.4852
 7907TIP3   OH223684   0.653   5.801   3.830 -0.2324 -0.4028 -0.6800
 7907TIP3    H123685   0.720   5.788   3.762 -0.6596  1.6657 -1.5817
 7907TIP3    H223686   0.701   5.836   3.905 -0.0400 -0.8287 -0.5999
 7908TIP3   OH223687   3.058   5.530   4.431  0.2153 -0.2065 -0.5819
 7908TIP3    H123688   3.000   5.592   4.477 -1.1428 -0.7897 -1.4522
 7908TIP3    H223689   3.045   5.447   4.477 -0.0074 -0.4449 -1.0682
 7909TIP3   OH223690   0.453   2.038   4.549 -0.6696  0.0916  0.5174
 7909TIP3    H123691   0.475   1.948   4.573 -1.6587 -0.8151 -1.7345
 7909TIP3    H223692   0.537   2.078   4.526 -0.4659 -1.0646 -0.9066
 7910TIP3   OH223693   6.764   5.058   0.832 -0.3712  0.4746 -0.3383
 7910TIP3    H123694   6.748   5.024   0.920 -0.1985  1.2534  0.0086
 7910TIP3    H223695   6.763   5.153   0.843 -1.2256  0.6031 -1.3378
 7911TIP3   OH223696   4.567   4.438   3.250  0.0436  0.7689 -0.1187
 7911TIP3    H123697   4.590   4.516   3.300 -0.8563  0.1226  1.3695
 7911TIP3    H223698   4.471   4.442   3.243 -0.0981 -0.6304  0.7495
 7912TIP3   OH223699   4.541   3.625   2.214  0.0393  0.1263 -0.5603
 7912TIP3    H123700   4.475   3.645   2.281  0.6149 -0.5008  0.2163
 7912TIP3    H223701   4.579   3.710   2.193  2.3947  0.0581  2.6342
 7913TIP3   OH223702   5.765   4.950   4.742 -0.0252 -0.1491  0.1807
 7913TIP3    H123703   5.757   4.929   4.835  3.0376 -1.5690  0.2667
 7913TIP3    H223704   5.746   5.044   4.737 -0.4595 -0.0792  2.1974
 7914TIP3   OH223705   0.234   0.712   5.174 -0.8449  0.6347 -0.5735
 7914TIP3    H123706   0.145   0.704   5.209 -0.5288  0.1974  0.1400
 7914TIP3    H223707   0.236   0.801   5.138 -0.7059  1.7260  1.9442
 7915TIP3   OH223708   4.912   0.026   4.054 -0.6186  0.4972 -0.1624
 7915TIP3    H123709   4.886  -0.055   4.009 -1.4008  0.9259 -0.5139
 7915TIP3    H223710   4.844   0.038   4.121 -1.1014  1.4056 -0.8012
 7916TIP3   OH223711   0.902   2.086   3.971 -0.1600 -0.4372 -0.1507
 7916TIP3    H123712   0.904   2.162   4.029  0.2697 -1.4367  1.2007
 7916TIP3    H223713   0.850   2.021   4.019 -2.1389 -0.4062 -2.0917
 7917TIP3   OH223714   0.940   3.699   0.589 -0.4402  0.0008  0.1566
 7917TIP3    H123715   0.988   3.639   0.533  0.5704  1.0742 -0.1625
 7917TIP3    H223716   0.971   3.786   0.564 -0.2074  0.5365  2.1402
 7918TIP3   OH223717   6.638   0.088   0.354 -0.0817 -0.3310  0.6697
 7918TIP3    H123718   6.706   0.054   0.296 -2.0401  1.0186 -2.6918
 7918TIP3    H223719   6.590   0.010   0.382  0.9774 -1.0297  0.6121
 7919TIP3   OH223720   3.145   1.833   4.654 -0.1407  0.3945 -0.2051
 7919TIP3    H123721   3.192   1.869   4.729 -1.1002 -0.0564  0.6325
 7919TIP3    H223722   3.076   1.780   4.692 -0.9769  0.5789 -1.4065
 7920TIP3   OH223723   7.108   2.911   4.903 -0.1298  0.4294 -0.3795
 7920TIP3    H123724   7.118   2.817   4.895 -1.5513  0.2921 -0.7844
 7920TIP3    H223725   7.125   2.945   4.816  0.2654  0.5399 -0.2610
 7921TIP3   OH223726   2.799   5.805   1.184  0.0814 -0.7433 -0.0790
 7921TIP3    H123727   2.864   5.875   1.179  0.9375 -1.5586 -0.6511
 7921TIP3    H223728   2.769   5.794   1.094 -2.0077  0.6523  0.3772
 7922TIP3   OH223729   6.679   4.184   0.045  0.0523 -0.1247  0.6161
 7922TIP3    H123730   6.724   4.267   0.059  0.8158  0.0419 -2.1473
 7922TIP3    H223731   6.748   4.117   0.049  0.0053 -0.2430 -0.3515
 7923TIP3   OH223732   1.410   2.341   3.634 -0.1453 -0.0977 -0.3220
 7923TIP3    H123733   1.330   2.326   3.685  0.0822 -0.3686 -0.0393
 7923TIP3    H223734   1.414   2.436   3.624 -0.4459 -0.0725 -0.2452
 7924TIP3   OH223735   6.775   4.109   4.054  0.5202 -0.5119 -0.4201
 7924TIP3    H123736   6.803   4.024   4.089  0.3207 -0.5016 -0.2286
 7924TIP3    H223737   6.680   4.111   4.069  0.9130  1.1371  2.7391
 7925TIP3   OH223738   2.478   4.758   0.822  0.0632 -0.2444 -0.3448
 7925TIP3    H123739   2.424   4.695   0.775  0.2124 -0.5141 -0.1558
 7925TIP3    H223740   2.561   4.758   0.776  0.0064 -0.0523 -0.4514
 7926TIP3   OH223741   7.071   4.375   4.694 -0.0908 -0.0165 -0.4773
 7926TIP3    H123742   7.027   4.423   4.624 -0.0464 -2.3177 -2.1782
 7926TIP3    H223743   7.157   4.353   4.658 -0.7307 -2.7918 -0.4771
 7927TIP3   OH223744   3.543   0.347   0.305 -0.0899 -0.1510  0.3116
 7927TIP3    H123745   3.625   0.392   0.284  1.1948 -1.0257  2.9719
 7927TIP3    H223746   3.570   0.259   0.332 -1.7281 -0.1255  2.3582
 7928TIP3   OH223747   1.560   2.688   5.139 -0.2562  0.3776 -0.3577
 7928TIP3    H123748   1.478   2.644   5.159 -0.4167  1.5000  1.7615
 7928TIP3    H223749   1.536   2.757   5.077 -0.6549 -0.1989 -0.8459
 7929TIP3   OH223750   4.633   0.754   4.125 -0.4922  0.2891  0.2821
 7929TIP3    H123751   4.634   0.754   4.029  1.4102 -0.9084  0.2392
 7929TIP3    H223752   4.686   0.829   4.150  1.1960 -0.8413  0.2904
 7930TIP3   OH223753   5.478   0.209   1.937 -0.3425 -0.3083 -0.2971
 7930TIP3    H123754   5.478   0.150   2.011 -0.5716 -2.0576 -1.6207
 7930TIP3    H223755   5.440   0.290   1.970  0.5046 -0.6917  1.7126
 7931TIP3   OH223756   6.130   4.433   5.421 -0.1469 -0.3499  0.4444
 7931TIP3    H123757   6.042   4.410   5.392 -0.2620  1.2015 -0.5423
 7931TIP3    H223758   6.162   4.494   5.355  1.3714 -0.2683  1.2137
 7932TIP3   OH223759   6.622   5.656   2.417  0.7654  0.1727 -0.1330
 7932TIP3    H123760   6.610   5.709   2.338  0.3402  0.8587  0.3724
 7932TIP3    H223761   6.539   5.665   2.464  1.8800  1.9515  1.6513
 7933TIP3   OH223762   3.280   0.251   2.326 -0.6591  0.2135 -0.6701
 7933TIP3    H123763   3.320   0.324   2.278  2.7536 -1.5469 -0.8518
 7933TIP3    H223764   3.326   0.250   2.410 -1.2978 -1.1665 -0.3117
 7934TIP3   OH223765   2.444   2.747   5.823  0.5849 -0.3329 -0.3311
 7934TIP3    H123766   2.485   2.831   5.805  1.5579 -0.8502 -0.6062
 7934TIP3    H223767   2.516   2.691   5.853 -0.2890 -0.6678  1.2786
 7935TIP3   OH223768   3.938   3.128   4.601 -0.2553 -0.2960 -0.0807
 7935TIP3    H123769   3.943   3.097   4.511 -2.5255  0.7560 -0.6265
 7935TIP3    H223770   3.879   3.067   4.645 -0.5054  0.1686  0.2400
 7936TIP3   OH223771   0.114   3.203   2.888 -0.7887  0.4455 -0.0395
 7936TIP3    H123772   0.210   3.197   2.885 -0.7535  1.3210 -1.1337
 7936TIP3    H223773   0.084   3.112   2.878 -0.0887  0.2126 -0.0723
 7937TIP3   OH223774   2.554   1.820   2.869 -0.2620 -0.2217 -0.2123
 7937TIP3    H123775   2.627   1.782   2.821  0.4294  0.0583  0.5984
 7937TIP3    H223776   2.531   1.754   2.934 -0.9725 -0.4589 -0.6922
 7938TIP3   OH223777   0.284   1.681   3.259 -0.1001 -0.0681  0.1526
 7938TIP3    H123778   0.310   1.598   3.218  0.6013 -0.5530  1.5281
 7938TIP3    H223779   0.202   1.661   3.304 -0.5468  0.3025 -0.4824
 7939TIP3   OH223780   2.554   0.174   1.287 -0.3051 -0.1530 -0.1475
 7939TIP3    H123781   2.585   0.196   1.199  0.5897 -0.4032  0.0976
 7939TIP3    H223782   2.608   0.100   1.313  0.5403  0.8959  1.2174
 7940TIP3   OH223783   5.093   2.575   3.867 -0.3716  0.2987 -0.2641
 7940TIP3    H123784   5.149   2.610   3.937 -1.4035 -1.1659  1.3842
 7940TIP3    H223785   5.103   2.637   3.795  1.1858  1.5760  0.9728
 7941TIP3   OH223786   4.046   5.759   4.653  0.1027  0.2219  0.3734
 7941TIP3    H123787   4.008   5.671   4.656  2.5900 -0.9335  0.8375
 7941TIP3    H223788   4.067   5.772   4.560  0.2681  0.0691  0.3882
 7942TIP3   OH223789   1.818   6.706   1.823 -0.2561 -0.2039 -0.0624
 7942TIP3    H123790   1.807   6.652   1.745  0.4752 -1.8962  0.9439
 7942TIP3    H223791   1.739   6.761   1.826 -1.0524 -1.2468 -1.1147
 7943TIP3   OH223792   6.638   6.189   4.456  0.0491  0.3811 -0.0283
 7943TIP3    H123793   6.635   6.230   4.542 -0.6007 -0.0823  0.1806
 7943TIP3    H223794   6.700   6.241   4.406 -1.4092  2.1723 -0.0525
 7944TIP3   OH223795   0.781   6.301   2.518 -0.7718  0.0956  0.4586
 7944TIP3    H123796   0.872   6.320   2.544 -0.9008 -0.6474  1.5425
 7944TIP3    H223797   0.788   6.221   2.466 -0.8324 -0.1426  0.8133
 7945TIP3   OH223798   5.803   0.019   0.792 -0.1212  0.0712  0.0996
 7945TIP3    H123799   5.838   0.094   0.743 -0.2475  0.4518  0.5844
 7945TIP3    H223800   5.866  -0.051   0.777  1.2883  0.9575  1.5877
 7946TIP3   OH223801   3.653   3.022   0.513 -0.3487  0.0484  0.1339
 7946TIP3    H123802   3.735   2.984   0.481 -0.5374  0.2484 -0.5934
 7946TIP3    H223803   3.679   3.104   0.555 -0.1203 -0.1315  0.3490
 7947TIP3   OH223804   0.115   3.011   1.236 -0.0192  0.3427  0.0774
 7947TIP3    H123805   0.187   3.065   1.203  0.0360 -0.2654 -0.8212
 7947TIP3    H223806   0.114   3.028   1.330  0.8232  0.9216 -0.0053
 7948TIP3   OH223807   1.704   3.502   5.302 -0.1325 -0.7330 -0.0329
 7948TIP3    H123808   1.716   3.449   5.380  1.2162  3.6381  3.0728
 7948TIP3    H223809   1.662   3.582   5.333  0.4686  1.2742 -3.8078
 7949TIP3   OH223810   6.480   4.978   2.343 -0.7746 -0.0748 -0.5121
 7949TIP3    H123811   6.561   4.971   2.394 -0.9199 -1.8825 -0.4789
 7949TIP3    H223812   6.418   5.019   2.404 -0.2690  0.0537 -0.0731
 7950TIP3   OH223813   4.441   3.837   0.340 -0.0948 -0.0300 -0.1377
 7950TIP3    H123814   4.463   3.923   0.378  1.8240 -1.2143  1.6418
 7950TIP3    H223815   4.493   3.832   0.260 -0.2644  0.4671 -0.2861
 7951TIP3   OH223816   4.515   6.730   5.289  0.2655 -0.5543 -0.4045
 7951TIP3    H123817   4.557   6.810   5.256  0.8651 -0.7462 -0.1162
 7951TIP3    H223818   4.498   6.678   5.211  1.3130 -0.8310 -0.4581
 7952TIP3   OH223819   2.899  -0.026   1.534  0.7999 -0.3192  0.5762
 7952TIP3    H123820   2.978   0.015   1.570  0.3801  1.6939 -0.6575
 7952TIP3    H223821   2.879   0.024   1.455  0.7986 -3.5855 -1.6915
 7953TIP3   OH223822   5.924   2.780   3.198  0.0794  0.3044  0.1392
 7953TIP3    H123823   5.945   2.870   3.224 -0.2194  0.3305  0.3037
 7953TIP3    H223824   5.831   2.784   3.174  0.0393  0.0212  0.2425
 7954TIP3   OH223825   0.337   0.069   5.675  0.3813 -0.2589 -0.1551
 7954TIP3    H123826   0.359  -0.020   5.647 -0.9634 -0.7627  0.3310
 7954TIP3    H223827   0.326   0.117   5.593 -0.2131 -0.8879 -0.4565
 7955TIP3   OH223828   5.964   6.625   3.293  0.1910 -0.4115  0.1202
 7955TIP3    H123829   5.996   6.709   3.259  0.6506 -0.5417  0.2213
 7955TIP3    H223830   5.869   6.633   3.291  0.1507  1.2136  2.7290
 7956TIP3   OH223831   2.648   0.312   2.771 -0.5438  0.0616  0.3728
 7956TIP3    H123832   2.723   0.345   2.722 -0.0301 -0.0710  1.0417
 7956TIP3    H223833   2.576   0.311   2.709 -0.2497  1.2121  0.0016
 7957TIP3   OH223834   4.254   6.456   1.433 -0.3406  0.2491  0.0492
 7957TIP3    H123835   4.233   6.375   1.387 -0.8473 -0.5854  1.7017
 7957TIP3    H223836   4.171   6.503   1.438 -1.0332 -1.0548  2.6969
 7958TIP3   OH223837   4.061   1.197   0.379 -0.0875  0.0268 -0.0539
 7958TIP3    H123838   4.035   1.201   0.471  0.8391  1.1721  0.1806
 7958TIP3    H223839   3.979   1.207   0.330 -0.4052  1.1031  0.6611
 7959TIP3   OH223840   3.000   3.103   0.117  0.4026 -0.2608 -0.2821
 7959TIP3    H123841   3.006   3.131   0.026  2.3643 -0.1448 -0.1605
 7959TIP3    H223842   2.932   3.035   0.116 -1.4957  1.5302 -1.3090
 7960TIP3   OH223843   3.526   0.067   0.192 -0.2447 -0.6084  0.7009
 7960TIP3    H123844   3.451   0.056   0.132 -0.6406  3.2562  0.2200
 7960TIP3    H223845   3.599   0.088   0.135  0.0221  0.4256  1.3997
 7961TIP3   OH223846   2.643   1.052   2.727 -0.9779 -0.3704  0.0607
 7961TIP3    H123847   2.627   1.015   2.814  1.1892  0.5444  0.9063
 7961TIP3    H223848   2.731   1.090   2.732 -1.3393  0.9471 -2.1043
 7962TIP3   OH223849   0.966   0.826   3.220 -0.4922 -0.2221  0.0793
 7962TIP3    H123850   0.932   0.852   3.134 -0.2636 -2.0312 -0.6096
 7962TIP3    H223851   1.042   0.771   3.199  0.2597  0.2372  1.4885
 7963TIP3   OH223852   6.141   4.479   4.181 -0.1648  0.5264 -0.1134
 7963TIP3    H123853   6.055   4.506   4.210  0.0519 -0.1963  1.2626
 7963TIP3    H223854   6.202   4.528   4.236  0.3682  1.6704 -1.6232
 7964TIP3   OH223855   3.378   4.855   1.101 -0.6985 -0.2156  0.3648
 7964TIP3    H123856   3.343   4.837   1.188  1.3254  0.6319  1.4218
 7964TIP3    H223857   3.336   4.937   1.074 -1.8533 -0.8410  0.2080
 7965TIP3   OH223858   2.060   0.152   2.812 -0.3824  0.0337 -0.1394
 7965TIP3    H123859   2.024   0.229   2.856 -2.0988 -0.3951 -0.7613
 7965TIP3    H223860   2.131   0.187   2.758  0.3147  0.8597  1.2295
 7966TIP3   OH223861   3.697   1.170   2.589 -0.3168  0.6310 -0.0565
 7966TIP3    H123862   3.645   1.093   2.614  0.4499  0.6188  1.6699
 7966TIP3    H223863   3.786   1.148   2.617  0.0171  1.9266 -0.0552
 7967TIP3   OH223864   4.297   1.058   4.873  0.0984  0.0977 -0.0199
 7967TIP3    H123865   4.250   1.130   4.915  0.7154 -0.1368  1.1369
 7967TIP3    H223866   4.281   0.983   4.930 -1.5656 -1.0438 -1.8594
 7968TIP3   OH223867   3.829   1.831   3.177 -0.3615 -0.0258 -0.4256
 7968TIP3    H123868   3.736   1.809   3.170  0.2207 -2.3447 -1.9474
 7968TIP3    H223869   3.837   1.874   3.262 -2.6699 -0.6181  0.1664
 7969TIP3   OH223870   3.084   0.063   5.254  0.6405  0.3992 -0.3044
 7969TIP3    H123871   3.025   0.008   5.306  1.2949  0.5313  0.6022
 7969TIP3    H223872   3.027   0.131   5.217 -0.5170 -1.7178 -2.7904
 7970TIP3   OH223873   2.403   0.891   4.290  0.2389 -0.1333  0.3883
 7970TIP3    H123874   2.486   0.861   4.327  0.6621  1.5779  0.9272
 7970TIP3    H223875   2.342   0.892   4.363 -0.3923 -1.7087 -0.0736
 7971TIP3   OH223876   2.637   2.312   0.067  0.3792  0.0977 -0.1730
 7971TIP3    H123877   2.704   2.294   0.134  0.6158 -0.6451 -0.5954
 7971TIP3    H223878   2.660   2.255  -0.006 -1.6469 -1.3951  0.2751
 7972TIP3   OH223879   2.713   2.758   2.797 -0.0147 -0.0018 -0.2741
 7972TIP3    H123880   2.789   2.738   2.742  0.0962 -1.6792  0.4350
 7972TIP3    H223881   2.703   2.682   2.854 -1.1612  0.9497  0.8784
 7973TIP3   OH223882   0.991   3.858   5.730  0.1753 -0.6242 -0.0892
 7973TIP3    H123883   1.069   3.883   5.682  1.6472 -0.6636  2.1573
 7973TIP3    H223884   1.020   3.790   5.790 -1.0311  0.8529  2.3322
 7974TIP3   OH223885   0.760   2.756   4.201 -0.4312  0.1889  0.6240
 7974TIP3    H123886   0.799   2.765   4.114 -0.6507 -2.5076  0.1518
 7974TIP3    H223887   0.826   2.792   4.261  0.3875  0.6955 -0.5474
 7975TIP3   OH223888   0.063   4.950   3.879 -0.1621  0.0177  0.3272
 7975TIP3    H123889   0.073   4.993   3.964  0.5582 -0.4200  0.4797
 7975TIP3    H223890  -0.027   4.966   3.854 -0.2481  0.5607  0.9549
 7976TIP3   OH223891   2.261   2.771   4.581 -0.2315 -0.0327 -0.0208
 7976TIP3    H123892   2.198   2.704   4.554  1.2466 -0.9391 -1.4056
 7976TIP3    H223893   2.286   2.814   4.500  1.0002  0.2347  0.4824
 7977TIP3   OH223894   2.994   2.945   4.808 -0.2819  0.2046 -0.0850
 7977TIP3    H123895   2.981   2.869   4.864 -2.1414  1.6061  1.5175
 7977TIP3    H223896   3.086   2.942   4.783 -0.0379 -1.8654  0.9424
 7978TIP3   OH223897   6.726   3.821   5.608 -0.0561 -0.5629 -0.5659
 7978TIP3    H123898   6.781   3.759   5.657  1.0231 -1.3936 -2.6820
 7978TIP3    H223899   6.740   3.905   5.651 -0.7121 -1.5686  1.7231
 7979TIP3   OH223900   2.684   2.657   5.634  0.3746  0.0746 -0.1293
 7979TIP3    H123901   2.735   2.708   5.697  2.0958  0.3361 -1.6401
 7979TIP3    H223902   2.619   2.719   5.601 -0.1286  0.1170  0.9014
 7980TIP3   OH223903   7.072   5.701   5.740 -0.7385 -0.5817 -0.0079
 7980TIP3    H123904   7.100   5.699   5.831 -1.5583 -0.8110  0.2474
 7980TIP3    H223905   7.153   5.700   5.690 -0.2964 -1.4313  0.7054
 7981TIP3   OH223906   3.835   3.759   4.584  0.1388 -0.5805 -0.5855
 7981TIP3    H123907   3.825   3.851   4.608  0.1197 -0.3713 -1.3680
 7981TIP3    H223908   3.836   3.712   4.668  0.5459  0.1643 -0.1648
 7982TIP3   OH223909   2.028   4.935   4.745  0.0602 -0.3913 -0.0224
 7982TIP3    H123910   2.084   5.012   4.755  0.7650 -0.9130  0.0836
 7982TIP3    H223911   2.088   4.861   4.747 -0.7486 -1.0596  1.6097
 7983TIP3   OH223912   7.098   2.901   1.761  0.2143 -0.1918 -0.8743
 7983TIP3    H123913   7.154   2.933   1.832  0.0988  1.2518 -1.3832
 7983TIP3    H223914   7.026   2.857   1.805  0.2557  0.4890 -0.1025
 7984TIP3   OH223915   4.872   3.669   2.061  0.2402  0.4283 -0.0575
 7984TIP3    H123916   4.918   3.690   1.980  0.0554  0.3667 -0.1797
 7984TIP3    H223917   4.868   3.573   2.062 -0.9747  0.4442 -0.6737
 7985TIP3   OH223918   5.864   1.593   5.893 -0.0130 -0.2469  0.4351
 7985TIP3    H123919   5.893   1.508   5.859  0.1566  0.1227 -0.3714
 7985TIP3    H223920   5.816   1.632   5.820 -0.1744  0.3124  0.8361
 7986TIP3   OH223921   5.657   5.302   5.853  0.8096  0.7458  0.5349
 7986TIP3    H123922   5.569   5.271   5.872  0.4863  0.6761 -0.9015
 7986TIP3    H223923   5.646   5.395   5.833  0.6194  0.2533 -2.0009
 7987TIP3   OH223924   6.476   3.045   4.557 -0.1143  0.7532 -0.2247
 7987TIP3    H123925   6.565   3.012   4.572  0.0213  0.4628 -1.5121
 7987TIP3    H223926   6.428   3.021   4.636 -0.1116 -2.8469 -1.1140
 7988TIP3   OH223927   1.385   1.955   2.135  0.3555 -0.4680 -0.4651
 7988TIP3    H123928   1.321   2.007   2.086  0.5344  0.1566 -0.0469
 7988TIP3    H223929   1.336   1.879   2.166  0.0065 -0.3774 -0.7896
 7989TIP3   OH223930   3.657   6.013   1.427  0.0422  0.3183  0.6565
 7989TIP3    H123931   3.632   6.100   1.458 -0.2107  0.3007  0.5023
 7989TIP3    H223932   3.575   5.973   1.398  0.2355  0.2453  0.1912
 7990TIP3   OH223933   3.980   1.716   2.069  0.1634  0.4160  0.2408
 7990TIP3    H123934   3.997   1.801   2.029  0.8738  0.0966 -0.1638
 7990TIP3    H223935   3.891   1.723   2.104  0.2595  1.3662  0.3354
 7991TIP3   OH223936   3.064   1.743   1.203  0.1399 -0.4617 -0.2629
 7991TIP3    H123937   3.045   1.825   1.249  0.7021 -0.4183 -0.1080
 7991TIP3    H223938   3.158   1.731   1.212 -0.0015 -1.3680  0.1098
 7992TIP3   OH223939   3.924   0.846   4.563 -0.1685  0.0781 -0.1723
 7992TIP3    H123940   3.990   0.824   4.498 -0.1230 -0.2524 -0.0146
 7992TIP3    H223941   3.935   0.940   4.577 -0.4505  0.2311 -0.9411
 7993TIP3   OH223942   4.555   0.387   3.444  0.2525  0.3883  0.4227
 7993TIP3    H123943   4.536   0.382   3.351 -0.2870 -0.1430  0.5518
 7993TIP3    H223944   4.530   0.301   3.478  0.2943  0.6303  1.0798
 7994TIP3   OH223945   0.471   0.215   3.432  0.2720 -0.8004 -0.7292
 7994TIP3    H123946   0.553   0.165   3.439 -0.0449 -1.4079 -1.2634
 7994TIP3    H223947   0.404   0.149   3.413 -0.1244 -0.1494 -1.6811
 7995TIP3   OH223948   6.804   5.891   1.601 -0.1629 -0.5227  0.1172
 7995TIP3    H123949   6.882   5.849   1.635  0.8514  0.4107 -0.9468
 7995TIP3    H223950   6.814   5.888   1.506 -0.9226  0.5084 -0.0222
 7996TIP3   OH223951   0.148   1.815   1.760  0.4773 -0.0386 -0.9977
 7996TIP3    H123952   0.168   1.898   1.804 -2.8585  0.4407 -0.1404
 7996TIP3    H223953   0.111   1.840   1.676  2.5751 -0.8516 -2.2434
 7997TIP3   OH223954   3.161   4.370   2.498 -0.1090  0.1850 -0.1475
 7997TIP3    H123955   3.116   4.303   2.447 -0.1727 -1.2871  1.7491
 7997TIP3    H223956   3.104   4.386   2.574 -0.9294  3.6437 -1.2849
 7998TIP3   OH223957   2.515   2.845   5.228  0.4509 -0.7134 -0.2137
 7998TIP3    H123958   2.575   2.879   5.162  1.1270 -1.2433  0.1127
 7998TIP3    H223959   2.429   2.880   5.203  0.7387 -0.6824 -1.2099
 7999TIP3   OH223960   4.123   2.381   1.913 -1.0831 -0.1084  0.1369
 7999TIP3    H123961   4.078   2.384   1.829 -1.9430 -2.0226  0.4614
 7999TIP3    H223962   4.067   2.430   1.973 -0.6407  0.9686 -0.3081
 8000TIP3   OH223963   2.974   6.768   3.522  0.2586  0.2499 -0.6975
 8000TIP3    H123964   2.979   6.860   3.549 -1.6440  0.1350  0.2446
 8000TIP3    H223965   3.052   6.728   3.559  0.5955  1.2882 -0.2498
 8001TIP3   OH223966   5.247   2.860   5.840  0.0921  0.4198 -0.1188
 8001TIP3    H123967   5.340   2.879   5.826  0.6339 -1.4081  0.6886
 8001TIP3    H223968   5.205   2.880   5.756  1.3723  0.3118 -0.8026
 8002TIP3   OH223969   4.771   0.432   0.536 -0.1243 -0.1263  0.4308
 8002TIP3    H123970   4.858   0.470   0.548  0.6334 -1.8490  0.6984
 8002TIP3    H223971   4.787   0.338   0.525 -1.8542 -0.3258 -0.8195
 8003TIP3   OH223972   5.406   2.340   4.332 -0.5334  0.6020  0.0101
 8003TIP3    H123973   5.417   2.256   4.377  1.2046  0.4369 -0.6316
 8003TIP3    H223974   5.320   2.371   4.360 -0.9266 -1.0611  0.8034
 8004TIP3   OH223975   3.657   2.822   2.580 -0.0640 -0.7781  0.3721
 8004TIP3    H123976   3.589   2.808   2.646 -0.1545 -1.7519  0.0775
 8004TIP3    H223977   3.609   2.848   2.501  0.0311  0.1766  0.6102
 8005TIP3   OH223978   4.492   5.218   0.339 -0.3150 -0.2337  0.2981
 8005TIP3    H123979   4.469   5.182   0.254  0.3971  0.9508 -0.4263
 8005TIP3    H223980   4.523   5.307   0.320  0.6316 -0.2297  1.6894
 8006TIP3   OH223981   1.250   2.936   1.043 -0.0207 -0.1496  0.2269
 8006TIP3    H123982   1.301   2.897   1.114  0.1870 -0.5669 -0.1425
 8006TIP3    H223983   1.160   2.912   1.063 -0.0519  0.4108  0.7714
 8007TIP3   OH223984   1.678   3.491   0.421 -0.6074  0.6117  0.3404
 8007TIP3    H123985   1.698   3.401   0.395 -0.9773  0.3905  0.8041
 8007TIP3    H223986   1.654   3.535   0.340 -0.1110  0.3792  0.0602
 8008TIP3   OH223987   1.625   5.941   4.334 -0.0373 -0.6019 -0.1192
 8008TIP3    H123988   1.625   5.873   4.402  0.0691 -2.0300 -1.4830
 8008TIP3    H223989   1.604   5.894   4.253 -0.9044  1.1666 -0.9857
 8009TIP3   OH223990   0.180   2.196   3.819  0.1815 -0.4064  0.2658
 8009TIP3    H123991   0.113   2.227   3.880 -1.5907 -1.8115 -0.8634
 8009TIP3    H223992   0.186   2.265   3.753  0.4070  0.0620  0.7715
 8010TIP3   OH223993   6.073   3.185   4.595 -0.1074 -0.1088 -0.5315
 8010TIP3    H123994   6.005   3.125   4.566  0.0340 -0.0104 -1.0836
 8010TIP3    H223995   6.028   3.247   4.653 -0.3671 -0.3923 -0.4306
 8011TIP3   OH223996   1.010   4.733   1.186  0.6380 -0.8049 -0.7553
 8011TIP3    H123997   0.978   4.795   1.251  2.7762 -0.4680  0.0673
 8011TIP3    H223998   0.932   4.687   1.156 -0.7183  0.7423  0.2306
 8012TIP3   OH223999   2.476   1.224   4.844 -0.0564  0.3324  0.0897
 8012TIP3    H124000   2.422   1.147   4.827  0.2901 -0.0160  0.5438
 8012TIP3    H224001   2.462   1.280   4.768 -1.6027  0.5649  0.5004
 8013TIP3   OH224002   1.464   2.139   0.728 -0.3452 -0.3519  0.7397
 8013TIP3    H124003   1.484   2.231   0.711 -0.1455 -0.2616  1.4179
 8013TIP3    H224004   1.457   2.099   0.642 -0.9942  0.4178  0.4236
 8014TIP3   OH224005   5.343   3.814   4.146  0.1071  0.3337  0.3121
 8014TIP3    H124006   5.380   3.857   4.223 -1.5437  1.2922  0.6128
 8014TIP3    H224007   5.416   3.764   4.108  1.3076  1.0339  1.6460
 8015TIP3   OH224008   1.068   1.069   3.580  0.1650  0.0884  0.1165
 8015TIP3    H124009   1.086   1.096   3.490 -0.7640  0.6330  0.0859
 8015TIP3    H224010   1.006   0.997   3.572 -1.6859  1.5701  0.3509
 8016TIP3   OH224011   6.924   3.849   2.008 -0.4261  0.0987  0.6417
 8016TIP3    H124012   6.876   3.778   2.050 -1.2039 -0.4256 -1.0381
 8016TIP3    H224013   7.004   3.808   1.976  0.4768  0.6357  2.0757
 8017TIP3   OH224014   5.510   5.757   4.644  0.1121 -0.2762  0.0123
 8017TIP3    H124015   5.493   5.767   4.551  1.3112 -0.1519 -0.2096
 8017TIP3    H224016   5.424   5.767   4.685 -0.5699 -1.1865 -1.1297
 8018TIP3   OH224017   6.863   4.489   5.641  0.1396  0.6084  0.3530
 8018TIP3    H124018   6.944   4.500   5.591 -0.4462  2.2583 -0.2919
 8018TIP3    H224019   6.813   4.569   5.625 -0.1863  1.1320  3.4335
 8019TIP3   OH224020   6.581   2.125   3.392 -0.7348 -0.2140 -0.4901
 8019TIP3    H124021   6.656   2.091   3.343 -1.8912 -0.3801 -2.2330
 8019TIP3    H224022   6.604   2.111   3.484  1.3836 -0.1891 -0.9626
 8020TIP3   OH224023   2.177   4.365   1.069 -0.0214  0.4938 -0.0874
 8020TIP3    H124024   2.177   4.460   1.055  1.5917  0.9656  2.4633
 8020TIP3    H224025   2.263   4.336   1.038 -0.2059 -0.0285 -0.1256
 8021TIP3   OH224026   2.556   6.001   2.428 -0.4430  0.2540  0.3485
 8021TIP3    H124027   2.587   5.946   2.499 -0.6313 -0.9379 -0.4754
 8021TIP3    H224028   2.493   5.947   2.380  0.6485  0.5297 -1.5109
 8022TIP3   OH224029   3.210   0.071   5.009  0.0921  0.0235 -0.2263
 8022TIP3    H124030   3.156   0.016   4.952  0.0587 -0.1135 -0.0636
 8022TIP3    H224031   3.169   0.064   5.095  2.0260 -2.4459  0.6141
 8023TIP3   OH224032   5.251   5.898   0.093 -0.4377  0.0402 -0.0820
 8023TIP3    H124033   5.287   5.901   0.182  1.7603 -1.5995 -0.8348
 8023TIP3    H224034   5.293   5.971   0.048  1.1093 -1.1528 -0.6373
 8024TIP3   OH224035   4.326   1.797   3.881  0.0656  0.2465  0.2638
 8024TIP3    H124036   4.378   1.875   3.862 -1.4433  0.8604 -1.5209
 8024TIP3    H224037   4.274   1.821   3.958  0.9509  0.2865  0.8797
 8025TIP3   OH224038   5.384   5.765   0.665 -0.3268  0.2225  0.1804
 8025TIP3    H124039   5.348   5.775   0.753  0.1193 -1.1230  0.5342
 8025TIP3    H224040   5.392   5.671   0.652 -0.1839  0.3980 -1.2313
 8026TIP3   OH224041   2.996   5.647   4.991  0.0708 -0.2858  0.3370
 8026TIP3    H124042   2.905   5.643   5.020 -0.3026 -0.6770 -0.8541
 8026TIP3    H224043   2.996   5.709   4.918  0.5731 -1.0390 -0.3164
 8027TIP3   OH224044   2.055   6.760   4.878 -0.3181  0.1409  0.4977
 8027TIP3    H124045   1.992   6.773   4.949 -1.0421  0.8567 -0.2529
 8027TIP3    H224046   2.133   6.809   4.906 -0.8434  0.9915  0.4906
 8028TIP3   OH224047   1.040   2.228   4.733  0.0661  0.3420 -0.4167
 8028TIP3    H124048   0.963   2.255   4.783  0.0411 -2.1193  1.0679
 8028TIP3    H224049   1.092   2.177   4.795  3.0297  2.0311 -1.3199
 8029TIP3   OH224050   5.239   2.561   5.897  0.5211 -0.4241 -0.2438
 8029TIP3    H124051   5.170   2.511   5.854  0.9719 -0.1640 -1.3037
 8029TIP3    H224052   5.203   2.650   5.904  0.8263 -0.2307 -1.0194
 8030TIP3   OH224053   3.370   5.773   2.581  0.0696  0.3112 -0.0493
 8030TIP3    H124054   3.444   5.808   2.532  0.0398  0.9735  0.3745
 8030TIP3    H224055   3.355   5.836   2.651  0.1244 -0.6313  0.8303
 8031TIP3   OH224056   6.695   5.620   1.483  0.0494  0.5064  0.1353
 8031TIP3    H124057   6.668   5.578   1.401  0.3551  0.2954  0.1418
 8031TIP3    H224058   6.637   5.696   1.491 -0.0344  0.4856 -0.2396
 8032TIP3   OH224059   5.247   3.922   5.054 -0.8730  1.1209  0.4877
 8032TIP3    H124060   5.296   3.950   4.977 -1.7390  0.1663 -0.4380
 8032TIP3    H224061   5.275   3.982   5.123  0.3895  1.5993 -0.4001
 8033TIP3   OH224062   1.599   1.316   5.630  0.3148  0.1402 -0.4950
 8033TIP3    H124063   1.648   1.307   5.548  0.4538  0.6420 -0.4741
 8033TIP3    H224064   1.541   1.391   5.615 -1.6103 -1.3860 -1.0804
 8034TIP3   OH224065   0.800   6.142   3.439 -0.0714  0.7196 -0.2129
 8034TIP3    H124066   0.776   6.196   3.364 -0.9568 -0.7686 -1.0613
 8034TIP3    H224067   0.896   6.137   3.436 -0.0264  1.6359 -0.5258
 8035TIP3   OH224068   5.190   1.220   1.259  0.3489 -0.0075 -0.2607
 8035TIP3    H124069   5.100   1.239   1.287 -0.2289  0.2486 -2.2038
 8035TIP3    H224070   5.233   1.306   1.258  0.0536  0.1349 -1.1974
 8036TIP3   OH224071   3.749   3.855   2.259 -0.2876  0.1347  0.2507
 8036TIP3    H124072   3.757   3.823   2.169 -0.1806 -0.5635  0.5060
 8036TIP3    H224073   3.782   3.945   2.255  0.1573 -0.0497 -0.3170
 8037TIP3   OH224074   5.277   5.346   3.766 -0.3721 -0.1105 -0.3818
 8037TIP3    H124075   5.285   5.416   3.830 -0.0989  0.6217 -1.2031
 8037TIP3    H224076   5.191   5.360   3.726  0.8956  1.7100 -2.7409
 8038TIP3   OH224077   3.376   6.103   4.922 -0.4323  0.2143 -0.0740
 8038TIP3    H124078   3.292   6.120   4.965 -1.6636 -0.0851 -2.2586
 8038TIP3    H224079   3.383   6.171   4.855  1.0842  0.2110  0.0502
 8039TIP3   OH224080   2.767   1.919   5.413  0.5261  0.1405 -0.2167
 8039TIP3    H124081   2.802   1.902   5.325 -0.2487  0.0284 -0.5063
 8039TIP3    H224082   2.673   1.930   5.400  0.3903  0.0245  0.6180
 8040TIP3   OH224083   5.509   4.836   2.663  0.0941  1.0486 -0.8543
 8040TIP3    H124084   5.486   4.926   2.642  0.0379  1.0368 -0.8421
 8040TIP3    H224085   5.499   4.788   2.580 -1.8328  0.6405 -0.4360
 8041TIP3   OH224086   1.107   5.495   1.701  0.0682 -0.0697  0.3613
 8041TIP3    H124087   1.012   5.479   1.699 -0.0695 -0.0929  3.2708
 8041TIP3    H224088   1.141   5.433   1.764  1.5046  2.1336  1.9070
 8042TIP3   OH224089   4.333   2.288   5.786 -0.2176  0.0747  0.1661
 8042TIP3    H124090   4.412   2.236   5.777  0.4889  1.1007  0.2438
 8042TIP3    H224091   4.263   2.224   5.802  0.5412 -0.8595 -0.1813
 8043TIP3   OH224092   2.213   5.206   4.414 -0.5071  0.2933  0.2029
 8043TIP3    H124093   2.120   5.225   4.406 -0.4351  0.4605 -0.2436
 8043TIP3    H224094   2.251   5.236   4.332 -0.1142 -0.1016  0.2377
 8044TIP3   OH224095   2.501   0.384   4.695  0.4968  0.1732 -0.3917
 8044TIP3    H124096   2.544   0.350   4.773 -0.7152  0.2874  0.3422
 8044TIP3    H224097   2.529   0.326   4.625 -1.7095 -2.6151  0.8301
 8045TIP3   OH224098   4.480   4.149   1.247  0.4704  0.1760 -0.3604
 8045TIP3    H124099   4.417   4.101   1.194 -1.0703 -1.2197  2.4570
 8045TIP3    H224100   4.440   4.234   1.262 -0.3827 -0.3660  0.6228
 8046TIP3   OH224101   2.521   4.073   3.912 -0.0017 -0.3084 -0.0165
 8046TIP3    H124102   2.451   4.010   3.894  0.8885 -1.7219  1.2344
 8046TIP3    H224103   2.581   4.026   3.969  2.1981  0.7228 -1.3550
 8047TIP3   OH224104   5.287   4.571   5.835  0.5624 -0.2090 -0.5230
 8047TIP3    H124105   5.307   4.544   5.925  1.9502  0.9384 -0.4527
 8047TIP3    H224106   5.204   4.527   5.815  0.1478 -0.3706  1.3588
 8048TIP3   OH224107   1.097   1.578   0.472  0.4326 -0.1158  0.9571
 8048TIP3    H124108   1.190   1.582   0.451 -0.2380  0.3643 -2.5600
 8048TIP3    H224109   1.078   1.661   0.514  0.9837  1.5644 -1.8439
 8049TIP3   OH224110   1.991   5.423   5.863  0.2009 -0.1433  0.3306
 8049TIP3    H124111   2.048   5.381   5.799 -0.7958 -0.4758 -0.3617
 8049TIP3    H224112   2.043   5.495   5.898  1.1589 -0.6447 -0.0384
 8050TIP3   OH224113   5.656   2.497   4.297 -0.1940 -0.3095 -0.0217
 8050TIP3    H124114   5.702   2.447   4.365  0.9622 -1.0875 -1.3368
 8050TIP3    H224115   5.564   2.471   4.307 -0.0726 -0.3339  1.2857
 8051TIP3   OH224116   4.617   4.912   0.226  0.2931  0.2475  0.4114
 8051TIP3    H124117   4.648   4.875   0.309  0.7881 -0.9235 -0.2748
 8051TIP3    H224118   4.694   4.913   0.170 -0.2468  0.1290 -0.3448
 8052TIP3   OH224119   4.431   1.360   4.106  0.4735  0.4664  0.4741
 8052TIP3    H124120   4.348   1.366   4.154 -0.1858  0.3579 -0.5987
 8052TIP3    H224121   4.440   1.446   4.065  0.0771 -0.0011 -0.6529
 8053TIP3   OH224122   7.246   0.444   4.613 -0.2519 -0.0096 -0.7907
 8053TIP3    H124123   7.167   0.441   4.559 -0.9271  1.8255  0.0087
 8053TIP3    H224124   7.214   0.427   4.702  0.6434 -1.6787 -0.7641
 8054TIP3   OH224125   6.811   0.502   4.182 -0.1816 -0.1471  0.0138
 8054TIP3    H124126   6.735   0.535   4.231  0.8920  1.3770  0.7487
 8054TIP3    H224127   6.807   0.547   4.098  0.8492  1.3614  0.7243
 8055TIP3   OH224128   4.696   1.240   4.273  0.7795 -0.1125 -0.0719
 8055TIP3    H124129   4.687   1.273   4.183  2.0643  2.2704  0.5986
 8055TIP3    H224130   4.611   1.255   4.313  0.4334 -0.4911 -0.6454
 8056TIP3   OH224131   0.661   0.751   4.632 -0.1409  0.0840 -0.4634
 8056TIP3    H124132   0.641   0.665   4.596  0.7653 -0.0616 -0.6570
 8056TIP3    H224133   0.704   0.798   4.560  2.0426 -0.3475  0.4743
 8057TIP3   OH224134   2.715   4.938   5.408  0.4464 -0.4685 -0.7527
 8057TIP3    H124135   2.623   4.918   5.390  0.8327 -1.8063 -1.3004
 8057TIP3    H224136   2.720   5.034   5.403 -0.9639 -0.3617 -0.4404
 8058TIP3   OH224137   7.138   4.285   0.485 -0.1865  0.0632 -0.2032
 8058TIP3    H124138   7.156   4.251   0.572 -1.2114 -0.7471 -0.2768
 8058TIP3    H224139   7.086   4.364   0.500 -0.6080 -0.2341 -0.0732
 8059TIP3   OH224140   6.196   2.404   2.168 -0.1775  0.2760  0.2844
 8059TIP3    H124141   6.218   2.316   2.139 -0.5731  0.5549 -0.9424
 8059TIP3    H224142   6.255   2.421   2.241  0.1223 -0.8753  0.3305
 8060TIP3   OH224143   1.550   5.916   2.875 -0.2122 -0.2612  0.3478
 8060TIP3    H124144   1.566   5.947   2.786 -0.0835 -1.9978 -0.2714
 8060TIP3    H224145   1.457   5.936   2.890 -0.7454 -1.5631 -0.9061
 8061TIP3   OH224146   0.872   3.577   3.378 -0.3252 -0.0877 -0.3673
 8061TIP3    H124147   0.902   3.576   3.287  1.1137 -2.9792 -0.0082
 8061TIP3    H224148   0.783   3.543   3.375 -1.0206  1.6827 -0.8139
 8062TIP3   OH224149   1.011   3.194   5.649  0.2210  0.9144 -0.2648
 8062TIP3    H124150   0.943   3.186   5.716  1.9222 -0.6759  1.3804
 8062TIP3    H224151   1.045   3.283   5.659 -0.0186  0.9204  0.5033
 8063TIP3   OH224152   0.093   4.827   4.315 -0.4703 -0.0017 -0.0703
 8063TIP3    H124153   0.066   4.919   4.321  0.2072  0.4762 -2.9999
 8063TIP3    H224154   0.074   4.802   4.225  0.3263 -2.4427  0.3635
 8064TIP3   OH224155   3.282   0.133   0.934  0.2135  0.2618  0.3180
 8064TIP3    H124156   3.242   0.124   1.020 -0.4233 -0.7117 -0.0653
 8064TIP3    H224157   3.212   0.168   0.879  0.3845  0.1427  0.0222
 8065TIP3   OH224158   5.179   5.260   1.756 -0.2507 -0.3138 -0.7357
 8065TIP3    H124159   5.229   5.223   1.683 -1.6494 -0.7790 -1.5002
 8065TIP3    H224160   5.138   5.184   1.797 -1.3815  0.1639 -0.9504
 8066TIP3   OH224161   6.553   0.044   1.203  0.2496 -0.0209 -0.1104
 8066TIP3    H124162   6.584  -0.029   1.257  0.4720  0.4420  0.3838
 8066TIP3    H224163   6.633   0.087   1.172  0.1970 -1.3632 -2.3305
 8067TIP3   OH224164   0.579   5.323   2.072  0.2180 -0.9054 -0.6756
 8067TIP3    H124165   0.609   5.353   2.158 -1.4225  0.0656 -0.4030
 8067TIP3    H224166   0.534   5.241   2.091 -0.0340 -0.7548 -0.6113
 8068TIP3   OH224167   2.253   0.275   5.764  0.2051 -0.2563 -0.0036
 8068TIP3    H124168   2.227   0.355   5.810  3.6795  0.6403  0.6885
 8068TIP3    H224169   2.297   0.306   5.685 -0.2866 -1.6104 -0.8520
 8069TIP3   OH224170   1.571   4.944   0.391  0.0813  0.7002  0.4704
 8069TIP3    H124171   1.562   4.995   0.471 -1.3131 -0.5395  1.1456
 8069TIP3    H224172   1.634   4.875   0.413 -1.4640 -0.5755  1.0314
 8070TIP3   OH224173   6.983   5.805   2.025 -0.5440 -0.0684  0.1768
 8070TIP3    H124174   6.947   5.880   1.977  0.1874  1.1732  1.4863
 8070TIP3    H224175   7.034   5.844   2.096  0.9616 -1.7927  0.1350
 8071TIP3   OH224176   6.545   2.745   0.250 -0.1875  0.4643  0.6257
 8071TIP3    H124177   6.582   2.672   0.299  0.1756  0.8450  0.9202
 8071TIP3    H224178   6.473   2.706   0.200 -0.9939  0.1995  1.9678
 8072TIP3   OH224179   4.717   4.541   4.789  0.3848 -0.4450  0.1473
 8072TIP3    H124180   4.669   4.538   4.872  1.9239  1.9117  1.2593
 8072TIP3    H224181   4.809   4.534   4.814  1.0372  2.3134 -1.0357
 8073TIP3   OH224182   6.253   2.969   4.732  0.5874  0.1984 -0.4428
 8073TIP3    H124183   6.228   3.057   4.704 -0.6558  0.3713  1.0352
 8073TIP3    H224184   6.171   2.919   4.729  0.2549  0.2847  2.8579
 8074TIP3   OH224185   2.533   3.286   2.523 -0.0038 -0.2052  0.2736
 8074TIP3    H124186   2.441   3.274   2.545 -0.7674  2.8755 -0.7354
 8074TIP3    H224187   2.532   3.332   2.439  2.4223  0.6761  0.6425
 8075TIP3   OH224188   0.764   1.482   4.822  0.1906 -0.5212 -0.2048
 8075TIP3    H124189   0.858   1.492   4.805  0.0461  0.8785 -0.2723
 8075TIP3    H224190   0.738   1.408   4.767  1.6117 -2.2622  1.3213
 8076TIP3   OH224191   3.496   2.087   5.480 -0.1312 -0.3397  0.0364
 8076TIP3    H124192   3.526   2.143   5.408 -1.8029  0.0050 -0.4394
 8076TIP3    H224193   3.486   2.146   5.554 -0.6047 -0.2337 -0.1020
 8077TIP3   OH224194   3.481   3.757   3.088 -0.1249  0.4347  0.2864
 8077TIP3    H124195   3.482   3.688   3.022  0.4042 -0.0028  0.7397
 8077TIP3    H224196   3.391   3.789   3.088 -0.4432 -0.4332  0.2570
 8078TIP3   OH224197   3.069   4.054   1.672  0.2138  0.4244 -0.2408
 8078TIP3    H124198   3.076   3.978   1.730  0.3256  0.2866 -0.4323
 8078TIP3    H224199   3.147   4.106   1.691 -0.1108  0.7374  0.2374
 8079TIP3   OH224200   2.783   6.566   4.811  0.3964 -0.3768  0.3071
 8079TIP3    H124201   2.832   6.640   4.775 -0.7869  0.7674  1.0000
 8079TIP3    H224202   2.691   6.593   4.808 -0.3977 -2.8979 -1.9806
 8080TIP3   OH224203   4.137   4.752   2.254  0.3671  0.6812  0.0121
 8080TIP3    H124204   4.079   4.677   2.241 -0.3153  1.2984 -0.5786
 8080TIP3    H224205   4.200   4.746   2.181  0.6061  0.4250  0.2355
 8081TIP3   OH224206   5.086   3.594   4.874 -0.1731 -0.2593 -0.1892
 8081TIP3    H124207   5.046   3.626   4.954  0.6946  0.9874 -0.2090
 8081TIP3    H224208   5.121   3.508   4.897 -0.2067 -0.0522  0.6771
 8082TIP3   OH224209   0.656   1.011   0.488  0.2059  0.4803  0.0340
 8082TIP3    H124210   0.592   1.013   0.417  1.4231  0.4742 -1.1005
 8082TIP3    H224211   0.630   0.937   0.542  0.3186 -0.6596 -1.4306
 8083TIP3   OH224212   5.686   5.409   3.517 -0.0476  0.2679 -0.1115
 8083TIP3    H124213   5.696   5.500   3.544  1.7823  0.2532 -0.6567
 8083TIP3    H224214   5.710   5.358   3.594 -0.6180  0.2198  0.0447
 8084TIP3   OH224215   5.162   2.559   1.344 -0.1806 -0.3823 -0.0782
 8084TIP3    H124216   5.249   2.551   1.383 -0.4032  1.0581  0.7755
 8084TIP3    H224217   5.178   2.592   1.255  0.1119  0.9322  0.4454
 8085TIP3   OH224218   0.717   3.111   2.094  0.0407 -0.2132 -0.1050
 8085TIP3    H124219   0.791   3.110   2.033  0.3275 -0.1624  0.2454
 8085TIP3    H224220   0.694   3.203   2.104 -0.7154 -0.2858 -0.9910
 8086TIP3   OH224221   2.261   3.189   1.226  0.1163  0.5575  0.1691
 8086TIP3    H124222   2.289   3.155   1.140 -0.3524  0.0240  0.2200
 8086TIP3    H224223   2.167   3.176   1.227 -0.2170  2.6060 -0.1144
 8087TIP3   OH224224   6.683   1.011   5.355  0.1943  0.4366  0.5166
 8087TIP3    H124225   6.636   0.978   5.431  0.9826 -1.0516  0.4040
 8087TIP3    H224226   6.626   0.988   5.281  2.1632 -3.9980  0.0756
 8088TIP3   OH224227   0.415   4.877   0.089 -0.3586 -0.5847 -0.0530
 8088TIP3    H124228   0.474   4.842   0.156  0.0227 -1.3236 -0.7602
 8088TIP3    H224229   0.468   4.941   0.041 -0.3668 -0.6937 -0.2067
 8089TIP3   OH224230   5.727   2.917   3.461 -0.2408  0.7864 -0.4443
 8089TIP3    H124231   5.807   2.915   3.513  0.5220  1.9703 -1.5275
 8089TIP3    H224232   5.673   2.984   3.504 -0.3752  0.4682 -0.1130
 8090TIP3   OH224233   3.826   0.256   2.896 -0.3527  0.1567 -0.2251
 8090TIP3    H124234   3.736   0.277   2.922 -0.4708 -0.0136 -0.4964
 8090TIP3    H224235   3.836   0.163   2.915 -0.2875  0.1370 -0.3567
 8091TIP3   OH224236   1.699   2.224   1.816 -0.5548 -0.1802  0.6316
 8091TIP3    H124237   1.750   2.216   1.735 -0.4152  0.3028  0.6675
 8091TIP3    H224238   1.614   2.258   1.787 -0.4220  0.2299  0.7079
 8092TIP3   OH224239   3.542   5.789   1.856 -0.6838 -0.4781 -0.4187
 8092TIP3    H124240   3.571   5.788   1.765  0.7882 -0.0631  0.0293
 8092TIP3    H224241   3.584   5.713   1.896 -0.1968  0.1333  0.2469
 8093TIP3   OH224242   0.855   2.070   2.919  0.2005 -0.1139 -0.5360
 8093TIP3    H124243   0.899   2.081   2.835 -0.8126 -1.5508 -1.3168
 8093TIP3    H224244   0.791   2.000   2.903 -0.2325 -0.2074  1.3530
 8094TIP3   OH224245   0.107   5.986   0.769  0.0301  0.5397  0.0083
 8094TIP3    H124246   0.068   6.034   0.843  3.1224  1.7834  1.0061
 8094TIP3    H224247   0.119   5.897   0.802 -0.7120  0.4946  0.1688
 8095TIP3   OH224248   6.760   3.264   3.329 -0.6146  0.3662  0.4499
 8095TIP3    H124249   6.730   3.329   3.393  0.6854  0.5125  0.9390
 8095TIP3    H224250   6.782   3.315   3.251 -1.8063  0.2304 -0.0079
 8096TIP3   OH224251   0.887   0.878   4.085 -0.3433  0.2356 -0.3421
 8096TIP3    H124252   0.815   0.853   4.142 -1.8874  1.0831 -1.8422
 8096TIP3    H224253   0.864   0.965   4.053  0.2302 -0.3552 -2.5686
 8097TIP3   OH224254   3.169   3.886   2.407  0.5880 -0.1347 -0.2350
 8097TIP3    H124255   3.076   3.903   2.414  0.8586  0.9863  0.8911
 8097TIP3    H224256   3.183   3.806   2.458  0.3181 -0.0851 -0.0858
 8098TIP3   OH224257   2.717   6.725   5.784  0.0757 -0.0325  0.3269
 8098TIP3    H124258   2.770   6.709   5.862 -1.0603 -1.0320  0.9276
 8098TIP3    H224259   2.627   6.719   5.814 -0.3866 -0.3316 -1.0389
 8099TIP3   OH224260   6.886   3.090   2.934 -0.4584  0.5228 -0.3220
 8099TIP3    H124261   6.883   3.076   3.029 -1.0714 -1.7131 -0.5959
 8099TIP3    H224262   6.949   3.161   2.922 -0.5504  1.0305  1.7600
 8100TIP3   OH224263   1.651   6.779   4.733  0.4360 -0.0710 -0.2709
 8100TIP3    H124264   1.637   6.698   4.683 -1.3516 -0.9750  1.5331
 8100TIP3    H224265   1.574   6.832   4.715  0.7564  0.4812 -0.0468
 8101TIP3   OH224266   3.791   1.335   2.911 -0.6198  0.5407 -0.0353
 8101TIP3    H124267   3.809   1.313   2.820  1.6833  0.4989  0.3636
 8101TIP3    H224268   3.877   1.356   2.948 -1.1767 -1.1990  2.5863
 8102TIP3   OH224269   5.176   6.445   2.000 -0.0733 -0.1393  0.1267
 8102TIP3    H124270   5.121   6.371   2.026  0.1719 -0.1602  0.5935
 8102TIP3    H224271   5.260   6.405   1.979 -0.4890 -0.2277 -1.5153
 8103TIP3   OH224272   3.365   4.409   4.787 -0.5935  0.1321 -0.2337
 8103TIP3    H124273   3.414   4.437   4.865  0.4332 -2.2748  0.0994
 8103TIP3    H224274   3.379   4.478   4.723  3.6307 -0.4858 -0.2667
 8104TIP3   OH224275   5.727   3.691   4.297  0.1780  0.1335 -0.0751
 8104TIP3    H124276   5.799   3.748   4.327  0.3542 -0.4107  0.5753
 8104TIP3    H224277   5.752   3.666   4.208 -0.0812  1.3516 -0.5121
 8105TIP3   OH224278   4.444   1.306   5.354 -0.2466 -0.4219  0.3703
 8105TIP3    H124279   4.350   1.312   5.340 -0.1764 -1.3507 -0.6346
 8105TIP3    H224280   4.483   1.338   5.272  0.3585  1.1303  1.2162
 8106TIP3   OH224281   4.324   0.384   2.167 -0.2304  0.1756  0.4263
 8106TIP3    H124282   4.329   0.360   2.260  2.7195  0.7134  0.5026
 8106TIP3    H224283   4.405   0.350   2.129 -1.0427  0.5782 -1.8189
 8107TIP3   OH224284   0.587   4.144   2.469 -0.6099 -0.0538 -0.5203
 8107TIP3    H124285   0.608   4.076   2.405  2.6358  2.0817 -1.9768
 8107TIP3    H224286   0.580   4.225   2.417  0.6668  1.5221  1.5873
 8108TIP3   OH224287   0.696   5.301   4.014 -0.4950  0.4450  0.6450
 8108TIP3    H124288   0.643   5.375   3.984 -0.6902  0.5809  1.2991
 8108TIP3    H224289   0.650   5.270   4.092  0.1318  0.2669  0.9477
 8109TIP3   OH224290   2.156   1.851   2.676 -0.2634  0.1228 -0.1008
 8109TIP3    H124291   2.231   1.903   2.649 -0.1640  2.1752  3.4261
 8109TIP3    H224292   2.183   1.812   2.760 -2.3312 -1.0113  0.1063
 8110TIP3   OH224293   1.835   0.309   1.741 -0.3549  0.3557  0.1320
 8110TIP3    H124294   1.781   0.296   1.664 -1.7031  0.3690  1.0348
 8110TIP3    H224295   1.776   0.291   1.815  0.6632  1.1269  1.1734
 8111TIP3   OH224296   3.576   2.071   2.348  0.0951  0.2334 -0.6702
 8111TIP3    H124297   3.513   2.012   2.306  0.1536  0.3740 -0.9600
 8111TIP3    H224298   3.522   2.130   2.401  0.1519 -1.3825  1.3373
 8112TIP3   OH224299   4.552   0.852   4.420  0.1576 -0.0722  0.4608
 8112TIP3    H124300   4.560   0.757   4.414  2.1673  0.0796  0.0967
 8112TIP3    H224301   4.599   0.885   4.343 -0.5596  1.2129  0.5545
 8113TIP3   OH224302   0.236   2.502   5.828 -0.1318 -0.0439 -0.1755
 8113TIP3    H124303   0.330   2.508   5.843 -0.0461  0.3041 -0.8298
 8113TIP3    H224304   0.224   2.531   5.738 -0.7373 -1.2249 -0.4818
 8114TIP3   OH224305   1.303   6.714   0.669  0.0551  0.3045 -0.1931
 8114TIP3    H124306   1.264   6.685   0.751  1.1056 -1.2133 -0.1864
 8114TIP3    H224307   1.243   6.780   0.636 -1.1329 -0.0868  1.0875
 8115TIP3   OH224308   2.698   2.236   1.805 -0.2983  0.4513 -0.1211
 8115TIP3    H124309   2.710   2.296   1.732 -0.1930  1.5838  0.8028
 8115TIP3    H224310   2.643   2.166   1.770  0.1784  0.7015 -1.4224
 8116TIP3   OH224311   1.701   6.487   3.495 -0.3263 -0.2411  0.3635
 8116TIP3    H124312   1.686   6.458   3.585 -0.9599  0.4369  0.4843
 8116TIP3    H224313   1.619   6.528   3.469 -0.0280 -0.1122 -0.4080
 8117TIP3   OH224314   6.346   1.685   0.576  0.0649  0.0474  0.3385
 8117TIP3    H124315   6.344   1.780   0.569 -0.3744  0.1779  1.7960
 8117TIP3    H224316   6.438   1.663   0.586  0.0385  0.5046  1.7774
 8118TIP3   OH224317   0.833   4.204   5.437  0.2674  0.4197 -0.1149
 8118TIP3    H124318   0.923   4.217   5.409 -0.1103 -0.4218 -1.8784
 8118TIP3    H224319   0.780   4.237   5.364 -0.8624  0.8512  0.8631
 8119TIP3   OH224320   1.036   6.344   2.583 -0.3056  0.3766  0.1843
 8119TIP3    H124321   1.071   6.425   2.546 -0.0500 -0.1339 -0.6961
 8119TIP3    H224322   1.087   6.274   2.542  0.6804 -0.1906  2.2077
 8120TIP3   OH224323   3.617   4.510   2.816 -0.1025  0.4117 -0.8461
 8120TIP3    H124324   3.590   4.554   2.897  0.7972 -0.6302  0.0460
 8120TIP3    H224325   3.546   4.448   2.798 -0.4978  0.9319 -1.0810
 8121TIP3   OH224326   0.861   0.773   0.615 -0.1678 -0.1129  0.3602
 8121TIP3    H124327   0.786   0.778   0.555  0.7086 -0.8023 -0.8218
 8121TIP3    H224328   0.887   0.865   0.627  0.5704 -0.0425 -1.5349
 8122TIP3   OH224329   3.176   0.677   1.006 -0.6980  0.2442 -0.1561
 8122TIP3    H124330   3.145   0.684   1.096 -0.7702  0.2861 -0.1837
 8122TIP3    H224331   3.106   0.716   0.954 -1.5042 -1.4554 -0.3929
 8123TIP3   OH224332   3.759   5.232   1.313 -0.1817  0.1946  0.2787
 8123TIP3    H124333   3.774   5.324   1.291  0.2505 -0.2486 -1.4391
 8123TIP3    H224334   3.683   5.207   1.261  0.1402 -0.6019  0.1726
 8124TIP3   OH224335   6.131   0.391   1.495 -0.1268  0.4884  0.1327
 8124TIP3    H124336   6.097   0.439   1.420 -1.2929  0.4872  0.6368
 8124TIP3    H224337   6.060   0.332   1.520  1.3542 -1.7778 -0.6651
 8125TIP3   OH224338   5.646   2.750   2.150  0.0164 -0.3615 -0.0434
 8125TIP3    H124339   5.575   2.765   2.213  0.7695  0.8810  0.5331
 8125TIP3    H224340   5.604   2.701   2.079 -0.9820 -1.2866  1.1322
 8126TIP3   OH224341   1.088   1.197   2.317  0.5312 -0.0043  0.3843
 8126TIP3    H124342   1.024   1.137   2.354  0.5395  0.5469  1.3347
 8126TIP3    H224343   1.102   1.263   2.385  0.0777  1.4242 -0.8460
 8127TIP3   OH224344   4.523   1.055   3.117 -0.0880  0.4650 -0.0971
 8127TIP3    H124345   4.553   0.997   3.047 -1.2594  0.7240 -0.8363
 8127TIP3    H224346   4.602   1.076   3.166  0.5244 -0.9039 -0.4529
 8128TIP3   OH224347   4.186   0.922   1.268  0.0977  0.4028  0.2513
 8128TIP3    H124348   4.264   0.976   1.278  1.1900 -1.4392  2.9843
 8128TIP3    H224349   4.172   0.884   1.355 -1.4790 -2.4448 -1.1097
 8129TIP3   OH224350   5.107   1.062   2.556  0.3170  0.1744  0.2981
 8129TIP3    H124351   5.064   0.996   2.502  1.3526 -0.3639  0.1019
 8129TIP3    H224352   5.201   1.048   2.540  0.6091  0.5334  1.6157
 8130TIP3   OH224353   4.354   1.465   2.564  0.3187  0.2255  0.9448
 8130TIP3    H124354   4.368   1.415   2.483  0.3896  1.6163  0.0648
 8130TIP3    H224355   4.416   1.537   2.558 -0.8417  1.2940  1.4291
 8131TIP3   OH224356   0.264   0.838   0.261  0.0258  0.3534  0.2277
 8131TIP3    H124357   0.260   0.844   0.357 -1.2472 -0.1156  0.2226
 8131TIP3    H224358   0.174   0.825   0.234  0.6260 -1.9508 -0.8721
 8132TIP3   OH224359   3.224   3.067   4.224 -0.1844  0.2199 -0.3347
 8132TIP3    H124360   3.297   3.128   4.214 -0.3506  0.4787  0.0557
 8132TIP3    H224361   3.146   3.122   4.224 -0.3223  0.0272  0.2246
 8133TIP3   OH224362   6.978   3.065   2.192  0.0368 -0.4684 -0.1626
 8133TIP3    H124363   7.042   3.107   2.250 -1.2821 -0.6217  1.4760
 8133TIP3    H224364   6.895   3.072   2.239 -1.0614 -0.8075 -1.9658
 8134TIP3   OH224365   0.827   6.720   4.006  0.1314 -0.0958  0.1027
 8134TIP3    H124366   0.851   6.811   4.021 -0.0946 -0.2196  1.3260
 8134TIP3    H224367   0.910   6.677   3.981  0.5854  0.0992  1.2390
 8135TIP3   OH224368   6.930   6.050   4.049 -0.0577 -0.7333 -0.0762
 8135TIP3    H124369   6.918   5.968   4.002  0.8588 -1.2630  0.5943
 8135TIP3    H224370   6.869   6.046   4.122 -0.8231 -0.3108 -0.6790
 8136TIP3   OH224371   0.134   5.278   2.745 -1.0031  0.2134 -0.7555
 8136TIP3    H124372   0.076   5.342   2.786 -1.4645  0.1897 -1.3647
 8136TIP3    H224373   0.123   5.291   2.651 -3.8701 -3.0673 -1.0948
 8137TIP3   OH224374   3.117   6.283   0.947 -0.4180  0.1672 -0.1243
 8137TIP3    H124375   3.151   6.307   0.861 -0.2103 -1.8266 -0.6489
 8137TIP3    H224376   3.104   6.366   0.992 -1.1228  1.3040 -2.2875
 8138TIP3   OH224377   2.233   0.986   0.269 -0.5848  0.1735  1.1920
 8138TIP3    H124378   2.155   1.039   0.287 -0.7410  0.3834 -0.0340
 8138TIP3    H224379   2.198   0.900   0.243 -0.6251  1.1490 -2.4841
 8139TIP3   OH224380   3.601   3.145   5.030 -0.4667  0.1111 -0.1170
 8139TIP3    H124381   3.665   3.205   4.993 -1.9459  0.5233 -2.1900
 8139TIP3    H224382   3.532   3.201   5.064 -1.4199 -0.3534 -1.2304
 8140TIP3   OH224383   5.513   4.339   2.816  0.1538  0.4670  0.3649
 8140TIP3    H124384   5.539   4.430   2.807  0.1203  0.4364 -0.0458
 8140TIP3    H224385   5.530   4.300   2.730  0.6297 -0.0331  0.6832
 8141TIP3   OH224386   6.533   2.320   4.053  0.1534 -0.2395 -0.4174
 8141TIP3    H124387   6.438   2.316   4.044  0.0404  1.7174 -0.3998
 8141TIP3    H224388   6.563   2.232   4.028 -1.5148 -0.3861 -2.1100
 8142TIP3   OH224389   2.643   2.429   0.885  0.3925 -0.3837  0.1981
 8142TIP3    H124390   2.726   2.382   0.892 -1.0940 -3.4292 -0.8399
 8142TIP3    H224391   2.655   2.489   0.812  1.4718 -1.3321 -0.4309
 8143TIP3   OH224392   6.446   2.168   0.650  0.4236  0.0890 -0.1267
 8143TIP3    H124393   6.394   2.248   0.647  1.0336  0.5299  0.6649
 8143TIP3    H224394   6.423   2.122   0.569  2.4442  2.5500 -2.2817
 8144TIP3   OH224395   5.869   5.924   0.596  1.0583 -0.4789 -0.5438
 8144TIP3    H124396   5.885   6.015   0.570  0.4829 -0.3026 -0.3082
 8144TIP3    H224397   5.905   5.917   0.684 -1.0573  0.2337  0.4414
 8145TIP3   OH224398   3.984   2.915   2.335  0.1256 -0.1174 -0.5389
 8145TIP3    H124399   3.910   2.864   2.304 -0.0933  0.3876 -0.8584
 8145TIP3    H224400   3.965   2.933   2.427  0.0260 -0.2888 -0.5265
 8146TIP3   OH224401   0.933   6.616   5.543 -1.0407 -0.5049  0.0091
 8146TIP3    H124402   0.965   6.611   5.633  1.3924 -0.0150 -0.7612
 8146TIP3    H224403   0.928   6.524   5.515 -1.6229 -0.6514  0.5609
 8147TIP3   OH224404   0.917   0.129   0.315 -0.2746 -1.2366 -0.6402
 8147TIP3    H124405   0.901   0.215   0.351 -0.7515 -1.7207  0.3318
 8147TIP3    H224406   0.868   0.128   0.232 -0.6159 -0.7324 -0.4465
 8148TIP3   OH224407   4.379   6.559   4.022 -0.2993 -0.6512 -0.0301
 8148TIP3    H124408   4.400   6.560   4.115 -0.7204 -0.6514  0.0638
 8148TIP3    H224409   4.457   6.520   3.981  0.5143  0.7169  0.1551
 8149TIP3   OH224410   6.859   3.506   5.255  0.8805 -0.0075 -0.2838
 8149TIP3    H124411   6.913   3.494   5.177 -0.1293  0.7490 -1.1387
 8149TIP3    H224412   6.881   3.594   5.286 -1.0246  1.0568 -1.6701
 8150TIP3   OH224413   4.253   0.866   1.761 -0.1975  0.2805  0.1446
 8150TIP3    H124414   4.259   0.778   1.798  0.9658  0.9276  1.5935
 8150TIP3    H224415   4.338   0.907   1.781 -1.3952  2.3990  1.3081
 8151TIP3   OH224416   0.711   3.071   1.176  0.4281 -0.0628  0.0931
 8151TIP3    H124417   0.726   3.136   1.244  1.7366 -0.6568  0.4041
 8151TIP3    H224418   0.775   3.092   1.108 -0.6490  0.3266 -0.8319
 8152TIP3   OH224419   1.773   3.441   1.803 -0.2896  0.6014 -0.0345
 8152TIP3    H124420   1.757   3.376   1.871 -1.9249  0.8967 -0.0960
 8152TIP3    H224421   1.831   3.397   1.741 -2.8854 -1.6304 -1.1297
 8153TIP3   OH224422   1.600   3.423   5.803 -0.3834 -0.2858  0.0138
 8153TIP3    H124423   1.586   3.516   5.785  1.0679  0.3449  1.8889
 8153TIP3    H224424   1.525   3.379   5.763 -1.2437  1.7038 -0.6556
 8154TIP3   OH224425   2.406   2.449   3.117  0.1871  0.1868 -0.5236
 8154TIP3    H124426   2.344   2.477   3.185 -0.5482  2.4442 -1.9955
 8154TIP3    H224427   2.443   2.367   3.150  1.0341  1.8957  3.3348
 8155TIP3   OH224428   4.165   1.200   5.523 -0.0519  0.0921 -0.1668
 8155TIP3    H124429   4.194   1.244   5.443  0.7046 -1.1438 -0.6056
 8155TIP3    H224430   4.097   1.139   5.494 -0.9037  0.7469  0.3904
 8156TIP3   OH224431   3.224   6.130   1.148  0.6698 -0.4141  0.3273
 8156TIP3    H124432   3.228   6.187   1.225  1.2889  0.8440 -0.5938
 8156TIP3    H224433   3.208   6.190   1.075  0.9629 -1.4740 -0.6277
 8157TIP3   OH224434   0.347   3.977   1.683  0.2121 -0.1041  0.3830
 8157TIP3    H124435   0.362   3.892   1.724 -0.5621 -0.6132 -0.3645
 8157TIP3    H224436   0.325   3.957   1.592  0.1187  0.8971  0.1709
 8158TIP3   OH224437   4.152   2.645   3.564  0.3869 -0.8027  0.4948
 8158TIP3    H124438   4.102   2.675   3.488  1.6004 -1.1939 -0.4861
 8158TIP3    H224439   4.087   2.637   3.634 -0.3243  2.1742  0.2873
 8159TIP3   OH224440   4.540   2.634   4.275  0.1842  0.4092  0.4854
 8159TIP3    H124441   4.477   2.691   4.320  0.5571  2.4383 -1.3757
 8159TIP3    H224442   4.625   2.662   4.310  0.2998  0.2164  0.3567
 8160TIP3   OH224443   6.484   4.935   1.567 -0.0377 -0.4442 -0.1071
 8160TIP3    H124444   6.464   4.907   1.478  0.0474  1.4332 -0.7682
 8160TIP3    H224445   6.411   4.992   1.590 -0.8585 -2.0938  1.6543
 8161TIP3   OH224446   0.026   0.600   5.347  0.2728  0.0056 -0.3896
 8161TIP3    H124447  -0.054   0.647   5.369  1.2963  0.3606  3.1938
 8161TIP3    H224448   0.090   0.630   5.412  1.9908 -3.6564 -0.1291
 8162TIP3   OH224449   1.127   1.639   5.558  0.4928 -0.6442  0.0499
 8162TIP3    H124450   1.167   1.680   5.635  0.7757  0.2157 -0.5297
 8162TIP3    H224451   1.060   1.581   5.593  1.1105 -0.8169  0.9713
 8163TIP3   OH224452   7.140   2.653   4.803 -0.1738 -0.1682 -0.0434
 8163TIP3    H124453   7.114   2.567   4.768  0.8121  0.1257 -1.5890
 8163TIP3    H224454   7.235   2.657   4.790 -0.0359  0.7159  1.0572
 8164TIP3   OH224455   2.133   1.199   4.489  0.3369 -0.3575  0.3765
 8164TIP3    H124456   2.097   1.279   4.527  0.0587 -1.0642  1.6567
 8164TIP3    H224457   2.056   1.148   4.464  0.5154  0.1736 -1.3753
 8165TIP3   OH224458   2.643   4.450   4.185 -0.1272  0.0054  0.0239
 8165TIP3    H124459   2.705   4.406   4.244  1.1769  1.1548 -0.4309
 8165TIP3    H224460   2.648   4.400   4.103  1.9284  1.3716 -0.7447
 8166TIP3   OH224461   1.109   6.469   5.729 -0.1716  0.0579 -0.1572
 8166TIP3    H124462   1.185   6.466   5.788 -0.0475  1.1215 -0.2481
 8166TIP3    H224463   1.041   6.511   5.781 -0.1021  0.8841 -0.7261
 8167TIP3   OH224464   1.906   2.129   1.355 -0.4958 -0.4696 -0.3894
 8167TIP3    H124465   1.991   2.085   1.347  0.2411  0.9271 -0.5194
 8167TIP3    H224466   1.879   2.145   1.265  0.4240  1.4593 -0.3909
 8168TIP3   OH224467   6.684   1.352   1.268 -0.1482 -0.0235 -0.4113
 8168TIP3    H124468   6.759   1.298   1.242  1.9403  3.3271 -2.0240
 8168TIP3    H224469   6.712   1.395   1.348 -0.2512  1.3523 -1.0888
 8169TIP3   OH224470   2.042   3.617   5.813 -0.4116  0.2151  0.4484
 8169TIP3    H124471   1.999   3.689   5.860  0.5611  0.3815  1.1312
 8169TIP3    H224472   2.052   3.649   5.724  1.5979  1.6921  1.1347
 8170TIP3   OH224473   2.729   5.689   3.142 -0.4093 -0.5669 -0.0940
 8170TIP3    H124474   2.754   5.601   3.168  1.3956 -0.1896 -0.4446
 8170TIP3    H224475   2.653   5.677   3.085 -1.2538 -1.7404  1.2225
 8171TIP3   OH224476   3.832   6.283   3.073  0.5480 -0.0278  0.2459
 8171TIP3    H124477   3.812   6.189   3.074  0.4297 -0.0032  0.2339
 8171TIP3    H224478   3.899   6.293   3.006 -0.0319  0.0146 -0.3373
 8172TIP3   OH224479   2.256   1.852   4.991 -0.5444  0.1797 -0.1193
 8172TIP3    H124480   2.207   1.868   4.911  0.8909 -2.2102 -1.6139
 8172TIP3    H224481   2.210   1.778   5.033 -0.2171  0.2069  0.2982
 8173TIP3   OH224482   4.842   2.732   1.311 -0.2797 -0.5655 -0.0954
 8173TIP3    H124483   4.787   2.735   1.388 -0.7886  0.0557 -0.4714
 8173TIP3    H224484   4.892   2.814   1.313  0.6498 -1.1264  0.2497
 8174TIP3   OH224485   1.845   2.495   5.124 -0.0707  0.5582 -0.1338
 8174TIP3    H124486   1.889   2.580   5.128  1.3944 -0.0889 -1.3716
 8174TIP3    H224487   1.878   2.447   5.200 -1.1645  1.1707  0.7654
 8175TIP3   OH224488   5.423   6.552   3.039 -0.4180  0.3746 -0.1959
 8175TIP3    H124489   5.330   6.556   3.064  0.2162  0.8665  2.3708
 8175TIP3    H224490   5.433   6.467   2.997 -1.6269 -0.6924  1.5229
 8176TIP3   OH224491   7.004   0.752   2.188  0.0441 -0.0427 -0.1863
 8176TIP3    H124492   6.971   0.662   2.178 -1.3128  0.4488 -0.3572
 8176TIP3    H224493   7.010   0.786   2.099 -1.6979  0.7775 -0.0361
 8177TIP3   OH224494   7.150   4.682   3.765 -0.5936 -0.2741  0.9644
 8177TIP3    H124495   7.231   4.729   3.786 -0.8606  0.8464 -0.4016
 8177TIP3    H224496   7.178   4.590   3.760  0.9096  0.2179 -0.7825
 8178TIP3   OH224497   5.095   6.779   4.710 -0.3915 -0.4840  0.0486
 8178TIP3    H124498   5.128   6.779   4.620  0.7417  1.2749  0.4205
 8178TIP3    H224499   5.105   6.688   4.739  2.2587 -0.4781 -0.5710
 8179TIP3   OH224500   0.205   3.251   0.594 -0.5548  0.4819  0.3248
 8179TIP3    H124501   0.247   3.221   0.514 -2.2075 -1.2188  0.0237
 8179TIP3    H224502   0.157   3.330   0.567 -0.4511  0.3820 -0.1688
 8180TIP3   OH224503   6.314   0.700   4.730 -0.6858 -0.1906 -0.0106
 8180TIP3    H124504   6.356   0.757   4.666 -0.4584 -0.1039  0.2158
 8180TIP3    H224505   6.387   0.660   4.778 -0.8363  2.1390  2.3500
 8181TIP3   OH224506   1.030   6.005   2.174  0.3704  0.7525  0.3044
 8181TIP3    H124507   1.049   5.990   2.266  1.0376 -0.7517 -0.0509
 8181TIP3    H224508   1.049   6.098   2.160 -3.3717  2.1203  2.5206
 8182TIP3   OH224509   0.782   5.719   5.340 -0.1773  0.3739  0.8036
 8182TIP3    H124510   0.850   5.703   5.407  2.1733 -0.7454 -1.6612
 8182TIP3    H224511   0.812   5.797   5.294  0.4782 -1.1163 -1.4324
 8183TIP3   OH224512   3.877   2.102   5.673  0.3819  0.5459 -0.1276
 8183TIP3    H124513   3.862   2.106   5.579 -1.4101 -0.0786  0.0897
 8183TIP3    H224514   3.825   2.028   5.703 -0.4851  1.7468  1.5763
 8184TIP3   OH224515   6.613   4.892   5.320 -0.8174  0.6011  0.0473
 8184TIP3    H124516   6.573   4.883   5.407 -0.6224  3.8468  0.5881
 8184TIP3    H224517   6.698   4.934   5.337 -0.3512  0.4392 -1.6646
 8185TIP3   OH224518   6.204   4.123   0.631  0.0918 -0.1501 -0.3717
 8185TIP3    H124519   6.216   4.187   0.700  0.3622  1.3559 -1.7619
 8185TIP3    H224520   6.287   4.075   0.628  0.3278  0.2376 -0.1111
 8186TIP3   OH224521   3.664   2.592   3.958 -0.0875 -0.0888  0.1193
 8186TIP3    H124522   3.706   2.558   3.879 -2.1348 -2.5746 -0.0482
 8186TIP3    H224523   3.719   2.559   4.029 -0.3340 -1.2100 -0.1786
 8187TIP3   OH224524   4.406   4.164   5.606  0.1293  0.3525  0.0340
 8187TIP3    H124525   4.406   4.156   5.702  0.6109 -0.7472 -0.0445
 8187TIP3    H224526   4.343   4.234   5.588 -0.3206  0.2476  1.1275
 8188TIP3   OH224527   1.959   0.787   1.843 -0.1622 -0.8679 -0.4225
 8188TIP3    H124528   1.952   0.708   1.790  1.7434 -0.9141 -0.6750
 8188TIP3    H224529   2.008   0.849   1.788 -1.4450  0.4426 -0.1548
 8189TIP3   OH224530   1.774   6.692   4.971 -0.2596 -0.1862  0.4520
 8189TIP3    H124531   1.734   6.605   4.963  1.3174 -0.8213 -0.9079
 8189TIP3    H224532   1.727   6.745   4.907 -0.0151 -0.5229 -0.0168
 8190TIP3   OH224533   2.841   6.140   5.008  0.0821 -0.0076  0.0395
 8190TIP3    H124534   2.763   6.196   5.005  0.8795  1.2093  1.1503
 8190TIP3    H224535   2.842   6.105   5.097  0.0127 -1.2146 -0.4184
 8191TIP3   OH224536   4.160   1.450   5.652  0.2318  0.2050  0.0065
 8191TIP3    H124537   4.146   1.360   5.622 -0.3132  0.0875  0.5863
 8191TIP3    H224538   4.102   1.459   5.728  0.4300  0.9842  0.0728
 8192TIP3   OH224539   5.124   4.748   5.002 -0.0224  0.1738 -0.0764
 8192TIP3    H124540   5.152   4.725   5.091  0.2398 -0.6435 -0.3630
 8192TIP3    H224541   5.181   4.822   4.978 -0.6165  0.9172  0.7082
 8193TIP3   OH224542   2.217   2.925   2.065 -0.0263  0.0431  0.0078
 8193TIP3    H124543   2.187   3.003   2.112 -1.5093 -0.8753  0.6598
 8193TIP3    H224544   2.313   2.927   2.074 -0.0010  1.8762 -0.1781
 8194TIP3   OH224545   0.386   0.862   1.256 -0.0639 -0.1987 -0.6616
 8194TIP3    H124546   0.357   0.911   1.333 -0.1694  0.3723 -1.0648
 8194TIP3    H224547   0.435   0.925   1.204  1.1010 -0.9073 -0.4588
 8195TIP3   OH224548   6.475   1.227   0.966  0.2159  0.5368 -0.1320
 8195TIP3    H124549   6.422   1.255   1.040 -0.8534 -0.1707 -0.6028
 8195TIP3    H224550   6.550   1.287   0.965 -1.2530  2.4560 -0.2510
 8196TIP3   OH224551   6.407   1.303   1.219  0.0398 -0.1873 -0.0677
 8196TIP3    H124552   6.407   1.275   1.310 -0.2086  1.0634  0.3370
 8196TIP3    H224553   6.465   1.379   1.217 -1.2186  0.8078 -0.5989
 8197TIP3   OH224554   6.277   1.991   5.812 -0.1674  0.6792  0.5220
 8197TIP3    H124555   6.253   2.054   5.880  1.6625 -0.1639  2.0458
 8197TIP3    H224556   6.215   1.919   5.822 -0.9301  1.2808  0.1895
 8198TIP3   OH224557   5.901   4.241   2.623  0.5637 -0.3789  0.2386
 8198TIP3    H124558   5.968   4.223   2.689 -0.6446 -3.6270  0.7452
 8198TIP3    H224559   5.919   4.178   2.553 -1.0577 -0.2695 -0.3092
 8199TIP3   OH224560   3.807   4.464   3.381 -0.8212  0.2615 -0.3614
 8199TIP3    H124561   3.714   4.448   3.391 -0.7867 -0.1205 -0.6376
 8199TIP3    H224562   3.842   4.383   3.344 -0.5969  0.8442 -1.5005
 8200TIP3   OH224563   2.017   6.759   2.426 -0.2421 -0.0349  0.3621
 8200TIP3    H124564   1.930   6.779   2.390 -1.0055  0.3946  2.2794
 8200TIP3    H224565   2.066   6.840   2.416 -1.2633  0.9221  2.3924
 8201TIP3   OH224566   6.760   6.710   5.044 -0.0771  0.5311 -0.3519
 8201TIP3    H124567   6.841   6.666   5.017 -0.1219  0.6063 -0.6139
 8201TIP3    H224568   6.705   6.640   5.078 -0.5131  0.2266 -1.6397
 8202TIP3   OH224569   5.191   2.303   4.096  0.3040 -0.3281  0.2168
 8202TIP3    H124570   5.260   2.241   4.119 -0.1674 -0.7338  0.5687
 8202TIP3    H224571   5.113   2.270   4.141  0.6914  2.2204  3.0855
 8203TIP3   OH224572   2.645   2.495   3.008  0.0205  0.4314  0.0012
 8203TIP3    H124573   2.568   2.466   3.058 -0.5349  2.7669  0.6014
 8203TIP3    H224574   2.687   2.559   3.065  0.5707  1.6151 -1.6737
 8204TIP3   OH224575   3.558   5.056   2.553  0.0187  0.2033  0.1342
 8204TIP3    H124576   3.649   5.027   2.554  0.8508  2.4201  3.3205
 8204TIP3    H224577   3.519   5.014   2.630 -1.9020 -1.0622 -1.4031
 8205TIP3   OH224578   5.964   3.360   4.216  0.0321 -0.7377  0.6002
 8205TIP3    H124579   5.955   3.269   4.189  0.3391 -0.6727  0.2725
 8205TIP3    H224580   5.890   3.375   4.275  0.4824 -1.4492  1.3604
 8206TIP3   OH224581   0.127   1.341   3.362 -0.1387  0.0784  0.1120
 8206TIP3    H124582   0.177   1.411   3.404 -0.7005 -0.2183  1.3106
 8206TIP3    H224583   0.042   1.342   3.406 -0.5328 -0.6667 -0.5949
 8207TIP3   OH224584   5.154   6.155   4.087  0.4340  0.0398 -0.1940
 8207TIP3    H124585   5.186   6.152   3.997  1.3495 -0.1629  0.1372
 8207TIP3    H224586   5.222   6.201   4.135 -0.3461  0.7255  0.2825
 8208TIP3   OH224587   1.943   6.715   2.803 -0.1253 -0.1784  0.0599
 8208TIP3    H124588   1.882   6.774   2.846  0.9033  1.0817 -0.1455
 8208TIP3    H224589   1.985   6.768   2.736  0.0116 -1.4679 -0.9274
 8209TIP3   OH224590   1.865   6.626   3.322 -0.2086  0.7545  0.6990
 8209TIP3    H124591   1.800   6.627   3.252  1.6757 -1.0127 -1.2173
 8209TIP3    H224592   1.830   6.564   3.387 -1.3658  1.4207  0.7282
 8210TIP3   OH224593   6.710   2.990   4.932 -0.3541  0.5362  0.0037
 8210TIP3    H124594   6.614   2.994   4.937 -0.5155  1.0374 -2.4047
 8210TIP3    H224595   6.729   2.897   4.918 -0.4887  0.4463  0.4070
 8211TIP3   OH224596   5.794   5.077   2.990 -0.3269 -0.4436  0.4726
 8211TIP3    H124597   5.874   5.128   2.997 -0.9565  0.5450  0.7094
 8211TIP3    H224598   5.725   5.142   2.976 -1.4064 -1.0659  2.4677
 8212TIP3   OH224599   2.384   6.640   5.471 -1.0393  0.3928  0.1585
 8212TIP3    H124600   2.341   6.713   5.517  0.2296  0.1972  1.7397
 8212TIP3    H224601   2.435   6.682   5.402 -0.6400  0.9831  0.8010
 8213TIP3   OH224602   3.821   6.341   5.822  0.0308 -0.2871  0.9042
 8213TIP3    H124603   3.857   6.302   5.743  0.1894  2.4244 -0.4727
 8213TIP3    H224604   3.764   6.411   5.791 -0.6354  0.2698  3.1751
 8214TIP3   OH224605   0.606   4.343   2.276  0.5240 -0.3213 -0.9451
 8214TIP3    H124606   0.690   4.387   2.272 -0.2644  1.3853  0.1308
 8214TIP3    H224607   0.559   4.372   2.199  0.2503  0.2003 -0.5851
 8215TIP3   OH224608   2.303   0.089   1.182  0.1986 -0.3823  0.2917
 8215TIP3    H124609   2.387   0.095   1.227  0.1894 -0.8470  0.3739
 8215TIP3    H224610   2.293  -0.004   1.163 -0.4312 -0.3663  0.5362
 8216TIP3   OH224611   7.091   4.578   2.001 -0.0968  0.0849  0.3621
 8216TIP3    H124612   7.070   4.491   1.966 -0.1322  0.3297 -0.2354
 8216TIP3    H224613   7.010   4.628   1.991 -0.2417  0.0327  1.2055
 8217TIP3   OH224614   6.756   5.156   1.205  0.0634 -0.7822 -0.2017
 8217TIP3    H124615   6.769   5.249   1.223 -0.2880 -0.8875  0.6382
 8217TIP3    H224616   6.766   5.113   1.290 -1.2771 -1.3367 -0.2950
 8218TIP3   OH224617   5.901   2.563   0.019 -0.2544 -0.4773  0.0611
 8218TIP3    H124618   5.939   2.650   0.009  1.5714 -1.1685  0.4693
 8218TIP3    H224619   5.836   2.572   0.089 -0.4729  0.6426 -0.2716
 8219TIP3   OH224620   2.765   5.212   4.898  0.4442  0.2300  0.1118
 8219TIP3    H124621   2.810   5.186   4.818 -0.3723  1.2054 -0.6927
 8219TIP3    H224622   2.752   5.131   4.946  0.1160 -0.5037 -1.1805
 8220TIP3   OH224623   0.527   5.591   1.256  0.3439  0.1150 -0.5776
 8220TIP3    H124624   0.484   5.602   1.341  0.2918  1.7381 -0.7778
 8220TIP3    H224625   0.550   5.680   1.229  0.5921 -0.3903 -2.1509
 8221TIP3   OH224626   0.476   4.757   3.975  0.0903  0.0291 -0.4233
 8221TIP3    H124627   0.464   4.850   3.992  1.4461 -0.2189  2.4630
 8221TIP3    H224628   0.566   4.739   4.002 -0.8833 -2.5427  1.5148
 8222TIP3   OH224629   0.402   2.144   4.994 -0.1581  0.0868 -0.0551
 8222TIP3    H124630   0.332   2.143   4.930  0.1328  2.5594 -0.5183
 8222TIP3    H224631   0.382   2.071   5.053 -0.6639 -2.0044 -2.6298
 8223TIP3   OH224632   6.399   0.847   3.110 -0.0614  0.1274  0.1681
 8223TIP3    H124633   6.340   0.773   3.124  0.4107 -0.2300  0.3103
 8223TIP3    H224634   6.474   0.809   3.064  0.1727  0.5225  0.2198
 8224TIP3   OH224635   7.003   2.385   3.777 -0.5535 -0.2739  0.4752
 8224TIP3    H124636   7.027   2.447   3.707  0.7207 -0.4525  0.7283
 8224TIP3    H224637   6.923   2.343   3.745 -0.4949  0.2907 -0.4697
 8225TIP3   OH224638   4.791   1.409   0.930 -0.8193 -0.0100  0.1596
 8225TIP3    H124639   4.758   1.397   1.019  0.4587  0.4743  0.7303
 8225TIP3    H224640   4.797   1.320   0.894  1.9282 -0.6149  1.8288
 8226TIP3   OH224641   1.430   3.848   5.844 -0.2842  0.3720 -0.0288
 8226TIP3    H124642   1.383   3.899   5.779  0.1530  0.7177 -0.0784
 8226TIP3    H224643   1.456   3.768   5.798 -1.4329 -0.1539  0.1980
 8227TIP3   OH224644   4.644   1.430   0.672  0.5245 -0.5113 -0.2418
 8227TIP3    H124645   4.661   1.520   0.644 -2.0649  0.0608 -0.1712
 8227TIP3    H224646   4.712   1.412   0.737  2.7942  0.3572 -2.2213
 8228TIP3   OH224647   4.490   1.865   1.132  0.0068  0.8946 -0.3554
 8228TIP3    H124648   4.529   1.781   1.106 -1.8353 -0.1085 -0.0384
 8228TIP3    H224649   4.558   1.908   1.184  1.7504  0.5358 -2.2355
 8229TIP3   OH224650   2.776   5.172   3.710 -0.8070 -0.2038 -0.6307
 8229TIP3    H124651   2.796   5.250   3.660  0.0272  0.4080  0.6089
 8229TIP3    H224652   2.837   5.106   3.677 -0.6881  0.0116 -0.8409
 8230TIP3   OH224653   3.773   6.272   5.357 -0.1451  0.0633  0.4814
 8230TIP3    H124654   3.849   6.313   5.398  0.7638 -0.9879 -0.0830
 8230TIP3    H224655   3.810   6.217   5.288 -1.4158 -0.5493  0.2525
 8231TIP3   OH224656   2.913   6.453   0.300 -0.2691 -0.2525 -0.1617
 8231TIP3    H124657   2.823   6.485   0.306 -0.0413  0.2362  1.1966
 8231TIP3    H224658   2.909   6.364   0.336 -0.2473 -0.3043 -0.2897
 8232TIP3   OH224659   0.979   4.323   0.027 -0.1680  0.1174  0.0567
 8232TIP3    H124660   0.990   4.229   0.046 -0.1011  0.0521 -0.3054
 8232TIP3    H224661   0.915   4.326  -0.045  2.0088  0.1822 -1.9936
 8233TIP3   OH224662   6.428   1.105   2.985 -0.0577 -0.0682  0.5472
 8233TIP3    H124663   6.409   1.022   3.028 -1.5528 -0.1400 -0.2137
 8233TIP3    H224664   6.403   1.092   2.894  0.3618  0.9996  0.2575
 8234TIP3   OH224665   4.746   1.392   4.027  0.5136  0.0329 -0.0288
 8234TIP3    H124666   4.724   1.360   3.940 -0.3938 -0.4421  0.3601
 8234TIP3    H224667   4.837   1.420   4.021  1.9644 -4.0722 -0.0071
 8235TIP3   OH224668   5.277   2.346   2.876 -0.1284 -0.3395 -0.4901
 8235TIP3    H124669   5.234   2.314   2.955  1.2360 -2.1050 -0.3847
 8235TIP3    H224670   5.343   2.408   2.906 -0.9252  0.5019 -0.4431
 8236TIP3   OH224671   0.093   3.743   5.306  0.2246  0.0388 -0.4792
 8236TIP3    H124672   0.038   3.785   5.241 -0.2474  0.9141  0.4548
 8236TIP3    H224673   0.066   3.651   5.305 -0.7220  0.3132 -0.5622
 8237TIP3   OH224674   1.495   3.564   2.709 -0.2562 -0.1669  0.4387
 8237TIP3    H124675   1.428   3.609   2.657  0.0368  0.2874  0.4447
 8237TIP3    H224676   1.461   3.476   2.721 -0.9346  0.1099  0.5943
 8238TIP3   OH224677   5.439   4.842   5.078  0.7001  0.0594  0.2015
 8238TIP3    H124678   5.462   4.769   5.135  0.3238 -1.0904 -1.0851
 8238TIP3    H224679   5.435   4.804   4.991 -0.5597  1.4032 -0.3509
 8239TIP3   OH224680   1.991   2.253   0.269  0.0011  0.2106 -0.2878
 8239TIP3    H124681   1.942   2.235   0.189  1.4983  1.6484 -1.6088
 8239TIP3    H224682   2.052   2.180   0.276 -2.1642 -1.5646  1.3428
 8240TIP3   OH224683   0.069   0.569   2.158 -0.0933  0.3210  0.3016
 8240TIP3    H124684   0.026   0.655   2.167  1.6448  1.1187  1.6648
 8240TIP3    H224685   0.045   0.540   2.070 -2.7606  1.0269  0.6754
 8241TIP3   OH224686   0.435   6.445   5.674  0.2810  0.0583 -0.2951
 8241TIP3    H124687   0.493   6.475   5.743  1.0034  0.1224 -0.9137
 8241TIP3    H224688   0.379   6.520   5.655  0.3027  0.1472 -0.0049
 8242TIP3   OH224689   4.662   2.042   2.446  0.5798 -0.2691 -0.2084
 8242TIP3    H124690   4.582   2.025   2.496  0.8381  0.9983  0.6764
 8242TIP3    H224691   4.637   2.025   2.355 -0.6004 -0.2132  0.0822
 8243TIP3   OH224692   5.252   5.579   3.904 -0.1637 -0.3820 -0.2235
 8243TIP3    H124693   5.170   5.623   3.880 -0.4155 -1.3395 -1.1992
 8243TIP3    H224694   5.265   5.601   3.996 -0.7868  0.9194 -0.4236
 8244TIP3   OH224695   5.169   1.287   5.352 -0.2695  1.0232  0.3953
 8244TIP3    H124696   5.167   1.234   5.272 -0.8624  2.8453 -0.8840
 8244TIP3    H224697   5.115   1.239   5.415  0.7869 -0.8086 -0.0380
 8245TIP3   OH224698   0.618   0.323   1.782 -0.0079 -0.7805  0.1070
 8245TIP3    H124699   0.623   0.356   1.692 -1.4150 -0.5587  0.0881
 8245TIP3    H224700   0.694   0.361   1.826 -1.2849  2.1704 -0.0335
 8246TIP3   OH224701   2.541   5.789   1.437 -0.2327 -0.3418  0.4115
 8246TIP3    H124702   2.523   5.876   1.472  2.9079 -0.2141  2.0260
 8246TIP3    H224703   2.454   5.753   1.416 -1.8152  2.1198  2.2246
 8247TIP3   OH224704   2.747   5.953   4.023 -0.1298  0.2468 -0.1323
 8247TIP3    H124705   2.831   5.997   4.041  0.0914 -0.7456  1.4259
 8247TIP3    H224706   2.772   5.871   3.980 -0.4421  0.7388 -1.3154
 8248TIP3   OH224707   1.765   0.081   3.145  0.3861 -0.0706  0.0288
 8248TIP3    H124708   1.777   0.071   3.240 -0.0907 -0.5378  0.0437
 8248TIP3    H224709   1.713   0.005   3.119  1.2800 -0.4280 -0.7639
 8249TIP3   OH224710   6.879   1.495   4.378 -0.0917  0.4961  0.3297
 8249TIP3    H124711   6.905   1.578   4.339  1.0006 -0.0154 -0.0808
 8249TIP3    H224712   6.959   1.461   4.417 -1.0859  0.9029  2.9408
 8250TIP3   OH224713   2.138   1.906   1.915  0.0079  0.6145 -0.3855
 8250TIP3    H124714   2.081   1.975   1.881  0.8623  0.1874 -2.9928
 8250TIP3    H224715   2.084   1.827   1.912 -0.7772  1.0042  2.0121
 8251TIP3   OH224716   1.280   2.305   2.278 -0.1609  0.4158 -0.1772
 8251TIP3    H124717   1.235   2.335   2.199  0.8586  0.8529 -0.6128
 8251TIP3    H224718   1.222   2.239   2.315 -1.0928  0.8773 -0.7829
 8252TIP3   OH224719   5.288   6.264   4.621 -0.3674 -0.0163  0.1427
 8252TIP3    H124720   5.219   6.309   4.572  1.0034  1.3533 -0.6295
 8252TIP3    H224721   5.242   6.214   4.688 -2.0165  2.8014  1.2891
 8253TIP3   OH224722   1.261   1.735   2.486 -0.3698 -0.5670 -0.3272
 8253TIP3    H124723   1.306   1.812   2.522 -1.1668 -0.4197  0.3748
 8253TIP3    H224724   1.265   1.748   2.391 -0.9334  0.6060 -0.2079
 8254TIP3   OH224725   6.921   6.528   5.644 -0.7104 -0.5198  0.6153
 8254TIP3    H124726   6.908   6.442   5.684  2.0142 -1.3572 -0.1103
 8254TIP3    H224727   6.973   6.576   5.709  1.5060 -0.9899 -0.7320
 8255TIP3   OH224728   6.308   0.289   2.827  0.3880  0.0992 -0.5608
 8255TIP3    H124729   6.238   0.312   2.888  1.2632 -0.0716  0.5474
 8255TIP3    H224730   6.281   0.206   2.789  0.5627 -0.6118  0.8185
 8256TIP3   OH224731   1.735   6.596   2.503 -0.5195 -0.5115 -0.3544
 8256TIP3    H124732   1.693   6.514   2.530  0.6054 -1.5192 -1.5056
 8256TIP3    H224733   1.829   6.576   2.504 -0.2509  0.6247 -1.0842
 8257TIP3   OH224734   0.450   1.986   0.650 -0.3525  0.3293  0.0965
 8257TIP3    H124735   0.356   1.966   0.649 -0.3424  0.2625 -1.7521
 8257TIP3    H224736   0.484   1.938   0.726 -1.4536 -1.3539 -0.4389
 8258TIP3   OH224737   5.331   3.490   1.006 -0.1270  0.2911 -0.3932
 8258TIP3    H124738   5.250   3.518   1.049 -0.0697  0.3203 -0.3050
 8258TIP3    H224739   5.302   3.456   0.921 -0.2769 -0.1174 -0.1804
 8259TIP3   OH224740   4.161   3.219   3.762 -0.8107 -0.3110  0.3516
 8259TIP3    H124741   4.167   3.300   3.712  0.9728 -0.5357  0.1071
 8259TIP3    H224742   4.179   3.150   3.698  0.6498 -0.6666  1.0934
 8260TIP3   OH224743   5.980   6.086   3.015  0.7105 -0.5820 -0.1991
 8260TIP3    H124744   6.053   6.025   3.020  0.8504 -0.5959 -1.8931
 8260TIP3    H224745   5.929   6.056   2.940 -0.4584  0.0647  0.3128
 8261TIP3   OH224746   4.889   0.634   1.733  0.4857 -0.2376 -0.3124
 8261TIP3    H124747   4.945   0.701   1.771 -0.4109 -0.0188  0.6832
 8261TIP3    H224748   4.816   0.683   1.694  0.4785 -0.5670 -0.7172
 8262TIP3   OH224749   3.012   5.023   5.811  0.3220  0.0032 -0.1995
 8262TIP3    H124750   2.983   4.955   5.750  0.4203 -0.8871  0.7369
 8262TIP3    H224751   2.933   5.075   5.827  0.4668  0.7510 -1.6832
 8263TIP3   OH224752   6.800   0.805   0.378  0.2939 -0.3218 -0.1032
 8263TIP3    H124753   6.864   0.734   0.385  1.2144  0.5613  0.7942
 8263TIP3    H224754   6.723   0.764   0.340  1.4908 -1.3518 -1.5440
 8264TIP3   OH224755   4.857   6.051   1.291  0.4708  0.6499 -0.0087
 8264TIP3    H124756   4.786   6.057   1.356  0.5375  0.8573  0.0437
 8264TIP3    H224757   4.916   5.984   1.327  0.4854  0.7321  0.1224
 8265TIP3   OH224758   2.508   1.514   2.235  0.1247  0.4336 -0.4380
 8265TIP3    H124759   2.418   1.484   2.224 -0.0771  1.4424 -1.7533
 8265TIP3    H224760   2.549   1.446   2.290 -0.5319 -1.8021 -2.5121
 8266TIP3   OH224761   1.121   5.927   3.362  0.2018 -0.0879 -0.0147
 8266TIP3    H124762   1.124   5.874   3.442 -1.1305 -0.9504 -0.4933
 8266TIP3    H224763   1.116   6.017   3.393  2.1248 -0.2158  0.8217
 8267TIP3   OH224764   6.942   2.391   0.890  0.4134  0.1420 -0.1590
 8267TIP3    H124765   6.978   2.438   0.815 -0.0487  1.1766  0.2545
 8267TIP3    H224766   7.003   2.319   0.905 -0.2257 -0.9339 -2.3921
 8268TIP3   OH224767   1.217   0.827   3.799 -0.4460  0.3020  0.5627
 8268TIP3    H124768   1.164   0.778   3.736 -1.5119  0.9344  0.9472
 8268TIP3    H224769   1.201   0.919   3.778  0.5562  0.5081  0.6511
 8269TIP3   OH224770   3.436   0.610   4.363  0.2608  0.5446 -0.1179
 8269TIP3    H124771   3.448   0.516   4.349  0.4194  0.3210  1.3618
 8269TIP3    H224772   3.424   0.646   4.275 -2.1774 -1.1811 -0.6015
 8270TIP3   OH224773   3.422   3.644   2.858  0.7285 -0.4133  0.1662
 8270TIP3    H124774   3.365   3.567   2.859  0.2887 -0.1282 -1.2370
 8270TIP3    H224775   3.388   3.699   2.787  2.6905 -0.1930 -0.6748
 8271TIP3   OH224776   6.192   6.377   1.010  0.2418 -0.0727  0.1767
 8271TIP3    H124777   6.276   6.344   0.979 -1.6432 -3.1484 -2.2009
 8271TIP3    H224778   6.141   6.392   0.930 -1.7478  1.0028  1.5551
 8272TIP3   OH224779   1.073   0.371   0.693 -0.0345 -0.5193 -0.0983
 8272TIP3    H124780   1.067   0.464   0.715  1.7590 -0.6761  1.3099
 8272TIP3    H224781   1.117   0.370   0.608  0.1685 -0.0697 -0.0052
 8273TIP3   OH224782   5.699   2.747   2.858 -0.0090 -0.4824 -0.1004
 8273TIP3    H124783   5.741   2.820   2.813 -0.6631 -0.1798 -0.2326
 8273TIP3    H224784   5.623   2.725   2.804  0.7001 -1.8965 -0.5718
 8274TIP3   OH224785   6.854   5.595   2.565  0.6471  0.5600 -0.1014
 8274TIP3    H124786   6.812   5.579   2.650  2.4091  3.0607  1.3670
 8274TIP3    H224787   6.782   5.600   2.503 -0.8320  0.1994  1.5106
 8275TIP3   OH224788   5.048   3.316   4.744  0.1987  0.7365  0.4557
 8275TIP3    H124789   5.113   3.328   4.814  0.6506  0.5467  0.0702
 8275TIP3    H224790   5.100   3.311   4.664 -0.0558 -1.8259  0.3485
 8276TIP3   OH224791   5.965   1.145   3.522 -0.3470 -0.0421 -0.9281
 8276TIP3    H124792   5.975   1.051   3.539 -0.4970  0.5213  3.5079
 8276TIP3    H224793   5.881   1.168   3.562  0.7156  2.3056  0.1684
 8277TIP3   OH224794   2.870   5.920   3.409  0.0912  0.0538 -0.5352
 8277TIP3    H124795   2.877   5.849   3.344  0.4001 -0.1864 -0.2460
 8277TIP3    H224796   2.927   5.891   3.481  0.5571  0.7940 -0.6006
 8278TIP3   OH224797   3.760   2.036   1.077  0.6191  0.1277 -0.2573
 8278TIP3    H124798   3.686   2.041   1.138  1.2744 -0.0571  0.5657
 8278TIP3    H224799   3.829   1.994   1.127  1.1158 -0.1880 -1.1979
 8279TIP3   OH224800   3.288   2.202   4.046 -0.1570 -0.7069 -0.7871
 8279TIP3    H124801   3.300   2.297   4.043  1.0485 -0.8608 -1.3600
 8279TIP3    H224802   3.270   2.183   4.138  1.2604 -0.0928 -0.3637
 8280TIP3   OH224803   4.842   2.880   3.231 -0.6797 -0.5992  0.1487
 8280TIP3    H124804   4.821   2.859   3.322  0.0903  0.2270  0.5360
 8280TIP3    H224805   4.837   2.796   3.185 -0.2617 -1.1777  1.1199
 8281TIP3   OH224806   4.329   4.060   2.274  0.2307 -0.2107 -0.1494
 8281TIP3    H124807   4.378   4.053   2.193  1.0888  1.0132  0.2324
 8281TIP3    H224808   4.396   4.062   2.343 -0.3862  0.4818  0.4529
 8282TIP3   OH224809   2.577   3.296   3.283 -0.2265  0.2807 -0.3191
 8282TIP3    H124810   2.559   3.202   3.276 -0.7280  0.1489  2.0402
 8282TIP3    H224811   2.502   3.337   3.240 -0.1636 -0.3712 -1.0894
 8283TIP3   OH224812   5.567   1.943   3.172  0.6281 -0.3876  0.6692
 8283TIP3    H124813   5.589   2.034   3.150  0.4730 -0.4090  0.4264
 8283TIP3    H224814   5.485   1.949   3.220 -0.5369 -0.5636 -1.2050
 8284TIP3   OH224815   3.134   3.546   1.213  0.5026 -0.4663  0.3930
 8284TIP3    H124816   3.225   3.523   1.231  0.7186 -0.3284 -0.5023
 8284TIP3    H224817   3.137   3.601   1.135 -0.4833 -1.9580 -0.7773
 8285TIP3   OH224818   3.607   4.344   1.486  0.1741  0.2606  1.2157
 8285TIP3    H124819   3.621   4.384   1.572 -1.8751  1.2009  1.1628
 8285TIP3    H224820   3.670   4.272   1.483  1.0230  0.8563  3.0648
 8286TIP3   OH224821   5.084   6.395   3.410  0.0041 -0.1065 -0.3242
 8286TIP3    H124822   5.042   6.389   3.495 -2.9566 -2.2375 -1.7563
 8286TIP3    H224823   5.124   6.482   3.409 -1.1536  0.5707  2.6152
 8287TIP3   OH224824   3.799   3.871   1.616  0.4012 -0.3610 -0.1474
 8287TIP3    H124825   3.856   3.906   1.548  0.9681  1.0446  1.0086
 8287TIP3    H224826   3.842   3.790   1.644  0.3212 -0.7849 -1.2351
 8288TIP3   OH224827   3.785   0.965   3.910  0.0202  0.5985  0.0406
 8288TIP3    H124828   3.879   0.957   3.921  0.0838  1.1100 -0.0976
 8288TIP3    H224829   3.749   0.961   3.998 -0.0040 -1.5015 -0.0081
 8289TIP3   OH224830   1.146   2.539   5.825 -0.2434 -0.5401  0.0200
 8289TIP3    H124831   1.086   2.465   5.836 -1.3715  0.2900 -0.3574
 8289TIP3    H224832   1.163   2.542   5.731 -0.8418  0.1553 -0.0714
 8290TIP3   OH224833   5.623   2.184   3.020  0.3081  0.1885  0.5870
 8290TIP3    H124834   5.717   2.172   3.006  0.1924  1.3254 -1.5045
 8290TIP3    H224835   5.616   2.267   3.067  0.3891 -0.6912  2.2205
 8291TIP3   OH224836   4.599   1.263   0.466  0.1880 -0.9825 -0.2260
 8291TIP3    H124837   4.615   1.325   0.537  1.5741 -0.9298 -0.5522
 8291TIP3    H224838   4.506   1.273   0.445  0.1765  0.2930  0.3657
 8292TIP3   OH224839   3.371   0.705   1.332 -0.2868 -0.2648 -0.0948
 8292TIP3    H124840   3.280   0.684   1.311 -0.7191  1.4534 -0.1356
 8292TIP3    H224841   3.414   0.714   1.247 -0.8354  1.8183 -0.2072
 8293TIP3   OH224842   3.246   3.312   2.247  0.0769 -0.4297 -0.4184
 8293TIP3    H124843   3.256   3.375   2.175  0.0788 -1.5529 -1.4206
 8293TIP3    H224844   3.334   3.281   2.265 -0.0156 -0.6876 -0.4137
 8294TIP3   OH224845   0.758   5.496   0.900 -0.3293  0.5493  0.7119
 8294TIP3    H124846   0.739   5.537   0.816  0.1163 -0.4060  0.1267
 8294TIP3    H224847   0.810   5.561   0.948  0.0306  0.8126 -0.0318
 8295TIP3   OH224848   5.966   0.347   2.398 -0.3299  0.0539  0.6027
 8295TIP3    H124849   5.972   0.404   2.475  0.4102 -0.0944  0.6672
 8295TIP3    H224850   5.955   0.407   2.324 -0.5073  0.2267  0.7678
 8296TIP3   OH224851   5.829   2.985   5.226 -0.3876  0.6065 -0.3701
 8296TIP3    H124852   5.907   3.024   5.186  1.0153 -1.5731  0.0817
 8296TIP3    H224853   5.813   3.039   5.304  1.8490  0.0473  0.5714
 8297TIP3   OH224854   4.348   5.116   5.822  0.0978 -0.1555  0.6958
 8297TIP3    H124855   4.381   5.040   5.870  0.9768 -0.4440 -0.3287
 8297TIP3    H224856   4.406   5.124   5.747 -1.2451  0.2819 -0.3373
 8298TIP3   OH224857   4.229   2.907   5.373  0.2158  0.0903  0.0169
 8298TIP3    H124858   4.144   2.887   5.335  0.1153  0.9864 -0.2454
 8298TIP3    H224859   4.210   2.967   5.445  0.5559 -0.3022  0.4390
 8299TIP3   OH224860   3.659   6.194   3.494 -0.4944 -0.0784 -0.1124
 8299TIP3    H124861   3.701   6.112   3.472  0.7710  0.3246  0.7087
 8299TIP3    H224862   3.623   6.180   3.582 -0.9481  0.0080 -0.2783
 8300TIP3   OH224863   0.588   5.041   3.170 -0.0278  0.5259  0.2034
 8300TIP3    H124864   0.601   5.013   3.079  2.7403 -0.4733  0.8193
 8300TIP3    H224865   0.523   4.979   3.204  1.2527 -1.1700 -0.2769
 8301TIP3   OH224866   6.440   1.060   5.180 -0.0058  0.7924  0.4763
 8301TIP3    H124867   6.346   1.067   5.193  0.2453  1.5719  2.1328
 8301TIP3    H224868   6.470   1.150   5.167  0.3220  0.4147 -2.0071
 8302TIP3   OH224869   0.447   5.235   3.770 -0.1968 -0.0654 -0.2956
 8302TIP3    H124870   0.419   5.159   3.719  5.4845 -1.4998 -2.0947
 8302TIP3    H224871   0.498   5.287   3.707  1.3682  1.8182  2.3468
 8303TIP3   OH224872   1.246   2.549   0.805 -0.6946 -0.2819  0.3443
 8303TIP3    H124873   1.215   2.637   0.783  0.2673 -0.0580 -0.1426
 8303TIP3    H224874   1.231   2.542   0.900  0.2974  0.8556  0.6158
 8304TIP3   OH224875   6.900   2.348   3.374  0.7276  0.1696 -0.3553
 8304TIP3    H124876   6.863   2.435   3.358  0.1635 -0.2137 -1.2807
 8304TIP3    H224877   6.862   2.320   3.457  2.3322  1.5212  0.8888
 8305TIP3   OH224878   5.026   5.407   3.700  0.2730 -0.8865  0.0224
 8305TIP3    H124879   5.026   5.479   3.763 -0.4637  0.1565 -1.1060
 8305TIP3    H224880   4.978   5.337   3.743  1.4822 -0.9256  1.3563
 8306TIP3   OH224881   0.408   0.927   5.691  0.0279 -0.0958  0.0212
 8306TIP3    H124882   0.494   0.938   5.649 -0.1037 -0.0834 -0.2452
 8306TIP3    H224883   0.360   1.007   5.668  0.8181  1.1474  2.2991
 8307TIP3   OH224884   6.994   3.052   3.849 -0.3629 -0.3066 -0.1096
 8307TIP3    H124885   6.946   2.969   3.855 -0.1675 -0.3397  1.6380
 8307TIP3    H224886   6.926   3.118   3.833 -0.7877 -0.5620  0.5861
 8308TIP3   OH224887   6.740   1.490   0.402 -0.0213 -0.2353 -0.0347
 8308TIP3    H124888   6.775   1.404   0.382  0.0927  0.0180 -0.9422
 8308TIP3    H224889   6.779   1.548   0.337 -0.4159  0.4327  0.3108
 8309TIP3   OH224890   5.756   6.215   3.099  0.3251  0.5484  0.4630
 8309TIP3    H124891   5.699   6.177   3.033  1.3579  2.0077 -1.3799
 8309TIP3    H224892   5.841   6.172   3.087  0.9981  2.0135 -0.4205
 8310TIP3   OH224893   2.334   5.297   1.084 -0.1235 -0.0245  0.2242
 8310TIP3    H124894   2.294   5.285   1.171 -0.7429 -0.5217 -0.1216
 8310TIP3    H224895   2.421   5.333   1.103 -1.0229  1.8806  0.9646
 8311TIP3   OH224896   2.841   6.176   3.687 -0.0647  0.8346 -0.2400
 8311TIP3    H124897   2.774   6.244   3.690  0.0114  0.8855  0.5052
 8311TIP3    H224898   2.874   6.171   3.777  1.2411  1.1163 -0.6782
 8312TIP3   OH224899   5.459   0.871   1.359 -0.1587  0.1072 -0.9003
 8312TIP3    H124900   5.532   0.859   1.419 -0.4176 -1.6816 -0.9014
 8312TIP3    H224901   5.501   0.886   1.274  0.3144 -2.7926 -1.2835
 8313TIP3   OH224902   1.410   3.831   4.107 -0.0797  0.5694 -0.2151
 8313TIP3    H124903   1.465   3.780   4.047 -0.9654 -1.3446  0.5364
 8313TIP3    H224904   1.404   3.917   4.065  3.0943  0.7553 -0.5469
 8314TIP3   OH224905   2.971   6.245   2.683  0.0021  0.6498  0.1065
 8314TIP3    H124906   2.993   6.311   2.749  0.9878  2.0860 -1.5748
 8314TIP3    H224907   2.894   6.281   2.638  0.7636  0.8968 -1.0612
 8315TIP3   OH224908   3.756   6.461   4.654  0.1529 -0.1433  0.2166
 8315TIP3    H124909   3.838   6.481   4.700 -0.0972  0.1222  0.5513
 8315TIP3    H224910   3.690   6.460   4.723 -0.3675  1.0926 -0.2309
 8316TIP3   OH224911   5.977   0.824   2.131  0.2836 -0.2015  0.0993
 8316TIP3    H124912   5.900   0.856   2.083  0.4340 -0.4312 -0.3014
 8316TIP3    H224913   6.049   0.830   2.068  0.1865 -1.9937 -0.2560
 8317TIP3   OH224914   5.743   3.207   2.201  0.3708  0.1740 -0.2517
 8317TIP3    H124915   5.778   3.267   2.135  0.0520 -0.0672 -0.6477
 8317TIP3    H224916   5.775   3.121   2.175 -2.1498 -0.3966 -1.8706
 8318TIP3   OH224917   1.265   0.988   0.190  0.1147 -0.0668  0.4208
 8318TIP3    H124918   1.298   0.967   0.103 -1.1619 -1.5892  0.2679
 8318TIP3    H224919   1.321   0.938   0.250  0.2334  0.0448  0.4046
 8319TIP3   OH224920   1.686   2.628   3.187  0.5039 -0.0419  0.0432
 8319TIP3    H124921   1.669   2.642   3.280 -0.2725  0.9638 -0.2289
 8319TIP3    H224922   1.699   2.716   3.152  3.6992 -0.5271 -0.3059
 8320TIP3   OH224923   5.969   1.778   0.974  0.2999 -0.5520 -0.0562
 8320TIP3    H124924   6.056   1.738   0.975  1.3240  1.4718 -1.1174
 8320TIP3    H224925   5.960   1.821   1.059  1.3572  1.1696 -0.7750
 8321TIP3   OH224926   3.749   2.273   5.864 -0.3059 -0.4480 -0.5376
 8321TIP3    H124927   3.800   2.291   5.943 -0.6941 -1.2458 -0.0844
 8321TIP3    H224928   3.802   2.210   5.815 -0.5390 -0.7484 -0.4042
 8322TIP3   OH224929   5.508   1.891   1.609 -0.0163 -0.1507 -0.3544
 8322TIP3    H124930   5.472   1.850   1.531  0.3926 -0.8225 -0.2019
 8322TIP3    H224931   5.455   1.856   1.681 -0.9367  1.1072 -0.3910
 8323TIP3   OH224932   2.677   2.603   5.221 -0.5147  0.8808 -0.2504
 8323TIP3    H124933   2.618   2.673   5.246  1.0003  1.7485  1.1074
 8323TIP3    H224934   2.759   2.647   5.199 -0.5437 -0.2052 -2.9427
 8324TIP3   OH224935   2.309   0.320   2.866  0.0318  0.0923  0.2636
 8324TIP3    H124936   2.292   0.414   2.856  2.9078  0.6761 -0.0648
 8324TIP3    H224937   2.297   0.303   2.960 -1.3815  0.5604  0.1819
 8325TIP3   OH224938   2.889   3.269   4.351  0.1784  0.3087  0.5295
 8325TIP3    H124939   2.793   3.263   4.347  0.1875  0.0578  0.6930
 8325TIP3    H224940   2.917   3.250   4.262  0.1080 -0.2544  0.6235
 8326TIP3   OH224941   5.751   5.923   1.967 -0.1537  0.0708  0.3332
 8326TIP3    H124942   5.747   5.898   2.059  1.2166  1.4546  0.8229
 8326TIP3    H224943   5.779   5.844   1.921  0.8135 -0.1967  1.3461
 8327TIP3   OH224944   6.342   4.846   0.423  0.3123  0.5206  0.7555
 8327TIP3    H124945   6.302   4.921   0.378  2.0720 -0.0856 -2.1395
 8327TIP3    H224946   6.436   4.854   0.403  0.9105 -1.0701  2.5959
 8328TIP3   OH224947   2.140   3.054   2.928 -0.2315  0.5337 -0.2008
 8328TIP3    H124948   2.172   3.033   3.016 -1.1597  2.1113  0.5562
 8328TIP3    H224949   2.092   2.975   2.901 -0.9802  0.4686  1.2218
 8329TIP3   OH224950   5.989   5.243   0.529  0.5626 -0.0214  0.6021
 8329TIP3    H124951   6.014   5.324   0.573  2.0716  0.2122 -0.5917
 8329TIP3    H224952   5.905   5.263   0.489  0.3409  0.5450  1.3164
 8330TIP3   OH224953   0.236   4.528   0.493  0.0261  0.0403 -0.2521
 8330TIP3    H124954   0.321   4.552   0.457  0.0868  2.0041  1.0467
 8330TIP3    H224955   0.247   4.439   0.525  1.7275  0.3727  0.1906
 8331TIP3   OH224956   4.992   4.593   3.921  1.0134  0.1719  0.7164
 8331TIP3    H124957   4.962   4.549   4.000  1.3981 -0.6741  0.4028
 8331TIP3    H224958   5.082   4.620   3.942 -0.0294  3.2623  1.8893
 8332TIP3   OH224959   6.682   0.415   0.976  0.1814 -0.0581 -0.4426
 8332TIP3    H124960   6.683   0.330   0.931 -0.3174 -0.8598  0.9932
 8332TIP3    H224961   6.759   0.412   1.033 -0.6494 -0.1705  0.6900
 8333TIP3   OH224962   5.108   4.522   1.281 -0.3905 -0.0363  0.4396
 8333TIP3    H124963   5.014   4.510   1.296 -0.1009 -0.3730  2.2110
 8333TIP3    H224964   5.115   4.540   1.187 -2.0899 -1.3476  0.0080
 8334TIP3   OH224965   2.024   3.679   1.789 -0.2894  0.3023 -0.2308
 8334TIP3    H124966   2.052   3.663   1.879  1.3519  0.3067 -0.7060
 8334TIP3    H224967   1.930   3.699   1.796 -0.4546 -0.8400  1.3301
 8335TIP3   OH224968   1.664   6.208   4.353 -0.2015 -0.1784  0.1281
 8335TIP3    H124969   1.619   6.124   4.346  0.4578 -0.7434  1.9233
 8335TIP3    H224970   1.756   6.187   4.334 -0.0873  0.2075  0.2443
 8336TIP3   OH224971   5.444   4.766   1.508  0.2570  0.0424 -0.1133
 8336TIP3    H124972   5.356   4.754   1.544  0.2860 -1.5603 -0.5011
 8336TIP3    H224973   5.476   4.845   1.551 -0.5702 -0.5352  1.6871
 8337TIP3   OH224974   0.304   5.649   5.635  0.2175 -0.2704 -0.1841
 8337TIP3    H124975   0.253   5.729   5.649 -2.5044 -1.6824 -1.2291
 8337TIP3    H224976   0.305   5.637   5.540 -0.7154 -2.1521 -0.0245
 8338TIP3   OH224977   7.121   0.890   3.868 -0.2754  0.6456 -0.1139
 8338TIP3    H124978   7.198   0.928   3.826 -0.9079  2.3771  0.1675
 8338TIP3    H224979   7.047   0.933   3.824 -1.2146 -2.4079 -1.7523
 8339TIP3   OH224980   0.137   1.499   3.962  0.1806  0.8359 -0.2731
 8339TIP3    H124981   0.143   1.445   4.041 -2.7151  1.1538  0.2751
 8339TIP3    H224982   0.095   1.580   3.991 -1.9545  0.5523 -2.2396
 8340TIP3   OH224983   5.403   6.539   4.939  0.1898 -0.4209  0.1987
 8340TIP3    H124984   5.477   6.591   4.972 -0.7740  1.2435 -0.1379
 8340TIP3    H224985   5.443   6.463   4.897  1.6271 -0.3135  1.2945
 8341TIP3   OH224986   1.589   0.823   3.717  0.6961  1.0374  0.2606
 8341TIP3    H124987   1.644   0.758   3.762  1.6291  0.9285 -0.9629
 8341TIP3    H224988   1.584   0.897   3.777  0.5137  0.2531  1.2312
 8342TIP3   OH224989   1.933   6.182   4.623 -0.1879 -0.4059 -0.2805
 8342TIP3    H124990   2.011   6.222   4.662  0.4941 -0.7569 -1.2684
 8342TIP3    H224991   1.861   6.213   4.679  0.5504  0.5793  0.1662
 8343TIP3   OH224992   3.029   5.465   0.033  0.0315 -0.0929  0.2391
 8343TIP3    H124993   3.023   5.498  -0.057  2.2469  1.0138  0.4117
 8343TIP3    H224994   3.104   5.405   0.031  1.0867  1.0881  1.5948
 8344TIP3   OH224995   2.169   0.965   4.065  0.3185  0.0599 -0.7554
 8344TIP3    H124996   2.125   0.919   4.136 -1.9157  0.9158 -1.5100
 8344TIP3    H224997   2.188   1.052   4.100  0.9736 -0.1461 -0.5930
 8345TIP3   OH224998   1.969   0.162   4.745  0.7911 -1.2311 -0.0541
 8345TIP3    H124999   1.990   0.192   4.657 -1.2053  1.7154  0.3080
 8345TIP3    H225000   2.029   0.212   4.802  0.3732 -1.2135  0.3787
 8346TIP3   OH225001   1.467   1.147   1.753  0.0197  0.2180 -0.2171
 8346TIP3    H125002   1.374   1.160   1.770 -0.2028 -0.9811 -0.4694
 8346TIP3    H225003   1.489   1.215   1.690 -0.7839  0.2438 -0.4829
 8347TIP3   OH225004   1.964   4.596   1.644 -0.1361 -0.3955  0.2993
 8347TIP3    H125005   2.045   4.597   1.695 -0.6133 -3.7846  1.3347
 8347TIP3    H225006   1.937   4.688   1.640  2.3439  0.5225  2.1705
 8348TIP3   OH225007   1.082   1.422   3.595 -0.5949  0.2948  0.5293
 8348TIP3    H125008   1.125   1.472   3.664 -1.2054 -0.0436  1.1713
 8348TIP3    H225009   1.029   1.357   3.642 -1.4838  0.4435 -0.2408
 8349TIP3   OH225010   2.389   4.683   5.704  0.0723 -0.3335  0.0298
 8349TIP3    H125011   2.453   4.640   5.646 -0.3615 -1.9958  0.7200
 8349TIP3    H225012   2.357   4.757   5.653 -0.2577 -1.6927 -1.8944
 8350TIP3   OH225013   2.689   3.210   4.016  0.2043  0.3346 -0.6052
 8350TIP3    H125014   2.690   3.279   3.950 -0.2053  2.7280  1.7448
 8350TIP3    H225015   2.615   3.231   4.072 -0.0681 -2.1763  0.1166
 8351TIP3   OH225016   5.691   3.084   2.831  0.1439 -0.0125 -0.0346
 8351TIP3    H125017   5.782   3.096   2.859 -0.3111  1.3472  1.0270
 8351TIP3    H225018   5.639   3.120   2.903 -1.2858 -1.6813 -0.1555
 8352TIP3   OH225019   5.810   3.704   1.084 -0.1739 -0.1610  0.1916
 8352TIP3    H125020   5.803   3.798   1.067 -1.2650  0.2218  2.4259
 8352TIP3    H225021   5.726   3.668   1.056  0.2103 -0.4754 -0.5799
 8353TIP3   OH225022   4.417   3.794   4.660 -0.4710  0.6878  0.0170
 8353TIP3    H125023   4.425   3.734   4.734 -0.0076  0.1911 -0.4246
 8353TIP3    H225024   4.498   3.781   4.610 -1.6281 -0.4635 -1.6527
 8354TIP3   OH225025   4.796   1.506   4.323  0.2986 -0.3050 -0.0153
 8354TIP3    H125026   4.879   1.544   4.296 -1.1255  1.1678 -2.7743
 8354TIP3    H225027   4.773   1.446   4.252 -2.1283  1.2422 -0.6492
 8355TIP3   OH225028   3.374   2.218   4.756 -0.4858  0.3464  0.3104
 8355TIP3    H125029   3.293   2.212   4.705  0.5388  0.3073 -1.4005
 8355TIP3    H225030   3.345   2.215   4.847 -2.3178 -0.8230 -0.2461
 8356TIP3   OH225031   6.933   6.793   0.344 -0.1163  0.3628 -0.2188
 8356TIP3    H125032   6.853   6.846   0.350  1.1157  2.1677  3.0148
 8356TIP3    H225033   6.922   6.725   0.411  0.2940 -0.5449 -1.0590
 8357TIP3   OH225034   7.060   0.101   1.043 -1.1907 -0.5721  0.2735
 8357TIP3    H125035   7.096   0.030   0.990 -1.3981 -0.0720 -0.5652
 8357TIP3    H225036   7.033   0.167   0.979  0.5707  1.0251  1.0959
 8358TIP3   OH225037   0.417   1.416   3.413 -0.3531  0.1730 -0.4796
 8358TIP3    H125038   0.510   1.436   3.419 -0.2238 -0.3902 -0.6027
 8358TIP3    H225039   0.396   1.423   3.320 -0.1021 -1.1262 -0.6586
 8359TIP3   OH225040   1.935   0.481   3.920 -0.1395 -0.4849 -0.2600
 8359TIP3    H125041   1.997   0.418   3.883 -0.1502  0.0293 -1.1821
 8359TIP3    H225042   1.924   0.453   4.011  0.3101 -1.4569 -0.4879
 8360TIP3   OH225043   6.908   6.708   5.350 -0.2683 -0.2345  0.6582
 8360TIP3    H125044   6.962   6.648   5.297  0.1523  0.9662 -0.3342
 8360TIP3    H225045   6.869   6.652   5.417  0.9841 -1.4243  0.4537
 8361TIP3   OH225046   2.703   4.245   3.059  0.8885  0.5357 -0.3122
 8361TIP3    H125047   2.652   4.239   3.140  1.2460 -0.4636 -0.1455
 8361TIP3    H225048   2.748   4.161   3.054  3.3781  1.7714  0.1120
 8362TIP3   OH225049   5.721   0.841   4.115  0.1271 -0.1500  0.2299
 8362TIP3    H125050   5.810   0.830   4.148 -0.1243  1.0962  1.4804
 8362TIP3    H225051   5.717   0.933   4.089  0.0020 -0.8577 -2.4864
 8363TIP3   OH225052   0.535   5.551   5.121  0.1114 -0.7590 -0.1001
 8363TIP3    H125053   0.490   5.605   5.056 -1.3283 -2.7614 -0.8525
 8363TIP3    H225054   0.476   5.549   5.197  0.0471 -1.4154 -0.1579
 8364TIP3   OH225055   3.387   1.231   2.649 -0.5118  0.3631 -0.0685
 8364TIP3    H125056   3.416   1.306   2.700  2.1124  0.0293 -0.8856
 8364TIP3    H225057   3.428   1.156   2.691 -1.7180 -0.4089 -0.2447
 8365TIP3   OH225058   5.469   0.938   2.154  0.2736 -0.2889 -0.3221
 8365TIP3    H125059   5.397   0.997   2.177  1.9145  1.7707 -0.1927
 8365TIP3    H225060   5.477   0.945   2.059 -0.3850 -1.4061 -0.4799
 8366TIP3   OH225061   0.423   3.664   3.767 -0.3509 -0.8372 -0.0205
 8366TIP3    H125062   0.413   3.602   3.839 -1.3468 -1.1454 -0.4191
 8366TIP3    H225063   0.488   3.624   3.710  0.5139 -0.5507  0.7257
 8367TIP3   OH225064   3.110   2.208   1.849 -0.0404 -0.1638 -0.5364
 8367TIP3    H125065   3.161   2.287   1.829 -0.0225  0.3168  1.2336
 8367TIP3    H225066   3.098   2.211   1.944 -1.5008 -1.4146 -0.6448
 8368TIP3   OH225067   0.714   4.967   2.898  0.4288  0.3309  0.0242
 8368TIP3    H125068   0.704   4.875   2.871 -1.1102  0.5204 -0.1631
 8368TIP3    H225069   0.782   5.002   2.840  1.8075 -0.9404  0.8022
 8369TIP3   OH225070   0.681   1.200   1.569 -0.5263 -0.0364 -0.6755
 8369TIP3    H125071   0.737   1.271   1.599 -0.5492 -0.4509  0.3913
 8369TIP3    H225072   0.702   1.190   1.476  1.2307 -0.2331 -0.2950
 8370TIP3   OH225073   3.004   4.785   1.561  0.6613  0.0658  0.0473
 8370TIP3    H125074   3.008   4.810   1.654 -0.6008  1.5416 -0.2558
 8370TIP3    H225075   3.093   4.756   1.541  1.0087 -0.1079  1.6688
 8371TIP3   OH225076   3.119   3.794   1.490 -0.3993 -1.0395 -0.3945
 8371TIP3    H125077   3.113   3.871   1.547  2.3668 -0.2582 -1.0170
 8371TIP3    H225078   3.041   3.800   1.435 -1.1796  0.3023  0.7764
 8372TIP3   OH225079   4.857   3.016   0.019  0.5904 -0.2393 -0.0442
 8372TIP3    H125080   4.942   2.993  -0.018  0.6805 -0.4572  0.2954
 8372TIP3    H225081   4.830   2.938   0.067  0.6047  0.1280  0.5841
 8373TIP3   OH225082   1.931   0.356   4.174 -0.1666 -0.4799 -0.1025
 8373TIP3    H125083   2.015   0.328   4.209 -0.0703  0.4745  0.4494
 8373TIP3    H225084   1.871   0.284   4.194  0.0878 -0.3400  1.2262
 8374TIP3   OH225085   3.476   0.038   4.916 -0.3215  0.1942  0.0957
 8374TIP3    H125086   3.393   0.063   4.874 -0.3393 -0.0052  0.0070
 8374TIP3    H225087   3.520   0.120   4.934  1.0120  0.2887 -2.9377
 8375TIP3   OH225088   1.164   2.601   2.166 -0.8363  0.1625  0.7823
 8375TIP3    H125089   1.256   2.588   2.143 -1.0230 -1.7228  0.9243
 8375TIP3    H225090   1.116   2.577   2.086 -1.2403 -0.1946  1.1242
 8376TIP3   OH225091   0.418   1.317   1.065  0.1409 -0.1451 -0.3462
 8376TIP3    H125092   0.406   1.337   0.973  0.5510 -1.2059 -0.6422
 8376TIP3    H225093   0.361   1.379   1.111  0.5118  0.8870 -1.2674
 8377TIP3   OH225094   0.210   2.675   1.847  0.2579 -0.1773 -0.2471
 8377TIP3    H125095   0.126   2.684   1.893 -0.2925  0.8898 -1.4191
 8377TIP3    H225096   0.208   2.587   1.811 -0.1823 -0.3015  0.0698
 8378TIP3   OH225097   4.966   4.879   1.068  0.1399  0.7373  0.2842
 8378TIP3    H125098   4.912   4.860   1.145 -0.7957 -2.3300 -0.9722
 8378TIP3    H225099   5.048   4.911   1.104  0.1718 -1.7144  2.7251
 8379TIP3   OH225100   0.356   2.919   5.268  0.1645 -0.3360  0.4954
 8379TIP3    H125101   0.316   2.933   5.354 -0.1044 -0.5436  0.4048
 8379TIP3    H225102   0.346   3.002   5.222  0.9756  0.0131  0.9342
 8380TIP3   OH225103   1.314   3.219   2.092 -0.1587  0.3433  0.3977
 8380TIP3    H125104   1.336   3.235   2.000 -0.5693  0.3921  0.3068
 8380TIP3    H225105   1.387   3.257   2.140 -0.4521  1.2803  0.1285
 8381TIP3   OH225106   4.924   5.715   2.093  0.4782  0.5180  0.5125
 8381TIP3    H125107   4.993   5.650   2.109 -0.0063  0.2623  1.6606
 8381TIP3    H225108   4.844   5.663   2.091  0.3323  0.7264 -1.4378
 8382TIP3   OH225109   2.772   6.466   2.644  0.4628  0.4010 -0.2388
 8382TIP3    H125110   2.783   6.560   2.657 -2.1602  0.7916 -0.2448
 8382TIP3    H225111   2.681   6.457   2.613  0.3137 -2.2193  0.7376
 8383TIP3   OH225112   1.517   4.730   3.759 -0.2296 -0.4003  0.0118
 8383TIP3    H125113   1.523   4.670   3.685 -1.3406  0.2812 -0.6760
 8383TIP3    H225114   1.519   4.673   3.837 -0.4896 -1.2607 -0.5922
 8384TIP3   OH225115   4.051   4.810   1.049  0.3581 -0.2372  0.1258
 8384TIP3    H125116   3.972   4.863   1.062  1.0099  0.3249  2.1136
 8384TIP3    H225117   4.117   4.873   1.021  0.1948 -0.6740 -1.3234
 8385TIP3   OH225118   5.776   5.671   3.188 -0.1889 -0.2211 -0.1299
 8385TIP3    H125119   5.734   5.743   3.236 -1.1790 -0.8628  0.0062
 8385TIP3    H225120   5.712   5.599   3.192 -0.7796 -0.0296 -3.2090
 8386TIP3   OH225121   2.155   5.706   2.279  0.1433  0.1199  0.1987
 8386TIP3    H125122   2.227   5.644   2.269  0.6477  0.5411  1.1348
 8386TIP3    H225123   2.098   5.689   2.203 -0.1637 -2.0176  0.8524
 8387TIP3   OH225124   0.958   4.863   4.919 -0.1561  0.3437  0.3265
 8387TIP3    H125125   0.899   4.911   4.977 -0.8357 -1.6311  1.3763
 8387TIP3    H225126   1.022   4.824   4.978  0.4913  0.1357 -0.5049
 8388TIP3   OH225127   4.610   2.423   0.374 -0.3932 -0.1723  0.1074
 8388TIP3    H125128   4.520   2.390   0.363 -1.1052  1.7269 -0.2438
 8388TIP3    H225129   4.615   2.498   0.315  1.7215 -0.7006 -0.4675
 8389TIP3   OH225130   6.066   3.734   4.128 -0.6657 -0.4114  0.4074
 8389TIP3    H125131   5.991   3.676   4.123 -0.3519 -0.7799 -0.0720
 8389TIP3    H225132   6.108   3.728   4.042 -1.0803  1.1416  0.0711
 8390TIP3   OH225133   6.455   4.372   1.123 -0.0627 -0.3284  0.4437
 8390TIP3    H125134   6.413   4.450   1.087 -1.2561 -0.2950  1.7921
 8390TIP3    H225135   6.424   4.369   1.214  2.4984 -0.5968  1.3677
 8391TIP3   OH225136   1.740   3.820   3.704  0.1755  0.6484  0.1996
 8391TIP3    H125137   1.691   3.898   3.676 -1.6194 -0.1883  0.8319
 8391TIP3    H225138   1.818   3.855   3.747 -0.2561  2.0785 -0.1146
 8392TIP3   OH225139   4.117   5.098   2.577 -0.1532 -0.3715 -0.2572
 8392TIP3    H125140   4.124   5.187   2.612 -0.5098 -0.3332 -0.2866
 8392TIP3    H225141   4.028   5.070   2.597 -0.3537 -0.3646 -1.1118
 8393TIP3   OH225142   3.087   2.207   2.123  0.3074  0.0025 -0.1209
 8393TIP3    H125143   3.147   2.151   2.172  2.1456  0.8240 -1.2897
 8393TIP3    H225144   3.048   2.264   2.189 -0.6658 -1.7703  0.9154
 8394TIP3   OH225145   0.138   4.429   2.060 -0.3126 -0.0475 -0.1595
 8394TIP3    H125146   0.058   4.478   2.076 -0.1230 -0.1349  1.0920
 8394TIP3    H225147   0.128   4.395   1.971 -0.2061  2.7286 -1.3318
 8395TIP3   OH225148   1.286   0.053   0.651 -0.2233 -0.0128 -0.0360
 8395TIP3    H125149   1.233   0.113   0.598  0.1995 -0.8275 -1.4416
 8395TIP3    H225150   1.237   0.044   0.733 -1.2271  0.8162 -0.5181
 8396TIP3   OH225151   6.300   2.886   5.734  0.0286 -0.3529 -0.1716
 8396TIP3    H125152   6.222   2.916   5.688  0.7388  3.4249  0.7659
 8396TIP3    H225153   6.277   2.893   5.827  0.8490 -1.1963  0.1144
 8397TIP3   OH225154   3.092   4.659   3.040  0.2351  0.2018 -0.0284
 8397TIP3    H125155   3.035   4.728   3.074  0.2677  0.9681 -1.4137
 8397TIP3    H225156   3.045   4.578   3.057 -0.3919  0.6738  0.5358
 8398TIP3   OH225157   4.795   4.882   1.289 -0.1724 -0.5579  0.0111
 8398TIP3    H125158   4.818   4.859   1.379  0.5615  0.2074  0.0322
 8398TIP3    H225159   4.727   4.949   1.299  0.5891  0.2184  0.0138
 8399TIP3   OH225160   0.004   6.383   5.464 -0.0222  0.0441  0.7230
 8399TIP3    H125161   0.019   6.471   5.497  1.9953  0.0824 -0.1735
 8399TIP3    H225162   0.075   6.331   5.501  0.0305 -0.7318 -0.4288
 8400TIP3   OH225163   6.025   1.349   5.787 -0.0239 -0.1210  0.0786
 8400TIP3    H125164   6.064   1.325   5.871 -1.7983 -1.5228  0.5739
 8400TIP3    H225165   6.006   1.265   5.744 -1.3416  0.4989 -0.6271
 8401TIP3   OH225166   6.484   6.530   0.939 -0.6989  0.1711 -0.0633
 8401TIP3    H125167   6.400   6.576   0.938 -1.4081 -0.9107  2.0895
 8401TIP3    H225168   6.540   6.582   0.996 -0.6103 -0.1785  0.1765
 8402TIP3   OH225169   2.984   5.313   5.863 -0.1802 -0.2174 -0.7994
 8402TIP3    H125170   2.996   5.306   5.768  1.6529  0.8689 -0.6884
 8402TIP3    H225171   3.039   5.243   5.899 -0.1595 -0.0466 -0.4977
 8403TIP3   OH225172   3.820   1.707   2.759  0.1271 -0.1617  0.6248
 8403TIP3    H125173   3.887   1.734   2.821  0.2490 -0.3110  0.5588
 8403TIP3    H225174   3.800   1.786   2.708 -0.9033  0.3055  1.7046
 8404TIP3   OH225175   2.224   2.344   1.103 -0.6518 -0.5866 -0.0862
 8404TIP3    H125176   2.273   2.323   1.023 -0.5124  1.2460 -0.5263
 8404TIP3    H225177   2.133   2.324   1.081 -0.5010 -0.9428 -0.3985
 8405TIP3   OH225178   2.298   6.508   0.894  0.4064  0.2023 -0.0340
 8405TIP3    H125179   2.231   6.577   0.893  1.3328  1.1267 -0.8886
 8405TIP3    H225180   2.251   6.429   0.921 -0.7471  1.0982  0.6655
 8406TIP3   OH225181   0.441   4.124   5.911  0.4501  0.6541  0.0844
 8406TIP3    H125182   0.383   4.072   5.856 -0.4881  0.2242  1.4343
 8406TIP3    H225183   0.528   4.084   5.898  0.1538  0.2482 -0.6884
 8407TIP3   OH225184   4.113   6.413   5.463 -0.3212 -0.4377  0.3958
 8407TIP3    H125185   4.128   6.505   5.485 -1.7654  0.4411 -1.9110
 8407TIP3    H225186   4.074   6.375   5.542  0.8497  0.7224  1.5917
 8408TIP3   OH225187   4.857   5.172   5.870 -0.2424  0.7858 -0.3188
 8408TIP3    H125188   4.913   5.150   5.944 -0.5180 -1.6937 -0.7664
 8408TIP3    H225189   4.916   5.171   5.794 -0.3864  0.9774 -0.4348
 8409TIP3   OH225190   6.110   5.804   2.629  0.0463  0.1348  0.3063
 8409TIP3    H125191   6.197   5.835   2.602  0.1329 -0.8469 -0.6157
 8409TIP3    H225192   6.128   5.724   2.678 -0.2038  1.2189  2.2795
 8410TIP3   OH225193   2.618   5.198   4.502 -0.2194  0.0897 -0.1429
 8410TIP3    H125194   2.569   5.212   4.421  0.7368  0.0020 -0.7505
 8410TIP3    H225195   2.578   5.120   4.541 -2.1878  1.4070  0.6571
 8411TIP3   OH225196   3.591   3.387   2.651 -0.1472 -0.2591  0.5092
 8411TIP3    H125197   3.518   3.343   2.608  1.4077 -1.1254 -1.4059
 8411TIP3    H225198   3.593   3.475   2.613  0.8323 -0.8143 -0.7923
 8412TIP3   OH225199   4.131   0.112   5.848  0.1712  0.2478 -0.1134
 8412TIP3    H125200   4.169   0.049   5.787 -0.7992 -0.3986 -0.0649
 8412TIP3    H225201   4.041   0.084   5.859 -0.2568  1.5756  0.0029
 8413TIP3   OH225202   5.774   3.624   2.791 -0.2593 -1.3339 -0.0336
 8413TIP3    H125203   5.822   3.706   2.788 -0.1540 -1.3157  1.4001
 8413TIP3    H225204   5.687   3.648   2.825 -0.2963 -1.7798  0.1970
 8414TIP3   OH225205   5.989   3.801   2.704  0.3759  0.3164  0.1354
 8414TIP3    H125206   6.067   3.847   2.671  0.2863 -0.9580 -2.0029
 8414TIP3    H225207   6.006   3.709   2.685 -1.2770 -0.0807  0.4622
 8415TIP3   OH225208   5.937   4.637   1.472  0.6390 -0.3378  0.8658
 8415TIP3    H125209   6.001   4.620   1.403  0.8999  0.7498  0.8134
 8415TIP3    H225210   5.854   4.648   1.425  1.1684  2.5558  0.4183
 8416TIP3   OH225211   6.685   5.218   5.237  0.1930 -0.2063 -0.0063
 8416TIP3    H125212   6.748   5.290   5.227 -1.0890  0.8919 -0.5274
 8416TIP3    H225213   6.739   5.142   5.258  1.8120  0.4231 -1.5827
 8417TIP3   OH225214   4.987   0.236   0.576  0.2540 -0.2100  0.0591
 8417TIP3    H125215   5.026   0.295   0.511  0.8079  0.0250  0.5958
 8417TIP3    H225216   4.968   0.292   0.651  0.0579 -0.5700  0.2815
 8418TIP3   OH225217   3.675   1.691   1.395 -0.0892 -0.0317 -0.0192
 8418TIP3    H125218   3.602   1.683   1.457  1.3965 -1.8376  1.6286
 8418TIP3    H225219   3.730   1.760   1.431 -0.0201  0.0117 -0.2056
 8419TIP3   OH225220   2.986   0.314   2.388  0.2527  0.5831 -0.0025
 8419TIP3    H125221   3.069   0.266   2.384 -0.4606 -0.7743  1.0260
 8419TIP3    H225222   2.925   0.262   2.337 -1.6128 -2.0457  4.3081
 8420TIP3   OH225223   4.904   0.242   3.865 -0.1007  0.1807  0.6028
 8420TIP3    H125224   4.940   0.164   3.908 -0.0748 -1.0205 -1.4776
 8420TIP3    H225225   4.821   0.257   3.911  0.2097 -0.6565  1.4870
 8421TIP3   OH225226   2.185   5.412   5.670  0.0775  0.7315  0.3431
 8421TIP3    H125227   2.245   5.482   5.693 -1.6220  2.2321  0.4604
 8421TIP3    H225228   2.210   5.386   5.581  1.7902  0.2750  0.9331
 8422TIP3   OH225229   1.840   6.003   2.052  0.1102 -0.0662  0.5670
 8422TIP3    H125230   1.772   6.050   2.100  0.7728  1.0551  0.4529
 8422TIP3    H225231   1.919   6.056   2.064  1.2388 -1.8822  1.5882
 8423TIP3   OH225232   3.924   0.354   5.063 -0.1124  0.8144  0.1110
 8423TIP3    H125233   3.855   0.289   5.071  0.6945 -0.2226 -0.9733
 8423TIP3    H225234   3.881   0.437   5.081 -1.5879  0.1703 -0.2873
 8424TIP3   OH225235   1.915   2.396   1.051 -0.2546 -0.6627 -0.2572
 8424TIP3    H125236   1.867   2.382   1.133 -0.9023  1.7847 -0.1583
 8424TIP3    H225237   1.901   2.315   1.002 -0.9504 -1.6708  1.4925
 8425TIP3   OH225238   1.855   0.949   4.202 -0.1248  0.5712  0.1789
 8425TIP3    H125239   1.836   0.973   4.111  2.7988  0.6164 -0.5059
 8425TIP3    H225240   1.842   0.854   4.204  0.8799  0.3982 -0.6212
 8426TIP3   OH225241   0.696   1.483   0.409 -0.2403  0.2582  0.5373
 8426TIP3    H125242   0.673   1.562   0.360 -0.0294  0.5500  0.9061
 8426TIP3    H225243   0.789   1.469   0.389 -0.5646 -0.5960 -0.4968
 8427TIP3   OH225244   5.219   1.674   4.044 -0.1647 -0.2724 -0.5989
 8427TIP3    H125245   5.255   1.672   4.133 -0.7876 -0.9956 -0.3563
 8427TIP3    H225246   5.296   1.675   3.987  0.3056 -2.7972 -0.1172
 8428TIP3   OH225247   6.222   4.985   3.156 -0.6708 -0.9532  0.6796
 8428TIP3    H125248   6.171   5.023   3.227 -0.6672  0.4173 -0.0087
 8428TIP3    H225249   6.260   5.060   3.111 -1.5629 -1.6930 -1.4432
 8429TIP3   OH225250   3.408   2.393   2.679 -0.0689 -0.5956  0.5042
 8429TIP3    H125251   3.366   2.466   2.633  0.6862 -0.5151 -0.0697
 8429TIP3    H225252   3.375   2.315   2.635 -1.2206 -0.6489  1.3989
 8430TIP3   OH225253   6.803   1.380   2.313  0.2441  0.0351 -0.1679
 8430TIP3    H125254   6.750   1.358   2.390  2.4913 -0.6882  1.2733
 8430TIP3    H225255   6.830   1.295   2.278  1.5630  0.3599 -0.0082
 8431TIP3   OH225256   4.548   5.128   5.649  0.3497 -0.1425  0.1540
 8431TIP3    H125257   4.562   5.035   5.666 -0.7880 -0.1026  1.5005
 8431TIP3    H225258   4.508   5.131   5.562 -2.2908 -1.2065  1.2458
 8432TIP3   OH225259   3.025   0.959   5.049  0.1122  0.4352  0.0586
 8432TIP3    H125260   2.950   1.015   5.028 -1.2512 -1.2998  0.0870
 8432TIP3    H225261   3.063   0.936   4.964 -1.0088 -0.7721 -0.1405
 8433TIP3   OH225262   6.043   4.000   3.433  0.6454 -0.4017 -0.3021
 8433TIP3    H125263   6.057   4.065   3.502 -0.4280  1.3456 -1.6517
 8433TIP3    H225264   6.077   3.918   3.470  0.4850  0.5464  2.1074
 8434TIP3   OH225265   6.891   4.809   4.637 -0.3214 -0.1313  1.0021
 8434TIP3    H125266   6.951   4.761   4.580  1.3667  1.3811  1.4063
 8434TIP3    H225267   6.828   4.744   4.666  0.2063 -1.4558 -0.6718
 8435TIP3   OH225268   4.115   0.308   4.861 -0.1769 -0.2712 -0.1407
 8435TIP3    H125269   4.050   0.329   4.928  0.0402 -0.2877  0.0770
 8435TIP3    H225270   4.195   0.288   4.910  0.3671  1.0451 -0.4409
 8436TIP3   OH225271   3.499   2.786   2.821 -0.2724 -0.1220  0.1987
 8436TIP3    H125272   3.518   2.701   2.860 -1.2268 -0.2296  0.4466
 8436TIP3    H225273   3.571   2.842   2.850 -1.1327 -0.0849  2.4608
 8437TIP3   OH225274   2.015   5.240   1.489 -0.1955 -0.0367 -0.1007
 8437TIP3    H125275   2.092   5.240   1.546 -0.2707  0.4319 -0.0001
 8437TIP3    H225276   1.943   5.214   1.547  0.0116 -1.3007 -0.3749
 8438TIP3   OH225277   0.371   3.874   2.624 -0.1527  0.1893 -0.2512
 8438TIP3    H125278   0.410   3.790   2.648  0.9702  0.6560 -0.3959
 8438TIP3    H225279   0.280   3.867   2.652 -0.1400 -1.1629 -0.4843
 8439TIP3   OH225280   1.405   1.441   3.495  0.1359 -0.2935  0.6209
 8439TIP3    H125281   1.362   1.515   3.537  0.2102 -0.3979  0.8843
 8439TIP3    H225282   1.493   1.438   3.534 -0.2182 -1.1603  1.4169
 8440TIP3   OH225283   2.240   3.097   2.344 -0.9053  0.2368 -0.1185
 8440TIP3    H125284   2.263   3.138   2.428 -0.4807 -0.4168  0.0846
 8440TIP3    H225285   2.194   3.017   2.368  0.1966 -0.5264 -0.4912
 8441TIP3   OH225286   1.581   3.041   5.270 -0.1844 -0.2209  0.0864
 8441TIP3    H125287   1.648   3.101   5.238 -0.4530 -0.5614 -1.1703
 8441TIP3    H225288   1.545   3.001   5.191  0.1125 -2.1873  0.8988
 8442TIP3   OH225289   6.349   2.836   4.108 -0.2822 -0.0610  0.0937
 8442TIP3    H125290   6.305   2.753   4.089  1.4090 -0.9735  0.0107
 8442TIP3    H225291   6.351   2.840   4.204  1.3013 -1.0860  0.1407
 8443TIP3   OH225292   4.641   5.623   0.082  0.3612  0.0074  0.5894
 8443TIP3    H125293   4.622   5.563   0.010 -2.3985  1.0535  0.3028
 8443TIP3    H225294   4.604   5.580   0.159  1.0566  0.0277  0.9434
 8444TIP3   OH225295   1.323   1.673   3.663  0.5462  0.0943  0.5000
 8444TIP3    H125296   1.235   1.673   3.700  0.2053 -1.3226 -0.2283
 8444TIP3    H225297   1.355   1.763   3.676 -1.6316  1.1331 -0.6707
 8445TIP3   OH225298   5.047   0.670   4.260  0.2478 -0.3638 -0.2811
 8445TIP3    H125299   4.972   0.639   4.209 -1.0587  1.9227  0.1084
 8445TIP3    H225300   5.086   0.738   4.206  0.4162  0.2939  0.6529
 8446TIP3   OH225301   2.994   3.360   5.111  0.1947  0.2324 -0.2939
 8446TIP3    H125302   2.977   3.390   5.200 -2.2981  1.8546 -1.1853
 8446TIP3    H225303   3.014   3.267   5.120 -1.7991 -0.1003  1.8481
 8447TIP3   OH225304   1.818   1.705   2.838 -0.2880  0.0657  0.4370
 8447TIP3    H125305   1.768   1.644   2.891 -0.1475  0.0105  0.5077
 8447TIP3    H225306   1.851   1.653   2.765 -0.4208  0.1250  0.3361
 8448TIP3   OH225307   6.861   6.570   2.025 -0.3345 -0.4833  0.0047
 8448TIP3    H125308   6.894   6.537   2.109 -1.7338 -1.2210  0.3055
 8448TIP3    H225309   6.879   6.500   1.963  0.1204 -0.2076 -0.1742
 8449TIP3   OH225310   3.013   1.180   1.810  0.1880  0.5698 -0.6228
 8449TIP3    H125311   2.972   1.240   1.748 -0.8436  0.6139  0.0710
 8449TIP3    H225312   2.963   1.191   1.891  1.6604  0.6929  0.2985
 8450TIP3   OH225313   4.445   4.031   3.404  0.5103  0.2440 -0.1299
 8450TIP3    H125314   4.457   3.952   3.457  0.6925  0.5023  0.2199
 8450TIP3    H225315   4.406   4.000   3.322  1.5374 -0.3426 -0.4131
 8451TIP3   OH225316   2.849   6.188   3.439  0.0344 -0.7167  0.9489
 8451TIP3    H125317   2.848   6.096   3.414  2.7428 -0.6595  0.3644
 8451TIP3    H225318   2.838   6.187   3.534 -3.5649 -1.3333  0.6673
 8452TIP3   OH225319   3.331   0.846   1.834  0.0635 -0.1926 -0.1737
 8452TIP3    H125320   3.276   0.906   1.783 -0.0622  0.5302  0.7668
 8452TIP3    H225321   3.389   0.904   1.884 -1.1565 -0.7437  1.9918
 8453TIP3   OH225322   4.249   5.044   0.287  0.4311  0.2181  0.2041
 8453TIP3    H125323   4.287   5.104   0.351  0.5243  2.2791 -1.6762
 8453TIP3    H225324   4.233   5.098   0.209 -0.8686 -1.8885 -1.0951
 8454TIP3   OH225325   3.871   0.030   2.204 -0.7547  0.2300 -0.2363
 8454TIP3    H125326   3.846   0.099   2.265 -0.7932  0.1266 -0.1341
 8454TIP3    H225327   3.874  -0.049   2.258  0.5453  0.3571 -0.0728
 8455TIP3   OH225328   4.579   1.888   1.529  0.0994  0.2663  0.1198
 8455TIP3    H125329   4.597   1.911   1.438  1.3613  1.5127  0.6464
 8455TIP3    H225330   4.517   1.953   1.560  0.2414  0.2946  0.3543
 8456TIP3   OH225331   0.725   1.713   5.479  0.0460 -0.0804  0.3490
 8456TIP3    H125332   0.712   1.785   5.540 -1.1464  1.1936 -1.3230
 8456TIP3    H225333   0.668   1.643   5.511  0.1082  0.2356  1.1668
 8457TIP3   OH225334   2.812   2.164   4.190  0.0262  0.0773 -0.1319
 8457TIP3    H125335   2.818   2.186   4.097  1.0456  1.0337  0.1441
 8457TIP3    H225336   2.765   2.081   4.192  2.1414 -1.2355 -1.6597
 8458TIP3   OH225337   6.226   1.302   5.021 -0.4037 -0.4741 -0.8995
 8458TIP3    H125338   6.134   1.277   5.012 -0.6552 -0.0022  0.2053
 8458TIP3    H225339   6.239   1.368   4.953 -1.4347  0.8716  0.1550
 8459TIP3   OH225340   5.200   2.119   0.762  0.0938 -0.4420  0.1289
 8459TIP3    H125341   5.209   2.090   0.853  0.1156 -0.1949  0.2084
 8459TIP3    H225342   5.122   2.074   0.730 -0.4130  0.1251  0.5346
 8460TIP3   OH225343   0.462   5.350   5.348  0.1775  0.1148 -0.5937
 8460TIP3    H125344   0.507   5.287   5.404  0.1323 -0.9846 -1.7696
 8460TIP3    H225345   0.499   5.435   5.373 -0.0122 -0.2992  1.2618
 8461TIP3   OH225346   6.038   2.454   0.406 -0.0063  0.0496  0.3519
 8461TIP3    H125347   5.993   2.534   0.431  1.1599  0.7287  0.3589
 8461TIP3    H225348   6.119   2.484   0.363  0.1355 -1.1149 -0.2410
 8462TIP3   OH225349   4.052   6.512   2.069  0.1040 -0.3142  0.3804
 8462TIP3    H125350   4.001   6.593   2.059 -1.1282 -0.7840  2.2113
 8462TIP3    H225351   3.986   6.445   2.088  1.0839 -1.8325 -1.3258
 8463TIP3   OH225352   6.046   6.165   1.176 -0.1098 -0.0257 -0.0723
 8463TIP3    H125353   6.130   6.171   1.132 -0.6692 -1.9536 -1.5534
 8463TIP3    H225354   6.000   6.246   1.154  1.0147  0.6606  0.0547
 8464TIP3   OH225355   6.697   3.616   4.696  0.9306 -0.2882 -0.1248
 8464TIP3    H125356   6.685   3.648   4.607  1.1605  0.9132  0.2612
 8464TIP3    H225357   6.780   3.654   4.725  0.9626 -0.8363  0.5256
 8465TIP3   OH225358   5.946   1.414   0.466 -0.0603  0.1941  0.1197
 8465TIP3    H125359   6.016   1.478   0.475  0.6029 -0.6875  1.5693
 8465TIP3    H225360   5.962   1.350   0.536 -2.0378 -0.2821  0.2073
 8466TIP3   OH225361   3.903   3.236   1.690 -0.2434  0.2753  0.2395
 8466TIP3    H125362   3.823   3.288   1.688  0.6335  1.6983 -0.5167
 8466TIP3    H225363   3.914   3.211   1.781 -0.8077  1.2897  0.6028
 8467TIP3   OH225364   6.396   4.635   1.929 -0.5909 -0.2696 -0.0155
 8467TIP3    H125365   6.383   4.544   1.956 -1.3828 -0.2423 -0.2774
 8467TIP3    H225366   6.427   4.628   1.838 -1.1821 -0.2746 -0.2250
 8468TIP3   OH225367   1.521   3.677   2.229 -0.2588  0.5069 -0.4005
 8468TIP3    H125368   1.529   3.764   2.267  1.5337  0.1659  0.1081
 8468TIP3    H225369   1.505   3.620   2.304 -1.4230  0.3698 -0.7320
 8469TIP3   OH225370   1.008   1.646   1.309 -0.5211  0.2547 -0.6741
 8469TIP3    H125371   1.029   1.554   1.292 -0.2707  0.4820 -1.6747
 8469TIP3    H225372   0.914   1.653   1.289 -0.6833  0.0912  0.0017
 8470TIP3   OH225373   2.190   5.657   0.826  0.4761 -0.2766  0.2051
 8470TIP3    H125374   2.131   5.610   0.884  1.0123 -0.5735  0.5127
 8470TIP3    H225375   2.176   5.750   0.848 -0.9152 -0.2348 -0.7257
 8471TIP3   OH225376   5.958   6.670   5.061  0.3554  0.1169  0.4094
 8471TIP3    H125377   5.913   6.754   5.052 -0.4156 -0.4013 -0.8907
 8471TIP3    H225378   5.927   6.619   4.986  2.5472 -0.5380 -0.1079
 8472TIP3   OH225379   4.787   0.537   4.173  0.0263  0.1437 -0.3977
 8472TIP3    H125380   4.770   0.490   4.092  1.5842  1.7123 -1.7315
 8472TIP3    H225381   4.728   0.612   4.170  0.7137  0.6914 -0.5534
 8473TIP3   OH225382   5.614   2.299   1.360  0.7349  0.6416  0.0867
 8473TIP3    H125383   5.598   2.346   1.278 -0.6119  1.6148  0.8576
 8473TIP3    H225384   5.615   2.207   1.335 -2.2420  0.7356 -0.7441
 8474TIP3   OH225385   4.062   0.880   3.902 -0.0254 -0.6669 -0.2952
 8474TIP3    H125386   4.046   0.804   3.846 -0.3922 -1.2661  0.5907
 8474TIP3    H225387   4.049   0.847   3.991 -1.2529  0.6900  0.0692
 8475TIP3   OH225388   5.535   4.853   5.852 -0.7948  0.0204  0.1395
 8475TIP3    H125389   5.566   4.764   5.867  1.0132  0.2304 -1.8714
 8475TIP3    H225390   5.470   4.846   5.783 -0.1016  0.3262 -0.5528
 8476TIP3   OH225391   1.852   2.064   5.784  0.3057  0.4069  0.5560
 8476TIP3    H125392   1.931   2.018   5.756 -0.7698 -1.2087  0.0526
 8476TIP3    H225393   1.788   1.995   5.801 -2.2813  1.6708 -2.8663
 8477TIP3   OH225394   3.465   6.515   0.370  0.0887  0.4608  0.0244
 8477TIP3    H125395   3.473   6.437   0.316  2.1106 -0.0707  0.9800
 8477TIP3    H225396   3.386   6.501   0.422  0.6756 -1.2015  0.5184
 8478TIP3   OH225397   5.246   0.015   2.588  0.1693 -0.0284 -0.4776
 8478TIP3    H125398   5.176   0.079   2.581  0.4732  0.3012 -0.4907
 8478TIP3    H225399   5.249  -0.027   2.501 -0.5105 -0.5717 -0.2501
 8479TIP3   OH225400   4.028   1.951   4.677  0.1645 -0.0425  0.1478
 8479TIP3    H125401   3.959   2.018   4.676 -1.7725 -1.9285 -0.0865
 8479TIP3    H225402   4.086   1.975   4.605 -1.3356  0.5669 -0.9134
 8480TIP3   OH225403   1.600   5.355   4.350  0.7744 -0.0516  0.1060
 8480TIP3    H125404   1.572   5.426   4.406 -0.0165  0.3644 -0.7956
 8480TIP3    H225405   1.587   5.276   4.402 -0.0191  0.3199  0.4728
 8481TIP3   OH225406   3.132   2.686   0.641 -0.4863 -0.0016  0.1585
 8481TIP3    H125407   3.052   2.634   0.627 -0.0902 -0.0947 -2.2037
 8481TIP3    H225408   3.188   2.663   0.567  1.0657  1.3209  0.8737
 8482TIP3   OH225409   3.133   1.357   2.881  0.1681 -0.2891  0.5618
 8482TIP3    H125410   3.186   1.380   2.804  1.3463  0.7051  1.6201
 8482TIP3    H225411   3.185   1.387   2.956 -1.4637 -0.1571  1.7102
 8483TIP3   OH225412   3.792   6.663   4.899  0.2984 -0.1691  0.1685
 8483TIP3    H125413   3.807   6.739   4.955 -1.0535  0.2560 -0.0352
 8483TIP3    H225414   3.760   6.698   4.817 -1.3685 -0.9952  0.4290
 8484TIP3   OH225415   0.483   3.495   0.560  0.4904 -0.8270  0.2681
 8484TIP3    H125416   0.560   3.455   0.600  0.3979 -0.0927  1.2019
 8484TIP3    H225417   0.467   3.573   0.612 -1.0607 -1.1219  0.2595
 8485TIP3   OH225418   0.165   1.202   1.362  0.3214  0.3136 -0.4572
 8485TIP3    H125419   0.256   1.231   1.359  0.5763 -0.4635 -0.5052
 8485TIP3    H225420   0.167   1.122   1.414 -0.3935  0.4917 -0.1536
 8486TIP3   OH225421   4.158   2.278   3.479  0.5395 -0.4693 -0.1842
 8486TIP3    H125422   4.174   2.293   3.386 -0.5323 -0.8429 -0.4530
 8486TIP3    H225423   4.237   2.309   3.523  1.2626 -0.7279 -1.2537
 8487TIP3   OH225424   5.486   5.318   5.298  0.0649  0.4212 -0.3096
 8487TIP3    H125425   5.473   5.389   5.235 -0.2403 -0.3160 -1.1043
 8487TIP3    H225426   5.500   5.362   5.381  0.6259  1.4307 -0.9149
 8488TIP3   OH225427   5.807   0.580   2.803  0.1523 -0.2722  0.2567
 8488TIP3    H125428   5.825   0.651   2.743 -1.4947 -0.8277 -0.9599
 8488TIP3    H225429   5.735   0.612   2.858 -0.2378 -0.7775  0.0529
 8489TIP3   OH225430   6.425   6.289   0.830  0.4102  0.2100  0.2543
 8489TIP3    H125431   6.425   6.380   0.860  0.7278  0.6695 -1.0859
 8489TIP3    H225432   6.516   6.261   0.837  0.5500  0.4329 -0.5728
 8490TIP3   OH225433   6.106   2.373   1.196  0.1673 -0.1707  0.7533
 8490TIP3    H125434   6.194   2.372   1.235 -0.6450  1.8312  2.8585
 8490TIP3    H225435   6.047   2.358   1.270 -1.3633  1.4790 -0.0632
 8491TIP3   OH225436   6.790   5.967   1.929  0.1061 -0.0232  0.3783
 8491TIP3    H125437   6.799   6.014   1.846 -0.1769  0.3879  0.5790
 8491TIP3    H225438   6.768   6.034   1.993 -1.5024 -0.5710  0.4404
 8492TIP3   OH225439   1.416   3.700   4.994 -0.0922  0.1617 -0.0051
 8492TIP3    H125440   1.387   3.711   5.085  0.5599 -0.1588  0.2454
 8492TIP3    H225441   1.415   3.788   4.957 -0.1760  0.3192  0.3710
 8493TIP3   OH225442   2.183   1.646   3.807 -0.0581  0.1127 -0.1340
 8493TIP3    H125443   2.202   1.603   3.723 -2.1473  1.6387 -1.4958
 8493TIP3    H225444   2.264   1.692   3.829  0.8725 -1.1555 -0.7260
 8494TIP3   OH225445   0.277   1.940   1.035  0.7046  0.1200 -0.9441
 8494TIP3    H125446   0.364   1.909   1.009  1.1571  0.5338  0.0321
 8494TIP3    H225447   0.293   2.024   1.077 -0.1367  0.0536 -0.4717
 8495TIP3   OH225448   5.889   1.181   3.028 -0.1110  0.1200  0.2978
 8495TIP3    H125449   5.970   1.136   3.052  0.0808  0.4237  0.2352
 8495TIP3    H225450   5.906   1.273   3.048 -0.2455  0.2627 -0.2146
 8496TIP3   OH225451   3.033   4.968   4.130  0.3003  0.0593 -0.2352
 8496TIP3    H125452   2.966   4.917   4.086 -0.7836 -0.7250  2.1923
 8496TIP3    H225453   3.031   5.053   4.087 -0.4966 -0.7369 -1.8317
 8497TIP3   OH225454   4.497   5.924   2.126 -0.2229 -0.0505 -0.1826
 8497TIP3    H125455   4.412   5.880   2.121 -0.0038 -0.4396 -0.6153
 8497TIP3    H225456   4.530   5.922   2.036  1.0847 -1.6195  0.2670
 8498TIP3   OH225457   5.184   6.622   5.084 -0.2723 -0.2018 -0.2018
 8498TIP3    H125458   5.271   6.614   5.044 -1.1880 -3.5324 -1.7698
 8498TIP3    H225459   5.199   6.680   5.159  3.0619  0.2183 -1.0185
 8499TIP3   OH225460   4.581   3.037   0.577 -0.4734 -0.2274  0.7087
 8499TIP3    H125461   4.597   3.055   0.484 -1.1382  0.8247  0.7775
 8499TIP3    H225462   4.498   2.989   0.578 -1.0668  0.7765  0.8188
 8500TIP3   OH225463   4.601   3.567   2.507 -0.1617  0.0074 -0.2099
 8500TIP3    H125464   4.635   3.599   2.423 -0.8360 -1.0861 -0.9375
 8500TIP3    H225465   4.678   3.554   2.562  0.1679  2.5712  0.0499
 8501TIP3   OH225466   1.058   5.744   2.928 -0.1280  0.3992  0.5416
 8501TIP3    H125467   1.104   5.665   2.957  1.7472  1.5336  0.8537
 8501TIP3    H225468   0.966   5.728   2.948  0.1375 -1.8786  0.1522
 8502TIP3   OH225469   0.534   0.179   3.064 -0.0362  0.6629 -0.1969
 8502TIP3    H125470   0.504   0.262   3.102  0.5702  1.3495 -1.1667
 8502TIP3    H225471   0.457   0.144   3.019 -0.0134  1.2565 -0.7120
 8503TIP3   OH225472   0.118   6.485   3.575 -0.0589  0.2648 -0.2908
 8503TIP3    H125473   0.065   6.477   3.654  0.3488  2.2537  0.2377
 8503TIP3    H225474   0.101   6.574   3.543  0.0944 -0.3671 -2.2258
 8504TIP3   OH225475   2.068   2.822   1.409  0.0505  0.2657 -0.6418
 8504TIP3    H125476   2.062   2.776   1.493  0.4925  0.2929 -0.5912
 8504TIP3    H225477   1.999   2.784   1.355 -1.9375  1.9694  0.5474
 8505TIP3   OH225478   4.403   3.118   4.618  0.7134  0.2611 -0.0589
 8505TIP3    H125479   4.483   3.065   4.629  0.0839 -0.4188  1.5762
 8505TIP3    H225480   4.393   3.126   4.523  1.0573 -2.2506 -0.3849
 8506TIP3   OH225481   4.944   4.526   3.391 -0.0777  0.4315 -0.1547
 8506TIP3    H125482   4.877   4.587   3.360 -1.2501 -0.4296  0.6159
 8506TIP3    H225483   4.936   4.528   3.487  2.8957  2.4041  0.2028
 8507TIP3   OH225484   0.922   1.303   0.081 -0.0766 -0.3447  0.3811
 8507TIP3    H125485   0.827   1.314   0.089  0.0589  1.2288  0.1560
 8507TIP3    H225486   0.958   1.355   0.153  0.6316 -0.1182 -0.1252
 8508TIP3   OH225487   2.930   2.393   0.862  0.4854 -0.6052  0.4173
 8508TIP3    H125488   2.938   2.300   0.839  2.9798 -0.2423 -0.5338
 8508TIP3    H225489   2.948   2.439   0.780  0.1040  0.7345  1.0619
 8509TIP3   OH225490   0.399   0.003   5.277 -0.6643 -0.1036 -0.9944
 8509TIP3    H125491   0.353   0.077   5.316  0.7534  0.0064  0.5764
 8509TIP3    H225492   0.452   0.041   5.208  1.6443  0.7773  1.1224
 8510TIP3   OH225493   1.397   0.620   3.736  0.1826  0.6944  0.6453
 8510TIP3    H125494   1.489   0.645   3.725  0.2556  0.0928 -0.1687
 8510TIP3    H225495   1.350   0.703   3.741  0.5858  1.0169 -0.5818
 8511TIP3   OH225496   5.371   2.905   3.368  0.1517 -0.3519 -0.1846
 8511TIP3    H125497   5.319   2.931   3.443 -0.3127 -0.0857 -0.5936
 8511TIP3    H225498   5.378   2.810   3.374 -0.6746 -0.4226 -0.3183
 8512TIP3   OH225499   4.958   0.687   5.358  0.1886  0.1721  0.2510
 8512TIP3    H125500   4.971   0.630   5.282 -1.1764  0.0199  0.0991
 8512TIP3    H225501   5.042   0.730   5.370  0.6443 -0.3303 -0.9080
 8513TIP3   OH225502   6.854   5.789   3.976 -0.0080 -0.8599  0.3755
 8513TIP3    H125503   6.783   5.752   3.925 -0.7139 -0.8746  1.3444
 8513TIP3    H225504   6.862   5.731   4.052 -0.4020  0.3356  1.3614
 8514TIP3   OH225505   3.068   1.864   2.078 -0.6830  0.1333 -0.3917
 8514TIP3    H125506   3.064   1.947   2.029  0.2389 -0.2621 -1.1773
 8514TIP3    H225507   3.141   1.876   2.139  0.2558 -0.5256 -1.3592
 8515TIP3   OH225508   5.292   4.467   3.774 -0.2883  0.3196  0.6345
 8515TIP3    H125509   5.292   4.508   3.861  1.5736  0.8706  0.4291
 8515TIP3    H225510   5.385   4.449   3.756 -0.4191  1.7504 -1.9345
 8516TIP3   OH225511   3.967   5.640   0.254 -0.2808 -0.1013  0.3229
 8516TIP3    H125512   4.060   5.664   0.250 -0.0995 -0.8069 -0.0021
 8516TIP3    H225513   3.968   5.548   0.281 -0.7295 -1.1410 -2.8229
 8517TIP3   OH225514   3.337   0.792   5.225 -0.6998 -0.2227  0.1429
 8517TIP3    H125515   3.379   0.739   5.157 -0.5589  1.1700 -0.8862
 8517TIP3    H225516   3.392   0.870   5.232 -1.0713 -0.0579  1.4217
 8518TIP3   OH225517   5.284   3.314   4.569 -0.2196  0.2377 -0.5083
 8518TIP3    H125518   5.298   3.269   4.486 -0.1080  0.6867 -0.7293
 8518TIP3    H225519   5.346   3.386   4.569  0.2960 -0.1867  0.2825
 8519TIP3   OH225520   4.417   6.370   4.989  0.0502 -0.0729  0.7250
 8519TIP3    H125521   4.329   6.345   5.016 -0.6109  0.8047 -0.5311
 8519TIP3    H225522   4.422   6.347   4.896  0.9719  0.3320  0.6619
 8520TIP3   OH225523   1.544   1.296   1.370 -0.1025  0.3288 -0.0334
 8520TIP3    H125524   1.628   1.321   1.409  0.1093  1.4926 -1.1590
 8520TIP3    H225525   1.568   1.235   1.299 -0.2102  0.5205 -0.2372
 8521TIP3   OH225526   1.565   5.249   3.487 -0.3084  0.4029  0.1754
 8521TIP3    H125527   1.592   5.236   3.396 -0.1113  0.1307  0.2717
 8521TIP3    H225528   1.581   5.342   3.503 -0.8145  0.5645 -0.2181
 8522TIP3   OH225529   1.394   3.995   4.950  0.3327 -0.2883  0.1750
 8522TIP3    H125530   1.433   4.031   5.029  1.5018  0.5554 -0.7400
 8522TIP3    H225531   1.442   4.037   4.878  0.3621 -2.1594 -0.9737
 8523TIP3   OH225532   3.024   3.860   5.513  0.0513  0.3543 -0.3668
 8523TIP3    H125533   3.040   3.930   5.577 -1.0577 -0.5483  0.9520
 8523TIP3    H225534   2.930   3.844   5.519  0.1241 -0.5425 -1.4129
 8524TIP3   OH225535   3.388   0.401   3.041  0.1385 -0.2732 -0.4550
 8524TIP3    H125536   3.478   0.426   3.020  0.0051  3.3504  2.3753
 8524TIP3    H225537   3.387   0.389   3.136 -2.3346 -0.3112 -0.4127
 8525TIP3   OH225538   0.590   0.446   4.514  0.2643  0.2232  0.2092
 8525TIP3    H125539   0.566   0.504   4.443 -1.7910  0.5740  1.1231
 8525TIP3    H225540   0.511   0.438   4.567  1.7387  0.1412  2.5824
 8526TIP3   OH225541   2.368  -0.001   4.703  0.0565 -0.6664  0.2563
 8526TIP3    H125542   2.343   0.064   4.768  0.4383  2.5797 -2.5871
 8526TIP3    H225543   2.463  -0.003   4.706  0.1815  0.9181 -1.3599
 8527TIP3   OH225544   2.567   6.214   1.980  0.1909 -0.0205 -0.3531
 8527TIP3    H125545   2.570   6.272   2.055  3.2254  1.2222 -1.2874
 8527TIP3    H225546   2.513   6.261   1.916  0.2852  0.4469 -0.0964
 8528TIP3   OH225547   4.604   5.199   5.174  0.2647  0.0593  0.4164
 8528TIP3    H125548   4.588   5.104   5.174 -0.9920  0.2453 -0.0013
 8528TIP3    H225549   4.695   5.208   5.148  0.7635 -1.0796  1.6320
 8529TIP3   OH225550   0.658   3.885   3.690 -0.5203  0.3985 -0.1897
 8529TIP3    H125551   0.714   3.931   3.752 -0.5780 -0.0101  0.1670
 8529TIP3    H225552   0.569   3.914   3.711 -0.9007 -1.9043  1.8875
 8530TIP3   OH225553   3.307   0.391   3.392  0.2817  0.0251 -0.3464
 8530TIP3    H125554   3.287   0.298   3.396  1.8953 -0.4217 -1.9367
 8530TIP3    H225555   3.351   0.410   3.475  0.8022 -0.8461 -0.4161
 8531TIP3   OH225556   6.389   2.754   3.447 -0.5465  0.1143 -0.1766
 8531TIP3    H125557   6.316   2.696   3.471 -0.4755 -0.2398 -0.8116
 8531TIP3    H225558   6.401   2.741   3.353  0.7799 -0.3358  0.0346
 8532TIP3   OH225559   2.384   2.132   1.934  0.3270  0.3989 -0.1055
 8532TIP3    H125560   2.317   2.177   1.985 -0.3011 -0.8403  0.1850
 8532TIP3    H225561   2.393   2.185   1.854 -0.9414  0.6223 -0.1158
 8533TIP3   OH225562   4.469   6.321   1.183 -0.7611  0.5660 -0.1446
 8533TIP3    H125563   4.456   6.229   1.203 -0.8564  0.4148 -0.8886
 8533TIP3    H225564   4.505   6.358   1.264  1.5929 -0.6187 -0.5410
 8534TIP3   OH225565   3.457   2.169   0.975 -0.1569 -0.4266 -0.0617
 8534TIP3    H125566   3.391   2.183   1.043  1.2523  2.3463  0.8945
 8534TIP3    H225567   3.503   2.253   0.969  1.8454 -1.5677 -2.2395
 8535TIP3   OH225568   1.971   3.559   2.059 -0.1992  0.4756 -0.1774
 8535TIP3    H125569   1.892   3.545   2.006  2.0135  2.1538 -4.5091
 8535TIP3    H225570   2.025   3.483   2.041  0.4580  0.9048 -0.0499
 8536TIP3   OH225571   4.714   5.345   1.639  0.0886  0.5241  0.4142
 8536TIP3    H125572   4.721   5.320   1.731  0.5450 -1.4620 -0.1027
 8536TIP3    H225573   4.797   5.319   1.600 -0.3569  0.6797 -0.6922
 8537TIP3   OH225574   3.041   3.626   5.010  0.1611 -0.5721  0.5897
 8537TIP3    H125575   3.073   3.680   5.083  2.2751 -0.9924  0.0441
 8537TIP3    H225576   3.044   3.536   5.043  1.5945 -0.8128 -0.1272
 8538TIP3   OH225577   3.616   5.516   2.574 -0.3531 -0.0346  0.3500
 8538TIP3    H125578   3.559   5.554   2.642  0.3772 -1.2872  1.7235
 8538TIP3    H225579   3.643   5.431   2.610 -0.0673 -0.8255 -1.6083
 8539TIP3   OH225580   6.803   5.460   3.481  0.1448  0.3323 -0.1661
 8539TIP3    H125581   6.761   5.524   3.539  0.4546 -0.1291  0.5789
 8539TIP3    H225582   6.814   5.382   3.535  0.4501 -0.1064 -0.8472
 8540TIP3   OH225583   5.188   4.997   1.207  0.0982 -0.8140  0.0124
 8540TIP3    H125584   5.184   5.087   1.175 -0.8430 -0.1001  1.9740
 8540TIP3    H225585   5.280   4.985   1.232 -0.1454  0.3338  1.5945
 8541TIP3   OH225586   0.989   0.721   1.076  0.0301  0.7887 -0.1098
 8541TIP3    H125587   0.910   0.694   1.124  0.4949 -1.8354 -0.7175
 8541TIP3    H225588   0.955   0.768   1.000 -0.8143  1.9122  0.9007
 8542TIP3   OH225589   2.790   2.906   0.130 -0.2292  0.5324 -0.2207
 8542TIP3    H125590   2.709   2.862   0.104  0.2779 -0.3008 -0.4204
 8542TIP3    H225591   2.831   2.846   0.192  0.2867  0.9050 -0.1949
 8543TIP3   OH225592   1.504   3.404   4.552 -0.3073  0.7934 -0.0060
 8543TIP3    H125593   1.520   3.319   4.593 -0.7393  0.7147 -0.0002
 8543TIP3    H225594   1.413   3.400   4.521  0.4880  0.1776 -2.5502
 8544TIP3   OH225595   2.682   5.261   2.729  0.4706  0.2914  0.0183
 8544TIP3    H125596   2.623   5.277   2.803 -0.3703  2.3159 -1.0027
 8544TIP3    H225597   2.720   5.175   2.747 -1.8837 -0.5795  1.3396
 8545TIP3   OH225598   5.312   2.394   0.906 -1.1594 -0.8262  0.3828
 8545TIP3    H125599   5.275   2.370   0.821 -0.8625 -1.3563  0.4031
 8545TIP3    H225600   5.381   2.457   0.886  0.0649 -2.2283  0.0821
 8546TIP3   OH225601   6.096   5.339   3.656 -0.4144  0.3714  0.2459
 8546TIP3    H125602   6.113   5.328   3.563 -1.4729 -0.2191  0.1104
 8546TIP3    H225603   6.058   5.427   3.664 -0.0854  0.5210  0.1559
 8547TIP3   OH225604   0.613   2.791   5.118  0.1937  0.3550  0.3648
 8547TIP3    H125605   0.533   2.837   5.145  0.3724  1.5493 -1.0072
 8547TIP3    H225606   0.581   2.712   5.075 -0.3004  1.1831 -0.8309
 8548TIP3   OH225607   4.886   1.254   4.475  0.1377 -0.0161 -0.0304
 8548TIP3    H125608   4.925   1.170   4.449 -0.0943 -0.1833  0.1567
 8548TIP3    H225609   4.812   1.266   4.415  0.7165  0.4995 -0.6529
 8549TIP3   OH225610   3.800   5.441   3.896  0.6479 -0.1920 -0.1588
 8549TIP3    H125611   3.753   5.371   3.941 -2.0661  0.6945 -1.4063
 8549TIP3    H225612   3.884   5.402   3.871 -0.2599 -2.5697  0.3227
 8550TIP3   OH225613   3.622   5.042   5.445  0.1638 -0.0654  0.5148
 8550TIP3    H125614   3.642   4.967   5.501 -0.6226  1.4490  2.9834
 8550TIP3    H225615   3.542   5.017   5.398  1.5132 -1.8397 -0.9865
 8551TIP3   OH225616   0.820   1.239   1.932  0.2593  0.0232  0.7555
 8551TIP3    H125617   0.792   1.274   2.016 -2.0958 -0.9104  0.4687
 8551TIP3    H225618   0.748   1.181   1.905  0.5573  0.8463 -2.2458
 8552TIP3   OH225619   6.475   4.103   4.051 -0.2210  0.2465  0.4857
 8552TIP3    H125620   6.445   4.160   4.122  0.6803  0.2083  0.9122
 8552TIP3    H225621   6.432   4.019   4.068 -0.6945  0.4822  0.4794
 8553TIP3   OH225622   4.188   5.478   4.525  0.2317  0.1500 -1.0729
 8553TIP3    H125623   4.128   5.477   4.450 -0.6124 -2.0499 -0.4323
 8553TIP3    H225624   4.134   5.450   4.599  1.2087  1.6423  0.2761
 8554TIP3   OH225625   3.832   2.956   5.874  0.1493  0.3433  0.6676
 8554TIP3    H125626   3.852   2.877   5.823  1.2734  0.5571  0.7460
 8554TIP3    H225627   3.803   2.922   5.959  0.3150  0.0068  0.5944
 8555TIP3   OH225628   1.060   2.672   5.342 -0.1912  0.3743  0.3885
 8555TIP3    H125629   1.027   2.758   5.315 -0.5202 -0.2730 -1.3852
 8555TIP3    H225630   1.011   2.609   5.289  1.0092 -0.8368  0.6550
 8556TIP3   OH225631   6.437   1.915   2.147  0.2387 -0.6872 -0.1659
 8556TIP3    H125632   6.438   1.839   2.088 -1.3224 -0.7703 -0.1342
 8556TIP3    H225633   6.517   1.963   2.126  0.9651 -2.0322 -0.5898
 8557TIP3   OH225634   3.325   4.161   0.665 -0.2199  0.3890 -0.6137
 8557TIP3    H125635   3.393   4.134   0.604  0.1279  0.0917 -0.0956
 8557TIP3    H225636   3.324   4.094   0.732  0.7001  1.6729  0.7331
 8558TIP3   OH225637   1.130   2.984   0.741 -0.4326  0.1570 -0.0920
 8558TIP3    H125638   1.095   3.072   0.750  0.8641  0.9856 -2.2935
 8558TIP3    H225639   1.167   2.963   0.826  1.2914  2.7279 -0.1085
 8559TIP3   OH225640   6.600   3.966   5.218 -0.0907 -0.4730  0.3485
 8559TIP3    H125641   6.576   3.874   5.216 -1.4291 -0.1421 -1.7765
 8559TIP3    H225642   6.517   4.013   5.222  0.4887  0.6580 -0.1789
 8560TIP3   OH225643   4.601   2.040   5.384 -0.0263  0.5807  0.0782
 8560TIP3    H125644   4.624   2.039   5.477 -1.2595  0.5556  0.3983
 8560TIP3    H225645   4.520   2.091   5.380 -0.4426 -0.1265 -0.8723
 8561TIP3   OH225646   3.074   6.522   2.332 -0.2646 -0.1649  0.0633
 8561TIP3    H125647   3.150   6.499   2.279 -1.0099 -1.0232 -0.6892
 8561TIP3    H225648   3.038   6.437   2.359 -1.4695  0.1842 -0.3733
 8562TIP3   OH225649   6.781   3.149   5.744  0.2725  0.3786  0.6151
 8562TIP3    H125650   6.801   3.242   5.748  0.1685  0.5155 -1.3363
 8562TIP3    H225651   6.771   3.123   5.836 -0.3888  2.4235  1.1829
 8563TIP3   OH225652   3.666   1.648   5.484 -0.0342  0.1008  0.1054
 8563TIP3    H125653   3.683   1.605   5.400 -0.8703 -0.4531  0.1988
 8563TIP3    H225654   3.676   1.578   5.549 -3.0315 -0.4297  0.1221
 8564TIP3   OH225655   2.062   3.517   3.082  0.3710  0.3835  0.1594
 8564TIP3    H125656   2.054   3.557   3.168  1.7532  1.2784 -0.0964
 8564TIP3    H225657   2.057   3.590   3.020  2.3546  0.1589 -0.3494
 8565TIP3   OH225658   1.072   1.830   5.104  0.2223  0.2046  0.1515
 8565TIP3    H125659   1.016   1.902   5.075 -0.1602 -0.4415 -0.7640
 8565TIP3    H225660   1.015   1.776   5.160  0.0638 -0.1736 -0.3628
 8566TIP3   OH225661   1.059   2.564   3.126 -0.3141 -0.2100 -0.0279
 8566TIP3    H125662   1.128   2.514   3.083 -2.5116 -2.4005 -1.2639
 8566TIP3    H225663   1.077   2.655   3.104  0.2892 -1.0087 -3.2475
 8567TIP3   OH225664   1.661   4.779   2.512  0.6095  0.3953 -0.0673
 8567TIP3    H125665   1.719   4.718   2.465  1.3889  1.2166 -0.1871
 8567TIP3    H225666   1.642   4.848   2.448 -1.8081 -0.6258 -0.5831
 8568TIP3   OH225667   1.294   4.235   5.576  0.3763  0.7038  0.5762
 8568TIP3    H125668   1.320   4.309   5.520  0.5244  0.0951 -0.1889
 8568TIP3    H225669   1.206   4.257   5.605 -0.1348  0.5592 -0.7844
 8569TIP3   OH225670   2.600   5.233   0.215  0.1278 -0.7191  0.4862
 8569TIP3    H125671   2.640   5.239   0.128 -0.7983 -1.3452  0.0098
 8569TIP3    H225672   2.650   5.295   0.268 -1.6934  2.6733 -1.4102
 8570TIP3   OH225673   4.079   2.085   5.186 -0.2393  0.1486  0.2754
 8570TIP3    H125674   4.113   2.171   5.161  0.7139 -0.3248 -0.1037
 8570TIP3    H225675   4.030   2.056   5.110  1.4538 -0.6628 -0.5740
 8571TIP3   OH225676   3.278   1.276   3.336  0.0534  0.4583 -0.0698
 8571TIP3    H125677   3.359   1.238   3.371  0.0085 -0.4985 -0.9650
 8571TIP3    H225678   3.216   1.203   3.334 -0.1879  0.6736 -1.3708
 8572TIP3   OH225679   4.757   1.663   5.523 -0.2123 -0.7159 -0.0167
 8572TIP3    H125680   4.688   1.623   5.577 -0.2732 -2.8370 -1.5335
 8572TIP3    H225681   4.836   1.613   5.543  0.7280  1.0930  1.0124
 8573TIP3   OH225682   4.061   1.082   1.654  0.2520  0.3036  0.4652
 8573TIP3    H125683   3.967   1.065   1.659  0.7705 -2.7819  2.4836
 8573TIP3    H225684   4.101   0.998   1.677  3.5108  1.8975  1.0704
 8574TIP3   OH225685   2.724   0.657   2.488  0.2201  0.0915 -0.2283
 8574TIP3    H125686   2.661   0.678   2.419 -1.4421  0.6501  1.3892
 8574TIP3    H225687   2.771   0.739   2.504 -0.2759  0.2961  0.1771
 8575TIP3   OH225688   4.049   0.384   0.298 -0.5170 -0.1904  0.0047
 8575TIP3    H125689   4.019   0.293   0.299  0.4471 -0.5123  0.8681
 8575TIP3    H225690   4.079   0.399   0.208 -1.1592 -0.5455 -0.2774
 8576TIP3   OH225691   4.556   2.800   3.060 -0.5312  0.3703 -0.1608
 8576TIP3    H125692   4.524   2.709   3.061  1.1317 -0.2555  0.7602
 8576TIP3    H225693   4.519   2.839   3.139 -1.2040  0.4915 -0.5285
 8577TIP3   OH225694   2.997   5.202   0.984 -0.2234 -0.6335 -0.4090
 8577TIP3    H125695   3.090   5.199   1.004 -0.4545 -1.2114  0.6713
 8577TIP3    H225696   2.962   5.119   1.017 -0.8456 -1.1993 -2.3555
 8578TIP3   OH225697   3.988   0.902   5.230  0.1884  0.7267 -0.2907
 8578TIP3    H125698   3.984   0.990   5.194 -1.1423  0.6525 -0.3981
 8578TIP3    H225699   3.897   0.872   5.229  0.7612 -1.2039 -1.6318
 8579TIP3   OH225700   5.480   1.940   2.749 -0.3850  0.0307  0.4170
 8579TIP3    H125701   5.551   1.882   2.776 -2.7763 -3.1381  0.4209
 8579TIP3    H225702   5.485   1.941   2.653 -0.2963 -0.1148  0.4193
 8580TIP3   OH225703   7.141   5.018   3.204 -0.2695 -0.1865 -0.2479
 8580TIP3    H125704   7.059   4.970   3.190 -0.0754 -0.3591 -0.8653
 8580TIP3    H225705   7.128   5.101   3.158  0.2987 -0.6644 -1.3002
 8581TIP3   OH225706   6.592   5.861   0.130  0.2926 -0.1930  0.6918
 8581TIP3    H125707   6.502   5.875   0.160 -0.3152 -1.5869 -0.3938
 8581TIP3    H225708   6.612   5.771   0.153  0.7412 -0.4712 -0.6887
 8582TIP3   OH225709   5.837   5.990   1.365 -0.3390  0.1892  0.0372
 8582TIP3    H125710   5.759   6.009   1.312  0.1008 -0.3315 -0.8222
 8582TIP3    H225711   5.894   5.940   1.306  0.3019 -0.1297  0.9149
 8583TIP3   OH225712   3.285   1.049   0.649  0.4311  0.1712  0.0467
 8583TIP3    H125713   3.310   0.957   0.657 -0.7296 -0.3686 -1.8395
 8583TIP3    H225714   3.200   1.055   0.691  1.0038  0.6680  1.1752
 8584TIP3   OH225715   6.009   4.421   5.043 -0.2974  0.3386  0.2724
 8584TIP3    H125716   5.949   4.492   5.067 -0.0193  0.3304  1.0264
 8584TIP3    H225717   6.088   4.465   5.012 -0.3481  0.3560  0.1682
 8585TIP3   OH225718   5.476   3.381   5.102 -0.2277 -0.0306  0.1470
 8585TIP3    H125719   5.559   3.421   5.075 -0.7026 -0.5618 -2.2887
 8585TIP3    H225720   5.499   3.328   5.178  1.5066  0.4579  0.0112
 8586TIP3   OH225721   1.131   2.934   3.702 -0.0924  0.3008  0.5887
 8586TIP3    H125722   1.172   3.016   3.673  1.3225 -0.5697  0.0035
 8586TIP3    H225723   1.203   2.885   3.742 -1.1810 -0.1847  1.9945
 8587TIP3   OH225724   5.589   0.651   0.742  0.1961 -0.3184  0.2406
 8587TIP3    H125725   5.501   0.672   0.773  0.5820 -0.6160  1.6076
 8587TIP3    H225726   5.586   0.670   0.648 -1.2442 -0.0835  0.3001
 8588TIP3   OH225727   4.254   1.795   5.785 -0.4051 -0.0521 -0.3061
 8588TIP3    H125728   4.284   1.815   5.696 -0.8559  0.5517 -0.3291
 8588TIP3    H225729   4.237   1.881   5.824  0.7366 -0.2576  0.7068
 8589TIP3   OH225730   7.161   5.340   5.206  0.7113  0.4917  0.1512
 8589TIP3    H125731   7.128   5.353   5.295 -0.2021  1.2592 -0.2789
 8589TIP3    H225732   7.247   5.381   5.206  1.8135 -1.6494  1.3271
 8590TIP3   OH225733   7.116   3.142   2.424  0.6989 -0.1826  0.0870
 8590TIP3    H125734   7.137   3.059   2.466  2.2677  0.4521  0.6395
 8590TIP3    H225735   7.079   3.195   2.495 -0.9947 -0.6296 -0.4319
 8591TIP3   OH225736   3.373   0.768   0.603 -0.7525 -0.3051 -0.2474
 8591TIP3    H125737   3.288   0.724   0.595 -0.6176 -0.3913 -1.4439
 8591TIP3    H225738   3.433   0.700   0.633 -1.2669 -0.0299  1.4721
 8592TIP3   OH225739   4.205   2.134   2.687 -0.6323 -0.1869 -0.7566
 8592TIP3    H125740   4.217   2.227   2.710 -1.1103 -0.0427 -1.0822
 8592TIP3    H225741   4.133   2.104   2.742  0.4058 -0.7504  0.3578
 8593TIP3   OH225742   6.809   4.338   2.122  0.2631  0.0557 -0.3409
 8593TIP3    H125743   6.792   4.248   2.149  0.4878  0.0369 -0.2630
 8593TIP3    H225744   6.806   4.389   2.203  0.1730  0.1120 -0.3796
 8594TIP3   OH225745   2.757   5.258   5.658 -0.3652  0.4202 -0.3562
 8594TIP3    H125746   2.755   5.199   5.734  0.8035 -0.2586 -0.8228
 8594TIP3    H225747   2.750   5.346   5.696  2.5986  0.2815  0.8253
 8595TIP3   OH225748   6.366   2.456   4.652 -0.0743  0.5161  0.5843
 8595TIP3    H125749   6.381   2.542   4.693  0.1220  0.1928  1.2016
 8595TIP3    H225750   6.415   2.460   4.570 -2.3393  2.0458 -0.8181
 8596TIP3   OH225751   0.519   5.653   0.129  0.2811  0.5000  0.1393
 8596TIP3    H125752   0.436   5.617   0.159  1.4221 -2.0171  0.5877
 8596TIP3    H225753   0.518   5.744   0.158 -2.3045  0.5649  0.0693
 8597TIP3   OH225754   2.739   5.566   4.462  0.0163 -0.0912  0.2527
 8597TIP3    H125755   2.653   5.586   4.497  0.0035  3.2418 -1.2865
 8597TIP3    H225756   2.798   5.628   4.506  1.2464 -0.8653 -0.2542
 8598TIP3   OH225757   2.437   0.168   4.905 -0.5090  0.1011  0.6531
 8598TIP3    H125758   2.526   0.146   4.933  0.6554  2.3441 -1.0063
 8598TIP3    H225759   2.418   0.251   4.949 -1.0440  0.5525 -0.4025
 8599TIP3   OH225760   6.107   4.207   4.433  0.4865 -0.3044  0.3005
 8599TIP3    H125761   6.075   4.282   4.482  0.1971 -0.6671  0.6765
 8599TIP3    H225762   6.069   4.218   4.346 -1.0830 -0.9566  0.8561
 8600TIP3   OH225763   1.753   6.339   2.032  0.1231  0.5556  0.0047
 8600TIP3    H125764   1.823   6.372   1.974  0.2528  0.5670  0.1681
 8600TIP3    H225765   1.799   6.289   2.099 -0.1240 -0.5958 -0.6543
 8601TIP3   OH225766   2.734   3.828   3.621 -0.0594 -0.0963 -0.2324
 8601TIP3    H125767   2.754   3.878   3.701 -0.0322  1.5871 -1.2405
 8601TIP3    H225768   2.720   3.895   3.554 -0.5760 -1.4592 -1.5407
 8602TIP3   OH225769   0.589   1.429   2.722  0.1932  0.3874  0.3071
 8602TIP3    H125770   0.563   1.359   2.662 -1.9018  0.8422  0.6087
 8602TIP3    H225771   0.681   1.445   2.702  0.1172 -0.9310 -1.2846
 8603TIP3   OH225772   7.149   0.745   1.340 -0.1316 -0.0658 -0.1314
 8603TIP3    H125773   7.084   0.705   1.282  0.2554 -1.3887  0.3127
 8603TIP3    H225774   7.109   0.739   1.427 -0.5026  1.4706 -0.1723
 8604TIP3   OH225775   6.761   4.067   5.718  0.2940 -0.5317 -0.1128
 8604TIP3    H125776   6.700   4.141   5.717 -1.7064 -2.1260  0.3986
 8604TIP3    H225777   6.815   4.082   5.796 -1.3357 -0.5686  1.0521
 8605TIP3   OH225778   5.173   5.579   2.128  0.1051  0.0639 -0.1328
 8605TIP3    H125779   5.248   5.601   2.183  0.2132  0.6714 -0.5124
 8605TIP3    H225780   5.211   5.554   2.044 -0.1526  1.8159 -0.8103
 8606TIP3   OH225781   0.430   6.062   5.853  0.2752 -0.0277 -0.0244
 8606TIP3    H125782   0.427   5.984   5.909 -0.3001 -0.9486 -1.2961
 8606TIP3    H225783   0.521   6.067   5.824 -0.0668 -1.4403 -1.5249
 8607TIP3   OH225784   0.009   1.299   4.719 -0.2983 -0.1659  0.1627
 8607TIP3    H125785   0.084   1.299   4.660 -0.4533 -1.0858 -0.0501
 8607TIP3    H225786   0.019   1.379   4.771  1.2146 -0.6181  0.6206
 8608TIP3   OH225787   5.514   3.979   3.224 -0.0148  0.0504  0.0997
 8608TIP3    H125788   5.449   3.910   3.212 -0.2796  0.1511  0.8749
 8608TIP3    H225789   5.481   4.052   3.171  0.1806 -0.3537 -0.5912
 8609TIP3   OH225790   2.769   1.890   1.195  0.1758 -0.0260  0.2887
 8609TIP3    H125791   2.834   1.958   1.179  0.6704 -0.1691  1.5982
 8609TIP3    H225792   2.796   1.817   1.140  0.4513  0.3244 -0.0437
 8610TIP3   OH225793   1.534   5.640   4.140 -0.1316  0.0523 -0.5797
 8610TIP3    H125794   1.457   5.604   4.184 -0.1302  0.7078 -0.0227
 8610TIP3    H225795   1.498   5.705   4.079 -0.1508 -0.9809 -1.7261
 8611TIP3   OH225796   4.561   0.070   1.476 -0.5483 -0.4288  0.5080
 8611TIP3    H125797   4.633   0.051   1.416 -0.6764  0.1517  0.1691
 8611TIP3    H225798   4.564  -0.001   1.540  0.1651 -0.5453  0.3502
 8612TIP3   OH225799   0.731   1.429   1.374 -0.2103 -0.5135  0.2475
 8612TIP3    H125800   0.727   1.345   1.329 -0.6113  0.1162 -0.9465
 8612TIP3    H225801   0.708   1.493   1.307  1.6621  0.7167  0.6902
 8613TIP3   OH225802   5.147   3.731   5.360 -0.2685  0.3378  0.3383
 8613TIP3    H125803   5.144   3.713   5.454 -0.7188  1.6914  0.6038
 8613TIP3    H225804   5.223   3.681   5.329 -0.1605 -0.1930  1.4034
 8614TIP3   OH225805   2.242   5.272   4.150 -0.1734  0.3352  0.1562
 8614TIP3    H125806   2.182   5.291   4.078 -1.0786  1.7118  1.2353
 8614TIP3    H225807   2.324   5.316   4.125 -0.2411  0.1966 -0.3398
 8615TIP3   OH225808   0.953   5.317   3.304  0.2418 -0.1744 -0.3153
 8615TIP3    H125809   0.942   5.404   3.343 -0.0123 -0.6353  0.6644
 8615TIP3    H225810   1.048   5.307   3.295  0.2380  0.7338 -1.7002
 8616TIP3   OH225811   1.723   1.966   0.508  0.0424  0.3934  0.5563
 8616TIP3    H125812   1.778   1.970   0.430  0.2190 -0.9346  0.5818
 8616TIP3    H225813   1.637   1.994   0.478  0.1691  0.1370 -0.0619
 8617TIP3   OH225814   0.672   5.511   5.529 -0.6152  0.3211 -0.5349
 8617TIP3    H125815   0.711   5.534   5.614 -1.8747  0.4888  0.0142
 8617TIP3    H225816   0.705   5.578   5.469  1.3271 -0.5264 -0.5048
 8618TIP3   OH225817   2.141   6.250   2.956 -0.2322  0.4687  0.5173
 8618TIP3    H125818   2.192   6.304   2.897 -1.6913  1.3428 -0.0131
 8618TIP3    H225819   2.054   6.246   2.916 -1.1034  0.5974  2.2733
 8619TIP3   OH225820   2.438   6.340   3.957 -0.5253  0.3122 -0.2597
 8619TIP3    H125821   2.355   6.345   4.004  0.0199 -1.2381  0.9486
 8619TIP3    H225822   2.479   6.425   3.972 -0.7306  0.1532  1.4151
 8620TIP3   OH225823   6.059   0.206   0.329  0.5087  0.3363  0.6598
 8620TIP3    H125824   6.051   0.113   0.352 -2.0314  0.3935  0.2941
 8620TIP3    H225825   6.080   0.249   0.412 -0.9811 -0.3212  1.4276
 8621TIP3   OH225826   4.639   6.266   2.852  0.0976 -0.1067 -0.0463
 8621TIP3    H125827   4.722   6.239   2.891  0.7851  2.0120  0.0870
 8621TIP3    H225828   4.599   6.184   2.823  1.6201 -1.3158  1.0540
 8622TIP3   OH225829   6.820   0.114   1.188  0.3991 -0.4255 -0.2853
 8622TIP3    H125830   6.882   0.053   1.150  2.6832  0.6326  1.4859
 8622TIP3    H225831   6.800   0.078   1.275  0.6941  0.5989  0.2281
 8623TIP3   OH225832   3.003   2.513   1.109 -0.3816  0.3757  0.1660
 8623TIP3    H125833   2.985   2.492   1.018 -2.3070 -0.2467  0.6341
 8623TIP3    H225834   3.098   2.524   1.114 -0.3776  2.3660 -2.2991
 8624TIP3   OH225835   4.782   3.458   3.955 -0.2113  0.3951 -0.0784
 8624TIP3    H125836   4.692   3.436   3.933 -0.0911 -0.2092  0.0242
 8624TIP3    H225837   4.789   3.552   3.936 -0.6797  0.3106 -0.6980
 8625TIP3   OH225838   3.812   0.108   4.099  0.4870  0.0921  0.0997
 8625TIP3    H125839   3.884   0.127   4.039  0.4324 -0.0805 -0.0190
 8625TIP3    H225840   3.827   0.167   4.173 -0.1833  1.2721 -0.6674
 8626TIP3   OH225841   5.867   3.927   0.684  0.3163 -0.5737  0.2369
 8626TIP3    H125842   5.875   3.950   0.591 -0.0565 -1.4037 -0.0173
 8626TIP3    H225843   5.904   3.838   0.689 -0.0824 -0.7093  0.7981
 8627TIP3   OH225844   4.466   2.251   3.106  0.4784  0.4155 -0.6557
 8627TIP3    H125845   4.441   2.160   3.088  2.0607  0.2124 -2.0842
 8627TIP3    H225846   4.393   2.286   3.157  0.5248 -2.1082  1.3961
 8628TIP3   OH225847   2.677   2.117   2.063 -0.7108  0.5339  0.3448
 8628TIP3    H125848   2.665   2.192   2.006  4.6617  0.4505 -1.5155
 8628TIP3    H225849   2.669   2.041   2.005  1.3423  0.2641  0.3115
 8629TIP3   OH225850   1.448   0.275   5.187  0.1807 -0.5910  0.0464
 8629TIP3    H125851   1.477   0.309   5.103  1.5565  0.6035  0.9427
 8629TIP3    H225852   1.457   0.181   5.180  0.7543 -0.4702 -0.9763
 8630TIP3   OH225853   0.293   3.920   1.406  0.0004 -0.4091  0.4968
 8630TIP3    H125854   0.257   3.871   1.333  0.7395 -0.0777 -0.1099
 8630TIP3    H225855   0.380   3.946   1.377  1.5407 -2.7414  2.5777
 8631TIP3   OH225856   5.235   6.594   2.722  0.1866  0.5395 -0.5828
 8631TIP3    H125857   5.170   6.640   2.669  1.4691  1.6883 -1.2154
 8631TIP3    H225858   5.221   6.501   2.702 -4.4309  0.0908  2.9117
 8632TIP3   OH225859   2.626   6.313   5.065  0.1916  0.3637  0.1967
 8632TIP3    H125860   2.559   6.271   5.119  1.2458 -0.6149  0.7987
 8632TIP3    H225861   2.616   6.406   5.081 -2.2611  0.4086 -1.2052
 8633TIP3   OH225862   3.555   6.477   4.866  0.1040  0.4244 -0.1805
 8633TIP3    H125863   3.552   6.386   4.894 -0.8932  0.5129  0.0447
 8633TIP3    H225864   3.603   6.522   4.935 -0.9604  0.3713  0.6128
 8634TIP3   OH225865   0.696   3.920   4.987 -0.1964 -0.7245 -0.4884
 8634TIP3    H125866   0.747   3.846   4.952 -0.8566 -1.6727  0.5070
 8634TIP3    H225867   0.680   3.897   5.078 -3.6729 -1.2142 -1.0965
 8635TIP3   OH225868   3.201   5.753   4.680 -0.1354 -0.0226  0.3014
 8635TIP3    H125869   3.260   5.784   4.749 -0.5534  0.3105  0.5157
 8635TIP3    H225870   3.203   5.821   4.613  0.1718 -0.2863  0.0363
 8636TIP3   OH225871   6.777   5.021   3.345 -0.1799  0.1836  0.4243
 8636TIP3    H125872   6.780   4.933   3.384 -0.2623  0.3762  0.8622
 8636TIP3    H225873   6.803   5.007   3.254 -0.3841 -0.3263  0.4424
 8637TIP3   OH225874   1.192   1.327   0.942  0.2148  0.3284 -0.0799
 8637TIP3    H125875   1.213   1.249   0.890 -1.2595 -0.9343  1.1279
 8637TIP3    H225876   1.171   1.293   1.029  0.9071  2.2306  0.8962
 8638TIP3   OH225877   0.046   5.017   2.771  1.0901  0.3622 -0.1657
 8638TIP3    H125878   0.047   5.000   2.865  0.7588  0.2589 -0.1779
 8638TIP3    H225879   0.085   5.103   2.762  0.5679  0.6391  0.1300
 8639TIP3   OH225880   3.550   2.644   0.317 -0.2348  0.3355 -0.2899
 8639TIP3    H125881   3.600   2.565   0.297 -0.5277  0.3572 -1.1309
 8639TIP3    H225882   3.587   2.675   0.400 -0.9947 -1.4043  0.7561
 8640TIP3   OH225883   5.383   2.651   4.397  0.0202 -0.0883 -0.0360
 8640TIP3    H125884   5.382   2.601   4.479 -0.5703 -0.8440 -0.4901
 8640TIP3    H225885   5.410   2.587   4.331  1.3388  0.7248 -0.3175
 8641TIP3   OH225886   5.434   0.079   1.060 -0.3021  0.3579  0.7453
 8641TIP3    H125887   5.441   0.170   1.088 -3.5145  0.2275  2.5681
 8641TIP3    H225888   5.490   0.031   1.121  1.5737  1.0727 -0.3590
 8642TIP3   OH225889   0.620   5.076   0.524  0.7649  0.2826  0.0027
 8642TIP3    H125890   0.686   5.143   0.543  2.1643 -0.4085 -2.0264
 8642TIP3    H225891   0.645   5.002   0.579 -0.7175  1.2985  2.1648
 8643TIP3   OH225892   3.419   5.587   2.787 -0.4901 -0.1023 -0.1389
 8643TIP3    H125893   3.348   5.535   2.823 -0.7427 -0.0159 -0.4959
 8643TIP3    H225894   3.375   5.653   2.732 -0.1196 -0.2900 -0.6755
 8644TIP3   OH225895   4.475   3.442   0.322 -0.0053  0.2261  0.4717
 8644TIP3    H125896   4.475   3.520   0.266 -1.6151  0.0232  0.1181
 8644TIP3    H225897   4.462   3.369   0.262  1.4577 -0.3403  0.8067
 8645TIP3   OH225898   4.556   2.371   2.594  0.2387  0.1333 -0.2557
 8645TIP3    H125899   4.491   2.435   2.621 -1.8259 -2.0946  0.3943
 8645TIP3    H225900   4.578   2.323   2.673  0.4337 -1.0932 -1.0257
 8646TIP3   OH225901   3.662   5.524   4.270 -0.5089  0.0205 -0.3832
 8646TIP3    H125902   3.650   5.593   4.335  0.3576  0.4745 -0.6936
 8646TIP3    H225903   3.750   5.539   4.235 -0.6003 -0.7937 -0.9804
 8647TIP3   OH225904   5.202   6.734   0.321 -0.1174  0.1404 -0.6446
 8647TIP3    H125905   5.204   6.666   0.254  1.3589  0.7584 -1.2750
 8647TIP3    H225906   5.281   6.718   0.374 -0.3776  0.6601 -0.0854
 8648TIP3   OH225907   0.308   4.423   1.399  0.3682 -0.2512  0.1780
 8648TIP3    H125908   0.241   4.357   1.382  0.2088 -0.4777  1.5524
 8648TIP3    H225909   0.364   4.383   1.466  1.6739  0.0799 -0.6719
 8649TIP3   OH225910   1.835   2.755   0.673 -0.5496  0.8233 -0.3657
 8649TIP3    H125911   1.824   2.660   0.671  1.4597  0.5457 -0.6954
 8649TIP3    H225912   1.750   2.790   0.647 -1.0438 -0.9138 -1.2377
 8650TIP3   OH225913   3.142   5.836   1.333  0.5465 -0.4611 -0.1059
 8650TIP3    H125914   3.139   5.779   1.257  1.5907 -0.9094  0.1655
 8650TIP3    H225915   3.072   5.899   1.319 -0.3044 -1.5006 -0.6583
 8651TIP3   OH225916   4.888   0.424   1.366  0.6700  0.3545 -0.5444
 8651TIP3    H125917   4.905   0.513   1.399 -0.3315  0.4906 -0.3316
 8651TIP3    H225918   4.805   0.433   1.318  1.0540 -0.2781 -1.3279
 8652TIP3   OH225919   6.025   3.614   5.749 -0.5769 -0.0619  0.1013
 8652TIP3    H125920   5.936   3.618   5.785  0.1200  1.8805  1.8218
 8652TIP3    H225921   6.031   3.689   5.691 -0.2199 -0.5147 -0.4579
 8653TIP3   OH225922   1.360   2.706   1.900 -0.2573 -0.1840  0.4979
 8653TIP3    H125923   1.274   2.698   1.859  0.0266 -0.6100 -0.0139
 8653TIP3    H225924   1.348   2.776   1.965 -0.4911  1.1138 -0.8822
 8654TIP3   OH225925   2.126   3.706   5.562  0.5939 -0.0754  0.0784
 8654TIP3    H125926   2.191   3.710   5.631  1.3429  2.1572 -0.6682
 8654TIP3    H225927   2.166   3.754   5.489 -1.0958 -0.3410 -1.0770
 8655TIP3   OH225928   5.109   5.879   3.963 -0.3306  0.8644  0.0609
 8655TIP3    H125929   5.062   5.952   3.923 -0.7712  0.3606 -0.3506
 8655TIP3    H225930   5.071   5.872   4.051 -1.0142  0.4735 -0.2619
 8656TIP3   OH225931   3.808   3.651   5.160 -0.2032  0.1860 -0.2869
 8656TIP3    H125932   3.774   3.571   5.201  1.3519 -0.6496 -0.5670
 8656TIP3    H225933   3.854   3.697   5.231  1.3980 -0.6332 -0.7609
 8657TIP3   OH225934   6.303   5.159   5.154  0.1620 -0.6321 -0.6691
 8657TIP3    H125935   6.296   5.084   5.095  0.2354 -1.1819  0.0150
 8657TIP3    H225936   6.251   5.227   5.111 -2.1138 -1.8670 -0.0736
 8658TIP3   OH225937   1.021   3.776   0.079 -0.4112 -0.2634  0.1505
 8658TIP3    H125938   1.043   3.731  -0.003  0.0271 -1.3119  0.8332
 8658TIP3    H225939   1.081   3.740   0.144 -0.6100  0.7158  0.9054
 8659TIP3   OH225940   2.597   0.497   1.169 -0.2597 -0.3843 -0.2318
 8659TIP3    H125941   2.638   0.411   1.178  0.6858 -0.0843 -1.4137
 8659TIP3    H225942   2.671   0.559   1.168 -0.8116  0.2880 -1.0851
 8660TIP3   OH225943   2.865   0.792   4.619  0.0869 -0.6339  0.2898
 8660TIP3    H125944   2.795   0.834   4.670 -0.5736 -0.4301 -0.7511
 8660TIP3    H225945   2.845   0.699   4.624  1.5758 -0.9336  2.6350
 8661TIP3   OH225946   1.027   2.460   1.153 -0.0537  0.3872 -0.0446
 8661TIP3    H125947   1.111   2.415   1.142  0.5270  0.6614  2.5545
 8661TIP3    H225948   1.004   2.490   1.065  1.9039 -0.8465 -1.0427
 8662TIP3   OH225949   5.093   1.786   2.089  0.6895 -0.2704 -0.2347
 8662TIP3    H125950   5.173   1.800   2.140  0.8359  0.1736 -0.5791
 8662TIP3    H225951   5.120   1.731   2.016  0.7353  0.0792 -0.4838
 8663TIP3   OH225952   0.534   4.163   3.465  0.0078  0.2905 -0.1018
 8663TIP3    H125953   0.587   4.240   3.442  0.4577  0.4624  1.3965
 8663TIP3    H225954   0.523   4.169   3.560 -3.4348  0.7193 -0.3877
 8664TIP3   OH225955   0.418   6.594   3.802 -0.2392  0.2651  1.0172
 8664TIP3    H125956   0.389   6.580   3.892 -0.4989  0.2766  0.9339
 8664TIP3    H225957   0.490   6.657   3.809  0.5224 -0.6070  1.3386
 8665TIP3   OH225958   2.569   3.618   3.878 -0.4632  0.3868 -0.1040
 8665TIP3    H125959   2.655   3.584   3.854 -1.0280 -0.0163 -1.7406
 8665TIP3    H225960   2.510   3.542   3.868 -0.9732  0.5821  1.2648
 8666TIP3   OH225961   5.739   5.721   1.018 -0.5079 -0.2733  0.2906
 8666TIP3    H125962   5.651   5.743   1.046 -1.1727 -1.6918 -0.5566
 8666TIP3    H225963   5.735   5.720   0.922 -0.2858 -2.8272  0.2385
 8667TIP3   OH225964   6.152   0.289   4.516 -0.0223 -0.0960  0.0126
 8667TIP3    H125965   6.158   0.277   4.421 -1.4809 -1.5512  0.0685
 8667TIP3    H225966   6.199   0.214   4.553 -0.4830 -0.1764  0.4376
 8668TIP3   OH225967   7.188   3.364   1.089 -0.9140  0.9536 -0.4016
 8668TIP3    H125968   7.113   3.361   1.148 -2.5237 -0.0923 -2.3661
 8668TIP3    H225969   7.192   3.276   1.052  2.6626  0.2717  1.1550
 8669TIP3   OH225970   6.762   6.391   0.516  0.0833 -0.4964 -0.2891
 8669TIP3    H125971   6.670   6.407   0.537 -0.4852 -1.7722 -1.5992
 8669TIP3    H225972   6.799   6.478   0.501 -0.8323  0.0521  0.5220
 8670TIP3   OH225973   4.508   3.866   5.866  0.1397  0.3127  0.0123
 8670TIP3    H125974   4.565   3.825   5.931 -1.1344 -1.1639  0.2679
 8670TIP3    H225975   4.483   3.795   5.808  0.0006  1.3023 -1.1716
 8671TIP3   OH225976   0.282   3.948   4.431  0.0997  0.0725  0.4474
 8671TIP3    H125977   0.267   3.909   4.345 -0.6599 -0.1572  0.6776
 8671TIP3    H225978   0.325   4.031   4.413 -0.2768  0.1367 -0.1738
 8672TIP3   OH225979   4.423   5.237   1.498  0.0621 -0.7890  0.9596
 8672TIP3    H125980   4.400   5.177   1.569  0.9304 -0.2927  1.6874
 8672TIP3    H225981   4.469   5.309   1.542  1.6385 -1.0244 -0.2105
 8673TIP3   OH225982   1.982   3.067   5.666  0.1496  0.0002 -0.0304
 8673TIP3    H125983   1.995   3.153   5.706  0.3506  0.9962 -2.0822
 8673TIP3    H225984   1.921   3.083   5.594  0.0666 -1.6183 -0.3621
 8674TIP3   OH225985   5.546   6.384   3.310 -0.8674 -0.3408  0.0181
 8674TIP3    H125986   5.535   6.435   3.390  2.7962 -0.1855  0.6222
 8674TIP3    H225987   5.472   6.409   3.255 -1.0981  3.0472  1.6095
 8675TIP3   OH225988   0.603   6.249   1.979 -0.2025 -0.0093  0.5432
 8675TIP3    H125989   0.542   6.307   1.935  1.3970  0.2749 -1.4458
 8675TIP3    H225990   0.613   6.286   2.067  0.5107  2.5993 -0.5447
 8676TIP3   OH225991   0.486   4.481   2.505 -0.3064 -0.2934  0.5324
 8676TIP3    H125992   0.529   4.566   2.507 -1.5112  0.3493  0.2347
 8676TIP3    H225993   0.519   4.439   2.425  0.4629 -0.2045  0.8032
 8677TIP3   OH225994   0.470   3.359   1.624  0.1164  0.0596 -0.0855
 8677TIP3    H125995   0.491   3.309   1.703 -1.7461  0.3694  0.6522
 8677TIP3    H225996   0.514   3.311   1.554  0.3685 -1.2461  0.9058
 8678TIP3   OH225997   0.991   0.468   3.045  0.1182  0.1605  0.1321
 8678TIP3    H125998   0.962   0.429   3.127  2.1336  1.1047  1.3872
 8678TIP3    H225999   1.043   0.400   3.003  0.7918  0.3382  0.6604
 8679TIP3   OH226000   5.575   1.712   2.033 -0.2277 -0.0294  0.3511
 8679TIP3    H126001   5.582   1.679   2.123 -0.3426  1.0197  0.7532
 8679TIP3    H226002   5.662   1.746   2.013 -0.0892 -0.6293 -0.0915
 8680TIP3   OH226003   1.482   6.279   2.297 -0.0087  0.0773 -0.2626
 8680TIP3    H126004   1.553   6.339   2.275 -0.5303  1.1263  0.8123
 8680TIP3    H226005   1.463   6.297   2.389 -0.7538 -1.1548 -0.1481
 8681TIP3   OH226006   3.700   4.486   4.816 -0.0010  0.4006 -0.4214
 8681TIP3    H126007   3.737   4.400   4.834 -0.4153  0.4354  0.7115
 8681TIP3    H226008   3.715   4.536   4.896  0.2709  1.4002 -1.0783
 8682TIP3   OH226009   2.406   5.933   0.047  0.6511 -0.1307 -0.3210
 8682TIP3    H126010   2.496   5.931   0.015  0.4165 -1.0342 -0.9588
 8682TIP3    H226011   2.410   5.890   0.133  1.3859  2.8379  1.2463
 8683TIP3   OH226012   1.753   5.603   1.924  0.1963 -0.1569  0.3159
 8683TIP3    H126013   1.683   5.657   1.959  0.4617  0.0005  0.6072
 8683TIP3    H226014   1.806   5.663   1.871  1.2735  0.1958  1.7303
 8684TIP3   OH226015   5.387   4.067   1.677  0.3846  0.4311  0.3279
 8684TIP3    H126016   5.382   4.094   1.768  1.4478  2.0167 -0.0556
 8684TIP3    H226017   5.479   4.044   1.664 -0.0055 -1.0490 -0.0324
 8685TIP3   OH226018   0.216   5.131   1.359 -0.4460 -0.3180 -0.0687
 8685TIP3    H126019   0.239   5.039   1.368 -0.5675 -0.1770  2.1400
 8685TIP3    H226020   0.288   5.178   1.401 -0.5659  0.5973 -0.8399
 8686TIP3   OH226021   5.532   0.318   4.258  0.6428 -0.1609  0.2151
 8686TIP3    H126022   5.553   0.249   4.322  1.1948  0.9181  1.2395
 8686TIP3    H226023   5.437   0.326   4.262  0.5217 -1.1403 -0.2404
 8687TIP3   OH226024   2.519   0.557   1.496  0.1251  0.3888  0.1002
 8687TIP3    H126025   2.599   0.580   1.449 -0.8677  1.2818 -1.2269
 8687TIP3    H226026   2.469   0.639   1.502 -2.1246 -0.6902 -1.9953
 8688TIP3   OH226027   1.738   3.846   4.190  0.1735 -0.5913 -0.2452
 8688TIP3    H126028   1.768   3.936   4.175  1.0920 -1.1101 -1.6589
 8688TIP3    H226029   1.674   3.830   4.121 -1.8354 -0.2574  1.4228
 8689TIP3   OH226030   6.878   1.151   3.612 -0.1065 -0.2252  0.0881
 8689TIP3    H126031   6.833   1.235   3.603  2.5990  1.3946  0.6955
 8689TIP3    H226032   6.831   1.106   3.683 -0.7404  1.3882  0.7226
 8690TIP3   OH226033   2.899   3.615   1.858 -0.0668 -0.0297  0.8874
 8690TIP3    H126034   2.855   3.655   1.933 -0.3006  0.7181  0.3660
 8690TIP3    H226035   2.830   3.604   1.793  0.0926 -0.8740  0.8530
 8691TIP3   OH226036   7.053   6.492   1.706  0.4169 -0.2920 -0.1862
 8691TIP3    H126037   7.038   6.583   1.677  2.6372  0.0122 -0.5416
 8691TIP3    H226038   7.115   6.457   1.642  2.5178 -0.8381  2.0105
 8692TIP3   OH226039   1.090   1.172   4.723  0.4938 -0.2421  0.2637
 8692TIP3    H126040   1.110   1.084   4.754  3.1262  0.7861  1.8238
 8692TIP3    H226041   1.109   1.169   4.629 -1.3934 -1.7791 -0.1212
 8693TIP3   OH226042   4.805   0.766   0.033 -0.6999  0.2364  0.4039
 8693TIP3    H126043   4.845   0.851   0.051  1.9115 -0.7354 -0.2801
 8693TIP3    H226044   4.807   0.759  -0.062  0.9739 -1.3044  0.4819
 8694TIP3   OH226045   7.101   2.223   4.901 -0.1217  0.2418 -0.4231
 8694TIP3    H126046   7.030   2.175   4.943 -0.1210  1.6563  1.3019
 8694TIP3    H226047   7.171   2.223   4.967  2.0857 -2.2881 -2.5454
 8695TIP3   OH226048   0.574   0.824   0.675  0.8472  0.2083  0.6336
 8695TIP3    H126049   0.614   0.743   0.705 -0.8561 -1.2066 -0.7357
 8695TIP3    H226050   0.513   0.848   0.745  0.7353 -0.1541  0.6609
 8696TIP3   OH226051   0.477   1.419   0.548  0.1288 -0.4156  0.2048
 8696TIP3    H126052   0.408   1.417   0.483 -0.0427  2.7492  0.1191
 8696TIP3    H226053   0.557   1.432   0.498  0.3988 -0.9770  0.4809
 8697TIP3   OH226054   1.296   4.665   1.135 -0.8407  0.3906  0.6258
 8697TIP3    H126055   1.240   4.694   1.207 -0.1251  2.1959  0.5345
 8697TIP3    H226056   1.378   4.713   1.149 -0.4854  0.3272 -1.0682
 8698TIP3   OH226057   2.684   3.332   5.477 -0.2305  0.1670  0.3318
 8698TIP3    H126058   2.623   3.389   5.524  0.2770  1.1916 -0.2442
 8698TIP3    H226059   2.767   3.340   5.524 -0.4886 -1.2016  1.0943
 8699TIP3   OH226060   2.754   4.301   0.270  0.5469 -0.0106 -0.2107
 8699TIP3    H126061   2.782   4.222   0.317  2.8410  0.3582 -0.8565
 8699TIP3    H226062   2.719   4.268   0.187  0.4291 -0.4122 -0.0052
 8700TIP3   OH226063   1.072   5.644   0.093  0.3793 -0.2024  0.3631
 8700TIP3    H126064   0.997   5.703   0.084  0.2141 -0.2425  1.3899
 8700TIP3    H226065   1.074   5.595   0.011 -2.4775 -2.2221  1.3115
 8701TIP3   OH226066   4.622   1.605   1.190  0.0331  0.2459 -0.0922
 8701TIP3    H126067   4.696   1.613   1.250 -2.2634  2.0278  2.8377
 8701TIP3    H226068   4.567   1.536   1.228 -1.8848  1.9797  0.4795
 8702TIP3   OH226069   3.314   3.347   0.570  0.1616 -0.5507 -0.4267
 8702TIP3    H126070   3.227   3.310   0.558 -0.1103  0.3131 -1.2522
 8702TIP3    H226071   3.373   3.272   0.570 -0.4222 -1.0240 -1.5785
 8703TIP3   OH226072   1.363   1.901   4.776 -0.0953 -0.2945  0.0751
 8703TIP3    H126073   1.432   1.841   4.806  1.6266  1.1663 -0.8231
 8703TIP3    H226074   1.397   1.940   4.696 -2.1339  0.2463 -0.5941
 8704TIP3   OH226075   1.257   4.138   2.854  0.6477  0.2442  0.4718
 8704TIP3    H126076   1.346   4.137   2.890  0.5810  0.4618  0.6455
 8704TIP3    H226077   1.211   4.070   2.904  1.0180 -0.6766 -0.4086
 8705TIP3   OH226078   6.787   6.146   0.610  0.8612 -0.2772 -0.4312
 8705TIP3    H126079   6.777   6.233   0.571  1.0380  0.5403  1.2495
 8705TIP3    H226080   6.716   6.140   0.674 -0.0679 -1.9986 -1.5400
 8706TIP3   OH226081   0.877   1.903   3.447 -0.4394 -0.0011  0.0016
 8706TIP3    H126082   0.821   1.918   3.372  0.0991 -0.7510 -0.5740
 8706TIP3    H226083   0.829   1.841   3.502 -0.5673  0.0682 -0.0340
 8707TIP3   OH226084   1.159   2.793   1.360  0.5809  0.0184  0.2478
 8707TIP3    H126085   1.158   2.700   1.383  1.2058 -0.5199 -1.7300
 8707TIP3    H226086   1.253   2.814   1.353  0.4699  1.0394  1.4846
 8708TIP3   OH226087   4.625   5.304   2.843  0.0685 -0.3567 -0.3627
 8708TIP3    H126088   4.695   5.367   2.824  0.3411 -0.8677 -1.0888
 8708TIP3    H226089   4.590   5.332   2.928  0.1002  0.8532 -0.7240
 8709TIP3   OH226090   0.412   3.972   3.758  0.7743  0.2305  0.1853
 8709TIP3    H126091   0.373   3.885   3.761  0.7376  0.2643  1.5913
 8709TIP3    H226092   0.388   4.012   3.842 -1.4723  2.6123 -1.4486
 8710TIP3   OH226093   0.772   6.576   4.560 -0.6490  0.0670  0.9840
 8710TIP3    H126094   0.715   6.504   4.531  0.5840 -0.7027  0.3781
 8710TIP3    H226095   0.771   6.638   4.488 -1.7307  0.6976  1.5151
 8711TIP3   OH226096   1.747   0.584   3.734 -0.7890  0.0094  0.1454
 8711TIP3    H126097   1.733   0.505   3.683  0.9229  0.0400 -0.4515
 8711TIP3    H226098   1.825   0.566   3.786 -1.6815  0.5050  1.7345
 8712TIP3   OH226099   6.393   2.942   2.243  0.1416 -0.1503 -0.0094
 8712TIP3    H126100   6.339   2.867   2.267 -0.4813 -0.2973 -1.7701
 8712TIP3    H226101   6.480   2.904   2.228 -0.1160 -0.4818 -0.6693
 8713TIP3   OH226102   6.651   3.420   5.661  0.2957  0.0933 -0.1490
 8713TIP3    H126103   6.740   3.416   5.695  1.0926  2.8856 -1.5933
 8713TIP3    H226104   6.660   3.401   5.567 -0.5165  0.7921 -0.3900
 8714TIP3   OH226105   4.703   6.107   0.244  0.4474 -0.4606  0.0436
 8714TIP3    H126106   4.647   6.113   0.322 -3.0313  0.4617 -2.3196
 8714TIP3    H226107   4.668   6.034   0.194  2.5459 -0.9575 -0.8087
 8715TIP3   OH226108   5.840   3.503   3.585 -0.1117  0.2221 -0.0246
 8715TIP3    H126109   5.932   3.514   3.561  0.0665 -1.7517 -0.3565
 8715TIP3    H226110   5.805   3.444   3.519 -1.6582  0.9750  0.0792
 8716TIP3   OH226111   1.144   3.429   1.299 -0.5283 -0.2766 -0.4379
 8716TIP3    H126112   1.115   3.493   1.234  2.2913  0.7248 -0.8425
 8716TIP3    H226113   1.114   3.465   1.382  0.6040  1.3751 -0.7048
 8717TIP3   OH226114   3.279   0.442   0.365  0.1559  0.0240 -0.2648
 8717TIP3    H126115   3.268   0.502   0.290  0.2478 -0.9636 -1.0959
 8717TIP3    H226116   3.361   0.397   0.347 -0.2279 -0.8019  0.0128
 8718TIP3   OH226117   4.417   1.408   2.288 -0.5732 -0.5994  0.8487
 8718TIP3    H126118   4.372   1.414   2.204 -2.2536  0.8603  1.7759
 8718TIP3    H226119   4.462   1.492   2.297  1.4739 -1.5988  0.4626
 8719TIP3   OH226120   1.640   1.241   4.382 -0.1507 -0.3881 -0.4278
 8719TIP3    H126121   1.671   1.238   4.292 -2.8645  1.0296 -1.5002
 8719TIP3    H226122   1.681   1.319   4.419 -0.6829  0.2358 -1.1321
 8720TIP3   OH226123   5.094   0.841   0.541 -0.5949 -0.5023  0.6160
 8720TIP3    H126124   5.105   0.777   0.471 -0.7569  0.2362 -0.1019
 8720TIP3    H226125   5.039   0.909   0.502  0.1778  0.4246  1.1132
 8721TIP3   OH226126   0.331   6.343   2.536  0.0775 -0.4091 -0.1621
 8721TIP3    H126127   0.297   6.419   2.583 -1.4463 -0.6850 -0.7460
 8721TIP3    H226128   0.264   6.276   2.548  0.4965 -1.0389 -1.2115
 8722TIP3   OH226129   3.597   5.224   1.079  0.2600 -0.6424  0.3062
 8722TIP3    H126130   3.548   5.153   1.120 -1.4862  1.1193  1.4749
 8722TIP3    H226131   3.539   5.300   1.086  1.6928  0.7333 -1.6364
 8723TIP3   OH226132   5.726   2.129   5.156 -0.0965 -0.5333 -0.3746
 8723TIP3    H126133   5.696   2.147   5.245 -1.1227  0.7991 -0.9631
 8723TIP3    H226134   5.820   2.150   5.159  0.5871 -3.3112  1.0935
 8724TIP3   OH226135   0.579   2.888   4.825  0.0814 -0.0852  0.0867
 8724TIP3    H126136   0.543   2.900   4.737  0.5773 -2.0667 -0.4365
 8724TIP3    H226137   0.522   2.940   4.881 -1.3724 -0.2210 -1.1889
 8725TIP3   OH226138   4.642   6.654   4.810 -0.0884  0.3826 -0.1188
 8725TIP3    H126139   4.661   6.748   4.807 -0.5468  0.5391  1.1341
 8725TIP3    H226140   4.575   6.645   4.878  1.9343 -1.1425  1.8130
 8726TIP3   OH226141   2.874   1.183   0.875 -0.4507 -0.3518 -0.6100
 8726TIP3    H126142   2.866   1.157   0.967  0.2100 -1.6710 -0.9043
 8726TIP3    H226143   2.861   1.278   0.876 -0.3643 -0.3314  0.8529
 8727TIP3   OH226144   3.758   0.169   5.183 -0.3378  0.5675 -0.0920
 8727TIP3    H126145   3.748   0.247   5.237 -0.0958 -0.5842  1.7017
 8727TIP3    H226146   3.702   0.104   5.224 -0.2490 -0.3223 -1.3300
 8728TIP3   OH226147   6.788   1.557   3.427 -0.1512  0.3799 -0.3522
 8728TIP3    H126148   6.817   1.476   3.384  0.6421  0.1716  0.5266
 8728TIP3    H226149   6.768   1.530   3.517  2.0246  1.4624  0.5435
 8729TIP3   OH226150   0.108   5.045   5.393 -0.2623 -0.3586 -0.0892
 8729TIP3    H126151   0.062   4.996   5.324 -0.0946 -0.1830 -0.3275
 8729TIP3    H226152   0.037   5.084   5.445 -0.4007 -1.1417  0.3131
 8730TIP3   OH226153   1.222   0.541   1.710 -0.0107 -0.4636 -0.0653
 8730TIP3    H126154   1.273   0.622   1.708  0.6476 -0.7806  2.1317
 8730TIP3    H226155   1.131   0.570   1.709  0.1885  0.1931 -1.4930
 8731TIP3   OH226156   5.469   2.189   1.993  0.0414  0.0731 -0.1059
 8731TIP3    H126157   5.540   2.150   2.044 -0.2959  1.2276  1.3180
 8731TIP3    H226158   5.396   2.194   2.054 -1.3714 -1.2800 -1.6053
 8732TIP3   OH226159   0.340   5.990   1.386 -0.2061 -0.7476 -0.2541
 8732TIP3    H126160   0.266   6.037   1.347  0.1453 -0.3071 -0.4005
 8732TIP3    H226161   0.368   6.046   1.459  0.3141 -0.6415 -0.5283
 8733TIP3   OH226162   0.056   4.361   1.825 -0.4385 -0.4056 -0.1570
 8733TIP3    H126163   0.069   4.279   1.778 -0.9388 -0.5639 -0.0285
 8733TIP3    H226164  -0.024   4.398   1.786 -0.4962 -0.2268  0.1297
 8734TIP3   OH226165   1.308   5.201   0.967 -0.7067  0.2065 -0.3165
 8734TIP3    H126166   1.297   5.137   1.037  0.1292  0.0227 -0.3509
 8734TIP3    H226167   1.221   5.241   0.958 -1.3982 -1.3056 -0.6792
 8735TIP3   OH226168   0.636   3.229   5.033  0.1496  0.2517  0.0809
 8735TIP3    H126169   0.614   3.210   5.124 -0.3734  1.3183  0.1808
 8735TIP3    H226170   0.691   3.307   5.037  0.4304  0.0877 -0.4945
 8736TIP3   OH226171   5.644   3.985   1.584  0.1499 -0.3132  0.0261
 8736TIP3    H126172   5.680   4.019   1.502 -1.6620  1.8917  0.0435
 8736TIP3    H226173   5.653   3.890   1.576 -0.7320 -0.2650 -3.1358
 8737TIP3   OH226174   3.315   5.577   1.303  0.3354 -0.0992 -0.5066
 8737TIP3    H126175   3.398   5.609   1.339 -0.4337  1.2534  0.1906
 8737TIP3    H226176   3.270   5.657   1.273 -0.2215 -0.9246 -1.9496
 8738TIP3   OH226177   3.270   6.351   3.412  0.0766 -0.4601  0.2250
 8738TIP3    H126178   3.323   6.394   3.345  0.2409 -0.4058  0.3880
 8738TIP3    H226179   3.301   6.388   3.495 -1.9473  1.4518  0.1927
 8739TIP3   OH226180   0.572   3.153   4.252  0.8929 -0.1513  0.4697
 8739TIP3    H126181   0.531   3.237   4.274  0.7035 -0.0760 -0.1459
 8739TIP3    H226182   0.586   3.158   4.157 -1.3722 -1.7780 -0.0253
 8740TIP3   OH226183   6.112   2.539   5.858  0.2686 -0.0751 -0.1561
 8740TIP3    H126184   6.113   2.446   5.882 -0.0177  0.2483  1.1738
 8740TIP3    H226185   6.101   2.539   5.763  0.7424 -1.4081 -0.2266
 8741TIP3   OH226186   3.636   1.927   0.109  0.1668  0.2699 -0.7190
 8741TIP3    H126187   3.702   1.864   0.137 -0.7253  0.0822  1.1501
 8741TIP3    H226188   3.656   2.007   0.158 -0.3335  0.5554 -0.9637
 8742TIP3   OH226189   5.060   5.832   0.555  0.5786  0.2519  0.6542
 8742TIP3    H126190   5.105   5.794   0.630  0.3272 -1.8992 -0.1938
 8742TIP3    H226191   5.103   5.792   0.479 -1.8567 -0.9417 -0.2047
 8743TIP3   OH226192   0.850   2.752   1.407 -0.0757  0.0242 -0.2960
 8743TIP3    H126193   0.935   2.764   1.365 -0.8958  0.6397 -1.9201
 8743TIP3    H226194   0.832   2.658   1.399 -1.0803  0.3389 -3.3500
 8744TIP3   OH226195   3.652   5.955   2.606  0.3515 -0.5818  0.1717
 8744TIP3    H126196   3.579   6.016   2.597 -0.5935 -1.6541  0.2286
 8744TIP3    H226197   3.721   6.006   2.647 -0.1565  0.6235 -0.4109
 8745TIP3   OH226198   5.951   3.875   3.101 -0.2433 -0.4727  1.1367
 8745TIP3    H126199   5.991   3.830   3.176 -0.3954  0.6775  1.9224
 8745TIP3    H226200   5.865   3.832   3.092 -0.6371  0.0249  2.2586
 8746TIP3   OH226201   0.747   3.024   0.700  0.3380  0.5268  0.7024
 8746TIP3    H126202   0.760   2.935   0.668  0.9215  0.3711  1.3445
 8746TIP3    H226203   0.678   3.017   0.765  1.2966  0.2988  1.7243
 8747TIP3   OH226204   3.662   2.298   0.077 -0.3002 -0.1119 -0.5902
 8747TIP3    H126205   3.742   2.249   0.059  0.6198  1.6293 -1.4965
 8747TIP3    H226206   3.639   2.339  -0.007 -1.1107  0.8697  0.0750
 8748TIP3   OH226207   3.747   3.472   3.708  0.8925 -0.4343  0.3836
 8748TIP3    H126208   3.785   3.536   3.649 -1.9598  1.3736  0.3154
 8748TIP3    H226209   3.716   3.401   3.651  0.2671  0.1858 -0.0639
 8749TIP3   OH226210   3.981   6.199   4.386  0.4631  0.2101  0.4511
 8749TIP3    H126211   3.933   6.118   4.403  0.9712 -0.1863  0.0314
 8749TIP3    H226212   3.923   6.268   4.418  0.8792 -0.4118  2.7511
 8750TIP3   OH226213   3.407   2.569   5.009 -0.7146  0.0114 -0.0102
 8750TIP3    H126214   3.437   2.584   4.919 -2.2466  0.3989 -0.4821
 8750TIP3    H226215   3.419   2.653   5.052 -1.0733  0.1567 -0.1884
 8751TIP3   OH226216   1.719   1.930   2.699 -0.2199  0.0576  0.3424
 8751TIP3    H126217   1.777   2.000   2.729 -1.2402  0.6369  1.0318
 8751TIP3    H226218   1.752   1.851   2.742  0.8619  0.1090 -0.3382
 8752TIP3   OH226219   1.858   1.634   3.957 -0.4927  0.4998 -0.2458
 8752TIP3    H126220   1.782   1.682   3.987 -0.4815  1.0540 -1.0654
 8752TIP3    H226221   1.888   1.585   4.034  0.0940  2.5548  0.9176
 8753TIP3   OH226222   0.937   5.126   0.275  0.0784 -0.0196 -0.0706
 8753TIP3    H126223   0.848   5.098   0.252  0.2083 -0.1563 -0.4082
 8753TIP3    H226224   0.929   5.161   0.364 -0.4342  0.5462 -0.3337
 8754TIP3   OH226225   3.939   5.573   2.649  0.5939  0.2852 -0.0101
 8754TIP3    H126226   3.972   5.560   2.738 -0.0977  1.7296  0.5081
 8754TIP3    H226227   3.879   5.648   2.657 -0.2503 -0.1852 -1.5109
 8755TIP3   OH226228  -0.000   2.070   3.469  0.3844 -0.3513  0.4137
 8755TIP3    H126229   0.002   2.051   3.563 -0.9530  1.8432  0.9597
 8755TIP3    H226230   0.088   2.100   3.448  0.2161  0.9241  1.4269
 8756TIP3   OH226231   0.272   1.994   5.764  0.0460 -0.3598  0.0739
 8756TIP3    H126232   0.259   1.931   5.836  2.9327 -0.6984  0.4233
 8756TIP3    H226233   0.249   2.079   5.802  0.8030 -0.6371  1.2204
 8757TIP3   OH226234   7.102   3.081   1.058  0.6139 -0.0808 -0.1038
 8757TIP3    H126235   7.024   3.026   1.063  0.8320 -0.4236 -0.4004
 8757TIP3    H226236   7.152   3.060   1.137 -0.7000  1.8866  1.3697
 8758TIP3   OH226237   0.734   3.108   4.566 -0.5279 -0.3345  0.3141
 8758TIP3    H126238   0.750   3.132   4.474 -0.0765  0.2673  0.5502
 8758TIP3    H226239   0.773   3.021   4.574  0.8177  0.2539  0.3381
 8759TIP3   OH226240   1.958   5.206   5.330 -0.4004 -0.1599  0.4236
 8759TIP3    H126241   2.032   5.169   5.283 -0.7515 -0.5624  0.1795
 8759TIP3    H226242   1.982   5.298   5.344 -0.2929 -0.0201 -0.5708
 8760TIP3   OH226243   6.239   5.960   4.108  0.0262  0.1390  0.1943
 8760TIP3    H126244   6.260   5.900   4.179 -1.2908 -2.9072 -1.7625
 8760TIP3    H226245   6.306   6.028   4.113  1.9422 -1.7336  2.3080
 8761TIP3   OH226246   0.568   3.698   2.067 -0.3927 -0.7522  0.2260
 8761TIP3    H126247   0.526   3.666   1.987 -0.4093 -0.1724  0.0009
 8761TIP3    H226248   0.625   3.769   2.038 -1.0849  0.0693  0.8448
 8762TIP3   OH226249   0.779   3.557   1.487  0.5340 -0.3157 -0.0467
 8762TIP3    H126250   0.780   3.620   1.559  0.8830  0.6702 -0.8845
 8762TIP3    H226251   0.706   3.586   1.431  0.7187 -0.6252 -0.4579
 8763TIP3   OH226252   0.024   6.377   1.530 -0.0643  0.4626  0.6965
 8763TIP3    H126253  -0.022   6.294   1.516  0.6412  0.0514  0.7880
 8763TIP3    H226254   0.083   6.385   1.456 -0.9468  1.4696  0.0633
 8764TIP3   OH226255   5.468   1.971   5.504 -0.0064 -0.3217 -0.2422
 8764TIP3    H126256   5.480   2.060   5.471  0.6253 -0.8965 -1.6299
 8764TIP3    H226257   5.537   1.920   5.461 -0.3097 -1.4752  0.5897
 8765TIP3   OH226258   6.661   1.024   4.288 -0.3562  0.3917  0.0149
 8765TIP3    H126259   6.577   1.019   4.242 -1.2994  1.2461  1.5620
 8765TIP3    H226260   6.662   0.946   4.344 -0.0309  0.2969 -0.1198
 8766TIP3   OH226261   4.424   4.745   3.203  0.4455  0.2278 -0.4813
 8766TIP3    H126262   4.417   4.744   3.299 -0.3228 -0.0967 -0.5346
 8766TIP3    H226263   4.498   4.804   3.185 -0.3160  1.4668  0.2698
 8767TIP3   OH226264   4.602   0.913   2.893  0.2899  0.6528  0.1134
 8767TIP3    H126265   4.604   0.827   2.934  0.7701  0.7098  0.2212
 8767TIP3    H226266   4.542   0.904   2.819  1.5585 -0.2173 -0.8495
 8768TIP3   OH226267   4.212   4.280   1.051  0.9316 -0.2030 -0.4134
 8768TIP3    H126268   4.232   4.194   1.087 -3.1358 -0.8543  0.7264
 8768TIP3    H226269   4.120   4.276   1.027  0.1549  4.1984  0.9213
 8769TIP3   OH226270   2.334   5.575   1.418  0.8133  0.2538 -0.2577
 8769TIP3    H126271   2.321   5.485   1.387 -0.7876  1.1050 -2.3339
 8769TIP3    H226272   2.246   5.605   1.439  1.3817  1.2379  0.7644
 8770TIP3   OH226273   6.977   5.678   0.763  0.9875  0.1075 -0.2414
 8770TIP3    H126274   6.976   5.771   0.783 -0.1625  0.3070 -1.1477
 8770TIP3    H226275   7.048   5.642   0.817  1.2807  1.4549  0.2881
 8771TIP3   OH226276   3.157   2.019   2.751  0.3473  0.4767 -0.3849
 8771TIP3    H126277   3.210   2.090   2.787  1.6759 -0.8154  0.3396
 8771TIP3    H226278   3.068   2.038   2.781  0.5811  2.0412 -0.5811
 8772TIP3   OH226279   3.066   4.938   0.326 -0.0418  0.0136 -0.1483
 8772TIP3    H126280   3.078   4.993   0.404 -0.2781 -1.9202  1.3399
 8772TIP3    H226281   3.134   4.871   0.334 -0.8037 -0.8781 -0.9989
 8773TIP3   OH226282   5.421   6.332   5.593  0.9149 -0.4503  0.4899
 8773TIP3    H126283   5.432   6.277   5.515 -1.4413  1.7585 -1.5500
 8773TIP3    H226284   5.418   6.269   5.665  1.2048 -2.7717 -1.3729
 8774TIP3   OH226285   6.781   1.940   1.386 -0.1824  0.2448 -0.2041
 8774TIP3    H126286   6.796   1.973   1.474  1.2417  0.6974 -0.5745
 8774TIP3    H226287   6.866   1.905   1.359  0.0651  2.1054 -2.1812
 8775TIP3   OH226288   0.442   2.908   2.664  0.0961 -0.2572 -0.0533
 8775TIP3    H126289   0.518   2.850   2.657 -0.5233 -1.2877  1.2542
 8775TIP3    H226290   0.412   2.919   2.574  1.0259 -0.8897 -0.4534
 8776TIP3   OH226291   6.371   3.938   0.870  0.7018 -0.1448  0.4491
 8776TIP3    H126292   6.416   3.876   0.928  2.1255 -0.4610 -0.9414
 8776TIP3    H226293   6.322   3.883   0.809  1.1351  0.1317 -0.1466
 8777TIP3   OH226294   6.378   2.257   2.792 -0.2691  0.3258 -0.2766
 8777TIP3    H126295   6.453   2.219   2.837 -0.7457 -0.5603 -0.2100
 8777TIP3    H226296   6.336   2.312   2.858 -1.1627 -1.2346  0.5255
 8778TIP3   OH226297   6.254   1.623   5.820 -0.3544 -0.0810  0.2635
 8778TIP3    H126298   6.287   1.559   5.883  1.3327  1.3818  0.9219
 8778TIP3    H226299   6.253   1.576   5.736  0.4887 -1.0676  0.7916
 8779TIP3   OH226300   3.220   0.959   3.107 -0.4322 -0.2745  0.2806
 8779TIP3    H126301   3.227   0.917   3.021 -0.1823 -1.0933  0.6966
 8779TIP3    H226302   3.203   0.888   3.168 -0.7561  0.3193  0.9003
 8780TIP3   OH226303   1.521   4.085   1.047  0.1213 -0.2393 -0.1692
 8780TIP3    H126304   1.538   4.179   1.032  0.0040  0.1273  1.7065
 8780TIP3    H226305   1.428   4.074   1.027  0.4468 -0.3070 -1.8049
 8781TIP3   OH226306   0.483   1.585   5.288  0.7015  0.2074  0.2131
 8781TIP3    H126307   0.564   1.542   5.259  0.3349  0.4495 -1.2368
 8781TIP3    H226308   0.488   1.673   5.251 -0.1380  0.2920  0.2810
 8782TIP3   OH226309   5.920   6.158   4.127  0.0663  0.1022 -0.2105
 8782TIP3    H126310   5.827   6.181   4.127  0.1663  0.6231 -1.5396
 8782TIP3    H226311   5.940   6.134   4.217 -1.7374 -1.5975 -0.1992
 8783TIP3   OH226312   2.588   2.209   5.123 -0.7462  0.4277  0.0105
 8783TIP3    H126313   2.616   2.242   5.209  0.4126  1.4137 -0.7057
 8783TIP3    H226314   2.505   2.164   5.140 -0.7311  0.9331  1.5759
 8784TIP3   OH226315   3.631   1.422   2.532 -0.4678 -0.4708  0.2596
 8784TIP3    H126316   3.716   1.464   2.545 -1.1972  1.4097 -0.7359
 8784TIP3    H226317   3.650   1.328   2.532  1.3412 -0.1422  1.7462
 8785TIP3   OH226318   1.125   5.741   1.532 -0.2621 -0.2727 -0.2897
 8785TIP3    H126319   1.212   5.772   1.558  0.0856 -2.2766  1.1483
 8785TIP3    H226320   1.114   5.658   1.578 -2.6261 -0.4774 -1.0850
 8786TIP3   OH226321   4.047   2.665   3.872 -0.1324 -0.3808  0.0631
 8786TIP3    H126322   3.968   2.618   3.844 -0.5451 -0.0690  0.6764
 8786TIP3    H226323   4.022   2.757   3.868  0.3571 -0.2600 -0.1923
 8787TIP3   OH226324   1.416   3.971   5.415  0.0922 -0.7879 -0.4860
 8787TIP3    H126325   1.469   4.030   5.361  0.0902 -1.0661 -0.7931
 8787TIP3    H226326   1.442   3.992   5.505 -0.3289  0.0858 -0.5563
 8788TIP3   OH226327   1.815   4.864   1.683 -0.3428  0.2804 -0.2975
 8788TIP3    H126328   1.754   4.924   1.641 -1.7284  0.6682  2.0868
 8788TIP3    H226329   1.773   4.840   1.766  0.9443 -2.6576 -0.3693
 8789TIP3   OH226330   6.449   3.925   4.857 -0.3132  0.4116 -0.4888
 8789TIP3    H126331   6.505   3.893   4.927 -0.9883  0.1863 -0.0406
 8789TIP3    H226332   6.505   3.984   4.806  0.6217 -0.6200 -0.6783
 8790TIP3   OH226333   0.867   1.569   2.328  0.6857  0.4939 -0.7692
 8790TIP3    H126334   0.933   1.632   2.299 -0.6965  2.5384  0.2498
 8790TIP3    H226335   0.788   1.622   2.340 -0.4216 -1.3709  0.6639
 8791TIP3   OH226336   0.943   0.189   4.239 -0.5310 -0.0408 -0.3756
 8791TIP3    H126337   0.877   0.139   4.286 -0.3075 -0.4781 -0.5141
 8791TIP3    H226338   1.026   0.146   4.262 -0.2858  0.5571 -0.1274
 8792TIP3   OH226339   5.857   2.785   5.639  0.0429 -0.2535  1.0009
 8792TIP3    H126340   5.832   2.807   5.729 -0.3748  1.9535  0.4144
 8792TIP3    H226341   5.923   2.850   5.616 -1.1678  0.4145 -0.8458
 8793TIP3   OH226342   5.436   2.533   1.380  0.2625  0.0481 -0.0141
 8793TIP3    H126343   5.477   2.607   1.427 -0.5289  0.3571  0.2047
 8793TIP3    H226344   5.493   2.518   1.305  0.8448  0.3966  0.3487
 8794TIP3   OH226345   6.654   5.677   4.508  0.0977  0.4794  0.0314
 8794TIP3    H126346   6.679   5.735   4.436 -0.9007  1.3108  0.3254
 8794TIP3    H226347   6.575   5.633   4.479 -0.3159  0.8223  0.6038
 8795TIP3   OH226348   0.611   4.878   1.598  0.0053  0.3147 -0.0077
 8795TIP3    H126349   0.542   4.811   1.593  1.3351 -1.0148 -1.3875
 8795TIP3    H226350   0.616   4.900   1.691 -1.3074 -0.5665  0.3024
 8796TIP3   OH226351   3.194   0.039   5.631 -0.7233 -0.0778 -0.1811
 8796TIP3    H126352   3.192   0.084   5.715 -2.2211 -0.8846  0.2510
 8796TIP3    H226353   3.251  -0.037   5.646  0.8356  0.9534 -0.5773
 8797TIP3   OH226354   2.333   3.175   2.089  0.4696 -0.0125  0.6295
 8797TIP3    H126355   2.428   3.178   2.075  0.4963  0.7128  0.9410
 8797TIP3    H226356   2.324   3.148   2.180  0.4235  1.5300  1.1138
 8798TIP3   OH226357   7.151   2.632   1.632  0.3209 -0.0576 -0.4583
 8798TIP3    H126358   7.143   2.541   1.661 -0.4866 -0.1246 -0.8737
 8798TIP3    H226359   7.244   2.642   1.610  0.3364 -0.8987 -0.8085
 8799TIP3   OH226360   5.806   3.926   5.061  0.2889 -0.0249  0.6297
 8799TIP3    H126361   5.731   3.983   5.075 -0.6409 -1.5343  2.2224
 8799TIP3    H226362   5.874   3.961   5.118  0.9066  1.4228 -0.9142
 8800TIP3   OH226363   3.324   2.316   3.688 -0.2155  0.6031 -0.2062
 8800TIP3    H126364   3.419   2.328   3.689 -0.1784  0.3085  0.1385
 8800TIP3    H226365   3.288   2.404   3.699  0.0354  0.5508  1.2452
 8801TIP3   OH226366   0.387   0.580   4.950 -0.1194  0.4028  0.2058
 8801TIP3    H126367   0.355   0.493   4.974  1.0490 -0.0667  0.0908
 8801TIP3    H226368   0.343   0.639   5.012  0.5276 -0.4756  1.5538
 8802TIP3   OH226369   1.813   1.389   2.727  0.4230  0.4325 -0.6629
 8802TIP3    H126370   1.836   1.303   2.692 -0.2253  0.3712 -0.9569
 8802TIP3    H226371   1.717   1.394   2.717  0.3819  0.9310 -0.0732
 8803TIP3   OH226372   1.721   2.182   3.209 -0.1781 -0.3239  0.0823
 8803TIP3    H126373   1.735   2.257   3.151  1.7025 -0.8656 -0.2260
 8803TIP3    H226374   1.806   2.167   3.250 -0.6827 -1.9045  0.6283
 8804TIP3   OH226375   1.467   0.935   1.484  0.4004  0.6548  0.1725
 8804TIP3    H126376   1.386   0.915   1.435 -0.6090  1.4193  1.4658
 8804TIP3    H226377   1.474   1.030   1.481 -0.4886  0.8588  2.6645
 8805TIP3   OH226378   1.586   6.228   4.999 -0.3641  0.3491  0.0500
 8805TIP3    H126379   1.550   6.200   5.083 -2.6355 -0.9825 -1.2339
 8805TIP3    H226380   1.510   6.232   4.941  0.9921  2.0502 -1.7663
 8806TIP3   OH226381   0.468   3.723   5.644  0.1988  0.0080  0.0573
 8806TIP3    H126382   0.388   3.673   5.632  0.5363 -0.3485 -0.7467
 8806TIP3    H226383   0.538   3.658   5.646  0.3519  0.1402  2.5057
 8807TIP3   OH226384   3.992   2.930   3.787  0.0067 -0.0640  0.0266
 8807TIP3    H126385   4.031   2.979   3.714  2.7806  1.3879  2.2698
 8807TIP3    H226386   3.918   2.984   3.816 -1.2781 -0.7758 -1.7618
 8808TIP3   OH226387   6.259   4.546   3.921 -0.1423  0.2924  0.5511
 8808TIP3    H126388   6.181   4.519   3.873  1.7350 -1.6016 -1.7245
 8808TIP3    H226389   6.239   4.528   4.012 -2.1684 -0.5802 -0.0178
 8809TIP3   OH226390   6.950   3.883   3.307  0.0972 -0.5768 -0.0234
 8809TIP3    H126391   7.014   3.813   3.316 -0.5150 -1.4097 -1.6871
 8809TIP3    H226392   6.996   3.953   3.260  0.8033  0.3325  1.9118
 8810TIP3   OH226393   3.254   5.813   1.589 -0.1861 -0.0211 -1.0043
 8810TIP3    H126394   3.219   5.857   1.512  0.6991  0.7060 -1.0028
 8810TIP3    H226395   3.257   5.720   1.565  0.3966  0.2376 -1.9753
 8811TIP3   OH226396   1.749   5.470   2.400  0.0572  0.1114  0.2354
 8811TIP3    H126397   1.808   5.531   2.444  1.8355 -0.1609 -1.6237
 8811TIP3    H226398   1.779   5.470   2.309 -2.4634 -0.5049 -0.6771
 8812TIP3   OH226399   4.506   4.242   3.071 -0.0349  0.8621  0.0678
 8812TIP3    H126400   4.564   4.314   3.095  1.1041  0.1083 -0.3476
 8812TIP3    H226401   4.450   4.278   3.002  1.0315  1.1345 -0.6716
 8813TIP3   OH226402   3.282   2.576   1.248  0.1269 -0.3262 -0.0210
 8813TIP3    H126403   3.306   2.540   1.334 -0.4273 -0.9165 -0.1052
 8813TIP3    H226404   3.272   2.670   1.263 -0.8666 -0.5513  0.7665
 8814TIP3   OH226405   4.606   2.530   4.032 -0.1057  0.6732  0.1239
 8814TIP3    H126406   4.564   2.590   3.971 -0.1589 -1.0133 -1.5808
 8814TIP3    H226407   4.567   2.550   4.117  0.2051  3.3103 -0.2598
 8815TIP3   OH226408   5.874   5.486   4.213  0.8497 -0.0851 -0.2478
 8815TIP3    H126409   5.916   5.571   4.201 -0.2882  0.6042  0.5285
 8815TIP3    H226410   5.880   5.444   4.126  2.2395  0.3756 -0.4018
 8816TIP3   OH226411   3.412   2.241   0.289  0.3030 -0.6502 -0.2413
 8816TIP3    H126412   3.415   2.274   0.378  0.4083 -0.4044 -0.3339
 8816TIP3    H226413   3.483   2.176   0.285  0.6788 -0.2441 -0.3067
 8817TIP3   OH226414   6.857   1.073   3.881 -0.2156 -0.8063 -0.2301
 8817TIP3    H126415   6.848   1.118   3.964 -3.0705  0.6810 -1.2004
 8817TIP3    H226416   6.846   0.980   3.902 -3.8930 -0.2674  0.8503
 8818TIP3   OH226417   6.103   2.342   5.431  0.4183  0.3136  0.3913
 8818TIP3    H126418   6.040   2.276   5.401  0.3313 -0.2886  1.8160
 8818TIP3    H226419   6.050   2.418   5.453  0.4832  0.7631 -0.9120
 8819TIP3   OH226420   6.447   2.449   0.669  0.1368  0.3191  0.3737
 8819TIP3    H126421   6.374   2.441   0.730  1.3560 -1.4647  1.7088
 8819TIP3    H226422   6.517   2.397   0.708  2.7218  3.2096  0.0200
 8820TIP3   OH226423   5.806   1.849   2.882  0.2282 -0.2176  0.3455
 8820TIP3    H126424   5.825   1.942   2.893 -1.0840  0.1494 -0.3207
 8820TIP3    H226425   5.892   1.809   2.865  0.8209  0.8304  0.7745
 8821TIP3   OH226426   6.218   5.084   0.348  0.0833 -0.1587 -0.1836
 8821TIP3    H126427   6.280   5.145   0.390  0.1943 -0.3561 -0.0594
 8821TIP3    H226428   6.133   5.106   0.385  0.3550 -1.1650  1.1075
 8822TIP3   OH226429   1.680   0.174   2.905 -0.3273 -0.2639  0.2196
 8822TIP3    H126430   1.586   0.185   2.922 -0.4931 -0.7509 -0.3596
 8822TIP3    H226431   1.714   0.134   2.985 -0.7048 -0.5379  0.2476
 8823TIP3   OH226432   1.944   3.966   1.577 -0.1149  0.1211 -0.1693
 8823TIP3    H126433   1.944   3.964   1.673 -1.4981  1.0527 -0.1129
 8823TIP3    H226434   1.970   4.055   1.554  0.7172 -0.2471 -0.6817
 8824TIP3   OH226435   5.412   1.593   5.675 -0.6780  0.2324  0.0087
 8824TIP3    H126436   5.417   1.657   5.745 -1.0568  0.7436 -0.4245
 8824TIP3    H226437   5.338   1.621   5.622  0.1704  0.3774 -1.1206
 8825TIP3   OH226438   2.120   2.387   0.558  0.0226  0.0370  0.1136
 8825TIP3    H126439   2.215   2.383   0.569  0.1800 -1.4317 -1.2467
 8825TIP3    H226440   2.108   2.411   0.466 -0.8999 -0.1884  0.1653
 8826TIP3   OH226441   4.045   4.426   4.819  0.1416 -0.0902  0.3547
 8826TIP3    H126442   4.064   4.520   4.823 -1.5308  0.3316 -0.6624
 8826TIP3    H226443   4.017   4.403   4.907  1.3527  0.1502  0.8242
 8827TIP3   OH226444   4.952   0.414   4.663 -0.3456 -0.2217 -0.2648
 8827TIP3    H126445   4.870   0.415   4.614  0.6698  0.9614 -2.0675
 8827TIP3    H226446   4.984   0.325   4.654 -0.8213 -0.3598 -0.6481
 8828TIP3   OH226447   6.464   6.726   1.988  0.5914  0.1756 -0.1204
 8828TIP3    H126448   6.421   6.697   1.907 -0.9302  1.6575  0.1024
 8828TIP3    H226449   6.465   6.822   1.981 -0.2990  0.3892  1.9320
 8829TIP3   OH226450   0.770   5.866   4.804  0.0116  0.1878 -0.1687
 8829TIP3    H126451   0.861   5.888   4.783  0.1306 -0.2129 -0.0934
 8829TIP3    H226452   0.761   5.887   4.897  1.1418 -3.1614  0.8527
 8830TIP3   OH226453   2.924   4.934   3.508  0.1524 -0.7310  0.4376
 8830TIP3    H126454   3.019   4.927   3.509  0.3152  0.8946  2.2172
 8830TIP3    H226455   2.904   5.000   3.442  0.4775  0.7177  1.7385
 8831TIP3   OH226456   3.677   0.503   4.764 -0.0945  0.1691 -0.0611
 8831TIP3    H126457   3.729   0.496   4.684 -0.0153 -2.4954  0.1350
 8831TIP3    H226458   3.735   0.548   4.826  1.0393 -0.4915 -0.5992
 8832TIP3   OH226459   5.881   4.417   4.479 -0.6056 -0.0990 -0.1940
 8832TIP3    H126460   5.847   4.504   4.499 -2.7123 -0.8440 -0.1903
 8832TIP3    H226461   5.820   4.382   4.414  0.3846 -1.4505 -0.4492
 8833TIP3   OH226462   2.564   0.066   5.863  0.1707  0.2438 -0.3113
 8833TIP3    H126463   2.595   0.152   5.836 -2.5907  1.4170 -0.0914
 8833TIP3    H226464   2.507   0.083   5.938 -1.1959 -1.6469 -0.8355
 8834TIP3   OH226465   4.622   4.865   5.711  0.2719 -1.0162  0.1903
 8834TIP3    H126466   4.589   4.783   5.675 -0.8182 -2.5256  4.1288
 8834TIP3    H226467   4.714   4.847   5.730 -0.0182 -1.5213  1.2556
 8835TIP3   OH226468   4.208   6.197   1.378 -0.0689 -0.5193  0.6012
 8835TIP3    H126469   4.135   6.190   1.316 -0.9899 -0.1739  1.6164
 8835TIP3    H226470   4.175   6.159   1.459  1.1384 -1.0169  0.8801
 8836TIP3   OH226471   4.339   6.611   0.300  0.1429  0.0018 -0.6997
 8836TIP3    H126472   4.255   6.610   0.346  0.0887 -1.0557 -0.7938
 8836TIP3    H226473   4.403   6.633   0.368 -0.2441  1.3272 -0.7297
 8837TIP3   OH226474   3.234   4.322   3.148  0.2343  0.6358 -0.4134
 8837TIP3    H126475   3.145   4.349   3.173  0.2294  1.1805 -0.9810
 8837TIP3    H226476   3.280   4.311   3.231 -0.0633  1.4224 -0.1273
 8838TIP3   OH226477   6.039   5.815   1.536 -0.2029 -0.5861  0.5687
 8838TIP3    H126478   6.066   5.889   1.482 -0.9656 -0.5843  0.1887
 8838TIP3    H226479   5.949   5.834   1.562  0.3463 -0.2471  2.4341
 8839TIP3   OH226480   7.145   4.142   1.382  0.2564 -0.2554  0.1282
 8839TIP3    H126481   7.147   4.236   1.397 -0.1755 -0.2337  0.0513
 8839TIP3    H226482   7.058   4.125   1.347  0.1815 -0.7435  0.5362
 8840TIP3   OH226483   2.135   1.580   5.294 -0.0171 -0.3122  0.1914
 8840TIP3    H126484   2.108   1.500   5.339 -0.0707  0.2773  1.2475
 8840TIP3    H226485   2.122   1.561   5.201  1.8388 -2.2477  0.2360
 8841TIP3   OH226486   6.062   3.516   5.360  0.4844 -0.1817 -0.2851
 8841TIP3    H126487   6.121   3.469   5.301  0.1842  0.3204 -0.9900
 8841TIP3    H226488   6.074   3.472   5.444  4.4229  1.9237  0.5214
 8842TIP3   OH226489   5.192   3.601   3.128  0.8288  0.2001 -0.6076
 8842TIP3    H126490   5.243   3.681   3.112  2.4809 -0.9818 -1.4674
 8842TIP3    H226491   5.104   3.624   3.098  0.9121  2.1319  0.4420
 8843TIP3   OH226492   3.731   1.346   1.541  0.1437  0.3683 -0.1105
 8843TIP3    H126493   3.783   1.371   1.465  0.8636 -1.4234 -0.2551
 8843TIP3    H226494   3.747   1.416   1.604 -1.2445  2.4107 -1.8818
 8844TIP3   OH226495   0.112   3.637   2.004  0.2581 -0.6674  0.4954
 8844TIP3    H126496   0.031   3.665   1.962  0.2122 -0.4252  0.7463
 8844TIP3    H226497   0.165   3.717   2.009  1.4429 -1.2229 -1.7217
 8845TIP3   OH226498   4.522   6.453   0.939  0.1691  0.3202  0.5165
 8845TIP3    H126499   4.499   6.387   0.873  0.5989  0.4555  0.2257
 8845TIP3    H226500   4.516   6.406   1.022  3.1185 -0.9321  0.1808
 8846TIP3   OH226501   3.469   0.678   4.751 -0.0771  0.2146  0.3380
 8846TIP3    H126502   3.411   0.663   4.676  0.8592 -0.6470 -0.2288
 8846TIP3    H226503   3.523   0.599   4.757  1.1119  1.0290  0.7932
 8847TIP3   OH226504   4.601   2.928   3.824  0.1727 -0.2861  0.6826
 8847TIP3    H126505   4.542   2.855   3.841 -0.7526  0.5850  1.3074
 8847TIP3    H226506   4.688   2.888   3.821 -0.4258 -1.6136 -0.3919
 8848TIP3   OH226507   3.339   3.398   5.821 -0.4260  0.1724  0.4109
 8848TIP3    H126508   3.312   3.456   5.893 -0.8120  0.2238  0.2314
 8848TIP3    H226509   3.270   3.409   5.756 -0.0864  0.1143  0.0386
 8849TIP3   OH226510   5.554   1.755   1.242 -0.3282  0.1759 -0.4424
 8849TIP3    H126511   5.500   1.723   1.169 -0.7551  1.8127 -0.9036
 8849TIP3    H226512   5.634   1.704   1.237 -1.0049 -0.8651 -1.0566
 8850TIP3   OH226513   1.830   0.224  -0.014 -0.1858  0.2666 -0.0272
 8850TIP3    H126514   1.783   0.200   0.066 -0.5858  1.0167 -0.0286
 8850TIP3    H226515   1.861   0.141  -0.050  3.2162  0.0734  2.8154
 8851TIP3   OH226516   3.699   5.640   3.333  0.4617 -0.2068  0.0129
 8851TIP3    H126517   3.763   5.575   3.303  0.9125  0.0025  0.5113
 8851TIP3    H226518   3.668   5.607   3.417  0.2108 -0.1059 -0.0386
 8852TIP3   OH226519   2.825   2.626   1.582  0.4496 -0.1867  0.2816
 8852TIP3    H126520   2.868   2.651   1.663  1.8652  0.3745 -0.5910
 8852TIP3    H226521   2.788   2.707   1.547  1.5830 -0.0132 -0.5864
 8853TIP3   OH226522   6.539   5.404   2.243 -0.1595 -0.1439  0.0106
 8853TIP3    H126523   6.448   5.408   2.272  0.0288 -3.4953  1.4836
 8853TIP3    H226524   6.537   5.439   2.153 -2.0218  3.8568  1.3430
 8854TIP3   OH226525   1.212   0.405   3.297 -0.5391  0.3432 -0.5663
 8854TIP3    H126526   1.221   0.459   3.376 -2.7357  3.0082 -1.9756
 8854TIP3    H226527   1.118   0.402   3.281 -0.1135  1.5879 -4.1057
 8855TIP3   OH226528   4.222   5.731   0.179 -0.2054 -0.4714 -0.5667
 8855TIP3    H126529   4.299   5.786   0.167 -0.0928 -0.4180  0.2835
 8855TIP3    H226530   4.197   5.703   0.091 -1.5391  2.6417 -1.3220
 8856TIP3   OH226531   1.882   5.964   4.133 -0.8256 -0.9175 -0.4210
 8856TIP3    H126532   1.881   6.031   4.202  0.7996 -2.2976  1.0375
 8856TIP3    H226533   1.820   5.996   4.068 -0.6001  1.6801  0.5159
 8857TIP3   OH226534   2.259   0.075   3.588 -0.0157  0.0235 -0.4224
 8857TIP3    H126535   2.226   0.029   3.511  1.4647 -0.7140 -0.6483
 8857TIP3    H226536   2.300   0.154   3.553  0.4952 -0.2199 -0.3789
 8858TIP3   OH226537   2.235   1.460   2.304 -0.4128 -0.3479 -0.7468
 8858TIP3    H126538   2.214   1.537   2.356 -0.7729 -1.5031  0.9153
 8858TIP3    H226539   2.150   1.431   2.270 -0.5537 -1.0001  0.1200
 8859TIP3   OH226540   3.409   6.478   2.252 -0.0931 -0.1171  0.1580
 8859TIP3    H126541   3.439   6.569   2.259  0.0128  0.0014 -1.4904
 8859TIP3    H226542   3.421   6.442   2.340 -0.6622  1.6152  0.9978
 8860TIP3   OH226543   0.711   3.671   2.554  0.4506 -0.0172  0.0843
 8860TIP3    H126544   0.637   3.657   2.495  0.5630  0.1537 -0.1022
 8860TIP3    H226545   0.786   3.680   2.495  0.4783  0.7132  0.2291
 8861TIP3   OH226546   4.066   4.818   5.025 -0.0281 -0.2901  0.3460
 8861TIP3    H126547   4.052   4.771   4.943 -0.2516 -0.7179  0.6209
 8861TIP3    H226548   4.020   4.900   5.015  0.4463 -0.0842 -0.1822
 8862TIP3   OH226549   0.559   6.753   1.856 -0.8092  0.4463  0.2603
 8862TIP3    H126550   0.507   6.821   1.898  1.0961  2.4131 -0.3866
 8862TIP3    H226551   0.571   6.784   1.766 -1.7129 -1.8733 -0.7558
 8863TIP3   OH226552   1.789   1.257   4.123 -0.1054  0.3314  0.9070
 8863TIP3    H126553   1.839   1.209   4.056 -0.8873  1.3193 -0.4498
 8863TIP3    H226554   1.852   1.320   4.160  0.2227  0.0810  0.7798
 8864TIP3   OH226555   6.039   2.634   2.790 -0.2623 -0.2084 -0.3899
 8864TIP3    H126556   5.963   2.690   2.775 -1.4615 -0.4179  3.7214
 8864TIP3    H226557   6.083   2.673   2.865  1.4847 -2.2901 -0.2443
 8865TIP3   OH226558   3.101   0.381   5.599  0.2370  0.0849 -0.4006
 8865TIP3    H126559   3.058   0.320   5.660 -0.3656 -0.5775 -1.4465
 8865TIP3    H226560   3.182   0.337   5.575  0.3016  0.1792 -0.3550
 8866TIP3   OH226561   1.237   3.229   0.015  0.3043  0.4680  0.0953
 8866TIP3    H126562   1.272   3.305   0.061 -1.3982  0.9296  0.6772
 8866TIP3    H226563   1.167   3.196   0.071 -0.1750 -0.4559 -1.0036
 8867TIP3   OH226564   3.517   4.662   1.534  0.0671  0.3075 -0.2041
 8867TIP3    H126565   3.558   4.713   1.604 -1.2592  0.1223  0.7487
 8867TIP3    H226566   3.581   4.594   1.513  0.3129  0.0877  1.1642
 8868TIP3   OH226567   1.581   2.851   0.611 -0.0190 -0.0239 -0.1422
 8868TIP3    H126568   1.539   2.936   0.595  0.1935  0.3566  1.2071
 8868TIP3    H226569   1.522   2.787   0.571  0.0975  0.7706 -1.6898
 8869TIP3   OH226570   4.634   6.532   5.470 -0.1167  0.2405 -0.2837
 8869TIP3    H126571   4.597   6.606   5.422 -0.3954  1.5823  1.8682
 8869TIP3    H226572   4.620   6.457   5.413 -3.3022  1.2075 -0.9597
 8870TIP3   OH226573   3.357   5.068   0.248  0.1823  0.2202 -0.3562
 8870TIP3    H126574   3.326   5.010   0.178 -0.5201  1.3580 -1.0239
 8870TIP3    H226575   3.346   5.016   0.328  2.4217 -1.6741 -1.1635
 8871TIP3   OH226576   3.468   6.762   1.057 -0.3500  0.5248  0.2184
 8871TIP3    H126577   3.426   6.783   0.973  2.1455  1.9581 -0.7696
 8871TIP3    H226578   3.464   6.666   1.062 -1.5665  0.4789 -0.9460
 8872TIP3   OH226579   2.003   0.324   3.468  0.4616 -0.4236 -0.3390
 8872TIP3    H126580   1.909   0.311   3.472  0.3635 -0.1297 -1.3821
 8872TIP3    H226581   2.029   0.285   3.384  1.2009 -0.1354 -0.2528
 8873TIP3   OH226582   0.095   3.313   2.336 -0.5090 -0.1211 -0.2404
 8873TIP3    H126583   0.045   3.261   2.398 -1.7211 -0.5013 -1.4875
 8873TIP3    H226584   0.064   3.285   2.250  1.2693  0.2319 -1.0525
 8874TIP3   OH226585   1.901   3.122   2.771  0.4775 -0.1511  0.3753
 8874TIP3    H126586   1.844   3.114   2.847  0.5922 -2.1212  0.2929
 8874TIP3    H226587   1.990   3.121   2.807  0.5470  2.2433  0.4458
 8875TIP3   OH226588   4.863   0.610   3.077 -0.3608 -0.4860  0.1526
 8875TIP3    H126589   4.872   0.631   2.984 -3.1737 -2.5187 -0.7210
 8875TIP3    H226590   4.917   0.532   3.091 -0.5677 -0.6554  0.0114
 8876TIP3   OH226591   2.603   0.914   5.576 -0.3622  0.5747  0.0551
 8876TIP3    H126592   2.594   1.005   5.550  0.6418  0.5571 -0.4025
 8876TIP3    H226593   2.697   0.896   5.568 -0.6691 -0.7617 -0.7755
 8877TIP3   OH226594   0.613   0.665   1.598  0.0891  0.2061  0.0680
 8877TIP3    H126595   0.559   0.606   1.545  0.3990 -0.2757  0.2779
 8877TIP3    H226596   0.560   0.681   1.676 -1.6617  3.2308 -1.5453
 8878TIP3   OH226597   6.645   0.658   5.317 -0.4260  0.1314  0.4668
 8878TIP3    H126598   6.606   0.740   5.348  1.4432  0.6481  1.5687
 8878TIP3    H226599   6.678   0.615   5.396  3.2596  0.8387 -0.5353
 8879TIP3   OH226600   0.081   3.074   1.553  0.0249  0.3128 -0.0083
 8879TIP3    H126601   0.114   3.164   1.555 -0.1009  0.4118 -1.4907
 8879TIP3    H226602   0.145   3.024   1.604 -1.1563  1.5766  2.9546
 8880TIP3   OH226603   6.208   4.559   0.348 -0.3109  0.0577 -0.4806
 8880TIP3    H126604   6.256   4.527   0.271  1.3942 -0.3370  0.6871
 8880TIP3    H226605   6.117   4.566   0.318  0.3804  0.5648 -2.7286
 8881TIP3   OH226606   4.800   3.015   5.844 -0.7441  0.0076  0.3556
 8881TIP3    H126607   4.811   2.943   5.781 -2.7273  0.9534 -1.2068
 8881TIP3    H226608   4.848   3.088   5.805 -0.2874  0.0443  0.9885
 8882TIP3   OH226609   1.779   2.081   0.778  0.3127  0.0185  0.4202
 8882TIP3    H126610   1.834   2.026   0.723  0.3284 -0.2019  0.6532
 8882TIP3    H226611   1.766   2.161   0.727 -1.4023 -0.9850 -0.7870
 8883TIP3   OH226612   1.200   0.381   5.273  0.3594  0.3711  0.1337
 8883TIP3    H126613   1.276   0.333   5.240 -0.4154  0.5172 -2.0157
 8883TIP3    H226614   1.174   0.437   5.201 -3.0675 -1.2185 -0.0545
 8884TIP3   OH226615   0.173   3.971   0.820  0.0605  0.0272  0.1038
 8884TIP3    H126616   0.080   3.949   0.825  0.0833 -0.4450 -1.2152
 8884TIP3    H226617   0.175   4.066   0.822 -0.4272  0.0363  0.4168
 8885TIP3   OH226618   1.695   2.294   5.792 -0.0091  0.3746 -0.3103
 8885TIP3    H126619   1.718   2.201   5.785 -0.6261  0.0460  1.5427
 8885TIP3    H226620   1.761   2.339   5.739  0.0328 -1.1326 -1.6267
 8886TIP3   OH226621   3.906   0.437   2.693  0.5061 -0.0787  0.1875
 8886TIP3    H126622   3.845   0.366   2.714  0.9482  0.2261  2.8827
 8886TIP3    H226623   3.969   0.436   2.766  3.3243  0.1141 -2.0719
 8887TIP3   OH226624   0.835   0.640   5.716  0.1089  0.0105  0.7806
 8887TIP3    H126625   0.926   0.625   5.743 -0.5078  0.5409  3.4919
 8887TIP3    H226626   0.784   0.580   5.771 -1.2459  0.1690 -0.2482
 8888TIP3   OH226627   6.878   1.744   5.754 -0.2549 -0.4313  0.4227
 8888TIP3    H126628   6.944   1.799   5.796  0.2526 -1.6942  1.3606
 8888TIP3    H226629   6.804   1.802   5.739  0.9051  0.9372 -0.3089
 8889TIP3   OH226630   2.094   2.046   5.406  0.0864 -0.0986  0.3659
 8889TIP3    H126631   2.085   1.970   5.348  0.7555  0.1984 -0.1407
 8889TIP3    H226632   2.173   2.090   5.375 -0.0587  0.5663  0.9320
 8890TIP3   OH226633   0.161   6.536   1.068 -0.5350  0.3296 -0.7071
 8890TIP3    H126634   0.253   6.560   1.078 -0.8118  1.5349 -0.9178
 8890TIP3    H226635   0.132   6.512   1.156 -0.4902  1.7121 -0.3009
 8891TIP3   OH226636   1.272   5.895   0.310  0.1032 -1.0239  0.2562
 8891TIP3    H126637   1.178   5.895   0.330  0.2304 -0.4381  0.8961
 8891TIP3    H226638   1.281   5.961   0.241  0.3151  0.4994  1.6710
 8892TIP3   OH226639   6.633   3.845   3.207 -0.2365 -0.2146  0.8639
 8892TIP3    H126640   6.665   3.755   3.201  0.2149 -0.0128  0.0221
 8892TIP3    H226641   6.538   3.838   3.197 -0.0707 -0.4825 -0.7358
 8893TIP3   OH226642   5.280   0.198   3.869 -0.0151  0.0417  0.6357
 8893TIP3    H126643   5.240   0.283   3.850  2.5134  0.8686 -1.4752
 8893TIP3    H226644   5.257   0.143   3.794  0.0726 -0.4957  0.9974
 8894TIP3   OH226645   0.938   6.169   4.606  0.1506 -0.4834  0.2776
 8894TIP3    H126646   0.988   6.181   4.526 -1.5211 -0.4249 -0.8048
 8894TIP3    H226647   0.995   6.118   4.663  2.4490  1.7145  0.1316
 8895TIP3   OH226648   1.171   0.025   0.887  0.6332 -0.2304  0.2513
 8895TIP3    H126649   1.123  -0.040   0.938  0.0464  0.2025  0.2624
 8895TIP3    H226650   1.122   0.106   0.899  2.1753  0.5762  1.4672
 8896TIP3   OH226651   3.396   5.301   3.682  0.7016  0.3171  0.0813
 8896TIP3    H126652   3.382   5.244   3.606  2.2258  0.8176 -0.6219
 8896TIP3    H226653   3.308   5.322   3.713  0.0175  0.3684 -1.7594
 8897TIP3   OH226654   2.720   6.099   0.310 -0.3232  0.0739  0.2205
 8897TIP3    H126655   2.757   6.019   0.272 -1.6593 -0.7104  0.4726
 8897TIP3    H226656   2.786   6.129   0.371  1.1300  0.3906 -1.4214
 8898TIP3   OH226657   3.098   0.381   2.029 -0.0890 -0.4044 -0.2996
 8898TIP3    H126658   3.187   0.360   2.002  0.5366  0.5877  0.9180
 8898TIP3    H226659   3.075   0.459   1.980  0.4700  0.4826  0.7906
 8899TIP3   OH226660   4.287   5.221   4.344  0.3659  0.5758  0.4579
 8899TIP3    H126661   4.303   5.316   4.342  1.1024  0.4591  0.4128
 8899TIP3    H226662   4.321   5.190   4.260 -0.3562  0.3392  0.2489
 8900TIP3   OH226663   0.767   5.511   3.077  0.0566  0.2006  0.1132
 8900TIP3    H126664   0.818   5.492   3.156 -0.7399 -0.8372  0.3832
 8900TIP3    H226665   0.714   5.433   3.062  0.9896 -0.0842 -2.0927
 8901TIP3   OH226666   0.115   3.177   0.084 -0.1724  0.3193  0.1014
 8901TIP3    H126667   0.079   3.247   0.137  0.7956  0.3118  0.8022
 8901TIP3    H226668   0.040   3.126   0.056 -0.7184  0.4511  1.2950
 8902TIP3   OH226669   6.727   6.076   5.285 -0.0422  0.2628 -0.2263
 8902TIP3    H126670   6.640   6.065   5.323  0.3431  1.7463  1.1556
 8902TIP3    H226671   6.710   6.107   5.196 -0.9135 -0.0408 -0.1808
 8903TIP3   OH226672   7.130   6.650   3.827  0.1741 -0.3274  0.3613
 8903TIP3    H126673   7.166   6.564   3.848 -0.2995 -0.9109 -1.1614
 8903TIP3    H226674   7.036   6.635   3.817  0.2918  0.0197 -1.5425
 8904TIP3   OH226675   0.941   1.768   3.933 -0.2037 -0.7961 -0.0141
 8904TIP3    H126676   0.990   1.749   4.014  0.3850  1.0810  0.1193
 8904TIP3    H226677   0.855   1.796   3.963 -0.6205 -1.9196 -0.1414
 8905TIP3   OH226678   5.011   2.754   4.550 -0.4554 -0.7848 -0.3176
 8905TIP3    H126679   4.997   2.837   4.504  0.1739 -0.5056 -0.0212
 8905TIP3    H226680   5.035   2.692   4.482 -0.2385 -0.5506 -0.4576
 8906TIP3   OH226681   3.145   3.082   2.385 -0.3836  0.0743  0.1874
 8906TIP3    H126682   3.172   3.155   2.329 -0.8179 -0.2628 -0.4748
 8906TIP3    H226683   3.122   3.123   2.468 -0.2729  0.6520 -0.0595
 8907TIP3   OH226684   3.889   6.200   5.611  0.3651 -0.1713  0.1744
 8907TIP3    H126685   3.808   6.158   5.582  0.2803 -0.4759  0.8460
 8907TIP3    H226686   3.958   6.150   5.567  0.1995 -0.0731 -0.1984
 8908TIP3   OH226687   4.854   0.703   1.362 -0.3826 -0.0196 -0.4321
 8908TIP3    H126688   4.827   0.697   1.271 -1.5346 -1.8386 -0.0300
 8908TIP3    H226689   4.864   0.796   1.379 -1.6231  0.4319 -2.0002
 8909TIP3   OH226690   6.590   5.594   0.244  0.7954  0.3661 -0.2266
 8909TIP3    H126691   6.585   5.578   0.338 -0.7090  0.0273 -0.3401
 8909TIP3    H226692   6.628   5.514   0.208  0.5631  0.1461  0.0133
 8910TIP3   OH226693   1.303   6.410   5.273  0.0405  0.1644 -0.0468
 8910TIP3    H126694   1.395   6.385   5.278  0.5029  1.6387 -0.7561
 8910TIP3    H226695   1.265   6.347   5.211  0.3249 -1.0176  0.9234
 8911TIP3   OH226696   4.474   6.030   1.881 -0.1688 -0.1610 -0.3879
 8911TIP3    H126697   4.570   6.040   1.882 -0.0430 -1.1997 -0.8761
 8911TIP3    H226698   4.441   6.119   1.877  0.8130  0.1651 -2.0880
 8912TIP3   OH226699   2.073   4.485   3.871  0.0497 -0.4255  0.1018
 8912TIP3    H126700   2.147   4.470   3.812  0.6873  2.1630  0.1060
 8912TIP3    H226701   1.999   4.445   3.826  0.9110 -0.3746 -1.4423
 8913TIP3   OH226702   3.149   5.799   2.993 -0.1136  0.0734  0.4961
 8913TIP3    H126703   3.177   5.720   3.040  0.5074  0.6327  1.0855
 8913TIP3    H226704   3.062   5.777   2.959  0.1129 -0.9108  0.5325
 8914TIP3   OH226705   0.592   3.751   3.170 -0.4106  0.2651 -0.5840
 8914TIP3    H126706   0.655   3.793   3.112  0.6913 -0.1391  0.2754
 8914TIP3    H226707   0.614   3.785   3.257 -0.9905 -0.3551 -0.1869
 8915TIP3   OH226708   0.967   6.494   2.118 -0.1162 -0.8114  0.5680
 8915TIP3    H126709   0.933   6.504   2.206  1.8734  1.6557  1.1852
 8915TIP3    H226710   0.896   6.523   2.061 -0.0730  1.7885  1.6704
 8916TIP3   OH226711   2.021   5.472   5.383  0.6977 -0.2540 -0.2145
 8916TIP3    H126712   1.947   5.533   5.382  0.0265 -1.0512 -0.9202
 8916TIP3    H226713   2.098   5.527   5.395 -0.0188  0.5874  0.6539
 8917TIP3   OH226714   3.785   1.238   3.157 -0.2904 -0.2651 -0.0229
 8917TIP3    H126715   3.877   1.265   3.157 -0.3905  0.0768  0.7485
 8917TIP3    H226716   3.769   1.210   3.067  1.0483 -1.9823  0.2390
 8918TIP3   OH226717   4.034   6.534   3.589  0.5773 -0.0752  0.2126
 8918TIP3    H126718   4.078   6.603   3.639  0.2300 -1.4739  2.6064
 8918TIP3    H226719   4.106   6.482   3.553  0.8265  0.8531 -0.7224
 8919TIP3   OH226720   4.023   3.603   3.097 -0.0113 -0.1919  0.1171
 8919TIP3    H126721   3.993   3.644   3.016 -0.3102 -2.4959 -1.0253
 8919TIP3    H226722   4.108   3.643   3.115 -2.1619  4.2894  1.7477
 8920TIP3   OH226723   5.692   0.347   4.832 -0.0326 -0.1450 -0.0565
 8920TIP3    H126724   5.619   0.369   4.775 -0.1667  0.2717  0.2687
 8920TIP3    H226725   5.667   0.264   4.873 -0.5261  0.2161  0.3847
 8921TIP3   OH226726   7.213   0.405   5.103 -0.3550 -0.0035 -0.8994
 8921TIP3    H126727   7.207   0.462   5.180 -0.3476 -0.5419 -0.4917
 8921TIP3    H226728   7.164   0.450   5.035 -1.6349 -0.2085 -0.1468
 8922TIP3   OH226729   0.320   0.492   2.298  0.4196 -0.2577 -0.3543
 8922TIP3    H126730   0.233   0.513   2.264 -0.0170 -1.1557  0.1688
 8922TIP3    H226731   0.380   0.522   2.230 -0.4257 -2.1049 -2.0196
 8923TIP3   OH226732   4.453   2.481   4.656  0.1796 -0.1832 -0.1831
 8923TIP3    H126733   4.503   2.405   4.686 -0.3429 -0.3519  0.2850
 8923TIP3    H226734   4.513   2.554   4.664  0.0788 -0.2369  1.2222
 8924TIP3   OH226735   1.942   1.613   2.288  0.2184 -0.0695  0.4092
 8924TIP3    H126736   1.891   1.602   2.367  0.7886 -3.3437  0.4579
 8924TIP3    H226737   2.025   1.651   2.318 -0.6209  1.4952  0.8768
 8925TIP3   OH226738   3.385   6.462   5.169  0.3023 -0.0002 -0.4074
 8925TIP3    H126739   3.353   6.464   5.079 -1.7271  1.4942  0.2526
 8925TIP3    H226740   3.305   6.466   5.222  1.4544 -0.6069  1.4612
 8926TIP3   OH226741   1.392   3.552   3.448 -0.0172 -0.2073  0.2051
 8926TIP3    H126742   1.313   3.509   3.415 -0.4454  0.5642  0.1887
 8926TIP3    H226743   1.463   3.492   3.426 -0.4546 -0.3660 -0.8624
 8927TIP3   OH226744   1.849   3.205   2.508 -0.0335 -0.0368 -0.3361
 8927TIP3    H126745   1.863   3.124   2.556  0.8197 -0.1412 -0.7479
 8927TIP3    H226746   1.865   3.274   2.573 -1.3150 -0.1773  0.1662
 8928TIP3   OH226747   1.685   0.905   0.244 -0.4318  0.6762  0.0307
 8928TIP3    H126748   1.698   0.988   0.197 -2.0440  0.3796 -1.0484
 8928TIP3    H226749   1.765   0.855   0.228 -0.6602  0.8475 -1.9347
 8929TIP3   OH226750   6.665   5.236   2.728  0.6468  0.6913 -0.2665
 8929TIP3    H126751   6.612   5.267   2.654 -0.8213  1.6150  1.1043
 8929TIP3    H226752   6.727   5.308   2.744  1.6190  0.0880 -1.1512
 8930TIP3   OH226753   6.965   4.494   1.660 -0.0654  0.8394 -0.2724
 8930TIP3    H126754   6.938   4.459   1.745 -0.1373  1.5179 -0.0138
 8930TIP3    H226755   6.946   4.587   1.665 -2.5835  0.4938 -2.0276
 8931TIP3   OH226756   4.205   1.270   4.310 -0.0688  0.5514  0.1977
 8931TIP3    H126757   4.151   1.330   4.362  0.0683 -1.1665  2.5062
 8931TIP3    H226758   4.142   1.212   4.268 -0.1136  0.4533  0.3996
 8932TIP3   OH226759   4.807   3.171   2.044 -0.1209  0.6662  0.0255
 8932TIP3    H126760   4.712   3.177   2.040 -0.1791 -0.1554  0.1490
 8932TIP3    H226761   4.837   3.261   2.032 -0.8737  0.7791 -1.1825
 8933TIP3   OH226762   5.757   5.675   3.609 -0.4129 -0.0692  0.6819
 8933TIP3    H126763   5.730   5.763   3.582 -2.4986 -0.6271  0.7543
 8933TIP3    H226764   5.775   5.683   3.703 -0.8676  0.2264  0.7456
 8934TIP3   OH226765   0.040   0.334   2.295 -0.1850  0.0686  0.4305
 8934TIP3    H126766   0.049   0.408   2.236  0.4603 -0.7720 -0.5693
 8934TIP3    H226767   0.042   0.257   2.238 -1.6481 -0.7137  1.3472
 8935TIP3   OH226768   6.636   4.728   4.309  0.0358 -0.1956 -0.3362
 8935TIP3    H126769   6.659   4.689   4.394 -1.4534  0.3099  0.3280
 8935TIP3    H226770   6.697   4.686   4.247  1.3270 -0.3919  0.9916
 8936TIP3   OH226771   1.790   6.235   3.074 -0.0833 -0.9086 -0.2209
 8936TIP3    H126772   1.818   6.147   3.048  1.4949 -1.2321  2.3096
 8936TIP3    H226773   1.700   6.223   3.105  0.0042 -1.5434 -0.2011
 8937TIP3   OH226774   5.993   3.341   0.392  0.0242  0.0600 -0.1183
 8937TIP3    H126775   5.904   3.310   0.378  0.0510  0.2760 -0.8335
 8937TIP3    H226776   6.048   3.263   0.386 -0.1412 -0.1246  0.6615
 8938TIP3   OH226777   4.843   6.062   4.937 -0.6282  0.0955  0.4775
 8938TIP3    H126778   4.838   6.031   4.846 -0.9726 -1.6250  1.0600
 8938TIP3    H226779   4.854   6.157   4.928  0.7558 -0.1655 -1.3943
 8939TIP3   OH226780   3.445   1.362   2.886 -0.0984  0.1252  0.3810
 8939TIP3    H126781   3.408   1.296   2.944  0.4454 -0.1190  0.4561
 8939TIP3    H226782   3.514   1.405   2.938 -1.6180  2.0020  0.9714
 8940TIP3   OH226783   4.810   1.204   3.094  0.3250 -0.2638  0.4661
 8940TIP3    H126784   4.901   1.182   3.075  0.5180  1.0502 -0.2816
 8940TIP3    H226785   4.774   1.231   3.009 -0.3273  0.6368  1.0054
 8941TIP3   OH226786   2.221   1.110   3.348 -0.1517  0.1592 -0.3797
 8941TIP3    H126787   2.297   1.142   3.397  0.7004 -1.7389 -0.3897
 8941TIP3    H226788   2.171   1.189   3.328  0.4472  1.1931  1.8789
 8942TIP3   OH226789   0.446   4.413   0.702 -0.6241 -0.1687 -0.0611
 8942TIP3    H126790   0.521   4.355   0.695  0.1436  0.8970 -1.0050
 8942TIP3    H226791   0.429   4.419   0.796  0.9610  0.1735  0.2273
 8943TIP3   OH226792   5.947   4.888   5.822  0.4093  0.4367  0.4386
 8943TIP3    H126793   5.884   4.959   5.818  1.9442  1.8881 -3.6685
 8943TIP3    H226794   6.015   4.919   5.882 -0.6723  0.7575  1.5231
 8944TIP3   OH226795   5.148   2.446   2.219 -0.1288  0.1769  0.1609
 8944TIP3    H126796   5.161   2.449   2.124 -1.4722 -2.1668 -0.1598
 8944TIP3    H226797   5.107   2.530   2.240  0.0818  0.6918 -1.3259
 8945TIP3   OH226798   0.940   4.215   1.838 -0.4659  0.0216  0.2264
 8945TIP3    H126799   0.977   4.202   1.925  2.3366 -0.2869 -0.9130
 8945TIP3    H226800   0.976   4.298   1.809 -0.2234 -0.5476 -1.1692
 8946TIP3   OH226801   3.939   5.666   3.667 -0.1190  0.1542  0.4320
 8946TIP3    H126802   3.888   5.587   3.649  3.5116 -2.7162  1.3883
 8946TIP3    H226803   3.933   5.677   3.762  0.1947  0.4159  0.4226
 8947TIP3   OH226804   4.637   3.672   3.642  0.9118 -0.2917  0.1053
 8947TIP3    H126805   4.676   3.697   3.558  0.9413  0.8167  0.4350
 8947TIP3    H226806   4.548   3.706   3.638  1.2079  0.6098  0.8896
 8948TIP3   OH226807   2.341   1.807   1.727 -0.2614 -0.6563  0.3173
 8948TIP3    H126808   2.298   1.732   1.685  1.1544 -0.3645 -1.8043
 8948TIP3    H226809   2.434   1.787   1.723  0.0608  0.5761  1.0679
 8949TIP3   OH226810   6.245   5.867   1.716  0.0169  0.1795  0.1240
 8949TIP3    H126811   6.331   5.885   1.677 -0.5091  3.0861  0.0561
 8949TIP3    H226812   6.197   5.821   1.647  0.1587  2.4063 -1.6063
 8950TIP3   OH226813   5.979   1.913   0.731  0.3079  0.0096 -0.3305
 8950TIP3    H126814   5.980   1.881   0.822 -1.3599 -0.4347 -0.4350
 8950TIP3    H226815   5.960   2.006   0.739  1.6748  0.3021 -0.1857
 8951TIP3   OH226816   0.832   5.816   3.457 -0.1069  0.6026 -0.5882
 8951TIP3    H126817   0.796   5.901   3.483 -0.8366  0.1151  0.0485
 8951TIP3    H226818   0.879   5.785   3.534 -1.3614 -0.3607 -0.1699
 8952TIP3   OH226819   4.191   2.457   2.496 -0.2725  0.2800  0.2930
 8952TIP3    H126820   4.239   2.509   2.561 -1.0682  0.9714  0.3405
 8952TIP3    H226821   4.217   2.366   2.515  3.2996  0.7265 -1.5251
 8953TIP3   OH226822   2.357   1.384   1.249  0.2093 -0.2781  0.4425
 8953TIP3    H126823   2.409   1.317   1.293 -0.5072  0.4046  2.4530
 8953TIP3    H226824   2.353   1.356   1.158  1.5440 -1.9231  0.8483
 8954TIP3   OH226825   5.414   5.070   0.048  0.0618  0.5505 -0.1081
 8954TIP3    H126826   5.396   5.025   0.131  0.8233  1.5222  0.6000
 8954TIP3    H226827   5.448   5.001  -0.010 -2.2012 -0.5321 -0.2504
 8955TIP3   OH226828   6.656   1.775   1.762 -0.6546 -0.1272  0.1112
 8955TIP3    H126829   6.658   1.679   1.753 -0.1515 -0.1235  0.1499
 8955TIP3    H226830   6.740   1.797   1.802 -1.3876  0.2049  1.4984
 8956TIP3   OH226831   5.149   3.744   0.841 -0.3023  0.2115 -0.1660
 8956TIP3    H126832   5.128   3.814   0.778 -1.2649 -0.4245 -0.5583
 8956TIP3    H226833   5.116   3.776   0.925  0.1977  0.6763 -0.1392
 8957TIP3   OH226834   5.835   3.853   5.581  0.2824 -0.6232  0.5355
 8957TIP3    H126835   5.786   3.929   5.613 -2.1970 -1.9253  0.1261
 8957TIP3    H226836   5.885   3.886   5.506 -0.6471  0.6362  0.4359
 8958TIP3   OH226837   2.665   5.382   4.703  0.1176 -0.0086  0.4285
 8958TIP3    H126838   2.679   5.313   4.768 -0.6039 -0.5768  0.0058
 8958TIP3    H226839   2.647   5.335   4.621  1.1949  0.6916 -0.2410
 8959TIP3   OH226840   6.667   3.182   1.931  0.0743  0.0963  0.6362
 8959TIP3    H126841   6.732   3.112   1.938  0.3443  0.3337  0.5042
 8959TIP3    H226842   6.718   3.263   1.933 -0.0739  0.2603 -0.8325
 8960TIP3   OH226843   1.001   1.051   0.205 -0.0696 -0.2156 -0.1814
 8960TIP3    H126844   1.096   1.035   0.210  0.0595  0.4711 -0.3333
 8960TIP3    H226845   0.993   1.131   0.153 -0.6717  0.4698  0.9432
 8961TIP3   OH226846   4.211   5.358   5.326  0.1098 -0.2294  0.1087
 8961TIP3    H126847   4.135   5.309   5.295 -1.2283  1.6027  0.3366
 8961TIP3    H226848   4.263   5.373   5.247 -1.6607  1.6392 -0.7935
 8962TIP3   OH226849   0.602   4.221   5.239 -0.1619 -0.0826  0.0161
 8962TIP3    H126850   0.674   4.205   5.178 -1.4893 -3.2405 -0.9216
 8962TIP3    H226851   0.567   4.306   5.214  2.2257  0.8254 -0.4949
 8963TIP3   OH226852   6.325   3.178   1.421 -0.4517  1.0056  0.1966
 8963TIP3    H126853   6.234   3.154   1.442 -0.4975  0.8526 -0.1679
 8963TIP3    H226854   6.327   3.274   1.430 -0.9624  1.1448 -0.9464
 8964TIP3   OH226855   3.233   5.003   3.780  0.1145 -0.2408 -0.1962
 8964TIP3    H126856   3.328   5.004   3.766  0.1969  2.1869  0.0832
 8964TIP3    H226857   3.221   5.044   3.865 -1.2068 -0.5920 -0.1959
 8965TIP3   OH226858   5.946   4.536   0.533  0.6401  0.1750 -0.1734
 8965TIP3    H126859   5.902   4.538   0.449 -0.6778  0.2338  0.4926
 8965TIP3    H226860   5.996   4.454   0.533  1.3740  0.6013 -1.3384
 8966TIP3   OH226861   5.617   4.823   4.057 -0.1634 -0.0725 -0.3017
 8966TIP3    H126862   5.667   4.902   4.035  1.1205 -1.2353 -1.8065
 8966TIP3    H226863   5.679   4.768   4.105 -0.9713 -0.2937  0.5202
 8967TIP3   OH226864   2.191   3.489   0.696  0.4628 -0.3486  0.4674
 8967TIP3    H126865   2.099   3.505   0.677  0.4608  1.7030  1.8964
 8967TIP3    H226866   2.230   3.469   0.610 -0.7637  1.7830 -0.6820
 8968TIP3   OH226867   2.881   5.737   2.907  0.3262 -0.1303 -0.3912
 8968TIP3    H126868   2.839   5.762   2.989  0.4979  1.8554 -0.8685
 8968TIP3    H226869   2.826   5.667   2.872  0.4513 -1.2647  1.5622
 8969TIP3   OH226870   6.615   1.487   1.767  0.2406  0.2878  0.1668
 8969TIP3    H126871   6.604   1.401   1.808  1.4790 -0.8768 -1.7682
 8969TIP3    H226872   6.526   1.518   1.752 -0.2933 -1.7423 -1.1731
 8970TIP3   OH226873   6.899   6.336   1.875  0.2521 -0.1142  0.1734
 8970TIP3    H126874   6.850   6.264   1.837 -0.8283  0.1488  1.0104
 8970TIP3    H226875   6.956   6.367   1.804  0.6236 -1.6647 -0.2436
 8971TIP3   OH226876   0.457   4.011   2.912 -0.0842 -0.5416  0.4034
 8971TIP3    H126877   0.537   3.963   2.934  1.9822  1.8034 -1.3462
 8971TIP3    H226878   0.453   4.083   2.975 -0.3774 -0.2106  0.0180
 8972TIP3   OH226879   3.069   4.090   0.374 -0.1448 -0.8660 -0.2154
 8972TIP3    H126880   3.065   4.120   0.465 -2.7076 -1.3986 -0.0920
 8972TIP3    H226881   3.023   4.007   0.374 -1.1451 -0.3577 -2.1763
 8973TIP3   OH226882   6.992   6.391   4.683 -0.5630  0.1496 -0.7804
 8973TIP3    H126883   6.956   6.428   4.602 -0.0673  1.2553 -0.5107
 8973TIP3    H226884   7.071   6.441   4.699 -0.5353 -0.2167  0.2706
 8974TIP3   OH226885   6.576   4.691   2.691  0.7379  0.5093  0.1067
 8974TIP3    H126886   6.481   4.693   2.705  0.8691  0.8469  1.0612
 8974TIP3    H226887   6.606   4.778   2.717  1.3602  0.2664  0.2243
 8975TIP3   OH226888   6.786   0.526   5.532 -0.0284  0.2272 -0.0525
 8975TIP3    H126889   6.774   0.485   5.617 -0.1502  0.7469  0.1826
 8975TIP3    H226890   6.854   0.592   5.546  1.2493 -0.8916 -0.7682
 8976TIP3   OH226891   7.069   0.160   2.801 -0.4279  0.0909 -0.2411
 8976TIP3    H126892   7.148   0.115   2.774 -0.7660  0.1760 -1.4297
 8976TIP3    H226893   6.998   0.099   2.780 -0.7106  0.1626  0.4692
 8977TIP3   OH226894   2.978   2.592   2.080  0.0419  0.2449 -0.1268
 8977TIP3    H126895   2.950   2.502   2.064  0.3193 -0.3625  2.3169
 8977TIP3    H226896   2.901   2.636   2.115  0.4129  0.3658  0.5756
 8978TIP3   OH226897   4.441   5.462   0.836 -0.0858 -0.4164 -0.1941
 8978TIP3    H126898   4.509   5.441   0.900  0.1622 -1.3219 -0.7398
 8978TIP3    H226899   4.455   5.400   0.765 -2.4994 -1.7341  0.3965
 8979TIP3   OH226900   2.859   4.906   3.868  0.0228 -0.3651 -0.4933
 8979TIP3    H126901   2.787   4.894   3.807  0.2805  0.0341 -0.8818
 8979TIP3    H226902   2.841   4.991   3.910  0.2197 -0.3079 -0.5249
 8980TIP3   OH226903   4.621   5.668   2.710  0.1035 -0.4960  0.3380
 8980TIP3    H126904   4.545   5.644   2.656 -1.7832  0.3915  2.4385
 8980TIP3    H226905   4.693   5.619   2.671 -1.3938 -0.9647 -2.1133
 8981TIP3   OH226906   5.609   2.817   2.507  0.5879  0.2711  0.4298
 8981TIP3    H126907   5.692   2.800   2.464  2.2409  0.4580  3.2646
 8981TIP3    H226908   5.608   2.912   2.520  0.2777  0.1947  1.0008
 8982TIP3   OH226909   2.120   5.538   1.073  0.0518 -0.4467  0.6071
 8982TIP3    H126910   2.067   5.480   1.129  0.1428  0.2409  1.4357
 8982TIP3    H226911   2.135   5.616   1.127 -1.0868  0.8935 -0.8990
 8983TIP3   OH226912   3.146   0.218   0.424 -0.5165 -0.0401 -0.7093
 8983TIP3    H126913   3.209   0.288   0.409 -0.5761  0.2232  0.1891
 8983TIP3    H226914   3.063   0.251   0.389 -0.5951  0.4415 -0.0887
 8984TIP3   OH226915   6.679   6.256   0.088 -0.5513 -0.5190 -0.0673
 8984TIP3    H126916   6.729   6.212   0.157  1.9552  0.7156 -0.9526
 8984TIP3    H226917   6.639   6.331   0.132  3.8864  2.3893 -0.2489
 8985TIP3   OH226918   0.254   3.610   5.020 -0.8539  0.3532  0.4446
 8985TIP3    H126919   0.328   3.640   5.072  0.4310 -0.1604 -0.9934
 8985TIP3    H226920   0.205   3.690   5.000  0.2654  0.9745  0.0444
 8986TIP3   OH226921   7.090   2.802   5.873  0.0922  0.5005  0.2447
 8986TIP3    H126922   6.998   2.777   5.883 -0.0777  1.2638  0.7004
 8986TIP3    H226923   7.137   2.719   5.864 -0.4430 -0.0009  1.7316
 8987TIP3   OH226924   3.467   3.607   3.341  0.0131 -0.3501  0.3036
 8987TIP3    H126925   3.560   3.622   3.357  0.1878 -0.1185 -0.8901
 8987TIP3    H226926   3.437   3.685   3.294 -0.2370 -1.4306 -1.4121
 8988TIP3   OH226927   6.628   1.925   0.431 -0.1878 -0.0584 -0.3441
 8988TIP3    H126928   6.717   1.935   0.466  0.1414 -1.0704 -0.8329
 8988TIP3    H226929   6.598   1.842   0.467 -0.4845 -0.2892 -1.0929
 8989TIP3   OH226930   1.206   5.559   0.472 -0.2647  0.0053 -0.3774
 8989TIP3    H126931   1.246   5.643   0.498 -0.7800  0.3994 -0.8327
 8989TIP3    H226932   1.118   5.583   0.443 -0.9220 -0.8655  0.7958
 8990TIP3   OH226933   5.926   0.081   4.195  0.3555 -0.6292  0.7881
 8990TIP3    H126934   5.895   0.170   4.212 -0.0958 -0.8090  0.9167
 8990TIP3    H226935   5.846   0.028   4.188  0.6280 -1.1062  1.1697
 8991TIP3   OH226936   6.908   6.458   0.075  0.3048 -0.6068 -0.1977
 8991TIP3    H126937   6.866   6.372   0.072 -0.2494 -0.5329  2.8592
 8991TIP3    H226938   6.992   6.443   0.119  0.9068  0.1994 -1.0222
 8992TIP3   OH226939   3.557   5.471   5.912 -0.5062  0.0897 -1.0669
 8992TIP3    H126940   3.610   5.411   5.859  0.0242  0.8653 -1.4258
 8992TIP3    H226941   3.467   5.447   5.891 -0.3496 -1.8598  0.2489
 8993TIP3   OH226942   0.478   2.370   5.157  0.6469  0.3169  0.0315
 8993TIP3    H126943   0.448   2.284   5.127  1.8998 -0.7157  1.5791
 8993TIP3    H226944   0.458   2.429   5.084 -0.0845 -1.2990 -1.1429
 8994TIP3   OH226945   6.904   1.676   1.290  0.7403  0.0296  0.0056
 8994TIP3    H126946   6.972   1.689   1.357  1.5471 -1.1843 -0.5320
 8994TIP3    H226947   6.951   1.683   1.207 -0.0304  0.3364 -0.4135
 8995TIP3   OH226948   6.433   2.450   2.365  0.5735 -0.1594 -0.8985
 8995TIP3    H126949   6.459   2.492   2.447  0.8621  0.2167 -1.1781
 8995TIP3    H226950   6.479   2.365   2.366 -1.3408 -1.2327  0.4462
 8996TIP3   OH226951   1.051   0.732   2.133  0.6123  0.2187 -0.2881
 8996TIP3    H126952   1.077   0.653   2.182  0.9355  0.7328  0.3839
 8996TIP3    H226953   0.958   0.720   2.116  0.4029  0.1930  0.7901
 8997TIP3   OH226954   5.430   3.118   0.836 -0.1591 -0.3070 -0.4961
 8997TIP3    H126955   5.392   3.055   0.775 -1.4068 -0.1072  0.0405
 8997TIP3    H226956   5.525   3.102   0.832 -0.0670  0.4838 -3.3622
 8998TIP3   OH226957   0.123   4.180   1.599 -0.3582  0.6745 -0.7533
 8998TIP3    H126958   0.067   4.188   1.522 -1.3349  0.7349 -0.0479
 8998TIP3    H226959   0.211   4.202   1.567 -0.8702  1.4157 -1.6800
 8999TIP3   OH226960   0.875   0.352   0.438 -0.1757 -0.0137 -0.1118
 8999TIP3    H126961   0.884   0.446   0.422 -1.7328  0.0432 -0.9243
 8999TIP3    H226962   0.872   0.343   0.533 -1.2252  0.9230 -0.0376
 9000TIP3   OH226963   6.812   6.152   1.701 -0.2058  0.6234  0.4299
 9000TIP3    H126964   6.796   6.226   1.641  1.2262  0.2130 -0.5162
 9000TIP3    H226965   6.791   6.074   1.649 -1.8231  0.3150  1.4600
 9001TIP3   OH226966   6.062   1.469   2.316  0.0837 -0.2659  0.3460
 9001TIP3    H126967   5.973   1.475   2.281  0.0598  0.9014  0.5837
 9001TIP3    H226968   6.115   1.522   2.256  0.5934 -0.7845  0.3255
 9002TIP3   OH226969   0.316   3.149   0.353  0.4874 -1.0035 -0.4804
 9002TIP3    H126970   0.291   3.118   0.265  0.3925  1.7925 -1.5642
 9002TIP3    H226971   0.405   3.118   0.365 -0.2346 -3.2923 -0.5727
 9003TIP3   OH226972   3.682   6.616   0.941 -0.0440  0.5327 -0.4744
 9003TIP3    H126973   3.662   6.659   1.024 -0.4205  1.0530 -0.8229
 9003TIP3    H226974   3.739   6.678   0.895  0.6706 -0.0252 -0.3521
 9004TIP3   OH226975   6.873   1.137   0.959 -0.5716  0.4036 -0.6941
 9004TIP3    H126976   6.882   1.161   1.052 -0.0168 -2.1159 -0.0121
 9004TIP3    H226977   6.824   1.210   0.920 -2.1772  0.8576  1.8965
 9005TIP3   OH226978   3.390   3.569   2.513  0.1370 -0.5805 -0.4142
 9005TIP3    H126979   3.375   3.530   2.599  0.6613  0.0228 -0.0392
 9005TIP3    H226980   3.355   3.658   2.520  0.8698 -0.2682 -0.5691
 9006TIP3   OH226981   0.664   3.939   2.655  0.4321  0.1360  0.0176
 9006TIP3    H126982   0.744   3.951   2.707  0.3662 -0.9022  0.3864
 9006TIP3    H226983   0.674   3.853   2.615 -1.6446 -1.2690  2.2299
 9007TIP3   OH226984   3.727   3.987   4.711  0.7393 -0.6685 -0.3262
 9007TIP3    H126985   3.775   3.992   4.793  1.0650 -0.4641 -0.5259
 9007TIP3    H226986   3.780   4.037   4.649 -0.5748  1.0346 -0.1563
 9008TIP3   OH226987   6.327   0.547   0.227 -0.2688  0.1971 -0.2804
 9008TIP3    H126988   6.251   0.505   0.188 -0.1871 -1.5992  1.3876
 9008TIP3    H226989   6.402   0.497   0.195 -0.1056 -0.4776  1.1106
 9009TIP3   OH226990   1.947   6.133   5.043  0.3685  0.5461  0.3084
 9009TIP3    H126991   1.869   6.090   5.008 -0.4154  1.4717  0.8791
 9009TIP3    H226992   1.973   6.195   4.975  0.9168 -0.1048 -0.0920
 9010TIP3   OH226993   5.104   6.467   3.791  0.0105  0.0523 -0.1719
 9010TIP3    H126994   5.031   6.423   3.835  0.9136 -0.8493  0.4569
 9010TIP3    H226995   5.075   6.558   3.783 -0.8773 -0.1329  0.7462
 9011TIP3   OH226996   3.616   4.972   4.435 -0.3282 -0.2011  0.3851
 9011TIP3    H126997   3.546   4.981   4.370 -2.1827  0.2569  2.3658
 9011TIP3    H226998   3.696   4.971   4.383 -1.7952 -1.7396 -2.0782
 9012TIP3   OH226999   2.023   4.760   1.402  0.1666 -0.1666  0.1579
 9012TIP3    H127000   1.930   4.765   1.378 -0.1030  0.6364  1.2591
 9012TIP3    H227001   2.035   4.669   1.431 -0.1720 -0.3898 -0.3970
 9013TIP3   OH227002   6.019   5.016   5.572  0.0964 -0.0019 -0.1231
 9013TIP3    H127003   5.962   5.066   5.629 -0.0580  1.2724 -1.3387
 9013TIP3    H227004   6.043   4.939   5.623 -2.2973 -0.3385  0.6082
 9014TIP3   OH227005   5.743   3.306   0.191  0.2899  0.0543 -0.4188
 9014TIP3    H127006   5.728   3.269   0.278 -1.1734  0.7921 -0.3378
 9014TIP3    H227007   5.750   3.401   0.206 -0.6080  0.2499 -1.1724
 9015TIP3   OH227008   2.756   0.295   5.530  0.0092 -0.0129 -0.3183
 9015TIP3    H127009   2.694   0.310   5.602  0.2295 -1.5764  0.2292
 9015TIP3    H227010   2.841   0.289   5.573  0.2845  0.1188 -0.8415
 9016TIP3   OH227011   5.527   5.489   3.290 -0.1373 -0.1518 -0.1889
 9016TIP3    H127012   5.592   5.444   3.344 -0.9696  0.1499  1.1386
 9016TIP3    H227013   5.488   5.420   3.236  1.6990 -0.2259 -1.4980
 9017TIP3   OH227014   1.348   0.401   1.485 -0.1752  0.1088 -0.0903
 9017TIP3    H127015   1.364   0.454   1.564 -1.0482 -2.4779  1.9607
 9017TIP3    H227016   1.255   0.412   1.467  0.0266  0.7068 -0.8099
 9018TIP3   OH227017   7.058   4.091   2.094 -0.2466  0.5081 -0.1446
 9018TIP3    H127018   6.999   4.141   2.038  2.0033 -0.3316 -3.5422
 9018TIP3    H227019   7.020   4.004   2.097 -1.5481  1.0635  1.6848
 9019TIP3   OH227020   0.392   4.246   4.191  0.1365 -0.6466 -0.3317
 9019TIP3    H127021   0.450   4.303   4.141  0.9878  0.7646  2.0839
 9019TIP3    H227022   0.407   4.270   4.282 -2.9729 -1.4614  0.5428
 9020TIP3   OH227023   6.103   2.170   2.377  0.6210  0.0345  0.3103
 9020TIP3    H127024   6.159   2.211   2.443  1.9879 -2.8966  1.1570
 9020TIP3    H227025   6.162   2.148   2.305 -0.4406  1.1786 -0.9771
 9021TIP3   OH227026   1.365   0.708   0.699 -0.0393  0.4397  0.4110
 9021TIP3    H127027   1.289   0.672   0.655  0.6669 -0.4151 -0.1506
 9021TIP3    H227028   1.358   0.678   0.790  0.2213 -0.6164  0.0911
 9022TIP3   OH227029   4.993   0.557   2.298 -0.2769 -0.3249 -0.3305
 9022TIP3    H127030   4.949   0.505   2.365  2.3351 -2.5632 -0.2263
 9022TIP3    H227031   5.057   0.609   2.346 -0.2794  0.1428 -0.8301
 9023TIP3   OH227032   2.596   5.500   0.446  0.4714 -0.2663  0.1187
 9023TIP3    H127033   2.665   5.466   0.503 -1.4881 -0.3363  2.6438
 9023TIP3    H227034   2.524   5.438   0.457 -0.4515  0.4628 -1.4616
 9024TIP3   OH227035   5.990   3.337   3.275  0.3624 -0.1272 -0.4194
 9024TIP3    H127036   5.904   3.311   3.307  0.3369  1.7147  1.2108
 9024TIP3    H227037   6.043   3.258   3.280 -1.1251 -1.2011 -1.1133
 9025TIP3   OH227038   2.881   2.356   1.961 -0.5429 -0.4429  0.4266
 9025TIP3    H127039   2.922   2.289   2.015 -0.8967 -0.2549  0.9347
 9025TIP3    H227040   2.821   2.307   1.905  0.3654 -0.7186 -0.3281
 9026TIP3   OH227041   3.242   3.430   2.797  0.4770 -0.3224 -0.0163
 9026TIP3    H127042   3.203   3.354   2.754 -1.5349  1.2573 -1.1447
 9026TIP3    H227043   3.218   3.420   2.889 -1.9377  0.1185 -0.5269
 9027TIP3   OH227044   4.963   2.142   3.935  0.1948 -0.3254 -0.2701
 9027TIP3    H127045   5.019   2.065   3.922 -1.0394 -0.7561 -4.0985
 9027TIP3    H227046   4.888   2.108   3.984 -0.3990 -1.7173 -2.0244
 9028TIP3   OH227047   3.837   5.340   0.580  0.2131  0.3148 -0.1778
 9028TIP3    H127048   3.863   5.373   0.494  2.7005 -0.5065  0.1842
 9028TIP3    H227049   3.880   5.398   0.643  3.0110 -2.1818  0.4549
 9029TIP3   OH227050   5.091   4.998   3.611  0.1985 -0.4581  0.1126
 9029TIP3    H127051   5.186   4.989   3.623  1.1523  1.7097 -3.9775
 9029TIP3    H227052   5.073   5.089   3.637 -1.3948 -1.5112  3.1674
 9030TIP3   OH227053   5.458   0.656   4.489 -0.7561  0.0525  0.3831
 9030TIP3    H127054   5.376   0.688   4.526 -0.6056 -2.1503  2.8889
 9030TIP3    H227055   5.488   0.727   4.432 -3.5523  1.5795  0.6630
 9031TIP3   OH227056   7.029   5.515   4.023 -0.5061 -0.4971  0.3177
 9031TIP3    H127057   6.946   5.545   4.060 -0.8934  1.1347 -1.7261
 9031TIP3    H227058   7.096   5.565   4.070 -0.9499  1.1483 -0.7454
 9032TIP3   OH227059   2.311   0.256   0.916 -0.3052  0.4643  0.2719
 9032TIP3    H127060   2.323   0.206   0.996  1.0025 -1.2846 -0.9245
 9032TIP3    H227061   2.338   0.345   0.939 -2.2549  0.6202  2.3361
 9033TIP3   OH227062   7.135   3.492   4.575  0.0859  0.8272 -0.6419
 9033TIP3    H127063   7.196   3.566   4.576 -0.3001  1.2001  1.9357
 9033TIP3    H227064   7.183   3.422   4.620 -0.2604  0.0880 -1.3938
 9034TIP3   OH227065   4.272   0.867   4.189 -0.2372  0.1735 -0.3701
 9034TIP3    H127066   4.194   0.919   4.166  0.3179  0.5605 -1.4448
 9034TIP3    H227067   4.345   0.928   4.181  0.3875 -0.6717 -1.3050
 9035TIP3   OH227068   1.217   5.013   4.262  0.7534 -0.8515  0.5425
 9035TIP3    H127069   1.189   5.021   4.353 -1.7840  0.8762 -0.2620
 9035TIP3    H227070   1.259   5.097   4.242  0.5624 -0.8995 -0.0918
 9036TIP3   OH227071   1.399   1.759   2.878  0.1198 -0.2867 -0.0453
 9036TIP3    H127072   1.467   1.726   2.937  0.9898  0.8465 -0.3758
 9036TIP3    H227073   1.396   1.853   2.896 -2.0107 -0.4447  0.5967
 9037TIP3   OH227074   1.218   6.454   4.800 -0.1441  0.0004  0.8015
 9037TIP3    H127075   1.219   6.544   4.834 -0.2590  0.0779  0.6031
 9037TIP3    H227076   1.125   6.432   4.796 -0.1024 -0.2537  1.1758
 9038TIP3   OH227077   0.522   1.194   5.117  0.7094  0.6083  0.1732
 9038TIP3    H127078   0.598   1.144   5.147  0.2360  0.4504  1.1772
 9038TIP3    H227079   0.452   1.169   5.178 -0.3722  0.1466 -1.1951
 9039TIP3   OH227080   5.446   6.673   2.233  0.3907  0.4494  0.0113
 9039TIP3    H127081   5.486   6.588   2.217 -1.0432 -0.8601  2.6804
 9039TIP3    H227082   5.506   6.716   2.295 -0.8512 -0.4161  1.9117
 9040TIP3   OH227083   4.390   1.936   2.005  0.7107 -0.8206 -0.1998
 9040TIP3    H127084   4.368   1.959   1.915  2.5506  0.3089 -0.4376
 9040TIP3    H227085   4.358   2.010   2.057  1.9178 -0.1893 -0.2976
 9041TIP3   OH227086   2.119   2.548   4.517 -0.0487  0.1565  0.1325
 9041TIP3    H127087   2.059   2.488   4.560  0.8697 -1.3959 -0.6594
 9041TIP3    H227088   2.064   2.603   4.462 -0.7812 -0.9093 -0.2056
 9042TIP3   OH227089   6.335   3.612   2.411  0.0880  0.2395  0.5804
 9042TIP3    H127090   6.325   3.517   2.410 -0.2362  0.2383  1.8481
 9042TIP3    H227091   6.393   3.630   2.484 -1.7368  1.1327  1.9080
 9043TIP3   OH227092   0.716   6.095   5.565 -0.3407 -0.2317 -0.0718
 9043TIP3    H127093   0.701   6.187   5.543  0.4039 -0.4155 -1.4293
 9043TIP3    H227094   0.699   6.090   5.660  0.1525  1.4159  0.1326
 9044TIP3   OH227095   0.207   3.279   5.700 -0.7305 -0.4672 -0.2698
 9044TIP3    H127096   0.146   3.331   5.752 -1.1187  1.6723 -2.6468
 9044TIP3    H227097   0.152   3.212   5.658 -0.5356 -1.7117  1.3586
 9045TIP3   OH227098   4.772   1.701   3.982  0.1206  0.0544  0.0188
 9045TIP3    H127099   4.842   1.648   4.019  0.2699  1.0514  1.2159
 9045TIP3    H227100   4.696   1.643   3.980  0.1124 -0.0407  1.9069
 9046TIP3   OH227101   2.650   0.821   5.256 -0.9425  0.2648  0.4932
 9046TIP3    H127102   2.700   0.815   5.338  0.9913  2.0004 -0.4654
 9046TIP3    H227103   2.597   0.900   5.267 -1.6516 -0.2050  0.5307
 9047TIP3   OH227104   2.444   5.955   4.239 -0.0813  0.0450  0.3989
 9047TIP3    H127105   2.391   5.878   4.257 -0.0634  0.1800  1.0758
 9047TIP3    H227106   2.437   5.968   4.145 -0.4131 -0.5423  0.3389
 9048TIP3   OH227107   2.272   6.218   1.850 -0.0434  0.6650  0.2083
 9048TIP3    H127108   2.224   6.286   1.803  1.8189  0.5984 -1.9299
 9048TIP3    H227109   2.205   6.155   1.877 -1.3865  1.6410 -0.7550
 9049TIP3   OH227110   5.468   3.995   4.860  0.6694 -0.5210 -0.2748
 9049TIP3    H127111   5.511   4.079   4.841  0.5438 -0.5622 -0.7600
 9049TIP3    H227112   5.497   3.937   4.790  1.0132 -0.9847  0.2393
 9050TIP3   OH227113   6.039   3.777   4.744  0.0659 -0.6870 -0.0646
 9050TIP3    H127114   6.089   3.856   4.723  3.0698 -2.2085  0.9069
 9050TIP3    H227115   6.073   3.710   4.686 -0.8805 -1.7984  0.6245
 9051TIP3   OH227116   5.612   5.924   2.270  0.2397  0.1129  0.0072
 9051TIP3    H127117   5.662   5.866   2.327  0.7211  0.0039 -0.5301
 9051TIP3    H227118   5.669   6.000   2.257  0.2119  0.0473 -0.4978
 9052TIP3   OH227119   3.205   6.644   2.998  0.2298 -0.1780  0.4416
 9052TIP3    H127120   3.246   6.710   2.941 -0.9715 -0.5778 -0.9441
 9052TIP3    H227121   3.196   6.688   3.082  1.2632  0.7398  0.1055
 9053TIP3   OH227122   0.329   5.201   1.791  0.1904  0.5591 -0.4811
 9053TIP3    H127123   0.335   5.105   1.783  0.6507  0.4922  0.5071
 9053TIP3    H227124   0.292   5.215   1.878 -2.2066  1.2516 -1.5504
 9054TIP3   OH227125   2.227   4.500   5.843  0.0245  0.3667 -0.0776
 9054TIP3    H127126   2.287   4.569   5.813 -0.2401  0.7322  0.2212
 9054TIP3    H227127   2.141   4.530   5.816 -0.2272  0.7272  1.0709
 9055TIP3   OH227128   4.646   2.994   4.547 -0.6634  0.0239  0.0720
 9055TIP3    H127129   4.725   3.037   4.578  1.0262 -2.1175 -1.0038
 9055TIP3    H227130   4.634   3.028   4.458 -1.0012  0.4135  0.2667
 9056TIP3   OH227131   6.867   2.801   0.355 -0.1959 -0.2135 -0.0563
 9056TIP3    H127132   6.829   2.796   0.443 -0.4601 -1.5678 -0.2267
 9056TIP3    H227133   6.905   2.889   0.350  0.0760 -0.2235  1.5072
 9057TIP3   OH227134   5.998   6.562   3.955 -0.3792 -0.0368  0.2896
 9057TIP3    H127135   5.959   6.593   3.874 -0.2737 -1.0977 -0.1778
 9057TIP3    H227136   6.029   6.642   3.998  1.3263  0.4226 -1.6257
 9058TIP3   OH227137   0.140   3.656   4.683 -0.3675  0.2096  0.5756
 9058TIP3    H127138   0.179   3.741   4.704  1.9690 -1.0949  1.9600
 9058TIP3    H227139   0.213   3.594   4.689 -1.9444 -1.8825 -0.6212
 9059TIP3   OH227140   1.136   5.599   4.539  0.3453  0.0944 -0.1763
 9059TIP3    H127141   1.160   5.625   4.628  0.0139 -0.9015  0.2166
 9059TIP3    H227142   1.109   5.508   4.547 -0.5685  0.2609 -1.1411
 9060TIP3   OH227143   4.083   2.695   2.189 -0.4007 -0.3493 -0.1886
 9060TIP3    H127144   4.090   2.790   2.200 -0.3233 -0.5743  2.0366
 9060TIP3    H227145   4.171   2.667   2.164  0.0532 -0.0317  1.0059
 9061TIP3   OH227146   4.659   4.894   3.178  0.4024 -0.0536  0.4351
 9061TIP3    H127147   4.725   4.936   3.234  2.2970  0.4615 -2.0431
 9061TIP3    H227148   4.658   4.947   3.098 -2.9445 -0.1611  0.2719
 9062TIP3   OH227149   0.455   1.712   4.945 -0.1157 -0.3068 -0.1157
 9062TIP3    H127150   0.437   1.625   4.982  0.5806 -0.0246  0.9317
 9062TIP3    H227151   0.485   1.764   5.020 -2.8184  1.5855 -0.2093
 9063TIP3   OH227152   5.343   1.570   1.160  0.1960  0.1058 -0.0267
 9063TIP3    H127153   5.372   1.479   1.154 -1.0711 -0.2313 -1.7196
 9063TIP3    H227154   5.315   1.592   1.071 -0.1074  1.9525  0.4925
 9064TIP3   OH227155   3.902   1.079   2.806 -0.1728  0.6160  0.5131
 9064TIP3    H127156   3.978   1.046   2.854 -0.2167 -1.7937 -0.8852
 9064TIP3    H227157   3.828   1.066   2.866 -0.1190 -1.6477  0.1976
 9065TIP3   OH227158   2.063   2.589   5.342 -0.2647  0.0385  0.0973
 9065TIP3    H127159   2.109   2.672   5.351 -0.2024  0.3323 -2.4577
 9065TIP3    H227160   1.974   2.612   5.315  0.0347 -0.6962 -1.6520
 9066TIP3   OH227161   2.990   1.532   0.785  0.4732  0.1596  0.4909
 9066TIP3    H127162   2.981   1.627   0.778 -0.5986  0.0605  0.3640
 9066TIP3    H227163   2.918   1.505   0.841 -0.3563 -0.7696 -0.9650
 9067TIP3   OH227164   4.789   3.715   3.863  0.1460  0.4352 -0.1984
 9067TIP3    H127165   4.770   3.700   3.771 -0.0891 -1.7552  0.1688
 9067TIP3    H227166   4.859   3.781   3.862 -0.0524  0.6632 -1.9103
 9068TIP3   OH227167   2.270   4.875   3.023 -0.0886 -0.5292 -0.7155
 9068TIP3    H127168   2.306   4.809   3.082 -1.6084 -1.2420 -0.5362
 9068TIP3    H227169   2.301   4.848   2.936  1.1324 -0.1826 -0.4097
 9069TIP3   OH227170   6.385   3.353   4.694 -0.0955  0.5766 -0.3325
 9069TIP3    H127171   6.374   3.337   4.788 -0.6746  2.1732 -0.0930
 9069TIP3    H227172   6.431   3.437   4.689 -1.4571  1.3115 -1.4469
 9070TIP3   OH227173   1.064   3.465   0.746 -0.1265  0.4062 -0.3819
 9070TIP3    H127174   1.137   3.505   0.700 -1.4772  2.3421 -0.9544
 9070TIP3    H227175   1.004   3.537   0.765 -0.9875 -0.7746  1.8594
 9071TIP3   OH227176   5.600   2.935   1.026 -0.0686 -0.0835  0.1756
 9071TIP3    H127177   5.634   3.021   1.050 -0.4406  0.1130  0.0037
 9071TIP3    H227178   5.670   2.874   1.049 -0.0963  0.1855  1.0048
 9072TIP3   OH227179   6.205   5.851   3.581 -0.1490  0.6705 -0.0228
 9072TIP3    H127180   6.197   5.947   3.582  1.2914  0.8184 -0.8819
 9072TIP3    H227181   6.117   5.820   3.557 -0.8102  1.7190  0.8964
 9073TIP3   OH227182   3.992   6.400   0.916  0.2003 -0.0247  0.1266
 9073TIP3    H127183   4.073   6.374   0.960  0.4570  2.1352  1.0447
 9073TIP3    H227184   3.947   6.455   0.980 -0.7692  0.9087 -1.3089
 9074TIP3   OH227185   0.190   3.741   3.594 -0.2779  0.1547 -0.2753
 9074TIP3    H127186   0.221   3.812   3.538  0.1459 -0.3464 -0.6939
 9074TIP3    H227187   0.271   3.699   3.626 -0.5093 -0.6127 -0.6557
 9075TIP3   OH227188   2.358   0.398   5.521 -0.0920 -0.2955 -1.2116
 9075TIP3    H127189   2.376   0.359   5.436  0.0645  1.2488 -1.9351
 9075TIP3    H227190   2.283   0.456   5.506  0.5535  0.7610 -0.5692
 9076TIP3   OH227191   7.068   2.435   0.066  0.6625 -0.4891  0.1278
 9076TIP3    H127192   7.013   2.463   0.139 -0.1864  0.4001 -0.8157
 9076TIP3    H227193   7.154   2.473   0.086  0.1693  0.6625  0.1581
 9077TIP3   OH227194   5.455   5.608   1.611  0.0340  0.1842  0.2201
 9077TIP3    H127195   5.422   5.690   1.648 -2.1038 -0.1766 -0.7125
 9077TIP3    H227196   5.503   5.567   1.682 -1.3283  0.9145  1.6337
 9078TIP3   OH227197   1.573   1.338   3.953  0.0053 -0.2753 -0.2017
 9078TIP3    H127198   1.629   1.384   3.890  1.6789  1.4035  2.3248
 9078TIP3    H227199   1.634   1.285   4.005 -1.0620 -0.2923  1.0754
 9079TIP3   OH227200   6.762   0.792   1.846  0.4858  0.2953 -0.2770
 9079TIP3    H127201   6.779   0.698   1.853 -1.4073 -0.3831 -3.0058
 9079TIP3    H227202   6.848   0.833   1.856  1.0911 -1.4714  2.9888
 9080TIP3   OH227203   6.108   3.477   0.603 -0.8657 -0.4495  0.1466
 9080TIP3    H127204   6.052   3.452   0.529 -0.0837  0.5918 -0.8316
 9080TIP3    H227205   6.194   3.440   0.581 -0.7010 -0.4005  0.6964
 9081TIP3   OH227206   0.117   3.274   4.644 -0.2568 -0.2648  0.0176
 9081TIP3    H127207   0.159   3.252   4.561 -0.4400  1.2167 -0.5000
 9081TIP3    H227208   0.190   3.296   4.703 -0.1008 -1.7382  0.4093
 9082TIP3   OH227209   5.518   2.728   0.372  0.4931  0.3488 -0.0658
 9082TIP3    H127210   5.439   2.766   0.333 -0.3225 -1.7993 -0.6772
 9082TIP3    H227211   5.571   2.702   0.297  0.4099 -0.8529  0.2600
 9083TIP3   OH227212   0.944   5.320   0.053  0.3060 -0.1034  0.4816
 9083TIP3    H127213   0.875   5.313   0.119 -0.9461  0.1897 -0.7495
 9083TIP3    H227214   0.900   5.355  -0.024  1.9047  0.3546 -0.2624
 9084TIP3   OH227215   0.198   3.315   3.703  1.0652  0.1300  0.1768
 9084TIP3    H127216   0.228   3.344   3.789 -1.1425 -2.5475  2.0403
 9084TIP3    H227217   0.271   3.262   3.669  0.2644 -3.1305  2.9032
 9085TIP3   OH227218   1.488   6.118   5.219  0.2927 -0.7838 -0.0884
 9085TIP3    H127219   1.398   6.144   5.195  1.1333 -0.1034 -2.8252
 9085TIP3    H227220   1.482   6.025   5.238 -0.8602 -0.9509 -1.1422
 9086TIP3   OH227221   0.733   5.616   4.697 -0.2836 -0.0761  0.6737
 9086TIP3    H127222   0.823   5.585   4.709  0.1623  0.9173  0.0134
 9086TIP3    H227223   0.737   5.709   4.722 -1.0412  0.0668  0.2798
 9087TIP3   OH227224   0.866   0.726   5.441 -0.4113  0.2516  0.0610
 9087TIP3    H127225   0.869   0.698   5.532 -0.1096 -0.7840 -0.2446
 9087TIP3    H227226   0.885   0.646   5.391  2.0387  1.2790 -0.8345
 9088TIP3   OH227227   3.326   0.607   0.153 -0.0037  0.1946 -0.0096
 9088TIP3    H127228   3.255   0.663   0.123 -0.3174 -0.5184 -0.6108
 9088TIP3    H227229   3.401   0.666   0.160 -0.4374  0.7777 -0.1987
 9089TIP3   OH227230   0.244   4.598   4.396  0.0119  0.1806  0.0402
 9089TIP3    H127231   0.328   4.619   4.354  0.0196 -1.2113 -0.6911
 9089TIP3    H227232   0.192   4.678   4.387  1.3062  1.1348  0.6624
 9090TIP3   OH227233   0.308   5.191   0.131 -0.4964 -0.2471  0.4968
 9090TIP3    H127234   0.376   5.256   0.119 -1.1491  0.3028 -0.3781
 9090TIP3    H227235   0.352   5.107   0.117 -0.4109  0.1759 -2.4253
 9091TIP3   OH227236   1.720   5.365   5.897  0.0130  0.3534 -0.5442
 9091TIP3    H127237   1.681   5.331   5.817 -0.3750  0.8418 -0.5659
 9091TIP3    H227238   1.806   5.397   5.871  0.9123 -1.6908 -0.3023
 9092TIP3   OH227239   3.725   1.948   2.631 -0.3993 -0.2727 -0.4698
 9092TIP3    H127240   3.756   2.017   2.572  0.7738  0.4125  0.8860
 9092TIP3    H227241   3.648   1.986   2.672 -0.2835 -0.1213 -0.3901
 9093TIP3   OH227242   1.073   3.405   4.682 -1.1253 -0.2429 -0.1170
 9093TIP3    H127243   1.108   3.411   4.771 -1.8107  1.6122  0.0731
 9093TIP3    H227244   1.116   3.328   4.644  3.7152  2.0857 -0.1346
 9094TIP3   OH227245   0.343   3.165   5.164  1.2181 -0.2061  0.6670
 9094TIP3    H127246   0.252   3.188   5.182  1.4602  0.9883  0.4200
 9094TIP3    H227247   0.394   3.213   5.228  1.7972  0.8095 -0.5056
 9095TIP3   OH227248   4.882   2.706   3.569 -0.0799 -0.9788 -0.3043
 9095TIP3    H127249   4.847   2.625   3.607 -0.5575 -1.3346 -1.4375
 9095TIP3    H227250   4.974   2.706   3.594  0.0065 -2.0563 -0.5447
 9096TIP3   OH227251   5.960   5.404   3.963  0.3519  0.0256 -0.4206
 9096TIP3    H127252   5.954   5.427   3.871  1.3527 -1.2838 -0.8456
 9096TIP3    H227253   6.048   5.432   3.989  0.0028  0.5764  0.2090
 9097TIP3   OH227254   4.264   0.614   1.168  0.0989 -0.2837  0.1037
 9097TIP3    H127255   4.220   0.687   1.213 -1.6370 -0.2792 -1.4698
 9097TIP3    H227256   4.264   0.543   1.233  0.3281  0.5869  1.0900
 9098TIP3   OH227257   2.164   3.348   5.440  0.3005  0.3552  0.3697
 9098TIP3    H127258   2.148   3.409   5.368 -1.2531 -2.7534 -2.1906
 9098TIP3    H227259   2.241   3.298   5.413  1.0283  0.5682  1.9602
 9099TIP3   OH227260   4.952   2.755   5.838  0.2066 -0.7456  0.2507
 9099TIP3    H127261   4.901   2.701   5.779  0.1705  0.6616 -1.0434
 9099TIP3    H227262   5.006   2.811   5.781 -0.4548  1.2707  1.4781
 9100TIP3   OH227263   1.074   6.523   0.983  0.7242 -0.3238 -0.3560
 9100TIP3    H127264   1.008   6.530   1.051  1.1293  1.6255 -0.1136
 9100TIP3    H227265   1.042   6.579   0.912  1.7625  0.0931 -0.5141
 9101TIP3   OH227266   3.474   3.094   1.671  0.0017  0.0973 -0.7338
 9101TIP3    H127267   3.507   3.159   1.610  3.3247 -2.0766 -1.4736
 9101TIP3    H227268   3.459   3.015   1.618  1.0334 -1.2341  0.8358
 9102TIP3   OH227269   5.949   2.080   2.137 -0.1281  0.1382 -0.2862
 9102TIP3    H127270   5.942   2.175   2.137 -0.7241  0.1093  0.8394
 9102TIP3    H227271   6.043   2.063   2.144 -0.1542  0.6984  2.6110
 9103TIP3   OH227272   2.048   5.363   0.853  0.3243  0.4301  0.3504
 9103TIP3    H127273   2.064   5.358   0.948 -0.5866 -0.6277  0.4594
 9103TIP3    H227274   1.953   5.361   0.844  0.3997  0.6026 -0.5924
 9104TIP3   OH227275   4.684   0.603   5.426 -0.5903 -0.1691  0.7681
 9104TIP3    H127276   4.778   0.608   5.442 -0.4953  0.8770 -0.0298
 9104TIP3    H227277   4.646   0.670   5.482 -1.0419 -1.5669  2.2047
 9105TIP3   OH227278   0.771   6.239   0.257 -0.2609  0.2503 -0.7092
 9105TIP3    H127279   0.805   6.328   0.261 -0.6966  0.4258  3.2075
 9105TIP3    H227280   0.676   6.249   0.265 -0.2973 -0.5536 -0.0245
 9106TIP3   OH227281   6.985   5.998   2.606 -0.4550  0.1161  0.3695
 9106TIP3    H127282   6.913   5.991   2.668 -0.3057 -0.0976  0.5188
 9106TIP3    H227283   7.032   5.915   2.614  0.9648  1.0164  1.6859
 9107TIP3   OH227284   2.808   5.702   3.836 -0.9263 -0.2720  0.3661
 9107TIP3    H127285   2.799   5.696   3.740 -1.0849 -0.8667  0.4120
 9107TIP3    H227286   2.846   5.618   3.861  1.4992  0.8095  0.5565
 9108TIP3   OH227287   3.163   4.527  -0.003  0.5965 -0.2730 -0.3033
 9108TIP3    H127288   3.153   4.509   0.090  1.3160  0.8985  0.0255
 9108TIP3    H227289   3.210   4.451  -0.037  1.2917 -0.2309  0.5178
 9109TIP3   OH227290   6.633   2.823   2.123  0.6255 -0.4931  0.2591
 9109TIP3    H127291   6.688   2.759   2.170  0.4920 -1.0934 -0.3839
 9109TIP3    H227292   6.694   2.893   2.099  0.8944 -0.6459  0.4798
 9110TIP3   OH227293   5.018   0.514   0.523 -0.5916 -0.6976  0.2603
 9110TIP3    H127294   5.019   0.550   0.435 -1.1847 -0.6819  0.2553
 9110TIP3    H227295   5.111   0.508   0.548 -0.3389 -1.8846 -0.8421
 9111TIP3   OH227296   1.552   1.372   2.656  0.1346  0.0366  0.1779
 9111TIP3    H127297   1.480   1.314   2.633  0.6498  0.3109 -2.4991
 9111TIP3    H227298   1.527   1.457   2.618  1.5302  0.2949 -0.2233
 9112TIP3   OH227299   3.650   1.746   2.437  0.2677 -0.2976 -0.2264
 9112TIP3    H127300   3.568   1.765   2.482  0.1887  0.3477 -0.6346
 9112TIP3    H227301   3.705   1.822   2.455 -0.2374  0.6219 -2.3284
 9113TIP3   OH227302   6.494   0.437   5.882 -0.2958  0.3835  0.5393
 9113TIP3    H127303   6.562   0.415   5.945 -0.7729 -0.2252  0.8624
 9113TIP3    H227304   6.521   0.394   5.801 -1.4739 -1.9643  1.2977
 9114TIP3   OH227305   2.776   3.185   4.773 -0.3682  0.3588 -0.1947
 9114TIP3    H127306   2.865   3.219   4.771  0.3899 -1.4333  0.5805
 9114TIP3    H227307   2.721   3.261   4.793  1.1646  1.1844  1.0505
 9115TIP3   OH227308   2.599   5.337   1.171 -0.3657 -0.1247  0.2315
 9115TIP3    H127309   2.647   5.381   1.101  0.8817 -1.5597  0.1326
 9115TIP3    H227310   2.604   5.397   1.245  0.2688  0.4009 -0.2244
 9116TIP3   OH227311   0.926   2.628   0.769  0.3026 -0.2811 -0.4343
 9116TIP3    H127312   0.945   2.680   0.848 -0.7292 -2.0404  1.0484
 9116TIP3    H227313   0.932   2.537   0.798 -2.9159 -0.9948 -1.6302
 9117TIP3   OH227314   0.923   3.280   0.440  0.0909  0.2649  0.1054
 9117TIP3    H127315   0.952   3.354   0.386  1.5864 -0.4167 -0.0618
 9117TIP3    H227316   1.001   3.252   0.487 -0.3290 -1.5179 -0.1898
 9118TIP3   OH227317   7.198   2.536   1.993 -0.1801 -0.5266 -0.3068
 9118TIP3    H127318   7.223   2.483   2.068 -0.1760  0.8316  0.6730
 9118TIP3    H227319   7.102   2.532   1.992 -0.2322  0.2834  0.4082
 9119TIP3   OH227320   5.216   4.595   3.536  0.0414  0.0158  0.0665
 9119TIP3    H127321   5.262   4.537   3.476 -0.5142 -0.4770  0.0998
 9119TIP3    H227322   5.199   4.540   3.613  0.5226  0.5638  0.5710
 9120TIP3   OH227323   4.247   1.607   3.351  0.3404 -0.5274 -0.1108
 9120TIP3    H127324   4.288   1.676   3.404 -1.0082  0.7892 -0.6917
 9120TIP3    H227325   4.211   1.546   3.414 -0.1510  0.3505  0.4735
 9121TIP3   OH227326   4.977   4.463   1.682 -0.3022 -0.0251  0.1440
 9121TIP3    H127327   5.042   4.468   1.751  0.0058  0.2855 -0.1642
 9121TIP3    H227328   5.028   4.459   1.601 -0.6199 -1.7390 -0.0125
 9122TIP3   OH227329   3.430   6.228   4.451 -0.0453 -0.3062  0.0378
 9122TIP3    H127330   3.352   6.195   4.496 -0.1687 -0.9250 -0.6117
 9122TIP3    H227331   3.422   6.324   4.457  0.0591 -0.3663  1.5007
 9123TIP3   OH227332   0.619   3.953   5.715  0.2982  0.5442 -0.2618
 9123TIP3    H127333   0.618   3.992   5.628 -0.6841  1.1368 -0.0148
 9123TIP3    H227334   0.543   3.895   5.716 -1.2425  2.4167  0.9460
 9124TIP3   OH227335   2.959   6.213   5.722 -0.0178  0.5985 -0.0789
 9124TIP3    H127336   2.905   6.281   5.763  0.6146  1.6664 -0.9414
 9124TIP3    H227337   3.048   6.232   5.753 -0.0350 -0.8607  0.9659
 9125TIP3   OH227338   2.318   6.019   1.144 -0.4060  0.7924  0.3360
 9125TIP3    H127339   2.273   6.089   1.096  1.0643  0.9338 -0.9147
 9125TIP3    H227340   2.363   6.064   1.216 -0.6533  0.9191  0.4125
 9126TIP3   OH227341   4.285   3.648   2.374 -0.7724 -0.0238  0.4155
 9126TIP3    H127342   4.245   3.611   2.295  1.4799  1.1289 -1.4086
 9126TIP3    H227343   4.298   3.573   2.432 -0.1558 -1.4218 -1.4209
 9127TIP3   OH227344   2.897   6.202   0.479 -0.1600  0.5226  0.1043
 9127TIP3    H127345   2.910   6.272   0.543 -1.7454 -0.4817  1.6340
 9127TIP3    H227346   2.981   6.158   0.475 -0.2358  0.0538  2.2672
 9128TIP3   OH227347   5.145   0.458   4.415  0.3745 -0.0085 -0.5018
 9128TIP3    H127348   5.177   0.511   4.488 -1.8479 -1.3672  1.6493
 9128TIP3    H227349   5.097   0.519   4.360 -0.3036  0.6239  0.7506
 9129TIP3   OH227350   3.038   6.795   2.118  0.5582 -0.2666 -0.1649
 9129TIP3    H127351   3.104   6.764   2.180 -0.2274  0.8925  1.3294
 9129TIP3    H227352   2.959   6.747   2.141  0.2524  0.1973 -0.2406
 9130TIP3   OH227353   1.547   5.921   3.730  0.2102  0.1632 -0.2099
 9130TIP3    H127354   1.527   5.925   3.637 -1.2114  2.0963  0.1051
 9130TIP3    H227355   1.631   5.967   3.738  0.4406 -0.1948 -0.5552
 9131TIP3   OH227356   3.420   0.550   0.828  0.6751 -0.3941 -0.5602
 9131TIP3    H127357   3.409   0.459   0.799  3.0158 -1.2045  0.7835
 9131TIP3    H227358   3.332   0.587   0.825 -0.3039 -2.6028 -1.4757
 9132TIP3   OH227359   6.634   4.967   4.999 -0.1115  0.0371 -0.3330
 9132TIP3    H127360   6.674   4.881   4.986 -1.4047 -0.3872 -1.8335
 9132TIP3    H227361   6.575   4.955   5.073  1.9130  0.4879  1.4464
 9133TIP3   OH227362   3.860   3.456   2.434  0.2875  0.6864  0.3122
 9133TIP3    H127363   3.854   3.371   2.390 -1.8856  1.7010 -1.5718
 9133TIP3    H227364   3.948   3.458   2.471  0.6512 -2.0693 -0.1972
 9134TIP3   OH227365   2.872   5.113   5.191  0.2065 -0.0462  0.2118
 9134TIP3    H127366   2.863   5.203   5.224  0.7265  0.6800 -1.5315
 9134TIP3    H227367   2.786   5.091   5.157 -0.1760 -0.5867  1.4662
 9135TIP3   OH227368   2.029   3.334   5.695  0.2206  0.3004  0.2368
 9135TIP3    H127369   2.063   3.359   5.609  0.3650  0.3601  0.3108
 9135TIP3    H227370   1.935   3.349   5.689  0.0543 -0.8447 -0.3122
 9136TIP3   OH227371   6.472   3.906   5.637 -0.5060  0.3589  0.2031
 9136TIP3    H127372   6.445   3.828   5.685 -0.8383 -0.8294 -1.8270
 9136TIP3    H227373   6.562   3.888   5.610 -0.6322  0.6195 -0.4008
 9137TIP3   OH227374   1.461   5.832   3.972  0.4339  0.3385 -0.1815
 9137TIP3    H127375   1.493   5.850   3.884  1.9747  1.2197  0.5235
 9137TIP3    H227376   1.389   5.893   3.985 -1.2288 -1.2169 -1.5455
 9138TIP3   OH227377   5.335   5.743   0.953  0.1244 -0.3777  0.3972
 9138TIP3    H127378   5.396   5.765   1.024  0.2340  0.6166  0.0087
 9138TIP3    H227379   5.261   5.802   0.966 -0.4784 -1.1260  0.4702
 9139TIP3   OH227380   6.457   1.204   1.470  0.6007 -0.3770 -0.0060
 9139TIP3    H127381   6.452   1.109   1.485 -0.0113 -0.1500  1.4585
 9139TIP3    H227382   6.549   1.220   1.452  1.0470 -1.0487  1.4942
 9140TIP3   OH227383   5.071   3.697   2.247 -0.0500  0.5624 -0.1466
 9140TIP3    H127384   5.111   3.782   2.263  3.3502 -0.8412 -0.3906
 9140TIP3    H227385   5.020   3.710   2.167  1.3811  2.1005 -0.8762
 9141TIP3   OH227386   1.748   3.558   4.568 -0.2000 -0.2205 -0.4746
 9141TIP3    H127387   1.818   3.494   4.581 -0.4432 -0.3693  0.1152
 9141TIP3    H227388   1.671   3.506   4.547 -0.2162 -0.0714 -0.8040
 9142TIP3   OH227389   4.565   0.362   5.424  0.0077  0.6307  0.0224
 9142TIP3    H127390   4.597   0.452   5.417 -1.3412  1.0467 -1.3332
 9142TIP3    H227391   4.491   0.368   5.485  0.0804  0.4000  0.1318
 9143TIP3   OH227392   1.175   6.117   5.538 -0.1824 -0.2289  0.5208
 9143TIP3    H127393   1.114   6.177   5.496 -1.7941 -0.4607  2.3626
 9143TIP3    H227394   1.162   6.033   5.493  0.9599  0.3719 -1.0257
 9144TIP3   OH227395   5.023   3.211   5.823  0.2222  0.2516 -0.5289
 9144TIP3    H127396   5.030   3.231   5.917 -0.4551 -0.3239 -0.3492
 9144TIP3    H227397   5.114   3.208   5.792  0.4134  2.5912 -0.3604
 9145TIP3   OH227398   0.659   1.143   2.813  0.1063  0.3700 -0.3480
 9145TIP3    H127399   0.669   1.214   2.876 -0.8191  0.3767 -0.1966
 9145TIP3    H227400   0.738   1.148   2.759 -0.5371  2.3652 -1.1837
 9146TIP3   OH227401   1.855   4.252   1.372 -0.0583  0.6474  0.7180
 9146TIP3    H127402   1.823   4.172   1.330  0.8766  0.5264  0.1971
 9146TIP3    H227403   1.780   4.286   1.421 -0.5344 -0.4218  0.7558
 9147TIP3   OH227404   5.760   4.208   0.660  0.7938 -0.6576 -0.4937
 9147TIP3    H127405   5.682   4.155   0.649  0.2191 -0.2921  1.4481
 9147TIP3    H227406   5.807   4.168   0.733  0.2600  1.4766  1.1428
 9148TIP3   OH227407   0.551   4.098   5.479  0.0005  0.1285  0.0637
 9148TIP3    H127408   0.645   4.082   5.479 -0.2161 -1.3324 -0.8170
 9148TIP3    H227409   0.536   4.150   5.400  0.0265  0.0032 -0.0246
 9149TIP3   OH227410   4.556   3.923   1.425  0.1368 -0.2143 -0.3265
 9149TIP3    H127411   4.614   3.870   1.370  1.1872  0.1555  0.4160
 9149TIP3    H227412   4.544   4.004   1.376  0.5534 -0.1375 -0.2972
 9150TIP3   OH227413   5.044   2.711   5.089  0.4062 -0.5534  0.0236
 9150TIP3    H127414   5.061   2.720   4.995 -2.1354  0.3308 -0.4242
 9150TIP3    H227415   5.111   2.767   5.130 -0.8493  2.3600 -1.5499
 9151TIP3   OH227416   4.518   2.209   1.942 -0.7492  0.2739  0.2093
 9151TIP3    H127417   4.453   2.209   2.013 -0.9409  2.5180  0.1291
 9151TIP3    H227418   4.602   2.216   1.986 -0.9290  3.0147  0.3203
 9152TIP3   OH227419   0.898   1.349   1.697 -0.0155  0.3631  0.0243
 9152TIP3    H127420   0.974   1.308   1.657 -0.6715  0.3601 -1.2683
 9152TIP3    H227421   0.880   1.295   1.774  0.9730  0.0672  0.0631
 9153TIP3   OH227422   0.832   6.070   0.467 -0.2768  0.9526 -0.6917
 9153TIP3    H127423   0.882   6.134   0.517  0.7592 -0.4306  0.1133
 9153TIP3    H227424   0.805   6.117   0.388 -0.9333  2.8491  0.5664
 9154TIP3   OH227425   5.114   0.400   3.903 -0.2380 -0.1417 -0.1849
 9154TIP3    H127426   5.087   0.492   3.911  2.2480  0.6483  0.0135
 9154TIP3    H227427   5.032   0.350   3.908 -1.5289  1.9623  1.0636
 9155TIP3   OH227428   1.918   6.377   1.072 -0.4959 -0.2950 -0.5284
 9155TIP3    H127429   1.960   6.454   1.111 -0.6830  1.0297 -2.7739
 9155TIP3    H227430   1.825   6.395   1.076 -0.4837  0.4775 -2.6303
 9156TIP3   OH227431   3.010   4.101   1.412  0.3144 -0.5784  0.2509
 9156TIP3    H127432   2.987   4.190   1.385  0.5215 -0.5834  0.0534
 9156TIP3    H227433   3.020   4.106   1.507  0.7805 -0.2863  0.1900
 9157TIP3   OH227434   1.675   0.369   3.578 -0.5350  0.0429 -1.0580
 9157TIP3    H127435   1.723   0.347   3.498  1.4900  0.1520  0.0595
 9157TIP3    H227436   1.591   0.325   3.568  0.5359 -1.8849 -2.2408
 9158TIP3   OH227437   5.263   2.043   3.951 -0.3884 -0.3339  0.1110
 9158TIP3    H127438   5.237   2.044   4.043 -0.3935 -2.1573  0.1642
 9158TIP3    H227439   5.354   2.075   3.952 -0.0339 -1.3173  0.8997
 9159TIP3   OH227440   4.961   1.753   0.252 -0.0902  0.3733  0.0198
 9159TIP3    H127441   4.890   1.716   0.305  0.5066  0.1004  0.6485
 9159TIP3    H227442   5.009   1.811   0.312 -0.6930  1.7770 -0.8174
 9160TIP3   OH227443   2.288   3.136   5.305 -0.8057  0.2611 -0.2808
 9160TIP3    H127444   2.306   3.070   5.239  0.2144 -1.8879  1.9612
 9160TIP3    H227445   2.194   3.128   5.321 -1.0898  0.9069 -1.5113
 9161TIP3   OH227446   1.800   3.817   5.819  0.4418 -0.6103  0.0631
 9161TIP3    H127447   1.746   3.849   5.746  0.6915 -1.5370 -0.5378
 9161TIP3    H227448   1.744   3.753   5.864  0.2203  0.0887  0.8151
 9162TIP3   OH227449   1.417   4.927   5.457 -0.6148  0.4413  0.9451
 9162TIP3    H127450   1.477   4.892   5.523 -0.6893  1.8732  1.8188
 9162TIP3    H227451   1.331   4.899   5.487 -0.4775 -0.9500  0.1159
 9163TIP3   OH227452   7.074   6.751   1.962  0.2377 -0.1672  0.0217
 9163TIP3    H127453   7.078   6.794   1.877  0.0101  1.0184  0.5851
 9163TIP3    H227454   6.992   6.701   1.960  0.5626 -0.6882 -0.6887
 9164TIP3   OH227455   5.150   0.987   5.727 -0.4964 -0.0473 -0.1182
 9164TIP3    H127456   5.116   1.061   5.677  0.1628  0.3085 -0.0581
 9164TIP3    H227457   5.228   0.959   5.679 -1.7167 -1.8910 -1.1644
 9165TIP3   OH227458   4.407   3.265   0.117  0.2794  0.1377 -0.3111
 9165TIP3    H127459   4.373   3.179   0.142 -0.5724  0.5574  0.0148
 9165TIP3    H227460   4.488   3.245   0.069 -0.5582 -0.9118 -1.3497
 9166TIP3   OH227461   1.432   4.861   1.314 -0.1951 -0.2561  0.4102
 9166TIP3    H127462   1.507   4.841   1.257 -0.1034  1.0382  0.0446
 9166TIP3    H227463   1.460   4.832   1.401 -0.2139 -1.9721 -0.1208
 9167TIP3   OH227464   4.806   2.298   5.130  0.3700  0.6485 -0.6051
 9167TIP3    H127465   4.797   2.346   5.213  1.7389 -2.9631  1.8960
 9167TIP3    H227466   4.718   2.266   5.111  0.2434  0.5232  0.1564
 9168TIP3   OH227467   4.268   4.434   3.214 -0.6008 -0.3255 -0.6223
 9168TIP3    H127468   4.187   4.431   3.164 -1.0566 -0.5250  0.1186
 9168TIP3    H227469   4.258   4.367   3.281 -0.1759  0.2211 -0.0003
 9169TIP3   OH227470   7.177   5.348   5.547  0.1759 -0.9860 -0.9263
 9169TIP3    H127471   7.255   5.303   5.579  0.8073  0.0328 -0.9890
 9169TIP3    H227472   7.193   5.441   5.564 -1.6763 -0.8565  0.4617
 9170TIP3   OH227473   0.968   2.861   2.598  0.9697 -0.0065  0.0066
 9170TIP3    H127474   0.919   2.942   2.609  0.8964  0.0073 -0.4205
 9170TIP3    H227475   0.966   2.844   2.504  1.8058  0.0069 -0.0176
 9171TIP3   OH227476   0.066   2.093   0.183  0.5980 -0.0531 -0.6780
 9171TIP3    H127477   0.013   2.120   0.258 -1.0909 -1.1555 -1.4061
 9171TIP3    H227478   0.017   2.123   0.107  0.5062 -1.9282 -1.4067
 9172TIP3   OH227479   6.176   1.985   3.604 -0.2164 -0.0226  0.2384
 9172TIP3    H127480   6.230   2.052   3.646  0.7447 -1.1477  0.8844
 9172TIP3    H227481   6.136   2.029   3.530 -0.5625  1.5765  1.3147
 9173TIP3   OH227482   3.253   4.207   3.402  0.1166 -0.0179  0.5105
 9173TIP3    H127483   3.269   4.160   3.484  0.5998  1.3990  1.2711
 9173TIP3    H227484   3.230   4.296   3.430 -0.1267  0.3826 -0.8866
 9174TIP3   OH227485   2.641   6.313   0.554  0.1737 -0.3324  0.5140
 9174TIP3    H127486   2.585   6.252   0.601  0.1972 -2.0682 -1.5836
 9174TIP3    H227487   2.726   6.306   0.597 -0.0697 -1.0567  0.8878
 9175TIP3   OH227488   5.652   4.593   5.886  0.5664 -0.4321  0.1882
 9175TIP3    H127489   5.616   4.543   5.813  2.4701  2.2382 -2.8402
 9175TIP3    H227490   5.692   4.527   5.943 -2.5137 -2.7766 -0.1448
 9176TIP3   OH227491   0.686   1.782   0.634  0.0671  0.0665 -0.5335
 9176TIP3    H127492   0.603   1.792   0.587  0.5789  0.1050 -1.4565
 9176TIP3    H227493   0.706   1.688   0.627 -0.1952 -0.0570  0.2284
 9177TIP3   OH227494   0.957   2.312   4.155  0.5054  0.3264 -0.0109
 9177TIP3    H127495   0.996   2.360   4.227  1.6508 -0.5874  0.0026
 9177TIP3    H227496   0.997   2.350   4.076 -0.7911  1.3687 -0.2043
 9178TIP3   OH227497   4.760   2.318   4.554  0.0741 -0.1729 -0.5690
 9178TIP3    H127498   4.815   2.249   4.592  1.1353  0.8682 -0.1351
 9178TIP3    H227499   4.771   2.393   4.613 -1.5241  0.2003 -0.6999
 9179TIP3   OH227500   2.371   4.246   1.849  0.4053  0.1561 -0.1181
 9179TIP3    H127501   2.445   4.208   1.898 -1.2966 -1.5626  1.2745
 9179TIP3    H227502   2.401   4.246   1.758  2.1261 -0.4664  0.4001
 9180TIP3   OH227503   5.031   4.769   5.356  0.0070 -0.4233  0.3613
 9180TIP3    H127504   4.989   4.699   5.405 -0.1469  0.0075  0.8529
 9180TIP3    H227505   5.122   4.741   5.345 -0.1120 -0.8028  0.3505
 9181TIP3   OH227506   6.669   1.800   0.204  0.1308  0.3786  0.0510
 9181TIP3    H127507   6.622   1.851   0.137 -1.1009 -0.8378 -0.0533
 9181TIP3    H227508   6.653   1.848   0.286 -0.8276  0.2879 -0.0740
 9182TIP3   OH227509   1.688   0.846   1.385  0.2054 -0.5505 -0.6136
 9182TIP3    H127510   1.598   0.873   1.405  0.2680  0.2498 -1.3459
 9182TIP3    H227511   1.710   0.893   1.305  1.9703  0.8960  0.6235
 9183TIP3   OH227512   5.206   2.489   2.653 -0.2082  0.3723  0.3748
 9183TIP3    H127513   5.188   2.438   2.732 -0.3300  0.1706  0.2172
 9183TIP3    H227514   5.223   2.577   2.685  0.7957  0.0680  0.7260
 9184TIP3   OH227515   3.002   2.927   2.735 -0.3355  0.0789 -0.7512
 9184TIP3    H127516   2.997   2.942   2.830  1.9794 -2.0994 -0.1817
 9184TIP3    H227517   2.974   3.010   2.697 -2.3078  0.7219  1.7814
 9185TIP3   OH227518   3.420   3.823   1.079 -0.3961 -0.0045  0.1728
 9185TIP3    H127519   3.388   3.817   1.169  2.5852 -2.7236  1.2469
 9185TIP3    H227520   3.374   3.753   1.033  0.0218 -0.3752  0.3110
 9186TIP3   OH227521   7.166   2.837   2.783  0.2304 -0.1289  0.4936
 9186TIP3    H127522   7.179   2.758   2.835  1.0414 -2.1184 -2.4526
 9186TIP3    H227523   7.078   2.867   2.807 -0.3360 -2.2709  1.3442
 9187TIP3   OH227524   6.489   3.672   3.906  0.6172  0.0762  0.0551
 9187TIP3    H127525   6.535   3.756   3.904  0.6387  0.0628 -0.0459
 9187TIP3    H227526   6.519   3.630   3.986 -0.0132  0.5113  0.5265
 9188TIP3   OH227527   2.878   3.854   1.349  0.6107 -0.0159  0.2420
 9188TIP3    H127528   2.911   3.941   1.372  1.0562 -0.4926  1.4411
 9188TIP3    H227529   2.784   3.867   1.335  0.8189  0.8279 -0.5417
 9189TIP3   OH227530   1.760   3.691   1.890 -0.2879 -0.7885 -0.8284
 9189TIP3    H127531   1.752   3.598   1.872 -1.9699 -0.5227 -1.6095
 9189TIP3    H227532   1.718   3.734   1.815  0.2804  0.6042 -0.3940
 9190TIP3   OH227533   2.835   1.169   0.558  0.1955  0.1697  0.1938
 9190TIP3    H127534   2.747   1.181   0.596  0.0278 -1.4426  0.3925
 9190TIP3    H227535   2.888   1.136   0.631  2.0394  4.5870  1.1322
 9191TIP3   OH227536   1.309   0.198   4.813 -0.1463  0.0546  0.2182
 9191TIP3    H127537   1.275   0.278   4.853 -0.0587  1.0830 -1.6394
 9191TIP3    H227538   1.231   0.152   4.781 -0.0751  0.5142 -0.6524
 9192TIP3   OH227539   4.816   4.705   5.098  0.1918 -0.8835  0.2868
 9192TIP3    H127540   4.908   4.720   5.079 -0.0284 -0.4518 -0.4940
 9192TIP3    H227541   4.811   4.704   5.194  0.6878  1.3404  0.4045
 9193TIP3   OH227542   2.600   2.093   4.873  0.2871 -0.2241  0.2596
 9193TIP3    H127543   2.586   2.152   4.948  1.5449 -1.5742  1.6359
 9193TIP3    H227544   2.543   2.128   4.804 -0.7907  1.1915  1.7746
 9194TIP3   OH227545   0.712   0.446   1.080 -0.0175  0.1515 -0.3107
 9194TIP3    H127546   0.693   0.386   1.008 -0.5252  0.3926 -0.3814
 9194TIP3    H227547   0.793   0.413   1.118 -0.0366 -0.2952 -0.6529
 9195TIP3   OH227548   0.006   4.738   4.040 -0.2030 -0.1983  0.3678
 9195TIP3    H127549  -0.066   4.730   3.977 -1.4504  1.3782  1.5380
 9195TIP3    H227550   0.072   4.789   3.994  0.7936 -2.6941 -1.1710
 9196TIP3   OH227551   4.678   0.094   5.589 -0.3340  0.0964  0.0724
 9196TIP3    H127552   4.689   0.179   5.631  0.4128  1.1860 -2.1503
 9196TIP3    H227553   4.586   0.072   5.604 -0.0513  0.2542  2.4360
 9197TIP3   OH227554   2.471   1.492   4.333 -0.1489 -0.1098  0.4479
 9197TIP3    H127555   2.406   1.530   4.392  0.0176 -1.5255  1.5915
 9197TIP3    H227556   2.477   1.401   4.359  0.9420 -0.4543 -0.8856
 9198TIP3   OH227557   0.764   3.761   1.670  0.5262  0.6161 -0.0781
 9198TIP3    H127558   0.674   3.762   1.701  1.1050 -2.0949  2.1711
 9198TIP3    H227559   0.804   3.837   1.712 -0.3868  1.0145  0.0909
 9199TIP3   OH227560   4.180   2.554   5.567  0.1940 -0.0934 -0.4109
 9199TIP3    H127561   4.178   2.648   5.548  0.8760  0.0561  0.2075
 9199TIP3    H227562   4.088   2.526   5.561  0.0761  0.4567 -1.3275
 9200TIP3   OH227563   3.855   6.459   1.130 -0.4617  0.0937  0.2037
 9200TIP3    H127564   3.834   6.380   1.179  0.8363  0.1137  0.8280
 9200TIP3    H227565   3.792   6.524   1.160 -1.8886 -0.8146 -0.7013
 9201TIP3   OH227566   1.408   3.895   1.546  0.3756 -0.6175 -0.3369
 9201TIP3    H127567   1.422   3.801   1.559 -1.4118 -0.7164  1.4632
 9201TIP3    H227568   1.471   3.937   1.603  0.6327 -0.7421 -0.5272
 9202TIP3   OH227569   0.699   1.754   4.501 -0.1432 -0.1209  0.1225
 9202TIP3    H127570   0.660   1.773   4.586 -0.6288 -0.4082 -0.0315
 9202TIP3    H227571   0.788   1.726   4.521 -1.5708 -4.9309  1.0285
 9203TIP3   OH227572   2.726   4.755   0.030  0.0063  0.1306  0.7941
 9203TIP3    H127573   2.751   4.664   0.013  0.2055  0.5327 -1.3558
 9203TIP3    H227574   2.798   4.790   0.083  0.5119 -0.6526  0.6456
 9204TIP3   OH227575   7.012   4.073   5.561  0.3253  0.3333 -0.1452
 9204TIP3    H127576   6.939   4.088   5.501 -0.0007 -0.4708  0.0289
 9204TIP3    H227577   6.971   4.045   5.643  0.8344 -1.1856 -0.3689
 9205TIP3   OH227578   3.025   2.333   3.129 -0.1053 -0.0934  0.1302
 9205TIP3    H127579   3.105   2.289   3.159  0.6663  1.5460  0.6070
 9205TIP3    H227580   2.981   2.361   3.209 -0.0385  0.8991 -0.1715
 9206TIP3   OH227581   6.698   0.053   4.344  0.1880 -0.0300 -0.5948
 9206TIP3    H127582   6.613   0.011   4.360 -0.1543  0.7762 -0.2463
 9206TIP3    H227583   6.677   0.124   4.283  0.5116  0.5421 -0.0425
 9207TIP3   OH227584   6.561   1.765   4.737 -0.0062  0.5986  0.0759
 9207TIP3    H127585   6.547   1.700   4.806 -1.2545  1.8521  1.0526
 9207TIP3    H227586   6.643   1.737   4.695  1.3518  0.3156  2.6963
 9208TIP3   OH227587   1.636   4.261   1.731  0.3431  0.0401 -0.4510
 9208TIP3    H127588   1.725   4.296   1.721  0.0060  1.4128  0.9254
 9208TIP3    H227589   1.619   4.265   1.825 -1.6349  1.0283 -0.7973
 9209TIP3   OH227590   3.695   1.452   5.695 -0.1517 -0.0011  0.3793
 9209TIP3    H127591   3.659   1.365   5.712  0.7351 -0.7583 -1.3225
 9209TIP3    H227592   3.685   1.499   5.778 -0.6419 -1.7210  1.3477
 9210TIP3   OH227593   0.411   1.758   0.323 -0.7559  0.4567 -0.1808
 9210TIP3    H127594   0.397   1.676   0.370 -0.3071 -0.1999 -1.1775
 9210TIP3    H227595   0.502   1.755   0.295 -0.4306  1.7680  0.6382
 9211TIP3   OH227596   0.320   0.054   1.745 -0.2041  0.3544 -0.4562
 9211TIP3    H127597   0.335  -0.033   1.709  1.7039  1.2021 -1.8200
 9211TIP3    H227598   0.403   0.100   1.734 -1.0343  2.2304  0.6263
 9212TIP3   OH227599   6.074   2.970   2.482 -0.4260 -0.0923 -0.0029
 9212TIP3    H127600   6.166   2.971   2.508 -0.1933  0.0972 -0.7971
 9212TIP3    H227601   6.052   3.062   2.468 -0.7235 -0.1427  0.1185
 9213TIP3   OH227602   1.537   1.235   2.915 -1.2529 -0.3735 -0.0015
 9213TIP3    H127603   1.533   1.281   2.831 -0.1137  1.0031  0.6456
 9213TIP3    H227604   1.625   1.198   2.918 -0.6241  1.0930  1.2806
 9214TIP3   OH227605   6.088   0.523   4.672 -0.3900 -0.0492  0.6249
 9214TIP3    H127606   6.114   0.459   4.607 -0.4936  1.4041 -0.9063
 9214TIP3    H227607   6.168   0.572   4.691 -0.4285 -0.2624  1.3992
 9215TIP3   OH227608   0.017   3.130   5.495  0.3026 -0.5429 -0.4741
 9215TIP3    H127609  -0.059   3.093   5.540  1.0329 -1.2740  0.1881
 9215TIP3    H227610   0.078   3.057   5.487  0.3869 -0.3415 -2.2916
 9216TIP3   OH227611   4.983   1.582   0.867 -0.5027 -0.2570  0.4328
 9216TIP3    H127612   4.913   1.637   0.901 -0.1167 -0.1403  1.0476
 9216TIP3    H227613   4.959   1.493   0.894 -0.6380 -0.2705  0.2665
 9217TIP3   OH227614   5.662   5.305   2.499 -0.1214 -0.1529 -0.1524
 9217TIP3    H127615   5.743   5.309   2.448 -1.1245  0.7594 -1.7563
 9217TIP3    H227616   5.635   5.396   2.508 -1.3685 -0.4964 -0.2911
 9218TIP3   OH227617   3.851   0.559   4.551  0.8143 -0.0775  0.7949
 9218TIP3    H127618   3.880   0.548   4.460 -0.7385  0.2510  0.2410
 9218TIP3    H227619   3.855   0.654   4.566 -1.0506  0.1209  0.3004
 9219TIP3   OH227620   4.065   3.413   2.605  0.2750 -0.0533  0.3554
 9219TIP3    H127621   4.049   3.324   2.636 -0.6163  0.1260  0.4607
 9219TIP3    H227622   4.160   3.421   2.600  0.3750 -0.8122  0.9216
 9220TIP3   OH227623   0.688   3.912   1.969 -0.4999 -0.0311  0.0386
 9220TIP3    H127624   0.774   3.917   1.929 -0.0749 -2.4650  0.5277
 9220TIP3    H227625   0.632   3.966   1.913  0.9731  0.2576 -1.2157
 9221TIP3   OH227626   0.419   1.048   2.552  0.1145  0.7445  0.1643
 9221TIP3    H127627   0.416   0.971   2.496 -2.2765 -1.3167  2.7945
 9221TIP3    H227628   0.400   1.121   2.493 -1.1393 -1.1104 -1.8976
 9222TIP3   OH227629   1.301   2.414   5.093  0.6667  0.8352 -0.2414
 9222TIP3    H127630   1.307   2.467   5.172  0.9585  0.1470  0.2079
 9222TIP3    H227631   1.239   2.461   5.037 -1.1895  0.2726  1.2487
 9223TIP3   OH227632   1.638   6.436   5.387  0.1966 -0.0734 -0.3181
 9223TIP3    H127633   1.616   6.433   5.481  2.3845  1.4508  0.3006
 9223TIP3    H227634   1.706   6.369   5.377  0.1781 -0.0227 -0.7743
 9224TIP3   OH227635   0.180   4.367   5.810  0.3347  0.1505 -0.4774
 9224TIP3    H127636   0.092   4.388   5.777 -0.1181 -0.4509  0.3000
 9224TIP3    H227637   0.230   4.345   5.731 -0.3790 -0.0676 -0.8822
 9225TIP3   OH227638   2.849   0.648   2.755  0.0458  0.1000  0.6199
 9225TIP3    H127639   2.939   0.670   2.730  0.4152 -0.0485  1.7634
 9225TIP3    H227640   2.801   0.645   2.672  1.0929  0.1873 -0.0055
 9226TIP3   OH227641   4.964   0.261   5.567 -0.5132  0.2197  0.9674
 9226TIP3    H127642   5.030   0.294   5.627 -0.8528  0.0034  1.4671
 9226TIP3    H227643   4.882   0.298   5.598 -0.8079 -0.5382  1.1332
 9227TIP3   OH227644   3.855   6.227   4.874 -0.0729  0.1139 -0.3645
 9227TIP3    H127645   3.843   6.316   4.840  1.3178 -0.1493 -1.7030
 9227TIP3    H227646   3.867   6.173   4.795  4.8567 -0.3261  0.3795
 9228TIP3   OH227647   7.108   6.628   1.102 -0.2082  0.1859 -0.0016
 9228TIP3    H127648   7.080   6.536   1.105  0.3514 -0.0294 -1.1087
 9228TIP3    H227649   7.203   6.624   1.102 -0.0971  0.8892  2.6035
 9229TIP3   OH227650   6.141   1.080   5.228  0.3508 -0.0200 -0.6555
 9229TIP3    H127651   6.093   1.137   5.167  0.1307 -0.3358 -0.7819
 9229TIP3    H227652   6.127   0.992   5.194  1.7990 -0.0493 -1.2307
 9230TIP3   OH227653   6.573   1.638   5.017  0.0775  0.0144  0.2906
 9230TIP3    H127654   6.532   1.608   5.098  0.4017 -0.5377  0.2534
 9230TIP3    H227655   6.552   1.732   5.013  0.2449  0.0934  1.1209
 9231TIP3   OH227656   0.531   2.699   0.286  0.0911 -0.5562  0.0486
 9231TIP3    H127657   0.601   2.758   0.260  0.1427 -0.5543  0.1917
 9231TIP3    H227658   0.523   2.712   0.381 -0.2295 -0.4159  0.0035
 9232TIP3   OH227659   7.048   3.997   4.786 -0.7357 -0.1687 -0.4924
 9232TIP3    H127660   6.989   4.052   4.837 -2.3437 -0.0375 -2.4045
 9232TIP3    H227661   7.132   4.043   4.789 -0.8445 -0.0052  1.6925
 9233TIP3   OH227662   6.410   4.797   3.927  0.8545 -0.0882 -0.0638
 9233TIP3    H127663   6.343   4.729   3.938  1.0834 -0.0334  2.0734
 9233TIP3    H227664   6.372   4.875   3.967  2.1053 -0.0164  1.0571
 9234TIP3   OH227665   2.470   4.971   1.832  0.3964  0.4104 -0.2959
 9234TIP3    H127666   2.466   4.964   1.737 -0.4952  0.3229 -0.2636
 9234TIP3    H227667   2.534   4.906   1.859  0.6519  0.4325 -0.8294
 9235TIP3   OH227668   1.598   1.379   2.116 -0.0611  0.5237 -0.3175
 9235TIP3    H127669   1.664   1.394   2.048 -0.9280 -0.4791 -1.4281
 9235TIP3    H227670   1.647   1.378   2.198  1.0024  1.8481 -0.9008
 9236TIP3   OH227671   4.869   6.229   4.111 -0.1285 -0.0229 -0.6702
 9236TIP3    H127672   4.779   6.195   4.113 -0.2143  0.2277  0.1704
 9236TIP3    H227673   4.911   6.188   4.187  0.5242 -0.2761 -1.1629
 9237TIP3   OH227674   6.379   6.163   4.292  0.1444 -0.4537  0.2926
 9237TIP3    H127675   6.334   6.206   4.365 -1.0425 -2.4923  0.8386
 9237TIP3    H227676   6.441   6.103   4.335  1.1143  0.0072 -0.4293
 9238TIP3   OH227677   5.018   1.498   3.606  0.3567 -0.3516 -0.4357
 9238TIP3    H127678   5.007   1.487   3.512 -1.1851 -0.4635 -0.2649
 9238TIP3    H227679   4.932   1.526   3.637  1.2369  1.1811  0.7386
 9239TIP3   OH227680   2.438   2.576   4.681  0.5213  0.2011 -0.4114
 9239TIP3    H127681   2.374   2.646   4.667 -0.3467 -0.1948  1.3047
 9239TIP3    H227682   2.460   2.582   4.774  0.9640 -1.3556 -0.3906
 9240TIP3   OH227683   4.260   3.451   3.617  0.4077 -0.1926  0.7768
 9240TIP3    H127684   4.253   3.496   3.533 -0.0763  1.2365  1.5383
 9240TIP3    H227685   4.353   3.426   3.623  0.7342  0.8571  0.3653
 9241TIP3   OH227686   6.035   0.898   0.936  0.0871  0.0105  0.3394
 9241TIP3    H127687   5.972   0.826   0.940 -1.3167  1.1389 -0.4998
 9241TIP3    H227688   5.989   0.968   0.890  1.4142  1.4531  1.0997
 9242TIP3   OH227689   2.185   4.301   0.443  0.5209  0.8436 -1.2905
 9242TIP3    H127690   2.164   4.214   0.408 -0.5869 -1.3901  3.9677
 9242TIP3    H227691   2.115   4.357   0.409 -2.2384 -1.7834 -0.4410
 9243TIP3   OH227692   2.273   2.839   2.602 -0.0301  0.2647  0.2572
 9243TIP3    H127693   2.295   2.819   2.693 -0.7996 -1.2184  0.1480
 9243TIP3    H227694   2.346   2.802   2.551 -0.9111 -1.4426  0.1330
 9244TIP3   OH227695   1.637   5.376   1.817 -0.5442 -0.0257  0.1290
 9244TIP3    H127696   1.542   5.379   1.825 -0.8132  2.1344 -2.4786
 9244TIP3    H227697   1.667   5.457   1.858  0.0491 -0.1319 -0.0806
 9245TIP3   OH227698   2.212   1.588   1.999 -0.1470  0.2275  0.3231
 9245TIP3    H127699   2.300   1.565   1.969 -0.0883  0.4031  0.3645
 9245TIP3    H227700   2.205   1.547   2.085 -0.4993 -0.7105 -0.1365
 9246TIP3   OH227701   0.691   1.864   4.024  0.1057  0.5060  0.4813
 9246TIP3    H127702   0.597   1.871   4.009  0.2399  0.1837 -0.5486
 9246TIP3    H227703   0.699   1.845   4.118 -1.0342 -2.8526  0.0170
 9247TIP3   OH227704   4.643   5.650   0.971 -0.1476  0.2701  0.5984
 9247TIP3    H127705   4.597   5.724   1.012 -0.1449  1.0359 -0.7394
 9247TIP3    H227706   4.606   5.573   1.014 -1.1600  0.9734  1.0373
 9248TIP3   OH227707   1.874   1.518   1.112  0.0949 -0.3704  0.2234
 9248TIP3    H127708   1.810   1.448   1.097  0.3708 -1.0555  1.9627
 9248TIP3    H227709   1.950   1.473   1.148  0.3536  0.7895  1.1955
 9249TIP3   OH227710   3.766   2.110   3.537 -0.2433 -0.0857  0.5462
 9249TIP3    H127711   3.836   2.088   3.476 -1.6223 -0.7586 -0.8976
 9249TIP3    H227712   3.735   2.196   3.509 -1.3515 -0.7012 -0.2392
 9250TIP3   OH227713   4.553   3.532   4.774 -1.1013  0.4240  0.1046
 9250TIP3    H127714   4.591   3.614   4.804 -0.1310  0.1030 -0.1981
 9250TIP3    H227715   4.629   3.477   4.752 -1.7471 -0.1598 -0.7361
 9251TIP3   OH227716   3.606   1.503   2.269  0.0321 -0.2150  0.0587
 9251TIP3    H127717   3.619   1.573   2.333  0.8583  0.6969 -1.0633
 9251TIP3    H227718   3.518   1.519   2.234  0.1002  0.1010  0.0231
 9252TIP3   OH227719   1.905   0.582   1.691 -0.1555  0.1924 -0.2562
 9252TIP3    H127720   1.891   0.489   1.707 -0.2363  0.4127  1.1202
 9252TIP3    H227721   1.981   0.586   1.634  1.8921 -0.6575  2.2259
 9253TIP3   OH227722   0.221   3.414   5.238  0.2679 -0.3872 -0.1074
 9253TIP3    H127723   0.229   3.450   5.150 -1.1412  0.7004  0.1758
 9253TIP3    H227724   0.308   3.424   5.277  0.0799  2.2986 -0.2229
 9254TIP3   OH227725   4.395   0.380   3.740 -0.1694  0.6323  0.2658
 9254TIP3    H127726   4.433   0.308   3.689  0.0175  1.8544 -1.3837
 9254TIP3    H227727   4.311   0.397   3.699 -1.2508 -0.0782  2.0598
 9255TIP3   OH227728   4.367   4.990   1.202 -0.0000  0.9212 -0.4847
 9255TIP3    H127729   4.400   4.979   1.113  1.5059  1.3661  0.0010
 9255TIP3    H227730   4.342   5.083   1.207 -1.3976  0.5871 -0.8528
 9256TIP3   OH227731   5.649   5.656   5.526  0.5458  0.1865  0.3595
 9256TIP3    H127732   5.651   5.721   5.456 -0.3161 -0.5538 -0.3780
 9256TIP3    H227733   5.584   5.690   5.588 -0.1510 -0.1318 -0.1902
 9257TIP3   OH227734   6.614   0.125   2.530 -0.4947  0.3633 -0.4401
 9257TIP3    H127735   6.648   0.074   2.456 -1.3528  1.1069 -1.3739
 9257TIP3    H227736   6.591   0.209   2.492 -0.8010  0.8210  0.7214
 9258TIP3   OH227737   5.992   6.442   3.505  0.4951  0.5090  0.4898
 9258TIP3    H127738   6.007   6.498   3.428  0.4041 -1.9199 -1.4051
 9258TIP3    H227739   6.071   6.452   3.557  1.0193  1.4252 -0.4276
 9259TIP3   OH227740   1.869   1.906   2.108 -0.5725  0.1171 -0.0783
 9259TIP3    H127741   1.798   1.842   2.103  0.4856 -1.0314 -0.6224
 9259TIP3    H227742   1.891   1.909   2.201  1.4278 -2.6828 -0.3366
 9260TIP3   OH227743   1.980   2.728   5.082  0.7602 -0.2706  0.4909
 9260TIP3    H127744   1.982   2.697   4.991 -0.3115  2.2694 -0.4956
 9260TIP3    H227745   2.036   2.806   5.081  1.1460 -0.4848  2.1828
 9261TIP3   OH227746   1.164   1.447   4.079  0.0015 -0.4513 -0.0657
 9261TIP3    H127747   1.083   1.396   4.079  0.2289 -0.8271  0.2799
 9261TIP3    H227748   1.217   1.407   4.010  0.7412 -1.6390  1.1223
 9262TIP3   OH227749   4.751   1.114   1.809  0.5459  0.5240  0.3672
 9262TIP3    H127750   4.718   1.182   1.868 -0.4454 -0.0873  0.5490
 9262TIP3    H227751   4.818   1.158   1.757 -0.0863  1.6414  0.4581
 9263TIP3   OH227752   2.197   6.336   4.088 -0.5310  0.0611 -0.3120
 9263TIP3    H127753   2.189   6.257   4.034  0.2426 -1.0389  1.1292
 9263TIP3    H227754   2.107   6.364   4.104 -0.7964 -0.1367 -1.3690
 9264TIP3   OH227755   0.863   4.107   2.534 -0.5921 -0.1045  0.3484
 9264TIP3    H127756   0.770   4.090   2.550 -0.9285  2.1746  1.2124
 9264TIP3    H227757   0.865   4.192   2.491  0.9829 -1.4549 -2.4944
 9265TIP3   OH227758   5.899   5.674   5.322 -0.0050  0.1484 -0.1057
 9265TIP3    H127759   5.983   5.689   5.277 -0.4965  0.1703 -1.0293
 9265TIP3    H227760   5.871   5.762   5.348 -0.0559  0.2182 -0.3858
 9266TIP3   OH227761   0.613   1.747   2.366 -0.1428  0.4795  0.2173
 9266TIP3    H127762   0.586   1.817   2.307 -1.0965 -1.8527 -2.3243
 9266TIP3    H227763   0.531   1.703   2.391  0.4406  0.0825  1.5585
 9267TIP3   OH227764   2.948   6.033   1.194  0.0367 -0.2838  0.1124
 9267TIP3    H127765   2.903   6.094   1.251  0.9647  1.4911 -0.9416
 9267TIP3    H227766   3.034   6.073   1.179  0.9280 -2.1683 -0.1321
 9268TIP3   OH227767   5.158   1.319   3.362  0.1421 -0.4580 -0.5304
 9268TIP3    H127768   5.204   1.380   3.420 -1.8168  1.1552 -0.5629
 9268TIP3    H227769   5.086   1.370   3.326 -2.1224 -3.0017  0.0692
 9269TIP3   OH227770   3.529   0.059   2.439 -0.2469  0.3944 -0.0874
 9269TIP3    H127771   3.448   0.023   2.476  0.5390 -1.9758 -0.4949
 9269TIP3    H227772   3.507   0.082   2.349 -0.1478 -1.7961 -0.7347
 9270TIP3   OH227773   3.056   2.422   0.547 -0.1747  0.1579  0.5260
 9270TIP3    H127774   3.143   2.462   0.557  0.5888 -1.0832 -0.7393
 9270TIP3    H227775   3.065   2.335   0.586 -1.6325  0.8872  2.6836
 9271TIP3   OH227776   1.109   3.735   1.217 -0.6139  0.6645 -0.1840
 9271TIP3    H127777   1.183   3.796   1.209 -0.7166  0.6773 -1.2183
 9271TIP3    H227778   1.070   3.755   1.302  1.6419 -0.5660  1.2589
 9272TIP3   OH227779   4.784   1.521   4.902 -0.5029 -0.4480 -0.1906
 9272TIP3    H127780   4.750   1.443   4.860 -0.4322 -1.4262  1.4647
 9272TIP3    H227781   4.711   1.582   4.903 -1.6657 -1.7837  1.5277
 9273TIP3   OH227782   6.566   5.339   3.620 -0.5741  0.1721  0.5736
 9273TIP3    H127783   6.598   5.249   3.620 -1.6435 -0.2173  0.0638
 9273TIP3    H227784   6.515   5.347   3.540 -2.2977  0.5625  1.6536
 9274TIP3   OH227785   3.788   5.830   4.940  0.0825  0.0133  0.4888
 9274TIP3    H127786   3.816   5.862   4.855 -0.7814 -1.0904 -0.2458
 9274TIP3    H227787   3.739   5.902   4.979  1.5036  0.9534  0.5969
 9275TIP3   OH227788   1.044   5.370   2.941 -0.1031 -0.0157 -0.2399
 9275TIP3    H127789   1.030   5.384   3.034 -0.6329 -0.0537 -0.3076
 9275TIP3    H227790   0.993   5.292   2.920  1.0743 -0.7899 -0.3065
 9276TIP3   OH227791   1.285   0.254   0.124  0.2065 -0.4019  0.3100
 9276TIP3    H127792   1.364   0.201   0.140 -0.0097 -0.6509  0.5753
 9276TIP3    H227793   1.215   0.189   0.115 -0.0444 -0.1644  0.5313
 9277TIP3   OH227794   5.299   5.639   5.692  0.7838 -0.0204 -0.2143
 9277TIP3    H127795   5.207   5.614   5.694  0.4168  1.2832  0.7793
 9277TIP3    H227796   5.299   5.734   5.705  2.2847 -0.0611  0.3864
 9278TIP3   OH227797   5.233   5.055   0.745  0.1560 -0.3726 -0.0398
 9278TIP3    H127798   5.206   4.997   0.816  1.7755  1.0868  1.8942
 9278TIP3    H227799   5.173   5.035   0.674  0.4288 -4.1629  0.5647
 9279TIP3   OH227800   6.758   4.959   2.230  0.5123 -0.1029 -0.4892
 9279TIP3    H127801   6.805   4.908   2.296  0.8609 -0.4585 -1.0039
 9279TIP3    H227802   6.684   4.905   2.206  0.0481  0.2857  0.0314
 9280TIP3   OH227803   0.122   3.401   2.591  0.4272 -0.4202 -0.3851
 9280TIP3    H127804   0.071   3.437   2.664  0.7772  0.8785 -0.7685
 9280TIP3    H227805   0.082   3.438   2.513 -0.4608 -2.4348 -0.9527
 9281TIP3   OH227806   1.301   1.905   5.216  0.5450  0.2513  1.0104
 9281TIP3    H127807   1.232   1.869   5.161  1.1578  0.1891  0.2721
 9281TIP3    H227808   1.279   1.998   5.224 -0.6411 -0.1016  2.3244
 9282TIP3   OH227809   0.329   2.637   4.327  0.1874 -0.1751  0.3025
 9282TIP3    H127810   0.345   2.703   4.259 -1.4254  1.5307  1.4947
 9282TIP3    H227811   0.241   2.604   4.307  0.0063 -0.2044  1.1455
 9283TIP3   OH227812   3.430   4.939   4.240  0.6066  0.2438 -0.1440
 9283TIP3    H127813   3.384   5.022   4.229  0.4844  0.0109 -1.5804
 9283TIP3    H227814   3.361   4.873   4.246  0.7140  0.0332 -1.0629
 9284TIP3   OH227815   3.324   2.430   1.018  0.2043  0.6029  0.0365
 9284TIP3    H127816   3.344   2.477   1.099 -2.8107  1.2211  0.5514
 9284TIP3    H227817   3.277   2.351   1.047  2.1941 -1.0726 -1.0075
 9285TIP3   OH227818   0.161   2.091   2.745  0.4547 -0.0679  0.5421
 9285TIP3    H127819   0.163   2.131   2.832  0.7650  0.1770  0.4251
 9285TIP3    H227820   0.076   2.116   2.709  0.0409 -0.7478  1.0431
 9286TIP3   OH227821   6.689   6.210   0.882  0.0117 -0.7804  0.4514
 9286TIP3    H127822   6.748   6.282   0.902 -0.3981 -1.1397  3.3740
 9286TIP3    H227823   6.717   6.139   0.940 -1.8965 -1.7089  0.3279
 9287TIP3   OH227824   5.308   0.732   1.148 -0.8456 -0.3284 -0.8828
 9287TIP3    H127825   5.378   0.713   1.210 -1.0806  2.4280  0.3969
 9287TIP3    H227826   5.230   0.743   1.203 -0.9295  2.8361 -1.4477
 9288TIP3   OH227827   6.869   1.002   0.220 -0.2623  0.0376  0.0247
 9288TIP3    H127828   6.823   0.929   0.262  1.9515 -0.6891  1.3234
 9288TIP3    H227829   6.899   0.967   0.136 -0.6756  0.0236 -0.1220
 9289TIP3   OH227830   5.835   1.022   1.734  0.1613 -0.3807 -0.5162
 9289TIP3    H127831   5.904   1.088   1.740  0.1193 -0.4965  2.8596
 9289TIP3    H227832   5.768   1.062   1.678  1.4144  1.1679 -0.9776
 9290TIP3   OH227833   2.742   3.607   5.248 -0.3363 -0.0281  0.2245
 9290TIP3    H127834   2.685   3.530   5.239  2.2503 -2.2611  1.4713
 9290TIP3    H227835   2.755   3.637   5.158  0.0308 -2.2479 -0.5429
 9291TIP3   OH227836   0.160   4.383   4.795 -0.5227  0.2114  0.0172
 9291TIP3    H127837   0.235   4.336   4.831 -1.1836 -0.7576  0.1469
 9291TIP3    H227838   0.092   4.377   4.862 -0.5226  1.6399  0.1738
 9292TIP3   OH227839   0.438   4.851   5.720  0.1593  0.5365 -1.1936
 9292TIP3    H127840   0.468   4.782   5.661 -2.1294 -0.1839 -1.6078
 9292TIP3    H227841   0.488   4.837   5.800  1.5698  0.0197 -2.1149
 9293TIP3   OH227842   1.109   2.525   1.417  0.3620  0.0463  0.1031
 9293TIP3    H127843   1.183   2.471   1.446  0.4708  0.2976  0.2937
 9293TIP3    H227844   1.086   2.490   1.331  1.2460  0.5256 -0.3322
 9294TIP3   OH227845   1.077   3.883   0.396  0.2353  0.2157 -0.6395
 9294TIP3    H127846   1.135   3.914   0.466 -0.3841 -0.4467  0.1804
 9294TIP3    H227847   1.014   3.954   0.384 -0.1589 -0.0094  0.0598
 9295TIP3   OH227848   5.339   5.668   2.983  0.3989 -0.0026 -0.0639
 9295TIP3    H127849   5.327   5.670   3.078 -0.0724  0.9953 -0.1328
 9295TIP3    H227850   5.394   5.744   2.964 -0.2352  0.3203 -0.6692
 9296TIP3   OH227851   6.147   0.398   3.448 -0.2221  0.2453  0.0358
 9296TIP3    H127852   6.174   0.364   3.363  0.3935  0.4130  0.1597
 9296TIP3    H227853   6.092   0.328   3.485  1.0044 -0.6228  0.2746
 9297TIP3   OH227854   1.234   4.880   2.307 -0.2018  0.0776  0.1333
 9297TIP3    H127855   1.327   4.902   2.312  0.0286 -0.8781  0.2381
 9297TIP3    H227856   1.189   4.962   2.326  0.6100  0.8370 -1.0886
 9298TIP3   OH227857   5.303   2.890   5.096 -0.0525 -0.2935 -0.1540
 9298TIP3    H127858   5.394   2.916   5.106 -0.0144 -0.8287  1.1204
 9298TIP3    H227859   5.254   2.954   5.148 -0.1161 -1.5617  1.4722
 9299TIP3   OH227860   0.928   5.646   4.154 -0.1930 -0.5429 -0.0755
 9299TIP3    H127861   0.951   5.685   4.238  1.1011  0.7365 -0.9749
 9299TIP3    H227862   0.985   5.569   4.146  0.4883 -0.0315 -0.2468
 9300TIP3   OH227863   1.420   6.544   4.608  0.1580  0.1779  0.0367
 9300TIP3    H127864   1.347   6.549   4.671 -1.3361 -0.4780 -1.5735
 9300TIP3    H227865   1.404   6.463   4.559  0.8053  1.0749 -1.7365
 9301TIP3   OH227866   6.178   3.719   5.501  0.1785 -0.5092  0.0794
 9301TIP3    H127867   6.253   3.662   5.516 -0.5969 -2.2350 -2.0515
 9301TIP3    H227868   6.116   3.664   5.452 -3.2032  0.2779  3.0194
 9302TIP3   OH227869   1.660   3.444   3.689  0.6887  0.3143  0.2847
 9302TIP3    H127870   1.609   3.493   3.753 -0.1899 -0.4476  0.1743
 9302TIP3    H227871   1.721   3.393   3.741 -0.5074 -0.8562  0.5802
 9303TIP3   OH227872   7.159   2.101   5.684  0.0321 -0.1974  0.4930
 9303TIP3    H127873   7.102   2.060   5.749 -0.2931 -0.9414 -0.2357
 9303TIP3    H227874   7.181   2.030   5.624  0.1550  0.5176 -0.3293
 9304TIP3   OH227875   6.567   4.759   3.683  0.0261 -0.4089  0.2761
 9304TIP3    H127876   6.524   4.778   3.766  0.2237  1.6035 -0.0259
 9304TIP3    H227877   6.660   4.767   3.702  0.0445  1.7467 -0.4316
 9305TIP3   OH227878   4.856   6.426   0.002 -0.1206 -0.1962  0.1477
 9305TIP3    H127879   4.795   6.415   0.074 -1.3922  1.5735 -0.5740
 9305TIP3    H227880   4.802   6.460  -0.070  1.3797 -0.3866 -1.1245
 9306TIP3   OH227881   7.049   6.403   5.227  0.3453  0.2377 -0.3853
 9306TIP3    H127882   7.093   6.417   5.143  0.5045  1.2196 -0.1452
 9306TIP3    H227883   7.116   6.422   5.293 -0.0893  0.5645 -0.0279
 9307TIP3   OH227884   5.634   0.413   2.141 -0.1958  0.0006 -0.6285
 9307TIP3    H127885   5.655   0.471   2.067  0.9224  1.8825  1.0444
 9307TIP3    H227886   5.538   0.413   2.145 -0.2776  3.0353  0.1540
 9308TIP3   OH227887   2.057   3.014   0.055 -0.0249 -0.5797 -0.4084
 9308TIP3    H127888   2.015   2.929   0.069  0.1898 -0.9594 -1.9316
 9308TIP3    H227889   1.989   3.078   0.078 -0.8248 -1.1794 -1.0496
 9309TIP3   OH227890   5.048   6.456   0.218  0.0790 -0.4130 -0.5886
 9309TIP3    H127891   5.013   6.368   0.206 -0.3386 -0.7184  2.2011
 9309TIP3    H227892   4.976   6.514   0.195 -0.2773 -0.8677 -0.6265
 9310TIP3   OH227893   5.716   3.904   4.077 -0.4519  0.5371  0.2362
 9310TIP3    H127894   5.665   3.984   4.071  0.2527  1.0861  1.3618
 9310TIP3    H227895   5.799   3.925   4.034  0.1957  0.8197  1.5785
 9311TIP3   OH227896   6.549   4.314   5.237 -0.3192 -0.2567 -0.0348
 9311TIP3    H127897   6.506   4.232   5.215 -1.7704  0.7040 -0.9774
 9311TIP3    H227898   6.497   4.350   5.309 -0.2599  0.2657 -0.2480
 9312TIP3   OH227899   2.794   4.696   3.556 -0.0583 -0.3307  0.1964
 9312TIP3    H127900   2.824   4.787   3.550  1.1240 -0.7754 -1.4507
 9312TIP3    H227901   2.804   4.673   3.649  2.6066  0.2968  0.1442
 9313TIP3   OH227902   4.042   5.712   4.349  0.5808 -0.1748  0.1525
 9313TIP3    H127903   4.104   5.712   4.275  2.1413  0.0295  1.4112
 9313TIP3    H227904   4.023   5.619   4.364 -2.1415 -0.1728 -2.3391
 9314TIP3   OH227905   2.583   6.292   3.671  0.3691  0.0336  0.6995
 9314TIP3    H127906   2.495   6.330   3.673  0.4273  0.1443  1.4454
 9314TIP3    H227907   2.572   6.210   3.624 -0.3485 -0.4734  1.7063
 9315TIP3   OH227908   2.062   5.508   1.449 -0.2471  0.1627 -0.0614
 9315TIP3    H127909   2.053   5.413   1.442 -0.5997  0.1752  0.2068
 9315TIP3    H227910   1.973   5.540   1.465 -0.1782  0.5677 -0.4668
 9316TIP3   OH227911   2.410   2.538  -0.023  0.0983  0.1822  0.6232
 9316TIP3    H127912   2.475   2.468  -0.014 -0.3997 -0.2651  0.7964
 9316TIP3    H227913   2.355   2.531   0.055 -1.2718 -0.6128 -0.3588
 9317TIP3   OH227914   3.986   1.838   2.947 -0.5546 -0.0061 -0.5214
 9317TIP3    H127915   3.928   1.827   3.022  1.9438  0.4050  1.6005
 9317TIP3    H227916   4.074   1.832   2.983  0.7956 -0.4288 -3.5540
 9318TIP3   OH227917   7.100   5.283   3.100  0.2378  0.2620  0.0628
 9318TIP3    H127918   7.079   5.342   3.172  0.6447  0.4290  0.0436
 9318TIP3    H227919   7.020   5.283   3.046 -0.1531 -0.0442  0.6291
 9319TIP3   OH227920   1.073   2.713   0.985 -0.0153  0.6295  0.2744
 9319TIP3    H127921   1.130   2.658   1.039 -0.9712 -0.1088  0.5647
 9319TIP3    H227922   1.035   2.775   1.046 -0.8401  0.0071  0.4170
 9320TIP3   OH227923   3.937   0.949   0.777 -0.2890 -0.3471  0.5057
 9320TIP3    H127924   3.940   0.942   0.873  0.0188 -0.2683  0.5047
 9320TIP3    H227925   3.905   0.864   0.747 -0.6143 -0.2917  0.6895
 9321TIP3   OH227926   4.803   2.945   5.551 -0.4075  0.3150  0.0069
 9321TIP3    H127927   4.802   2.850   5.544 -1.6020  0.2154  1.0398
 9321TIP3    H227928   4.714   2.972   5.529  0.0308  1.2477 -0.7122
 9322TIP3   OH227929   3.409   0.674   3.804  0.3519  0.2194 -0.1083
 9322TIP3    H127930   3.317   0.648   3.794  0.6232 -0.6723 -0.3600
 9322TIP3    H227931   3.417   0.755   3.753 -0.1432 -0.0319 -0.5929
 9323TIP3   OH227932   4.163   0.638   0.909  0.0306 -0.0994  0.2499
 9323TIP3    H127933   4.108   0.589   0.970  1.3673 -0.4157  1.2491
 9323TIP3    H227934   4.190   0.574   0.843 -0.9066  0.0933 -0.3284
 9324TIP3   OH227935   0.248   0.605   3.867  0.2392  0.4166  0.4703
 9324TIP3    H127936   0.162   0.621   3.828  1.2431  1.0329 -1.6199
 9324TIP3    H227937   0.303   0.576   3.794  2.0429  0.9097  1.5636
 9325TIP3   OH227938   1.539   0.175   5.457 -0.4067 -0.2351 -0.6665
 9325TIP3    H127939   1.607   0.108   5.453 -0.4058 -0.3565  0.7640
 9325TIP3    H227940   1.458   0.127   5.473 -0.4408  0.0680  0.1191
 9326TIP3   OH227941   1.407   6.607   3.799 -0.5898  0.3470  0.2750
 9326TIP3    H127942   1.431   6.549   3.872  1.0817  0.4037 -0.1754
 9326TIP3    H227943   1.352   6.553   3.743 -1.6254  0.2005  1.3941
 9327TIP3   OH227944   6.174   3.556   4.302  0.0225  0.7115  0.1815
 9327TIP3    H127945   6.127   3.479   4.270 -0.8052  1.1406  0.3389
 9327TIP3    H227946   6.141   3.628   4.248  0.7466  0.9734  0.0746
 9328TIP3   OH227947   0.138   2.643   5.571 -0.8179 -0.5069 -0.0536
 9328TIP3    H127948   0.131   2.552   5.542 -2.2937 -0.3148 -0.3858
 9328TIP3    H227949   0.121   2.695   5.492 -0.9458  0.0538  0.3343
 9329TIP3   OH227950   3.286   1.247   4.072 -0.3237 -0.0281 -0.3105
 9329TIP3    H127951   3.314   1.196   3.996 -1.5043 -3.3265  1.2967
 9329TIP3    H227952   3.192   1.259   4.059  0.0073  2.4313 -0.9356
 9330TIP3   OH227953   7.022   5.374   1.111  0.1770 -0.2102 -0.2620
 9330TIP3    H127954   7.086   5.392   1.180  0.9143 -0.9661 -0.7266
 9330TIP3    H227955   7.047   5.434   1.040 -1.1771  1.2678  0.4460
 9331TIP3   OH227956   1.739   1.061   2.977  0.1417 -0.2163 -0.0907
 9331TIP3    H127957   1.747   1.109   3.060 -1.7942  0.3043 -0.1624
 9331TIP3    H227958   1.828   1.029   2.960  0.7691  0.3891  1.7368
 9332TIP3   OH227959   6.981   4.421   0.088 -0.1053 -0.4635 -0.0655
 9332TIP3    H127960   6.911   4.476   0.123  0.6476 -0.8028  2.1288
 9332TIP3    H227961   7.057   4.479   0.082  0.1604 -0.7686  0.3003
 9333TIP3   OH227962   3.443   4.341   4.394  0.0561  0.5437  0.0193
 9333TIP3    H127963   3.365   4.328   4.449 -0.4203  0.8671 -0.5670
 9333TIP3    H227964   3.487   4.416   4.434  0.3318  0.0602  0.6401
 9334TIP3   OH227965   0.946   6.112   2.908 -0.0313  0.2153 -0.5953
 9334TIP3    H127966   0.894   6.183   2.946 -0.0753 -0.2728  0.2822
 9334TIP3    H227967   0.890   6.035   2.914  0.3901 -0.0951 -0.6262
 9335TIP3   OH227968   0.349   2.658   3.611 -0.6326 -0.7662 -0.5263
 9335TIP3    H127969   0.399   2.669   3.530  1.0179 -0.3603  0.4996
 9335TIP3    H227970   0.318   2.746   3.632 -0.5729 -0.7705 -0.4201
 9336TIP3   OH227971   7.117   5.307   1.992  0.2959  0.3197  0.2127
 9336TIP3    H127972   7.061   5.258   1.932  2.4387 -1.4243 -0.4835
 9336TIP3    H227973   7.078   5.395   1.995 -0.9431 -0.0645 -2.2317
 9337TIP3   OH227974   3.585   0.429   5.140 -0.3149  0.0322  1.0894
 9337TIP3    H127975   3.560   0.407   5.230 -1.0359  2.7136  1.6408
 9337TIP3    H227976   3.657   0.492   5.150 -0.2434  0.1838 -0.2363
 9338TIP3   OH227977   0.389   5.128   0.663 -0.1562  0.2811  0.0271
 9338TIP3    H127978   0.466   5.128   0.607 -1.2477  0.5089 -1.5548
 9338TIP3    H227979   0.356   5.038   0.657 -1.3642  0.7744 -1.3285
 9339TIP3   OH227980   3.705   0.283   4.418  0.4690  0.4911 -0.1367
 9339TIP3    H127981   3.635   0.283   4.353 -0.1179  1.6171  0.4522
 9339TIP3    H227982   3.679   0.216   4.481  1.3827 -1.0894 -1.3600
 9340TIP3   OH227983   4.082   4.601   2.899  0.3349 -0.0990 -0.2377
 9340TIP3    H127984   4.118   4.561   2.819  4.5845 -1.0002  1.7961
 9340TIP3    H227985   4.130   4.683   2.908 -1.1113  0.6698  0.6681
 9341TIP3   OH227986   5.255   6.073   0.812  0.5928 -0.2284  0.1402
 9341TIP3    H127987   5.300   6.042   0.733  0.4868  2.4583 -1.0598
 9341TIP3    H227988   5.182   6.125   0.779 -0.0744  0.0892  2.0407
 9342TIP3   OH227989   3.733   1.203   3.558 -0.3986 -0.1873 -0.3618
 9342TIP3    H127990   3.757   1.263   3.629 -0.6092  1.1882 -1.4211
 9342TIP3    H227991   3.802   1.136   3.560 -1.2068 -1.0474  2.0724
 9343TIP3   OH227992   1.540   6.504   0.594  0.2617  0.3137 -0.5433
 9343TIP3    H127993   1.599   6.574   0.620  1.6482 -1.2563  0.7271
 9343TIP3    H227994   1.507   6.468   0.676  0.5533 -1.2998 -1.0897
 9344TIP3   OH227995   6.942   1.364   3.248  0.2960  0.3131 -0.0999
 9344TIP3    H127996   6.979   1.348   3.335  1.3974  3.4538  0.1510
 9344TIP3    H227997   7.015   1.349   3.187  0.7392  2.0215 -0.0401
 9345TIP3   OH227998   0.970   0.097   4.968  0.1957 -0.1731 -0.2917
 9345TIP3    H127999   0.948   0.188   4.987 -1.1646 -0.3109 -1.0257
 9345TIP3    H228000   1.014   0.101   4.883  0.4977 -0.1642 -0.1352
 9346TIP3   OH228001   2.513   3.743   0.238 -0.2389  0.4306 -0.0816
 9346TIP3    H128002   2.573   3.733   0.164  1.1954 -0.2907  1.1506
 9346TIP3    H228003   2.445   3.803   0.205  0.7345  0.6802 -1.7429
 9347TIP3   OH228004   0.887   2.536   3.799 -0.5403  0.5657 -0.1688
 9347TIP3    H128005   0.855   2.520   3.710 -1.0898  0.2496  0.0763
 9347TIP3    H228006   0.808   2.538   3.853 -0.1154 -1.2858  0.6220
 9348TIP3   OH228007   6.003   5.978   4.729 -0.3583 -0.5224 -0.4655
 9348TIP3    H128008   5.910   5.956   4.732  0.1057 -2.7065  2.9344
 9348TIP3    H228009   6.048   5.893   4.732  1.7811  0.5019 -1.3541
 9349TIP3   OH228010   2.753   6.203   2.375 -0.3484  0.0733 -0.0441
 9349TIP3    H128011   2.702   6.131   2.410  1.2269  0.1608  2.7124
 9349TIP3    H228012   2.691   6.276   2.368 -0.9140 -0.1026  2.2610
 9350TIP3   OH228013   3.772   2.872   4.170 -0.0914  0.3103 -0.2414
 9350TIP3    H128014   3.758   2.781   4.196  0.5366 -0.2714 -1.7845
 9350TIP3    H228015   3.699   2.891   4.110  0.6095  0.2920 -1.1252
 9351TIP3   OH228016   1.080   3.455   3.549  0.5022  0.1390  0.3203
 9351TIP3    H128017   1.077   3.506   3.630 -0.4413  1.1385 -0.3153
 9351TIP3    H228018   1.023   3.503   3.488 -0.0021 -1.4118 -0.4664
 9352TIP3   OH228019   3.306   4.822   3.142  0.0491 -0.3677  0.2616
 9352TIP3    H128020   3.247   4.752   3.168  0.2328 -1.7181 -2.5348
 9352TIP3    H228021   3.263   4.863   3.067  0.7168  1.4902  0.8363
 9353TIP3   OH228022   7.161   5.008   3.501  0.1925 -0.3683 -0.3026
 9353TIP3    H128023   7.148   5.096   3.537  1.5211 -0.2411 -0.0590
 9353TIP3    H228024   7.133   5.015   3.410  0.2300  0.2935 -0.2702
 9354TIP3   OH228025   3.140   1.676   4.956  0.1348 -0.1810  0.3045
 9354TIP3    H128026   3.097   1.618   4.893 -0.9748 -1.4984  2.1753
 9354TIP3    H228027   3.233   1.669   4.934 -0.2412 -0.2767 -1.4123
 9355TIP3   OH228028   2.618   5.941   5.502  0.1726 -0.2369  0.1614
 9355TIP3    H128029   2.608   5.847   5.487  0.5657 -0.0794 -1.2376
 9355TIP3    H228030   2.696   5.948   5.557  0.2570 -0.7179  0.1105
 9356TIP3   OH228031   0.420   1.550   1.407  0.1115 -0.3732  0.5137
 9356TIP3    H128032   0.506   1.545   1.448  0.1552  1.9285  0.8695
 9356TIP3    H228033   0.359   1.561   1.480 -0.2834 -0.3923  0.1888
 9357TIP3   OH228034   6.027   0.937   3.144 -0.2047 -0.2573  0.6416
 9357TIP3    H128035   6.014   0.902   3.056  0.4110  0.4909  0.2372
 9357TIP3    H228036   5.945   0.921   3.190  0.5380 -3.7519  1.0423
 9358TIP3   OH228037   1.511   0.803   5.556  0.1940  0.2438 -0.2031
 9358TIP3    H128038   1.440   0.823   5.618  0.4363 -0.8994  0.4828
 9358TIP3    H228039   1.583   0.860   5.583  0.5264 -0.7138  1.0349
 9359TIP3   OH228040   1.568   2.985   2.040  0.0883  0.3864 -0.1593
 9359TIP3    H128041   1.550   3.070   2.080 -0.5681  0.5366 -0.7527
 9359TIP3    H228042   1.525   2.921   2.098 -1.0776  0.6215 -0.7410
 9360TIP3   OH228043   0.915   6.490   3.119 -0.3508 -0.3749 -0.2137
 9360TIP3    H128044   0.884   6.499   3.028 -1.8307 -0.5011  0.2531
 9360TIP3    H228045   0.956   6.403   3.121  0.0209 -0.2279 -0.8344
 9361TIP3   OH228046   3.176   3.603   5.447  0.2453  0.6737  0.0817
 9361TIP3    H128047   3.219   3.675   5.492 -0.6774 -0.3500  2.8081
 9361TIP3    H228048   3.248   3.554   5.407  1.7482 -0.3992  3.6213
 9362TIP3   OH228049   4.238   6.671   5.527  0.1999 -0.8334  0.2985
 9362TIP3    H128050   4.329   6.697   5.539 -0.1984  1.5635 -1.2498
 9362TIP3    H228051   4.191   6.714   5.599  0.1475 -1.3991  0.6142
 9363TIP3   OH228052   1.980   1.156   5.170 -0.3403  0.6556  0.2426
 9363TIP3    H128053   1.919   1.098   5.216 -0.3615  1.1836  0.9018
 9363TIP3    H228054   1.984   1.121   5.081 -0.9892  0.1401  0.4055
 9364TIP3   OH228055   1.232   2.979   2.834 -0.4395 -0.3303 -0.1633
 9364TIP3    H128056   1.216   2.891   2.800 -2.6408 -0.5437  1.2032
 9364TIP3    H228057   1.171   3.035   2.786 -0.4560  0.0952  0.3403
 9365TIP3   OH228058   6.853   2.708   4.788 -0.0080  0.1348 -0.2754
 9365TIP3    H128059   6.941   2.683   4.758  0.4610  0.2666  0.9150
 9365TIP3    H228060   6.833   2.645   4.858 -1.9321 -1.4763 -2.1279
 9366TIP3   OH228061   2.337   1.255   0.962  0.2443 -0.1812 -0.2606
 9366TIP3    H128062   2.415   1.200   0.967  0.3786  0.0439  0.2846
 9366TIP3    H228063   2.264   1.194   0.955  0.3450 -0.4614  0.9548
 9367TIP3   OH228064   3.569   0.560   0.553  0.0705 -0.1693 -0.1689
 9367TIP3    H128065   3.589   0.467   0.563 -0.0984 -0.0784  1.2700
 9367TIP3    H228066   3.600   0.582   0.465 -0.5412 -1.7354 -0.8137
 9368TIP3   OH228067   5.828   6.535   3.717 -0.3649  0.4768 -0.2703
 9368TIP3    H128068   5.843   6.455   3.767 -1.4924 -0.5368 -1.4757
 9368TIP3    H228069   5.874   6.520   3.634 -0.8051  0.9622 -0.6079
 9369TIP3   OH228070   1.861   4.150   3.795  0.4286 -0.3833 -0.1214
 9369TIP3    H128071   1.901   4.192   3.871  1.1975 -1.6875  0.2363
 9369TIP3    H228072   1.934   4.128   3.738 -0.1802  0.8967 -1.4369
 9370TIP3   OH228073   3.276   0.179   5.427  0.0457  0.1088 -0.0895
 9370TIP3    H128074   3.213   0.172   5.355 -0.7248 -0.4466  0.6121
 9370TIP3    H228075   3.235   0.130   5.498  0.4628  1.2532  0.9558
 9371TIP3   OH228076   5.215   5.300   2.869  0.5111  0.4414 -0.1946
 9371TIP3    H128077   5.266   5.223   2.842  0.5848  0.6787 -0.7497
 9371TIP3    H228078   5.212   5.294   2.964 -0.7237 -1.0579 -0.2913
 9372TIP3   OH228079   5.752   0.615   2.355 -0.0079 -0.1834 -0.0424
 9372TIP3    H128080   5.676   0.585   2.305  0.0362 -2.4916  1.1009
 9372TIP3    H228081   5.827   0.596   2.299 -0.1727  1.2167 -0.7828
 9373TIP3   OH228082   7.215   1.887   5.507  0.3584 -0.4197 -0.1698
 9373TIP3    H128083   7.162   1.816   5.544 -1.0640  0.9555  0.5667
 9373TIP3    H228084   7.174   1.908   5.424 -0.5250  0.8600  0.5435
 9374TIP3   OH228085   2.215   6.083   5.218  0.3944  0.3207  0.2961
 9374TIP3    H128086   2.196   5.989   5.212 -2.9874  0.3361  5.0201
 9374TIP3    H228087   2.148   6.124   5.162  0.1052 -0.0581  0.3583
 9375TIP3   OH228088   4.533   5.764   3.656  0.6248  0.0386  0.6384
 9375TIP3    H128089   4.609   5.724   3.613 -0.1444 -1.3757  0.5356
 9375TIP3    H228090   4.554   5.857   3.658  1.2118  0.0297 -1.7743
 9376TIP3   OH228091   4.421   0.388   4.869 -0.3922  0.2836  0.2078
 9376TIP3    H128092   4.440   0.475   4.904 -5.0170  0.8572  1.9786
 9376TIP3    H228093   4.440   0.328   4.941  2.0534 -0.2390 -0.7615
 9377TIP3   OH228094   5.034   1.041   0.336  0.4141 -1.0351  0.2424
 9377TIP3    H128095   5.058   0.988   0.260  0.5605 -3.0090  1.5878
 9377TIP3    H228096   5.117   1.078   0.367  0.3027  0.1029 -0.7376
 9378TIP3   OH228097   5.599   3.862   4.684 -0.5031  0.1275  0.0180
 9378TIP3    H128098   5.682   3.902   4.710 -1.0530  0.7624  0.8616
 9378TIP3    H228099   5.617   3.768   4.685  0.5550  0.2944 -1.1228
 9379TIP3   OH228100   2.200   3.511   0.405 -0.1555 -0.6858  0.2432
 9379TIP3    H128101   2.148   3.430   0.403 -0.1567 -0.6704 -0.6836
 9379TIP3    H228102   2.262   3.501   0.333 -0.6774  0.4820 -0.3893
 9380TIP3   OH228103   7.143   6.095   0.955 -0.8942  0.3057  0.2673
 9380TIP3    H128104   7.178   6.021   1.005 -0.6573  1.0474  1.2169
 9380TIP3    H228105   7.109   6.155   1.021 -0.7073  1.2447 -0.4661
 9381TIP3   OH228106   0.408   3.354   3.104 -0.0600 -0.0580 -0.1724
 9381TIP3    H128107   0.337   3.329   3.163  0.3806  0.5487  0.6302
 9381TIP3    H228108   0.366   3.408   3.037 -0.5589 -0.7275 -0.4101
 9382TIP3   OH228109   0.871   2.798   3.944  0.9807  0.1002  0.0537
 9382TIP3    H128110   0.893   2.877   3.895 -1.7086 -0.0496 -1.5700
 9382TIP3    H228111   0.876   2.728   3.880  0.7210 -0.6485  0.8433
 9383TIP3   OH228112   5.246   2.998   3.605 -0.1998 -0.1500 -0.2104
 9383TIP3    H128113   5.198   3.081   3.600 -0.2441 -0.2121 -0.8005
 9383TIP3    H228114   5.307   3.011   3.678 -0.9589  0.0048  0.4119
 9384TIP3   OH228115   6.408   0.856   5.011 -0.1540  0.0841  0.0589
 9384TIP3    H128116   6.445   0.923   5.069 -1.4396  0.6012  0.3238
 9384TIP3    H228117   6.391   0.781   5.068 -0.7725  0.3464  0.2360
 9385TIP3   OH228118   4.847   4.199   0.395 -0.4826  0.3497  0.2981
 9385TIP3    H128119   4.815   4.283   0.364  0.8731  0.0553 -2.1787
 9385TIP3    H228120   4.933   4.218   0.432 -0.2592  0.1036 -0.0832
 9386TIP3   OH228121   5.279   5.703   4.789 -0.1426 -0.9655 -0.4503
 9386TIP3    H128122   5.228   5.775   4.827  0.2162  0.0772 -1.8311
 9386TIP3    H228123   5.281   5.636   4.857  1.8598  1.4194  2.0692
 9387TIP3   OH228124   6.947   5.332   3.859  0.2618  0.3738  0.6491
 9387TIP3    H128125   6.998   5.401   3.902  1.2205  1.4879 -2.0306
 9387TIP3    H228126   6.859   5.369   3.852 -0.0379 -0.0349  2.0447
 9388TIP3   OH228127   2.627   0.795   3.794  0.1856  0.4844 -0.9426
 9388TIP3    H128128   2.558   0.769   3.855  0.6446  0.3289 -0.4783
 9388TIP3    H228129   2.594   0.874   3.753 -0.5599  0.0332 -1.2283
 9389TIP3   OH228130   4.588   2.236   4.767  0.0721  0.4602 -0.6533
 9389TIP3    H128131   4.666   2.187   4.744  0.3336  1.7236 -2.6265
 9389TIP3    H228132   4.593   2.245   4.863  1.0551 -1.5197 -0.4715
 9390TIP3   OH228133   2.972   4.994   0.580 -0.0730 -0.3115  0.3854
 9390TIP3    H128134   2.978   4.946   0.663  0.1221 -1.2689 -0.1681
 9390TIP3    H228135   2.883   5.029   0.579 -1.1733 -2.9224 -0.3887
 9391TIP3   OH228136   7.108   3.826   5.125  0.1544 -0.2956 -0.7044
 9391TIP3    H128137   7.175   3.866   5.070  1.5528 -0.7191  0.6282
 9391TIP3    H228138   7.043   3.895   5.137  0.3083  0.1105 -2.0467
 9392TIP3   OH228139   5.624   5.540   1.839 -0.1615  0.2435 -0.1542
 9392TIP3    H128140   5.660   5.454   1.857  0.2274  0.6052  0.8681
 9392TIP3    H228141   5.700   5.595   1.819 -0.3593  0.4803 -0.2712
 9393TIP3   OH228142   7.092   4.003   2.817 -0.5922 -0.1187  0.3848
 9393TIP3    H128143   7.081   4.066   2.745  2.2525 -1.3484 -1.3352
 9393TIP3    H228144   7.043   3.926   2.789 -0.0132 -0.3698  0.0398
 9394TIP3   OH228145   3.274   2.932   4.813  0.0490  0.4380  0.6058
 9394TIP3    H128146   3.320   3.016   4.822 -0.4105  0.7765 -0.1196
 9394TIP3    H228147   3.328   2.881   4.754 -1.6890  1.7753 -2.3652
 9395TIP3   OH228148   7.054   3.173   1.797 -0.0966  0.1114 -0.1580
 9395TIP3    H128149   6.985   3.151   1.859 -0.3925 -1.4626 -0.9962
 9395TIP3    H228150   7.079   3.089   1.757  2.3158  0.6099  0.1251
 9396TIP3   OH228151   4.033   4.378   3.062  0.2303 -0.4281  0.0332
 9396TIP3    H128152   3.964   4.320   3.029  0.7528 -2.0966  1.7273
 9396TIP3    H228153   4.023   4.459   3.011 -2.9656 -0.6009  0.2170
 9397TIP3   OH228154   0.414   3.610   2.741 -0.1535 -0.0971  0.8627
 9397TIP3    H128155   0.480   3.542   2.747  1.4029  1.4372  2.7934
 9397TIP3    H228156   0.398   3.636   2.832 -1.2696  1.5651  0.2486
 9398TIP3   OH228157   4.337   2.724   4.428  0.3121  0.3602  0.1626
 9398TIP3    H128158   4.338   2.752   4.520  1.6897  2.0515 -0.3370
 9398TIP3    H228159   4.309   2.632   4.432  1.5448  0.0171  2.3858
 9399TIP3   OH228160   6.983   3.661   1.156 -0.9346  0.3686 -0.4154
 9399TIP3    H128161   6.970   3.577   1.201  0.2482  0.3791 -0.0032
 9399TIP3    H228162   6.934   3.724   1.208 -3.5255 -0.3276 -1.8533
 9400TIP3   OH228163   0.704   4.146   4.396  0.4557  0.1998  0.5186
 9400TIP3    H128164   0.709   4.069   4.453  1.2804  0.3428  0.6575
 9400TIP3    H228165   0.770   4.130   4.328  1.6710  1.3942  1.3418
 9401TIP3   OH228166   0.697   2.831   2.569  0.4422  0.2985  0.0621
 9401TIP3    H128167   0.720   2.814   2.478  0.5507  0.9892 -0.0505
 9401TIP3    H228168   0.775   2.808   2.619 -0.4172 -2.4899  0.2838
 9402TIP3   OH228169   4.362   0.927   3.802 -0.4713 -0.2986  0.3291
 9402TIP3    H128170   4.359   0.837   3.769 -1.9699 -0.1012 -0.1792
 9402TIP3    H228171   4.282   0.936   3.854  0.2855  0.3818  1.4077
 9403TIP3   OH228172   1.168   4.312   3.680 -0.1003 -0.1580  0.0821
 9403TIP3    H128173   1.101   4.358   3.629 -0.9334 -0.1063  1.1701
 9403TIP3    H228174   1.220   4.381   3.720 -0.4457 -0.1682  0.5592
 9404TIP3   OH228175   3.787   4.694   3.960 -0.2943  0.5139  0.6241
 9404TIP3    H128176   3.721   4.635   3.924 -0.4108  1.2994 -0.5141
 9404TIP3    H228177   3.869   4.645   3.953 -0.4403  0.3378  0.0097
 9405TIP3   OH228178   1.835   5.904   0.121  0.8978  0.0097  0.1410
 9405TIP3    H128179   1.883   5.960   0.182  1.0895 -0.9390  0.9001
 9405TIP3    H228180   1.746   5.938   0.122  0.9655  0.1927  0.7451
 9406TIP3   OH228181   0.623   5.298   4.541 -0.2940 -0.1726 -0.1311
 9406TIP3    H128182   0.614   5.364   4.609 -1.1720 -0.7910  0.3666
 9406TIP3    H228183   0.614   5.346   4.459 -1.4024  0.2639  0.2368
 9407TIP3   OH228184   7.064   5.301   2.561  0.3179  0.6081 -0.3648
 9407TIP3    H128185   7.028   5.213   2.568  0.1350  0.4786 -2.3527
 9407TIP3    H228186   7.154   5.288   2.531  0.6526  1.0750  0.4085
 9408TIP3   OH228187   0.633   5.350   1.584 -0.0920 -0.1218 -0.3318
 9408TIP3    H128188   0.644   5.300   1.665 -0.5680 -0.1864 -0.3038
 9408TIP3    H228189   0.699   5.419   1.589 -1.7767  1.4789  1.3494
 9409TIP3   OH228190   2.920   0.160   3.316  0.2370 -0.2321 -0.3283
 9409TIP3    H128191   2.935   0.066   3.321  0.9614 -0.2975 -2.7248
 9409TIP3    H228192   3.000   0.196   3.278 -0.5294  1.1739 -0.7011
 9410TIP3   OH228193   0.944   4.074   4.944 -0.3208 -0.2237  0.4957
 9410TIP3    H128194   0.896   4.028   5.012 -0.9192  0.6135  0.6570
 9410TIP3    H228195   0.979   4.152   4.988  1.2714 -0.8461  0.4109
 9411TIP3   OH228196   6.979   4.335   1.897  0.3634 -0.8090 -0.5350
 9411TIP3    H128197   6.910   4.350   1.961  0.1393 -1.6027 -0.5764
 9411TIP3    H228198   6.956   4.252   1.856  0.9044 -0.6787 -1.1259
 9412TIP3   OH228199   2.363   5.388   0.224 -0.3545 -0.3354 -0.2181
 9412TIP3    H128200   2.349   5.369   0.316 -0.1614 -0.4381 -0.2099
 9412TIP3    H228201   2.444   5.341   0.201  1.4085  2.1913  0.3667
 9413TIP3   OH228202   6.074   3.910   1.178 -0.0181  0.0089  0.2184
 9413TIP3    H128203   6.016   3.935   1.106  0.7009  1.1363  0.0089
 9413TIP3    H228204   6.076   3.987   1.235  1.7448  0.2325 -0.1058
 9414TIP3   OH228205   6.491   1.503   5.288  0.2276 -0.1126 -0.1146
 9414TIP3    H128206   6.405   1.469   5.312 -0.4888  0.7875 -1.2958
 9414TIP3    H228207   6.515   1.560   5.361 -0.4491  0.1085 -0.0596
 9415TIP3   OH228208   6.244   4.586   5.234  0.1211  0.0387 -0.0245
 9415TIP3    H128209   6.326   4.636   5.227  0.9378 -1.3318 -0.6181
 9415TIP3    H228210   6.210   4.583   5.145 -0.0975 -0.1926  0.0667
 9416TIP3   OH228211   5.417   5.271   3.177  0.4062  0.4700  0.1367
 9416TIP3    H128212   5.456   5.198   3.225 -2.3305 -1.7554 -0.7041
 9416TIP3    H228213   5.456   5.265   3.090  1.1978  0.8948  0.4572
 9417TIP3   OH228214   3.361   4.629   0.912  0.1383 -0.1572  0.2456
 9417TIP3    H128215   3.349   4.716   0.949 -0.2161 -0.2447  0.3416
 9417TIP3    H228216   3.333   4.570   0.982  1.5461 -0.3939  0.6490
 9418TIP3   OH228217   3.173   0.274   2.910 -0.2326 -0.5623  0.2802
 9418TIP3    H128218   3.128   0.328   2.975 -1.9309 -1.1772 -0.3370
 9418TIP3    H228219   3.265   0.298   2.919 -0.8080  1.7295  0.6832
 9419TIP3   OH228220   6.004   2.025   2.605 -0.4031  0.4314 -0.3281
 9419TIP3    H128221   5.949   1.953   2.575  0.7726 -0.2857 -0.8404
 9419TIP3    H228222   6.041   2.061   2.524  0.8331  0.1010  0.0758
 9420TIP3   OH228223   4.713   3.695   3.341 -0.1997 -0.0715  0.1325
 9420TIP3    H128224   4.767   3.760   3.297  1.0745 -2.0728 -1.4757
 9420TIP3    H228225   4.729   3.614   3.292 -1.5332 -1.6511  2.1472
 9421TIP3   OH228226   6.228   6.416   3.680 -0.5804  0.2725  0.0450
 9421TIP3    H128227   6.297   6.353   3.701 -1.7820 -0.9540  0.4288
 9421TIP3    H228228   6.251   6.494   3.732  0.9536  0.2026 -0.4861
 9422TIP3   OH228229   3.965   4.429   0.733  0.1640 -0.0428 -0.2814
 9422TIP3    H128230   3.989   4.480   0.810  1.1293 -1.3422  0.3302
 9422TIP3    H228231   3.903   4.364   0.766  1.4572 -1.3405 -0.3212
 9423TIP3   OH228232   0.059  -0.003   5.077 -0.2215 -0.2012  0.4570
 9423TIP3    H128233   0.107   0.055   5.017 -0.0399  1.2697  1.9219
 9423TIP3    H228234  -0.015   0.050   5.106 -0.5809 -1.0596  1.1323
 9424TIP3   OH228235   1.279   5.377   1.186  0.3080  0.3122 -0.2852
 9424TIP3    H128236   1.190   5.394   1.155 -0.0367  1.0980  1.0525
 9424TIP3    H228237   1.294   5.285   1.167 -0.8687  0.1205 -0.3502
 9425TIP3   OH228238   1.118   1.750   1.971 -0.1260  0.4468 -0.2491
 9425TIP3    H128239   1.023   1.745   1.978  0.0017 -0.4872  1.2550
 9425TIP3    H228240   1.141   1.687   1.904 -0.5210  0.1034 -0.0675
 9426TIP3   OH228241   2.785   4.477   5.468 -0.3460 -0.1877  0.0215
 9426TIP3    H128242   2.799   4.386   5.439 -2.8639 -0.7750  0.4164
 9426TIP3    H228243   2.834   4.484   5.550 -1.5664 -1.8172  0.9513
 9427TIP3   OH228244   4.393   2.943   1.612 -0.2122 -0.5042 -0.2737
 9427TIP3    H128245   4.318   3.002   1.608 -0.4847 -0.9167 -2.0089
 9427TIP3    H228246   4.443   2.974   1.687 -1.4216  0.6161  0.1198
 9428TIP3   OH228247   1.035   1.188   5.840 -0.6253 -0.4716  0.3637
 9428TIP3    H128248   1.105   1.246   5.811 -1.5548  1.1174  1.1738
 9428TIP3    H228249   1.080   1.111   5.875  0.6872  0.3237  0.4570
 9429TIP3   OH228250   6.506   3.632   2.613  0.9968  0.6455  0.2391
 9429TIP3    H128251   6.504   3.708   2.672  2.1557  0.0671  1.0810
 9429TIP3    H228252   6.594   3.596   2.625  0.3024 -1.1305  0.2601
 9430TIP3   OH228253   5.696   2.353   2.741 -0.1557 -0.8883 -0.0533
 9430TIP3    H128254   5.622   2.394   2.695  0.8624 -2.1018 -3.0377
 9430TIP3    H228255   5.658   2.273   2.779 -0.7571 -0.5276  0.1257
 9431TIP3   OH228256   0.882   4.619   3.381 -0.6035 -0.1721  1.0098
 9431TIP3    H128257   0.811   4.662   3.430 -2.0349 -0.1877 -0.9055
 9431TIP3    H228258   0.846   4.609   3.292  0.6438 -3.0571  0.7453
 9432TIP3   OH228259   6.377   1.083   1.823 -0.3468  0.2361  0.1853
 9432TIP3    H128260   6.458   1.044   1.791 -1.1060 -1.1381 -0.1461
 9432TIP3    H228261   6.391   1.094   1.916  0.0032 -0.6045  0.2441
 9433TIP3   OH228262   1.078   2.816   5.794 -0.5323 -0.1750  0.3739
 9433TIP3    H128263   0.987   2.786   5.783  0.1251 -2.9484  1.6128
 9433TIP3    H228264   1.127   2.736   5.812  1.9950  1.3908  0.8582
 9434TIP3   OH228265   4.194   6.402   4.473 -0.3418 -0.9389  0.2870
 9434TIP3    H128266   4.241   6.329   4.512  0.2095 -0.2584  0.9112
 9434TIP3    H228267   4.227   6.480   4.517  2.3554  0.2349 -3.3202
 9435TIP3   OH228268   0.650   4.300   0.294 -0.2436  0.3715 -0.3834
 9435TIP3    H128269   0.741   4.285   0.322  0.4023  0.9474 -2.0147
 9435TIP3    H228270   0.630   4.224   0.239 -0.9393  0.0066  0.3588
 9436TIP3   OH228271   5.026   2.629   4.297  0.2678 -0.1827  0.6599
 9436TIP3    H128272   4.949   2.670   4.257  0.1444  0.1144  1.1913
 9436TIP3    H228273   5.054   2.564   4.233 -0.8649 -0.8204  0.7912
 9437TIP3   OH228274   4.172   3.450   1.307 -0.5779 -0.1069  0.2513
 9437TIP3    H128275   4.170   3.450   1.403  2.0992  1.0632  0.4022
 9437TIP3    H228276   4.157   3.359   1.283  1.3697 -0.9791  1.9606
 9438TIP3   OH228277   0.430   3.112   4.903 -0.3626 -0.0870 -0.2345
 9438TIP3    H128278   0.519   3.143   4.919 -0.3903 -0.2289  0.2098
 9438TIP3    H228279   0.383   3.132   4.984 -0.4578 -1.0057 -0.0553
 9439TIP3   OH228280   2.555   1.411   3.240  0.0808  0.1078 -0.3287
 9439TIP3    H128281   2.532   1.451   3.324 -1.2198 -0.4195 -0.4088
 9439TIP3    H228282   2.650   1.419   3.236  0.7961 -3.3752  3.0889
 9440TIP3   OH228283   5.898   2.373   2.121 -0.0620 -0.2850 -0.2982
 9440TIP3    H128284   5.984   2.397   2.155 -0.3927 -0.3562  0.6080
 9440TIP3    H228285   5.837   2.398   2.190 -0.8752  0.6247 -1.3085
 9441TIP3   OH228286   5.342   4.850   0.219  0.5230 -0.3202  0.0470
 9441TIP3    H128287   5.328   4.860   0.313  1.9661  0.2731  0.2420
 9441TIP3    H228288   5.374   4.761   0.208 -1.7285 -1.1603 -0.2106
 9442TIP3   OH228289   4.343   2.437   3.633  0.2297  0.1075 -0.3546
 9442TIP3    H128290   4.317   2.462   3.721  1.4230  0.3477 -0.0591
 9442TIP3    H228291   4.297   2.499   3.576 -1.2459 -0.6009  0.0130
 9443TIP3   OH228292   6.787   5.978   1.043 -0.3688 -0.1583  0.0114
 9443TIP3    H128293   6.770   5.916   0.972  0.8238 -0.9372  0.3757
 9443TIP3    H228294   6.868   5.946   1.083  0.0575  1.4168  0.4629
 9444TIP3   OH228295   5.205   3.092   2.141 -0.0426 -0.0337  0.5864
 9444TIP3    H128296   5.256   3.172   2.151 -1.5384  0.8199  1.7845
 9444TIP3    H228297   5.263   3.033   2.093  1.2986  1.5662  0.1300
 9445TIP3   OH228298   4.579   6.294   1.899 -0.2280  0.3060  0.5482
 9445TIP3    H128299   4.674   6.305   1.905 -0.2525  0.1895  1.2382
 9445TIP3    H228300   4.544   6.346   1.971 -0.5545 -1.2494  1.5718
 9446TIP3   OH228301   4.503   0.900   3.462 -0.2711  0.2522  0.2682
 9446TIP3    H128302   4.449   0.933   3.390  1.3613 -0.5291 -1.4239
 9446TIP3    H228303   4.486   0.805   3.463  1.4177 -0.1110 -0.7152
 9447TIP3   OH228304   3.422   3.900   4.952  0.5551  0.1320 -0.1141
 9447TIP3    H128305   3.514   3.909   4.980  0.1734  1.1907  0.8614
 9447TIP3    H228306   3.385   3.836   5.014  0.8331 -0.9671 -1.0510
 9448TIP3   OH228307   3.632   6.739   3.917 -0.3514 -0.7371  0.0557
 9448TIP3    H128308   3.724   6.760   3.933 -0.2242  0.0088 -1.5043
 9448TIP3    H228309   3.617   6.659   3.969  1.3953 -1.3563 -0.3143
 9449TIP3   OH228310   3.223   2.375   5.429  0.8840  0.3804  0.8875
 9449TIP3    H128311   3.130   2.367   5.408  0.2871 -1.6392  3.7829
 9449TIP3    H228312   3.242   2.468   5.417 -0.7148  0.4503 -2.4094
 9450TIP3   OH228313   2.908   3.734   1.070  0.7092  0.1756 -0.3262
 9450TIP3    H128314   2.831   3.687   1.039  0.8837 -0.1890 -0.2059
 9450TIP3    H228315   2.874   3.796   1.135  0.1650  1.7642 -2.0222
 9451TIP3   OH228316   0.415   1.914   2.707  0.1705  0.6498  0.1084
 9451TIP3    H128317   0.354   1.977   2.747 -1.4910 -0.4117 -0.6110
 9451TIP3    H228318   0.358   1.844   2.674  1.7049  0.1149 -1.5825
 9452TIP3   OH228319   6.616   0.363   0.357  0.0021  0.2864 -0.0156
 9452TIP3    H128320   6.609   0.268   0.366 -1.1681  0.4047  0.5600
 9452TIP3    H228321   6.708   0.382   0.375  0.5995 -0.8670 -1.6495
 9453TIP3   OH228322   4.920   0.919   2.382 -0.1569  0.2665  0.3972
 9453TIP3    H128323   4.882   0.970   2.311 -1.5192 -2.1088 -0.6841
 9453TIP3    H228324   4.859   0.930   2.455 -0.0566  0.7368  0.4146
 9454TIP3   OH228325   0.736   0.503   2.309  0.1580  0.1239 -0.4651
 9454TIP3    H128326   0.709   0.578   2.361 -0.0193  0.5552 -1.1611
 9454TIP3    H228327   0.673   0.500   2.237  1.0315  0.2010 -1.2477
 9455TIP3   OH228328   3.052   5.504   1.355 -0.2656  0.0290 -0.0867
 9455TIP3    H128329   3.146   5.500   1.340 -0.2158 -1.5639  0.4448
 9455TIP3    H228330   3.013   5.488   1.269 -0.1329  3.2766 -0.8649
 9456TIP3   OH228331   2.215   2.324   4.836  0.0615  0.7931 -0.6456
 9456TIP3    H128332   2.173   2.309   4.921 -0.3596  3.4778 -0.3042
 9456TIP3    H228333   2.145   2.317   4.772  0.0518  0.4441 -0.5978
 9457TIP3   OH228334   3.578   0.950   4.995 -0.3842  0.1919 -0.5971
 9457TIP3    H128335   3.519   0.876   4.978  0.4227 -0.8514  0.9232
 9457TIP3    H228336   3.620   0.966   4.911 -1.8621  0.1173 -1.3980
 9458TIP3   OH228337   3.602   2.878   3.946  0.8017  0.0599  0.1798
 9458TIP3    H128338   3.612   2.783   3.954  1.8816  0.3116  3.7734
 9458TIP3    H228339   3.513   2.896   3.976  1.3964  0.2805  1.9376
 9459TIP3   OH228340   6.702   6.307   4.702  0.2823 -0.3492  0.2676
 9459TIP3    H128341   6.662   6.350   4.777  0.8953  0.0129  0.3914
 9459TIP3    H228342   6.796   6.317   4.716  0.4009  0.1028 -0.7654
 9460TIP3   OH228343   3.516   3.869   4.571 -0.7579 -0.7253  0.0062
 9460TIP3    H128344   3.492   3.926   4.499 -2.2628  0.6552  1.5275
 9460TIP3    H228345   3.603   3.899   4.597 -1.2396  0.4313  0.3313
 9461TIP3   OH228346   6.265   1.510   3.192 -0.7952 -0.4537 -0.6921
 9461TIP3    H128347   6.272   1.499   3.098  1.7852 -1.2045 -0.4903
 9461TIP3    H228348   6.296   1.427   3.229  1.2257  0.8426  0.7667
 9462TIP3   OH228349   6.654   2.104   2.117  0.2847  0.0583  0.5354
 9462TIP3    H128350   6.638   2.196   2.098  0.6930 -0.4077 -2.6510
 9462TIP3    H228351   6.745   2.089   2.091  0.3526 -1.1711  1.3960
 9463TIP3   OH228352   5.726   6.532   1.874  0.1235  0.0426 -0.1247
 9463TIP3    H128353   5.650   6.479   1.901 -0.0990  0.8915  1.0198
 9463TIP3    H228354   5.724   6.530   1.779 -0.6262 -0.9624 -0.1013
 9464TIP3   OH228355   2.598   4.794   1.113 -0.2593 -0.7416 -1.0032
 9464TIP3    H128356   2.604   4.888   1.100 -1.2562 -0.5981 -0.5401
 9464TIP3    H228357   2.557   4.761   1.033  1.7115 -1.0443 -1.9459
 9465TIP3   OH228358   4.237   4.734   4.437 -0.2772  0.0514  0.7426
 9465TIP3    H128359   4.250   4.647   4.400  1.3346  1.2013 -1.6018
 9465TIP3    H228360   4.287   4.733   4.519 -2.8488 -2.1235  2.4481
 9466TIP3   OH228361   7.154   2.898   3.649 -0.1319  0.2312 -0.5451
 9466TIP3    H128362   7.061   2.874   3.653 -0.2086  0.6034 -0.0442
 9466TIP3    H228363   7.170   2.946   3.731  0.0285  1.8806 -1.5015
 9467TIP3   OH228364   6.569   3.965   2.940  0.0381 -0.3935  0.5520
 9467TIP3    H128365   6.597   3.941   3.028  0.4103  0.6831  0.7463
 9467TIP3    H228366   6.638   3.931   2.882  0.5689  0.1964  0.8216
 9468TIP3   OH228367   2.920   5.912   0.291 -0.2088  0.4093  1.0458
 9468TIP3    H128368   2.998   5.959   0.321 -1.1310  1.7793  1.4105
 9468TIP3    H228369   2.954   5.839   0.239  1.3148  0.7416  1.5298
 9469TIP3   OH228370   5.717   4.083   5.384  0.3268 -0.4017 -0.2440
 9469TIP3    H128371   5.771   4.007   5.361  0.6780  0.0766 -1.0603
 9469TIP3    H228372   5.640   4.045   5.425  0.2167 -1.2593 -1.1774
 9470TIP3   OH228373   4.334   2.817   2.802  0.0265 -0.2920  0.7127
 9470TIP3    H128374   4.396   2.890   2.806  0.4701 -0.6103 -0.1252
 9470TIP3    H228375   4.308   2.812   2.710 -1.2363 -0.1896  1.0434
 9471TIP3   OH228376   4.280   4.794   5.239  0.1357 -0.5366  0.6452
 9471TIP3    H128377   4.344   4.785   5.169 -0.0314 -0.7645  0.5174
 9471TIP3    H228378   4.209   4.845   5.200  1.1484  1.5574  1.4189
 9472TIP3   OH228379   6.907   5.677   3.011 -0.3827  0.1538 -0.1422
 9472TIP3    H128380   6.930   5.636   3.094  0.5078  0.5428 -0.1906
 9472TIP3    H228381   6.874   5.764   3.035 -1.4513 -0.2404 -0.1059
 9473TIP3   OH228382   0.476   0.587   2.497 -0.0245 -0.2389 -1.1481
 9473TIP3    H128383   0.410   0.526   2.462 -0.2431 -0.8839  0.3270
 9473TIP3    H228384   0.426   0.657   2.538  0.1107 -1.3879  1.1371
 9474TIP3   OH228385   6.830   6.021   0.133 -0.1998 -0.1447 -0.6730
 9474TIP3    H128386   6.759   5.957   0.125 -2.0182  1.5621  0.8440
 9474TIP3    H228387   6.834   6.064   0.048 -0.2136 -0.9723 -1.1104
 9475TIP3   OH228388   0.604   3.647   0.787 -0.8243  0.0890 -0.1993
 9475TIP3    H128389   0.648   3.594   0.854 -1.2549 -1.1555 -0.8549
 9475TIP3    H228390   0.641   3.734   0.797  0.0465 -0.3716  0.8224
 9476TIP3   OH228391   1.685   3.707   4.926  0.5484 -0.0833  0.5950
 9476TIP3    H128392   1.695   3.791   4.972 -0.4877  0.5633 -0.2894
 9476TIP3    H228393   1.597   3.677   4.951  1.4394 -1.6659  2.0427
 9477TIP3   OH228394   0.088   4.378   2.646 -0.0522  0.3684  0.2436
 9477TIP3    H128395   0.110   4.408   2.558 -0.2629 -0.8174 -0.2343
 9477TIP3    H228396   0.030   4.446   2.681  1.2674  1.6166  0.0801
 9478TIP3   OH228397   2.170   5.302   2.896 -0.5210  0.1827  0.2088
 9478TIP3    H128398   2.143   5.386   2.933 -1.9714 -0.6017  0.9852
 9478TIP3    H228399   2.197   5.250   2.971  0.3833 -0.0745 -0.2705
 9479TIP3   OH228400   4.482   2.005   3.857 -0.3033 -0.5181  0.1837
 9479TIP3    H128401   4.476   2.079   3.797 -1.3422 -1.7691 -1.3290
 9479TIP3    H228402   4.456   2.041   3.942 -0.1506  0.9845 -0.3720
 9480TIP3   OH228403   3.205   5.573   3.974  0.6705 -0.2563  0.4332
 9480TIP3    H128404   3.181   5.658   4.013 -0.6091  0.0368 -0.8919
 9480TIP3    H228405   3.300   5.576   3.969  0.6857  0.8869  0.9116
 9481TIP3   OH228406   0.056   2.975   1.976 -0.0100 -0.4087 -0.0574
 9481TIP3    H128407   0.053   2.915   2.051 -0.8233 -0.8866 -0.4643
 9481TIP3    H228408   0.144   2.963   1.939 -0.6164 -2.4276 -0.9832
 9482TIP3   OH228409   5.665   3.530   2.553  0.4026 -0.1494 -0.7840
 9482TIP3    H128410   5.709   3.540   2.637  1.3922 -0.4439 -1.2473
 9482TIP3    H228411   5.641   3.620   2.527  0.2841 -0.0387 -0.2933
 9483TIP3   OH228412   2.930   5.695   4.599 -0.0081 -0.3793 -0.1283
 9483TIP3    H128413   3.017   5.713   4.635 -0.3334  0.9833  0.0394
 9483TIP3    H228414   2.890   5.782   4.589  0.0477 -0.5998 -3.7448
 9484TIP3   OH228415   5.690   1.803   2.629 -0.5661 -0.3156  0.3659
 9484TIP3    H128416   5.735   1.735   2.578 -0.4896  1.2658 -1.8379
 9484TIP3    H228417   5.736   1.804   2.713  1.9618 -0.4094 -0.9118
 9485TIP3   OH228418   0.133   6.211   0.346 -0.1467  0.0891 -0.0434
 9485TIP3    H128419   0.155   6.250   0.431  0.9925 -2.1719  0.7868
 9485TIP3    H228420   0.186   6.261   0.283  0.8768  0.2509  0.9060
 9486TIP3   OH228421   6.338   5.932   0.184 -1.0605 -0.4084  0.2477
 9486TIP3    H128422   6.265   5.929   0.123 -0.3261 -0.2781 -0.6622
 9486TIP3    H228423   6.301   5.964   0.266 -2.0324 -0.4471 -0.1720
 9487TIP3   OH228424   6.738   4.747   5.552 -0.3439 -0.3994  0.1029
 9487TIP3    H128425   6.645   4.759   5.529  0.1479  0.6541 -1.4726
 9487TIP3    H228426   6.754   4.812   5.621 -0.9971 -1.2364  1.0623
 9488TIP3   OH228427   2.775   0.267   4.100  0.3169  0.5327 -0.3917
 9488TIP3    H128428   2.716   0.194   4.077 -0.1760  0.4886  0.8976
 9488TIP3    H228429   2.745   0.339   4.045 -0.9561  0.5003  0.2114
 9489TIP3   OH228430   2.356   5.533   2.227  0.1798 -0.0076 -0.4860
 9489TIP3    H128431   2.424   5.581   2.276  1.1381 -2.1285  0.3698
 9489TIP3    H228432   2.380   5.544   2.136  1.1843 -0.0104 -0.2314
 9490TIP3   OH228433   1.278   6.722   0.966  0.2233 -0.5034 -0.9290
 9490TIP3    H128434   1.257   6.812   0.992 -0.1644 -1.0913  0.9274
 9490TIP3    H228435   1.194   6.675   0.972  0.6187 -1.2141 -0.8801
 9491TIP3   OH228436   1.783   6.743   0.057 -0.0215 -0.0674 -0.0021
 9491TIP3    H128437   1.743   6.663   0.092 -1.0715  0.9444  1.2411
 9491TIP3    H228438   1.761   6.742  -0.036 -0.6219 -0.8954  0.1355
 9492TIP3   OH228439   4.850   5.435   0.372 -0.1071 -0.4355 -0.2780
 9492TIP3    H128440   4.844   5.504   0.306  0.6296  0.1803  0.2791
 9492TIP3    H228441   4.791   5.463   0.441  1.9552  0.9151  1.0419
 9493TIP3   OH228442   4.445   0.147   2.729 -0.0448 -0.0896 -0.3514
 9493TIP3    H128443   4.395   0.199   2.793  0.6276  0.6054 -0.3866
 9493TIP3    H228444   4.509   0.207   2.693  0.0321 -0.6596 -1.2043
 9494TIP3   OH228445   6.635   4.866   0.346 -0.2647  0.2210  0.8103
 9494TIP3    H128446   6.719   4.912   0.355  0.9816 -1.4497 -1.3676
 9494TIP3    H228447   6.647   4.784   0.393 -0.9930  0.2962  1.1483
 9495TIP3   OH228448   5.345   2.580   4.915 -0.1684  0.5736 -0.1321
 9495TIP3    H128449   5.423   2.635   4.903  0.4972 -0.0789  1.0210
 9495TIP3    H228450   5.301   2.618   4.990  1.2058 -1.3979  1.7974
 9496TIP3   OH228451   1.918   2.073   1.891 -0.2294 -0.4477 -0.6399
 9496TIP3    H128452   1.911   2.003   1.957 -2.0150  0.9733  0.7866
 9496TIP3    H228453   1.837   2.124   1.902  0.7336  1.4837 -2.0355
 9497TIP3   OH228454   5.398   1.048   4.193  0.5715 -0.6429 -0.3406
 9497TIP3    H128455   5.474   1.091   4.231  0.5787 -0.5357 -0.4756
 9497TIP3    H228456   5.414   1.049   4.098  0.7331 -1.2495 -0.3225
 9498TIP3   OH228457   0.331   0.791   4.276 -0.1081  0.0474  0.4810
 9498TIP3    H128458   0.282   0.758   4.200  0.1389 -2.0048  1.1527
 9498TIP3    H228459   0.373   0.871   4.244 -0.4566 -0.4572 -1.3828
 9499TIP3   OH228460   5.429   6.046   1.663  0.1303  0.3882  0.1685
 9499TIP3    H128461   5.379   6.122   1.633 -0.5271  0.5800  1.6517
 9499TIP3    H228462   5.498   6.084   1.718  0.6558 -0.0157 -0.2049
 9500TIP3   OH228463   3.698   5.229   5.836 -0.0706 -0.5036  0.0636
 9500TIP3    H128464   3.693   5.227   5.932  1.9385  3.1223  0.4561
 9500TIP3    H228465   3.791   5.242   5.818 -0.6791  1.4161 -2.1956
 9501TIP3   OH228466   6.243   6.099   2.702 -0.5143  0.6264 -0.3279
 9501TIP3    H128467   6.314   6.055   2.657 -0.2908  0.0698  0.5396
 9501TIP3    H228468   6.204   6.155   2.636  0.3251  0.4603 -0.9829
 9502TIP3   OH228469   4.748   1.930   5.637 -0.0874 -0.4578 -0.3064
 9502TIP3    H128470   4.822   1.926   5.697 -1.1669  0.6787  1.1551
 9502TIP3    H228471   4.744   1.842   5.599  3.1901 -0.0554 -1.9796
 9503TIP3   OH228472   1.180   1.493   2.970  0.5896 -0.3365  0.2112
 9503TIP3    H128473   1.225   1.527   3.047  0.0212  0.0855  0.3630
 9503TIP3    H228474   1.092   1.532   2.974  0.8767  0.5429 -1.2184
 9504TIP3   OH228475   6.193   0.671   4.317 -0.4237  0.7518  0.0131
 9504TIP3    H128476   6.272   0.691   4.267 -0.1107  1.7209  0.8718
 9504TIP3    H228477   6.199   0.726   4.396 -1.6343  0.3640  0.4020
 9505TIP3   OH228478   6.479   6.285   2.475 -0.0454 -0.8210 -0.2792
 9505TIP3    H128479   6.533   6.308   2.399 -0.3754 -0.1398 -0.3153
 9505TIP3    H228480   6.535   6.229   2.528  0.1640 -1.3778 -1.0645
 9506TIP3   OH228481   5.716   1.180   5.415 -1.2043  0.5629  0.0453
 9506TIP3    H128482   5.631   1.223   5.406 -0.7495  1.2399 -1.3562
 9506TIP3    H228483   5.721   1.120   5.341 -0.5525  0.3649  0.2363
 9507TIP3   OH228484   3.112   1.816   3.251  0.5469  0.3191 -0.1276
 9507TIP3    H128485   3.046   1.884   3.262  2.4346  2.0854  1.2197
 9507TIP3    H228486   3.148   1.832   3.164 -0.3075 -0.2117 -0.5881
 9508TIP3   OH228487   1.159   1.261   2.828 -0.3068 -0.4545  0.0745
 9508TIP3    H128488   1.189   1.190   2.885 -0.3885  1.0642  2.1411
 9508TIP3    H228489   1.173   1.340   2.879 -1.5159  0.9156 -1.5850
 9509TIP3   OH228490   5.413   6.472   3.782  0.4763 -0.8133  0.0376
 9509TIP3    H128491   5.318   6.467   3.776  0.4249  0.5979 -0.8048
 9509TIP3    H228492   5.431   6.462   3.876 -0.7636  1.5973  0.6365
 9510TIP3   OH228493   1.514   1.164   3.489 -0.2684 -0.3221 -0.0552
 9510TIP3    H128494   1.447   1.231   3.506 -0.5870 -0.6263 -0.1032
 9510TIP3    H228495   1.591   1.196   3.534 -0.3938  0.1263 -0.1497
 9511TIP3   OH228496   1.950   1.056   0.407 -0.2075  0.6969 -0.2158
 9511TIP3    H128497   1.917   0.966   0.398 -0.4163  0.9142 -1.9558
 9511TIP3    H228498   1.938   1.076   0.500  0.9126 -1.4641  0.4864
 9512TIP3   OH228499   1.137   3.114   3.331  0.4996  0.1656 -0.2540
 9512TIP3    H128500   1.127   3.187   3.270 -1.1669  0.2495  0.0778
 9512TIP3    H228501   1.073   3.049   3.301 -0.1108  0.0738  1.1730
 9513TIP3   OH228502   3.093   6.024   3.197 -0.1299  0.4187  0.3259
 9513TIP3    H128503   3.012   5.989   3.235  0.9561 -2.2478  0.4111
 9513TIP3    H228504   3.162   5.973   3.239  1.5143  1.6844 -0.7492
 9514TIP3   OH228505   3.463   1.857   1.035 -0.3492 -0.5795  0.2499
 9514TIP3    H128506   3.555   1.832   1.023 -0.9422 -1.8355 -2.2004
 9514TIP3    H228507   3.462   1.952   1.021  0.6400 -0.4360  1.0038
 9515TIP3   OH228508   0.008   4.860   2.543  0.2636  0.2111  0.4096
 9515TIP3    H128509   0.086   4.803   2.541 -1.0154 -1.6123 -0.1768
 9515TIP3    H228510   0.024   4.919   2.617  1.2424 -1.5746  1.7192
 9516TIP3   OH228511   4.567   2.742   4.643 -0.5839 -0.4631 -0.6825
 9516TIP3    H128512   4.488   2.775   4.686  0.2320 -0.4920  0.9166
 9516TIP3    H228513   4.608   2.819   4.604 -0.9833 -0.3186 -0.8192
 9517TIP3   OH228514   1.118   0.826   1.593 -0.5906  0.4043  0.2175
 9517TIP3    H128515   1.024   0.845   1.589 -0.1051  3.1936 -0.0645
 9517TIP3    H228516   1.135   0.805   1.685 -1.3057  1.0556  0.5079
 9518TIP3   OH228517   5.677   1.262   0.915  0.4042  0.6399  0.0588
 9518TIP3    H128518   5.671   1.350   0.878  2.5846  1.7294  2.0719
 9518TIP3    H228519   5.601   1.216   0.880 -0.5831  3.1883 -1.3700
 9519TIP3   OH228520   3.007   3.705   3.411  0.0079 -0.1505  0.0453
 9519TIP3    H128521   3.093   3.669   3.390  1.0019  1.4367  1.1257
 9519TIP3    H228522   3.026   3.788   3.455 -2.1000  0.8588 -0.7844
 9520TIP3   OH228523   2.181   3.770   0.119 -0.3876  0.1109 -0.3696
 9520TIP3    H128524   2.210   3.759   0.209 -0.7068 -1.2124 -0.3960
 9520TIP3    H228525   2.248   3.824   0.078  0.7187 -0.7768  0.2098
 9521TIP3   OH228526   1.852   0.791   5.612 -0.0653  0.5080 -0.3819
 9521TIP3    H128527   1.929   0.748   5.649  0.5031  1.7589 -0.0491
 9521TIP3    H228528   1.778   0.737   5.640  0.7319 -1.2343 -1.4780
 9522TIP3   OH228529   3.879   0.402   0.987 -0.4344 -0.2255 -0.3691
 9522TIP3    H128530   3.884   0.360   0.902 -1.4452 -1.8470  0.3188
 9522TIP3    H228531   3.785   0.411   1.004 -0.2441  0.4289  0.4078
 9523TIP3   OH228532   3.511   6.164   2.267  0.0824  0.1675  0.1057
 9523TIP3    H128533   3.431   6.119   2.240 -1.3078  0.5050  3.2088
 9523TIP3    H228534   3.487   6.256   2.270  0.2409  0.1775  1.9596
 9524TIP3   OH228535   0.199   2.716   1.523  0.2674  0.2503  0.1468
 9524TIP3    H128536   0.242   2.761   1.596 -0.8452  2.1803 -0.3139
 9524TIP3    H228537   0.245   2.748   1.445  2.7893 -3.2736 -0.0857
 9525TIP3   OH228538   3.195   4.758   1.287 -0.3296  0.3737  0.1894
 9525TIP3    H128539   3.157   4.812   1.356 -0.6336 -0.8366  1.0011
 9525TIP3    H228540   3.119   4.724   1.239 -0.1206  1.2091 -0.7637
 9526TIP3   OH228541   1.671   0.589   5.646  0.0719  0.8044  0.1400
 9526TIP3    H128542   1.626   0.648   5.585  2.9540  2.0235 -0.9947
 9526TIP3    H228543   1.624   0.506   5.639  0.7886  0.5298 -4.6764
 9527TIP3   OH228544   3.677   3.150   4.449 -0.6300 -0.1157 -0.5874
 9527TIP3    H128545   3.753   3.097   4.427 -1.2166 -1.1097 -0.2598
 9527TIP3    H228546   3.602   3.094   4.431 -1.2362  0.2930  0.5814
 9528TIP3   OH228547   4.968  -0.023   0.605  0.2447  0.1007 -0.2892
 9528TIP3    H128548   4.996   0.066   0.585 -0.9148  0.0542 -2.4285
 9528TIP3    H228549   4.873  -0.018   0.610  0.2876 -0.5388  2.4429
 9529TIP3   OH228550   2.667   5.169   1.722  0.5560 -0.2309 -0.4593
 9529TIP3    H128551   2.648   5.160   1.629 -0.0981 -0.0915 -0.3450
 9529TIP3    H228552   2.597   5.120   1.766 -0.1869  1.2012  0.0070
 9530TIP3   OH228553   6.761   5.151   2.039  0.1152 -0.6391 -0.0392
 9530TIP3    H128554   6.759   5.100   2.120 -0.2369 -2.2026 -0.9890
 9530TIP3    H228555   6.682   5.126   1.992  0.1098  0.5392 -0.7114
 9531TIP3   OH228556   3.294   5.743   4.306 -0.1136 -0.4008 -0.1027
 9531TIP3    H128557   3.278   5.811   4.371 -0.4304 -0.1279 -0.4573
 9531TIP3    H228558   3.213   5.740   4.255  0.1015 -0.6662 -0.4312
 9532TIP3   OH228559   0.984   6.211   5.710  0.1703  0.8015 -0.9556
 9532TIP3    H128560   1.030   6.283   5.753  1.3794 -0.2934 -0.3314
 9532TIP3    H228561   1.035   6.194   5.631 -0.2959  0.8224 -1.2651
 9533TIP3   OH228562   4.557   6.495   3.626  0.3410 -0.0066  0.4832
 9533TIP3    H128563   4.514   6.579   3.640  0.8944  0.2976  0.3888
 9533TIP3    H228564   4.495   6.445   3.573 -1.3564 -0.7945  3.0241
 9534TIP3   OH228565   2.088   2.394   3.515  0.7688 -0.4366  0.0634
 9534TIP3    H128566   2.131   2.325   3.564  1.0099  0.9769  1.9841
 9534TIP3    H228567   2.028   2.435   3.579 -0.7343 -0.0418 -1.5109
 9535TIP3   OH228568   4.805   3.386   4.871  0.1889 -0.7618 -0.1792
 9535TIP3    H128569   4.871   3.367   4.804  0.0112 -1.5102 -0.1485
 9535TIP3    H228570   4.851   3.375   4.954  0.3195 -0.1625 -0.1646
 9536TIP3   OH228571   5.029   1.428   1.580  0.6939 -0.0431 -0.2029
 9536TIP3    H128572   5.057   1.341   1.610 -0.6941 -0.7089 -0.7181
 9536TIP3    H228573   5.106   1.483   1.590  0.9201 -0.7184  2.5139
 9537TIP3   OH228574   1.632   0.635   5.172 -0.0706  0.1314 -0.1088
 9537TIP3    H128575   1.566   0.697   5.203 -3.7215 -4.1685  1.8026
 9537TIP3    H228576   1.672   0.601   5.252  1.2694 -0.5950 -1.0467
 9538TIP3   OH228577   3.911   4.664   5.218 -0.2702 -0.1701 -0.7010
 9538TIP3    H128578   3.907   4.708   5.302 -0.0997  0.5366 -1.0555
 9538TIP3    H228579   3.978   4.713   5.169 -0.1488 -0.7627 -1.1347
 9539TIP3   OH228580   3.367   2.877   5.337  0.4228  0.0657  0.0269
 9539TIP3    H128581   3.348   2.854   5.246  1.9656 -0.0139 -0.3058
 9539TIP3    H228582   3.432   2.812   5.364  1.7404  1.5014  0.4230
 9540TIP3   OH228583   5.525   2.486   0.483  0.0663 -0.4777 -0.1033
 9540TIP3    H128584   5.500   2.564   0.433 -0.0414 -1.3881 -1.5367
 9540TIP3    H228585   5.523   2.415   0.419  1.1245 -1.5001  0.9498
 9541TIP3   OH228586   6.971   1.993   3.831 -0.0924  0.4276 -0.1603
 9541TIP3    H128587   6.920   1.965   3.755  0.7217 -1.7864  0.0336
 9541TIP3    H228588   7.059   2.011   3.796  1.0991 -3.2531  0.4670
 9542TIP3   OH228589   5.732   5.876   4.765 -0.3189 -0.9107  0.5312
 9542TIP3    H128590   5.658   5.833   4.722 -0.9609 -0.3262  1.0227
 9542TIP3    H228591   5.756   5.816   4.836 -0.5668 -0.9260  0.6022
 9543TIP3   OH228592   6.016   5.361   4.885 -0.0703 -0.5565 -0.1767
 9543TIP3    H128593   6.011   5.394   4.974 -0.5239 -0.1805 -0.3380
 9543TIP3    H228594   6.106   5.330   4.875  0.0954 -0.2187  0.2728
 9544TIP3   OH228595   6.761   0.086   2.945  0.3697 -0.1224  0.4484
 9544TIP3    H128596   6.782   0.051   2.858  0.9062 -0.2899  0.6452
 9544TIP3    H228597   6.812   0.167   2.951  0.4986 -0.2229  0.6955
 9545TIP3   OH228598   7.185   1.980   1.611 -0.4843 -0.1049 -0.0448
 9545TIP3    H128599   7.149   2.054   1.563 -1.8015  0.7801  2.1137
 9545TIP3    H228600   7.200   2.014   1.699  1.5502 -1.6938  0.3015
 9546TIP3   OH228601   1.860   5.622   1.626 -0.0284  0.2925  0.3726
 9546TIP3    H128602   1.896   5.553   1.683 -0.2232  0.8231  1.1639
 9546TIP3    H228603   1.813   5.680   1.687 -1.1036  0.3284 -0.4659
 9547TIP3   OH228604   2.361   0.095   1.720 -0.4519  0.2699  0.1278
 9547TIP3    H128605   2.311   0.028   1.673  1.3686 -2.0175  1.2353
 9547TIP3    H228606   2.401   0.148   1.651 -2.7410  0.9520 -0.7719
 9548TIP3   OH228607   4.605   1.695   4.746  0.2528  0.2754  0.2492
 9548TIP3    H128608   4.565   1.778   4.720 -1.3877 -0.1354  1.3413
 9548TIP3    H228609   4.568   1.676   4.832  0.1489 -1.8665 -0.2192
 9549TIP3   OH228610   4.463   3.293   5.319  0.0073 -0.8937  0.2870
 9549TIP3    H128611   4.495   3.340   5.242 -2.6912 -1.0867 -1.0665
 9549TIP3    H228612   4.474   3.356   5.391  1.1501 -0.1307 -0.5000
 9550TIP3   OH228613   3.056   2.104   3.861 -0.6833  0.1782 -0.0194
 9550TIP3    H128614   3.128   2.136   3.916 -0.7149  0.2746 -0.0331
 9550TIP3    H228615   3.073   2.010   3.852  0.0634  0.3824 -0.9442
 9551TIP3   OH228616   1.293   4.551   3.429  0.0353  0.6252 -0.0787
 9551TIP3    H128617   1.297   4.495   3.351 -1.0314 -0.7284  0.8117
 9551TIP3    H228618   1.373   4.531   3.477 -0.9714 -1.2249  0.9213
 9552TIP3   OH228619   0.127   0.899   5.441  0.0935  0.3809  0.1425
 9552TIP3    H128620   0.093   0.920   5.528  0.5730  0.8564  0.2180
 9552TIP3    H228621   0.065   0.938   5.380 -0.3488 -0.1177  0.2631
 9553TIP3   OH228622   4.266   4.991   3.465 -0.1061  0.0211  0.0094
 9553TIP3    H128623   4.199   4.935   3.426 -0.5363  0.9579 -0.6420
 9553TIP3    H228624   4.319   4.932   3.517  0.0229 -1.1622 -1.3853
 9554TIP3   OH228625   5.961   6.773   3.681  0.2091  0.0018 -0.2339
 9554TIP3    H128626   5.943   6.832   3.608  0.0233  1.7316  1.1452
 9554TIP3    H228627   5.888   6.711   3.681 -0.0120  0.2479 -1.2322
 9555TIP3   OH228628   7.126   3.222   3.641 -0.0814 -0.3303  0.2932
 9555TIP3    H128629   7.086   3.172   3.712  1.6349 -1.5868  0.4436
 9555TIP3    H228630   7.219   3.228   3.665  0.0633  1.5821 -0.5275
 9556TIP3   OH228631   3.000   0.917   5.321  0.0688  0.0167  0.5677
 9556TIP3    H128632   2.996   0.933   5.227 -0.5375  0.0780  0.6040
 9556TIP3    H228633   3.076   0.860   5.332 -0.0383 -0.2442  0.0073
 9557TIP3   OH228634   4.433   6.604   4.289  0.3735 -0.3330 -0.5862
 9557TIP3    H128635   4.424   6.582   4.382  0.6003 -2.0597 -0.9322
 9557TIP3    H228636   4.395   6.692   4.282  0.4020 -0.1346  1.1351
 9558TIP3   OH228637   5.781   3.269   2.489  0.1099  0.3917 -0.0152
 9558TIP3    H128638   5.783   3.274   2.393 -0.1529  2.0272  0.0390
 9558TIP3    H228639   5.733   3.347   2.516 -1.1834 -0.8214  1.4030
 9559TIP3   OH228640   3.430   5.114   1.309  0.4990  0.3543  0.0936
 9559TIP3    H128641   3.456   5.032   1.352 -0.3401  0.4549  0.8229
 9559TIP3    H228642   3.455   5.183   1.369  0.9127  0.6194 -0.3765
 9560TIP3   OH228643   3.929   3.582   1.264 -0.2626 -0.6515 -0.5867
 9560TIP3    H128644   3.874   3.547   1.193  0.8660 -0.9445 -1.3382
 9560TIP3    H228645   4.015   3.542   1.249  0.2326  0.0190  0.4077
 9561TIP3   OH228646   4.111   1.133  -0.015 -0.1442  0.2119 -0.0340
 9561TIP3    H128647   4.202   1.103  -0.014 -1.1814 -3.3818 -0.0051
 9561TIP3    H228648   4.064   1.068   0.037 -2.8286  1.7550 -0.3537
 9562TIP3   OH228649   2.282   0.692   0.518  0.7147 -0.4256  0.8650
 9562TIP3    H128650   2.210   0.633   0.498  0.4388  0.1445  0.1077
 9562TIP3    H228651   2.242   0.761   0.571  0.2880  0.7778 -0.9153
 9563TIP3   OH228652   6.745   3.692   1.846  0.0158 -0.4117  0.9868
 9563TIP3    H128653   6.794   3.751   1.903 -1.6459  0.1569  1.8683
 9563TIP3    H228654   6.658   3.731   1.840 -0.4528 -1.5875 -0.2507
 9564TIP3   OH228655   1.393   6.594   2.310 -0.8710 -0.2437 -0.1773
 9564TIP3    H128656   1.335   6.591   2.234 -0.2904 -0.1261 -0.6259
 9564TIP3    H228657   1.477   6.561   2.278 -0.4453  0.4061  0.2559
 9565TIP3   OH228658   4.948   1.807   1.813  0.3185 -0.3171  0.0774
 9565TIP3    H128659   4.941   1.863   1.890  0.9933 -1.0921  0.7288
 9565TIP3    H228660   4.997   1.730   1.844 -2.2983 -2.2572 -0.1947
 9566TIP3   OH228661   2.368   2.410   4.471 -0.4175 -0.0827 -0.0909
 9566TIP3    H128662   2.277   2.437   4.474 -0.4318 -0.2017  0.7398
 9566TIP3    H228663   2.412   2.465   4.536  0.3625  0.8936 -1.4004
 9567TIP3   OH228664   3.535   0.644   2.424  0.5428  0.0744 -0.2111
 9567TIP3    H128665   3.479   0.707   2.378 -0.2748 -1.0457 -0.7885
 9567TIP3    H228666   3.508   0.652   2.516 -0.7280 -0.5902 -0.5084
 9568TIP3   OH228667   1.821   4.025   4.764 -0.1693  0.0593 -0.0769
 9568TIP3    H128668   1.777   3.948   4.727 -0.9077  0.1020  0.6741
 9568TIP3    H228669   1.802   4.095   4.702  0.5457 -0.3657 -0.7905
 9569TIP3   OH228670   0.113   6.134   1.886  0.4171  0.0231  0.5490
 9569TIP3    H128671   0.185   6.084   1.849  0.7531 -0.5845  1.9467
 9569TIP3    H228672   0.047   6.069   1.908  0.4891  0.2764  1.5789
 9570TIP3   OH228673   0.235   1.925   0.432 -0.5380 -0.0061 -0.0409
 9570TIP3    H128674   0.275   2.001   0.389 -0.7623  0.3534  0.3801
 9570TIP3    H228675   0.287   1.850   0.402 -0.3959  0.2993 -0.5587
 9571TIP3   OH228676   1.657   1.617   5.752 -0.4580  0.2389 -0.4455
 9571TIP3    H128677   1.594   1.558   5.793 -0.4099 -0.7989 -1.7997
 9571TIP3    H228678   1.636   1.614   5.659  2.7519 -1.6743 -1.2683
 9572TIP3   OH228679   3.290   1.672   0.921 -0.5315  0.1219  0.2928
 9572TIP3    H128680   3.340   1.601   0.962  1.1135  0.8008 -0.4688
 9572TIP3    H228681   3.319   1.751   0.966  0.0672  0.6732 -1.0119
 9573TIP3   OH228682   0.434   1.716   1.797  0.4768  0.1269  0.2194
 9573TIP3    H128683   0.421   1.622   1.804  3.1994 -0.4333 -1.0843
 9573TIP3    H228684   0.350   1.749   1.765 -0.5452 -1.8213  0.7278
 9574TIP3   OH228685   1.296   6.793   1.318  0.0465  0.0524 -1.0107
 9574TIP3    H128686   1.208   6.828   1.335  0.4247  0.6161 -0.1462
 9574TIP3    H228687   1.281   6.717   1.263 -0.8166  1.6241 -3.0934
 9575TIP3   OH228688   4.346   2.716   1.794  0.0922 -0.4465 -0.5922
 9575TIP3    H128689   4.379   2.791   1.743  0.9487 -2.1066 -2.5996
 9575TIP3    H228690   4.278   2.677   1.739 -0.7412 -0.8615  0.6783
 9576TIP3   OH228691   5.956   3.803   1.827 -0.6539  0.4458 -0.5300
 9576TIP3    H128692   5.975   3.789   1.920  0.8234  1.5310 -0.6247
 9576TIP3    H228693   5.881   3.747   1.809 -0.0856 -0.8865  0.9825
 9577TIP3   OH228694   3.294   1.919   4.877  0.0664 -0.0885  0.2024
 9577TIP3    H128695   3.325   1.888   4.962  1.9308 -1.8484 -1.0280
 9577TIP3    H228696   3.374   1.939   4.828 -0.9296  0.2371 -1.3714
 9578TIP3   OH228697   4.102   5.902   3.001 -0.2640 -0.1773 -0.4866
 9578TIP3    H128698   4.025   5.895   3.058 -0.3946 -0.5443 -0.7068
 9578TIP3    H228699   4.117   5.996   2.993 -1.1926 -0.0683 -1.1135
 9579TIP3   OH228700   0.382   5.169   2.790  0.1532 -0.1680  0.5594
 9579TIP3    H128701   0.388   5.109   2.715  0.0350 -0.0524  0.4560
 9579TIP3    H228702   0.305   5.223   2.770 -0.0542 -0.3351  0.9068
 9580TIP3   OH228703   0.667   6.200   4.586 -0.6442  0.9865 -0.2550
 9580TIP3    H128704   0.763   6.203   4.584 -0.4637 -2.3477 -1.9974
 9580TIP3    H228705   0.640   6.266   4.522  0.4215  1.9333  0.2179
 9581TIP3   OH228706   4.178   3.618   3.809  0.0920  0.4505  0.3696
 9581TIP3    H128707   4.211   3.559   3.741 -0.1300  0.2038  0.4762
 9581TIP3    H228708   4.167   3.562   3.886 -2.2275  0.1420 -0.1194
 9582TIP3   OH228709   4.255   4.419   5.604 -0.5432 -0.4133 -0.5705
 9582TIP3    H128710   4.265   4.450   5.514 -1.4565 -1.7082 -1.1398
 9582TIP3    H228711   4.162   4.433   5.624 -0.7980 -1.9830 -0.5558
 9583TIP3   OH228712   0.914   0.861   3.492  0.0062 -0.1027 -0.5985
 9583TIP3    H128713   0.949   0.791   3.546  0.8666  0.2153 -0.7320
 9583TIP3    H228714   0.949   0.844   3.404  0.2757  0.5183 -0.6204
 9584TIP3   OH228715   0.426   4.826   1.223 -0.0709 -0.3618  0.0156
 9584TIP3    H128716   0.382   4.826   1.309  0.6049  2.0479  0.4300
 9584TIP3    H228717   0.371   4.882   1.168 -1.3465 -3.0805 -1.6941
 9585TIP3   OH228718   5.555   4.996   0.705 -0.2363 -0.2126  0.6925
 9585TIP3    H128719   5.473   5.036   0.733 -0.0932  0.1263  0.6357
 9585TIP3    H228720   5.544   4.902   0.722 -1.2605 -0.4048 -0.8073
 9586TIP3   OH228721   7.210   2.560   3.879  0.2998  0.0572  0.0291
 9586TIP3    H128722   7.188   2.581   3.788 -0.8288 -0.5054  0.1583
 9586TIP3    H228723   7.168   2.476   3.896 -0.8624  0.8853  1.5374
 9587TIP3   OH228724   0.404   1.595   2.450  0.0178  0.6464  0.0224
 9587TIP3    H128725   0.376   1.627   2.536 -2.3978  0.9047 -0.7979
 9587TIP3    H228726   0.401   1.499   2.459  0.7105  0.6539  0.4732
 9588TIP3   OH228727   5.358   0.384   2.118  0.2278 -0.0310  0.0198
 9588TIP3    H128728   5.332   0.307   2.168 -0.0974  0.2206  0.2365
 9588TIP3    H228729   5.322   0.458   2.166 -0.0124  0.2173 -0.5350
 9589TIP3   OH228730   1.095   0.072   4.695  0.6671 -0.3482  0.0507
 9589TIP3    H128731   1.032  -0.000   4.697 -0.5083  0.4756 -2.5689
 9589TIP3    H228732   1.131   0.070   4.606  1.4662  1.5623  0.2784
 9590TIP3   OH228733   2.922   4.212   2.412  0.5080 -0.2716 -0.1176
 9590TIP3    H128734   2.923   4.126   2.452  3.1448  0.0726  0.7368
 9590TIP3    H228735   2.865   4.265   2.468  1.3281 -0.7040  1.1583
 9591TIP3   OH228736   4.376   4.398   2.046  0.4753  0.5080  0.2728
 9591TIP3    H128737   4.284   4.382   2.067  0.3431 -0.8133 -1.1836
 9591TIP3    H228738   4.378   4.405   1.951  2.0238 -0.6432  0.1818
 9592TIP3   OH228739   0.645   2.485   3.887 -0.2476 -0.1448 -0.1678
 9592TIP3    H128740   0.669   2.396   3.862 -1.6923 -0.2726 -1.2325
 9592TIP3    H228741   0.613   2.478   3.976  2.0921 -0.2103  0.7384
 9593TIP3   OH228742   0.672   5.507   2.705  0.4450 -0.9776 -0.2612
 9593TIP3    H128743   0.758   5.477   2.674  1.0354  0.0036  0.3611
 9593TIP3    H228744   0.652   5.449   2.778  1.7329  0.2579  1.1515
 9594TIP3   OH228745   6.671   2.285   5.062 -0.1923 -0.0273 -0.5159
 9594TIP3    H128746   6.637   2.248   5.144  1.6520  1.7571  1.1797
 9594TIP3    H228747   6.725   2.216   5.025  2.4852  0.4429  2.1187
 9595TIP3   OH228748   0.348   3.390   2.272 -0.3708  0.1146  0.0379
 9595TIP3    H128749   0.273   3.353   2.318  0.3097 -0.4017  0.7620
 9595TIP3    H228750   0.386   3.453   2.333 -1.2530  1.7210 -1.0152
 9596TIP3   OH228751   1.784   1.404   0.057  0.0700  0.0161 -0.0171
 9596TIP3    H128752   1.880   1.403   0.056  0.0645 -0.5198 -0.6531
 9596TIP3    H228753   1.759   1.314   0.038 -0.5580  0.4757 -1.5027
 9597TIP3   OH228754   4.318   2.411   5.017  0.0160 -0.5180 -0.1484
 9597TIP3    H128755   4.273   2.495   5.015  0.3984 -0.3271 -0.8923
 9597TIP3    H228756   4.351   2.404   5.107  1.5888  1.0046 -0.5322
 9598TIP3   OH228757   1.356   0.206   4.460  0.4667  0.6693 -0.1063
 9598TIP3    H128758   1.450   0.220   4.473  0.1113  2.1054  1.1678
 9598TIP3    H228759   1.314   0.274   4.513 -1.3116 -0.4059 -0.0644
 9599TIP3   OH228760   1.517   3.344   2.202 -0.1911  0.4523  0.0689
 9599TIP3    H128761   1.537   3.389   2.284  0.7337 -0.1834  0.2059
 9599TIP3    H228762   1.602   3.325   2.163 -0.6132  1.8730 -1.6949
 9600TIP3   OH228763   5.559   4.584   0.058  0.6283 -0.0695 -0.7986
 9600TIP3    H128764   5.634   4.642   0.070  0.7318 -0.5165  0.9734
 9600TIP3    H228765   5.508   4.625  -0.012  0.7979  2.0671  0.2537
 9601TIP3   OH228766   4.645   2.315   3.419  0.3063  0.0973  0.3304
 9601TIP3    H128767   4.659   2.354   3.505  0.6861  0.7470 -0.0117
 9601TIP3    H228768   4.732   2.285   3.392  0.5465  1.4760 -0.5504
 9602TIP3   OH228769   4.947   5.964   2.214 -0.3930 -0.1607 -0.3139
 9602TIP3    H128770   4.934   5.875   2.182 -0.3874  0.0079 -0.7952
 9602TIP3    H228771   4.946   5.956   2.309 -2.4016 -0.4117 -0.3088
 9603TIP3   OH228772   3.307   1.509   4.667 -0.1292 -0.4220  0.5974
 9603TIP3    H128773   3.348   1.513   4.754  1.1750 -0.4143  0.0001
 9603TIP3    H228774   3.213   1.503   4.686  0.1323 -0.5469  2.0119
 9604TIP3   OH228775   2.648   6.512   1.596  0.2972 -0.9574  0.0388
 9604TIP3    H128776   2.619   6.571   1.666  1.1949  0.1031 -0.4517
 9604TIP3    H228777   2.672   6.571   1.525  0.6416 -1.9655 -0.6888
 9605TIP3   OH228778   6.352   0.445   2.227 -0.2729  0.5039 -0.2653
 9605TIP3    H128779   6.431   0.427   2.278 -0.9081 -0.8673  0.3099
 9605TIP3    H228780   6.285   0.391   2.268 -1.2506  0.7983 -1.4149
 9606TIP3   OH228781   3.528   0.978   2.703  0.2388 -0.5855  0.2033
 9606TIP3    H128782   3.554   0.898   2.749 -0.1192 -1.1007 -0.4773
 9606TIP3    H228783   3.449   0.953   2.655 -0.5794  0.5084  0.9488
 9607TIP3   OH228784   3.238   6.050   4.193 -0.3380  0.3348 -0.3317
 9607TIP3    H128785   3.174   6.105   4.237  0.4216 -0.4321  1.8481
 9607TIP3    H228786   3.190   5.969   4.172 -0.3816  0.1700  0.3638
 9608TIP3   OH228787   3.177   2.480   1.849  0.0114  0.0057  0.2338
 9608TIP3    H128788   3.185   2.565   1.806  0.7207 -0.0202  0.2989
 9608TIP3    H228789   3.096   2.485   1.899 -0.6404  0.1589 -0.8225
 9609TIP3   OH228790   4.751   3.950   0.430 -0.2859  0.0006 -0.0289
 9609TIP3    H128791   4.779   4.041   0.427 -1.8345  0.4861 -0.6155
 9609TIP3    H228792   4.740   3.931   0.523  0.8740  0.1216  0.1512
 9610TIP3   OH228793   1.739   5.230   2.541  0.0179 -0.2681  0.0893
 9610TIP3    H128794   1.815   5.177   2.516 -0.7230 -0.7290 -1.3090
 9610TIP3    H228795   1.741   5.305   2.482 -0.2568  0.0586  0.4884
 9611TIP3   OH228796   7.160   4.411   5.452 -0.0132  0.2618 -0.5097
 9611TIP3    H128797   7.155   4.371   5.365 -1.0906  2.0835 -1.3612
 9611TIP3    H228798   7.220   4.485   5.440  1.5098 -0.6776  0.8715
 9612TIP3   OH228799   0.306   1.433   3.153  0.0589  0.0817 -0.2131
 9612TIP3    H128800   0.283   1.344   3.179  0.0129  0.0672 -0.3039
 9612TIP3    H228801   0.320   1.428   3.058 -0.5328  0.2946 -0.3149
 9613TIP3   OH228802   2.683   5.178   2.181  0.5321  0.2226 -0.1049
 9613TIP3    H128803   2.590   5.155   2.179  0.3434  0.9219  0.2226
 9613TIP3    H228804   2.696   5.232   2.103  1.3792 -2.3876 -1.9004
 9614TIP3   OH228805   2.875   5.444   3.900  0.5220 -0.1846 -0.2569
 9614TIP3    H128806   2.893   5.405   3.986 -0.6340 -0.3208 -0.0655
 9614TIP3    H228807   2.784   5.422   3.882  0.3173  1.0810 -0.8625
 9615TIP3   OH228808   3.495   6.439   2.535 -0.4521  0.0378  0.5428
 9615TIP3    H128809   3.518   6.532   2.535 -2.9110  0.7276 -0.2826
 9615TIP3    H228810   3.571   6.395   2.571  1.0329  2.3128  0.3622
 9616TIP3   OH228811   6.200   6.243   2.465  0.0934 -0.1844  0.0970
 9616TIP3    H128812   6.203   6.196   2.382  2.7159  0.4542 -0.2580
 9616TIP3    H228813   6.286   6.285   2.472 -1.4981  3.2916  1.1147
 9617TIP3   OH228814   4.939   3.545   0.842  0.0850  0.4737 -0.1026
 9617TIP3    H128815   4.999   3.615   0.817 -0.5258  0.4295 -1.8024
 9617TIP3    H228816   4.852   3.584   0.831 -0.2402  0.1417  1.1251
 9618TIP3   OH228817   3.630   2.891   5.124  0.8022 -0.1911 -0.4382
 9618TIP3    H128818   3.706   2.891   5.183  1.3025 -0.2627 -1.0723
 9618TIP3    H228819   3.625   2.980   5.091  0.6022 -0.1855 -0.3950
 9619TIP3   OH228820   3.426   4.818   5.056 -0.1256 -0.1420  0.2093
 9619TIP3    H128821   3.439   4.880   5.127  1.0470 -0.2385  0.1109
 9619TIP3    H228822   3.504   4.829   5.001 -0.7892 -0.3909 -0.8073
 9620TIP3   OH228823   3.138   1.798   3.569  0.3112 -0.0298 -0.0145
 9620TIP3    H128824   3.050   1.825   3.595  0.4915  1.6872 -1.0325
 9620TIP3    H228825   3.196   1.861   3.611  1.0568 -0.9441  0.3764
 9621TIP3   OH228826   2.297   5.345   2.512 -0.6033 -0.0144 -0.2656
 9621TIP3    H128827   2.379   5.390   2.492  0.3821 -1.4225  0.4038
 9621TIP3    H228828   2.281   5.288   2.437 -2.1007  1.7201 -1.3325
 9622TIP3   OH228829   5.631   6.672   5.029 -0.2820 -0.5386  0.3302
 9622TIP3    H128830   5.659   6.631   5.111 -2.2077  0.9291  1.8171
 9622TIP3    H228831   5.671   6.759   5.031  1.1970 -1.1046 -1.2871
 9623TIP3   OH228832   1.055   4.893   3.502 -0.0082 -0.3506 -0.6870
 9623TIP3    H128833   1.116   4.859   3.568  0.2096 -0.3491 -0.8888
 9623TIP3    H228834   0.974   4.908   3.551 -0.3001 -1.7093 -0.7032
 9624TIP3   OH228835   3.804   2.730   2.848  0.4531 -0.3232 -0.0071
 9624TIP3    H128836   3.856   2.810   2.842  0.2727 -0.2350 -0.4174
 9624TIP3    H228837   3.818   2.686   2.764 -0.2243 -0.2462 -0.1652
 9625TIP3   OH228838   4.377   5.674   4.594  0.0180 -0.5439 -0.6704
 9625TIP3    H128839   4.332   5.720   4.665  0.6181 -0.0786 -0.5769
 9625TIP3    H228840   4.320   5.601   4.572  0.0586 -0.9894  0.6360
 9626TIP3   OH228841   5.893   5.318   3.302  0.2826 -0.3844  0.9587
 9626TIP3    H128842   5.839   5.330   3.224 -1.4171  1.2630  2.2661
 9626TIP3    H228843   5.830   5.320   3.375  1.7248 -2.3945  2.3686
 9627TIP3   OH228844   0.298   0.520   0.288  0.3643 -0.2524  0.2746
 9627TIP3    H128845   0.337   0.597   0.330  0.1492  0.5907 -0.9972
 9627TIP3    H228846   0.356   0.502   0.214  0.3405 -1.2645  0.4885
 9628TIP3   OH228847   0.809   0.663   3.932  0.1619 -0.2601 -0.0827
 9628TIP3    H128848   0.828   0.739   3.987 -0.8767  0.8270 -1.1696
 9628TIP3    H228849   0.784   0.594   3.994  0.3088  0.5367  0.8776
 9629TIP3   OH228850   2.713   0.508   4.366  0.3387  0.5756  0.1360
 9629TIP3    H128851   2.671   0.567   4.429  0.1358 -0.6729  1.2238
 9629TIP3    H228852   2.652   0.502   4.293 -0.6752  0.0270  1.0013
 9630TIP3   OH228853   0.228   2.947   2.820 -1.0613 -0.1192  0.1203
 9630TIP3    H128854   0.300   2.923   2.763 -0.5333  0.7408  0.4110
 9630TIP3    H228855   0.163   2.877   2.808 -0.2231 -0.8566 -0.1983
 9631TIP3   OH228856   5.571   1.907   4.520 -0.1929  0.0094  0.4344
 9631TIP3    H128857   5.602   1.951   4.440 -3.2043  0.3051 -0.6967
 9631TIP3    H228858   5.641   1.921   4.583  1.9814  0.4634 -1.9002
 9632TIP3   OH228859   2.473   2.622   4.205 -0.3608 -0.3746 -0.4409
 9632TIP3    H128860   2.389   2.636   4.161 -0.6106 -1.0855 -0.2060
 9632TIP3    H228861   2.489   2.527   4.197 -0.5653 -0.5863  1.2696
 9633TIP3   OH228862   6.009   5.040   4.321  0.5050  0.2386  0.4058
 9633TIP3    H128863   5.926   5.034   4.368  1.0823 -1.4104  1.2596
 9633TIP3    H228864   5.984   5.068   4.232 -0.8752  0.4563  0.8411
 9634TIP3   OH228865   3.627   6.158   1.066  0.6176  0.9721  0.1318
 9634TIP3    H128866   3.544   6.169   1.021 -0.1347 -1.1346  0.8730
 9634TIP3    H228867   3.691   6.142   0.996 -0.2548 -0.7803 -0.3192
 9635TIP3   OH228868   3.604   0.747   0.844 -0.1528  0.0330 -0.0509
 9635TIP3    H128869   3.656   0.727   0.766 -1.8458  0.2927 -1.3246
 9635TIP3    H228870   3.547   0.670   0.854 -0.4128  0.2973  0.5039
 9636TIP3   OH228871   4.622   4.243   5.068  0.4499 -0.1518  0.2312
 9636TIP3    H128872   4.697   4.296   5.042  0.6160  0.3574  1.6298
 9636TIP3    H228873   4.651   4.198   5.148 -0.4330 -0.6520  0.2932
 9637TIP3   OH228874   4.982   6.291   4.767 -0.1256 -0.5080 -0.4096
 9637TIP3    H128875   4.963   6.357   4.834  0.5197 -0.9158  0.1985
 9637TIP3    H228876   5.021   6.219   4.816 -3.1234 -2.4683 -0.6785
 9638TIP3   OH228877   5.428   2.133   1.727  0.0492 -0.5057  0.5811
 9638TIP3    H128878   5.469   2.056   1.688  1.7571  0.4765  0.3023
 9638TIP3    H228879   5.454   2.131   1.819  2.4252  1.0765  0.0382
 9639TIP3   OH228880   4.515   5.528   3.839  0.6485  0.4091 -0.9415
 9639TIP3    H128881   4.449   5.468   3.804 -0.2672  1.1471 -0.5118
 9639TIP3    H228882   4.516   5.601   3.777  0.1836  0.9637 -0.3032
 9640TIP3   OH228883   0.584   2.226   3.083  0.6721 -0.2618 -0.3279
 9640TIP3    H128884   0.536   2.143   3.078  0.6996 -0.2086 -2.1034
 9640TIP3    H228885   0.626   2.235   2.998  0.7683  1.5289 -0.1370
 9641TIP3   OH228886   5.066   4.372   0.887 -0.0017  0.5959  0.4854
 9641TIP3    H128887   5.137   4.339   0.942 -1.2666 -1.8307  0.7691
 9641TIP3    H228888   5.054   4.463   0.915  0.5157 -0.0661  3.0380
 9642TIP3   OH228889   6.730   3.127   0.916  0.1359 -0.3212  0.0159
 9642TIP3    H128890   6.744   3.083   0.833  0.4634  0.1785 -0.1955
 9642TIP3    H228891   6.718   3.056   0.979 -2.2901 -0.7176 -0.8046
 9643TIP3   OH228892   5.482   2.675   1.908 -0.2802 -0.3594 -0.0579
 9643TIP3    H128893   5.502   2.584   1.930 -2.0980 -0.6809  0.4318
 9643TIP3    H228894   5.450   2.673   1.818  1.2394  0.0594 -0.6309
 9644TIP3   OH228895   1.757   3.324   5.584  0.5425  0.3804 -0.0632
 9644TIP3    H128896   1.728   3.239   5.551  3.2118 -1.1166  1.1425
 9644TIP3    H228897   1.703   3.338   5.662 -0.6578  0.3394 -0.8671
 9645TIP3   OH228898   4.261   3.990   1.978 -0.1388 -0.8935 -0.4383
 9645TIP3    H128899   4.289   3.899   1.971  1.7119 -0.7229  2.6506
 9645TIP3    H228900   4.226   3.997   2.067 -2.3608  0.9597 -1.3609
 9646TIP3   OH228901   5.201   3.358   0.259 -0.3565  0.1945  0.1584
 9646TIP3    H128902   5.251   3.337   0.339  0.1495  1.0087  0.0724
 9646TIP3    H228903   5.137   3.288   0.252  0.7130 -0.8347  0.3335
 9647TIP3   OH228904   3.260   0.640   4.589  0.3395 -0.0696  0.1153
 9647TIP3    H128905   3.303   0.579   4.530  0.4203 -0.9163  1.0227
 9647TIP3    H228906   3.200   0.690   4.533  1.3127  0.0048 -0.8778
 9648TIP3   OH228907   2.990   6.260   2.108  0.6783  0.0947  0.1569
 9648TIP3    H128908   2.989   6.167   2.086 -0.8427  0.2003 -0.3860
 9648TIP3    H228909   3.016   6.263   2.200 -0.0508 -0.9415  0.4189
 9649TIP3   OH228910   5.916   2.112   3.123  0.4479  0.1591 -0.2316
 9649TIP3    H128911   5.992   2.054   3.130  0.5237  0.0664 -1.5092
 9649TIP3    H228912   5.907   2.128   3.029 -0.2068  1.3866  0.0162
 9650TIP3   OH228913   3.263   0.216   5.832 -0.0324 -0.5365  0.0727
 9650TIP3    H128914   3.347   0.169   5.838  0.3988  0.2474  0.2658
 9650TIP3    H228915   3.231   0.218   5.922 -0.8573 -1.8803 -0.1621
 9651TIP3   OH228916   4.509   0.049   4.624 -0.3376  0.3302 -0.1692
 9651TIP3    H128917   4.418   0.078   4.614 -0.5689 -0.5651 -0.8206
 9651TIP3    H228918   4.519   0.032   4.718 -1.5130 -1.5756 -0.3277
 9652TIP3   OH228919   6.305   3.110   0.986  0.2563 -0.2025  0.1308
 9652TIP3    H128920   6.231   3.056   1.017  0.0143  0.6590  1.1008
 9652TIP3    H228921   6.378   3.084   1.041  0.6684 -0.9579 -0.7426
 9653TIP3   OH228922   3.910   0.495   3.293  0.5836  0.0059  0.5956
 9653TIP3    H128923   3.929   0.547   3.370  1.8089  0.6424 -0.0994
 9653TIP3    H228924   3.985   0.435   3.286  0.9029  0.5051 -0.5289
 9654TIP3   OH228925   7.062   5.250   4.833 -0.1307 -0.4713  0.5706
 9654TIP3    H128926   6.984   5.265   4.887 -0.0560 -0.3630  0.6507
 9654TIP3    H228927   7.131   5.229   4.895  0.5456  1.9605  0.7800
 9655TIP3   OH228928   5.084   3.762   5.637 -0.1272  0.0280  0.0923
 9655TIP3    H128929   5.001   3.809   5.636 -1.2948 -1.9169  0.8730
 9655TIP3    H228930   5.137   3.808   5.702 -1.1951  0.3159  0.7729
 9656TIP3   OH228931   1.302   0.943   4.455  0.3098  0.6316  0.0498
 9656TIP3    H128932   1.298   1.037   4.440  0.4625  0.5697 -0.3925
 9656TIP3    H228933   1.239   0.907   4.393  0.0854  0.4570  0.3745
 9657TIP3   OH228934   0.743   3.355   2.859 -0.5185  0.2965  0.3507
 9657TIP3    H128935   0.735   3.448   2.837  0.4590  0.1782 -0.6478
 9657TIP3    H228936   0.703   3.310   2.784 -1.9176 -0.0988  1.3007
 9658TIP3   OH228937   5.300   1.161   0.370  0.0810  0.0914  0.2092
 9658TIP3    H128938   5.356   1.135   0.443  2.2637 -0.4140 -1.5530
 9658TIP3    H228939   5.283   1.254   0.386  2.1636  0.4854  0.3731
 9659TIP3   OH228940   5.336   1.976   2.985  0.4492 -0.0968 -0.6541
 9659TIP3    H128941   5.407   2.039   2.990  1.4136 -1.0729 -1.4153
 9659TIP3    H228942   5.330   1.953   2.892 -3.0809  2.3503 -1.2417
 9660TIP3   OH228943   0.240   3.016   2.281 -0.3405  0.2252  0.1520
 9660TIP3    H128944   0.256   3.074   2.207  1.1859  1.4619  1.3867
 9660TIP3    H228945   0.236   3.074   2.357 -3.9712 -0.7686  0.8878
 9661TIP3   OH228946   6.815   6.331   4.303 -0.5271 -0.4147 -0.0421
 9661TIP3    H128947   6.838   6.410   4.352  1.1684 -0.3144 -0.9452
 9661TIP3    H228948   6.810   6.361   4.212 -1.2105 -1.1012 -0.2407
 9662TIP3   OH228949   3.175   6.664   0.809  0.4061 -0.0534 -0.1946
 9662TIP3    H128950   3.258   6.712   0.804  0.5973 -0.2772  0.5980
 9662TIP3    H228951   3.118   6.709   0.747  0.6314  1.1126  0.4040
 9663TIP3   OH228952   3.344   3.279   3.886  0.2530  0.1591 -0.6787
 9663TIP3    H128953   3.416   3.230   3.847  1.2419 -1.2760  2.5734
 9663TIP3    H228954   3.386   3.355   3.926 -0.4340  0.6880 -0.9547
 9664TIP3   OH228955   1.363   0.303   1.816  0.8298 -0.1993  0.0894
 9664TIP3    H128956   1.284   0.355   1.801  0.7199 -0.4937 -0.4028
 9664TIP3    H228957   1.433   0.350   1.770  0.7097 -0.5281 -0.4466
 9665TIP3   OH228958   1.899   1.998   4.705 -0.5324  0.5606 -0.2132
 9665TIP3    H128959   1.963   2.068   4.717 -1.0786  1.2043 -0.9130
 9665TIP3    H228960   1.853   1.993   4.789  1.1495 -0.7065  0.7132
 9666TIP3   OH228961   2.379   4.952   5.163  0.1520  0.1991 -0.0187
 9666TIP3    H128962   2.347   4.901   5.089 -1.3725 -0.9743  1.3598
 9666TIP3    H228963   2.330   5.033   5.160  1.2290  0.8519 -1.1385
 9667TIP3   OH228964   5.265   5.493   1.888 -0.1339  0.3826 -0.3053
 9667TIP3    H128965   5.226   5.417   1.845  2.6365 -1.6967  0.4913
 9667TIP3    H228966   5.302   5.545   1.817 -0.2870 -0.1298 -0.7652
 9668TIP3   OH228967   0.736   5.579   5.789  0.0398 -0.4352 -0.1550
 9668TIP3    H128968   0.786   5.499   5.773 -0.8182 -0.7792 -1.2239
 9668TIP3    H228969   0.684   5.559   5.867  2.7483  0.5346  2.0644
 9669TIP3   OH228970   2.703   4.472   2.033  0.3263 -0.3001  0.4880
 9669TIP3    H128971   2.703   4.377   2.042 -3.4633 -1.0930 -3.8531
 9669TIP3    H228972   2.789   4.493   1.998  0.7282 -2.4200  0.0676
 9670TIP3   OH228973   3.746   3.668   4.898  0.3657  0.7337  0.3788
 9670TIP3    H128974   3.717   3.759   4.889 -2.4424 -0.1426 -0.4684
 9670TIP3    H228975   3.780   3.662   4.987  3.1637  3.1722 -0.3723
 9671TIP3   OH228976   1.589   2.167   1.483 -0.5601 -0.1577  0.2223
 9671TIP3    H128977   1.544   2.229   1.540 -0.9852  0.1940 -0.4788
 9671TIP3    H228978   1.682   2.177   1.506 -0.8132 -0.8315  1.6178
 9672TIP3   OH228979   4.462   1.053   5.458 -0.3000 -0.7656  0.1059
 9672TIP3    H128980   4.469   1.131   5.403  1.1198 -1.1128 -0.2626
 9672TIP3    H228981   4.433   1.086   5.543  0.4920  0.2166  0.0174
 9673TIP3   OH228982   3.884   1.349   4.985 -0.2466  0.1552  0.0731
 9673TIP3    H128983   3.848   1.429   5.024 -2.1402  0.1377 -1.4468
 9673TIP3    H228984   3.886   1.368   4.891  0.0419 -1.3039 -0.2389
 9674TIP3   OH228985   2.226   5.379   3.719  0.0804 -0.0029 -0.2306
 9674TIP3    H128986   2.224   5.474   3.705  0.8202  0.0043 -0.3249
 9674TIP3    H228987   2.315   5.353   3.695  0.6188 -0.3819  1.9594
 9675TIP3   OH228988   1.931   1.640   3.616  0.3180 -0.1279  0.0882
 9675TIP3    H128989   1.981   1.633   3.698 -0.4383 -0.6546  0.5104
 9675TIP3    H228990   1.917   1.550   3.589 -0.5486  0.0125  0.0590
 9676TIP3   OH228991  -0.002   2.007   1.073  0.5594  0.1455 -0.6206
 9676TIP3    H128992  -0.012   2.055   1.155 -1.6299  0.3024 -0.9041
 9676TIP3    H228993   0.091   1.986   1.068  0.7185 -0.1327  2.0253
 9677TIP3   OH228994   6.773   4.056   5.011  0.0763  0.9635 -0.0477
 9677TIP3    H128995   6.854   4.068   5.061 -0.2923  0.5272  0.6665
 9677TIP3    H228996   6.710   4.024   5.075 -0.7523  1.6031 -0.5349
 9678TIP3   OH228997   1.085   0.627   5.845 -0.1350  0.1593  0.2560
 9678TIP3    H128998   1.147   0.561   5.817 -0.0698  0.7433 -1.0389
 9678TIP3    H228999   1.121   0.660   5.927  1.0230  0.1594 -0.2358
 9679TIP3   OH229000   0.926   5.183   4.457 -0.3050 -0.1004  0.0557
 9679TIP3    H129001   0.901   5.090   4.462 -1.9664  0.2418 -1.0078
 9679TIP3    H229002   0.844   5.230   4.469  0.6364  1.2942  1.4019
 9680TIP3   OH229003   2.598   1.893   1.896 -0.7506  0.3180 -0.6057
 9680TIP3    H129004   2.627   1.826   1.957  0.0242  1.5235  0.4135
 9680TIP3    H229005   2.666   1.894   1.828 -0.5194  0.3663 -0.3791
 9681TIP3   OH229006   7.175   6.269   3.204  0.4935 -0.1806  0.5170
 9681TIP3    H129007   7.093   6.305   3.171  1.5927  0.9761 -1.1242
 9681TIP3    H229008   7.188   6.189   3.154  0.3255 -0.4081  0.8372
 9682TIP3   OH229009   2.657   4.851   3.181  0.4071  0.5444  0.3357
 9682TIP3    H129010   2.642   4.764   3.143  2.0126  0.2991  0.2209
 9682TIP3    H229011   2.606   4.851   3.261  0.4142 -0.5247  0.3546
 9683TIP3   OH229012   5.209   0.428   1.572 -0.4589 -0.6213  0.1340
 9683TIP3    H129013   5.270   0.498   1.546 -1.3688  0.4718  0.8072
 9683TIP3    H229014   5.157   0.412   1.494 -2.5429  1.9694  0.8343
 9684TIP3   OH229015   3.022   3.866   4.875  0.0006 -0.4060  0.4893
 9684TIP3    H129016   3.018   3.790   4.933  0.7279 -0.6655  0.2089
 9684TIP3    H229017   3.091   3.844   4.812 -0.1916  0.2370  0.0509
 9685TIP3   OH229018   0.694   5.728   2.035  0.1312  0.2719 -0.0765
 9685TIP3    H129019   0.709   5.808   1.985 -0.3220  0.3208 -0.1396
 9685TIP3    H229020   0.646   5.758   2.113  1.0251  0.2289  0.4968
 9686TIP3   OH229021   5.664   1.144   1.164 -0.3345 -0.5583 -0.4440
 9686TIP3    H129022   5.671   1.191   1.080  1.1083 -1.1918 -0.7088
 9686TIP3    H229023   5.654   1.052   1.139 -0.8525 -0.6466  0.0789
 9687TIP3   OH229024   5.911   1.125   0.860 -0.2883 -0.0150 -0.6539
 9687TIP3    H129025   5.974   1.197   0.870 -0.9390  0.8429 -2.3623
 9687TIP3    H229026   5.825   1.169   0.864 -0.7219 -0.8434 -0.7473
 9688TIP3   OH229027   5.407   1.510   1.911  0.6098  0.5586  0.4165
 9688TIP3    H129028   5.438   1.459   1.986 -0.2603 -1.4906 -0.5527
 9688TIP3    H229029   5.471   1.581   1.902  1.0170  0.5613  2.7563
 9689TIP3   OH229030   6.657   3.310   2.516 -0.5280 -0.1299  0.6217
 9689TIP3    H129031   6.674   3.290   2.608 -2.5495  0.0245  1.0823
 9689TIP3    H229032   6.570   3.351   2.516 -1.3983 -1.7700 -1.5284
 9690TIP3   OH229033   2.212   3.460   1.320 -0.1568  0.0529 -0.1296
 9690TIP3    H129034   2.162   3.482   1.399  1.1896 -0.2639  0.8465
 9690TIP3    H229035   2.195   3.367   1.307  0.6596 -0.2068  0.5799
 9691TIP3   OH229036   5.945   5.902   3.239  0.1720 -0.2437  0.4037
 9691TIP3    H129037   5.898   5.931   3.161 -1.0261 -1.9597  0.4485
 9691TIP3    H229038   5.944   5.806   3.234  0.2998 -0.3884  2.3996
 9692TIP3   OH229039   2.859   2.722   4.593 -0.4959  0.2913  0.0219
 9692TIP3    H129040   2.774   2.689   4.562 -0.3193 -0.4147  0.2603
 9692TIP3    H229041   2.909   2.737   4.512  0.3768 -2.6514 -0.1280
 9693TIP3   OH229042   0.203   6.101   2.654 -0.5227  0.6603 -0.5643
 9693TIP3    H129043   0.296   6.086   2.674 -0.3771  0.4800 -1.3333
 9693TIP3    H229044   0.159   6.022   2.685 -0.4712  0.9114  0.1497
 9694TIP3   OH229045   2.310   3.339   3.202 -0.3402  0.0894 -0.1894
 9694TIP3    H129046   2.263   3.418   3.229 -2.2320 -0.9064 -0.3909
 9694TIP3    H229047   2.312   3.344   3.106  1.0562  0.6874 -0.1544
 9695TIP3   OH229048   3.166   2.880   4.444 -0.4399  0.3346  0.6292
 9695TIP3    H129049   3.192   2.813   4.508 -2.3900 -0.5426  0.5785
 9695TIP3    H229050   3.196   2.962   4.483  1.2155 -0.4548  1.1254
 9696TIP3   OH229051   3.879   0.170   0.318 -0.2050 -0.3737  0.3721
 9696TIP3    H129052   3.846   0.139   0.234 -1.4534 -1.7187  1.3021
 9696TIP3    H229053   3.894   0.090   0.369  2.1392  0.3194  0.9004
 9697TIP3   OH229054   0.592   5.967   3.443  0.0858 -0.4105  0.1803
 9697TIP3    H129055   0.529   6.038   3.457 -1.9842 -2.2614  0.7816
 9697TIP3    H229056   0.672   6.012   3.414 -0.4359  2.3171  2.4806
 9698TIP3   OH229057   5.345   5.521   2.765  0.5028  0.9195  0.2103
 9698TIP3    H129058   5.348   5.565   2.850  1.8103 -0.9741  1.2176
 9698TIP3    H229059   5.296   5.440   2.782 -2.1295  1.9808 -1.6515
 9699TIP3   OH229060   3.734   5.178   4.069 -0.7645  0.1806 -0.4036
 9699TIP3    H129061   3.746   5.092   4.028  0.6477  0.7337 -1.2126
 9699TIP3    H229062   3.648   5.207   4.040 -0.5716 -0.2652 -1.4663
 9700TIP3   OH229063   2.107   3.781   5.040 -0.4331  0.4381 -0.3680
 9700TIP3    H129064   2.063   3.727   4.974 -1.0803  0.5287 -0.0237
 9700TIP3    H229065   2.044   3.786   5.112 -0.0629  1.0168 -0.0799
 9701TIP3   OH229066   1.173   3.707   5.445 -0.3297 -0.4798 -0.2997
 9701TIP3    H129067   1.162   3.621   5.485 -1.8185 -0.3119 -0.2787
 9701TIP3    H229068   1.093   3.720   5.394  1.1043 -0.3040 -2.6535
 9702TIP3   OH229069   5.993   1.883   1.700  0.0719  0.5445 -0.3894
 9702TIP3    H129070   5.940   1.925   1.768 -0.5098  1.0372 -1.1222
 9702TIP3    H229071   6.027   1.957   1.648 -0.7491  0.1430 -1.5453
 9703TIP3   OH229072   5.315   0.091   5.339  0.0670  0.2318 -0.1680
 9703TIP3    H129073   5.257   0.092   5.415 -0.2487 -3.0782 -0.2104
 9703TIP3    H229074   5.269   0.144   5.273 -2.6019 -1.5779  0.0830
 9704TIP3   OH229075   3.998   6.448   0.652  0.3524 -0.7239  0.0003
 9704TIP3    H129076   3.979   6.439   0.746 -1.0431 -0.5434 -0.2393
 9704TIP3    H229077   3.927   6.502   0.619  1.7011  0.5566 -0.8956
 9705TIP3   OH229078   1.811   2.617   1.992  0.1343 -0.7143  0.0646
 9705TIP3    H129079   1.805   2.693   2.049  0.0011  0.3344 -1.2846
 9705TIP3    H229080   1.874   2.559   2.035  0.5888  0.3623  0.8997
 9706TIP3   OH229081   4.132   1.248   3.813  0.0240  0.1728  0.0879
 9706TIP3    H129082   4.205   1.231   3.754  0.2958 -0.3266  0.5504
 9706TIP3    H229083   4.073   1.174   3.799  1.2438 -1.3086  2.1614
 9707TIP3   OH229084   5.419   4.229   0.786 -0.0863 -0.3798  0.2153
 9707TIP3    H129085   5.376   4.301   0.740  0.0797 -0.1542  0.4145
 9707TIP3    H229086   5.406   4.153   0.728  2.0924  0.3528 -1.3689
 9708TIP3   OH229087   5.940   1.132   2.661 -0.1593  0.7000  0.4929
 9708TIP3    H129088   5.972   1.201   2.603  0.2194  0.1974  0.0900
 9708TIP3    H229089   5.919   1.059   2.602  1.5024 -0.3106  1.0696
 9709TIP3   OH229090   6.890   6.007   4.493 -0.2577 -0.2285  0.6273
 9709TIP3    H129091   6.915   6.038   4.580 -1.1685 -0.5843  1.0323
 9709TIP3    H229092   6.796   6.022   4.489 -0.0054  1.1695 -0.8882
 9710TIP3   OH229093   6.376   2.067   5.574 -0.5713 -0.0057  0.0146
 9710TIP3    H129094   6.413   2.152   5.598  1.4582 -0.9955  0.6197
 9710TIP3    H229095   6.344   2.031   5.656 -0.2205 -0.3784 -0.0121
 9711TIP3   OH229096   6.616   2.443   2.765 -0.2752 -0.1528 -0.5555
 9711TIP3    H129097   6.601   2.363   2.815 -0.7373  0.5746  0.5110
 9711TIP3    H229098   6.709   2.462   2.778 -0.0140 -0.8448 -1.3378
 9712TIP3   OH229099   2.000   5.474   3.128 -0.0431  0.1193 -0.2290
 9712TIP3    H129100   1.995   5.476   3.224  2.9618  1.5470  0.0266
 9712TIP3    H229101   1.947   5.549   3.101  0.4717  0.7596  0.4695
 9713TIP3   OH229102   2.455   5.256   5.725  0.1435  0.0662 -0.6046
 9713TIP3    H129103   2.501   5.256   5.809  2.0232 -0.8505 -1.5684
 9713TIP3    H229104   2.452   5.348   5.700 -2.0399  0.5677  1.2389
 9714TIP3   OH229105   0.204   0.392   4.042  0.0115 -0.2824 -0.0660
 9714TIP3    H129106   0.196   0.461   3.976  0.0789  0.0339  0.2557
 9714TIP3    H229107   0.224   0.438   4.123  2.1695 -0.8148 -0.2452
 9715TIP3   OH229108   3.691   2.281   1.315 -0.1386 -0.0886 -0.1759
 9715TIP3    H129109   3.687   2.187   1.297  1.4791  0.1794 -2.4278
 9715TIP3    H229110   3.719   2.288   1.406  0.4088 -1.8312 -0.1831
 9716TIP3   OH229111   1.652   4.727   3.371  0.1775  0.2146 -0.2416
 9716TIP3    H129112   1.666   4.714   3.277  1.8257 -1.3649  0.1579
 9716TIP3    H229113   1.715   4.794   3.396 -2.8489  3.5498 -0.8471
 9717TIP3   OH229114   1.638   6.245   0.911 -0.1742  0.9642  0.0099
 9717TIP3    H129115   1.676   6.183   0.972  1.4113  2.0407  0.1787
 9717TIP3    H229116   1.595   6.310   0.966 -0.2210  1.0265 -0.0983
 9718TIP3   OH229117   1.729   1.479   4.558  0.2979  0.0719  0.2781
 9718TIP3    H129118   1.640   1.478   4.594 -0.4103 -0.6900 -1.3919
 9718TIP3    H229119   1.769   1.557   4.597 -1.6126  1.3088 -0.0469
 9719TIP3   OH229120   7.083   1.741   1.498 -0.5347  0.3686  0.3423
 9719TIP3    H129121   7.056   1.705   1.582  0.7695  0.3420  0.7748
 9719TIP3    H229122   7.139   1.815   1.520 -0.4383  0.5630 -0.5013
 9720TIP3   OH229123   1.715   6.338   2.558  0.2122 -0.3084 -0.6121
 9720TIP3    H129124   1.623   6.316   2.552  0.1230 -0.0926 -0.1151
 9720TIP3    H229125   1.747   6.286   2.632  0.2445  0.3929 -0.1176
 9721TIP3   OH229126   0.300   4.442   0.100 -0.2385  0.0386  0.0475
 9721TIP3    H129127   0.292   4.400   0.014  1.0653 -0.5871  0.2076
 9721TIP3    H229128   0.210   4.453   0.129 -0.7498  1.1399 -1.8061
 9722TIP3   OH229129   1.978   5.789   4.298  0.5023  0.4608  0.4985
 9722TIP3    H129130   1.935   5.833   4.224  2.0077  0.7610 -0.2302
 9722TIP3    H229131   1.941   5.831   4.375  0.3959  1.5786 -0.1379
 9723TIP3   OH229132   6.498   4.110   1.053  0.1932  0.1456 -0.2707
 9723TIP3    H129133   6.450   4.064   0.985  0.0729  0.6666 -0.5345
 9723TIP3    H229134   6.455   4.195   1.061  0.4902  0.2631  0.1338
 9724TIP3   OH229135   0.959   3.482   5.849 -0.3573 -0.3250  0.5405
 9724TIP3    H129136   0.981   3.516   5.762 -1.4142 -2.6459 -0.7152
 9724TIP3    H229137   0.890   3.541   5.881 -0.4998  0.1057 -0.5140
 9725TIP3   OH229138   2.485   2.080   1.212  0.5399  0.0741 -0.3537
 9725TIP3    H129139   2.449   2.011   1.157 -0.3098  1.0253 -1.0348
 9725TIP3    H229140   2.566   2.105   1.169 -0.9367  1.9700 -2.2116
 9726TIP3   OH229141   5.806   4.673   4.405 -0.4647 -0.4908 -0.3382
 9726TIP3    H129142   5.856   4.755   4.407 -1.3325  0.0642  2.4460
 9726TIP3    H229143   5.806   4.648   4.313  1.3147  1.7105 -1.0346
 9727TIP3   OH229144   5.441   1.315   1.151 -0.1965 -0.3158  0.9674
 9727TIP3    H129145   5.384   1.241   1.173 -0.3328  0.0695  1.9644
 9727TIP3    H229146   5.528   1.288   1.180 -0.0130 -0.5642  0.2137
 9728TIP3   OH229147   3.727   0.838   5.267 -0.4125 -0.0593 -0.5730
 9728TIP3    H129148   3.657   0.880   5.316  0.7485  1.7861 -0.3801
 9728TIP3    H229149   3.692   0.826   5.179 -1.7460 -1.3253  0.1120
 9729TIP3   OH229150   5.390   2.275   4.686  0.3814  0.3672 -0.1036
 9729TIP3    H129151   5.319   2.299   4.745 -1.2395  1.2354 -2.2729
 9729TIP3    H229152   5.425   2.358   4.654  1.6197 -0.0688  0.0546
 9730TIP3   OH229153   5.478   3.946   2.887 -0.0063  0.0553  0.0352
 9730TIP3    H129154   5.471   4.035   2.922 -1.3659 -0.1114  0.2418
 9730TIP3    H229155   5.571   3.937   2.864  0.2383  1.3747  0.3894
 9731TIP3   OH229156   5.962   4.534   3.842 -0.0567  0.3240  0.1574
 9731TIP3    H129157   5.935   4.586   3.918 -2.0279 -0.2737 -0.0578
 9731TIP3    H229158   5.909   4.454   3.848  0.1313  0.0304 -1.5447
 9732TIP3   OH229159   6.236   3.664   0.793 -0.2259  0.0583 -0.1529
 9732TIP3    H129160   6.260   3.571   0.794 -0.0461  0.0992  1.2242
 9732TIP3    H229161   6.188   3.677   0.874 -0.6721  1.0758 -0.5640
 9733TIP3   OH229162   4.657   4.858   4.514  0.1646  0.2313  0.2179
 9733TIP3    H129163   4.715   4.860   4.591 -0.7266 -0.4266  0.9253
 9733TIP3    H229164   4.716   4.875   4.440  0.9895  1.2163  1.0599
 9734TIP3   OH229165   1.267   4.710   0.170 -0.5186  0.3617  0.2534
 9734TIP3    H129166   1.350   4.757   0.161  0.7461 -1.6768  0.6535
 9734TIP3    H229167   1.217   4.760   0.235  0.5854  1.3482  0.3669
 9735TIP3   OH229168   5.938   2.367   3.342  0.1289  0.1812 -0.9514
 9735TIP3    H129169   5.921   2.273   3.332 -2.0808  0.7020 -3.3517
 9735TIP3    H229170   6.007   2.386   3.279  0.2777  0.2372 -0.7725
 9736TIP3   OH229171   4.453   0.670   4.938  0.2990  0.4064 -0.1151
 9736TIP3    H129172   4.496   0.753   4.920  0.5492  0.0179 -1.4394
 9736TIP3    H229173   4.407   0.684   5.021 -2.9772  3.2217 -2.1220
 9737TIP3   OH229174   1.057   4.142   4.697 -0.4362 -0.1241  0.5776
 9737TIP3    H129175   1.152   4.156   4.697 -0.4696  0.1763  1.8507
 9737TIP3    H229176   1.034   4.129   4.789 -1.8423  1.3756  0.4964
 9738TIP3   OH229177   0.835   4.767   5.581  0.4614  0.0799 -0.5218
 9738TIP3    H129178   0.838   4.861   5.562  1.7894 -0.0883 -1.2933
 9738TIP3    H229179   0.830   4.761   5.676  3.5295  0.9844 -0.1872
 9739TIP3   OH229180   1.125   0.282   0.955  0.0277 -0.2610  0.3729
 9739TIP3    H129181   1.218   0.295   0.975  0.0620  0.0251  0.0192
 9739TIP3    H229182   1.115   0.311   0.865 -0.2433 -1.0433  0.1365
 9740TIP3   OH229183   1.318   0.066   1.963  0.0522  0.1841  0.7777
 9740TIP3    H129184   1.342   0.146   1.917 -0.2845 -0.9251 -1.4550
 9740TIP3    H229185   1.232   0.086   2.001  0.6038  1.3227  1.4952
 9741TIP3   OH229186   1.292   1.209   3.639  0.1815 -0.1156 -0.0104
 9741TIP3    H129187   1.205   1.172   3.625  0.4098 -1.4653  1.8987
 9741TIP3    H229188   1.297   1.281   3.575 -2.4054  0.1645 -0.0194
 9742TIP3   OH229189   3.275   0.162   4.146 -0.1026  0.1307  0.3831
 9742TIP3    H129190   3.312   0.130   4.228  2.1606 -2.0328 -1.3229
 9742TIP3    H229191   3.181   0.155   4.158  0.1929 -2.0603  2.1145
 9743TIP3   OH229192   3.383   5.416   2.037  0.3225 -0.0872 -0.1856
 9743TIP3    H129193   3.333   5.403   2.118  0.2106  0.1830 -0.2107
 9743TIP3    H229194   3.326   5.470   1.982  0.6367  0.2142 -0.2194
 9744TIP3   OH229195   7.022   5.945   0.349  0.5912  0.5301  0.6013
 9744TIP3    H129196   6.978   5.973   0.268 -0.3659  1.0796  1.3023
 9744TIP3    H229197   6.991   5.856   0.364  0.8134  0.4055  0.3529
 9745TIP3   OH229198   0.458   1.254   2.165  0.2775  0.1389 -0.4453
 9745TIP3    H129199   0.474   1.159   2.166  0.0315  0.0991  0.6740
 9745TIP3    H229200   0.546   1.293   2.166  0.3722 -0.0835  0.4967
 9746TIP3   OH229201   6.492   3.924   3.592  0.0647 -0.7588  0.2207
 9746TIP3    H129202   6.489   3.839   3.548 -0.0881 -0.7892  0.2886
 9746TIP3    H229203   6.564   3.970   3.550 -1.7855  0.2855 -2.0325
 9747TIP3   OH229204   0.241   4.717   2.492  0.2246 -0.0686  0.6167
 9747TIP3    H129205   0.324   4.754   2.522  1.2397 -2.0059  0.3611
 9747TIP3    H229206   0.261   4.625   2.473 -2.1974 -0.8426  1.4249
 9748TIP3   OH229207   3.626   0.710   3.512 -0.6207 -0.4275 -0.0034
 9748TIP3    H129208   3.552   0.766   3.533 -0.6908 -0.4392 -0.2149
 9748TIP3    H229209   3.699   0.748   3.561 -0.4821  0.3412 -0.7582
 9749TIP3   OH229210   2.212   3.062   0.276  0.4972  0.3073  0.2711
 9749TIP3    H129211   2.280   3.115   0.234  1.3996 -2.6451 -2.3382
 9749TIP3    H229212   2.149   3.044   0.207 -0.6903 -0.5924  1.5342
   7.21177   6.79934   5.88838   0.00000   0.00000  -2.40393   0.00000  -2.40393  -3.39967
