Title t= 210.00000 step= 105000
19942
    1ASP      N    1   1.289   2.337   3.590
    1ASP    HT1    2   1.232   2.288   3.518
    1ASP    HT2    3   1.320   2.430   3.555
    1ASP    HT3    4   1.221   2.355   3.666
    1ASP     CA    5   1.405   2.254   3.635
    1ASP     HA    6   1.482   2.324   3.664
    1ASP     CB    7   1.357   2.169   3.759
    1ASP    HB1    8   1.285   2.090   3.730
    1ASP    HB2    9   1.316   2.238   3.836
    1ASP     CG   10   1.480   2.105   3.814
    1ASP    OD1   11   1.465   2.003   3.886
    1ASP    OD2   12   1.598   2.143   3.783
    1ASP      C   13   1.460   2.169   3.514
    1ASP      O   14   1.543   2.217   3.438
    2ALA      N   15   1.416   2.047   3.499
    2ALA     HN   16   1.367   2.003   3.574
    2ALA     CA   17   1.463   1.956   3.394
    2ALA     HA   18   1.567   1.978   3.374
    2ALA     CB   19   1.443   1.811   3.445
    2ALA    HB1   20   1.507   1.804   3.536
    2ALA    HB2   21   1.484   1.744   3.366
    2ALA    HB3   22   1.338   1.784   3.469
    2ALA      C   23   1.380   1.977   3.270
    2ALA      O   24   1.259   2.013   3.279
    3ASP      N   25   1.435   1.955   3.149
    3ASP     HN   26   1.528   1.920   3.141
    3ASP     CA   27   1.363   1.972   3.025
    3ASP     HA   28   1.314   2.066   3.044
    3ASP     CB   29   1.461   1.976   2.896
    3ASP    HB1   30   1.394   2.000   2.811
    3ASP    HB2   31   1.497   1.876   2.864
    3ASP     CG   32   1.570   2.075   2.900
    3ASP    OD1   33   1.645   2.085   2.996
    3ASP    OD2   34   1.586   2.144   2.800
    3ASP      C   35   1.249   1.875   3.003
    3ASP      O   36   1.247   1.769   3.065
    4GLY      N   37   1.152   1.927   2.931
    4GLY     HN   38   1.158   2.025   2.911
    4GLY     CA   39   1.032   1.848   2.887
    4GLY    HA1   40   0.972   1.908   2.820
    4GLY    HA2   41   0.970   1.823   2.972
    4GLY      C   42   1.049   1.723   2.801
    4GLY      O   43   1.159   1.699   2.746
    5PRO      N   44   0.952   1.634   2.778
    5PRO     CD   45   0.833   1.638   2.868
    5PRO    HD1   46   0.765   1.723   2.846
    5PRO    HD2   47   0.860   1.626   2.975
    5PRO     CA   48   0.932   1.542   2.667
    5PRO     HA   49   1.001   1.461   2.679
    5PRO     CB   50   0.787   1.500   2.681
    5PRO    HB1   51   0.777   1.397   2.642
    5PRO    HB2   52   0.720   1.571   2.628
    5PRO     CG   53   0.761   1.506   2.831
    5PRO    HG1   54   0.651   1.503   2.844
    5PRO    HG2   55   0.799   1.420   2.891
    5PRO      C   56   0.968   1.600   2.526
    5PRO      O   57   0.908   1.703   2.493
    6GLY      N   58   1.052   1.530   2.444
    6GLY     HN   59   1.094   1.449   2.484
    6GLY     CA   60   1.066   1.552   2.305
    6GLY    HA1   61   1.165   1.518   2.277
    6GLY    HA2   62   1.040   1.654   2.282
    6GLY      C   63   0.967   1.471   2.227
    6GLY      O   64   0.870   1.410   2.280
    7ASP      N   65   0.977   1.470   2.098
    7ASP     HN   66   1.053   1.521   2.059
    7ASP     CA   67   0.908   1.381   2.001
    7ASP     HA   68   0.842   1.449   1.950
    7ASP     CB   69   1.022   1.358   1.896
    7ASP    HB1   70   1.117   1.312   1.931
    7ASP    HB2   71   1.059   1.456   1.859
    7ASP     CG   72   0.975   1.289   1.767
    7ASP    OD1   73   0.854   1.290   1.747
    7ASP    OD2   74   1.061   1.242   1.691
    7ASP      C   75   0.835   1.251   2.039
    7ASP      O   76   0.901   1.162   2.088
    8PRO      N   77   0.708   1.234   2.020
    8PRO     CD   78   0.612   1.337   1.972
    8PRO    HD1   79   0.614   1.323   1.862
    8PRO    HD2   80   0.637   1.443   1.993
    8PRO     CA   81   0.636   1.106   2.044
    8PRO     HA   82   0.648   1.094   2.151
    8PRO     CB   83   0.483   1.136   2.020
    8PRO    HB1   84   0.408   1.100   2.094
    8PRO    HB2   85   0.456   1.099   1.919
    8PRO     CG   86   0.475   1.285   2.022
    8PRO    HG1   87   0.386   1.328   1.971
    8PRO    HG2   88   0.476   1.323   2.126
    8PRO      C   89   0.695   0.965   2.000
    8PRO      O   90   0.653   0.860   2.051
    9ASP      N   91   0.782   0.970   1.901
    9ASP     HN   92   0.804   1.057   1.857
    9ASP     CA   93   0.842   0.852   1.836
    9ASP     HA   94   0.781   0.769   1.868
    9ASP     CB   95   0.836   0.851   1.680
    9ASP    HB1   96   0.890   0.760   1.647
    9ASP    HB2   97   0.889   0.936   1.633
    9ASP     CG   98   0.699   0.830   1.623
    9ASP    OD1   99   0.691   0.822   1.496
    9ASP    OD2  100   0.604   0.815   1.700
    9ASP      C  101   0.977   0.830   1.891
    9ASP      O  102   1.039   0.727   1.866
   10ALA      N  103   1.029   0.925   1.976
   10ALA     HN  104   0.970   1.002   2.000
   10ALA     CA  105   1.168   0.918   2.029
   10ALA     HA  106   1.228   0.881   1.947
   10ALA     CB  107   1.237   1.055   2.057
   10ALA    HB1  108   1.235   1.114   1.964
   10ALA    HB2  109   1.344   1.062   2.089
   10ALA    HB3  110   1.181   1.108   2.136
   10ALA      C  111   1.185   0.810   2.139
   10ALA      O  112   1.094   0.797   2.224
   11GLY      N  113   1.295   0.736   2.134
   11GLY     HN  114   1.364   0.741   2.063
   11GLY     CA  115   1.324   0.637   2.244
   11GLY    HA1  116   1.397   0.564   2.214
   11GLY    HA2  117   1.226   0.600   2.270
   11GLY      C  118   1.366   0.693   2.378
   11GLY    OT1  119   1.289   0.685   2.473
   11GLY    OT2  120   1.477   0.744   2.393
   12LIT    LIT  121   4.192   4.122   1.887
   13LIT    LIT  122   1.629   2.827   1.828
   14LIT    LIT  123   0.979   4.768   4.156
   15LIT    LIT  124   5.944   0.144   4.679
   16LIT    LIT  125   0.148   1.159   3.669
   17LIT    LIT  126   3.626   5.469   3.420
   18LIT    LIT  127   1.946   3.277   2.568
   19LIT    LIT  128   0.594   0.712   1.378
   20LIT    LIT  129   2.429   1.446   3.619
   21LIT    LIT  130   0.581   5.836   4.592
   22LIT    LIT  131   6.027   3.423   2.063
   23LIT    LIT  132   6.164   0.782   2.523
   24LIT    LIT  133   3.803   2.026   0.083
   25LIT    LIT  134   1.562   4.361   1.640
   26LIT    LIT  135   2.491   1.558   5.096
   27LIT    LIT  136   2.273   0.022   3.607
   28LIT    LIT  137   1.653   1.975   3.868
   29LIT    LIT  138   2.038   5.048   1.501
   30LIT    LIT  139   2.076   0.388   3.929
   31LIT    LIT  140   4.296   3.556   2.948
   32LIT    LIT  141   0.753   0.239   2.089
   33LIT    LIT  142   5.628   4.588   5.236
   34CLA    CLA  143   2.115   2.553   1.413
   35CLA    CLA  144   5.940   0.925   3.520
   36CLA    CLA  145   4.443   2.806   3.890
   37CLA    CLA  146   5.965   1.506   4.349
   38CLA    CLA  147   2.504   2.439   4.234
   39CLA    CLA  148   0.169   5.783   3.168
   40CLA    CLA  149   0.768   1.184   4.856
   41CLA    CLA  150   1.296   2.566   0.653
   42CLA    CLA  151   4.374   5.001   1.909
   43CLA    CLA  152   1.082   1.844   5.071
   44CLA    CLA  153   4.568   0.500   1.239
   45CLA    CLA  154   2.077   0.944   4.110
   46CLA    CLA  155   3.448   2.084   3.879
   47CLA    CLA  156   4.814   4.478  -0.005
   48CLA    CLA  157   3.316   0.297   4.225
   49CLA    CLA  158   6.046   1.140   1.928
   50CLA    CLA  159   1.450   2.365   0.011
   51CLA    CLA  160   2.008   5.463   1.940
   52TIP3   OH2  161   1.616   1.156   4.773
   52TIP3    H1  162   1.609   1.175   4.867
   52TIP3    H2  163   1.527   1.169   4.740
   53TIP3   OH2  164   1.391   4.182   2.869
   53TIP3    H1  165   1.371   4.172   2.775
   53TIP3    H2  166   1.367   4.273   2.888
   54TIP3   OH2  167   1.807   0.708   3.190
   54TIP3    H1  168   1.849   0.784   3.148
   54TIP3    H2  169   1.880   0.658   3.227
   55TIP3   OH2  170   4.575   5.172   1.532
   55TIP3    H1  171   4.557   5.264   1.518
   55TIP3    H2  172   4.492   5.135   1.562
   56TIP3   OH2  173   1.296   5.927   0.638
   56TIP3    H1  174   1.387   5.920   0.610
   56TIP3    H2  175   1.246   5.930   0.556
   57TIP3   OH2  176   0.382   3.403   4.652
   57TIP3    H1  177   0.334   3.412   4.570
   57TIP3    H2  178   0.317   3.422   4.720
   58TIP3   OH2  179   5.094   4.438   4.939
   58TIP3    H1  180   5.133   4.495   4.873
   58TIP3    H2  181   5.018   4.488   4.972
   59TIP3   OH2  182   3.834   2.811   5.154
   59TIP3    H1  183   3.740   2.815   5.136
   59TIP3    H2  184   3.872   2.882   5.103
   60TIP3   OH2  185   1.795   1.534   4.850
   60TIP3    H1  186   1.852   1.460   4.830
   60TIP3    H2  187   1.734   1.538   4.776
   61TIP3   OH2  188   6.189   5.679   0.279
   61TIP3    H1  189   6.195   5.614   0.209
   61TIP3    H2  190   6.233   5.756   0.245
   62TIP3   OH2  191   5.460   3.276   2.595
   62TIP3    H1  192   5.382   3.289   2.541
   62TIP3    H2  193   5.483   3.364   2.625
   63TIP3   OH2  194   4.137   5.690   1.073
   63TIP3    H1  195   4.091   5.676   1.156
   63TIP3    H2  196   4.193   5.766   1.089
   64TIP3   OH2  197   1.446   5.172   1.773
   64TIP3    H1  198   1.382   5.242   1.760
   64TIP3    H2  199   1.478   5.185   1.862
   65TIP3   OH2  200   4.834   1.393   1.798
   65TIP3    H1  201   4.862   1.439   1.877
   65TIP3    H2  202   4.890   1.426   1.728
   66TIP3   OH2  203   1.738   5.798   4.564
   66TIP3    H1  204   1.741   5.893   4.563
   66TIP3    H2  205   1.807   5.771   4.503
   67TIP3   OH2  206   2.209   0.426   3.800
   67TIP3    H1  207   2.279   0.490   3.814
   67TIP3    H2  208   2.206   0.416   3.704
   68TIP3   OH2  209   2.863   2.776   2.691
   68TIP3    H1  210   2.907   2.761   2.774
   68TIP3    H2  211   2.913   2.846   2.649
   69TIP3   OH2  212   1.798   3.270   0.613
   69TIP3    H1  213   1.735   3.240   0.548
   69TIP3    H2  214   1.880   3.225   0.591
   70TIP3   OH2  215   3.988   5.875   3.936
   70TIP3    H1  216   3.949   5.962   3.941
   70TIP3    H2  217   3.916   5.815   3.956
   71TIP3   OH2  218   5.340   1.161   1.850
   71TIP3    H1  219   5.341   1.244   1.898
   71TIP3    H2  220   5.272   1.172   1.784
   72TIP3   OH2  221   5.408   4.387   2.451
   72TIP3    H1  222   5.356   4.314   2.486
   72TIP3    H2  223   5.435   4.436   2.529
   73TIP3   OH2  224   6.234   3.496   4.573
   73TIP3    H1  225   6.217   3.428   4.508
   73TIP3    H2  226   6.222   3.452   4.657
   74TIP3   OH2  227   5.522   1.404   2.327
   74TIP3    H1  228   5.608   1.363   2.330
   74TIP3    H2  229   5.472   1.360   2.395
   75TIP3   OH2  230   6.212   1.370   1.036
   75TIP3    H1  231   6.213   1.403   0.946
   75TIP3    H2  232   6.302   1.343   1.052
   76TIP3   OH2  233   2.226   4.880   4.044
   76TIP3    H1  234   2.176   4.849   4.119
   76TIP3    H2  235   2.311   4.906   4.081
   77TIP3   OH2  236   2.094   4.035   2.387
   77TIP3    H1  237   2.135   3.998   2.309
   77TIP3    H2  238   2.000   4.020   2.374
   78TIP3   OH2  239   4.208   2.535   3.142
   78TIP3    H1  240   4.251   2.620   3.140
   78TIP3    H2  241   4.138   2.545   3.206
   79TIP3   OH2  242   3.852   0.947   0.815
   79TIP3    H1  243   3.810   0.862   0.799
   79TIP3    H2  244   3.868   0.982   0.728
   80TIP3   OH2  245   5.362   4.486   0.591
   80TIP3    H1  246   5.289   4.535   0.628
   80TIP3    H2  247   5.367   4.517   0.500
   81TIP3   OH2  248   1.419   3.560   3.819
   81TIP3    H1  249   1.451   3.650   3.826
   81TIP3    H2  250   1.479   3.509   3.874
   82TIP3   OH2  251   0.194   2.457   4.340
   82TIP3    H1  252   0.182   2.369   4.305
   82TIP3    H2  253   0.275   2.488   4.300
   83TIP3   OH2  254   5.168   3.648   2.944
   83TIP3    H1  255   5.248   3.696   2.967
   83TIP3    H2  256   5.118   3.710   2.891
   84TIP3   OH2  257   0.478   3.047   2.533
   84TIP3    H1  258   0.458   2.963   2.574
   84TIP3    H2  259   0.554   3.080   2.583
   85TIP3   OH2  260   6.312   2.097   5.100
   85TIP3    H1  261   6.382   2.109   5.036
   85TIP3    H2  262   6.239   2.059   5.049
   86TIP3   OH2  263   3.424   3.632   1.637
   86TIP3    H1  264   3.436   3.592   1.551
   86TIP3    H2  265   3.434   3.726   1.621
   87TIP3   OH2  266   0.492   3.500   2.898
   87TIP3    H1  267   0.479   3.412   2.933
   87TIP3    H2  268   0.431   3.506   2.825
   88TIP3   OH2  269   1.880   1.339   3.239
   88TIP3    H1  270   1.914   1.253   3.212
   88TIP3    H2  271   1.849   1.379   3.159
   89TIP3   OH2  272   0.238   5.961   0.481
   89TIP3    H1  273   0.308   5.902   0.454
   89TIP3    H2  274   0.223   5.939   0.574
   90TIP3   OH2  275   5.847   5.546   2.040
   90TIP3    H1  276   5.933   5.503   2.034
   90TIP3    H2  277   5.865   5.637   2.016
   91TIP3   OH2  278   1.800   1.572   4.493
   91TIP3    H1  279   1.707   1.557   4.510
   91TIP3    H2  280   1.843   1.490   4.517
   92TIP3   OH2  281   2.903   0.346   4.380
   92TIP3    H1  282   2.828   0.331   4.437
   92TIP3    H2  283   2.871   0.327   4.291
   93TIP3   OH2  284   4.933   4.706   3.278
   93TIP3    H1  285   4.938   4.796   3.309
   93TIP3    H2  286   5.025   4.681   3.266
   94TIP3   OH2  287   4.888   4.235   2.143
   94TIP3    H1  288   4.861   4.225   2.234
   94TIP3    H2  289   4.958   4.301   2.146
   95TIP3   OH2  290   3.444   4.006   3.566
   95TIP3    H1  291   3.481   4.083   3.523
   95TIP3    H2  292   3.499   3.934   3.537
   96TIP3   OH2  293   0.799   5.784   1.221
   96TIP3    H1  294   0.775   5.796   1.313
   96TIP3    H2  295   0.884   5.826   1.213
   97TIP3   OH2  296   0.323   1.033   4.895
   97TIP3    H1  297   0.272   1.032   4.976
   97TIP3    H2  298   0.262   1.003   4.827
   98TIP3   OH2  299   1.242   1.482   4.188
   98TIP3    H1  300   1.308   1.514   4.250
   98TIP3    H2  301   1.289   1.476   4.104
   99TIP3   OH2  302   1.193   1.622   1.999
   99TIP3    H1  303   1.243   1.693   2.038
   99TIP3    H2  304   1.228   1.614   1.910
  100TIP3   OH2  305   5.988   3.440   4.007
  100TIP3    H1  306   6.079   3.428   3.980
  100TIP3    H2  307   5.946   3.356   3.988
  101TIP3   OH2  308   1.052   1.300   3.440
  101TIP3    H1  309   1.033   1.309   3.347
  101TIP3    H2  310   1.088   1.385   3.466
  102TIP3   OH2  311   0.929   4.562   0.374
  102TIP3    H1  312   1.014   4.526   0.350
  102TIP3    H2  313   0.916   4.636   0.314
  103TIP3   OH2  314   2.122   5.071   3.857
  103TIP3    H1  315   2.148   5.001   3.917
  103TIP3    H2  316   2.157   5.151   3.898
  104TIP3   OH2  317   4.424   0.343   0.783
  104TIP3    H1  318   4.476   0.341   0.703
  104TIP3    H2  319   4.450   0.265   0.831
  105TIP3   OH2  320   2.425   5.803   4.106
  105TIP3    H1  321   2.340   5.826   4.069
  105TIP3    H2  322   2.460   5.886   4.140
  106TIP3   OH2  323   6.263   2.938   3.192
  106TIP3    H1  324   6.335   2.969   3.137
  106TIP3    H2  325   6.193   2.916   3.131
  107TIP3   OH2  326   1.016   0.072   2.640
  107TIP3    H1  327   0.995   0.143   2.701
  107TIP3    H2  328   1.107   0.088   2.615
  108TIP3   OH2  329   0.400   2.651   3.338
  108TIP3    H1  330   0.414   2.620   3.427
  108TIP3    H2  331   0.425   2.576   3.283
  109TIP3   OH2  332   4.470   1.115   2.153
  109TIP3    H1  333   4.555   1.160   2.153
  109TIP3    H2  334   4.408   1.180   2.120
  110TIP3   OH2  335   4.108   0.872   3.320
  110TIP3    H1  336   4.126   0.778   3.327
  110TIP3    H2  337   4.123   0.907   3.407
  111TIP3   OH2  338   5.929   4.863   2.932
  111TIP3    H1  339   5.886   4.780   2.912
  111TIP3    H2  340   5.945   4.859   3.026
  112TIP3   OH2  341   5.640   4.122   1.633
  112TIP3    H1  342   5.672   4.195   1.685
  112TIP3    H2  343   5.717   4.068   1.616
  113TIP3   OH2  344   6.214   4.552   2.162
  113TIP3    H1  345   6.165   4.608   2.221
  113TIP3    H2  346   6.156   4.537   2.088
  114TIP3   OH2  347   5.729   1.607   4.172
  114TIP3    H1  348   5.808   1.588   4.223
  114TIP3    H2  349   5.710   1.698   4.191
  115TIP3   OH2  350   4.437   2.019   3.476
  115TIP3    H1  351   4.368   1.962   3.441
  115TIP3    H2  352   4.448   1.989   3.566
  116TIP3   OH2  353   3.325   2.498   1.747
  116TIP3    H1  354   3.329   2.561   1.675
  116TIP3    H2  355   3.272   2.542   1.814
  117TIP3   OH2  356   5.044   5.878   1.262
  117TIP3    H1  357   5.105   5.877   1.189
  117TIP3    H2  358   5.063   5.798   1.311
  118TIP3   OH2  359   3.156   5.051   3.707
  118TIP3    H1  360   3.230   4.992   3.690
  118TIP3    H2  361   3.112   5.012   3.782
  119TIP3   OH2  362   2.013   3.903   1.000
  119TIP3    H1  363   2.075   3.966   1.037
  119TIP3    H2  364   1.927   3.944   1.011
  120TIP3   OH2  365   5.398   2.286   4.813
  120TIP3    H1  366   5.340   2.256   4.743
  120TIP3    H2  367   5.362   2.370   4.839
  121TIP3   OH2  368   4.898   0.644   2.855
  121TIP3    H1  369   4.881   0.717   2.915
  121TIP3    H2  370   4.976   0.601   2.891
  122TIP3   OH2  371   0.543   4.082   4.363
  122TIP3    H1  372   0.595   4.110   4.288
  122TIP3    H2  373   0.605   4.032   4.417
  123TIP3   OH2  374   4.791   2.192   4.548
  123TIP3    H1  375   4.794   2.278   4.506
  123TIP3    H2  376   4.751   2.134   4.484
  124TIP3   OH2  377   3.571   5.301   2.268
  124TIP3    H1  378   3.517   5.343   2.202
  124TIP3    H2  379   3.647   5.268   2.220
  125TIP3   OH2  380   4.118   3.956   1.449
  125TIP3    H1  381   4.071   3.899   1.509
  125TIP3    H2  382   4.203   3.913   1.437
  126TIP3   OH2  383   0.120   4.420   2.183
  126TIP3    H1  384   0.097   4.328   2.190
  126TIP3    H2  385   0.036   4.466   2.178
  127TIP3   OH2  386   1.381   0.226   1.286
  127TIP3    H1  387   1.396   0.273   1.203
  127TIP3    H2  388   1.432   0.276   1.350
  128TIP3   OH2  389   3.042   5.403   2.037
  128TIP3    H1  390   3.075   5.353   2.112
  128TIP3    H2  391   3.087   5.365   1.962
  129TIP3   OH2  392   4.044   1.777   1.149
  129TIP3    H1  393   3.958   1.735   1.141
  129TIP3    H2  394   4.040   1.822   1.234
  130TIP3   OH2  395   3.156   0.140   0.237
  130TIP3    H1  396   3.093   0.111   0.172
  130TIP3    H2  397   3.128   0.229   0.260
  131TIP3   OH2  398   2.189   1.224   4.720
  131TIP3    H1  399   2.275   1.226   4.677
  131TIP3    H2  400   2.136   1.169   4.663
  132TIP3   OH2  401   4.257   2.129   0.415
  132TIP3    H1  402   4.317   2.168   0.351
  132TIP3    H2  403   4.263   2.186   0.491
  133TIP3   OH2  404   3.254   1.497   2.429
  133TIP3    H1  405   3.343   1.492   2.463
  133TIP3    H2  406   3.208   1.425   2.472
  134TIP3   OH2  407   2.957   1.823   4.406
  134TIP3    H1  408   3.051   1.833   4.421
  134TIP3    H2  409   2.949   1.744   4.352
  135TIP3   OH2  410   4.791   2.051   1.100
  135TIP3    H1  411   4.841   1.971   1.085
  135TIP3    H2  412   4.773   2.085   1.012
  136TIP3   OH2  413   5.589   2.589   4.745
  136TIP3    H1  414   5.604   2.495   4.758
  136TIP3    H2  415   5.620   2.606   4.656
  137TIP3   OH2  416  -0.005   1.332   0.463
  137TIP3    H1  417  -0.032   1.410   0.415
  137TIP3    H2  418   0.075   1.304   0.420
  138TIP3   OH2  419   3.948   5.266   4.952
  138TIP3    H1  420   3.895   5.344   4.966
  138TIP3    H2  421   3.977   5.239   5.039
  139TIP3   OH2  422   5.767   0.497   2.089
  139TIP3    H1  423   5.731   0.409   2.082
  139TIP3    H2  424   5.852   0.492   2.045
  140TIP3   OH2  425   5.310   2.251   2.970
  140TIP3    H1  426   5.376   2.202   3.018
  140TIP3    H2  427   5.354   2.332   2.943
  141TIP3   OH2  428   4.714   0.126   2.919
  141TIP3    H1  429   4.721   0.186   2.994
  141TIP3    H2  430   4.744   0.178   2.845
  142TIP3   OH2  431   4.450   5.157   3.498
  142TIP3    H1  432   4.450   5.122   3.587
  142TIP3    H2  433   4.541   5.146   3.468
  143TIP3   OH2  434   0.257   1.794   2.060
  143TIP3    H1  435   0.253   1.812   2.154
  143TIP3    H2  436   0.284   1.703   2.054
  144TIP3   OH2  437   1.300   5.915   2.359
  144TIP3    H1  438   1.314   5.981   2.292
  144TIP3    H2  439   1.219   5.942   2.402
  145TIP3   OH2  440   5.914   4.143   1.245
  145TIP3    H1  441   5.984   4.198   1.210
  145TIP3    H2  442   5.884   4.091   1.170
  146TIP3   OH2  443   2.863   4.295   4.828
  146TIP3    H1  444   2.958   4.291   4.819
  146TIP3    H2  445   2.835   4.204   4.831
  147TIP3   OH2  446   4.603   2.919   2.585
  147TIP3    H1  447   4.566   2.962   2.662
  147TIP3    H2  448   4.632   2.833   2.616
  148TIP3   OH2  449   0.554   3.056   1.749
  148TIP3    H1  450   0.581   2.975   1.792
  148TIP3    H2  451   0.459   3.058   1.758
  149TIP3   OH2  452   2.245   2.671   3.378
  149TIP3    H1  453   2.249   2.712   3.292
  149TIP3    H2  454   2.262   2.742   3.440
  150TIP3   OH2  455   6.058   0.856   3.001
  150TIP3    H1  456   6.131   0.799   2.978
  150TIP3    H2  457   6.013   0.809   3.072
  151TIP3   OH2  458   4.803   1.540   2.377
  151TIP3    H1  459   4.843   1.601   2.315
  151TIP3    H2  460   4.854   1.459   2.368
  152TIP3   OH2  461   0.864   1.482   0.118
  152TIP3    H1  462   0.873   1.555   0.058
  152TIP3    H2  463   0.897   1.406   0.070
  153TIP3   OH2  464   0.889   0.789   3.786
  153TIP3    H1  465   0.841   0.759   3.708
  153TIP3    H2  466   0.874   0.720   3.851
  154TIP3   OH2  467   0.350   4.564   2.487
  154TIP3    H1  468   0.395   4.629   2.541
  154TIP3    H2  469   0.259   4.594   2.485
  155TIP3   OH2  470   2.238   3.009   0.565
  155TIP3    H1  471   2.160   3.021   0.618
  155TIP3    H2  472   2.261   3.098   0.536
  156TIP3   OH2  473   0.846   2.204   4.047
  156TIP3    H1  474   0.908   2.226   4.116
  156TIP3    H2  475   0.873   2.257   3.972
  157TIP3   OH2  476   1.977   3.144   0.962
  157TIP3    H1  477   2.021   3.096   1.032
  157TIP3    H2  478   1.991   3.236   0.984
  158TIP3   OH2  479   0.606   3.126   0.587
  158TIP3    H1  480   0.534   3.189   0.583
  158TIP3    H2  481   0.668   3.158   0.521
  159TIP3   OH2  482   5.306   2.572   3.597
  159TIP3    H1  483   5.338   2.483   3.614
  159TIP3    H2  484   5.254   2.564   3.518
  160TIP3   OH2  485   5.464   5.153   0.848
  160TIP3    H1  486   5.460   5.107   0.931
  160TIP3    H2  487   5.416   5.234   0.863
  161TIP3   OH2  488   4.277   0.666   2.478
  161TIP3    H1  489   4.263   0.687   2.385
  161TIP3    H2  490   4.364   0.628   2.481
  162TIP3   OH2  491   1.575   3.769   2.646
  162TIP3    H1  492   1.561   3.843   2.704
  162TIP3    H2  493   1.556   3.802   2.558
  163TIP3   OH2  494   2.452   0.412   2.333
  163TIP3    H1  495   2.499   0.396   2.415
  163TIP3    H2  496   2.466   0.333   2.282
  164TIP3   OH2  497   4.533   0.970   1.888
  164TIP3    H1  498   4.508   1.014   1.969
  164TIP3    H2  499   4.622   0.999   1.870
  165TIP3   OH2  500   3.268   1.929  -0.010
  165TIP3    H1  501   3.242   1.982   0.065
  165TIP3    H2  502   3.257   1.987  -0.085
  166TIP3   OH2  503   1.619   5.379   4.440
  166TIP3    H1  504   1.610   5.393   4.534
  166TIP3    H2  505   1.710   5.399   4.421
  167TIP3   OH2  506   1.309   1.630   5.090
  167TIP3    H1  507   1.257   1.704   5.056
  167TIP3    H2  508   1.292   1.630   5.184
  168TIP3   OH2  509   0.868   1.903   4.418
  168TIP3    H1  510   0.906   1.841   4.356
  168TIP3    H2  511   0.877   1.861   4.504
  169TIP3   OH2  512   3.965   0.889   1.988
  169TIP3    H1  513   3.999   0.878   2.077
  169TIP3    H2  514   4.037   0.864   1.931
  170TIP3   OH2  515   5.523   1.572   2.783
  170TIP3    H1  516   5.474   1.596   2.861
  170TIP3    H2  517   5.495   1.483   2.764
  171TIP3   OH2  518   4.081   5.081   0.504
  171TIP3    H1  519   3.993   5.057   0.477
  171TIP3    H2  520   4.138   5.017   0.460
  172TIP3   OH2  521   1.798   4.613   2.502
  172TIP3    H1  522   1.829   4.650   2.585
  172TIP3    H2  523   1.878   4.589   2.455
  173TIP3   OH2  524   2.546   1.762   1.419
  173TIP3    H1  525   2.476   1.825   1.399
  173TIP3    H2  526   2.504   1.676   1.413
  174TIP3   OH2  527   5.385   1.650   1.778
  174TIP3    H1  528   5.329   1.574   1.760
  174TIP3    H2  529   5.324   1.724   1.783
  175TIP3   OH2  530   6.096   1.799   0.647
  175TIP3    H1  531   6.066   1.821   0.559
  175TIP3    H2  532   6.116   1.705   0.643
  176TIP3   OH2  533   6.142   2.933   2.873
  176TIP3    H1  534   6.079   2.999   2.844
  176TIP3    H2  535   6.094   2.883   2.939
  177TIP3   OH2  536   4.985   5.662   0.338
  177TIP3    H1  537   5.073   5.628   0.351
  177TIP3    H2  538   4.936   5.589   0.299
  178TIP3   OH2  539   1.739   2.740   2.422
  178TIP3    H1  540   1.669   2.745   2.487
  178TIP3    H2  541   1.809   2.692   2.465
  179TIP3   OH2  542   5.782   1.152   1.723
  179TIP3    H1  543   5.776   1.247   1.729
  179TIP3    H2  544   5.855   1.129   1.781
  180TIP3   OH2  545   0.626   4.158   3.211
  180TIP3    H1  546   0.703   4.180   3.263
  180TIP3    H2  547   0.644   4.070   3.179
  181TIP3   OH2  548   5.936   2.334   4.674
  181TIP3    H1  549   5.918   2.298   4.587
  181TIP3    H2  550   6.025   2.305   4.693
  182TIP3   OH2  551   3.925   4.825   0.126
  182TIP3    H1  552   3.983   4.848   0.054
  182TIP3    H2  553   3.842   4.803   0.084
  183TIP3   OH2  554   0.065   0.576   0.157
  183TIP3    H1  555   0.140   0.614   0.202
  183TIP3    H2  556  -0.003   0.571   0.224
  184TIP3   OH2  557   4.971   5.261   1.659
  184TIP3    H1  558   5.054   5.274   1.706
  184TIP3    H2  559   4.922   5.341   1.676
  185TIP3   OH2  560   0.597   1.024   4.642
  185TIP3    H1  561   0.643   1.082   4.703
  185TIP3    H2  562   0.653   1.022   4.564
  186TIP3   OH2  563   4.817   2.965   3.061
  186TIP3    H1  564   4.777   2.995   3.142
  186TIP3    H2  565   4.846   2.876   3.080
  187TIP3   OH2  566   0.063   1.032   1.758
  187TIP3    H1  567   0.004   0.956   1.756
  187TIP3    H2  568   0.145   0.998   1.792
  188TIP3   OH2  569   3.412   0.058   0.179
  188TIP3    H1  570   3.333   0.112   0.177
  188TIP3    H2  571   3.456   0.083   0.261
  189TIP3   OH2  572   6.025   5.291   3.397
  189TIP3    H1  573   5.972   5.212   3.406
  189TIP3    H2  574   6.099   5.265   3.341
  190TIP3   OH2  575   5.602   2.264   1.852
  190TIP3    H1  576   5.573   2.356   1.855
  190TIP3    H2  577   5.697   2.270   1.845
  191TIP3   OH2  578   6.256   1.071   5.047
  191TIP3    H1  579   6.277   1.158   5.013
  191TIP3    H2  580   6.213   1.087   5.131
  192TIP3   OH2  581   2.148   0.597   2.597
  192TIP3    H1  582   2.077   0.652   2.630
  192TIP3    H2  583   2.210   0.592   2.670
  193TIP3   OH2  584   4.556   5.087   4.799
  193TIP3    H1  585   4.496   5.102   4.872
  193TIP3    H2  586   4.642   5.109   4.834
  194TIP3   OH2  587   0.276   0.650   3.912
  194TIP3    H1  588   0.296   0.658   3.818
  194TIP3    H2  589   0.352   0.687   3.956
  195TIP3   OH2  590   3.162   1.694   0.259
  195TIP3    H1  591   3.115   1.653   0.187
  195TIP3    H2  592   3.096   1.746   0.305
  196TIP3   OH2  593   5.177   0.107   1.645
  196TIP3    H1  594   5.212   0.027   1.606
  196TIP3    H2  595   5.194   0.175   1.581
  197TIP3   OH2  596   4.420   4.720   2.100
  197TIP3    H1  597   4.352   4.654   2.112
  197TIP3    H2  598   4.379   4.787   2.045
  198TIP3   OH2  599   5.803   0.980   2.049
  198TIP3    H1  600   5.880   1.002   1.997
  198TIP3    H2  601   5.747   1.058   2.042
  199TIP3   OH2  602   4.912   4.924   0.985
  199TIP3    H1  603   4.856   4.859   1.028
  199TIP3    H2  604   4.854   4.999   0.969
  200TIP3   OH2  605   6.078   3.549   1.287
  200TIP3    H1  606   6.173   3.543   1.294
  200TIP3    H2  607   6.062   3.565   1.194
  201TIP3   OH2  608   5.917   3.737   5.104
  201TIP3    H1  609   5.924   3.792   5.182
  201TIP3    H2  610   5.827   3.747   5.075
  202TIP3   OH2  611   2.186   4.273   2.390
  202TIP3    H1  612   2.218   4.299   2.304
  202TIP3    H2  613   2.135   4.194   2.374
  203TIP3   OH2  614   2.323   0.892   0.200
  203TIP3    H1  615   2.401   0.871   0.251
  203TIP3    H2  616   2.250   0.876   0.259
  204TIP3   OH2  617   0.443   5.389   2.699
  204TIP3    H1  618   0.531   5.420   2.680
  204TIP3    H2  619   0.414   5.348   2.618
  205TIP3   OH2  620   5.775   1.220   1.218
  205TIP3    H1  621   5.792   1.179   1.303
  205TIP3    H2  622   5.859   1.222   1.174
  206TIP3   OH2  623   0.204   4.023   0.783
  206TIP3    H1  624   0.203   4.119   0.784
  206TIP3    H2  625   0.207   4.000   0.690
  207TIP3   OH2  626   2.636   0.985   4.334
  207TIP3    H1  627   2.576   0.916   4.366
  207TIP3    H2  628   2.716   0.973   4.385
  208TIP3   OH2  629   2.337   2.134   5.111
  208TIP3    H1  630   2.252   2.177   5.117
  208TIP3    H2  631   2.401   2.206   5.111
  209TIP3   OH2  632   1.593   5.952   1.473
  209TIP3    H1  633   1.643   6.026   1.438
  209TIP3    H2  634   1.654   5.878   1.466
  210TIP3   OH2  635   2.819   0.505   2.289
  210TIP3    H1  636   2.832   0.509   2.383
  210TIP3    H2  637   2.779   0.419   2.274
  211TIP3   OH2  638   3.899   2.978   0.597
  211TIP3    H1  639   3.909   3.044   0.528
  211TIP3    H2  640   3.967   3.000   0.661
  212TIP3   OH2  641   2.576   5.157   2.283
  212TIP3    H1  642   2.658   5.175   2.236
  212TIP3    H2  643   2.525   5.237   2.274
  213TIP3   OH2  644   5.854   4.889   4.283
  213TIP3    H1  645   5.883   4.979   4.297
  213TIP3    H2  646   5.911   4.855   4.215
  214TIP3   OH2  647   0.248   1.166   0.934
  214TIP3    H1  648   0.335   1.186   0.898
  214TIP3    H2  649   0.263   1.159   1.028
  215TIP3   OH2  650   0.885   4.894   0.531
  215TIP3    H1  651   0.799   4.881   0.490
  215TIP3    H2  652   0.945   4.904   0.457
  216TIP3   OH2  653   6.166   3.442   2.190
  216TIP3    H1  654   6.235   3.505   2.170
  216TIP3    H2  655   6.182   3.416   2.280
  217TIP3   OH2  656   3.138   2.528   0.465
  217TIP3    H1  657   3.101   2.509   0.551
  217TIP3    H2  658   3.115   2.620   0.448
  218TIP3   OH2  659   3.189   2.467   4.022
  218TIP3    H1  660   3.175   2.404   3.952
  218TIP3    H2  661   3.109   2.462   4.074
  219TIP3   OH2  662   1.973   0.922   5.092
  219TIP3    H1  663   2.043   0.950   5.151
  219TIP3    H2  664   1.979   0.826   5.091
  220TIP3   OH2  665   5.836   2.576   4.151
  220TIP3    H1  666   5.772   2.604   4.216
  220TIP3    H2  667   5.920   2.579   4.196
  221TIP3   OH2  668   2.250   1.365   4.257
  221TIP3    H1  669   2.291   1.422   4.192
  221TIP3    H2  670   2.275   1.277   4.230
  222TIP3   OH2  671   3.913   1.191   2.918
  222TIP3    H1  672   3.837   1.150   2.959
  222TIP3    H2  673   3.930   1.269   2.971
  223TIP3   OH2  674   0.244   4.596   2.801
  223TIP3    H1  675   0.189   4.574   2.876
  223TIP3    H2  676   0.241   4.518   2.745
  224TIP3   OH2  677   2.550   3.308   0.615
  224TIP3    H1  678   2.463   3.300   0.653
  224TIP3    H2  679   2.608   3.326   0.689
  225TIP3   OH2  680   2.778   4.057   0.564
  225TIP3    H1  681   2.710   4.123   0.560
  225TIP3    H2  682   2.736   3.976   0.534
  226TIP3   OH2  683   5.579   4.384   3.524
  226TIP3    H1  684   5.584   4.422   3.437
  226TIP3    H2  685   5.595   4.290   3.511
  227TIP3   OH2  686   1.791   1.873   2.980
  227TIP3    H1  687   1.812   1.857   2.888
  227TIP3    H2  688   1.757   1.962   2.982
  228TIP3   OH2  689   3.253   5.317   1.475
  228TIP3    H1  690   3.319   5.357   1.418
  228TIP3    H2  691   3.218   5.244   1.423
  229TIP3   OH2  692   3.176   3.553   3.788
  229TIP3    H1  693   3.161   3.458   3.779
  229TIP3    H2  694   3.263   3.566   3.750
  230TIP3   OH2  695   0.900   0.384   1.429
  230TIP3    H1  696   0.898   0.290   1.412
  230TIP3    H2  697   0.993   0.406   1.428
  231TIP3   OH2  698   3.765   4.523   0.788
  231TIP3    H1  699   3.688   4.566   0.826
  231TIP3    H2  700   3.836   4.586   0.799
  232TIP3   OH2  701   3.101   4.398   3.356
  232TIP3    H1  702   3.007   4.418   3.352
  232TIP3    H2  703   3.105   4.304   3.374
  233TIP3   OH2  704   1.282   5.786   0.363
  233TIP3    H1  705   1.295   5.851   0.293
  233TIP3    H2  706   1.206   5.818   0.411
  234TIP3   OH2  707   6.242   0.923   4.033
  234TIP3    H1  708   6.240   0.948   3.941
  234TIP3    H2  709   6.330   0.889   4.048
  235TIP3   OH2  710   5.193   3.641   3.249
  235TIP3    H1  711   5.142   3.635   3.168
  235TIP3    H2  712   5.214   3.551   3.270
  236TIP3   OH2  713   3.078   5.702   1.988
  236TIP3    H1  714   2.994   5.719   2.031
  236TIP3    H2  715   3.058   5.637   1.921
  237TIP3   OH2  716   2.223   5.396   1.690
  237TIP3    H1  717   2.279   5.350   1.754
  237TIP3    H2  718   2.151   5.432   1.743
  238TIP3   OH2  719   4.686   4.055   4.090
  238TIP3    H1  720   4.676   4.107   4.009
  238TIP3    H2  721   4.768   4.007   4.077
  239TIP3   OH2  722   4.107   0.852   1.753
  239TIP3    H1  723   4.055   0.844   1.673
  239TIP3    H2  724   4.177   0.914   1.731
  240TIP3   OH2  725   3.983   5.201   4.553
  240TIP3    H1  726   4.033   5.176   4.630
  240TIP3    H2  727   3.892   5.200   4.583
  241TIP3   OH2  728   2.161   4.550   2.638
  241TIP3    H1  729   2.112   4.470   2.656
  241TIP3    H2  730   2.129   4.579   2.552
  242TIP3   OH2  731   2.774   3.766   1.210
  242TIP3    H1  732   2.868   3.771   1.229
  242TIP3    H2  733   2.743   3.856   1.214
  243TIP3   OH2  734   3.553   5.797   2.249
  243TIP3    H1  735   3.462   5.783   2.220
  243TIP3    H2  736   3.590   5.855   2.183
  244TIP3   OH2  737   3.584   1.859   4.460
  244TIP3    H1  738   3.585   1.906   4.377
  244TIP3    H2  739   3.666   1.885   4.503
  245TIP3   OH2  740   3.217   3.645   2.463
  245TIP3    H1  741   3.282   3.646   2.393
  245TIP3    H2  742   3.172   3.561   2.452
  246TIP3   OH2  743   4.335   0.501   0.992
  246TIP3    H1  744   4.408   0.501   1.054
  246TIP3    H2  745   4.369   0.456   0.915
  247TIP3   OH2  746   3.923   3.435   2.451
  247TIP3    H1  747   3.883   3.373   2.390
  247TIP3    H2  748   3.881   3.417   2.535
  248TIP3   OH2  749   3.079   2.937   1.078
  248TIP3    H1  750   3.126   2.892   1.148
  248TIP3    H2  751   3.135   3.011   1.055
  249TIP3   OH2  752   2.019   2.054   4.604
  249TIP3    H1  753   2.073   2.060   4.525
  249TIP3    H2  754   2.016   1.960   4.623
  250TIP3   OH2  755   3.772   5.632   1.179
  250TIP3    H1  756   3.711   5.582   1.126
  250TIP3    H2  757   3.741   5.722   1.173
  251TIP3   OH2  758   4.159   1.975   0.919
  251TIP3    H1  759   4.067   2.002   0.926
  251TIP3    H2  760   4.175   1.926   1.000
  252TIP3   OH2  761   1.694   0.086   4.382
  252TIP3    H1  762   1.709   0.006   4.432
  252TIP3    H2  763   1.609   0.074   4.341
  253TIP3   OH2  764   6.342   3.522   1.329
  253TIP3    H1  765   6.432   3.544   1.302
  253TIP3    H2  766   6.343   3.531   1.424
  254TIP3   OH2  767   2.001   5.773   0.824
  254TIP3    H1  768   1.944   5.712   0.871
  254TIP3    H2  769   2.036   5.721   0.751
  255TIP3   OH2  770   4.618   2.233   4.327
  255TIP3    H1  771   4.539   2.225   4.274
  255TIP3    H2  772   4.615   2.322   4.361
  256TIP3   OH2  773   4.215   5.836   3.791
  256TIP3    H1  774   4.121   5.830   3.809
  256TIP3    H2  775   4.227   5.924   3.754
  257TIP3   OH2  776   0.355   2.401   2.803
  257TIP3    H1  777   0.276   2.377   2.852
  257TIP3    H2  778   0.375   2.490   2.831
  258TIP3   OH2  779   6.201   0.825   4.774
  258TIP3    H1  780   6.148   0.829   4.854
  258TIP3    H2  781   6.225   0.916   4.756
  259TIP3   OH2  782   1.598   2.656   1.904
  259TIP3    H1  783   1.645   2.633   1.984
  259TIP3    H2  784   1.510   2.620   1.917
  260TIP3   OH2  785   5.990   0.410   2.332
  260TIP3    H1  786   6.030   0.371   2.409
  260TIP3    H2  787   5.928   0.344   2.301
  261TIP3   OH2  788   1.404   4.126   3.360
  261TIP3    H1  789   1.336   4.068   3.396
  261TIP3    H2  790   1.459   4.069   3.307
  262TIP3   OH2  791   4.925   2.984   4.316
  262TIP3    H1  792   4.848   2.927   4.317
  262TIP3    H2  793   4.903   3.054   4.254
  263TIP3   OH2  794   4.695   4.187   3.774
  263TIP3    H1  795   4.749   4.263   3.796
  263TIP3    H2  796   4.747   4.140   3.708
  264TIP3   OH2  797   1.926   1.759   4.650
  264TIP3    H1  798   1.877   1.687   4.610
  264TIP3    H2  799   1.864   1.799   4.711
  265TIP3   OH2  800   0.782   0.770   4.682
  265TIP3    H1  801   0.833   0.690   4.696
  265TIP3    H2  802   0.713   0.766   4.749
  266TIP3   OH2  803   2.076   1.598   0.035
  266TIP3    H1  804   2.104   1.528  -0.024
  266TIP3    H2  805   2.158   1.633   0.071
  267TIP3   OH2  806   2.171   5.939   1.482
  267TIP3    H1  807   2.229   5.868   1.508
  267TIP3    H2  808   2.223   6.018   1.495
  268TIP3   OH2  809   1.278   1.118   1.707
  268TIP3    H1  810   1.269   1.056   1.634
  268TIP3    H2  811   1.191   1.157   1.716
  269TIP3   OH2  812   5.696   1.870   4.186
  269TIP3    H1  813   5.643   1.937   4.143
  269TIP3    H2  814   5.721   1.908   4.270
  270TIP3   OH2  815   4.270   5.765   1.713
  270TIP3    H1  816   4.337   5.696   1.710
  270TIP3    H2  817   4.218   5.744   1.791
  271TIP3   OH2  818   1.489   2.581   5.142
  271TIP3    H1  819   1.399   2.586   5.174
  271TIP3    H2  820   1.493   2.645   5.071
  272TIP3   OH2  821   1.998   3.036   3.476
  272TIP3    H1  822   2.081   2.988   3.469
  272TIP3    H2  823   1.932   2.974   3.445
  273TIP3   OH2  824   0.527   5.392   0.560
  273TIP3    H1  825   0.551   5.306   0.596
  273TIP3    H2  826   0.474   5.372   0.483
  274TIP3   OH2  827   0.396   0.105   3.490
  274TIP3    H1  828   0.354   0.040   3.433
  274TIP3    H2  829   0.487   0.107   3.461
  275TIP3   OH2  830   2.227   5.875   3.690
  275TIP3    H1  831   2.173   5.882   3.611
  275TIP3    H2  832   2.309   5.836   3.659
  276TIP3   OH2  833   5.422   4.784   4.834
  276TIP3    H1  834   5.361   4.728   4.787
  276TIP3    H2  835   5.368   4.858   4.864
  277TIP3   OH2  836   5.827   3.145   3.551
  277TIP3    H1  837   5.758   3.100   3.502
  277TIP3    H2  838   5.861   3.210   3.490
  278TIP3   OH2  839   0.672   0.965   1.018
  278TIP3    H1  840   0.689   0.913   1.096
  278TIP3    H2  841   0.681   0.903   0.945
  279TIP3   OH2  842   0.368   1.363   2.532
  279TIP3    H1  843   0.403   1.294   2.476
  279TIP3    H2  844   0.396   1.444   2.489
  280TIP3   OH2  845   0.718   0.507   1.815
  280TIP3    H1  846   0.671   0.548   1.743
  280TIP3    H2  847   0.650   0.474   1.873
  281TIP3   OH2  848   4.426   2.204   0.172
  281TIP3    H1  849   4.449   2.191   0.080
  281TIP3    H2  850   4.507   2.187   0.220
  282TIP3   OH2  851   1.596   3.033   4.575
  282TIP3    H1  852   1.588   2.972   4.648
  282TIP3    H2  853   1.515   3.085   4.578
  283TIP3   OH2  854   1.467   2.314   5.045
  283TIP3    H1  855   1.387   2.304   4.993
  283TIP3    H2  856   1.468   2.407   5.068
  284TIP3   OH2  857   1.336   1.684   1.767
  284TIP3    H1  858   1.371   1.598   1.745
  284TIP3    H2  859   1.411   1.734   1.798
  285TIP3   OH2  860   4.738   3.552   1.660
  285TIP3    H1  861   4.731   3.612   1.585
  285TIP3    H2  862   4.657   3.565   1.709
  286TIP3   OH2  863   2.584   1.460   2.284
  286TIP3    H1  864   2.637   1.458   2.363
  286TIP3    H2  865   2.595   1.549   2.250
  287TIP3   OH2  866   6.003   4.785   3.184
  287TIP3    H1  867   5.985   4.691   3.187
  287TIP3    H2  868   6.097   4.792   3.199
  288TIP3   OH2  869   5.754   2.356   3.014
  288TIP3    H1  870   5.841   2.376   2.980
  288TIP3    H2  871   5.770   2.319   3.101
  289TIP3   OH2  872   0.238   0.711   5.042
  289TIP3    H1  873   0.328   0.679   5.052
  289TIP3    H2  874   0.238   0.794   5.089
  290TIP3   OH2  875   4.364   3.053   2.532
  290TIP3    H1  876   4.303   2.998   2.583
  290TIP3    H2  877   4.446   3.004   2.532
  291TIP3   OH2  878   2.825   0.010   2.182
  291TIP3    H1  879   2.855  -0.038   2.104
  291TIP3    H2  880   2.903   0.055   2.214
  292TIP3   OH2  881   0.938   2.373   0.073
  292TIP3    H1  882   0.974   2.310   0.011
  292TIP3    H2  883   0.851   2.340   0.093
  293TIP3   OH2  884   3.706   1.603  -0.005
  293TIP3    H1  885   3.797   1.605   0.023
  293TIP3    H2  886   3.709   1.612  -0.100
  294TIP3   OH2  887   5.030   1.519   3.081
  294TIP3    H1  888   5.052   1.567   3.001
  294TIP3    H2  889   5.042   1.427   3.058
  295TIP3   OH2  890   4.631   5.208   0.338
  295TIP3    H1  891   4.563   5.146   0.310
  295TIP3    H2  892   4.709   5.179   0.292
  296TIP3   OH2  893   1.292   5.710   2.167
  296TIP3    H1  894   1.314   5.786   2.220
  296TIP3    H2  895   1.321   5.635   2.219
  297TIP3   OH2  896   4.837   5.229   3.922
  297TIP3    H1  897   4.924   5.190   3.914
  297TIP3    H2  898   4.780   5.157   3.950
  298TIP3   OH2  899   2.838   4.538   3.567
  298TIP3    H1  900   2.837   4.489   3.650
  298TIP3    H2  901   2.891   4.616   3.586
  299TIP3   OH2  902   2.642   4.520   0.852
  299TIP3    H1  903   2.665   4.542   0.762
  299TIP3    H2  904   2.620   4.604   0.892
  300TIP3   OH2  905   2.415   5.740   0.979
  300TIP3    H1  906   2.473   5.682   1.028
  300TIP3    H2  907   2.463   5.760   0.899
  301TIP3   OH2  908   2.218   1.515   3.981
  301TIP3    H1  909   2.149   1.458   3.945
  301TIP3    H2  910   2.197   1.602   3.947
  302TIP3   OH2  911   5.212   1.621   2.480
  302TIP3    H1  912   5.289   1.676   2.494
  302TIP3    H2  913   5.138   1.682   2.480
  303TIP3   OH2  914   5.649   0.631   0.429
  303TIP3    H1  915   5.570   0.674   0.462
  303TIP3    H2  916   5.671   0.678   0.349
  304TIP3   OH2  917   6.341   5.390   3.010
  304TIP3    H1  918   6.339   5.455   2.940
  304TIP3    H2  919   6.351   5.442   3.090
  305TIP3   OH2  920   4.818   5.747   1.758
  305TIP3    H1  921   4.826   5.777   1.668
  305TIP3    H2  922   4.909   5.742   1.790
  306TIP3   OH2  923   1.898   0.457   2.042
  306TIP3    H1  924   1.840   0.517   2.089
  306TIP3    H2  925   1.916   0.387   2.105
  307TIP3   OH2  926   3.643   1.053   4.554
  307TIP3    H1  927   3.683   1.047   4.467
  307TIP3    H2  928   3.586   0.977   4.560
  308TIP3   OH2  929   5.759   0.028   4.128
  308TIP3    H1  930   5.677   0.053   4.085
  308TIP3    H2  931   5.826   0.079   4.082
  309TIP3   OH2  932   3.390   5.902   1.654
  309TIP3    H1  933   3.302   5.866   1.670
  309TIP3    H2  934   3.430   5.907   1.740
  310TIP3   OH2  935   5.652   5.328   4.299
  310TIP3    H1  936   5.639   5.410   4.348
  310TIP3    H2  937   5.746   5.323   4.286
  311TIP3   OH2  938   5.345   0.915   2.359
  311TIP3    H1  939   5.435   0.948   2.358
  311TIP3    H2  940   5.320   0.911   2.267
  312TIP3   OH2  941   1.968   4.270   3.225
  312TIP3    H1  942   1.987   4.349   3.275
  312TIP3    H2  943   1.874   4.256   3.238
  313TIP3   OH2  944   4.770   3.276   2.362
  313TIP3    H1  945   4.856   3.260   2.324
  313TIP3    H2  946   4.761   3.209   2.430
  314TIP3   OH2  947   4.219   5.246   3.170
  314TIP3    H1  948   4.249   5.321   3.221
  314TIP3    H2  949   4.231   5.171   3.229
  315TIP3   OH2  950   3.487   0.176   3.479
  315TIP3    H1  951   3.471   0.200   3.388
  315TIP3    H2  952   3.451   0.088   3.487
  316TIP3   OH2  953   4.234   5.215   1.425
  316TIP3    H1  954   4.265   5.142   1.371
  316TIP3    H2  955   4.169   5.260   1.371
  317TIP3   OH2  956   1.033   3.655   3.558
  317TIP3    H1  957   1.049   3.562   3.540
  317TIP3    H2  958   1.086   3.674   3.636
  318TIP3   OH2  959   2.500   5.505   2.995
  318TIP3    H1  960   2.416   5.460   2.987
  318TIP3    H2  961   2.534   5.478   3.081
  319TIP3   OH2  962   3.021   4.819   2.908
  319TIP3    H1  963   3.012   4.724   2.916
  319TIP3    H2  964   3.115   4.834   2.900
  320TIP3   OH2  965   2.985   3.443   1.081
  320TIP3    H1  966   2.943   3.413   1.161
  320TIP3    H2  967   3.079   3.435   1.099
  321TIP3   OH2  968   1.218   1.319   0.187
  321TIP3    H1  969   1.184   1.319   0.276
  321TIP3    H2  970   1.195   1.232   0.153
  322TIP3   OH2  971   4.999   3.103   3.270
  322TIP3    H1  972   5.024   3.064   3.354
  322TIP3    H2  973   4.907   3.128   3.282
  323TIP3   OH2  974   4.388   1.550   2.610
  323TIP3    H1  975   4.368   1.486   2.541
  323TIP3    H2  976   4.483   1.542   2.622
  324TIP3   OH2  977   4.426   1.776   2.366
  324TIP3    H1  978   4.341   1.780   2.410
  324TIP3    H2  979   4.485   1.736   2.430
  325TIP3   OH2  980   4.953   3.548   0.946
  325TIP3    H1  981   4.938   3.461   0.983
  325TIP3    H2  982   4.867   3.588   0.943
  326TIP3   OH2  983   4.101   1.184   2.674
  326TIP3    H1  984   4.081   1.236   2.596
  326TIP3    H2  985   4.028   1.201   2.733
  327TIP3   OH2  986   4.762   5.028   0.707
  327TIP3    H1  987   4.705   5.051   0.633
  327TIP3    H2  988   4.761   4.933   0.710
  328TIP3   OH2  989   5.112   2.102   0.988
  328TIP3    H1  990   5.073   2.027   1.032
  328TIP3    H2  991   5.108   2.080   0.895
  329TIP3   OH2  992   5.118   4.777   4.891
  329TIP3    H1  993   5.076   4.721   4.826
  329TIP3    H2  994   5.061   4.854   4.896
  330TIP3   OH2  995   3.896   2.142   4.821
  330TIP3    H1  996   3.805   2.173   4.828
  330TIP3    H2  997   3.933   2.193   4.749
  331TIP3   OH2  998   3.480   2.117   3.575
  331TIP3    H1  999   3.517   2.206   3.566
  331TIP3    H2 1000   3.444   2.115   3.663
  332TIP3   OH2 1001   1.438   2.935   0.288
  332TIP3    H1 1002   1.507   2.970   0.344
  332TIP3    H2 1003   1.413   2.853   0.328
  333TIP3   OH2 1004   3.730   2.775   2.180
  333TIP3    H1 1005   3.781   2.768   2.260
  333TIP3    H2 1006   3.644   2.806   2.209
  334TIP3   OH2 1007   5.196   4.477   0.855
  334TIP3    H1 1008   5.149   4.394   0.866
  334TIP3    H2 1009   5.288   4.454   0.869
  335TIP3   OH2 1010   1.548   1.766   4.315
  335TIP3    H1 1011   1.544   1.683   4.268
  335TIP3    H2 1012   1.477   1.818   4.279
  336TIP3   OH2 1013   4.402   0.199   2.080
  336TIP3    H1 1014   4.384   0.293   2.085
  336TIP3    H2 1015   4.404   0.179   1.986
  337TIP3   OH2 1016   0.149   3.467   0.742
  337TIP3    H1 1017   0.112   3.505   0.662
  337TIP3    H2 1018   0.074   3.459   0.802
  338TIP3   OH2 1019   5.699   2.603   4.396
  338TIP3    H1 1020   5.696   2.508   4.409
  338TIP3    H2 1021   5.631   2.621   4.331
  339TIP3   OH2 1022   3.415   1.814   3.690
  339TIP3    H1 1023   3.436   1.875   3.761
  339TIP3    H2 1024   3.321   1.825   3.676
  340TIP3   OH2 1025   2.377   4.556   5.019
  340TIP3    H1 1026   2.418   4.470   5.004
  340TIP3    H2 1027   2.391   4.573   5.112
  341TIP3   OH2 1028   3.760   1.114   2.605
  341TIP3    H1 1029   3.773   1.071   2.690
  341TIP3    H2 1030   3.822   1.187   2.606
  342TIP3   OH2 1031   3.284   1.080   0.224
  342TIP3    H1 1032   3.268   1.032   0.143
  342TIP3    H2 1033   3.231   1.035   0.290
  343TIP3   OH2 1034   6.071   4.728   2.321
  343TIP3    H1 1035   6.142   4.790   2.337
  343TIP3    H2 1036   6.013   4.739   2.396
  344TIP3   OH2 1037   0.272   5.906   1.003
  344TIP3    H1 1038   0.309   5.936   0.920
  344TIP3    H2 1039   0.275   5.811   0.998
  345TIP3   OH2 1040   0.916   5.319   3.909
  345TIP3    H1 1041   0.978   5.364   3.966
  345TIP3    H2 1042   0.969   5.253   3.863
  346TIP3   OH2 1043   5.273   0.712   4.037
  346TIP3    H1 1044   5.264   0.793   4.088
  346TIP3    H2 1045   5.295   0.645   4.102
  347TIP3   OH2 1046   0.055   2.288   4.762
  347TIP3    H1 1047   0.037   2.371   4.806
  347TIP3    H2 1048   0.136   2.257   4.803
  348TIP3   OH2 1049   5.966   1.849   1.181
  348TIP3    H1 1050   5.976   1.754   1.186
  348TIP3    H2 1051   6.019   1.875   1.105
  349TIP3   OH2 1052   4.987   4.527   2.338
  349TIP3    H1 1053   4.997   4.451   2.395
  349TIP3    H2 1054   5.070   4.534   2.292
  350TIP3   OH2 1055   3.233   5.104   0.997
  350TIP3    H1 1056   3.249   5.158   1.074
  350TIP3    H2 1057   3.150   5.059   1.016
  351TIP3   OH2 1058   0.365   0.765   3.069
  351TIP3    H1 1059   0.453   0.727   3.073
  351TIP3    H2 1060   0.334   0.746   2.980
  352TIP3   OH2 1061   1.901   0.347   2.914
  352TIP3    H1 1062   1.823   0.404   2.918
  352TIP3    H2 1063   1.883   0.288   2.841
  353TIP3   OH2 1064   4.223   3.496   2.788
  353TIP3    H1 1065   4.137   3.453   2.781
  353TIP3    H2 1066   4.259   3.492   2.699
  354TIP3   OH2 1067   5.350   5.317   3.970
  354TIP3    H1 1068   5.300   5.320   3.889
  354TIP3    H2 1069   5.295   5.363   4.034
  355TIP3   OH2 1070   0.831   5.348   1.377
  355TIP3    H1 1071   0.900   5.395   1.331
  355TIP3    H2 1072   0.852   5.359   1.470
  356TIP3   OH2 1073   4.692   2.487   4.109
  356TIP3    H1 1074   4.609   2.509   4.152
  356TIP3    H2 1075   4.710   2.562   4.051
  357TIP3   OH2 1076   3.468   2.518   4.689
  357TIP3    H1 1077   3.539   2.454   4.681
  357TIP3    H2 1078   3.408   2.480   4.753
  358TIP3   OH2 1079   2.524   1.625   4.559
  358TIP3    H1 1080   2.556   1.635   4.469
  358TIP3    H2 1081   2.572   1.550   4.593
  359TIP3   OH2 1082   4.361   4.652   0.808
  359TIP3    H1 1083   4.363   4.727   0.868
  359TIP3    H2 1084   4.283   4.603   0.833
  360TIP3   OH2 1085   6.155   0.632   2.420
  360TIP3    H1 1086   6.241   0.611   2.384
  360TIP3    H2 1087   6.099   0.560   2.391
  361TIP3   OH2 1088   4.521   4.865   5.062
  361TIP3    H1 1089   4.466   4.943   5.068
  361TIP3    H2 1090   4.465   4.799   5.021
  362TIP3   OH2 1091   4.346   1.751   2.080
  362TIP3    H1 1092   4.323   1.663   2.050
  362TIP3    H2 1093   4.380   1.738   2.169
  363TIP3   OH2 1094   0.983   0.264   0.397
  363TIP3    H1 1095   0.988   0.359   0.412
  363TIP3    H2 1096   0.947   0.257   0.308
  364TIP3   OH2 1097   1.169   1.314   2.578
  364TIP3    H1 1098   1.239   1.287   2.519
  364TIP3    H2 1099   1.150   1.236   2.630
  365TIP3   OH2 1100   6.081   0.791   5.029
  365TIP3    H1 1101   6.147   0.844   5.073
  365TIP3    H2 1102   6.095   0.702   5.063
  366TIP3   OH2 1103   1.634   0.679   0.636
  366TIP3    H1 1104   1.695   0.632   0.693
  366TIP3    H2 1105   1.580   0.611   0.597
  367TIP3   OH2 1106   0.524   0.152   4.018
  367TIP3    H1 1107   0.439   0.108   4.028
  367TIP3    H2 1108   0.546   0.142   3.926
  368TIP3   OH2 1109   2.045   4.290   2.645
  368TIP3    H1 1110   1.951   4.273   2.634
  368TIP3    H2 1111   2.084   4.266   2.561
  369TIP3   OH2 1112   5.528   1.648   4.896
  369TIP3    H1 1113   5.485   1.733   4.899
  369TIP3    H2 1114   5.522   1.615   4.986
  370TIP3   OH2 1115   6.265   3.842   3.908
  370TIP3    H1 1116   6.257   3.920   3.852
  370TIP3    H2 1117   6.203   3.857   3.979
  371TIP3   OH2 1118   1.424   0.789   2.923
  371TIP3    H1 1119   1.346   0.789   2.979
  371TIP3    H2 1120   1.436   0.697   2.898
  372TIP3   OH2 1121   4.322   2.644   2.742
  372TIP3    H1 1122   4.404   2.597   2.754
  372TIP3    H2 1123   4.263   2.607   2.807
  373TIP3   OH2 1124   4.096   1.902   0.375
  373TIP3    H1 1125   4.180   1.938   0.345
  373TIP3    H2 1126   4.111   1.881   0.467
  374TIP3   OH2 1127   3.968   2.120   1.557
  374TIP3    H1 1128   3.919   2.061   1.614
  374TIP3    H2 1129   3.973   2.202   1.606
  375TIP3   OH2 1130   1.833   2.198   4.729
  375TIP3    H1 1131   1.896   2.133   4.698
  375TIP3    H2 1132   1.750   2.171   4.691
  376TIP3   OH2 1133   0.017   2.533   4.855
  376TIP3    H1 1134  -0.063   2.572   4.890
  376TIP3    H2 1135   0.080   2.540   4.927
  377TIP3   OH2 1136   0.486   5.731   0.122
  377TIP3    H1 1137   0.557   5.684   0.166
  377TIP3    H2 1138   0.527   5.767   0.043
  378TIP3   OH2 1139   0.950   0.187   3.841
  378TIP3    H1 1140   0.916   0.177   3.930
  378TIP3    H2 1141   1.032   0.236   3.852
  379TIP3   OH2 1142   6.019   0.293   1.541
  379TIP3    H1 1143   6.019   0.199   1.558
  379TIP3    H2 1144   5.935   0.324   1.576
  380TIP3   OH2 1145   2.842   4.563   4.851
  380TIP3    H1 1146   2.819   4.471   4.841
  380TIP3    H2 1147   2.778   4.610   4.799
  381TIP3   OH2 1148   2.634   2.659   4.770
  381TIP3    H1 1149   2.624   2.739   4.718
  381TIP3    H2 1150   2.645   2.690   4.860
  382TIP3   OH2 1151   1.361   1.177   2.469
  382TIP3    H1 1152   1.399   1.118   2.533
  382TIP3    H2 1153   1.434   1.199   2.411
  383TIP3   OH2 1154   3.264   0.376   5.030
  383TIP3    H1 1155   3.273   0.323   4.951
  383TIP3    H2 1156   3.338   0.437   5.027
  384TIP3   OH2 1157   5.415   0.979   2.680
  384TIP3    H1 1158   5.489   0.992   2.619
  384TIP3    H2 1159   5.455   0.942   2.758
  385TIP3   OH2 1160   1.317   2.611   1.494
  385TIP3    H1 1161   1.274   2.613   1.408
  385TIP3    H2 1162   1.403   2.572   1.477
  386TIP3   OH2 1163   4.046   2.500   1.279
  386TIP3    H1 1164   3.990   2.448   1.336
  386TIP3    H2 1165   3.987   2.537   1.213
  387TIP3   OH2 1166   2.752   3.710   4.554
  387TIP3    H1 1167   2.729   3.799   4.530
  387TIP3    H2 1168   2.748   3.709   4.650
  388TIP3   OH2 1169   4.495   4.359   4.125
  388TIP3    H1 1170   4.580   4.356   4.169
  388TIP3    H2 1171   4.442   4.295   4.171
  389TIP3   OH2 1172   6.049   4.899   1.946
  389TIP3    H1 1173   5.968   4.848   1.953
  389TIP3    H2 1174   6.114   4.837   1.916
  390TIP3   OH2 1175   5.949   0.069   3.563
  390TIP3    H1 1176   6.017   0.133   3.581
  390TIP3    H2 1177   5.876   0.095   3.619
  391TIP3   OH2 1178   4.160   0.053   2.094
  391TIP3    H1 1179   4.239   0.094   2.059
  391TIP3    H2 1180   4.182  -0.039   2.104
  392TIP3   OH2 1181   2.548   1.741   2.715
  392TIP3    H1 1182   2.454   1.741   2.693
  392TIP3    H2 1183   2.556   1.810   2.781
  393TIP3   OH2 1184   1.951   5.483   4.917
  393TIP3    H1 1185   2.017   5.465   4.983
  393TIP3    H2 1186   1.882   5.418   4.933
  394TIP3   OH2 1187   0.453   2.951   2.250
  394TIP3    H1 1188   0.476   2.972   2.340
  394TIP3    H2 1189   0.506   2.874   2.228
  395TIP3   OH2 1190   5.219   1.892   4.355
  395TIP3    H1 1191   5.142   1.935   4.393
  395TIP3    H2 1192   5.192   1.801   4.344
  396TIP3   OH2 1193   0.979   3.265   2.341
  396TIP3    H1 1194   1.027   3.253   2.423
  396TIP3    H2 1195   0.895   3.220   2.356
  397TIP3   OH2 1196   3.031   5.425   3.834
  397TIP3    H1 1197   2.944   5.427   3.795
  397TIP3    H2 1198   3.015   5.411   3.928
  398TIP3   OH2 1199   0.107   4.731   2.260
  398TIP3    H1 1200   0.093   4.688   2.175
  398TIP3    H2 1201   0.202   4.741   2.266
  399TIP3   OH2 1202   3.032   1.947   2.801
  399TIP3    H1 1203   2.957   1.997   2.768
  399TIP3    H2 1204   3.108   2.002   2.782
  400TIP3   OH2 1205   4.087   3.322   3.777
  400TIP3    H1 1206   4.082   3.288   3.688
  400TIP3    H2 1207   4.181   3.335   3.793
  401TIP3   OH2 1208   3.818   2.431   0.392
  401TIP3    H1 1209   3.900   2.394   0.427
  401TIP3    H2 1210   3.755   2.360   0.399
  402TIP3   OH2 1211   4.840   1.038   0.232
  402TIP3    H1 1212   4.905   0.973   0.259
  402TIP3    H2 1213   4.767   1.025   0.292
  403TIP3   OH2 1214   2.970   1.520   3.563
  403TIP3    H1 1215   2.941   1.545   3.651
  403TIP3    H2 1216   3.012   1.599   3.528
  404TIP3   OH2 1217   5.577   1.580   3.604
  404TIP3    H1 1218   5.611   1.498   3.567
  404TIP3    H2 1219   5.548   1.630   3.528
  405TIP3   OH2 1220   4.080   1.169   0.997
  405TIP3    H1 1221   4.033   1.089   1.022
  405TIP3    H2 1222   4.172   1.142   0.992
  406TIP3   OH2 1223   4.598   5.843   1.912
  406TIP3    H1 1224   4.647   5.795   1.845
  406TIP3    H2 1225   4.635   5.813   1.995
  407TIP3   OH2 1226   3.041   1.453   0.105
  407TIP3    H1 1227   2.977   1.517   0.135
  407TIP3    H2 1228   3.081   1.494   0.027
  408TIP3   OH2 1229   1.702   1.803   3.220
  408TIP3    H1 1230   1.655   1.726   3.190
  408TIP3    H2 1231   1.743   1.838   3.141
  409TIP3   OH2 1232   2.216   3.839   0.173
  409TIP3    H1 1233   2.166   3.772   0.126
  409TIP3    H2 1234   2.298   3.795   0.196
  410TIP3   OH2 1235   2.479   3.336   4.400
  410TIP3    H1 1236   2.543   3.383   4.346
  410TIP3    H2 1237   2.398   3.340   4.349
  411TIP3   OH2 1238   5.245   0.049   4.583
  411TIP3    H1 1239   5.290  -0.003   4.516
  411TIP3    H2 1240   5.251   0.139   4.552
  412TIP3   OH2 1241   0.608   1.470   2.335
  412TIP3    H1 1242   0.573   1.382   2.325
  412TIP3    H2 1243   0.702   1.461   2.322
  413TIP3   OH2 1244   3.792   4.398   3.252
  413TIP3    H1 1245   3.701   4.419   3.272
  413TIP3    H2 1246   3.823   4.471   3.199
  414TIP3   OH2 1247   1.654   1.193   2.990
  414TIP3    H1 1248   1.615   1.178   3.076
  414TIP3    H2 1249   1.596   1.147   2.929
  415TIP3   OH2 1250   0.563   3.265   3.895
  415TIP3    H1 1251   0.494   3.247   3.831
  415TIP3    H2 1252   0.518   3.260   3.980
  416TIP3   OH2 1253   6.049   2.194   3.769
  416TIP3    H1 1254   5.995   2.119   3.792
  416TIP3    H2 1255   5.996   2.270   3.794
  417TIP3   OH2 1256   1.754   5.402   4.082
  417TIP3    H1 1257   1.717   5.313   4.081
  417TIP3    H2 1258   1.708   5.445   4.154
  418TIP3   OH2 1259   2.843   1.531   0.419
  418TIP3    H1 1260   2.883   1.503   0.502
  418TIP3    H2 1261   2.812   1.450   0.379
  419TIP3   OH2 1262   4.362   1.748   4.074
  419TIP3    H1 1263   4.300   1.684   4.039
  419TIP3    H2 1264   4.445   1.702   4.079
  420TIP3   OH2 1265   2.194   3.959   1.693
  420TIP3    H1 1266   2.276   3.921   1.659
  420TIP3    H2 1267   2.220   4.045   1.727
  421TIP3   OH2 1268   4.857   0.536   4.557
  421TIP3    H1 1269   4.772   0.501   4.529
  421TIP3    H2 1270   4.852   0.536   4.653
  422TIP3   OH2 1271   1.918   2.742   1.560
  422TIP3    H1 1272   1.974   2.670   1.532
  422TIP3    H2 1273   1.850   2.747   1.493
  423TIP3   OH2 1274   4.942   1.812   1.118
  423TIP3    H1 1275   4.896   1.746   1.066
  423TIP3    H2 1276   4.993   1.761   1.182
  424TIP3   OH2 1277   3.947   3.684   2.341
  424TIP3    H1 1278   3.919   3.661   2.252
  424TIP3    H2 1279   3.963   3.600   2.383
  425TIP3   OH2 1280   2.869   4.736   0.140
  425TIP3    H1 1281   2.816   4.678   0.085
  425TIP3    H2 1282   2.953   4.691   0.148
  426TIP3   OH2 1283   5.916   1.372   4.742
  426TIP3    H1 1284   5.921   1.325   4.825
  426TIP3    H2 1285   5.876   1.456   4.764
  427TIP3   OH2 1286   0.434   3.699   1.460
  427TIP3    H1 1287   0.431   3.669   1.551
  427TIP3    H2 1288   0.514   3.751   1.454
  428TIP3   OH2 1289   3.258   4.438   4.306
  428TIP3    H1 1290   3.305   4.518   4.329
  428TIP3    H2 1291   3.316   4.392   4.246
  429TIP3   OH2 1292   5.904   3.727   3.536
  429TIP3    H1 1293   5.922   3.716   3.443
  429TIP3    H2 1294   5.990   3.733   3.577
  430TIP3   OH2 1295   3.706   4.576   2.038
  430TIP3    H1 1296   3.750   4.492   2.032
  430TIP3    H2 1297   3.771   4.635   2.074
  431TIP3   OH2 1298   5.298   1.232   4.865
  431TIP3    H1 1299   5.324   1.287   4.939
  431TIP3    H2 1300   5.367   1.244   4.800
  432TIP3   OH2 1301   0.786   0.326   4.341
  432TIP3    H1 1302   0.707   0.370   4.310
  432TIP3    H2 1303   0.842   0.396   4.373
  433TIP3   OH2 1304   1.690   2.309   1.256
  433TIP3    H1 1305   1.732   2.373   1.198
  433TIP3    H2 1306   1.643   2.250   1.196
  434TIP3   OH2 1307   5.182   3.904   4.905
  434TIP3    H1 1308   5.243   3.833   4.891
  434TIP3    H2 1309   5.112   3.890   4.841
  435TIP3   OH2 1310   0.359   5.302   2.186
  435TIP3    H1 1311   0.400   5.343   2.262
  435TIP3    H2 1312   0.315   5.224   2.220
  436TIP3   OH2 1313   4.344   4.162   4.971
  436TIP3    H1 1314   4.434   4.133   4.963
  436TIP3    H2 1315   4.301   4.094   5.022
  437TIP3   OH2 1316   1.851   2.130   2.206
  437TIP3    H1 1317   1.812   2.054   2.250
  437TIP3    H2 1318   1.899   2.092   2.133
  438TIP3   OH2 1319   4.921   4.246   2.782
  438TIP3    H1 1320   5.008   4.215   2.806
  438TIP3    H2 1321   4.902   4.316   2.845
  439TIP3   OH2 1322   2.554   3.680   3.730
  439TIP3    H1 1323   2.549   3.595   3.687
  439TIP3    H2 1324   2.597   3.737   3.666
  440TIP3   OH2 1325   4.956   0.477   0.007
  440TIP3    H1 1326   4.885   0.452   0.066
  440TIP3    H2 1327   4.937   0.430  -0.074
  441TIP3   OH2 1328   6.309   0.267   2.250
  441TIP3    H1 1329   6.365   0.260   2.173
  441TIP3    H2 1330   6.228   0.306   2.218
  442TIP3   OH2 1331   4.668   2.919   4.751
  442TIP3    H1 1332   4.717   2.859   4.806
  442TIP3    H2 1333   4.704   2.906   4.663
  443TIP3   OH2 1334   4.872   3.514   4.329
  443TIP3    H1 1335   4.896   3.461   4.252
  443TIP3    H2 1336   4.817   3.456   4.382
  444TIP3   OH2 1337   3.188   2.276   1.307
  444TIP3    H1 1338   3.161   2.355   1.261
  444TIP3    H2 1339   3.178   2.297   1.400
  445TIP3   OH2 1340   0.465   2.782   1.291
  445TIP3    H1 1341   0.534   2.810   1.351
  445TIP3    H2 1342   0.489   2.691   1.269
  446TIP3   OH2 1343   4.120   1.137   0.694
  446TIP3    H1 1344   4.179   1.116   0.766
  446TIP3    H2 1345   4.043   1.176   0.736
  447TIP3   OH2 1346   2.800   0.129   2.928
  447TIP3    H1 1347   2.804   0.189   3.003
  447TIP3    H2 1348   2.734   0.064   2.953
  448TIP3   OH2 1349   0.544   3.711   4.542
  448TIP3    H1 1350   0.470   3.748   4.494
  448TIP3    H2 1351   0.506   3.673   4.622
  449TIP3   OH2 1352   4.455   2.191   5.098
  449TIP3    H1 1353   4.411   2.140   5.166
  449TIP3    H2 1354   4.441   2.282   5.124
  450TIP3   OH2 1355   0.462   2.866   3.831
  450TIP3    H1 1356   0.474   2.772   3.820
  450TIP3    H2 1357   0.370   2.881   3.810
  451TIP3   OH2 1358   2.744   2.232   1.432
  451TIP3    H1 1359   2.830   2.194   1.451
  451TIP3    H2 1360   2.681   2.166   1.461
  452TIP3   OH2 1361   0.699   3.779   1.079
  452TIP3    H1 1362   0.632   3.735   1.026
  452TIP3    H2 1363   0.650   3.820   1.150
  453TIP3   OH2 1364   6.335   2.212   0.648
  453TIP3    H1 1365   6.317   2.139   0.589
  453TIP3    H2 1366   6.313   2.179   0.735
  454TIP3   OH2 1367   0.444   4.338   3.265
  454TIP3    H1 1368   0.456   4.353   3.359
  454TIP3    H2 1369   0.513   4.276   3.242
  455TIP3   OH2 1370   4.074   5.714   4.770
  455TIP3    H1 1371   4.066   5.693   4.863
  455TIP3    H2 1372   3.985   5.739   4.744
  456TIP3   OH2 1373   3.572   3.997   2.274
  456TIP3    H1 1374   3.537   3.924   2.223
  456TIP3    H2 1375   3.566   4.072   2.216
  457TIP3   OH2 1376   4.738   5.150   0.945
  457TIP3    H1 1377   4.645   5.139   0.926
  457TIP3    H2 1378   4.774   5.194   0.867
  458TIP3   OH2 1379   0.273   5.376   1.305
  458TIP3    H1 1380   0.320   5.453   1.337
  458TIP3    H2 1381   0.332   5.303   1.319
  459TIP3   OH2 1382   0.293   1.142   0.056
  459TIP3    H1 1383   0.307   1.091   0.136
  459TIP3    H2 1384   0.199   1.161   0.055
  460TIP3   OH2 1385   2.016   1.658   2.605
  460TIP3    H1 1386   2.097   1.671   2.654
  460TIP3    H2 1387   2.020   1.722   2.534
  461TIP3   OH2 1388   5.833   5.592   4.647
  461TIP3    H1 1389   5.796   5.515   4.604
  461TIP3    H2 1390   5.761   5.627   4.700
  462TIP3   OH2 1391   6.053   5.924   4.837
  462TIP3    H1 1392   6.066   5.914   4.932
  462TIP3    H2 1393   6.140   5.913   4.799
  463TIP3   OH2 1394   6.203   4.107  -0.007
  463TIP3    H1 1395   6.202   4.033   0.054
  463TIP3    H2 1396   6.295   4.133  -0.011
  464TIP3   OH2 1397   3.765   3.647   2.130
  464TIP3    H1 1398   3.790   3.577   2.070
  464TIP3    H2 1399   3.684   3.682   2.093
  465TIP3   OH2 1400   5.656   2.031  -0.001
  465TIP3    H1 1401   5.703   2.111   0.023
  465TIP3    H2 1402   5.624   1.996   0.081
  466TIP3   OH2 1403   3.095   3.956   4.727
  466TIP3    H1 1404   3.134   3.911   4.802
  466TIP3    H2 1405   3.128   4.046   4.734
  467TIP3   OH2 1406   3.617   3.475   0.471
  467TIP3    H1 1407   3.611   3.514   0.558
  467TIP3    H2 1408   3.576   3.389   0.481
  468TIP3   OH2 1409   0.150   3.898   4.746
  468TIP3    H1 1410   0.153   3.906   4.651
  468TIP3    H2 1411   0.060   3.870   4.765
  469TIP3   OH2 1412   0.838   5.852   1.952
  469TIP3    H1 1413   0.909   5.904   1.916
  469TIP3    H2 1414   0.879   5.796   2.017
  470TIP3   OH2 1415   3.150   4.811   1.566
  470TIP3    H1 1416   3.237   4.777   1.584
  470TIP3    H2 1417   3.147   4.823   1.471
  471TIP3   OH2 1418   4.232   4.217   2.529
  471TIP3    H1 1419   4.170   4.289   2.513
  471TIP3    H2 1420   4.318   4.255   2.513
  472TIP3   OH2 1421   4.881   5.001   2.561
  472TIP3    H1 1422   4.874   4.965   2.473
  472TIP3    H2 1423   4.915   4.929   2.614
  473TIP3   OH2 1424   0.607   2.304   4.902
  473TIP3    H1 1425   0.611   2.231   4.963
  473TIP3    H2 1426   0.611   2.382   4.957
  474TIP3   OH2 1427   5.709   3.503   4.325
  474TIP3    H1 1428   5.684   3.428   4.271
  474TIP3    H2 1429   5.763   3.466   4.394
  475TIP3   OH2 1430   1.277   0.434   2.779
  475TIP3    H1 1431   1.212   0.442   2.709
  475TIP3    H2 1432   1.361   0.452   2.735
  476TIP3   OH2 1433   0.727   4.824   2.642
  476TIP3    H1 1434   0.740   4.764   2.715
  476TIP3    H2 1435   0.723   4.911   2.682
  477TIP3   OH2 1436   3.049   0.206   4.073
  477TIP3    H1 1437   3.121   0.250   4.119
  477TIP3    H2 1438   3.080   0.198   3.982
  478TIP3   OH2 1439   2.165   1.511   0.364
  478TIP3    H1 1440   2.200   1.540   0.280
  478TIP3    H2 1441   2.198   1.422   0.375
  479TIP3   OH2 1442   2.473   3.495   2.930
  479TIP3    H1 1443   2.527   3.561   2.973
  479TIP3    H2 1444   2.418   3.459   3.000
  480TIP3   OH2 1445   3.455   3.864   0.627
  480TIP3    H1 1446   3.360   3.863   0.634
  480TIP3    H2 1447   3.480   3.955   0.648
  481TIP3   OH2 1448   2.990   3.395   4.590
  481TIP3    H1 1449   2.901   3.386   4.623
  481TIP3    H2 1450   2.983   3.375   4.496
  482TIP3   OH2 1451   6.134   5.882   2.811
  482TIP3    H1 1452   6.214   5.847   2.851
  482TIP3    H2 1453   6.085   5.805   2.783
  483TIP3   OH2 1454   1.603   5.643   4.800
  483TIP3    H1 1455   1.587   5.711   4.865
  483TIP3    H2 1456   1.589   5.687   4.716
  484TIP3   OH2 1457   5.168   2.340   3.701
  484TIP3    H1 1458   5.230   2.270   3.721
  484TIP3    H2 1459   5.101   2.333   3.769
  485TIP3   OH2 1460   1.847   2.507   1.102
  485TIP3    H1 1461   1.809   2.594   1.112
  485TIP3    H2 1462   1.940   2.523   1.084
  486TIP3   OH2 1463   0.356   1.641   3.143
  486TIP3    H1 1464   0.312   1.629   3.058
  486TIP3    H2 1465   0.420   1.569   3.147
  487TIP3   OH2 1466   1.484   1.159   1.365
  487TIP3    H1 1467   1.421   1.215   1.318
  487TIP3    H2 1468   1.433   1.084   1.394
  488TIP3   OH2 1469   4.816   5.890   3.250
  488TIP3    H1 1470   4.851   5.979   3.258
  488TIP3    H2 1471   4.839   5.864   3.161
  489TIP3   OH2 1472   1.574   3.311   0.073
  489TIP3    H1 1473   1.522   3.263   0.009
  489TIP3    H2 1474   1.511   3.346   0.135
  490TIP3   OH2 1475   0.938   5.462   0.982
  490TIP3    H1 1476   0.992   5.489   0.908
  490TIP3    H2 1477   0.995   5.404   1.033
  491TIP3   OH2 1478   6.218   3.711   2.549
  491TIP3    H1 1479   6.312   3.726   2.563
  491TIP3    H2 1480   6.199   3.630   2.596
  492TIP3   OH2 1481   1.513   0.845   1.342
  492TIP3    H1 1482   1.544   0.860   1.252
  492TIP3    H2 1483   1.470   0.760   1.339
  493TIP3   OH2 1484   1.783   1.732   2.105
  493TIP3    H1 1485   1.797   1.695   2.192
  493TIP3    H2 1486   1.864   1.713   2.057
  494TIP3   OH2 1487   5.500   4.543   1.803
  494TIP3    H1 1488   5.475   4.625   1.760
  494TIP3    H2 1489   5.574   4.511   1.751
  495TIP3   OH2 1490   2.766   4.449   4.564
  495TIP3    H1 1491   2.828   4.389   4.605
  495TIP3    H2 1492   2.821   4.516   4.523
  496TIP3   OH2 1493   4.022   4.440   1.219
  496TIP3    H1 1494   4.045   4.417   1.129
  496TIP3    H2 1495   4.069   4.377   1.273
  497TIP3   OH2 1496   1.834   1.508   2.753
  497TIP3    H1 1497   1.923   1.529   2.723
  497TIP3    H2 1498   1.779   1.524   2.677
  498TIP3   OH2 1499   0.478   3.366   4.137
  498TIP3    H1 1500   0.549   3.430   4.142
  498TIP3    H2 1501   0.399   3.418   4.126
  499TIP3   OH2 1502   0.574   0.613   0.778
  499TIP3    H1 1503   0.539   0.619   0.689
  499TIP3    H2 1504   0.497   0.596   0.832
  500TIP3   OH2 1505   2.665   4.606   0.598
  500TIP3    H1 1506   2.630   4.550   0.529
  500TIP3    H2 1507   2.737   4.654   0.556
  501TIP3   OH2 1508   5.591   5.805   0.894
  501TIP3    H1 1509   5.510   5.833   0.851
  501TIP3    H2 1510   5.602   5.866   0.966
  502TIP3   OH2 1511   0.937   5.150   4.172
  502TIP3    H1 1512   0.952   5.240   4.201
  502TIP3    H2 1513   0.857   5.154   4.120
  503TIP3   OH2 1514   3.384   4.931   1.217
  503TIP3    H1 1515   3.447   4.991   1.257
  503TIP3    H2 1516   3.426   4.904   1.135
  504TIP3   OH2 1517   3.607   0.798   0.349
  504TIP3    H1 1518   3.569   0.885   0.338
  504TIP3    H2 1519   3.545   0.739   0.306
  505TIP3   OH2 1520   1.536   3.510   1.293
  505TIP3    H1 1521   1.538   3.474   1.381
  505TIP3    H2 1522   1.465   3.574   1.295
  506TIP3   OH2 1523   1.071   3.393   1.795
  506TIP3    H1 1524   1.031   3.336   1.860
  506TIP3    H2 1525   1.007   3.400   1.725
  507TIP3   OH2 1526   2.020   3.591   1.615
  507TIP3    H1 1527   1.932   3.609   1.647
  507TIP3    H2 1528   2.078   3.619   1.686
  508TIP3   OH2 1529   2.624   1.696   0.382
  508TIP3    H1 1530   2.574   1.623   0.418
  508TIP3    H2 1531   2.712   1.684   0.417
  509TIP3   OH2 1532   5.752   1.713   2.682
  509TIP3    H1 1533   5.784   1.707   2.771
  509TIP3    H2 1534   5.667   1.667   2.684
  510TIP3   OH2 1535   3.277   5.092   4.013
  510TIP3    H1 1536   3.193   5.061   3.979
  510TIP3    H2 1537   3.333   5.015   4.013
  511TIP3   OH2 1538   0.965   3.251   3.037
  511TIP3    H1 1539   0.986   3.340   3.066
  511TIP3    H2 1540   1.027   3.196   3.084
  512TIP3   OH2 1541   5.779   5.910   1.449
  512TIP3    H1 1542   5.780   5.821   1.484
  512TIP3    H2 1543   5.758   5.965   1.525
  513TIP3   OH2 1544   3.552   1.041   0.261
  513TIP3    H1 1545   3.473   1.094   0.272
  513TIP3    H2 1546   3.603   1.088   0.195
  514TIP3   OH2 1547   5.244   2.047   3.702
  514TIP3    H1 1548   5.156   2.024   3.732
  514TIP3    H2 1549   5.236   2.057   3.608
  515TIP3   OH2 1550   3.588   5.052   0.458
  515TIP3    H1 1551   3.576   4.966   0.497
  515TIP3    H2 1552   3.624   5.106   0.529
  516TIP3   OH2 1553   3.672   1.416   5.054
  516TIP3    H1 1554   3.750   1.436   5.004
  516TIP3    H2 1555   3.698   1.345   5.113
  517TIP3   OH2 1556   4.283   2.336   0.814
  517TIP3    H1 1557   4.245   2.292   0.739
  517TIP3    H2 1558   4.332   2.409   0.777
  518TIP3   OH2 1559   2.579   2.865   3.507
  518TIP3    H1 1560   2.623   2.944   3.538
  518TIP3    H2 1561   2.537   2.829   3.585
  519TIP3   OH2 1562   6.256   4.863   0.567
  519TIP3    H1 1563   6.251   4.784   0.621
  519TIP3    H2 1564   6.165   4.890   0.556
  520TIP3   OH2 1565   5.507   2.865   1.686
  520TIP3    H1 1566   5.492   2.863   1.780
  520TIP3    H2 1567   5.591   2.909   1.675
  521TIP3   OH2 1568   6.186   5.093   4.587
  521TIP3    H1 1569   6.280   5.092   4.604
  521TIP3    H2 1570   6.148   5.047   4.662
  522TIP3   OH2 1571   5.633   4.420   2.283
  522TIP3    H1 1572   5.673   4.336   2.259
  522TIP3    H2 1573   5.563   4.396   2.344
  523TIP3   OH2 1574   5.276   0.432   1.187
  523TIP3    H1 1575   5.356   0.385   1.162
  523TIP3    H2 1576   5.307   0.520   1.211
  524TIP3   OH2 1577   5.913   3.315   0.732
  524TIP3    H1 1578   5.922   3.339   0.640
  524TIP3    H2 1579   5.818   3.318   0.749
  525TIP3   OH2 1580   3.270   3.079   2.146
  525TIP3    H1 1581   3.292   3.083   2.239
  525TIP3    H2 1582   3.175   3.088   2.144
  526TIP3   OH2 1583   1.902   5.017   4.412
  526TIP3    H1 1584   1.816   4.987   4.443
  526TIP3    H2 1585   1.930   5.081   4.476
  527TIP3   OH2 1586   4.635   5.647   4.352
  527TIP3    H1 1587   4.611   5.554   4.345
  527TIP3    H2 1588   4.571   5.692   4.298
  528TIP3   OH2 1589   1.815   3.754   1.893
  528TIP3    H1 1590   1.903   3.787   1.877
  528TIP3    H2 1591   1.825   3.692   1.965
  529TIP3   OH2 1592   5.712   5.682   2.887
  529TIP3    H1 1593   5.638   5.661   2.830
  529TIP3    H2 1594   5.678   5.673   2.976
  530TIP3   OH2 1595   5.054   5.165   3.758
  530TIP3    H1 1596   5.130   5.222   3.746
  530TIP3    H2 1597   5.027   5.142   3.669
  531TIP3   OH2 1598   0.732   0.124   1.649
  531TIP3    H1 1599   0.750   0.050   1.591
  531TIP3    H2 1600   0.674   0.181   1.599
  532TIP3   OH2 1601   0.921   3.056   4.042
  532TIP3    H1 1602   0.953   3.045   4.132
  532TIP3    H2 1603   0.837   3.010   4.041
  533TIP3   OH2 1604   1.281   4.067   1.813
  533TIP3    H1 1605   1.227   4.098   1.741
  533TIP3    H2 1606   1.233   4.093   1.892
  534TIP3   OH2 1607   5.211   1.114   2.811
  534TIP3    H1 1608   5.217   1.086   2.720
  534TIP3    H2 1609   5.276   1.062   2.857
  535TIP3   OH2 1610   6.309   1.240   4.036
  535TIP3    H1 1611   6.271   1.159   4.069
  535TIP3    H2 1612   6.316   1.297   4.113
  536TIP3   OH2 1613   2.646   4.652   4.375
  536TIP3    H1 1614   2.551   4.648   4.385
  536TIP3    H2 1615   2.679   4.659   4.465
  537TIP3   OH2 1616   0.074   4.477   4.065
  537TIP3    H1 1617   0.129   4.516   3.997
  537TIP3    H2 1618   0.073   4.384   4.044
  538TIP3   OH2 1619   0.942   0.506   3.555
  538TIP3    H1 1620   0.940   0.500   3.651
  538TIP3    H2 1621   0.887   0.582   3.535
  539TIP3   OH2 1622   3.669   0.856   2.981
  539TIP3    H1 1623   3.729   0.800   3.032
  539TIP3    H2 1624   3.696   0.945   3.002
  540TIP3   OH2 1625   0.809   5.542   4.176
  540TIP3    H1 1626   0.830   5.589   4.096
  540TIP3    H2 1627   0.805   5.610   4.244
  541TIP3   OH2 1628   0.219   0.261   3.636
  541TIP3    H1 1629   0.292   0.224   3.587
  541TIP3    H2 1630   0.166   0.186   3.661
  542TIP3   OH2 1631   0.082   2.024   2.189
  542TIP3    H1 1632   0.150   1.998   2.251
  542TIP3    H2 1633   0.023   1.949   2.185
  543TIP3   OH2 1634   2.651   2.716   1.175
  543TIP3    H1 1635   2.724   2.734   1.116
  543TIP3    H2 1636   2.683   2.646   1.231
  544TIP3   OH2 1637   5.934   4.127   1.851
  544TIP3    H1 1638   6.019   4.085   1.843
  544TIP3    H2 1639   5.927   4.181   1.772
  545TIP3   OH2 1640   4.372   4.186   0.932
  545TIP3    H1 1641   4.395   4.215   0.844
  545TIP3    H2 1642   4.298   4.127   0.919
  546TIP3   OH2 1643   1.072   4.227   1.612
  546TIP3    H1 1644   0.989   4.219   1.658
  546TIP3    H2 1645   1.059   4.300   1.551
  547TIP3   OH2 1646   4.885   0.710   4.344
  547TIP3    H1 1647   4.873   0.675   4.432
  547TIP3    H2 1648   4.923   0.797   4.358
  548TIP3   OH2 1649   4.059   5.202   0.143
  548TIP3    H1 1650   3.982   5.155   0.111
  548TIP3    H2 1651   4.120   5.132   0.168
  549TIP3   OH2 1652   4.872   4.007   3.666
  549TIP3    H1 1653   4.928   3.939   3.703
  549TIP3    H2 1654   4.841   3.970   3.583
  550TIP3   OH2 1655   5.602   0.438   2.727
  550TIP3    H1 1656   5.546   0.361   2.716
  550TIP3    H2 1657   5.685   0.402   2.759
  551TIP3   OH2 1658   2.547   0.986   5.147
  551TIP3    H1 1659   2.609   1.059   5.136
  551TIP3    H2 1660   2.517   0.966   5.059
  552TIP3   OH2 1661   4.478   2.894   0.535
  552TIP3    H1 1662   4.508   2.935   0.454
  552TIP3    H2 1663   4.392   2.933   0.551
  553TIP3   OH2 1664   5.091   5.712   1.825
  553TIP3    H1 1665   5.140   5.789   1.796
  553TIP3    H2 1666   5.120   5.642   1.767
  554TIP3   OH2 1667   3.548   5.756   4.529
  554TIP3    H1 1668   3.630   5.749   4.481
  554TIP3    H2 1669   3.568   5.721   4.616
  555TIP3   OH2 1670   3.519   1.574   1.994
  555TIP3    H1 1671   3.563   1.599   2.074
  555TIP3    H2 1672   3.547   1.484   1.977
  556TIP3   OH2 1673   0.431   2.055   0.083
  556TIP3    H1 1674   0.388   1.971   0.104
  556TIP3    H2 1675   0.511   2.054   0.135
  557TIP3   OH2 1676   5.887   2.791   2.053
  557TIP3    H1 1677   5.795   2.819   2.057
  557TIP3    H2 1678   5.935   2.870   2.027
  558TIP3   OH2 1679   5.441   4.395   4.903
  558TIP3    H1 1680   5.378   4.324   4.892
  558TIP3    H2 1681   5.391   4.474   4.883
  559TIP3   OH2 1682   3.437   1.915   2.033
  559TIP3    H1 1683   3.422   1.922   2.127
  559TIP3    H2 1684   3.358   1.873   1.999
  560TIP3   OH2 1685   5.467   2.477   4.234
  560TIP3    H1 1686   5.467   2.473   4.330
  560TIP3    H2 1687   5.376   2.460   4.210
  561TIP3   OH2 1688   5.322   5.078   2.583
  561TIP3    H1 1689   5.308   5.144   2.515
  561TIP3    H2 1690   5.329   4.995   2.536
  562TIP3   OH2 1691   1.387   4.718   4.501
  562TIP3    H1 1692   1.386   4.623   4.517
  562TIP3    H2 1693   1.297   4.745   4.518
  563TIP3   OH2 1694   0.728   0.956   3.960
  563TIP3    H1 1695   0.755   0.902   3.886
  563TIP3    H2 1696   0.805   0.958   4.017
  564TIP3   OH2 1697   0.081   0.688   1.840
  564TIP3    H1 1698   0.130   0.770   1.840
  564TIP3    H2 1699  -0.009   0.714   1.861
  565TIP3   OH2 1700   2.288   1.959   1.411
  565TIP3    H1 1701   2.273   2.053   1.421
  565TIP3    H2 1702   2.235   1.918   1.479
  566TIP3   OH2 1703   4.596   1.291   0.074
  566TIP3    H1 1704   4.636   1.323   0.155
  566TIP3    H2 1705   4.502   1.302   0.088
  567TIP3   OH2 1706   3.693   5.255   3.059
  567TIP3    H1 1707   3.688   5.337   3.010
  567TIP3    H2 1708   3.787   5.236   3.063
  568TIP3   OH2 1709   5.230   3.974   1.024
  568TIP3    H1 1710   5.210   3.884   1.049
  568TIP3    H2 1711   5.237   4.021   1.106
  569TIP3   OH2 1712   0.776   5.138   2.147
  569TIP3    H1 1713   0.807   5.174   2.063
  569TIP3    H2 1714   0.772   5.043   2.132
  570TIP3   OH2 1715   2.199   1.443   2.820
  570TIP3    H1 1716   2.141   1.440   2.896
  570TIP3    H2 1717   2.284   1.415   2.853
  571TIP3   OH2 1718   4.057   4.537   3.813
  571TIP3    H1 1719   4.114   4.472   3.774
  571TIP3    H2 1720   4.077   4.534   3.907
  572TIP3   OH2 1721   5.309   5.337   1.406
  572TIP3    H1 1722   5.351   5.366   1.324
  572TIP3    H2 1723   5.225   5.302   1.379
  573TIP3   OH2 1724   2.661   2.904   2.865
  573TIP3    H1 1725   2.720   2.847   2.816
  573TIP3    H2 1726   2.698   2.991   2.856
  574TIP3   OH2 1727   3.054   0.122   2.262
  574TIP3    H1 1728   3.091   0.102   2.347
  574TIP3    H2 1729   3.130   0.131   2.204
  575TIP3   OH2 1730   6.097   3.513   1.630
  575TIP3    H1 1731   6.172   3.492   1.575
  575TIP3    H2 1732   6.085   3.607   1.622
  576TIP3   OH2 1733   4.500   4.767   1.162
  576TIP3    H1 1734   4.466   4.699   1.219
  576TIP3    H2 1735   4.432   4.779   1.095
  577TIP3   OH2 1736   0.497   3.692   1.752
  577TIP3    H1 1737   0.449   3.610   1.752
  577TIP3    H2 1738   0.555   3.686   1.829
  578TIP3   OH2 1739   0.775   2.586  -0.013
  578TIP3    H1 1740   0.812   2.523   0.049
  578TIP3    H2 1741   0.693   2.615   0.028
  579TIP3   OH2 1742   1.119   2.089   2.219
  579TIP3    H1 1743   1.077   2.069   2.135
  579TIP3    H2 1744   1.069   2.162   2.254
  580TIP3   OH2 1745   4.877   5.458   2.634
  580TIP3    H1 1746   4.802   5.442   2.692
  580TIP3    H2 1747   4.876   5.384   2.573
  581TIP3   OH2 1748   4.185   0.726   0.315
  581TIP3    H1 1749   4.150   0.744   0.402
  581TIP3    H2 1750   4.113   0.744   0.255
  582TIP3   OH2 1751   5.497   4.493   2.946
  582TIP3    H1 1752   5.475   4.466   3.035
  582TIP3    H2 1753   5.510   4.412   2.898
  583TIP3   OH2 1754   1.881   5.996   1.530
  583TIP3    H1 1755   1.855   6.081   1.566
  583TIP3    H2 1756   1.974   5.990   1.551
  584TIP3   OH2 1757   5.034   0.912   0.604
  584TIP3    H1 1758   4.994   0.841   0.653
  584TIP3    H2 1759   5.023   0.989   0.660
  585TIP3   OH2 1760   2.766   5.280   4.514
  585TIP3    H1 1761   2.818   5.264   4.592
  585TIP3    H2 1762   2.818   5.343   4.464
  586TIP3   OH2 1763   5.914   2.301   1.372
  586TIP3    H1 1764   5.941   2.258   1.453
  586TIP3    H2 1765   5.819   2.297   1.373
  587TIP3   OH2 1766   4.811   3.615   3.272
  587TIP3    H1 1767   4.749   3.574   3.333
  587TIP3    H2 1768   4.877   3.656   3.329
  588TIP3   OH2 1769   5.106   2.702   2.604
  588TIP3    H1 1770   5.035   2.683   2.665
  588TIP3    H2 1771   5.181   2.720   2.659
  589TIP3   OH2 1772   0.018   1.319   2.201
  589TIP3    H1 1773   0.057   1.260   2.265
  589TIP3    H2 1774   0.040   1.280   2.116
  590TIP3   OH2 1775   2.501   0.214   1.284
  590TIP3    H1 1776   2.412   0.187   1.307
  590TIP3    H2 1777   2.542   0.135   1.250
  591TIP3   OH2 1778   0.801   0.744   1.197
  591TIP3    H1 1779   0.812   0.656   1.162
  591TIP3    H2 1780   0.885   0.788   1.182
  592TIP3   OH2 1781   3.172   3.383   0.259
  592TIP3    H1 1782   3.222   3.353   0.334
  592TIP3    H2 1783   3.227   3.450   0.219
  593TIP3   OH2 1784   1.047   6.025   0.716
  593TIP3    H1 1785   1.049   5.933   0.745
  593TIP3    H2 1786   1.134   6.040   0.680
  594TIP3   OH2 1787   4.086   1.802   0.060
  594TIP3    H1 1788   4.069   1.712   0.087
  594TIP3    H2 1789   4.161   1.830   0.113
  595TIP3   OH2 1790   3.241   1.940   0.875
  595TIP3    H1 1791   3.291   2.018   0.853
  595TIP3    H2 1792   3.306   1.877   0.906
  596TIP3   OH2 1793   0.792   2.567   0.315
  596TIP3    H1 1794   0.871   2.613   0.343
  596TIP3    H2 1795   0.802   2.478   0.349
  597TIP3   OH2 1796   1.373   1.483   0.035
  597TIP3    H1 1797   1.353   1.457  -0.055
  597TIP3    H2 1798   1.313   1.431   0.089
  598TIP3   OH2 1799   0.543   5.306   2.943
  598TIP3    H1 1800   0.499   5.366   2.883
  598TIP3    H2 1801   0.478   5.289   3.012
  599TIP3   OH2 1802   3.948   2.978   0.270
  599TIP3    H1 1803   3.957   3.036   0.346
  599TIP3    H2 1804   3.858   2.991   0.241
  600TIP3   OH2 1805   3.233  -0.012   4.165
  600TIP3    H1 1806   3.266  -0.056   4.243
  600TIP3    H2 1807   3.238   0.081   4.186
  601TIP3   OH2 1808   0.892   4.167   0.345
  601TIP3    H1 1809   0.934   4.145   0.262
  601TIP3    H2 1810   0.861   4.082   0.379
  602TIP3   OH2 1811   0.483   3.817   2.328
  602TIP3    H1 1812   0.543   3.766   2.274
  602TIP3    H2 1813   0.516   3.907   2.324
  603TIP3   OH2 1814   4.197   0.592   1.765
  603TIP3    H1 1815   4.146   0.671   1.747
  603TIP3    H2 1816   4.282   0.608   1.725
  604TIP3   OH2 1817   2.789   1.616   3.355
  604TIP3    H1 1818   2.830   1.568   3.427
  604TIP3    H2 1819   2.758   1.549   3.295
  605TIP3   OH2 1820   5.450   1.615   2.151
  605TIP3    H1 1821   5.490   1.544   2.200
  605TIP3    H2 1822   5.515   1.639   2.086
  606TIP3   OH2 1823   6.343   1.446   4.420
  606TIP3    H1 1824   6.345   1.506   4.494
  606TIP3    H2 1825   6.373   1.498   4.345
  607TIP3   OH2 1826   5.011   0.686   5.043
  607TIP3    H1 1827   4.986   0.595   5.060
  607TIP3    H2 1828   4.931   0.736   5.055
  608TIP3   OH2 1829   3.552   5.285   0.622
  608TIP3    H1 1830   3.500   5.364   0.634
  608TIP3    H2 1831   3.617   5.309   0.555
  609TIP3   OH2 1832   5.848   4.578   3.942
  609TIP3    H1 1833   5.804   4.527   3.874
  609TIP3    H2 1834   5.821   4.536   4.024
  610TIP3   OH2 1835   4.449   5.096   1.031
  610TIP3    H1 1836   4.470   5.077   1.123
  610TIP3    H2 1837   4.392   5.172   1.035
  611TIP3   OH2 1838   1.636   2.965   4.291
  611TIP3    H1 1839   1.629   2.975   4.386
  611TIP3    H2 1840   1.571   3.026   4.256
  612TIP3   OH2 1841   4.963   3.816   1.817
  612TIP3    H1 1842   5.022   3.891   1.807
  612TIP3    H2 1843   4.972   3.791   1.908
  613TIP3   OH2 1844   4.408   5.732   4.238
  613TIP3    H1 1845   4.432   5.726   4.145
  613TIP3    H2 1846   4.322   5.691   4.244
  614TIP3   OH2 1847   4.850   1.284   3.665
  614TIP3    H1 1848   4.880   1.195   3.687
  614TIP3    H2 1849   4.780   1.270   3.602
  615TIP3   OH2 1850   5.300   3.118   4.895
  615TIP3    H1 1851   5.204   3.116   4.897
  615TIP3    H2 1852   5.323   3.093   4.806
  616TIP3   OH2 1853   3.459   0.123   3.999
  616TIP3    H1 1854   3.528   0.121   4.067
  616TIP3    H2 1855   3.379   0.145   4.047
  617TIP3   OH2 1856   6.340   4.157   1.601
  617TIP3    H1 1857   6.317   4.191   1.514
  617TIP3    H2 1858   6.404   4.219   1.635
  618TIP3   OH2 1859   1.028   4.676   3.197
  618TIP3    H1 1860   1.035   4.634   3.111
  618TIP3    H2 1861   1.107   4.730   3.204
  619TIP3   OH2 1862   3.038   3.779   1.376
  619TIP3    H1 1863   2.999   3.856   1.416
  619TIP3    H2 1864   3.092   3.814   1.305
  620TIP3   OH2 1865   1.538   5.300   0.663
  620TIP3    H1 1866   1.575   5.387   0.649
  620TIP3    H2 1867   1.586   5.265   0.737
  621TIP3   OH2 1868   0.157   4.832   0.964
  621TIP3    H1 1869   0.198   4.874   1.040
  621TIP3    H2 1870   0.195   4.877   0.888
  622TIP3   OH2 1871   2.242   1.069   3.290
  622TIP3    H1 1872   2.173   1.004   3.299
  622TIP3    H2 1873   2.299   1.055   3.366
  623TIP3   OH2 1874   3.337   2.018   4.975
  623TIP3    H1 1875   3.249   2.039   5.006
  623TIP3    H2 1876   3.325   1.999   4.881
  624TIP3   OH2 1877   1.554   5.850   1.951
  624TIP3    H1 1878   1.581   5.937   1.922
  624TIP3    H2 1879   1.609   5.832   2.027
  625TIP3   OH2 1880   1.322   5.565   1.213
  625TIP3    H1 1881   1.291   5.646   1.173
  625TIP3    H2 1882   1.259   5.546   1.283
  626TIP3   OH2 1883   3.854   3.029   2.064
  626TIP3    H1 1884   3.806   2.948   2.084
  626TIP3    H2 1885   3.809   3.065   1.988
  627TIP3   OH2 1886   1.651   4.068   2.551
  627TIP3    H1 1887   1.663   4.161   2.571
  627TIP3    H2 1888   1.556   4.055   2.551
  628TIP3   OH2 1889   4.898   4.826   2.955
  628TIP3    H1 1890   4.951   4.859   2.883
  628TIP3    H2 1891   4.958   4.770   3.005
  629TIP3   OH2 1892   2.572   3.405   3.334
  629TIP3    H1 1893   2.651   3.435   3.378
  629TIP3    H2 1894   2.520   3.484   3.322
  630TIP3   OH2 1895   5.417   5.220   1.676
  630TIP3    H1 1896   5.411   5.287   1.608
  630TIP3    H2 1897   5.332   5.222   1.720
  631TIP3   OH2 1898   1.216   0.200   4.077
  631TIP3    H1 1899   1.125   0.204   4.106
  631TIP3    H2 1900   1.250   0.288   4.093
  632TIP3   OH2 1901   3.260   1.058   3.135
  632TIP3    H1 1902   3.209   1.017   3.065
  632TIP3    H2 1903   3.301   1.134   3.095
  633TIP3   OH2 1904   3.434   5.082   4.491
  633TIP3    H1 1905   3.424   5.178   4.495
  633TIP3    H2 1906   3.401   5.052   4.576
  634TIP3   OH2 1907   4.944   3.903   0.624
  634TIP3    H1 1908   4.970   3.982   0.576
  634TIP3    H2 1909   4.893   3.936   0.698
  635TIP3   OH2 1910   5.488   1.141   1.402
  635TIP3    H1 1911   5.470   1.117   1.311
  635TIP3    H2 1912   5.567   1.092   1.425
  636TIP3   OH2 1913   4.566   2.641   3.016
  636TIP3    H1 1914   4.543   2.606   2.931
  636TIP3    H2 1915   4.661   2.636   3.020
  637TIP3   OH2 1916   2.056   5.968   0.484
  637TIP3    H1 1917   1.975   6.016   0.504
  637TIP3    H2 1918   2.049   5.887   0.534
  638TIP3   OH2 1919   0.894   1.242  -0.021
  638TIP3    H1 1920   0.924   1.191   0.054
  638TIP3    H2 1921   0.947   1.211  -0.094
  639TIP3   OH2 1922   1.897   3.590   0.571
  639TIP3    H1 1923   1.844   3.646   0.628
  639TIP3    H2 1924   1.879   3.501   0.603
  640TIP3   OH2 1925   5.735   3.332   2.736
  640TIP3    H1 1926   5.761   3.376   2.655
  640TIP3    H2 1927   5.674   3.264   2.708
  641TIP3   OH2 1928   0.295   1.956   3.875
  641TIP3    H1 1929   0.369   1.933   3.818
  641TIP3    H2 1930   0.336   1.985   3.956
  642TIP3   OH2 1931   5.233   5.203   0.184
  642TIP3    H1 1932   5.169   5.145   0.223
  642TIP3    H2 1933   5.316   5.182   0.227
  643TIP3   OH2 1934   4.345   4.663   4.324
  643TIP3    H1 1935   4.308   4.590   4.372
  643TIP3    H2 1936   4.328   4.644   4.232
  644TIP3   OH2 1937   4.036   0.931   3.061
  644TIP3    H1 1938   4.081   1.015   3.051
  644TIP3    H2 1939   4.055   0.904   3.151
  645TIP3   OH2 1940   4.030   2.167   2.005
  645TIP3    H1 1941   4.070   2.137   2.087
  645TIP3    H2 1942   3.947   2.206   2.033
  646TIP3   OH2 1943   5.000   3.271   2.217
  646TIP3    H1 1944   5.044   3.352   2.191
  646TIP3    H2 1945   5.067   3.203   2.204
  647TIP3   OH2 1946   3.562   4.999   1.904
  647TIP3    H1 1947   3.503   5.006   1.829
  647TIP3    H2 1948   3.634   4.944   1.873
  648TIP3   OH2 1949   4.082   2.549   2.896
  648TIP3    H1 1950   3.988   2.559   2.910
  648TIP3    H2 1951   4.114   2.507   2.976
  649TIP3   OH2 1952   2.552   4.184   2.016
  649TIP3    H1 1953   2.639   4.221   2.035
  649TIP3    H2 1954   2.560   4.150   1.927
  650TIP3   OH2 1955   5.471   3.900   2.104
  650TIP3    H1 1956   5.459   3.993   2.127
  650TIP3    H2 1957   5.507   3.861   2.183
  651TIP3   OH2 1958   5.252   0.145   4.174
  651TIP3    H1 1959   5.254   0.053   4.199
  651TIP3    H2 1960   5.195   0.186   4.239
  652TIP3   OH2 1961   3.043   4.990   4.723
  652TIP3    H1 1962   3.086   5.068   4.759
  652TIP3    H2 1963   3.028   4.934   4.799
  653TIP3   OH2 1964   3.560   2.592   3.089
  653TIP3    H1 1965   3.558   2.598   3.184
  653TIP3    H2 1966   3.654   2.592   3.067
  654TIP3   OH2 1967   3.680   2.255   4.280
  654TIP3    H1 1968   3.682   2.246   4.375
  654TIP3    H2 1969   3.702   2.167   4.248
  655TIP3   OH2 1970   5.873   5.389   3.831
  655TIP3    H1 1971   5.906   5.472   3.796
  655TIP3    H2 1972   5.785   5.409   3.863
  656TIP3   OH2 1973   3.910   1.498   2.768
  656TIP3    H1 1974   3.894   1.526   2.678
  656TIP3    H2 1975   4.001   1.466   2.768
  657TIP3   OH2 1976   2.687   1.747   2.458
  657TIP3    H1 1977   2.682   1.722   2.550
  657TIP3    H2 1978   2.602   1.785   2.438
  658TIP3   OH2 1979   1.078   2.048   1.641
  658TIP3    H1 1980   0.993   2.092   1.645
  658TIP3    H2 1981   1.060   1.957   1.666
  659TIP3   OH2 1982   4.719   1.477   3.243
  659TIP3    H1 1983   4.784   1.418   3.205
  659TIP3    H2 1984   4.635   1.436   3.225
  660TIP3   OH2 1985   4.247   1.314   1.768
  660TIP3    H1 1986   4.187   1.264   1.711
  660TIP3    H2 1987   4.302   1.363   1.707
  661TIP3   OH2 1988   2.404   1.500   1.959
  661TIP3    H1 1989   2.346   1.455   1.898
  661TIP3    H2 1990   2.347   1.562   2.005
  662TIP3   OH2 1991   3.329   3.889   0.919
  662TIP3    H1 1992   3.311   3.969   0.969
  662TIP3    H2 1993   3.251   3.836   0.931
  663TIP3   OH2 1994   3.053   4.957   2.563
  663TIP3    H1 1995   3.003   5.038   2.573
  663TIP3    H2 1996   3.114   4.957   2.637
  664TIP3   OH2 1997   6.125   5.159   1.090
  664TIP3    H1 1998   6.209   5.198   1.114
  664TIP3    H2 1999   6.148   5.094   1.023
  665TIP3   OH2 2000   4.496   0.966   1.152
  665TIP3    H1 2001   4.534   0.887   1.113
  665TIP3    H2 2002   4.534   1.038   1.104
  666TIP3   OH2 2003   4.702   4.127   2.359
  666TIP3    H1 2004   4.635   4.100   2.297
  666TIP3    H2 2005   4.653   4.162   2.434
  667TIP3   OH2 2006   0.021   3.453   1.934
  667TIP3    H1 2007   0.028   3.385   1.867
  667TIP3    H2 2008   0.024   3.535   1.886
  668TIP3   OH2 2009   1.934   5.611   2.350
  668TIP3    H1 2010   1.909   5.701   2.329
  668TIP3    H2 2011   2.003   5.620   2.415
  669TIP3   OH2 2012   3.101   1.091   4.364
  669TIP3    H1 2013   3.180   1.132   4.399
  669TIP3    H2 2014   3.129   1.003   4.339
  670TIP3   OH2 2015   0.067   0.611   4.865
  670TIP3    H1 2016  -0.012   0.664   4.859
  670TIP3    H2 2017   0.132   0.668   4.905
  671TIP3   OH2 2018   5.563   5.887   0.554
  671TIP3    H1 2019   5.473   5.855   0.554
  671TIP3    H2 2020   5.588   5.892   0.462
  672TIP3   OH2 2021   1.731   3.713   3.521
  672TIP3    H1 2022   1.770   3.639   3.568
  672TIP3    H2 2023   1.758   3.790   3.571
  673TIP3   OH2 2024   1.451   0.915   0.795
  673TIP3    H1 2025   1.419   0.873   0.716
  673TIP3    H2 2026   1.468   1.006   0.769
  674TIP3   OH2 2027   1.225   0.126   0.271
  674TIP3    H1 2028   1.144   0.152   0.315
  674TIP3    H2 2029   1.200   0.048   0.220
  675TIP3   OH2 2030   4.369   5.508   1.683
  675TIP3    H1 2031   4.401   5.431   1.730
  675TIP3    H2 2032   4.423   5.512   1.604
  676TIP3   OH2 2033   3.718   2.628   1.947
  676TIP3    H1 2034   3.713   2.679   2.028
  676TIP3    H2 2035   3.649   2.562   1.955
  677TIP3   OH2 2036   3.964   5.179   3.046
  677TIP3    H1 2037   4.040   5.181   3.104
  677TIP3    H2 2038   3.966   5.092   3.006
  678TIP3   OH2 2039   3.139   3.333   0.646
  678TIP3    H1 2040   3.067   3.376   0.692
  678TIP3    H2 2041   3.110   3.243   0.636
  679TIP3   OH2 2042   2.071   0.295   1.143
  679TIP3    H1 2043   1.990   0.332   1.109
  679TIP3    H2 2044   2.085   0.216   1.091
  680TIP3   OH2 2045   0.050   4.264   0.968
  680TIP3    H1 2046   0.033   4.201   1.038
  680TIP3    H2 2047   0.139   4.296   0.985
  681TIP3   OH2 2048   2.585   4.427   1.784
  681TIP3    H1 2049   2.512   4.488   1.774
  681TIP3    H2 2050   2.621   4.446   1.870
  682TIP3   OH2 2051   1.819   2.059   3.939
  682TIP3    H1 2052   1.858   2.146   3.930
  682TIP3    H2 2053   1.868   2.018   4.010
  683TIP3   OH2 2054   1.131   3.129   3.266
  683TIP3    H1 2055   1.189   3.160   3.336
  683TIP3    H2 2056   1.189   3.120   3.190
  684TIP3   OH2 2057   2.488   1.083   1.161
  684TIP3    H1 2058   2.539   1.061   1.239
  684TIP3    H2 2059   2.544   1.140   1.110
  685TIP3   OH2 2060   3.934   3.832   0.664
  685TIP3    H1 2061   3.940   3.916   0.710
  685TIP3    H2 2062   3.842   3.807   0.671
  686TIP3   OH2 2063   5.184   4.895   0.513
  686TIP3    H1 2064   5.247   4.875   0.582
  686TIP3    H2 2065   5.107   4.842   0.534
  687TIP3   OH2 2066   1.073   3.214   0.968
  687TIP3    H1 2067   0.978   3.222   0.965
  687TIP3    H2 2068   1.105   3.304   0.975
  688TIP3   OH2 2069   0.725   2.833   4.226
  688TIP3    H1 2070   0.792   2.879   4.277
  688TIP3    H2 2071   0.672   2.788   4.291
  689TIP3   OH2 2072   2.134   4.077   2.838
  689TIP3    H1 2073   2.070   4.032   2.893
  689TIP3    H2 2074   2.084   4.147   2.796
  690TIP3   OH2 2075   0.553   2.615   0.165
  690TIP3    H1 2076   0.625   2.584   0.219
  690TIP3    H2 2077   0.480   2.627   0.226
  691TIP3   OH2 2078   4.236   5.235   0.748
  691TIP3    H1 2079   4.202   5.279   0.670
  691TIP3    H2 2080   4.248   5.305   0.812
  692TIP3   OH2 2081   4.338   2.020   2.949
  692TIP3    H1 2082   4.265   2.042   3.007
  692TIP3    H2 2083   4.356   2.102   2.902
  693TIP3   OH2 2084   1.194   5.060   2.853
  693TIP3    H1 2085   1.237   5.145   2.847
  693TIP3    H2 2086   1.104   5.076   2.826
  694TIP3   OH2 2087   5.203   3.072   0.641
  694TIP3    H1 2088   5.162   3.143   0.591
  694TIP3    H2 2089   5.139   3.052   0.711
  695TIP3   OH2 2090   0.959   0.887   1.383
  695TIP3    H1 2091   0.880   0.836   1.399
  695TIP3    H2 2092   0.937   0.975   1.414
  696TIP3   OH2 2093   3.035   5.622   0.264
  696TIP3    H1 2094   3.040   5.615   0.168
  696TIP3    H2 2095   3.082   5.545   0.295
  697TIP3   OH2 2096   2.497   4.102   4.712
  697TIP3    H1 2097   2.509   4.155   4.632
  697TIP3    H2 2098   2.578   4.051   4.719
  698TIP3   OH2 2099   3.216   1.206   2.271
  698TIP3    H1 2100   3.249   1.275   2.214
  698TIP3    H2 2101   3.291   1.148   2.285
  699TIP3   OH2 2102   5.680   4.146   3.432
  699TIP3    H1 2103   5.774   4.132   3.428
  699TIP3    H2 2104   5.646   4.068   3.477
  700TIP3   OH2 2105   5.928   0.804   1.287
  700TIP3    H1 2106   5.913   0.712   1.311
  700TIP3    H2 2107   6.011   0.827   1.328
  701TIP3   OH2 2108   5.146   1.802   5.101
  701TIP3    H1 2109   5.206   1.763   5.038
  701TIP3    H2 2110   5.148   1.896   5.082
  702TIP3   OH2 2111   2.557   2.098   3.230
  702TIP3    H1 2112   2.604   2.082   3.148
  702TIP3    H2 2113   2.580   2.023   3.285
  703TIP3   OH2 2114   1.980   3.071   0.699
  703TIP3    H1 2115   1.992   3.082   0.793
  703TIP3    H2 2116   1.887   3.048   0.689
  704TIP3   OH2 2117   5.136   0.615   1.919
  704TIP3    H1 2118   5.129   0.565   2.001
  704TIP3    H2 2119   5.066   0.580   1.864
  705TIP3   OH2 2120   5.661   4.232   4.116
  705TIP3    H1 2121   5.665   4.151   4.167
  705TIP3    H2 2122   5.628   4.204   4.030
  706TIP3   OH2 2123   6.160   2.655   3.483
  706TIP3    H1 2124   6.132   2.738   3.521
  706TIP3    H2 2125   6.121   2.654   3.396
  707TIP3   OH2 2126   6.134   4.802  -0.001
  707TIP3    H1 2127   6.098   4.890  -0.009
  707TIP3    H2 2128   6.068   4.754   0.049
  708TIP3   OH2 2129   3.989   0.953   3.650
  708TIP3    H1 2130   3.954   0.864   3.656
  708TIP3    H2 2131   4.084   0.941   3.644
  709TIP3   OH2 2132   5.001   1.987   4.559
  709TIP3    H1 2133   4.956   1.959   4.639
  709TIP3    H2 2134   4.938   2.044   4.515
  710TIP3   OH2 2135   4.248   4.254   1.178
  710TIP3    H1 2136   4.167   4.203   1.174
  710TIP3    H2 2137   4.292   4.237   1.094
  711TIP3   OH2 2138   0.880   5.666   3.868
  711TIP3    H1 2139   0.881   5.705   3.781
  711TIP3    H2 2140   0.788   5.646   3.884
  712TIP3   OH2 2141   2.362   4.765   1.480
  712TIP3    H1 2142   2.306   4.762   1.557
  712TIP3    H2 2143   2.428   4.698   1.495
  713TIP3   OH2 2144   1.833   1.808   0.522
  713TIP3    H1 2145   1.820   1.891   0.475
  713TIP3    H2 2146   1.761   1.752   0.493
  714TIP3   OH2 2147   2.660   3.360   3.747
  714TIP3    H1 2148   2.734   3.421   3.753
  714TIP3    H2 2149   2.614   3.371   3.830
  715TIP3   OH2 2150   1.454   0.050   1.031
  715TIP3    H1 2151   1.399   0.119   1.068
  715TIP3    H2 2152   1.527   0.096   0.989
  716TIP3   OH2 2153   1.813   5.208   4.595
  716TIP3    H1 2154   1.838   5.300   4.583
  716TIP3    H2 2155   1.717   5.209   4.599
  717TIP3   OH2 2156   1.092   2.034   4.581
  717TIP3    H1 2157   1.164   2.071   4.630
  717TIP3    H2 2158   1.053   1.969   4.641
  718TIP3   OH2 2159   4.820   3.176   0.133
  718TIP3    H1 2160   4.911   3.194   0.109
  718TIP3    H2 2161   4.771   3.186   0.051
  719TIP3   OH2 2162   0.466   4.826   1.381
  719TIP3    H1 2163   0.387   4.880   1.391
  719TIP3    H2 2164   0.494   4.842   1.291
  720TIP3   OH2 2165   4.490   3.118   1.230
  720TIP3    H1 2166   4.561   3.130   1.294
  720TIP3    H2 2167   4.479   3.204   1.190
  721TIP3   OH2 2168   5.769   3.581   1.536
  721TIP3    H1 2169   5.803   3.492   1.538
  721TIP3    H2 2170   5.682   3.574   1.575
  722TIP3   OH2 2171   0.613   2.176   3.004
  722TIP3    H1 2172   0.632   2.268   3.020
  722TIP3    H2 2173   0.525   2.176   2.967
  723TIP3   OH2 2174   4.702   2.845   0.117
  723TIP3    H1 2175   4.788   2.886   0.104
  723TIP3    H2 2176   4.720   2.768   0.172
  724TIP3   OH2 2177   3.622   4.862   3.089
  724TIP3    H1 2178   3.576   4.789   3.047
  724TIP3    H2 2179   3.709   4.860   3.051
  725TIP3   OH2 2180   1.941   5.116   1.345
  725TIP3    H1 2181   1.849   5.141   1.354
  725TIP3    H2 2182   1.968   5.153   1.262
  726TIP3   OH2 2183   2.702   5.069   1.563
  726TIP3    H1 2184   2.702   5.115   1.647
  726TIP3    H2 2185   2.609   5.060   1.541
  727TIP3   OH2 2186   6.218   5.844   1.382
  727TIP3    H1 2187   6.144   5.883   1.335
  727TIP3    H2 2188   6.267   5.798   1.315
  728TIP3   OH2 2189   6.004   1.322   2.187
  728TIP3    H1 2190   5.997   1.274   2.105
  728TIP3    H2 2191   6.025   1.412   2.160
  729TIP3   OH2 2192   1.235   1.353   3.710
  729TIP3    H1 2193   1.248   1.281   3.649
  729TIP3    H2 2194   1.295   1.421   3.681
  730TIP3   OH2 2195   0.178   5.107   2.780
  730TIP3    H1 2196   0.165   5.029   2.726
  730TIP3    H2 2197   0.273   5.114   2.791
  731TIP3   OH2 2198   2.389   4.865   2.062
  731TIP3    H1 2199   2.477   4.884   2.029
  731TIP3    H2 2200   2.332   4.923   2.011
  732TIP3   OH2 2201   1.143   0.983   3.277
  732TIP3    H1 2202   1.200   0.911   3.304
  732TIP3    H2 2203   1.168   1.002   3.187
  733TIP3   OH2 2204   6.248   4.690   1.002
  733TIP3    H1 2205   6.327   4.740   1.021
  733TIP3    H2 2206   6.277   4.617   0.947
  734TIP3   OH2 2207   1.905   5.829   3.284
  734TIP3    H1 2208   1.927   5.738   3.303
  734TIP3    H2 2209   1.844   5.823   3.210
  735TIP3   OH2 2210   4.620   1.986   2.348
  735TIP3    H1 2211   4.540   1.934   2.341
  735TIP3    H2 2212   4.675   1.937   2.410
  736TIP3   OH2 2213   3.801   4.484   4.057
  736TIP3    H1 2214   3.819   4.568   4.016
  736TIP3    H2 2215   3.777   4.426   3.985
  737TIP3   OH2 2216   4.196   4.297   3.745
  737TIP3    H1 2217   4.271   4.290   3.804
  737TIP3    H2 2218   4.171   4.206   3.728
  738TIP3   OH2 2219   2.497   1.058   4.852
  738TIP3    H1 2220   2.585   1.020   4.861
  738TIP3    H2 2221   2.495   1.092   4.763
  739TIP3   OH2 2222   1.383   2.416   4.350
  739TIP3    H1 2223   1.293   2.432   4.320
  739TIP3    H2 2224   1.406   2.331   4.311
  740TIP3   OH2 2225   0.888   3.132   1.262
  740TIP3    H1 2226   0.853   3.043   1.268
  740TIP3    H2 2227   0.857   3.164   1.177
  741TIP3   OH2 2228   3.648   1.460   3.173
  741TIP3    H1 2229   3.725   1.432   3.123
  741TIP3    H2 2230   3.685   1.518   3.241
  742TIP3   OH2 2231   5.284   0.503   4.684
  742TIP3    H1 2232   5.240   0.580   4.719
  742TIP3    H2 2233   5.378   0.523   4.691
  743TIP3   OH2 2234   6.040   5.634   2.724
  743TIP3    H1 2235   6.009   5.593   2.644
  743TIP3    H2 2236   6.124   5.591   2.742
  744TIP3   OH2 2237   5.461   0.830   1.563
  744TIP3    H1 2238   5.541   0.873   1.532
  744TIP3    H2 2239   5.471   0.827   1.658
  745TIP3   OH2 2240   0.172   2.473   2.190
  745TIP3    H1 2241   0.179   2.545   2.126
  745TIP3    H2 2242   0.210   2.509   2.270
  746TIP3   OH2 2243   4.229   2.264   4.637
  746TIP3    H1 2244   4.300   2.327   4.626
  746TIP3    H2 2245   4.223   2.221   4.551
  747TIP3   OH2 2246   1.289   5.759   1.896
  747TIP3    H1 2247   1.376   5.797   1.895
  747TIP3    H2 2248   1.278   5.725   1.985
  748TIP3   OH2 2249   1.233   1.316   4.495
  748TIP3    H1 2250   1.274   1.396   4.464
  748TIP3    H2 2251   1.155   1.306   4.440
  749TIP3   OH2 2252   3.585   4.694   1.128
  749TIP3    H1 2253   3.638   4.752   1.074
  749TIP3    H2 2254   3.648   4.633   1.166
  750TIP3   OH2 2255   4.137   3.515   3.051
  750TIP3    H1 2256   4.102   3.561   3.127
  750TIP3    H2 2257   4.063   3.466   3.015
  751TIP3   OH2 2258   5.616   3.446   3.465
  751TIP3    H1 2259   5.682   3.390   3.423
  751TIP3    H2 2260   5.595   3.401   3.547
  752TIP3   OH2 2261   5.408   4.648   0.362
  752TIP3    H1 2262   5.384   4.727   0.314
  752TIP3    H2 2263   5.503   4.644   0.356
  753TIP3   OH2 2264   5.535   5.795   1.362
  753TIP3    H1 2265   5.594   5.851   1.414
  753TIP3    H2 2266   5.590   5.760   1.293
  754TIP3   OH2 2267   1.244   4.665   1.656
  754TIP3    H1 2268   1.169   4.659   1.597
  754TIP3    H2 2269   1.213   4.626   1.738
  755TIP3   OH2 2270   4.277   2.437   2.111
  755TIP3    H1 2271   4.248   2.483   2.032
  755TIP3    H2 2272   4.198   2.428   2.164
  756TIP3   OH2 2273   2.481   1.436   1.141
  756TIP3    H1 2274   2.505   1.348   1.113
  756TIP3    H2 2275   2.551   1.462   1.201
  757TIP3   OH2 2276   3.735   4.683   4.319
  757TIP3    H1 2277   3.691   4.759   4.359
  757TIP3    H2 2278   3.729   4.699   4.225
  758TIP3   OH2 2279   0.073   0.527   2.330
  758TIP3    H1 2280   0.128   0.451   2.350
  758TIP3    H2 2281   0.075   0.534   2.235
  759TIP3   OH2 2282   6.152   1.253   2.868
  759TIP3    H1 2283   6.157   1.221   2.777
  759TIP3    H2 2284   6.165   1.348   2.860
  760TIP3   OH2 2285   0.521   4.795   3.783
  760TIP3    H1 2286   0.500   4.888   3.778
  760TIP3    H2 2287   0.596   4.784   3.724
  761TIP3   OH2 2288   0.705   2.163   2.111
  761TIP3    H1 2289   0.735   2.243   2.154
  761TIP3    H2 2290   0.618   2.147   2.147
  762TIP3   OH2 2291   3.568   5.888   3.176
  762TIP3    H1 2292   3.525   5.816   3.131
  762TIP3    H2 2293   3.499   5.952   3.193
  763TIP3   OH2 2294   3.217   2.848   4.278
  763TIP3    H1 2295   3.151   2.869   4.344
  763TIP3    H2 2296   3.248   2.761   4.301
  764TIP3   OH2 2297   1.524   2.077   4.946
  764TIP3    H1 2298   1.525   2.166   4.980
  764TIP3    H2 2299   1.461   2.031   5.001
  765TIP3   OH2 2300   4.997   0.851   0.345
  765TIP3    H1 2301   4.952   0.767   0.338
  765TIP3    H2 2302   5.010   0.863   0.439
  766TIP3   OH2 2303   6.044   1.387   1.591
  766TIP3    H1 2304   6.000   1.446   1.529
  766TIP3    H2 2305   6.016   1.417   1.677
  767TIP3   OH2 2306   6.179   3.462   2.685
  767TIP3    H1 2307   6.234   3.502   2.752
  767TIP3    H2 2308   6.101   3.432   2.733
  768TIP3   OH2 2309   5.168   4.565   1.369
  768TIP3    H1 2310   5.249   4.591   1.326
  768TIP3    H2 2311   5.193   4.490   1.423
  769TIP3   OH2 2312   0.887   3.033   4.345
  769TIP3    H1 2313   0.964   3.084   4.370
  769TIP3    H2 2314   0.835   3.025   4.426
  770TIP3   OH2 2315   0.762   1.458   3.480
  770TIP3    H1 2316   0.804   1.373   3.494
  770TIP3    H2 2317   0.668   1.439   3.486
  771TIP3   OH2 2318   1.563   4.435   4.512
  771TIP3    H1 2319   1.635   4.376   4.536
  771TIP3    H2 2320   1.601   4.523   4.520
  772TIP3   OH2 2321   3.213   3.920   4.456
  772TIP3    H1 2322   3.144   3.917   4.522
  772TIP3    H2 2323   3.241   3.829   4.447
  773TIP3   OH2 2324   4.260   5.925   2.856
  773TIP3    H1 2325   4.256   5.860   2.926
  773TIP3    H2 2326   4.230   5.878   2.778
  774TIP3   OH2 2327   2.067   2.204   1.040
  774TIP3    H1 2328   2.098   2.263   1.108
  774TIP3    H2 2329   1.997   2.154   1.081
  775TIP3   OH2 2330   5.177   3.609   3.562
  775TIP3    H1 2331   5.142   3.524   3.588
  775TIP3    H2 2332   5.199   3.599   3.469
  776TIP3   OH2 2333   4.469   0.070   0.294
  776TIP3    H1 2334   4.500   0.132   0.228
  776TIP3    H2 2335   4.411   0.121   0.349
  777TIP3   OH2 2336   1.800   0.970   3.918
  777TIP3    H1 2337   1.759   1.009   3.995
  777TIP3    H2 2338   1.888   0.947   3.946
  778TIP3   OH2 2339   0.188   4.059   4.974
  778TIP3    H1 2340   0.202   4.015   4.891
  778TIP3    H2 2341   0.134   3.998   5.025
  779TIP3   OH2 2342   5.558   5.179   4.098
  779TIP3    H1 2343   5.486   5.226   4.057
  779TIP3    H2 2344   5.592   5.240   4.164
  780TIP3   OH2 2345   4.305   4.249   2.813
  780TIP3    H1 2346   4.344   4.216   2.894
  780TIP3    H2 2347   4.334   4.187   2.745
  781TIP3   OH2 2348   0.825   4.442   3.168
  781TIP3    H1 2349   0.752   4.505   3.170
  781TIP3    H2 2350   0.885   4.477   3.102
  782TIP3   OH2 2351   1.138   4.770   2.815
  782TIP3    H1 2352   1.122   4.740   2.726
  782TIP3    H2 2353   1.108   4.861   2.816
  783TIP3   OH2 2354   2.564   2.296   2.842
  783TIP3    H1 2355   2.595   2.357   2.909
  783TIP3    H2 2356   2.509   2.349   2.785
  784TIP3   OH2 2357   2.448   3.145   1.977
  784TIP3    H1 2358   2.371   3.160   1.923
  784TIP3    H2 2359   2.489   3.067   1.940
  785TIP3   OH2 2360   0.550   0.759   0.177
  785TIP3    H1 2361   0.483   0.771   0.111
  785TIP3    H2 2362   0.615   0.828   0.158
  786TIP3   OH2 2363   3.156   3.390   4.809
  786TIP3    H1 2364   3.107   3.384   4.728
  786TIP3    H2 2365   3.219   3.318   4.805
  787TIP3   OH2 2366   5.189   5.684   4.381
  787TIP3    H1 2367   5.130   5.683   4.305
  787TIP3    H2 2368   5.243   5.762   4.367
  788TIP3   OH2 2369   1.464   2.924   3.652
  788TIP3    H1 2370   1.556   2.913   3.675
  788TIP3    H2 2371   1.455   2.880   3.567
  789TIP3   OH2 2372   1.147   3.654   3.826
  789TIP3    H1 2373   1.226   3.605   3.848
  789TIP3    H2 2374   1.081   3.587   3.809
  790TIP3   OH2 2375   2.461   5.259   4.179
  790TIP3    H1 2376   2.378   5.253   4.132
  790TIP3    H2 2377   2.496   5.345   4.155
  791TIP3   OH2 2378   3.230   4.092   0.169
  791TIP3    H1 2379   3.239   4.063   0.078
  791TIP3    H2 2380   3.149   4.052   0.199
  792TIP3   OH2 2381   5.553   2.541   1.801
  792TIP3    H1 2382   5.515   2.590   1.729
  792TIP3    H2 2383   5.486   2.544   1.870
  793TIP3   OH2 2384   0.541   0.444   1.074
  793TIP3    H1 2385   0.554   0.380   1.003
  793TIP3    H2 2386   0.629   0.463   1.105
  794TIP3   OH2 2387   1.088   4.584   4.675
  794TIP3    H1 2388   1.110   4.641   4.749
  794TIP3    H2 2389   1.169   4.536   4.657
  795TIP3   OH2 2390   2.461   1.551   2.949
  795TIP3    H1 2391   2.470   1.638   2.987
  795TIP3    H2 2392   2.532   1.500   2.989
  796TIP3   OH2 2393   5.243   3.371   0.985
  796TIP3    H1 2394   5.191   3.307   0.937
  796TIP3    H2 2395   5.197   3.454   0.972
  797TIP3   OH2 2396   6.179   4.376   2.718
  797TIP3    H1 2397   6.102   4.401   2.667
  797TIP3    H2 2398   6.188   4.282   2.702
  798TIP3   OH2 2399   3.072   2.944   3.395
  798TIP3    H1 2400   3.089   2.940   3.301
  798TIP3    H2 2401   3.016   2.869   3.413
  799TIP3   OH2 2402   3.330   4.246   1.809
  799TIP3    H1 2403   3.339   4.341   1.818
  799TIP3    H2 2404   3.245   4.226   1.849
  800TIP3   OH2 2405   4.932   0.976   4.450
  800TIP3    H1 2406   4.907   0.953   4.540
  800TIP3    H2 2407   5.027   0.988   4.454
  801TIP3   OH2 2408   5.419   2.712   1.289
  801TIP3    H1 2409   5.420   2.685   1.381
  801TIP3    H2 2410   5.430   2.631   1.240
  802TIP3   OH2 2411   3.632   5.482   4.715
  802TIP3    H1 2412   3.701   5.548   4.716
  802TIP3    H2 2413   3.668   5.410   4.768
  803TIP3   OH2 2414   2.155   2.098   4.333
  803TIP3    H1 2415   2.168   2.054   4.249
  803TIP3    H2 2416   2.237   2.143   4.350
  804TIP3   OH2 2417   0.936   3.555   2.463
  804TIP3    H1 2418   0.989   3.531   2.539
  804TIP3    H2 2419   0.980   3.514   2.389
  805TIP3   OH2 2420   3.168   0.570   2.583
  805TIP3    H1 2421   3.194   0.639   2.521
  805TIP3    H2 2422   3.249   0.547   2.628
  806TIP3   OH2 2423  -0.025   1.510   0.827
  806TIP3    H1 2424   0.068   1.530   0.839
  806TIP3    H2 2425  -0.071   1.585   0.864
  807TIP3   OH2 2426   4.401   0.776   4.160
  807TIP3    H1 2427   4.348   0.848   4.195
  807TIP3    H2 2428   4.482   0.778   4.211
  808TIP3   OH2 2429   3.018   2.341   4.961
  808TIP3    H1 2430   3.044   2.249   4.954
  808TIP3    H2 2431   2.968   2.345   5.043
  809TIP3   OH2 2432   3.448   1.410   3.395
  809TIP3    H1 2433   3.507   1.411   3.319
  809TIP3    H2 2434   3.429   1.317   3.409
  810TIP3   OH2 2435   3.036   1.561   0.931
  810TIP3    H1 2436   3.027   1.637   0.873
  810TIP3    H2 2437   3.071   1.597   1.012
  811TIP3   OH2 2438   0.053   5.684   5.065
  811TIP3    H1 2439   0.127   5.667   5.123
  811TIP3    H2 2440  -0.024   5.653   5.113
  812TIP3   OH2 2441   2.442   2.726   4.164
  812TIP3    H1 2442   2.348   2.730   4.148
  812TIP3    H2 2443   2.460   2.634   4.181
  813TIP3   OH2 2444   0.603   5.346   4.785
  813TIP3    H1 2445   0.599   5.316   4.694
  813TIP3    H2 2446   0.674   5.410   4.786
  814TIP3   OH2 2447   3.680   3.390   1.336
  814TIP3    H1 2448   3.698   3.368   1.427
  814TIP3    H2 2449   3.602   3.445   1.339
  815TIP3   OH2 2450   3.769   4.414   5.079
  815TIP3    H1 2451   3.800   4.330   5.115
  815TIP3    H2 2452   3.842   4.448   5.029
  816TIP3   OH2 2453   5.610   2.102   4.032
  816TIP3    H1 2454   5.613   2.112   3.936
  816TIP3    H2 2455   5.517   2.087   4.051
  817TIP3   OH2 2456   2.012   5.717   2.810
  817TIP3    H1 2457   1.928   5.679   2.835
  817TIP3    H2 2458   2.076   5.672   2.866
  818TIP3   OH2 2459   6.146   3.821   0.499
  818TIP3    H1 2460   6.238   3.814   0.522
  818TIP3    H2 2461   6.104   3.747   0.544
  819TIP3   OH2 2462   3.797   5.489   5.046
  819TIP3    H1 2463   3.727   5.449   5.098
  819TIP3    H2 2464   3.773   5.581   5.040
  820TIP3   OH2 2465   0.474   3.544   2.430
  820TIP3    H1 2466   0.474   3.630   2.386
  820TIP3    H2 2467   0.542   3.551   2.497
  821TIP3   OH2 2468   5.560   3.723   0.122
  821TIP3    H1 2469   5.499   3.650   0.134
  821TIP3    H2 2470   5.644   3.680   0.103
  822TIP3   OH2 2471   1.477   1.527   1.504
  822TIP3    H1 2472   1.504   1.570   1.423
  822TIP3    H2 2473   1.390   1.494   1.486
  823TIP3   OH2 2474   1.066   5.984   2.473
  823TIP3    H1 2475   1.111   6.037   2.538
  823TIP3    H2 2476   0.977   5.973   2.508
  824TIP3   OH2 2477   1.930   3.494   1.311
  824TIP3    H1 2478   1.950   3.536   1.394
  824TIP3    H2 2479   1.953   3.402   1.324
  825TIP3   OH2 2480   0.439   4.709   0.886
  825TIP3    H1 2481   0.486   4.628   0.905
  825TIP3    H2 2482   0.381   4.687   0.813
  826TIP3   OH2 2483   3.106   1.056   3.856
  826TIP3    H1 2484   3.075   1.101   3.935
  826TIP3    H2 2485   3.077   1.113   3.784
  827TIP3   OH2 2486   5.463   4.591   4.517
  827TIP3    H1 2487   5.485   4.664   4.460
  827TIP3    H2 2488   5.484   4.513   4.465
  828TIP3   OH2 2489   3.711   2.127   4.002
  828TIP3    H1 2490   3.626   2.100   3.968
  828TIP3    H2 2491   3.702   2.221   4.018
  829TIP3   OH2 2492   0.541   2.087   5.094
  829TIP3    H1 2493   0.595   2.036   5.153
  829TIP3    H2 2494   0.455   2.091   5.137
  830TIP3   OH2 2495   1.221   2.656   2.516
  830TIP3    H1 2496   1.310   2.622   2.514
  830TIP3    H2 2497   1.181   2.611   2.591
  831TIP3   OH2 2498   5.829   5.440   2.329
  831TIP3    H1 2499   5.910   5.388   2.332
  831TIP3    H2 2500   5.831   5.482   2.243
  832TIP3   OH2 2501   0.357   5.167   4.791
  832TIP3    H1 2502   0.402   5.251   4.792
  832TIP3    H2 2503   0.267   5.188   4.816
  833TIP3   OH2 2504   2.181   1.715   0.566
  833TIP3    H1 2505   2.184   1.637   0.510
  833TIP3    H2 2506   2.130   1.778   0.515
  834TIP3   OH2 2507   2.386   2.536   1.764
  834TIP3    H1 2508   2.352   2.519   1.851
  834TIP3    H2 2509   2.340   2.475   1.707
  835TIP3   OH2 2510   0.253   0.016   3.266
  835TIP3    H1 2511   0.219  -0.061   3.220
  835TIP3    H2 2512   0.308   0.060   3.202
  836TIP3   OH2 2513   2.191   4.793   0.867
  836TIP3    H1 2514   2.163   4.834   0.785
  836TIP3    H2 2515   2.142   4.838   0.935
  837TIP3   OH2 2516   5.646   1.343   1.872
  837TIP3    H1 2517   5.626   1.436   1.883
  837TIP3    H2 2518   5.610   1.302   1.951
  838TIP3   OH2 2519   5.968   5.793   2.436
  838TIP3    H1 2520   5.889   5.756   2.397
  838TIP3    H2 2521   5.982   5.876   2.391
  839TIP3   OH2 2522   4.740   0.298   2.698
  839TIP3    H1 2523   4.794   0.372   2.670
  839TIP3    H2 2524   4.652   0.319   2.665
  840TIP3   OH2 2525   2.671   1.171   2.773
  840TIP3    H1 2526   2.658   1.076   2.779
  840TIP3    H2 2527   2.766   1.183   2.775
  841TIP3   OH2 2528   0.797   0.929   0.384
  841TIP3    H1 2529   0.885   0.903   0.410
  841TIP3    H2 2530   0.747   0.928   0.466
  842TIP3   OH2 2531   1.334   4.307   0.154
  842TIP3    H1 2532   1.386   4.332   0.231
  842TIP3    H2 2533   1.397   4.276   0.090
  843TIP3   OH2 2534   0.602   5.361   0.068
  843TIP3    H1 2535   0.678   5.401   0.111
  843TIP3    H2 2536   0.621   5.267   0.069
  844TIP3   OH2 2537   2.055   1.814   1.095
  844TIP3    H1 2538   2.090   1.787   1.010
  844TIP3    H2 2539   2.059   1.735   1.149
  845TIP3   OH2 2540   3.583   0.235   3.741
  845TIP3    H1 2541   3.534   0.205   3.818
  845TIP3    H2 2542   3.530   0.208   3.667
  846TIP3   OH2 2543   0.483   5.711   1.677
  846TIP3    H1 2544   0.518   5.796   1.705
  846TIP3    H2 2545   0.507   5.704   1.585
  847TIP3   OH2 2546   3.014   3.739   0.121
  847TIP3    H1 2547   2.975   3.690   0.194
  847TIP3    H2 2548   3.093   3.690   0.099
  848TIP3   OH2 2549   1.938   4.274   0.855
  848TIP3    H1 2550   2.001   4.231   0.798
  848TIP3    H2 2551   1.964   4.366   0.856
  849TIP3   OH2 2552   1.029   5.763   0.834
  849TIP3    H1 2553   1.090   5.690   0.829
  849TIP3    H2 2554   0.949   5.730   0.795
  850TIP3   OH2 2555   3.455   1.610   4.505
  850TIP3    H1 2556   3.497   1.590   4.589
  850TIP3    H2 2557   3.500   1.688   4.474
  851TIP3   OH2 2558   0.419   2.679   1.712
  851TIP3    H1 2559   0.492   2.712   1.764
  851TIP3    H2 2560   0.455   2.602   1.667
  852TIP3   OH2 2561   5.132   0.372   0.908
  852TIP3    H1 2562   5.220   0.351   0.877
  852TIP3    H2 2563   5.128   0.336   0.997
  853TIP3   OH2 2564   1.940   0.860   1.534
  853TIP3    H1 2565   1.909   0.917   1.604
  853TIP3    H2 2566   1.942   0.915   1.457
  854TIP3   OH2 2567   3.736   4.602   3.645
  854TIP3    H1 2568   3.641   4.593   3.641
  854TIP3    H2 2569   3.749   4.686   3.690
  855TIP3   OH2 2570   3.018   5.898   0.357
  855TIP3    H1 2571   3.076   5.928   0.287
  855TIP3    H2 2572   3.004   5.805   0.339
  856TIP3   OH2 2573   2.569   1.995   4.994
  856TIP3    H1 2574   2.558   1.913   5.043
  856TIP3    H2 2575   2.481   2.028   4.981
  857TIP3   OH2 2576   5.549   3.514   3.908
  857TIP3    H1 2577   5.515   3.570   3.978
  857TIP3    H2 2578   5.619   3.565   3.867
  858TIP3   OH2 2579   5.152   1.035   2.546
  858TIP3    H1 2580   5.214   0.972   2.582
  858TIP3    H2 2581   5.164   1.030   2.452
  859TIP3   OH2 2582   0.948   1.136   1.478
  859TIP3    H1 2583   0.960   1.170   1.567
  859TIP3    H2 2584   0.947   1.214   1.422
  860TIP3   OH2 2585   1.197   4.011   4.795
  860TIP3    H1 2586   1.216   3.934   4.741
  860TIP3    H2 2587   1.228   3.987   4.883
  861TIP3   OH2 2588   1.375   4.560   2.164
  861TIP3    H1 2589   1.434   4.627   2.198
  861TIP3    H2 2590   1.296   4.607   2.140
  862TIP3   OH2 2591   6.232   4.568   0.687
  862TIP3    H1 2592   6.197   4.565   0.598
  862TIP3    H2 2593   6.216   4.480   0.722
  863TIP3   OH2 2594   2.921   2.353   3.232
  863TIP3    H1 2595   2.942   2.351   3.325
  863TIP3    H2 2596   2.870   2.273   3.218
  864TIP3   OH2 2597   4.455   2.386   4.519
  864TIP3    H1 2598   4.497   2.458   4.470
  864TIP3    H2 2599   4.508   2.377   4.598
  865TIP3   OH2 2600   1.472   0.953   4.963
  865TIP3    H1 2601   1.567   0.940   4.968
  865TIP3    H2 2602   1.452   0.952   4.870
  866TIP3   OH2 2603   2.022   3.284   3.019
  866TIP3    H1 2604   2.045   3.217   2.955
  866TIP3    H2 2605   2.032   3.367   2.972
  867TIP3   OH2 2606   3.070   1.498   3.898
  867TIP3    H1 2607   3.071   1.502   3.994
  867TIP3    H2 2608   2.980   1.520   3.874
  868TIP3   OH2 2609   0.199   2.380   0.740
  868TIP3    H1 2610   0.164   2.423   0.817
  868TIP3    H2 2611   0.122   2.361   0.686
  869TIP3   OH2 2612   1.802   2.520   5.006
  869TIP3    H1 2613   1.781   2.529   5.098
  869TIP3    H2 2614   1.738   2.573   4.960
  870TIP3   OH2 2615   3.521   3.004   0.301
  870TIP3    H1 2616   3.582   2.991   0.374
  870TIP3    H2 2617   3.438   3.026   0.344
  871TIP3   OH2 2618   5.821   0.000   4.612
  871TIP3    H1 2619   5.730  -0.019   4.637
  871TIP3    H2 2620   5.818   0.008   4.517
  872TIP3   OH2 2621   1.384   4.737   0.443
  872TIP3    H1 2622   1.342   4.805   0.389
  872TIP3    H2 2623   1.476   4.738   0.415
  873TIP3   OH2 2624   5.613   4.695   4.138
  873TIP3    H1 2625   5.628   4.758   4.068
  873TIP3    H2 2626   5.688   4.635   4.133
  874TIP3   OH2 2627   2.100   0.096   3.620
  874TIP3    H1 2628   2.049   0.106   3.539
  874TIP3    H2 2629   2.071   0.169   3.675
  875TIP3   OH2 2630   5.382   5.960   3.663
  875TIP3    H1 2631   5.383   6.055   3.648
  875TIP3    H2 2632   5.293   5.941   3.693
  876TIP3   OH2 2633   2.373   3.407   1.014
  876TIP3    H1 2634   2.375   3.333   1.074
  876TIP3    H2 2635   2.280   3.424   0.999
  877TIP3   OH2 2636   5.302   4.046   0.481
  877TIP3    H1 2637   5.274   3.959   0.506
  877TIP3    H2 2638   5.242   4.105   0.528
  878TIP3   OH2 2639   2.104   4.289   2.110
  878TIP3    H1 2640   2.179   4.319   2.060
  878TIP3    H2 2641   2.068   4.217   2.059
  879TIP3   OH2 2642   5.170   4.487   0.303
  879TIP3    H1 2643   5.194   4.405   0.259
  879TIP3    H2 2644   5.252   4.537   0.307
  880TIP3   OH2 2645   2.446   0.345   4.297
  880TIP3    H1 2646   2.528   0.314   4.335
  880TIP3    H2 2647   2.447   0.311   4.208
  881TIP3   OH2 2648   3.248   0.116   1.357
  881TIP3    H1 2649   3.159   0.149   1.366
  881TIP3    H2 2650   3.302   0.195   1.348
  882TIP3   OH2 2651   5.743   2.058   1.584
  882TIP3    H1 2652   5.734   1.986   1.646
  882TIP3    H2 2653   5.764   2.016   1.500
  883TIP3   OH2 2654   3.975   1.306   4.697
  883TIP3    H1 2655   3.887   1.288   4.665
  883TIP3    H2 2656   4.023   1.224   4.684
  884TIP3   OH2 2657   2.318   0.821   4.815
  884TIP3    H1 2658   2.376   0.895   4.798
  884TIP3    H2 2659   2.325   0.805   4.909
  885TIP3   OH2 2660   5.722   0.638   3.102
  885TIP3    H1 2661   5.793   0.672   3.156
  885TIP3    H2 2662   5.692   0.560   3.148
  886TIP3   OH2 2663   2.883   2.851   3.073
  886TIP3    H1 2664   2.867   2.759   3.093
  886TIP3    H2 2665   2.795   2.889   3.063
  887TIP3   OH2 2666   2.816   1.619   2.232
  887TIP3    H1 2667   2.781   1.687   2.289
  887TIP3    H2 2668   2.780   1.639   2.146
  888TIP3   OH2 2669   5.925   4.690   3.536
  888TIP3    H1 2670   5.982   4.634   3.589
  888TIP3    H2 2671   5.940   4.661   3.446
  889TIP3   OH2 2672   3.209   5.138   3.422
  889TIP3    H1 2673   3.184   5.096   3.504
  889TIP3    H2 2674   3.213   5.066   3.358
  890TIP3   OH2 2675   0.145   2.929   0.019
  890TIP3    H1 2676   0.234   2.948  -0.011
  890TIP3    H2 2677   0.102   3.014   0.024
  891TIP3   OH2 2678   4.079   4.389   3.348
  891TIP3    H1 2679   4.022   4.371   3.273
  891TIP3    H2 2680   4.021   4.384   3.424
  892TIP3   OH2 2681   2.776   1.678   1.226
  892TIP3    H1 2682   2.744   1.728   1.302
  892TIP3    H2 2683   2.804   1.745   1.164
  893TIP3   OH2 2684   1.311   5.764   1.004
  893TIP3    H1 2685   1.364   5.713   0.942
  893TIP3    H2 2686   1.229   5.781   0.956
  894TIP3   OH2 2687   5.557   1.165   0.878
  894TIP3    H1 2688   5.514   1.142   0.795
  894TIP3    H2 2689   5.535   1.093   0.937
  895TIP3   OH2 2690   0.240   2.292   0.204
  895TIP3    H1 2691   0.336   2.295   0.209
  895TIP3    H2 2692   0.215   2.378   0.171
  896TIP3   OH2 2693   4.513   0.744   4.973
  896TIP3    H1 2694   4.478   0.832   4.986
  896TIP3    H2 2695   4.460   0.688   5.029
  897TIP3   OH2 2696   2.846   2.030   1.684
  897TIP3    H1 2697   2.821   1.938   1.673
  897TIP3    H2 2698   2.767   2.074   1.713
  898TIP3   OH2 2699   2.017   5.650   3.867
  898TIP3    H1 2700   1.984   5.562   3.886
  898TIP3    H2 2701   1.974   5.675   3.786
  899TIP3   OH2 2702   3.822   0.638   2.340
  899TIP3    H1 2703   3.779   0.655   2.256
  899TIP3    H2 2704   3.914   0.658   2.324
  900TIP3   OH2 2705   2.738   5.127   0.568
  900TIP3    H1 2706   2.656   5.083   0.591
  900TIP3    H2 2707   2.775   5.075   0.497
  901TIP3   OH2 2708   2.945   2.456   1.002
  901TIP3    H1 2709   3.015   2.501   1.048
  901TIP3    H2 2710   2.899   2.525   0.955
  902TIP3   OH2 2711   2.344   0.130   4.780
  902TIP3    H1 2712   2.278   0.062   4.798
  902TIP3    H2 2713   2.329   0.196   4.847
  903TIP3   OH2 2714   3.769   3.040   4.773
  903TIP3    H1 2715   3.767   2.997   4.688
  903TIP3    H2 2716   3.687   3.012   4.815
  904TIP3   OH2 2717   0.166   2.844   3.863
  904TIP3    H1 2718   0.169   2.885   3.950
  904TIP3    H2 2719   0.181   2.751   3.880
  905TIP3   OH2 2720   5.728   2.541   2.300
  905TIP3    H1 2721   5.747   2.448   2.295
  905TIP3    H2 2722   5.778   2.580   2.228
  906TIP3   OH2 2723   2.462   5.800   1.877
  906TIP3    H1 2724   2.510   5.855   1.815
  906TIP3    H2 2725   2.507   5.716   1.875
  907TIP3   OH2 2726   5.184   2.875   4.385
  907TIP3    H1 2727   5.112   2.938   4.395
  907TIP3    H2 2728   5.182   2.851   4.292
  908TIP3   OH2 2729   4.484   5.505   2.627
  908TIP3    H1 2730   4.551   5.442   2.652
  908TIP3    H2 2731   4.401   5.461   2.647
  909TIP3   OH2 2732   3.777   2.819   2.920
  909TIP3    H1 2733   3.747   2.751   2.859
  909TIP3    H2 2734   3.781   2.775   3.005
  910TIP3   OH2 2735   0.507   4.849   1.110
  910TIP3    H1 2736   0.568   4.909   1.067
  910TIP3    H2 2737   0.464   4.803   1.038
  911TIP3   OH2 2738   1.816   3.590   2.098
  911TIP3    H1 2739   1.896   3.538   2.107
  911TIP3    H2 2740   1.758   3.558   2.167
  912TIP3   OH2 2741   5.990   4.798   0.573
  912TIP3    H1 2742   5.982   4.796   0.668
  912TIP3    H2 2743   5.910   4.842   0.543
  913TIP3   OH2 2744   0.034   4.774   1.449
  913TIP3    H1 2745  -0.053   4.798   1.481
  913TIP3    H2 2746   0.078   4.858   1.435
  914TIP3   OH2 2747   3.225   5.253   2.214
  914TIP3    H1 2748   3.244   5.160   2.202
  914TIP3    H2 2749   3.214   5.263   2.309
  915TIP3   OH2 2750   3.126   1.315   1.263
  915TIP3    H1 2751   3.170   1.233   1.286
  915TIP3    H2 2752   3.189   1.362   1.208
  916TIP3   OH2 2753   5.384   1.157   0.666
  916TIP3    H1 2754   5.394   1.244   0.627
  916TIP3    H2 2755   5.345   1.104   0.596
  917TIP3   OH2 2756   3.829   1.836   2.042
  917TIP3    H1 2757   3.762   1.777   2.077
  917TIP3    H2 2758   3.825   1.913   2.099
  918TIP3   OH2 2759   5.677   5.404   2.769
  918TIP3    H1 2760   5.703   5.493   2.794
  918TIP3    H2 2761   5.658   5.361   2.853
  919TIP3   OH2 2762   2.099   0.897   4.667
  919TIP3    H1 2763   2.178   0.857   4.703
  919TIP3    H2 2764   2.029   0.875   4.728
  920TIP3   OH2 2765   0.643   1.778   3.444
  920TIP3    H1 2766   0.686   1.706   3.398
  920TIP3    H2 2767   0.552   1.776   3.413
  921TIP3   OH2 2768   5.181   0.626   1.008
  921TIP3    H1 2769   5.148   0.569   0.938
  921TIP3    H2 2770   5.199   0.566   1.081
  922TIP3   OH2 2771   5.554   2.068   4.648
  922TIP3    H1 2772   5.622   2.000   4.646
  922TIP3    H2 2773   5.556   2.101   4.738
  923TIP3   OH2 2774   4.823   4.517   2.697
  923TIP3    H1 2775   4.775   4.468   2.764
  923TIP3    H2 2776   4.764   4.518   2.622
  924TIP3   OH2 2777   5.389   4.520   2.693
  924TIP3    H1 2778   5.297   4.547   2.700
  924TIP3    H2 2779   5.419   4.511   2.783
  925TIP3   OH2 2780   2.760   5.530   0.284
  925TIP3    H1 2781   2.849   5.563   0.289
  925TIP3    H2 2782   2.730   5.555   0.196
  926TIP3   OH2 2783   5.132   4.171   3.528
  926TIP3    H1 2784   5.144   4.191   3.621
  926TIP3    H2 2785   5.118   4.076   3.526
  927TIP3   OH2 2786   4.471   3.660   2.207
  927TIP3    H1 2787   4.551   3.712   2.196
  927TIP3    H2 2788   4.406   3.723   2.236
  928TIP3   OH2 2789  -0.050   4.262   2.493
  928TIP3    H1 2790  -0.036   4.355   2.474
  928TIP3    H2 2791   0.033   4.232   2.528
  929TIP3   OH2 2792   1.216   3.621   1.845
  929TIP3    H1 2793   1.167   3.696   1.813
  929TIP3    H2 2794   1.163   3.545   1.820
  930TIP3   OH2 2795   4.536   2.520   2.454
  930TIP3    H1 2796   4.443   2.495   2.457
  930TIP3    H2 2797   4.583   2.437   2.447
  931TIP3   OH2 2798   3.660   5.322   3.988
  931TIP3    H1 2799   3.594   5.289   3.928
  931TIP3    H2 2800   3.719   5.373   3.933
  932TIP3   OH2 2801   4.638   2.039   3.280
  932TIP3    H1 2802   4.716   2.004   3.323
  932TIP3    H2 2803   4.568   2.026   3.344
  933TIP3   OH2 2804   4.654   0.921   0.444
  933TIP3    H1 2805   4.562   0.937   0.422
  933TIP3    H2 2806   4.654   0.906   0.538
  934TIP3   OH2 2807   3.090   4.973   2.265
  934TIP3    H1 2808   3.179   4.939   2.280
  934TIP3    H2 2809   3.061   5.003   2.352
  935TIP3   OH2 2810   2.029   3.031   4.359
  935TIP3    H1 2811   1.976   3.065   4.286
  935TIP3    H2 2812   1.981   3.057   4.437
  936TIP3   OH2 2813   4.277   1.838   1.605
  936TIP3    H1 2814   4.316   1.774   1.664
  936TIP3    H2 2815   4.198   1.867   1.649
  937TIP3   OH2 2816   0.377   1.520   4.835
  937TIP3    H1 2817   0.394   1.476   4.918
  937TIP3    H2 2818   0.343   1.451   4.778
  938TIP3   OH2 2819   3.511   3.171   1.297
  938TIP3    H1 2820   3.505   3.170   1.392
  938TIP3    H2 2821   3.579   3.234   1.277
  939TIP3   OH2 2822   2.607   5.781   4.352
  939TIP3    H1 2823   2.585   5.720   4.281
  939TIP3    H2 2824   2.533   5.776   4.412
  940TIP3   OH2 2825   5.473   2.782   3.072
  940TIP3    H1 2826   5.559   2.746   3.047
  940TIP3    H2 2827   5.449   2.839   2.999
  941TIP3   OH2 2828   3.027   3.817   3.615
  941TIP3    H1 2829   3.107   3.848   3.657
  941TIP3    H2 2830   3.057   3.777   3.533
  942TIP3   OH2 2831   5.956   3.539   4.708
  942TIP3    H1 2832   6.051   3.552   4.714
  942TIP3    H2 2833   5.946   3.456   4.661
  943TIP3   OH2 2834   3.758   2.684   2.631
  943TIP3    H1 2835   3.829   2.684   2.567
  943TIP3    H2 2836   3.678   2.687   2.578
  944TIP3   OH2 2837   2.269   4.869   2.640
  944TIP3    H1 2838   2.311   4.876   2.725
  944TIP3    H2 2839   2.340   4.876   2.577
  945TIP3   OH2 2840   2.604   4.276   0.536
  945TIP3    H1 2841   2.571   4.346   0.480
  945TIP3    H2 2842   2.532   4.259   0.597
  946TIP3   OH2 2843   4.675   4.620   3.326
  946TIP3    H1 2844   4.764   4.652   3.310
  946TIP3    H2 2845   4.623   4.698   3.343
  947TIP3   OH2 2846   0.460   3.511   3.481
  947TIP3    H1 2847   0.426   3.591   3.443
  947TIP3    H2 2848   0.524   3.479   3.418
  948TIP3   OH2 2849   4.593   2.441   3.752
  948TIP3    H1 2850   4.526   2.430   3.819
  948TIP3    H2 2851   4.647   2.362   3.760
  949TIP3   OH2 2852   5.909   0.583   4.185
  949TIP3    H1 2853   5.892   0.623   4.100
  949TIP3    H2 2854   5.873   0.645   4.248
  950TIP3   OH2 2855   1.197   0.470   4.175
  950TIP3    H1 2856   1.188   0.547   4.231
  950TIP3    H2 2857   1.110   0.457   4.137
  951TIP3   OH2 2858   4.621   3.759   5.157
  951TIP3    H1 2859   4.569   3.811   5.095
  951TIP3    H2 2860   4.593   3.790   5.243
  952TIP3   OH2 2861   4.615   4.474   5.224
  952TIP3    H1 2862   4.602   4.490   5.130
  952TIP3    H2 2863   4.543   4.521   5.266
  953TIP3   OH2 2864   0.470   2.656   2.869
  953TIP3    H1 2865   0.510   2.649   2.782
  953TIP3    H2 2866   0.539   2.694   2.924
  954TIP3   OH2 2867   5.984   4.947   3.567
  954TIP3    H1 2868   5.932   4.974   3.642
  954TIP3    H2 2869   5.977   4.851   3.566
  955TIP3   OH2 2870   5.373   2.467   3.308
  955TIP3    H1 2871   5.414   2.383   3.332
  955TIP3    H2 2872   5.281   2.456   3.330
  956TIP3   OH2 2873   0.736   0.649   0.466
  956TIP3    H1 2874   0.647   0.614   0.469
  956TIP3    H2 2875   0.733   0.727   0.522
  957TIP3   OH2 2876   2.566   0.892   0.366
  957TIP3    H1 2877   2.646   0.876   0.315
  957TIP3    H2 2878   2.569   0.828   0.437
  958TIP3   OH2 2879   3.406   1.212   3.691
  958TIP3    H1 2880   3.319   1.249   3.701
  958TIP3    H2 2881   3.395   1.140   3.629
  959TIP3   OH2 2882   4.849   3.684   3.028
  959TIP3    H1 2883   4.809   3.609   2.983
  959TIP3    H2 2884   4.847   3.659   3.120
  960TIP3   OH2 2885   5.466   1.677   2.475
  960TIP3    H1 2886   5.518   1.636   2.544
  960TIP3    H2 2887   5.490   1.628   2.396
  961TIP3   OH2 2888   4.970   0.801   4.035
  961TIP3    H1 2889   4.879   0.770   4.041
  961TIP3    H2 2890   4.963   0.896   4.037
  962TIP3   OH2 2891   0.882   1.681   1.753
  962TIP3    H1 2892   0.944   1.678   1.680
  962TIP3    H2 2893   0.920   1.744   1.814
  963TIP3   OH2 2894   3.988   4.561   4.370
  963TIP3    H1 2895   3.900   4.563   4.408
  963TIP3    H2 2896   3.974   4.562   4.276
  964TIP3   OH2 2897   4.810   6.002   1.310
  964TIP3    H1 2898   4.883   5.955   1.269
  964TIP3    H2 2899   4.743   6.007   1.241
  965TIP3   OH2 2900   1.735   1.525   5.161
  965TIP3    H1 2901   1.666   1.588   5.182
  965TIP3    H2 2902   1.766   1.551   5.075
  966TIP3   OH2 2903   0.843   4.609   1.741
  966TIP3    H1 2904   0.922   4.615   1.688
  966TIP3    H2 2905   0.817   4.700   1.755
  967TIP3   OH2 2906   5.052   0.632   3.534
  967TIP3    H1 2907   5.073   0.597   3.620
  967TIP3    H2 2908   5.129   0.683   3.509
  968TIP3   OH2 2909   2.194   2.962   4.168
  968TIP3    H1 2910   2.131   2.962   4.240
  968TIP3    H2 2911   2.222   2.871   4.161
  969TIP3   OH2 2912   4.760   3.703   3.967
  969TIP3    H1 2913   4.817   3.647   3.915
  969TIP3    H2 2914   4.819   3.750   4.026
  970TIP3   OH2 2915   5.881   3.343   4.540
  970TIP3    H1 2916   5.918   3.277   4.481
  970TIP3    H2 2917   5.817   3.295   4.593
  971TIP3   OH2 2918   4.701   1.466   0.272
  971TIP3    H1 2919   4.623   1.513   0.244
  971TIP3    H2 2920   4.684   1.444   0.364
  972TIP3   OH2 2921   5.212   1.442   1.681
  972TIP3    H1 2922   5.242   1.352   1.672
  972TIP3    H2 2923   5.133   1.446   1.626
  973TIP3   OH2 2924   1.217   3.117   1.279
  973TIP3    H1 2925   1.218   3.099   1.373
  973TIP3    H2 2926   1.156   3.190   1.269
  974TIP3   OH2 2927   3.185   4.461   1.422
  974TIP3    H1 2928   3.200   4.369   1.404
  974TIP3    H2 2929   3.126   4.491   1.352
  975TIP3   OH2 2930   3.803   0.866   0.158
  975TIP3    H1 2931   3.738   0.833   0.220
  975TIP3    H2 2932   3.883   0.878   0.210
  976TIP3   OH2 2933   3.913   2.093   4.302
  976TIP3    H1 2934   3.917   2.047   4.218
  976TIP3    H2 2935   3.924   2.185   4.280
  977TIP3   OH2 2936   2.850   0.856   1.461
  977TIP3    H1 2937   2.787   0.821   1.524
  977TIP3    H2 2938   2.842   0.799   1.385
  978TIP3   OH2 2939   4.706   3.824   2.166
  978TIP3    H1 2940   4.774   3.785   2.111
  978TIP3    H2 2941   4.664   3.888   2.109
  979TIP3   OH2 2942   6.197   4.861   3.800
  979TIP3    H1 2943   6.210   4.766   3.810
  979TIP3    H2 2944   6.107   4.876   3.828
  980TIP3   OH2 2945   5.906   1.322   2.582
  980TIP3    H1 2946   5.935   1.252   2.640
  980TIP3    H2 2947   5.985   1.351   2.537
  981TIP3   OH2 2948   3.214   4.616   0.477
  981TIP3    H1 2949   3.231   4.658   0.393
  981TIP3    H2 2950   3.143   4.554   0.459
  982TIP3   OH2 2951   3.611   5.003   1.605
  982TIP3    H1 2952   3.600   4.924   1.553
  982TIP3    H2 2953   3.522   5.031   1.627
  983TIP3   OH2 2954   5.999   3.011   1.958
  983TIP3    H1 2955   6.014   3.104   1.973
  983TIP3    H2 2956   6.068   2.985   1.896
  984TIP3   OH2 2957   3.691   0.812   2.724
  984TIP3    H1 2958   3.655   0.843   2.807
  984TIP3    H2 2959   3.785   0.829   2.730
  985TIP3   OH2 2960   3.609   0.596   5.088
  985TIP3    H1 2961   3.659   0.577   5.009
  985TIP3    H2 2962   3.650   0.675   5.125
  986TIP3   OH2 2963   4.928   1.716   4.748
  986TIP3    H1 2964   4.979   1.648   4.704
  986TIP3    H2 2965   4.932   1.694   4.841
  987TIP3   OH2 2966   4.819   3.217   4.788
  987TIP3    H1 2967   4.727   3.193   4.780
  987TIP3    H2 2968   4.852   3.214   4.698
  988TIP3   OH2 2969   3.707   4.224   0.904
  988TIP3    H1 2970   3.653   4.300   0.924
  988TIP3    H2 2971   3.673   4.155   0.961
  989TIP3   OH2 2972   0.626   5.134   0.619
  989TIP3    H1 2973   0.536   5.103   0.627
  989TIP3    H2 2974   0.660   5.085   0.544
  990TIP3   OH2 2975   4.576   4.492   1.035
  990TIP3    H1 2976   4.560   4.547   0.958
  990TIP3    H2 2977   4.633   4.422   1.003
  991TIP3   OH2 2978   5.098   4.773   2.385
  991TIP3    H1 2979   5.061   4.848   2.337
  991TIP3    H2 2980   5.034   4.703   2.372
  992TIP3   OH2 2981   2.266   2.262   1.373
  992TIP3    H1 2982   2.192   2.323   1.377
  992TIP3    H2 2983   2.336   2.313   1.330
  993TIP3   OH2 2984   2.569   1.312   2.548
  993TIP3    H1 2985   2.604   1.256   2.618
  993TIP3    H2 2986   2.629   1.387   2.545
  994TIP3   OH2 2987   0.515   2.427   2.428
  994TIP3    H1 2988   0.531   2.370   2.504
  994TIP3    H2 2989   0.596   2.422   2.377
  995TIP3   OH2 2990   3.954   1.666   2.965
  995TIP3    H1 2991   3.867   1.698   2.988
  995TIP3    H2 2992   3.940   1.609   2.890
  996TIP3   OH2 2993   0.143   5.807   3.617
  996TIP3    H1 2994   0.163   5.754   3.540
  996TIP3    H2 2995   0.168   5.752   3.691
  997TIP3   OH2 2996   6.006   5.513   0.867
  997TIP3    H1 2997   6.004   5.444   0.933
  997TIP3    H2 2998   5.967   5.589   0.910
  998TIP3   OH2 2999   5.555   2.054   0.471
  998TIP3    H1 3000   5.615   2.129   0.474
  998TIP3    H2 3001   5.511   2.056   0.556
  999TIP3   OH2 3002   4.231   1.746   5.029
  999TIP3    H1 3003   4.190   1.729   4.945
  999TIP3    H2 3004   4.161   1.781   5.084
 1000TIP3   OH2 3005   1.756   2.903   2.785
 1000TIP3    H1 3006   1.670   2.885   2.747
 1000TIP3    H2 3007   1.808   2.825   2.764
 1001TIP3   OH2 3008   3.310   4.195   0.426
 1001TIP3    H1 3009   3.286   4.183   0.334
 1001TIP3    H2 3010   3.266   4.123   0.472
 1002TIP3   OH2 3011   1.403   4.053   1.006
 1002TIP3    H1 3012   1.377   3.962   0.990
 1002TIP3    H2 3013   1.339   4.105   0.958
 1003TIP3   OH2 3014   0.594   4.732   5.183
 1003TIP3    H1 3015   0.643   4.654   5.157
 1003TIP3    H2 3016   0.575   4.777   5.101
 1004TIP3   OH2 3017   3.990   5.440   2.098
 1004TIP3    H1 3018   4.009   5.533   2.110
 1004TIP3    H2 3019   3.959   5.433   2.008
 1005TIP3   OH2 3020   2.412   3.751   2.567
 1005TIP3    H1 3021   2.368   3.675   2.605
 1005TIP3    H2 3022   2.351   3.823   2.581
 1006TIP3   OH2 3023   4.756   4.877   1.426
 1006TIP3    H1 3024   4.790   4.966   1.436
 1006TIP3    H2 3025   4.702   4.864   1.504
 1007TIP3   OH2 3026   3.239   4.422   2.796
 1007TIP3    H1 3027   3.327   4.434   2.761
 1007TIP3    H2 3028   3.237   4.478   2.874
 1008TIP3   OH2 3029   2.399   5.045   0.045
 1008TIP3    H1 3030   2.308   5.056   0.075
 1008TIP3    H2 3031   2.432   4.970   0.095
 1009TIP3   OH2 3032   1.296   1.182   3.036
 1009TIP3    H1 3033   1.359   1.179   2.964
 1009TIP3    H2 3034   1.342   1.143   3.110
 1010TIP3   OH2 3035   2.700   2.439   1.713
 1010TIP3    H1 3036   2.756   2.505   1.670
 1010TIP3    H2 3037   2.667   2.484   1.791
 1011TIP3   OH2 3038   5.007   0.427   0.671
 1011TIP3    H1 3039   4.972   0.509   0.636
 1011TIP3    H2 3040   5.044   0.452   0.756
 1012TIP3   OH2 3041   2.153   3.529   0.770
 1012TIP3    H1 3042   2.067   3.515   0.810
 1012TIP3    H2 3043   2.137   3.591   0.699
 1013TIP3   OH2 3044   3.748   2.459   2.819
 1013TIP3    H1 3045   3.771   2.521   2.749
 1013TIP3    H2 3046   3.711   2.384   2.772
 1014TIP3   OH2 3047   2.799   3.382   1.724
 1014TIP3    H1 3048   2.822   3.293   1.700
 1014TIP3    H2 3049   2.754   3.374   1.808
 1015TIP3   OH2 3050   5.441   1.934   4.928
 1015TIP3    H1 3051   5.355   1.970   4.950
 1015TIP3    H2 3052   5.437   1.921   4.833
 1016TIP3   OH2 3053   2.711   3.978   1.422
 1016TIP3    H1 3054   2.653   3.943   1.490
 1016TIP3    H2 3055   2.662   3.966   1.340
 1017TIP3   OH2 3056   5.089   0.340   4.815
 1017TIP3    H1 3057   5.164   0.379   4.771
 1017TIP3    H2 3058   5.091   0.377   4.904
 1018TIP3   OH2 3059   0.422   1.063   3.467
 1018TIP3    H1 3060   0.456   1.096   3.384
 1018TIP3    H2 3061   0.328   1.078   3.462
 1019TIP3   OH2 3062   2.502   3.546   4.644
 1019TIP3    H1 3063   2.584   3.498   4.633
 1019TIP3    H2 3064   2.450   3.522   4.568
 1020TIP3   OH2 3065   1.921   4.630   3.877
 1020TIP3    H1 3066   1.955   4.599   3.961
 1020TIP3    H2 3067   1.866   4.558   3.845
 1021TIP3   OH2 3068   5.462   0.900   0.100
 1021TIP3    H1 3069   5.522   0.855   0.160
 1021TIP3    H2 3070   5.377   0.897   0.143
 1022TIP3   OH2 3071   4.710   5.174   5.018
 1022TIP3    H1 3072   4.757   5.201   5.097
 1022TIP3    H2 3073   4.690   5.256   4.973
 1023TIP3   OH2 3074   3.963   4.570   0.263
 1023TIP3    H1 3075   3.955   4.642   0.200
 1023TIP3    H2 3076   3.951   4.491   0.211
 1024TIP3   OH2 3077   3.542   4.354   4.524
 1024TIP3    H1 3078   3.506   4.267   4.540
 1024TIP3    H2 3079   3.565   4.354   4.431
 1025TIP3   OH2 3080   5.862   2.337   3.935
 1025TIP3    H1 3081   5.843   2.421   3.976
 1025TIP3    H2 3082   5.777   2.306   3.902
 1026TIP3   OH2 3083   1.415   2.279   1.975
 1026TIP3    H1 3084   1.404   2.258   2.068
 1026TIP3    H2 3085   1.510   2.285   1.963
 1027TIP3   OH2 3086   3.886   2.732   4.687
 1027TIP3    H1 3087   3.963   2.684   4.718
 1027TIP3    H2 3088   3.881   2.712   4.593
 1028TIP3   OH2 3089   3.087   2.781   0.793
 1028TIP3    H1 3090   3.057   2.872   0.805
 1028TIP3    H2 3091   3.007   2.729   0.798
 1029TIP3   OH2 3092   5.259   0.304   2.950
 1029TIP3    H1 3093   5.257   0.362   2.874
 1029TIP3    H2 3094   5.309   0.352   3.015
 1030TIP3   OH2 3095   6.378   3.648   1.053
 1030TIP3    H1 3096   6.352   3.656   1.145
 1030TIP3    H2 3097   6.339   3.565   1.025
 1031TIP3   OH2 3098   3.693   5.744   4.069
 1031TIP3    H1 3099   3.709   5.826   4.116
 1031TIP3    H2 3100   3.636   5.769   3.996
 1032TIP3   OH2 3101   2.400   5.714   4.521
 1032TIP3    H1 3102   2.330   5.755   4.571
 1032TIP3    H2 3103   2.389   5.620   4.537
 1033TIP3   OH2 3104   2.218   5.870   1.762
 1033TIP3    H1 3105   2.153   5.799   1.762
 1033TIP3    H2 3106   2.293   5.834   1.809
 1034TIP3   OH2 3107   0.564   4.456   0.944
 1034TIP3    H1 3108   0.621   4.415   0.879
 1034TIP3    H2 3109   0.621   4.472   1.019
 1035TIP3   OH2 3110   0.846   2.285   3.393
 1035TIP3    H1 3111   0.794   2.325   3.463
 1035TIP3    H2 3112   0.781   2.243   3.337
 1036TIP3   OH2 3113   1.621   5.625   2.922
 1036TIP3    H1 3114   1.647   5.712   2.953
 1036TIP3    H2 3115   1.697   5.569   2.942
 1037TIP3   OH2 3116   1.884   4.908   4.051
 1037TIP3    H1 3117   1.939   4.886   4.125
 1037TIP3    H2 3118   1.943   4.907   3.976
 1038TIP3   OH2 3119   0.749   3.192   0.347
 1038TIP3    H1 3120   0.817   3.149   0.294
 1038TIP3    H2 3121   0.723   3.268   0.296
 1039TIP3   OH2 3122   6.087   3.788   1.613
 1039TIP3    H1 3123   6.022   3.838   1.563
 1039TIP3    H2 3124   6.067   3.808   1.704
 1040TIP3   OH2 3125   0.536   5.702   1.189
 1040TIP3    H1 3126   0.532   5.687   1.095
 1040TIP3    H2 3127   0.627   5.725   1.206
 1041TIP3   OH2 3128   6.278   5.433   4.819
 1041TIP3    H1 3129   6.270   5.407   4.911
 1041TIP3    H2 3130   6.219   5.508   4.810
 1042TIP3   OH2 3131   4.457   3.476   3.028
 1042TIP3    H1 3132   4.474   3.387   3.059
 1042TIP3    H2 3133   4.539   3.503   2.985
 1043TIP3   OH2 3134   1.993   2.559   2.978
 1043TIP3    H1 3135   1.920   2.618   2.999
 1043TIP3    H2 3136   2.051   2.611   2.923
 1044TIP3   OH2 3137   2.872   2.162   2.697
 1044TIP3    H1 3138   2.885   2.212   2.778
 1044TIP3    H2 3139   2.936   2.198   2.636
 1045TIP3   OH2 3140   5.911   1.155   3.932
 1045TIP3    H1 3141   5.948   1.235   3.896
 1045TIP3    H2 3142   5.967   1.085   3.896
 1046TIP3   OH2 3143   6.148   2.198   3.513
 1046TIP3    H1 3144   6.099   2.117   3.496
 1046TIP3    H2 3145   6.116   2.228   3.599
 1047TIP3   OH2 3146   1.844   3.564   0.878
 1047TIP3    H1 3147   1.821   3.628   0.946
 1047TIP3    H2 3148   1.768   3.506   0.873
 1048TIP3   OH2 3149   5.343   5.801   3.203
 1048TIP3    H1 3150   5.378   5.882   3.240
 1048TIP3    H2 3151   5.421   5.754   3.171
 1049TIP3   OH2 3152   5.353   2.041   2.420
 1049TIP3    H1 3153   5.339   1.974   2.354
 1049TIP3    H2 3154   5.265   2.060   2.454
 1050TIP3   OH2 3155   1.612   4.037   0.413
 1050TIP3    H1 3156   1.608   4.060   0.320
 1050TIP3    H2 3157   1.547   3.968   0.423
 1051TIP3   OH2 3158   3.047   1.208   2.653
 1051TIP3    H1 3159   3.142   1.207   2.661
 1051TIP3    H2 3160   3.031   1.209   2.559
 1052TIP3   OH2 3161   5.187   5.374   2.050
 1052TIP3    H1 3162   5.128   5.448   2.037
 1052TIP3    H2 3163   5.263   5.411   2.095
 1053TIP3   OH2 3164   1.794   5.305   2.472
 1053TIP3    H1 3165   1.874   5.353   2.449
 1053TIP3    H2 3166   1.723   5.365   2.449
 1054TIP3   OH2 3167   3.201   5.217   4.866
 1054TIP3    H1 3168   3.227   5.181   4.950
 1054TIP3    H2 3169   3.219   5.311   4.873
 1055TIP3   OH2 3170   5.194   2.989   1.511
 1055TIP3    H1 3171   5.231   2.990   1.599
 1055TIP3    H2 3172   5.270   2.996   1.453
 1056TIP3   OH2 3173   3.966   5.459   1.830
 1056TIP3    H1 3174   3.973   5.441   1.736
 1056TIP3    H2 3175   4.011   5.542   1.842
 1057TIP3   OH2 3176   1.681   0.457   3.220
 1057TIP3    H1 3177   1.705   0.547   3.197
 1057TIP3    H2 3178   1.597   0.465   3.265
 1058TIP3   OH2 3179   2.861   3.664   1.794
 1058TIP3    H1 3180   2.879   3.572   1.776
 1058TIP3    H2 3181   2.832   3.699   1.709
 1059TIP3   OH2 3182   4.327   1.327   2.039
 1059TIP3    H1 3183   4.270   1.403   2.051
 1059TIP3    H2 3184   4.357   1.334   1.948
 1060TIP3   OH2 3185   5.682   2.866   2.407
 1060TIP3    H1 3186   5.627   2.790   2.422
 1060TIP3    H2 3187   5.772   2.831   2.404
 1061TIP3   OH2 3188   3.898   4.918   3.214
 1061TIP3    H1 3189   3.924   4.993   3.267
 1061TIP3    H2 3190   3.957   4.921   3.138
 1062TIP3   OH2 3191   3.981   2.557   3.319
 1062TIP3    H1 3192   3.964   2.466   3.344
 1062TIP3    H2 3193   4.039   2.591   3.388
 1063TIP3   OH2 3194   0.799   5.143   0.824
 1063TIP3    H1 3195   0.732   5.134   0.756
 1063TIP3    H2 3196   0.756   5.192   0.894
 1064TIP3   OH2 3197   1.659   5.787   3.784
 1064TIP3    H1 3198   1.579   5.783   3.837
 1064TIP3    H2 3199   1.631   5.826   3.701
 1065TIP3   OH2 3200   4.740   4.123   1.947
 1065TIP3    H1 3201   4.700   4.201   1.907
 1065TIP3    H2 3202   4.769   4.152   2.033
 1066TIP3   OH2 3203   4.493   3.209   3.066
 1066TIP3    H1 3204   4.571   3.179   3.019
 1066TIP3    H2 3205   4.420   3.184   3.009
 1067TIP3   OH2 3206   5.157   5.697   0.804
 1067TIP3    H1 3207   5.242   5.655   0.819
 1067TIP3    H2 3208   5.115   5.698   0.891
 1068TIP3   OH2 3209   2.176   1.747   0.869
 1068TIP3    H1 3210   2.257   1.697   0.879
 1068TIP3    H2 3211   2.157   1.743   0.775
 1069TIP3   OH2 3212   5.632   1.951   3.553
 1069TIP3    H1 3213   5.726   1.942   3.541
 1069TIP3    H2 3214   5.603   1.864   3.580
 1070TIP3   OH2 3215   5.108   2.746   3.388
 1070TIP3    H1 3216   5.077   2.731   3.299
 1070TIP3    H2 3217   5.052   2.815   3.422
 1071TIP3   OH2 3218   1.461   0.635   2.679
 1071TIP3    H1 3219   1.551   0.666   2.669
 1071TIP3    H2 3220   1.420   0.656   2.595
 1072TIP3   OH2 3221   2.120   5.676   3.080
 1072TIP3    H1 3222   2.180   5.624   3.134
 1072TIP3    H2 3223   2.033   5.641   3.100
 1073TIP3   OH2 3224   2.325   1.126   3.954
 1073TIP3    H1 3225   2.406   1.075   3.959
 1073TIP3    H2 3226   2.267   1.085   4.019
 1074TIP3   OH2 3227   1.650   4.799   3.567
 1074TIP3    H1 3228   1.733   4.822   3.609
 1074TIP3    H2 3229   1.663   4.711   3.533
 1075TIP3   OH2 3230   3.202   4.519   1.692
 1075TIP3    H1 3231   3.285   4.563   1.713
 1075TIP3    H2 3232   3.201   4.515   1.596
 1076TIP3   OH2 3233   3.439   4.562   3.704
 1076TIP3    H1 3234   3.403   4.487   3.751
 1076TIP3    H2 3235   3.409   4.551   3.614
 1077TIP3   OH2 3236   1.837   1.113   0.951
 1077TIP3    H1 3237   1.819   1.139   1.041
 1077TIP3    H2 3238   1.875   1.026   0.958
 1078TIP3   OH2 3239   5.086   1.718   1.550
 1078TIP3    H1 3240   5.050   1.635   1.519
 1078TIP3    H2 3241   5.180   1.702   1.559
 1079TIP3   OH2 3242   2.326   0.564   1.725
 1079TIP3    H1 3243   2.252   0.573   1.785
 1079TIP3    H2 3244   2.390   0.629   1.757
 1080TIP3   OH2 3245   5.685   5.659   0.667
 1080TIP3    H1 3246   5.606   5.667   0.721
 1080TIP3    H2 3247   5.671   5.722   0.596
 1081TIP3   OH2 3248   3.529   3.391   3.608
 1081TIP3    H1 3249   3.477   3.439   3.673
 1081TIP3    H2 3250   3.602   3.354   3.658
 1082TIP3   OH2 3251   3.515   2.169   2.353
 1082TIP3    H1 3252   3.439   2.132   2.398
 1082TIP3    H2 3253   3.483   2.190   2.265
 1083TIP3   OH2 3254   1.702   5.452   2.264
 1083TIP3    H1 3255   1.634   5.489   2.208
 1083TIP3    H2 3256   1.751   5.527   2.296
 1084TIP3   OH2 3257   3.412   3.816   0.177
 1084TIP3    H1 3258   3.502   3.806   0.148
 1084TIP3    H2 3259   3.377   3.887   0.122
 1085TIP3   OH2 3260   4.670   4.256   2.587
 1085TIP3    H1 3261   4.764   4.265   2.575
 1085TIP3    H2 3262   4.660   4.211   2.672
 1086TIP3   OH2 3263   0.401   4.250   2.472
 1086TIP3    H1 3264   0.409   4.212   2.559
 1086TIP3    H2 3265   0.430   4.340   2.482
 1087TIP3   OH2 3266   4.303   5.443   0.927
 1087TIP3    H1 3267   4.235   5.481   0.983
 1087TIP3    H2 3268   4.384   5.459   0.975
 1088TIP3   OH2 3269   1.064   1.566   3.153
 1088TIP3    H1 3270   1.081   1.587   3.244
 1088TIP3    H2 3271   1.115   1.629   3.103
 1089TIP3   OH2 3272   4.697   0.482   4.121
 1089TIP3    H1 3273   4.660   0.394   4.125
 1089TIP3    H2 3274   4.764   0.477   4.054
 1090TIP3   OH2 3275   2.636   2.125   4.680
 1090TIP3    H1 3276   2.618   2.040   4.640
 1090TIP3    H2 3277   2.604   2.189   4.617
 1091TIP3   OH2 3278   2.283   2.124   3.204
 1091TIP3    H1 3279   2.313   2.213   3.187
 1091TIP3    H2 3280   2.363   2.073   3.216
 1092TIP3   OH2 3281   0.779   2.994   3.707
 1092TIP3    H1 3282   0.724   2.981   3.785
 1092TIP3    H2 3283   0.806   3.085   3.712
 1093TIP3   OH2 3284   2.951   0.629   4.458
 1093TIP3    H1 3285   2.955   0.535   4.441
 1093TIP3    H2 3286   3.042   0.655   4.472
 1094TIP3   OH2 3287   5.701   4.319   4.877
 1094TIP3    H1 3288   5.715   4.282   4.790
 1094TIP3    H2 3289   5.608   4.342   4.879
 1095TIP3   OH2 3290   0.181   3.954   3.472
 1095TIP3    H1 3291   0.206   3.968   3.381
 1095TIP3    H2 3292   0.087   3.971   3.474
 1096TIP3   OH2 3293   4.015   0.122   5.150
 1096TIP3    H1 3294   3.965   0.196   5.115
 1096TIP3    H2 3295   3.963   0.045   5.130
 1097TIP3   OH2 3296   6.093   2.011   0.968
 1097TIP3    H1 3297   6.178   2.054   0.963
 1097TIP3    H2 3298   6.029   2.083   0.965
 1098TIP3   OH2 3299   3.312   0.412   1.626
 1098TIP3    H1 3300   3.357   0.351   1.567
 1098TIP3    H2 3301   3.327   0.498   1.588
 1099TIP3   OH2 3302   4.261   5.919   5.112
 1099TIP3    H1 3303   4.286   5.828   5.102
 1099TIP3    H2 3304   4.175   5.916   5.155
 1100TIP3   OH2 3305   5.072   1.521   4.582
 1100TIP3    H1 3306   5.162   1.519   4.550
 1100TIP3    H2 3307   5.024   1.466   4.522
 1101TIP3   OH2 3308   6.205   2.135   3.114
 1101TIP3    H1 3309   6.239   2.046   3.127
 1101TIP3    H2 3310   6.110   2.125   3.122
 1102TIP3   OH2 3311   2.271   5.719   1.233
 1102TIP3    H1 3312   2.335   5.773   1.279
 1102TIP3    H2 3313   2.292   5.730   1.140
 1103TIP3   OH2 3314   0.927   3.214   4.595
 1103TIP3    H1 3315   0.936   3.254   4.681
 1103TIP3    H2 3316   1.007   3.238   4.549
 1104TIP3   OH2 3317   6.156   2.525   2.541
 1104TIP3    H1 3318   6.074   2.475   2.540
 1104TIP3    H2 3319   6.223   2.462   2.566
 1105TIP3   OH2 3320   5.682   5.706   1.159
 1105TIP3    H1 3321   5.671   5.676   1.068
 1105TIP3    H2 3322   5.753   5.770   1.154
 1106TIP3   OH2 3323   2.223   2.496   2.237
 1106TIP3    H1 3324   2.189   2.426   2.294
 1106TIP3    H2 3325   2.314   2.507   2.264
 1107TIP3   OH2 3326   1.730   5.630   0.030
 1107TIP3    H1 3327   1.647   5.676   0.045
 1107TIP3    H2 3328   1.797   5.697   0.043
 1108TIP3   OH2 3329   6.041   5.594   4.283
 1108TIP3    H1 3330   6.107   5.565   4.347
 1108TIP3    H2 3331   6.006   5.513   4.247
 1109TIP3   OH2 3332   6.059   4.101   2.534
 1109TIP3    H1 3333   6.017   4.186   2.551
 1109TIP3    H2 3334   6.153   4.121   2.532
 1110TIP3   OH2 3335   3.609   0.339   0.182
 1110TIP3    H1 3336   3.524   0.381   0.183
 1110TIP3    H2 3337   3.667   0.398   0.229
 1111TIP3   OH2 3338   1.378   2.569   3.448
 1111TIP3    H1 3339   1.454   2.626   3.435
 1111TIP3    H2 3340   1.311   2.627   3.485
 1112TIP3   OH2 3341   4.139   2.847   3.490
 1112TIP3    H1 3342   4.187   2.883   3.565
 1112TIP3    H2 3343   4.080   2.783   3.529
 1113TIP3   OH2 3344   5.961   2.829   2.357
 1113TIP3    H1 3345   6.054   2.850   2.359
 1113TIP3    H2 3346   5.945   2.799   2.268
 1114TIP3   OH2 3347   2.410   0.569   1.466
 1114TIP3    H1 3348   2.387   0.585   1.558
 1114TIP3    H2 3349   2.338   0.515   1.432
 1115TIP3   OH2 3350   5.891   0.562   2.892
 1115TIP3    H1 3351   5.850   0.598   2.970
 1115TIP3    H2 3352   5.884   0.467   2.902
 1116TIP3   OH2 3353   4.251   0.883   3.608
 1116TIP3    H1 3354   4.287   0.797   3.586
 1116TIP3    H2 3355   4.323   0.928   3.652
 1117TIP3   OH2 3356   1.561   5.107   3.672
 1117TIP3    H1 3357   1.647   5.093   3.633
 1117TIP3    H2 3358   1.521   5.175   3.618
 1118TIP3   OH2 3359   0.661   3.744   5.140
 1118TIP3    H1 3360   0.746   3.786   5.142
 1118TIP3    H2 3361   0.674   3.660   5.184
 1119TIP3   OH2 3362   6.234   1.677   2.560
 1119TIP3    H1 3363   6.166   1.658   2.625
 1119TIP3    H2 3364   6.221   1.769   2.537
 1120TIP3   OH2 3365   5.495   4.735   1.619
 1120TIP3    H1 3366   5.498   4.742   1.524
 1120TIP3    H2 3367   5.413   4.778   1.644
 1121TIP3   OH2 3368   2.355   1.352   3.782
 1121TIP3    H1 3369   2.322   1.273   3.824
 1121TIP3    H2 3370   2.330   1.423   3.841
 1122TIP3   OH2 3371   1.734   0.241   3.610
 1122TIP3    H1 3372   1.678   0.207   3.539
 1122TIP3    H2 3373   1.752   0.164   3.664
 1123TIP3   OH2 3374   1.492   3.158   3.952
 1123TIP3    H1 3375   1.498   3.179   4.046
 1123TIP3    H2 3376   1.404   3.124   3.941
 1124TIP3   OH2 3377   0.120   3.344   1.145
 1124TIP3    H1 3378   0.071   3.377   1.220
 1124TIP3    H2 3379   0.156   3.261   1.176
 1125TIP3   OH2 3380   3.113   4.480   3.747
 1125TIP3    H1 3381   3.030   4.474   3.792
 1125TIP3    H2 3382   3.163   4.545   3.796
 1126TIP3   OH2 3383   5.455   2.069   1.451
 1126TIP3    H1 3384   5.389   2.018   1.404
 1126TIP3    H2 3385   5.466   2.023   1.534
 1127TIP3   OH2 3386   5.960   1.354   3.569
 1127TIP3    H1 3387   5.893   1.401   3.620
 1127TIP3    H2 3388   5.949   1.262   3.595
 1128TIP3   OH2 3389   1.355   1.159   5.061
 1128TIP3    H1 3390   1.412   1.090   5.025
 1128TIP3    H2 3391   1.268   1.137   5.029
 1129TIP3   OH2 3392   5.652   0.677   2.562
 1129TIP3    H1 3393   5.669   0.638   2.476
 1129TIP3    H2 3394   5.632   0.603   2.619
 1130TIP3   OH2 3395   0.500   5.394   3.629
 1130TIP3    H1 3396   0.582   5.429   3.664
 1130TIP3    H2 3397   0.484   5.315   3.679
 1131TIP3   OH2 3398   0.222   3.048   4.089
 1131TIP3    H1 3399   0.308   3.045   4.131
 1131TIP3    H2 3400   0.174   3.114   4.139
 1132TIP3   OH2 3401   5.667   3.076   2.606
 1132TIP3    H1 3402   5.666   3.019   2.529
 1132TIP3    H2 3403   5.584   3.122   2.603
 1133TIP3   OH2 3404   2.832   1.243   2.174
 1133TIP3    H1 3405   2.770   1.275   2.108
 1133TIP3    H2 3406   2.908   1.301   2.166
 1134TIP3   OH2 3407   4.821   2.410   0.044
 1134TIP3    H1 3408   4.731   2.393   0.016
 1134TIP3    H2 3409   4.814   2.478   0.110
 1135TIP3   OH2 3410   1.000   4.003   4.579
 1135TIP3    H1 3411   1.038   4.033   4.662
 1135TIP3    H2 3412   1.074   3.970   4.529
 1136TIP3   OH2 3413   5.493   0.216   4.402
 1136TIP3    H1 3414   5.554   0.145   4.421
 1136TIP3    H2 3415   5.427   0.211   4.471
 1137TIP3   OH2 3416   4.815   3.766   1.474
 1137TIP3    H1 3417   4.863   3.712   1.411
 1137TIP3    H2 3418   4.861   3.850   1.474
 1138TIP3   OH2 3419   4.210   3.801   2.281
 1138TIP3    H1 3420   4.182   3.723   2.231
 1138TIP3    H2 3421   4.128   3.838   2.313
 1139TIP3   OH2 3422   3.358   2.506   2.384
 1139TIP3    H1 3423   3.303   2.584   2.389
 1139TIP3    H2 3424   3.420   2.516   2.456
 1140TIP3   OH2 3425   3.568   2.400   3.779
 1140TIP3    H1 3426   3.582   2.423   3.871
 1140TIP3    H2 3427   3.535   2.310   3.782
 1141TIP3   OH2 3428   1.479   0.383   1.658
 1141TIP3    H1 3429   1.423   0.455   1.687
 1141TIP3    H2 3430   1.516   0.413   1.575
 1142TIP3   OH2 3431   3.732   5.849   1.442
 1142TIP3    H1 3432   3.792   5.878   1.373
 1142TIP3    H2 3433   3.761   5.761   1.464
 1143TIP3   OH2 3434   4.896   5.464   4.027
 1143TIP3    H1 3435   4.816   5.508   4.000
 1143TIP3    H2 3436   4.886   5.374   3.996
 1144TIP3   OH2 3437   3.385   3.837   4.118
 1144TIP3    H1 3438   3.438   3.873   4.047
 1144TIP3    H2 3439   3.305   3.808   4.075
 1145TIP3   OH2 3440   5.738   5.915   3.295
 1145TIP3    H1 3441   5.813   5.904   3.236
 1145TIP3    H2 3442   5.749   6.004   3.329
 1146TIP3   OH2 3443   5.950   0.179   4.020
 1146TIP3    H1 3444   6.011   0.192   4.093
 1146TIP3    H2 3445   5.909   0.265   4.008
 1147TIP3   OH2 3446   1.913   5.723   4.793
 1147TIP3    H1 3447   1.922   5.646   4.849
 1147TIP3    H2 3448   1.836   5.704   4.739
 1148TIP3   OH2 3449   1.541   2.729   2.611
 1148TIP3    H1 3450   1.481   2.740   2.685
 1148TIP3    H2 3451   1.531   2.637   2.585
 1149TIP3   OH2 3452   4.466   1.162   3.396
 1149TIP3    H1 3453   4.505   1.075   3.402
 1149TIP3    H2 3454   4.429   1.178   3.483
 1150TIP3   OH2 3455   0.103   3.902   4.447
 1150TIP3    H1 3456   0.066   3.991   4.455
 1150TIP3    H2 3457   0.052   3.861   4.377
 1151TIP3   OH2 3458   2.761   4.000   2.985
 1151TIP3    H1 3459   2.752   3.980   3.078
 1151TIP3    H2 3460   2.672   3.990   2.950
 1152TIP3   OH2 3461   2.708   5.814   5.090
 1152TIP3    H1 3462   2.704   5.737   5.034
 1152TIP3    H2 3463   2.768   5.790   5.160
 1153TIP3   OH2 3464   5.444   4.784   1.356
 1153TIP3    H1 3465   5.394   4.861   1.331
 1153TIP3    H2 3466   5.439   4.726   1.280
 1154TIP3   OH2 3467   4.582   1.794   0.094
 1154TIP3    H1 3468   4.530   1.780   0.014
 1154TIP3    H2 3469   4.669   1.762   0.072
 1155TIP3   OH2 3470   0.468   3.224   3.020
 1155TIP3    H1 3471   0.478   3.147   3.077
 1155TIP3    H2 3472   0.420   3.191   2.945
 1156TIP3   OH2 3473   3.662   3.292   4.723
 1156TIP3    H1 3474   3.748   3.331   4.710
 1156TIP3    H2 3475   3.680   3.203   4.754
 1157TIP3   OH2 3476   6.375   2.479   5.125
 1157TIP3    H1 3477   6.286   2.490   5.092
 1157TIP3    H2 3478   6.364   2.462   5.219
 1158TIP3   OH2 3479   4.150   5.348   0.518
 1158TIP3    H1 3480   4.163   5.396   0.437
 1158TIP3    H2 3481   4.129   5.259   0.490
 1159TIP3   OH2 3482   6.034   0.895   0.665
 1159TIP3    H1 3483   5.946   0.877   0.700
 1159TIP3    H2 3484   6.057   0.980   0.703
 1160TIP3   OH2 3485   2.005   5.662   0.507
 1160TIP3    H1 3486   2.031   5.661   0.415
 1160TIP3    H2 3487   1.950   5.584   0.517
 1161TIP3   OH2 3488   2.159   1.756   3.870
 1161TIP3    H1 3489   2.086   1.730   3.814
 1161TIP3    H2 3490   2.193   1.836   3.830
 1162TIP3   OH2 3491   1.297   3.298   1.684
 1162TIP3    H1 3492   1.230   3.340   1.739
 1162TIP3    H2 3493   1.379   3.312   1.731
 1163TIP3   OH2 3494   2.511   0.237   2.753
 1163TIP3    H1 3495   2.468   0.189   2.681
 1163TIP3    H2 3496   2.533   0.322   2.714
 1164TIP3   OH2 3497   0.702   2.010   3.556
 1164TIP3    H1 3498   0.692   1.917   3.537
 1164TIP3    H2 3499   0.678   2.054   3.474
 1165TIP3   OH2 3500   6.311   3.909   0.158
 1165TIP3    H1 3501   6.405   3.915   0.176
 1165TIP3    H2 3502   6.291   3.816   0.162
 1166TIP3   OH2 3503   1.407   2.876   1.164
 1166TIP3    H1 3504   1.390   2.932   1.240
 1166TIP3    H2 3505   1.320   2.850   1.133
 1167TIP3   OH2 3506   2.218   0.731   4.269
 1167TIP3    H1 3507   2.166   0.651   4.259
 1167TIP3    H2 3508   2.182   0.791   4.204
 1168TIP3   OH2 3509   1.800   2.347   0.247
 1168TIP3    H1 3510   1.862   2.420   0.251
 1168TIP3    H2 3511   1.718   2.387   0.217
 1169TIP3   OH2 3512   4.788   4.532   0.331
 1169TIP3    H1 3513   4.718   4.472   0.305
 1169TIP3    H2 3514   4.814   4.574   0.249
 1170TIP3   OH2 3515   0.029   1.249   1.252
 1170TIP3    H1 3516   0.003   1.188   1.184
 1170TIP3    H2 3517  -0.043   1.247   1.315
 1171TIP3   OH2 3518   4.955   3.168   4.542
 1171TIP3    H1 3519   4.884   3.165   4.478
 1171TIP3    H2 3520   5.034   3.181   4.490
 1172TIP3   OH2 3521   5.874   2.030   3.169
 1172TIP3    H1 3522   5.931   1.954   3.177
 1172TIP3    H2 3523   5.788   1.994   3.147
 1173TIP3   OH2 3524   4.834   3.807   5.001
 1173TIP3    H1 3525   4.757   3.793   5.056
 1173TIP3    H2 3526   4.895   3.857   5.057
 1174TIP3   OH2 3527   0.061   5.021   2.131
 1174TIP3    H1 3528   0.097   4.997   2.045
 1174TIP3    H2 3529   0.010   4.944   2.157
 1175TIP3   OH2 3530   4.447   1.814   1.371
 1175TIP3    H1 3531   4.481   1.882   1.313
 1175TIP3    H2 3532   4.403   1.862   1.441
 1176TIP3   OH2 3533   2.934   2.294   2.947
 1176TIP3    H1 3534   2.926   2.319   3.039
 1176TIP3    H2 3535   3.028   2.298   2.929
 1177TIP3   OH2 3536   3.368   2.971   3.734
 1177TIP3    H1 3537   3.449   3.017   3.712
 1177TIP3    H2 3538   3.299   3.028   3.700
 1178TIP3   OH2 3539   0.644   2.612   3.807
 1178TIP3    H1 3540   0.661   2.518   3.796
 1178TIP3    H2 3541   0.729   2.653   3.796
 1179TIP3   OH2 3542   0.613   3.683   4.147
 1179TIP3    H1 3543   0.532   3.729   4.126
 1179TIP3    H2 3544   0.640   3.643   4.065
 1180TIP3   OH2 3545   1.774   5.861   0.260
 1180TIP3    H1 3546   1.729   5.778   0.277
 1180TIP3    H2 3547   1.813   5.885   0.344
 1181TIP3   OH2 3548   3.144   5.673   4.411
 1181TIP3    H1 3549   3.171   5.699   4.499
 1181TIP3    H2 3550   3.223   5.638   4.371
 1182TIP3   OH2 3551   5.137   0.156   3.563
 1182TIP3    H1 3552   5.192   0.166   3.485
 1182TIP3    H2 3553   5.194   0.183   3.636
 1183TIP3   OH2 3554   3.064   0.026   2.864
 1183TIP3    H1 3555   2.976   0.060   2.882
 1183TIP3    H2 3556   3.080   0.046   2.772
 1184TIP3   OH2 3557   1.852   4.749   0.593
 1184TIP3    H1 3558   1.824   4.803   0.668
 1184TIP3    H2 3559   1.942   4.777   0.577
 1185TIP3   OH2 3560   2.160   3.691   1.400
 1185TIP3    H1 3561   2.089   3.722   1.343
 1185TIP3    H2 3562   2.116   3.666   1.482
 1186TIP3   OH2 3563   0.959   2.499   3.287
 1186TIP3    H1 3564   0.940   2.561   3.357
 1186TIP3    H2 3565   0.901   2.425   3.303
 1187TIP3   OH2 3566   5.440   0.229   2.668
 1187TIP3    H1 3567   5.502   0.184   2.612
 1187TIP3    H2 3568   5.355   0.193   2.643
 1188TIP3   OH2 3569   2.546   4.290   0.960
 1188TIP3    H1 3570   2.625   4.270   1.009
 1188TIP3    H2 3571   2.570   4.367   0.908
 1189TIP3   OH2 3572   4.932   1.395   1.234
 1189TIP3    H1 3573   4.965   1.318   1.280
 1189TIP3    H2 3574   4.855   1.421   1.284
 1190TIP3   OH2 3575   3.292   4.689   2.087
 1190TIP3    H1 3576   3.373   4.704   2.136
 1190TIP3    H2 3577   3.295   4.752   2.015
 1191TIP3   OH2 3578   4.183   1.612   0.989
 1191TIP3    H1 3579   4.149   1.669   1.058
 1191TIP3    H2 3580   4.249   1.558   1.033
 1192TIP3   OH2 3581   1.554   4.697   2.735
 1192TIP3    H1 3582   1.646   4.712   2.716
 1192TIP3    H2 3583   1.531   4.617   2.687
 1193TIP3   OH2 3584   0.821   4.379   2.525
 1193TIP3    H1 3585   0.852   4.440   2.459
 1193TIP3    H2 3586   0.778   4.309   2.476
 1194TIP3   OH2 3587   5.388   5.162   3.715
 1194TIP3    H1 3588   5.401   5.229   3.649
 1194TIP3    H2 3589   5.459   5.099   3.699
 1195TIP3   OH2 3590   5.268   4.405   3.451
 1195TIP3    H1 3591   5.342   4.432   3.505
 1195TIP3    H2 3592   5.230   4.330   3.497
 1196TIP3   OH2 3593   6.221   0.996   3.394
 1196TIP3    H1 3594   6.199   1.022   3.304
 1196TIP3    H2 3595   6.141   0.956   3.428
 1197TIP3   OH2 3596   4.611   2.326   3.010
 1197TIP3    H1 3597   4.564   2.342   3.091
 1197TIP3    H2 3598   4.693   2.375   3.020
 1198TIP3   OH2 3599   1.801   0.028   2.274
 1198TIP3    H1 3600   1.855   0.081   2.332
 1198TIP3    H2 3601   1.804   0.073   2.190
 1199TIP3   OH2 3602   0.886   0.866   2.957
 1199TIP3    H1 3603   0.899   0.782   3.000
 1199TIP3    H2 3604   0.971   0.910   2.962
 1200TIP3   OH2 3605   2.783   2.393   0.518
 1200TIP3    H1 3606   2.703   2.435   0.487
 1200TIP3    H2 3607   2.789   2.312   0.466
 1201TIP3   OH2 3608   0.983   5.158   2.332
 1201TIP3    H1 3609   1.001   5.252   2.323
 1201TIP3    H2 3610   0.918   5.139   2.264
 1202TIP3   OH2 3611   4.947   0.553   2.242
 1202TIP3    H1 3612   4.898   0.481   2.203
 1202TIP3    H2 3613   5.033   0.517   2.261
 1203TIP3   OH2 3614   6.018   2.377   3.328
 1203TIP3    H1 3615   6.075   2.441   3.286
 1203TIP3    H2 3616   6.076   2.329   3.388
 1204TIP3   OH2 3617   3.454   3.532   1.359
 1204TIP3    H1 3618   3.466   3.587   1.282
 1204TIP3    H2 3619   3.364   3.549   1.386
 1205TIP3   OH2 3620   3.465   1.784   0.945
 1205TIP3    H1 3621   3.474   1.811   1.037
 1205TIP3    H2 3622   3.555   1.782   0.912
 1206TIP3   OH2 3623   2.192   1.896   2.182
 1206TIP3    H1 3624   2.280   1.908   2.216
 1206TIP3    H2 3625   2.202   1.830   2.113
 1207TIP3   OH2 3626   4.467   3.099   3.573
 1207TIP3    H1 3627   4.408   3.068   3.642
 1207TIP3    H2 3628   4.409   3.118   3.499
 1208TIP3   OH2 3629   5.328   4.879   0.763
 1208TIP3    H1 3630   5.346   4.961   0.808
 1208TIP3    H2 3631   5.249   4.845   0.805
 1209TIP3   OH2 3632   2.034   0.545   3.227
 1209TIP3    H1 3633   2.106   0.566   3.286
 1209TIP3    H2 3634   2.049   0.454   3.201
 1210TIP3   OH2 3635   3.553   3.952   2.548
 1210TIP3    H1 3636   3.637   3.906   2.549
 1210TIP3    H2 3637   3.538   3.975   2.456
 1211TIP3   OH2 3638   4.294   5.432   3.403
 1211TIP3    H1 3639   4.368   5.416   3.344
 1211TIP3    H2 3640   4.325   5.500   3.463
 1212TIP3   OH2 3641   2.760   2.096   1.112
 1212TIP3    H1 3642   2.811   2.139   1.181
 1212TIP3    H2 3643   2.669   2.119   1.131
 1213TIP3   OH2 3644   1.451   5.452   0.390
 1213TIP3    H1 3645   1.490   5.383   0.444
 1213TIP3    H2 3646   1.438   5.411   0.305
 1214TIP3   OH2 3647   0.480   1.411   3.501
 1214TIP3    H1 3648   0.404   1.441   3.451
 1214TIP3    H2 3649   0.525   1.349   3.443
 1215TIP3   OH2 3650   6.004   5.252   5.003
 1215TIP3    H1 3651   5.940   5.322   4.991
 1215TIP3    H2 3652   6.089   5.296   5.006
 1216TIP3   OH2 3653   2.919   0.528   1.669
 1216TIP3    H1 3654   2.926   0.605   1.727
 1216TIP3    H2 3655   2.825   0.509   1.666
 1217TIP3   OH2 3656   0.419   3.972   2.966
 1217TIP3    H1 3657   0.435   3.903   3.030
 1217TIP3    H2 3658   0.466   3.944   2.888
 1218TIP3   OH2 3659   5.640   0.942   4.895
 1218TIP3    H1 3660   5.593   0.956   4.812
 1218TIP3    H2 3661   5.715   0.888   4.871
 1219TIP3   OH2 3662   1.447   1.672   2.257
 1219TIP3    H1 3663   1.438   1.614   2.181
 1219TIP3    H2 3664   1.437   1.614   2.333
 1220TIP3   OH2 3665   5.679   1.399   0.911
 1220TIP3    H1 3666   5.622   1.469   0.880
 1220TIP3    H2 3667   5.627   1.319   0.900
 1221TIP3   OH2 3668   5.636   4.525   3.243
 1221TIP3    H1 3669   5.566   4.588   3.224
 1221TIP3    H2 3670   5.696   4.533   3.169
 1222TIP3   OH2 3671   1.312   4.451   2.785
 1222TIP3    H1 3672   1.367   4.456   2.706
 1222TIP3    H2 3673   1.225   4.429   2.751
 1223TIP3   OH2 3674   1.192   0.927   4.177
 1223TIP3    H1 3675   1.261   0.915   4.242
 1223TIP3    H2 3676   1.126   0.979   4.222
 1224TIP3   OH2 3677   2.805   0.720   3.102
 1224TIP3    H1 3678   2.834   0.638   3.061
 1224TIP3    H2 3679   2.724   0.697   3.147
 1225TIP3   OH2 3680   0.764   0.385   2.471
 1225TIP3    H1 3681   0.714   0.304   2.481
 1225TIP3    H2 3682   0.798   0.403   2.558
 1226TIP3   OH2 3683   0.121   3.398   3.320
 1226TIP3    H1 3684   0.082   3.340   3.255
 1226TIP3    H2 3685   0.209   3.416   3.285
 1227TIP3   OH2 3686   4.523   5.409   0.498
 1227TIP3    H1 3687   4.475   5.463   0.435
 1227TIP3    H2 3688   4.580   5.354   0.444
 1228TIP3   OH2 3689   3.850   3.905   1.880
 1228TIP3    H1 3690   3.865   3.984   1.933
 1228TIP3    H2 3691   3.788   3.854   1.930
 1229TIP3   OH2 3692   0.099   1.280   2.538
 1229TIP3    H1 3693   0.123   1.188   2.552
 1229TIP3    H2 3694   0.179   1.322   2.509
 1230TIP3   OH2 3695   1.078   2.475   4.582
 1230TIP3    H1 3696   1.025   2.555   4.585
 1230TIP3    H2 3697   1.093   2.453   4.674
 1231TIP3   OH2 3698   6.012   1.886   4.198
 1231TIP3    H1 3699   6.015   1.956   4.133
 1231TIP3    H2 3700   5.920   1.880   4.222
 1232TIP3   OH2 3701   3.027   5.361   1.681
 1232TIP3    H1 3702   2.999   5.275   1.649
 1232TIP3    H2 3703   3.053   5.408   1.602
 1233TIP3   OH2 3704   4.353   1.013   0.849
 1233TIP3    H1 3705   4.332   0.928   0.889
 1233TIP3    H2 3706   4.359   1.073   0.924
 1234TIP3   OH2 3707   1.522   2.449   0.296
 1234TIP3    H1 3708   1.502   2.420   0.207
 1234TIP3    H2 3709   1.483   2.382   0.352
 1235TIP3   OH2 3710   6.123   3.084   0.284
 1235TIP3    H1 3711   6.218   3.073   0.281
 1235TIP3    H2 3712   6.105   3.110   0.374
 1236TIP3   OH2 3713   4.004   4.717   1.301
 1236TIP3    H1 3714   3.983   4.657   1.229
 1236TIP3    H2 3715   3.995   4.664   1.380
 1237TIP3   OH2 3716   2.863   5.347   2.847
 1237TIP3    H1 3717   2.896   5.310   2.929
 1237TIP3    H2 3718   2.940   5.387   2.806
 1238TIP3   OH2 3719   3.890   5.372   2.344
 1238TIP3    H1 3720   3.824   5.436   2.369
 1238TIP3    H2 3721   3.923   5.402   2.260
 1239TIP3   OH2 3722   2.636   1.670   4.309
 1239TIP3    H1 3723   2.576   1.645   4.239
 1239TIP3    H2 3724   2.722   1.638   4.279
 1240TIP3   OH2 3725   0.828   0.477   2.722
 1240TIP3    H1 3726   0.912   0.447   2.758
 1240TIP3    H2 3727   0.835   0.572   2.723
 1241TIP3   OH2 3728   1.391   1.388   1.763
 1241TIP3    H1 3729   1.324   1.320   1.765
 1241TIP3    H2 3730   1.410   1.400   1.670
 1242TIP3   OH2 3731   2.446   0.047   1.669
 1242TIP3    H1 3732   2.500   0.026   1.746
 1242TIP3    H2 3733   2.358   0.020   1.694
 1243TIP3   OH2 3734   4.253   3.326   0.065
 1243TIP3    H1 3735   4.206   3.370   0.136
 1243TIP3    H2 3736   4.208   3.242   0.055
 1244TIP3   OH2 3737   2.231   3.319   3.687
 1244TIP3    H1 3738   2.195   3.407   3.698
 1244TIP3    H2 3739   2.173   3.263   3.738
 1245TIP3   OH2 3740   5.309   0.104   1.273
 1245TIP3    H1 3741   5.311   0.167   1.345
 1245TIP3    H2 3742   5.234   0.130   1.220
 1246TIP3   OH2 3743   5.615   1.774   3.170
 1246TIP3    H1 3744   5.538   1.750   3.117
 1246TIP3    H2 3745   5.591   1.749   3.260
 1247TIP3   OH2 3746   2.807   1.437   2.468
 1247TIP3    H1 3747   2.881   1.378   2.468
 1247TIP3    H2 3748   2.844   1.524   2.452
 1248TIP3   OH2 3749   2.941   3.795   2.909
 1248TIP3    H1 3750   2.877   3.861   2.936
 1248TIP3    H2 3751   3.026   3.833   2.931
 1249TIP3   OH2 3752   4.635   0.738   3.899
 1249TIP3    H1 3753   4.613   0.653   3.862
 1249TIP3    H2 3754   4.710   0.769   3.848
 1250TIP3   OH2 3755   4.438   0.076   4.377
 1250TIP3    H1 3756   4.417   0.142   4.443
 1250TIP3    H2 3757   4.517   0.033   4.410
 1251TIP3   OH2 3758   5.694   0.405   1.419
 1251TIP3    H1 3759   5.648   0.459   1.482
 1251TIP3    H2 3760   5.670   0.315   1.442
 1252TIP3   OH2 3761   5.123   0.813   2.914
 1252TIP3    H1 3762   5.159   0.756   2.982
 1252TIP3    H2 3763   5.200   0.847   2.869
 1253TIP3   OH2 3764   0.541   5.989   1.162
 1253TIP3    H1 3765   0.558   5.975   1.255
 1253TIP3    H2 3766   0.473   5.926   1.140
 1254TIP3   OH2 3767   0.499   1.277   1.176
 1254TIP3    H1 3768   0.516   1.296   1.269
 1254TIP3    H2 3769   0.464   1.358   1.141
 1255TIP3   OH2 3770   4.543   0.269   0.139
 1255TIP3    H1 3771   4.546   0.360   0.170
 1255TIP3    H2 3772   4.501   0.274   0.053
 1256TIP3   OH2 3773   6.000   5.602   1.430
 1256TIP3    H1 3774   5.938   5.641   1.492
 1256TIP3    H2 3775   6.086   5.631   1.461
 1257TIP3   OH2 3776   1.040   1.283   3.094
 1257TIP3    H1 3777   1.060   1.372   3.065
 1257TIP3    H2 3778   1.123   1.235   3.083
 1258TIP3   OH2 3779   2.374   4.030   3.872
 1258TIP3    H1 3780   2.364   4.029   3.967
 1258TIP3    H2 3781   2.467   4.013   3.858
 1259TIP3   OH2 3782   3.543   0.977   5.041
 1259TIP3    H1 3783   3.529   0.931   4.958
 1259TIP3    H2 3784   3.630   0.949   5.069
 1260TIP3   OH2 3785   5.914   1.402   0.793
 1260TIP3    H1 3786   5.933   1.311   0.770
 1260TIP3    H2 3787   5.840   1.396   0.854
 1261TIP3   OH2 3788   3.275   0.213   4.789
 1261TIP3    H1 3789   3.270   0.138   4.730
 1261TIP3    H2 3790   3.294   0.287   4.732
 1262TIP3   OH2 3791   3.430   0.693   0.664
 1262TIP3    H1 3792   3.347   0.713   0.709
 1262TIP3    H2 3793   3.415   0.608   0.623
 1263TIP3   OH2 3794   0.493   0.572   5.087
 1263TIP3    H1 3795   0.472   0.478   5.092
 1263TIP3    H2 3796   0.514   0.597   5.177
 1264TIP3   OH2 3797   3.962   2.874   1.227
 1264TIP3    H1 3798   4.052   2.863   1.197
 1264TIP3    H2 3799   3.915   2.800   1.189
 1265TIP3   OH2 3800   2.343   1.951   1.826
 1265TIP3    H1 3801   2.370   2.039   1.854
 1265TIP3    H2 3802   2.260   1.965   1.780
 1266TIP3   OH2 3803   0.840   5.562   0.681
 1266TIP3    H1 3804   0.746   5.564   0.702
 1266TIP3    H2 3805   0.847   5.608   0.598
 1267TIP3   OH2 3806   4.283   0.747   0.882
 1267TIP3    H1 3807   4.308   0.661   0.917
 1267TIP3    H2 3808   4.189   0.739   0.864
 1268TIP3   OH2 3809   5.770   0.777   3.722
 1268TIP3    H1 3810   5.837   0.797   3.656
 1268TIP3    H2 3811   5.729   0.862   3.740
 1269TIP3   OH2 3812   5.264   1.011   0.472
 1269TIP3    H1 3813   5.257   1.004   0.377
 1269TIP3    H2 3814   5.179   0.983   0.504
 1270TIP3   OH2 3815   0.772   4.820   3.645
 1270TIP3    H1 3816   0.798   4.840   3.555
 1270TIP3    H2 3817   0.848   4.776   3.683
 1271TIP3   OH2 3818   3.660   1.715   2.807
 1271TIP3    H1 3819   3.731   1.654   2.785
 1271TIP3    H2 3820   3.587   1.659   2.833
 1272TIP3   OH2 3821   6.395   3.274   2.746
 1272TIP3    H1 3822   6.418   3.183   2.726
 1272TIP3    H2 3823   6.356   3.307   2.665
 1273TIP3   OH2 3824   0.744   5.098   1.723
 1273TIP3    H1 3825   0.654   5.131   1.719
 1273TIP3    H2 3826   0.786   5.151   1.791
 1274TIP3   OH2 3827   0.445   0.452   3.365
 1274TIP3    H1 3828   0.403   0.440   3.280
 1274TIP3    H2 3829   0.428   0.371   3.412
 1275TIP3   OH2 3830   3.009   1.798   0.813
 1275TIP3    H1 3831   2.955   1.822   0.889
 1275TIP3    H2 3832   3.087   1.853   0.821
 1276TIP3   OH2 3833   4.010   2.707   0.289
 1276TIP3    H1 3834   3.928   2.688   0.335
 1276TIP3    H2 3835   4.018   2.802   0.292
 1277TIP3   OH2 3836   0.185   3.834   2.145
 1277TIP3    H1 3837   0.248   3.871   2.207
 1277TIP3    H2 3838   0.229   3.841   2.060
 1278TIP3   OH2 3839   4.418   1.603   0.224
 1278TIP3    H1 3840   4.375   1.660   0.288
 1278TIP3    H2 3841   4.438   1.660   0.150
 1279TIP3   OH2 3842   2.480   0.216   4.014
 1279TIP3    H1 3843   2.548   0.283   4.016
 1279TIP3    H2 3844   2.524   0.137   4.044
 1280TIP3   OH2 3845   0.440   1.877   0.722
 1280TIP3    H1 3846   0.511   1.834   0.770
 1280TIP3    H2 3847   0.458   1.858   0.630
 1281TIP3   OH2 3848   4.649   0.540   4.402
 1281TIP3    H1 3849   4.707   0.511   4.331
 1281TIP3    H2 3850   4.596   0.463   4.422
 1282TIP3   OH2 3851   5.121   2.759   1.333
 1282TIP3    H1 3852   5.130   2.820   1.406
 1282TIP3    H2 3853   5.205   2.763   1.288
 1283TIP3   OH2 3854   4.967   0.082   3.036
 1283TIP3    H1 3855   4.929   0.170   3.027
 1283TIP3    H2 3856   4.891   0.024   3.039
 1284TIP3   OH2 3857   1.398   2.004   1.293
 1284TIP3    H1 3858   1.452   2.044   1.225
 1284TIP3    H2 3859   1.460   1.954   1.347
 1285TIP3   OH2 3860   3.398   0.570   2.721
 1285TIP3    H1 3861   3.435   0.500   2.774
 1285TIP3    H2 3862   3.465   0.587   2.654
 1286TIP3   OH2 3863   5.875   1.960   3.834
 1286TIP3    H1 3864   5.797   1.982   3.783
 1286TIP3    H2 3865   5.873   1.865   3.842
 1287TIP3   OH2 3866   3.267   0.638   4.418
 1287TIP3    H1 3867   3.337   0.574   4.434
 1287TIP3    H2 3868   3.255   0.638   4.323
 1288TIP3   OH2 3869   5.373   1.557   4.164
 1288TIP3    H1 3870   5.432   1.622   4.126
 1288TIP3    H2 3871   5.367   1.488   4.099
 1289TIP3   OH2 3872   5.350   1.195   0.261
 1289TIP3    H1 3873   5.383   1.239   0.182
 1289TIP3    H2 3874   5.303   1.119   0.228
 1290TIP3   OH2 3875   2.401   2.617   1.092
 1290TIP3    H1 3876   2.452   2.689   1.128
 1290TIP3    H2 3877   2.445   2.596   1.009
 1291TIP3   OH2 3878   5.805   5.695   1.600
 1291TIP3    H1 3879   5.749   5.619   1.618
 1291TIP3    H2 3880   5.814   5.739   1.685
 1292TIP3   OH2 3881   0.161   2.756   2.981
 1292TIP3    H1 3882   0.215   2.742   2.903
 1292TIP3    H2 3883   0.106   2.831   2.960
 1293TIP3   OH2 3884   4.436   2.894   2.799
 1293TIP3    H1 3885   4.409   2.803   2.785
 1293TIP3    H2 3886   4.380   2.925   2.870
 1294TIP3   OH2 3887   4.183   0.703   2.927
 1294TIP3    H1 3888   4.103   0.756   2.927
 1294TIP3    H2 3889   4.243   0.751   2.984
 1295TIP3   OH2 3890   1.869   5.662   3.639
 1295TIP3    H1 3891   1.830   5.664   3.552
 1295TIP3    H2 3892   1.797   5.681   3.698
 1296TIP3   OH2 3893   0.367   2.157   3.207
 1296TIP3    H1 3894   0.276   2.182   3.226
 1296TIP3    H2 3895   0.360   2.077   3.155
 1297TIP3   OH2 3896   5.541   2.410   2.842
 1297TIP3    H1 3897   5.550   2.354   2.765
 1297TIP3    H2 3898   5.621   2.395   2.893
 1298TIP3   OH2 3899   4.842   0.276   2.107
 1298TIP3    H1 3900   4.928   0.236   2.097
 1298TIP3    H2 3901   4.826   0.278   2.201
 1299TIP3   OH2 3902   5.478   2.612   0.060
 1299TIP3    H1 3903   5.502   2.521   0.080
 1299TIP3    H2 3904   5.388   2.620   0.092
 1300TIP3   OH2 3905   6.069   5.209   1.609
 1300TIP3    H1 3906   5.980   5.225   1.640
 1300TIP3    H2 3907   6.125   5.249   1.675
 1301TIP3   OH2 3908   1.472   3.204   1.346
 1301TIP3    H1 3909   1.409   3.267   1.381
 1301TIP3    H2 3910   1.445   3.191   1.255
 1302TIP3   OH2 3911   4.324   2.441   0.093
 1302TIP3    H1 3912   4.369   2.373   0.142
 1302TIP3    H2 3913   4.389   2.510   0.082
 1303TIP3   OH2 3914   6.068   0.052   1.003
 1303TIP3    H1 3915   6.013   0.129   0.990
 1303TIP3    H2 3916   6.114   0.040   0.920
 1304TIP3   OH2 3917   1.863   5.883   2.336
 1304TIP3    H1 3918   1.935   5.929   2.291
 1304TIP3    H2 3919   1.835   5.944   2.405
 1305TIP3   OH2 3920   0.752   1.186   1.178
 1305TIP3    H1 3921   0.764   1.109   1.122
 1305TIP3    H2 3922   0.671   1.226   1.148
 1306TIP3   OH2 3923   3.485   5.569   1.788
 1306TIP3    H1 3924   3.531   5.632   1.843
 1306TIP3    H2 3925   3.553   5.515   1.749
 1307TIP3   OH2 3926   0.678   3.447   3.323
 1307TIP3    H1 3927   0.737   3.523   3.326
 1307TIP3    H2 3928   0.732   3.375   3.357
 1308TIP3   OH2 3929   1.923   3.372   5.080
 1308TIP3    H1 3930   1.920   3.467   5.089
 1308TIP3    H2 3931   2.013   3.353   5.052
 1309TIP3   OH2 3932   2.104   2.306   5.108
 1309TIP3    H1 3933   2.051   2.271   5.179
 1309TIP3    H2 3934   2.125   2.396   5.135
 1310TIP3   OH2 3935   4.645   0.841   0.773
 1310TIP3    H1 3936   4.622   0.803   0.858
 1310TIP3    H2 3937   4.679   0.928   0.794
 1311TIP3   OH2 3938   2.413   4.608   2.221
 1311TIP3    H1 3939   2.369   4.693   2.224
 1311TIP3    H2 3940   2.415   4.579   2.312
 1312TIP3   OH2 3941   3.111   2.569   4.427
 1312TIP3    H1 3942   3.128   2.505   4.496
 1312TIP3    H2 3943   3.156   2.533   4.350
 1313TIP3   OH2 3944   3.870   0.301   0.766
 1313TIP3    H1 3945   3.964   0.318   0.758
 1313TIP3    H2 3946   3.863   0.230   0.831
 1314TIP3   OH2 3947   4.424   1.941   3.746
 1314TIP3    H1 3948   4.395   1.851   3.735
 1314TIP3    H2 3949   4.512   1.934   3.783
 1315TIP3   OH2 3950   5.915   2.820   2.645
 1315TIP3    H1 3951   5.924   2.803   2.551
 1315TIP3    H2 3952   5.881   2.738   2.681
 1316TIP3   OH2 3953   0.737   1.526   1.032
 1316TIP3    H1 3954   0.690   1.454   0.990
 1316TIP3    H2 3955   0.683   1.551   1.106
 1317TIP3   OH2 3956   6.286   2.904   1.168
 1317TIP3    H1 3957   6.306   2.896   1.075
 1317TIP3    H2 3958   6.200   2.945   1.171
 1318TIP3   OH2 3959   6.127   1.076   3.142
 1318TIP3    H1 3960   6.101   1.010   3.078
 1318TIP3    H2 3961   6.137   1.157   3.090
 1319TIP3   OH2 3962   0.136   3.210   2.369
 1319TIP3    H1 3963   0.055   3.180   2.409
 1319TIP3    H2 3964   0.196   3.135   2.378
 1320TIP3   OH2 3965   0.099   0.249   4.602
 1320TIP3    H1 3966   0.191   0.238   4.624
 1320TIP3    H2 3967   0.070   0.163   4.573
 1321TIP3   OH2 3968   0.669   2.121   1.354
 1321TIP3    H1 3969   0.671   2.080   1.267
 1321TIP3    H2 3970   0.592   2.177   1.352
 1322TIP3   OH2 3971   6.173   3.981   3.486
 1322TIP3    H1 3972   6.146   3.902   3.532
 1322TIP3    H2 3973   6.109   4.047   3.510
 1323TIP3   OH2 3974   6.233   2.223   1.421
 1323TIP3    H1 3975   6.190   2.143   1.391
 1323TIP3    H2 3976   6.254   2.206   1.513
 1324TIP3   OH2 3977   1.278   5.364   4.323
 1324TIP3    H1 3978   1.278   5.364   4.419
 1324TIP3    H2 3979   1.261   5.455   4.299
 1325TIP3   OH2 3980   1.240   1.800   4.466
 1325TIP3    H1 3981   1.190   1.870   4.509
 1325TIP3    H2 3982   1.179   1.762   4.403
 1326TIP3   OH2 3983   1.399   4.791   3.651
 1326TIP3    H1 3984   1.394   4.714   3.594
 1326TIP3    H2 3985   1.493   4.811   3.655
 1327TIP3   OH2 3986   6.183   2.609   4.585
 1327TIP3    H1 3987   6.241   2.603   4.662
 1327TIP3    H2 3988   6.222   2.678   4.531
 1328TIP3   OH2 3989   4.179   1.059   3.932
 1328TIP3    H1 3990   4.270   1.038   3.911
 1328TIP3    H2 3991   4.144   1.096   3.851
 1329TIP3   OH2 3992   4.310   4.821   2.976
 1329TIP3    H1 3993   4.359   4.829   3.058
 1329TIP3    H2 3994   4.368   4.859   2.910
 1330TIP3   OH2 3995   3.779   4.454   4.649
 1330TIP3    H1 3996   3.771   4.546   4.673
 1330TIP3    H2 3997   3.693   4.431   4.612
 1331TIP3   OH2 3998   1.603   4.366   1.246
 1331TIP3    H1 3999   1.609   4.271   1.256
 1331TIP3    H2 4000   1.524   4.380   1.195
 1332TIP3   OH2 4001   0.934  -0.020   3.036
 1332TIP3    H1 4002   1.003  -0.086   3.042
 1332TIP3    H2 4003   0.928   0.016   3.124
 1333TIP3   OH2 4004   4.512   0.353   2.970
 1333TIP3    H1 4005   4.525   0.360   2.876
 1333TIP3    H2 4006   4.499   0.443   3.000
 1334TIP3   OH2 4007   5.178   4.605   3.260
 1334TIP3    H1 4008   5.211   4.581   3.174
 1334TIP3    H2 4009   5.165   4.522   3.305
 1335TIP3   OH2 4010   6.331   3.810   1.512
 1335TIP3    H1 4011   6.318   3.863   1.433
 1335TIP3    H2 4012   6.243   3.797   1.546
 1336TIP3   OH2 4013   1.177   5.115   0.588
 1336TIP3    H1 4014   1.121   5.077   0.521
 1336TIP3    H2 4015   1.129   5.191   0.619
 1337TIP3   OH2 4016   0.409   5.620   1.406
 1337TIP3    H1 4017   0.469   5.653   1.340
 1337TIP3    H2 4018   0.339   5.685   1.409
 1338TIP3   OH2 4019   6.240   2.098   1.945
 1338TIP3    H1 4020   6.267   2.165   2.008
 1338TIP3    H2 4021   6.171   2.049   1.990
 1339TIP3   OH2 4022   0.748   1.219   5.181
 1339TIP3    H1 4023   0.781   1.216   5.091
 1339TIP3    H2 4024   0.801   1.155   5.229
 1340TIP3   OH2 4025   3.887   0.918   3.924
 1340TIP3    H1 4026   3.907   0.956   3.839
 1340TIP3    H2 4027   3.938   0.837   3.927
 1341TIP3   OH2 4028   3.122   1.202   0.865
 1341TIP3    H1 4029   3.048   1.142   0.874
 1341TIP3    H2 4030   3.133   1.241   0.951
 1342TIP3   OH2 4031   2.456   2.510   2.713
 1342TIP3    H1 4032   2.413   2.511   2.628
 1342TIP3    H2 4033   2.549   2.509   2.694
 1343TIP3   OH2 4034   0.913   0.533   4.119
 1343TIP3    H1 4035   0.918   0.626   4.142
 1343TIP3    H2 4036   0.821   0.510   4.132
 1344TIP3   OH2 4037   6.254   0.385   1.435
 1344TIP3    H1 4038   6.171   0.350   1.467
 1344TIP3    H2 4039   6.262   0.470   1.477
 1345TIP3   OH2 4040   0.142   0.891   0.380
 1345TIP3    H1 4041   0.096   0.928   0.455
 1345TIP3    H2 4042   0.077   0.890   0.310
 1346TIP3   OH2 4043   1.486   1.434   2.052
 1346TIP3    H1 4044   1.453   1.406   1.967
 1346TIP3    H2 4045   1.516   1.354   2.094
 1347TIP3   OH2 4046   1.018   4.658   1.207
 1347TIP3    H1 4047   1.085   4.623   1.267
 1347TIP3    H2 4048   1.032   4.752   1.209
 1348TIP3   OH2 4049   4.765   0.779   5.088
 1348TIP3    H1 4050   4.754   0.768   5.183
 1348TIP3    H2 4051   4.684   0.745   5.051
 1349TIP3   OH2 4052   4.225   0.841   4.907
 1349TIP3    H1 4053   4.204   0.880   4.822
 1349TIP3    H2 4054   4.292   0.899   4.944
 1350TIP3   OH2 4055   5.090   3.254   3.680
 1350TIP3    H1 4056   5.094   3.187   3.749
 1350TIP3    H2 4057   5.166   3.235   3.624
 1351TIP3   OH2 4058   0.879   0.937   2.323
 1351TIP3    H1 4059   0.962   0.894   2.306
 1351TIP3    H2 4060   0.818   0.865   2.339
 1352TIP3   OH2 4061   1.358   0.805   1.706
 1352TIP3    H1 4062   1.289   0.840   1.650
 1352TIP3    H2 4063   1.439   0.821   1.657
 1353TIP3   OH2 4064   1.461   4.367   0.363
 1353TIP3    H1 4065   1.534   4.412   0.407
 1353TIP3    H2 4066   1.415   4.322   0.434
 1354TIP3   OH2 4067   3.640   3.019   0.571
 1354TIP3    H1 4068   3.734   3.018   0.588
 1354TIP3    H2 4069   3.609   2.933   0.598
 1355TIP3   OH2 4070   2.132   0.569   2.960
 1355TIP3    H1 4071   2.049   0.522   2.970
 1355TIP3    H2 4072   2.137   0.625   3.037
 1356TIP3   OH2 4073   1.313   4.569   3.516
 1356TIP3    H1 4074   1.275   4.482   3.517
 1356TIP3    H2 4075   1.406   4.554   3.533
 1357TIP3   OH2 4076   4.126   2.238   3.997
 1357TIP3    H1 4077   4.118   2.332   3.981
 1357TIP3    H2 4078   4.057   2.198   3.945
 1358TIP3   OH2 4079   2.169   3.435   5.054
 1358TIP3    H1 4080   2.177   3.501   5.122
 1358TIP3    H2 4081   2.196   3.479   4.974
 1359TIP3   OH2 4082   5.494   0.065   4.028
 1359TIP3    H1 4083   5.437   0.125   4.076
 1359TIP3    H2 4084   5.483  -0.019   4.072
 1360TIP3   OH2 4085   3.228   5.414   3.301
 1360TIP3    H1 4086   3.215   5.325   3.334
 1360TIP3    H2 4087   3.192   5.471   3.370
 1361TIP3   OH2 4088   2.046   5.400   2.525
 1361TIP3    H1 4089   2.120   5.339   2.517
 1361TIP3    H2 4090   2.087   5.487   2.527
 1362TIP3   OH2 4091   0.335   4.283   4.379
 1362TIP3    H1 4092   0.403   4.216   4.383
 1362TIP3    H2 4093   0.369   4.348   4.317
 1363TIP3   OH2 4094   4.787   4.049   4.784
 1363TIP3    H1 4095   4.804   4.065   4.691
 1363TIP3    H2 4096   4.832   3.966   4.802
 1364TIP3   OH2 4097   3.021   2.768   1.383
 1364TIP3    H1 4098   3.046   2.854   1.418
 1364TIP3    H2 4099   2.939   2.784   1.337
 1365TIP3   OH2 4100   4.716   2.252   3.981
 1365TIP3    H1 4101   4.700   2.177   4.038
 1365TIP3    H2 4102   4.713   2.327   4.039
 1366TIP3   OH2 4103   1.736   0.950   2.424
 1366TIP3    H1 4104   1.714   0.915   2.338
 1366TIP3    H2 4105   1.817   0.999   2.410
 1367TIP3   OH2 4106   4.962   3.658   2.059
 1367TIP3    H1 4107   5.001   3.586   2.108
 1367TIP3    H2 4108   4.978   3.736   2.113
 1368TIP3   OH2 4109   3.771   3.690   0.985
 1368TIP3    H1 4110   3.771   3.611   1.037
 1368TIP3    H2 4111   3.762   3.660   0.894
 1369TIP3   OH2 4112   5.615   5.121   3.359
 1369TIP3    H1 4113   5.648   5.128   3.449
 1369TIP3    H2 4114   5.623   5.028   3.337
 1370TIP3   OH2 4115   4.259   2.639   0.393
 1370TIP3    H1 4116   4.220   2.623   0.479
 1370TIP3    H2 4117   4.185   2.639   0.332
 1371TIP3   OH2 4118   0.439   4.192   4.882
 1371TIP3    H1 4119   0.363   4.148   4.922
 1371TIP3    H2 4120   0.478   4.125   4.826
 1372TIP3   OH2 4121   5.360   0.976   2.983
 1372TIP3    H1 4122   5.384   0.921   3.057
 1372TIP3    H2 4123   5.355   1.064   3.019
 1373TIP3   OH2 4124   5.082   5.287   1.287
 1373TIP3    H1 4125   4.991   5.307   1.307
 1373TIP3    H2 4126   5.077   5.227   1.212
 1374TIP3   OH2 4127   2.349   2.079   0.643
 1374TIP3    H1 4128   2.418   2.014   0.631
 1374TIP3    H2 4129   2.300   2.048   0.720
 1375TIP3   OH2 4130   1.056   2.963   3.513
 1375TIP3    H1 4131   0.975   2.913   3.525
 1375TIP3    H2 4132   1.051   2.996   3.424
 1376TIP3   OH2 4133   6.324   4.933   3.569
 1376TIP3    H1 4134   6.295   4.890   3.649
 1376TIP3    H2 4135   6.250   4.987   3.542
 1377TIP3   OH2 4136   5.607   4.918   4.976
 1377TIP3    H1 4137   5.568   4.998   4.939
 1377TIP3    H2 4138   5.591   4.851   4.909
 1378TIP3   OH2 4139   1.993   1.048   1.340
 1378TIP3    H1 4140   2.057   1.080   1.276
 1378TIP3    H2 4141   1.909   1.082   1.309
 1379TIP3   OH2 4142   5.864   4.680   4.438
 1379TIP3    H1 4143   5.883   4.752   4.377
 1379TIP3    H2 4144   5.937   4.681   4.501
 1380TIP3   OH2 4145   0.451   4.813   2.562
 1380TIP3    H1 4146   0.542   4.816   2.594
 1380TIP3    H2 4147   0.457   4.840   2.470
 1381TIP3   OH2 4148   5.546   3.021   4.969
 1381TIP3    H1 4149   5.601   3.068   5.031
 1381TIP3    H2 4150   5.456   3.047   4.991
 1382TIP3   OH2 4151   2.993   3.172   2.806
 1382TIP3    H1 4152   3.011   3.081   2.783
 1382TIP3    H2 4153   2.925   3.168   2.873
 1383TIP3   OH2 4154   4.513   3.201   5.111
 1383TIP3    H1 4155   4.437   3.250   5.142
 1383TIP3    H2 4156   4.488   3.171   5.024
 1384TIP3   OH2 4157   5.828   1.772   2.115
 1384TIP3    H1 4158   5.787   1.701   2.066
 1384TIP3    H2 4159   5.788   1.768   2.202
 1385TIP3   OH2 4160   1.702   5.020   1.172
 1385TIP3    H1 4161   1.676   4.989   1.086
 1385TIP3    H2 4162   1.708   4.941   1.226
 1386TIP3   OH2 4163   5.720   3.961   3.009
 1386TIP3    H1 4164   5.799   3.977   2.958
 1386TIP3    H2 4165   5.694   4.048   3.041
 1387TIP3   OH2 4166   2.083   2.857   2.586
 1387TIP3    H1 4167   2.085   2.796   2.513
 1387TIP3    H2 4168   2.086   2.801   2.664
 1388TIP3   OH2 4169   4.388   5.219   2.898
 1388TIP3    H1 4170   4.354   5.308   2.895
 1388TIP3    H2 4171   4.364   5.187   2.985
 1389TIP3   OH2 4172   3.601   5.567   2.066
 1389TIP3    H1 4173   3.560   5.485   2.039
 1389TIP3    H2 4174   3.576   5.577   2.158
 1390TIP3   OH2 4175   0.269   3.254   5.045
 1390TIP3    H1 4176   0.328   3.179   5.038
 1390TIP3    H2 4177   0.325   3.330   5.030
 1391TIP3   OH2 4178   0.014   2.085   0.912
 1391TIP3    H1 4179   0.065   2.084   0.993
 1391TIP3    H2 4180   0.052   2.015   0.859
 1392TIP3   OH2 4181   5.528   4.418   4.270
 1392TIP3    H1 4182   5.565   4.353   4.211
 1392TIP3    H2 4183   5.466   4.467   4.215
 1393TIP3   OH2 4184   5.051   0.545   4.188
 1393TIP3    H1 4185   5.027   0.591   4.108
 1393TIP3    H2 4186   5.024   0.605   4.258
 1394TIP3   OH2 4187   1.976   4.752   3.485
 1394TIP3    H1 4188   2.032   4.821   3.448
 1394TIP3    H2 4189   2.016   4.732   3.570
 1395TIP3   OH2 4190   3.765   2.565   4.380
 1395TIP3    H1 4191   3.828   2.636   4.379
 1395TIP3    H2 4192   3.693   2.595   4.325
 1396TIP3   OH2 4193   1.568   4.523   3.487
 1396TIP3    H1 4194   1.555   4.501   3.395
 1396TIP3    H2 4195   1.643   4.469   3.514
 1397TIP3   OH2 4196   3.664   1.370   0.237
 1397TIP3    H1 4197   3.575   1.349   0.268
 1397TIP3    H2 4198   3.688   1.295   0.182
 1398TIP3   OH2 4199   4.581   3.682   3.788
 1398TIP3    H1 4200   4.492   3.683   3.826
 1398TIP3    H2 4201   4.638   3.705   3.861
 1399TIP3   OH2 4202   5.372   3.279   2.895
 1399TIP3    H1 4203   5.294   3.309   2.848
 1399TIP3    H2 4204   5.417   3.359   2.920
 1400TIP3   OH2 4205   5.083   1.190   4.243
 1400TIP3    H1 4206   5.059   1.185   4.151
 1400TIP3    H2 4207   5.034   1.266   4.276
 1401TIP3   OH2 4208   5.395   2.563   1.058
 1401TIP3    H1 4209   5.490   2.563   1.053
 1401TIP3    H2 4210   5.373   2.477   1.096
 1402TIP3   OH2 4211   3.643   2.712   1.382
 1402TIP3    H1 4212   3.687   2.700   1.298
 1402TIP3    H2 4213   3.713   2.701   1.447
 1403TIP3   OH2 4214   3.125   5.778   1.663
 1403TIP3    H1 4215   3.040   5.750   1.697
 1403TIP3    H2 4216   3.150   5.710   1.601
 1404TIP3   OH2 4217   0.500   3.590   3.784
 1404TIP3    H1 4218   0.528   3.574   3.694
 1404TIP3    H2 4219   0.406   3.573   3.784
 1405TIP3   OH2 4220   1.743   4.598   0.173
 1405TIP3    H1 4221   1.829   4.634   0.153
 1405TIP3    H2 4222   1.762   4.520   0.226
 1406TIP3   OH2 4223   4.803   5.596   0.557
 1406TIP3    H1 4224   4.828   5.688   0.564
 1406TIP3    H2 4225   4.748   5.593   0.478
 1407TIP3   OH2 4226   1.256   5.841   4.382
 1407TIP3    H1 4227   1.306   5.781   4.437
 1407TIP3    H2 4228   1.242   5.918   4.437
 1408TIP3   OH2 4229   3.540   1.302   1.901
 1408TIP3    H1 4230   3.631   1.281   1.879
 1408TIP3    H2 4231   3.488   1.261   1.832
 1409TIP3   OH2 4232   2.047   5.187   1.109
 1409TIP3    H1 4233   2.011   5.276   1.108
 1409TIP3    H2 4234   2.140   5.199   1.092
 1410TIP3   OH2 4235   5.071   1.569   4.016
 1410TIP3    H1 4236   5.131   1.496   4.031
 1410TIP3    H2 4237   4.985   1.527   4.009
 1411TIP3   OH2 4238   0.081   5.554   1.501
 1411TIP3    H1 4239   0.148   5.496   1.465
 1411TIP3    H2 4240   0.097   5.554   1.595
 1412TIP3   OH2 4241   1.563   1.479   4.652
 1412TIP3    H1 4242   1.524   1.517   4.731
 1412TIP3    H2 4243   1.538   1.387   4.655
 1413TIP3   OH2 4244   0.448   1.314   4.090
 1413TIP3    H1 4245   0.380   1.252   4.115
 1413TIP3    H2 4246   0.481   1.282   4.007
 1414TIP3   OH2 4247   6.117   0.244   3.149
 1414TIP3    H1 4248   6.119   0.222   3.056
 1414TIP3    H2 4249   6.205   0.279   3.167
 1415TIP3   OH2 4250   2.968   5.057   1.995
 1415TIP3    H1 4251   3.050   5.029   2.036
 1415TIP3    H2 4252   2.980   5.036   1.902
 1416TIP3   OH2 4253   0.847   2.400   4.789
 1416TIP3    H1 4254   0.756   2.370   4.796
 1416TIP3    H2 4255   0.883   2.353   4.714
 1417TIP3   OH2 4256   0.440   0.148   2.992
 1417TIP3    H1 4257   0.484   0.064   3.006
 1417TIP3    H2 4258   0.471   0.177   2.907
 1418TIP3   OH2 4259   5.433   3.854   4.708
 1418TIP3    H1 4260   5.481   3.900   4.639
 1418TIP3    H2 4261   5.343   3.887   4.701
 1419TIP3   OH2 4262   4.437   0.728   0.609
 1419TIP3    H1 4263   4.457   0.790   0.678
 1419TIP3    H2 4264   4.342   0.731   0.600
 1420TIP3   OH2 4265   3.217   3.991   3.694
 1420TIP3    H1 4266   3.253   3.995   3.783
 1420TIP3    H2 4267   3.294   3.990   3.637
 1421TIP3   OH2 4268   3.749   2.999   2.420
 1421TIP3    H1 4269   3.748   3.048   2.337
 1421TIP3    H2 4270   3.668   2.949   2.419
 1422TIP3   OH2 4271   1.839   2.131   2.657
 1422TIP3    H1 4272   1.754   2.103   2.691
 1422TIP3    H2 4273   1.822   2.215   2.614
 1423TIP3   OH2 4274   3.812   0.140   4.465
 1423TIP3    H1 4275   3.829   0.221   4.513
 1423TIP3    H2 4276   3.890   0.126   4.412
 1424TIP3   OH2 4277   5.512   0.816   3.215
 1424TIP3    H1 4278   5.564   0.755   3.164
 1424TIP3    H2 4279   5.558   0.822   3.299
 1425TIP3   OH2 4280   2.104   5.939   2.643
 1425TIP3    H1 4281   2.169   5.870   2.650
 1425TIP3    H2 4282   2.020   5.895   2.652
 1426TIP3   OH2 4283   4.221   2.087   1.834
 1426TIP3    H1 4284   4.173   2.142   1.896
 1426TIP3    H2 4285   4.157   2.021   1.807
 1427TIP3   OH2 4286   4.957   3.120   1.457
 1427TIP3    H1 4287   4.938   3.171   1.536
 1427TIP3    H2 4288   5.042   3.081   1.473
 1428TIP3   OH2 4289   0.604   0.431   3.036
 1428TIP3    H1 4290   0.674   0.492   3.016
 1428TIP3    H2 4291   0.603   0.370   2.963
 1429TIP3   OH2 4292   2.410   1.371   4.477
 1429TIP3    H1 4293   2.394   1.460   4.507
 1429TIP3    H2 4294   2.339   1.352   4.415
 1430TIP3   OH2 4295   4.944   1.842   4.042
 1430TIP3    H1 4296   5.015   1.779   4.035
 1430TIP3    H2 4297   4.872   1.793   4.080
 1431TIP3   OH2 4298   4.911   5.912   4.376
 1431TIP3    H1 4299   4.973   5.973   4.417
 1431TIP3    H2 4300   4.834   5.966   4.357
 1432TIP3   OH2 4301   0.570   0.973   4.965
 1432TIP3    H1 4302   0.486   0.983   4.921
 1432TIP3    H2 4303   0.622   1.047   4.933
 1433TIP3   OH2 4304   5.148   4.006   1.919
 1433TIP3    H1 4305   5.192   4.090   1.908
 1433TIP3    H2 4306   5.097   4.017   2.000
 1434TIP3   OH2 4307   4.079   3.513   1.071
 1434TIP3    H1 4308   3.987   3.488   1.065
 1434TIP3    H2 4309   4.103   3.539   0.982
 1435TIP3   OH2 4310   1.696   4.561   1.949
 1435TIP3    H1 4311   1.780   4.590   1.984
 1435TIP3    H2 4312   1.641   4.639   1.951
 1436TIP3   OH2 4313   0.703   1.004   0.150
 1436TIP3    H1 4314   0.733   0.975   0.236
 1436TIP3    H2 4315   0.709   1.099   0.153
 1437TIP3   OH2 4316   2.831   0.199  -0.011
 1437TIP3    H1 4317   2.742   0.208   0.025
 1437TIP3    H2 4318   2.868   0.287  -0.007
 1438TIP3   OH2 4319   5.975   4.095   0.567
 1438TIP3    H1 4320   5.988   4.013   0.615
 1438TIP3    H2 4321   6.002   4.163   0.628
 1439TIP3   OH2 4322   5.531   4.219   2.916
 1439TIP3    H1 4323   5.461   4.160   2.890
 1439TIP3    H2 4324   5.540   4.205   3.011
 1440TIP3   OH2 4325   1.315   0.785   3.398
 1440TIP3    H1 4326   1.317   0.801   3.493
 1440TIP3    H2 4327   1.405   0.796   3.370
 1441TIP3   OH2 4328   3.547   4.159   5.012
 1441TIP3    H1 4329   3.588   4.088   4.961
 1441TIP3    H2 4330   3.613   4.182   5.078
 1442TIP3   OH2 4331   2.600   4.727   4.121
 1442TIP3    H1 4332   2.570   4.641   4.091
 1442TIP3    H2 4333   2.624   4.714   4.212
 1443TIP3   OH2 4334   1.325   0.320   2.511
 1443TIP3    H1 4335   1.321   0.225   2.528
 1443TIP3    H2 4336   1.237   0.343   2.482
 1444TIP3   OH2 4337   2.064   3.802   4.010
 1444TIP3    H1 4338   2.029   3.873   4.064
 1444TIP3    H2 4339   2.106   3.743   4.073
 1445TIP3   OH2 4340   5.130   4.756   0.896
 1445TIP3    H1 4341   5.055   4.800   0.936
 1445TIP3    H2 4342   5.101   4.666   0.884
 1446TIP3   OH2 4343   2.643   4.613   2.077
 1446TIP3    H1 4344   2.657   4.694   2.027
 1446TIP3    H2 4345   2.560   4.627   2.122
 1447TIP3   OH2 4346   5.606   4.695   0.595
 1447TIP3    H1 4347   5.511   4.683   0.599
 1447TIP3    H2 4348   5.618   4.789   0.589
 1448TIP3   OH2 4349   5.669   5.694   3.907
 1448TIP3    H1 4350   5.717   5.728   3.982
 1448TIP3    H2 4351   5.581   5.730   3.916
 1449TIP3   OH2 4352   1.312   5.492   3.087
 1449TIP3    H1 4353   1.223   5.509   3.058
 1449TIP3    H2 4354   1.349   5.579   3.103
 1450TIP3   OH2 4355   3.193   4.011   4.190
 1450TIP3    H1 4356   3.254   3.946   4.154
 1450TIP3    H2 4357   3.169   3.977   4.276
 1451TIP3   OH2 4358   0.575   1.255   3.292
 1451TIP3    H1 4359   0.660   1.239   3.251
 1451TIP3    H2 4360   0.521   1.290   3.220
 1452TIP3   OH2 4361   2.355   1.431   5.043
 1452TIP3    H1 4362   2.380   1.340   5.025
 1452TIP3    H2 4363   2.272   1.424   5.090
 1453TIP3   OH2 4364   4.081   3.046   3.333
 1453TIP3    H1 4365   4.113   2.970   3.381
 1453TIP3    H2 4366   4.048   3.011   3.251
 1454TIP3   OH2 4367   0.085   2.357   2.925
 1454TIP3    H1 4368   0.115   2.288   2.985
 1454TIP3    H2 4369   0.087   2.437   2.977
 1455TIP3   OH2 4370   0.885   2.153   3.711
 1455TIP3    H1 4371   0.824   2.101   3.658
 1455TIP3    H2 4372   0.902   2.099   3.788
 1456TIP3   OH2 4373   6.026   5.393   2.577
 1456TIP3    H1 4374   6.002   5.313   2.624
 1456TIP3    H2 4375   6.036   5.366   2.486
 1457TIP3   OH2 4376   5.343   5.479   3.236
 1457TIP3    H1 4377   5.363   5.456   3.146
 1457TIP3    H2 4378   5.250   5.457   3.246
 1458TIP3   OH2 4379   4.035   4.428   0.507
 1458TIP3    H1 4380   3.999   4.477   0.433
 1458TIP3    H2 4381   3.958   4.398   0.555
 1459TIP3   OH2 4382   0.345   4.856   4.729
 1459TIP3    H1 4383   0.316   4.887   4.815
 1459TIP3    H2 4384   0.269   4.868   4.673
 1460TIP3   OH2 4385   5.222   5.408   3.735
 1460TIP3    H1 4386   5.285   5.412   3.663
 1460TIP3    H2 4387   5.193   5.499   3.747
 1461TIP3   OH2 4388   4.577   3.963   4.961
 1461TIP3    H1 4389   4.640   4.002   4.900
 1461TIP3    H2 4390   4.590   4.010   5.043
 1462TIP3   OH2 4391   3.520   3.367   3.118
 1462TIP3    H1 4392   3.498   3.437   3.057
 1462TIP3    H2 4393   3.475   3.290   3.083
 1463TIP3   OH2 4394   0.309   3.349   1.525
 1463TIP3    H1 4395   0.371   3.292   1.479
 1463TIP3    H2 4396   0.224   3.330   1.484
 1464TIP3   OH2 4397   3.803   3.896   3.285
 1464TIP3    H1 4398   3.785   3.980   3.241
 1464TIP3    H2 4399   3.749   3.899   3.364
 1465TIP3   OH2 4400   4.378   5.838   2.539
 1465TIP3    H1 4401   4.352   5.761   2.488
 1465TIP3    H2 4402   4.450   5.806   2.594
 1466TIP3   OH2 4403   4.006   3.423   3.375
 1466TIP3    H1 4404   3.953   3.481   3.320
 1466TIP3    H2 4405   3.952   3.345   3.386
 1467TIP3   OH2 4406   3.007   2.955   2.332
 1467TIP3    H1 4407   2.924   2.910   2.315
 1467TIP3    H2 4408   2.998   3.039   2.288
 1468TIP3   OH2 4409   0.920   4.556   4.159
 1468TIP3    H1 4410   0.893   4.537   4.248
 1468TIP3    H2 4411   0.876   4.490   4.106
 1469TIP3   OH2 4412   0.739   3.910   3.125
 1469TIP3    H1 4413   0.722   3.818   3.106
 1469TIP3    H2 4414   0.784   3.943   3.047
 1470TIP3   OH2 4415   1.597   3.703   4.401
 1470TIP3    H1 4416   1.623   3.786   4.442
 1470TIP3    H2 4417   1.679   3.665   4.371
 1471TIP3   OH2 4418   4.323   0.694   1.215
 1471TIP3    H1 4419   4.388   0.632   1.249
 1471TIP3    H2 4420   4.275   0.645   1.149
 1472TIP3   OH2 4421   3.467   2.810   4.636
 1472TIP3    H1 4422   3.483   2.876   4.704
 1472TIP3    H2 4423   3.518   2.734   4.666
 1473TIP3   OH2 4424   1.007   5.791   2.203
 1473TIP3    H1 4425   1.094   5.758   2.180
 1473TIP3    H2 4426   1.023   5.855   2.272
 1474TIP3   OH2 4427   0.515   1.201   2.384
 1474TIP3    H1 4428   0.611   1.206   2.385
 1474TIP3    H2 4429   0.496   1.108   2.399
 1475TIP3   OH2 4430   1.060   5.599   3.028
 1475TIP3    H1 4431   0.986   5.625   3.083
 1475TIP3    H2 4432   1.037   5.632   2.941
 1476TIP3   OH2 4433   3.775   5.727   4.760
 1476TIP3    H1 4434   3.760   5.817   4.730
 1476TIP3    H2 4435   3.736   5.724   4.848
 1477TIP3   OH2 4436   1.192   1.416   1.492
 1477TIP3    H1 4437   1.156   1.361   1.561
 1477TIP3    H2 4438   1.123   1.480   1.474
 1478TIP3   OH2 4439   3.297   2.678   3.092
 1478TIP3    H1 4440   3.387   2.654   3.071
 1478TIP3    H2 4441   3.258   2.599   3.128
 1479TIP3   OH2 4442   5.551   1.132   3.323
 1479TIP3    H1 4443   5.543   1.064   3.390
 1479TIP3    H2 4444   5.638   1.119   3.286
 1480TIP3   OH2 4445   2.268   1.671   3.301
 1480TIP3    H1 4446   2.326   1.747   3.298
 1480TIP3    H2 4447   2.277   1.631   3.214
 1481TIP3   OH2 4448   1.257   5.615   4.211
 1481TIP3    H1 4449   1.269   5.709   4.227
 1481TIP3    H2 4450   1.189   5.611   4.144
 1482TIP3   OH2 4451   1.107   1.602   4.707
 1482TIP3    H1 4452   1.128   1.583   4.615
 1482TIP3    H2 4453   1.051   1.529   4.734
 1483TIP3   OH2 4454   0.338   4.694   0.246
 1483TIP3    H1 4455   0.431   4.691   0.269
 1483TIP3    H2 4456   0.337   4.738   0.160
 1484TIP3   OH2 4457   2.862   3.649   3.326
 1484TIP3    H1 4458   2.941   3.674   3.372
 1484TIP3    H2 4459   2.873   3.556   3.307
 1485TIP3   OH2 4460   1.274   0.616   1.072
 1485TIP3    H1 4461   1.344   0.678   1.056
 1485TIP3    H2 4462   1.307   0.533   1.038
 1486TIP3   OH2 4463   2.848   3.597   4.091
 1486TIP3    H1 4464   2.887   3.523   4.044
 1486TIP3    H2 4465   2.900   3.604   4.171
 1487TIP3   OH2 4466   6.191   3.432   0.514
 1487TIP3    H1 4467   6.238   3.357   0.476
 1487TIP3    H2 4468   6.100   3.416   0.491
 1488TIP3   OH2 4469   2.971   4.548   2.931
 1488TIP3    H1 4470   2.962   4.475   2.869
 1488TIP3    H2 4471   2.885   4.557   2.970
 1489TIP3   OH2 4472   1.083   0.378   1.061
 1489TIP3    H1 4473   1.136   0.343   0.989
 1489TIP3    H2 4474   1.138   0.447   1.099
 1490TIP3   OH2 4475   0.854   5.514   4.670
 1490TIP3    H1 4476   0.891   5.592   4.629
 1490TIP3    H2 4477   0.925   5.450   4.669
 1491TIP3   OH2 4478   4.400   4.569   3.746
 1491TIP3    H1 4479   4.416   4.478   3.768
 1491TIP3    H2 4480   4.387   4.612   3.831
 1492TIP3   OH2 4481   2.317   2.249   0.060
 1492TIP3    H1 4482   2.307   2.187   0.133
 1492TIP3    H2 4483   2.255   2.217  -0.006
 1493TIP3   OH2 4484   0.860   3.675   3.345
 1493TIP3    H1 4485   0.898   3.762   3.330
 1493TIP3    H2 4486   0.914   3.637   3.414
 1494TIP3   OH2 4487   0.543   1.612   4.629
 1494TIP3    H1 4488   0.497   1.608   4.712
 1494TIP3    H2 4489   0.563   1.704   4.616
 1495TIP3   OH2 4490   5.966   5.794   0.652
 1495TIP3    H1 4491   5.898   5.772   0.587
 1495TIP3    H2 4492   6.048   5.780   0.606
 1496TIP3   OH2 4493   2.662   3.918   0.092
 1496TIP3    H1 4494   2.600   3.988   0.114
 1496TIP3    H2 4495   2.665   3.918  -0.004
 1497TIP3   OH2 4496   5.968   3.395   4.984
 1497TIP3    H1 4497   5.903   3.454   4.946
 1497TIP3    H2 4498   5.965   3.317   4.929
 1498TIP3   OH2 4499   0.296   0.658   2.790
 1498TIP3    H1 4500   0.277   0.661   2.696
 1498TIP3    H2 4501   0.264   0.573   2.818
 1499TIP3   OH2 4502   5.105   3.397   2.889
 1499TIP3    H1 4503   5.048   3.381   2.965
 1499TIP3    H2 4504   5.129   3.489   2.896
 1500TIP3   OH2 4505   2.369   2.544   4.699
 1500TIP3    H1 4506   2.349   2.470   4.755
 1500TIP3    H2 4507   2.463   2.559   4.711
 1501TIP3   OH2 4508   6.291   0.795   0.990
 1501TIP3    H1 4509   6.326   0.730   1.051
 1501TIP3    H2 4510   6.201   0.810   1.019
 1502TIP3   OH2 4511   5.071   5.439   3.330
 1502TIP3    H1 4512   5.088   5.525   3.291
 1502TIP3    H2 4513   5.018   5.393   3.264
 1503TIP3   OH2 4514   3.930   3.078   3.807
 1503TIP3    H1 4515   3.951   3.046   3.895
 1503TIP3    H2 4516   3.962   3.168   3.806
 1504TIP3   OH2 4517   1.849   1.819   3.461
 1504TIP3    H1 4518   1.800   1.815   3.379
 1504TIP3    H2 4519   1.918   1.884   3.445
 1505TIP3   OH2 4520   6.129   0.990   3.777
 1505TIP3    H1 4521   6.091   0.973   3.691
 1505TIP3    H2 4522   6.221   0.967   3.768
 1506TIP3   OH2 4523   5.126   2.418   3.433
 1506TIP3    H1 4524   5.140   2.378   3.519
 1506TIP3    H2 4525   5.036   2.451   3.436
 1507TIP3   OH2 4526   4.217   5.846   3.467
 1507TIP3    H1 4527   4.145   5.827   3.527
 1507TIP3    H2 4528   4.174   5.873   3.386
 1508TIP3   OH2 4529   3.950   2.662   3.635
 1508TIP3    H1 4530   3.958   2.572   3.601
 1508TIP3    H2 4531   3.934   2.651   3.729
 1509TIP3   OH2 4532   5.337   5.025   2.229
 1509TIP3    H1 4533   5.404   5.093   2.231
 1509TIP3    H2 4534   5.266   5.059   2.283
 1510TIP3   OH2 4535   1.596   5.073   4.866
 1510TIP3    H1 4536   1.545   5.094   4.945
 1510TIP3    H2 4537   1.587   4.979   4.855
 1511TIP3   OH2 4538   4.917   3.361   3.507
 1511TIP3    H1 4539   4.902   3.446   3.549
 1511TIP3    H2 4540   4.980   3.317   3.564
 1512TIP3   OH2 4541   0.823   4.863   0.805
 1512TIP3    H1 4542   0.882   4.878   0.732
 1512TIP3    H2 4543   0.842   4.935   0.866
 1513TIP3   OH2 4544   0.840   3.958   2.522
 1513TIP3    H1 4545   0.933   3.972   2.540
 1513TIP3    H2 4546   0.833   3.964   2.426
 1514TIP3   OH2 4547   0.404   5.045   3.515
 1514TIP3    H1 4548   0.482   5.085   3.476
 1514TIP3    H2 4549   0.399   5.083   3.603
 1515TIP3   OH2 4550   6.167   3.270   3.608
 1515TIP3    H1 4551   6.139   3.248   3.697
 1515TIP3    H2 4552   6.257   3.237   3.603
 1516TIP3   OH2 4553   5.085   5.927   3.724
 1516TIP3    H1 4554   5.002   5.921   3.771
 1516TIP3    H2 4555   5.123   6.010   3.751
 1517TIP3   OH2 4556   1.137   4.700   4.045
 1517TIP3    H1 4557   1.154   4.794   4.046
 1517TIP3    H2 4558   1.143   4.675   3.953
 1518TIP3   OH2 4559   4.634   5.556   2.335
 1518TIP3    H1 4560   4.633   5.542   2.429
 1518TIP3    H2 4561   4.664   5.473   2.298
 1519TIP3   OH2 4562   1.482   5.218   3.002
 1519TIP3    H1 4563   1.443   5.277   2.938
 1519TIP3    H2 4564   1.524   5.150   2.950
 1520TIP3   OH2 4565   2.887   4.628   4.195
 1520TIP3    H1 4566   2.814   4.641   4.255
 1520TIP3    H2 4567   2.948   4.700   4.215
 1521TIP3   OH2 4568   1.697   0.535   5.086
 1521TIP3    H1 4569   1.627   0.469   5.087
 1521TIP3    H2 4570   1.692   0.574   4.999
 1522TIP3   OH2 4571   0.885   0.136   0.723
 1522TIP3    H1 4572   0.805   0.171   0.685
 1522TIP3    H2 4573   0.955   0.192   0.690
 1523TIP3   OH2 4574   0.299   2.417   5.172
 1523TIP3    H1 4575   0.301   2.368   5.090
 1523TIP3    H2 4576   0.216   2.466   5.169
 1524TIP3   OH2 4577   5.018   1.554   1.908
 1524TIP3    H1 4578   5.074   1.579   1.981
 1524TIP3    H2 4579   4.987   1.637   1.872
 1525TIP3   OH2 4580   0.226   4.602   1.102
 1525TIP3    H1 4581   0.209   4.540   1.032
 1525TIP3    H2 4582   0.228   4.687   1.058
 1526TIP3   OH2 4583   5.501   1.395   1.467
 1526TIP3    H1 4584   5.489   1.301   1.455
 1526TIP3    H2 4585   5.583   1.414   1.420
 1527TIP3   OH2 4586   2.131   0.235   0.547
 1527TIP3    H1 4587   2.064   0.272   0.604
 1527TIP3    H2 4588   2.201   0.207   0.607
 1528TIP3   OH2 4589   5.779   0.124   1.135
 1528TIP3    H1 4590   5.839   0.172   1.193
 1528TIP3    H2 4591   5.801   0.032   1.150
 1529TIP3   OH2 4592   0.399   4.387   4.674
 1529TIP3    H1 4593   0.315   4.420   4.639
 1529TIP3    H2 4594   0.378   4.300   4.707
 1530TIP3   OH2 4595   3.334   4.154   2.838
 1530TIP3    H1 4596   3.381   4.237   2.846
 1530TIP3    H2 4597   3.299   4.154   2.749
 1531TIP3   OH2 4598   5.705   2.037   4.399
 1531TIP3    H1 4599   5.729   2.127   4.378
 1531TIP3    H2 4600   5.613   2.042   4.424
 1532TIP3   OH2 4601   2.280   3.995   1.261
 1532TIP3    H1 4602   2.299   4.070   1.316
 1532TIP3    H2 4603   2.286   3.919   1.319
 1533TIP3   OH2 4604  -0.048   0.659   1.248
 1533TIP3    H1 4605   0.028   0.649   1.305
 1533TIP3    H2 4606  -0.105   0.721   1.295
 1534TIP3   OH2 4607   5.102   5.869   3.433
 1534TIP3    H1 4608   5.167   5.799   3.439
 1534TIP3    H2 4609   5.071   5.880   3.522
 1535TIP3   OH2 4610   5.313   0.688   0.281
 1535TIP3    H1 4611   5.377   0.666   0.214
 1535TIP3    H2 4612   5.242   0.625   0.268
 1536TIP3   OH2 4613   1.729   0.179   5.052
 1536TIP3    H1 4614   1.787   0.243   5.092
 1536TIP3    H2 4615   1.787   0.117   5.008
 1537TIP3   OH2 4616   0.823   4.284   4.328
 1537TIP3    H1 4617   0.814   4.237   4.411
 1537TIP3    H2 4618   0.906   4.331   4.337
 1538TIP3   OH2 4619   0.385   0.181   4.637
 1538TIP3    H1 4620   0.445   0.108   4.620
 1538TIP3    H2 4621   0.414   0.250   4.577
 1539TIP3   OH2 4622   3.558   1.174   3.901
 1539TIP3    H1 4623   3.514   1.207   3.823
 1539TIP3    H2 4624   3.524   1.085   3.912
 1540TIP3   OH2 4625   1.978   0.108   3.369
 1540TIP3    H1 4626   1.972   0.013   3.374
 1540TIP3    H2 4627   2.012   0.125   3.281
 1541TIP3   OH2 4628   2.235   5.122   0.740
 1541TIP3    H1 4629   2.145   5.131   0.773
 1541TIP3    H2 4630   2.225   5.120   0.644
 1542TIP3   OH2 4631   0.492   5.482   2.335
 1542TIP3    H1 4632   0.463   5.543   2.402
 1542TIP3    H2 4633   0.552   5.532   2.280
 1543TIP3   OH2 4634   5.744   4.905   0.486
 1543TIP3    H1 4635   5.757   4.902   0.391
 1543TIP3    H2 4636   5.655   4.938   0.497
 1544TIP3   OH2 4637   0.104   2.525   0.325
 1544TIP3    H1 4638   0.152   2.564   0.398
 1544TIP3    H2 4639   0.161   2.538   0.249
 1545TIP3   OH2 4640   2.242   0.377   0.056
 1545TIP3    H1 4641   2.211   0.321   0.127
 1545TIP3    H2 4642   2.288   0.448   0.100
 1546TIP3   OH2 4643   3.277   1.788   4.810
 1546TIP3    H1 4644   3.212   1.737   4.762
 1546TIP3    H2 4645   3.261   1.766   4.902
 1547TIP3   OH2 4646   5.996   2.177   1.611
 1547TIP3    H1 4647   5.923   2.127   1.646
 1547TIP3    H2 4648   6.074   2.130   1.640
 1548TIP3   OH2 4649   1.722   2.405   2.803
 1548TIP3    H1 4650   1.690   2.321   2.770
 1548TIP3    H2 4651   1.740   2.389   2.896
 1549TIP3   OH2 4652   5.081   2.076   2.423
 1549TIP3    H1 4653   5.028   2.107   2.350
 1549TIP3    H2 4654   5.047   2.125   2.499
 1550TIP3   OH2 4655   4.359   0.886   3.068
 1550TIP3    H1 4656   4.367   0.854   3.157
 1550TIP3    H2 4657   4.327   0.975   3.077
 1551TIP3   OH2 4658   1.543   5.494   1.359
 1551TIP3    H1 4659   1.611   5.560   1.372
 1551TIP3    H2 4660   1.500   5.519   1.277
 1552TIP3   OH2 4661   2.601   2.295   3.425
 1552TIP3    H1 4662   2.603   2.211   3.470
 1552TIP3    H2 4663   2.562   2.276   3.340
 1553TIP3   OH2 4664   1.996   5.423   3.642
 1553TIP3    H1 4665   1.956   5.510   3.639
 1553TIP3    H2 4666   2.016   5.408   3.734
 1554TIP3   OH2 4667   3.198   0.224   2.649
 1554TIP3    H1 4668   3.232   0.258   2.732
 1554TIP3    H2 4669   3.254   0.264   2.583
 1555TIP3   OH2 4670   4.321   2.325   2.893
 1555TIP3    H1 4671   4.347   2.373   2.972
 1555TIP3    H2 4672   4.404   2.299   2.853
 1556TIP3   OH2 4673   4.730   5.041   2.795
 1556TIP3    H1 4674   4.732   4.967   2.855
 1556TIP3    H2 4675   4.782   5.012   2.720
 1557TIP3   OH2 4676   2.364   4.628   3.851
 1557TIP3    H1 4677   2.385   4.535   3.844
 1557TIP3    H2 4678   2.334   4.639   3.941
 1558TIP3   OH2 4679   1.812   0.718   3.537
 1558TIP3    H1 4680   1.838   0.627   3.532
 1558TIP3    H2 4681   1.721   0.719   3.507
 1559TIP3   OH2 4682   2.324   0.502   2.793
 1559TIP3    H1 4683   2.327   0.407   2.804
 1559TIP3    H2 4684   2.257   0.531   2.856
 1560TIP3   OH2 4685   0.972   5.603   3.487
 1560TIP3    H1 4686   1.060   5.633   3.508
 1560TIP3    H2 4687   0.915   5.652   3.546
 1561TIP3   OH2 4688   0.878   2.590   1.164
 1561TIP3    H1 4689   0.891   2.656   1.233
 1561TIP3    H2 4690   0.964   2.581   1.123
 1562TIP3   OH2 4691   4.870   2.194   2.225
 1562TIP3    H1 4692   4.921   2.257   2.175
 1562TIP3    H2 4693   4.813   2.153   2.161
 1563TIP3   OH2 4694   6.264   3.172   3.903
 1563TIP3    H1 4695   6.326   3.140   3.838
 1563TIP3    H2 4696   6.179   3.137   3.874
 1564TIP3   OH2 4697   3.388   3.103   2.401
 1564TIP3    H1 4698   3.433   3.183   2.373
 1564TIP3    H2 4699   3.319   3.133   2.460
 1565TIP3   OH2 4700   6.195   1.941   1.382
 1565TIP3    H1 4701   6.244   1.881   1.439
 1565TIP3    H2 4702   6.105   1.910   1.386
 1566TIP3   OH2 4703   5.422   1.640   3.388
 1566TIP3    H1 4704   5.357   1.700   3.424
 1566TIP3    H2 4705   5.377   1.556   3.385
 1567TIP3   OH2 4706   5.232   0.302   4.469
 1567TIP3    H1 4707   5.182   0.346   4.400
 1567TIP3    H2 4708   5.250   0.371   4.533
 1568TIP3   OH2 4709   0.781   0.052   4.046
 1568TIP3    H1 4710   0.695   0.093   4.048
 1568TIP3    H2 4711   0.765  -0.037   4.016
 1569TIP3   OH2 4712   2.060   3.657   2.670
 1569TIP3    H1 4713   2.095   3.745   2.661
 1569TIP3    H2 4714   2.137   3.602   2.686
 1570TIP3   OH2 4715   3.065   0.599   4.801
 1570TIP3    H1 4716   3.023   0.639   4.878
 1570TIP3    H2 4717   3.136   0.659   4.779
 1571TIP3   OH2 4718   5.938   0.048   2.617
 1571TIP3    H1 4719   5.856   0.031   2.571
 1571TIP3    H2 4720   5.938  -0.013   2.690
 1572TIP3   OH2 4721   3.535   4.672   3.926
 1572TIP3    H1 4722   3.501   4.652   3.839
 1572TIP3    H2 4723   3.566   4.588   3.960
 1573TIP3   OH2 4724   1.038   3.309   0.487
 1573TIP3    H1 4725   1.028   3.246   0.557
 1573TIP3    H2 4726   1.128   3.296   0.455
 1574TIP3   OH2 4727   0.944   3.565   5.060
 1574TIP3    H1 4728   0.867   3.539   5.110
 1574TIP3    H2 4729   0.911   3.581   4.972
 1575TIP3   OH2 4730   4.245   5.389   5.019
 1575TIP3    H1 4731   4.259   5.421   5.108
 1575TIP3    H2 4732   4.192   5.457   4.977
 1576TIP3   OH2 4733   4.970   1.026   1.120
 1576TIP3    H1 4734   4.880   1.061   1.120
 1576TIP3    H2 4735   5.021   1.095   1.077
 1577TIP3   OH2 4736   0.673   3.797   1.516
 1577TIP3    H1 4737   0.727   3.759   1.446
 1577TIP3    H2 4738   0.704   3.754   1.595
 1578TIP3   OH2 4739   2.901   2.129   3.427
 1578TIP3    H1 4740   2.853   2.081   3.360
 1578TIP3    H2 4741   2.969   2.068   3.457
 1579TIP3   OH2 4742   1.571   0.155   2.422
 1579TIP3    H1 4743   1.629   0.099   2.371
 1579TIP3    H2 4744   1.543   0.223   2.361
 1580TIP3   OH2 4745   0.741   5.269   0.390
 1580TIP3    H1 4746   0.753   5.270   0.485
 1580TIP3    H2 4747   0.647   5.278   0.378
 1581TIP3   OH2 4748   0.055   0.865   3.819
 1581TIP3    H1 4749   0.121   0.826   3.877
 1581TIP3    H2 4750   0.059   0.812   3.740
 1582TIP3   OH2 4751   1.137   0.947   4.771
 1582TIP3    H1 4752   1.062   0.961   4.713
 1582TIP3    H2 4753   1.113   0.992   4.852
 1583TIP3   OH2 4754   2.007   2.771   0.128
 1583TIP3    H1 4755   2.040   2.695   0.176
 1583TIP3    H2 4756   1.962   2.823   0.195
 1584TIP3   OH2 4757   1.947   4.540   2.130
 1584TIP3    H1 4758   1.999   4.469   2.093
 1584TIP3    H2 4759   1.873   4.497   2.174
 1585TIP3   OH2 4760   5.570   2.031   2.249
 1585TIP3    H1 4761   5.485   1.989   2.235
 1585TIP3    H2 4762   5.560   2.081   2.330
 1586TIP3   OH2 4763   5.303   3.723   2.008
 1586TIP3    H1 4764   5.243   3.795   1.988
 1586TIP3    H2 4765   5.370   3.763   2.063
 1587TIP3   OH2 4766   4.578   1.546   3.516
 1587TIP3    H1 4767   4.547   1.584   3.434
 1587TIP3    H2 4768   4.673   1.544   3.507
 1588TIP3   OH2 4769   1.001   2.749   1.344
 1588TIP3    H1 4770   1.091   2.718   1.336
 1588TIP3    H2 4771   1.002   2.807   1.420
 1589TIP3   OH2 4772   1.100   5.709   0.101
 1589TIP3    H1 4773   1.008   5.699   0.076
 1589TIP3    H2 4774   1.131   5.785   0.050
 1590TIP3   OH2 4775   5.525   2.121   3.081
 1590TIP3    H1 4776   5.481   2.043   3.114
 1590TIP3    H2 4777   5.552   2.168   3.161
 1591TIP3   OH2 4778   2.037   3.979   3.110
 1591TIP3    H1 4779   2.095   3.970   3.185
 1591TIP3    H2 4780   2.060   3.906   3.053
 1592TIP3   OH2 4781   4.930   4.945   3.913
 1592TIP3    H1 4782   4.964   4.898   3.837
 1592TIP3    H2 4783   4.998   4.935   3.979
 1593TIP3   OH2 4784   2.955   0.872   2.687
 1593TIP3    H1 4785   2.934   0.896   2.778
 1593TIP3    H2 4786   3.051   0.876   2.683
 1594TIP3   OH2 4787   4.660   2.399   0.719
 1594TIP3    H1 4788   4.598   2.437   0.781
 1594TIP3    H2 4789   4.714   2.473   0.691
 1595TIP3   OH2 4790   1.046   0.407   5.087
 1595TIP3    H1 4791   0.964   0.456   5.080
 1595TIP3    H2 4792   1.068   0.411   5.180
 1596TIP3   OH2 4793   2.332   0.053   3.422
 1596TIP3    H1 4794   2.320  -0.002   3.345
 1596TIP3    H2 4795   2.418   0.095   3.408
 1597TIP3   OH2 4796   5.667   0.540   1.829
 1597TIP3    H1 4797   5.649   0.540   1.923
 1597TIP3    H2 4798   5.751   0.494   1.821
 1598TIP3   OH2 4799   1.230   2.352   1.675
 1598TIP3    H1 4800   1.244   2.270   1.627
 1598TIP3    H2 4801   1.264   2.420   1.616
 1599TIP3   OH2 4802   2.943   1.342   4.428
 1599TIP3    H1 4803   2.929   1.272   4.364
 1599TIP3    H2 4804   3.027   1.322   4.468
 1600TIP3   OH2 4805   3.941   1.662   4.123
 1600TIP3    H1 4806   3.890   1.693   4.049
 1600TIP3    H2 4807   3.887   1.683   4.200
 1601TIP3   OH2 4808   4.980   0.634   1.421
 1601TIP3    H1 4809   4.889   0.628   1.447
 1601TIP3    H2 4810   4.995   0.727   1.405
 1602TIP3   OH2 4811   5.801   3.074   0.549
 1602TIP3    H1 4812   5.730   3.116   0.501
 1602TIP3    H2 4813   5.760   2.997   0.589
 1603TIP3   OH2 4814   5.942   2.264   1.079
 1603TIP3    H1 4815   5.887   2.192   1.111
 1603TIP3    H2 4816   5.976   2.305   1.158
 1604TIP3   OH2 4817   4.905   5.100   1.440
 1604TIP3    H1 4818   4.861   5.156   1.376
 1604TIP3    H2 4819   4.951   5.160   1.498
 1605TIP3   OH2 4820   3.041   1.409   2.134
 1605TIP3    H1 4821   3.134   1.394   2.118
 1605TIP3    H2 4822   3.017   1.479   2.073
 1606TIP3   OH2 4823   4.846   0.798   3.711
 1606TIP3    H1 4824   4.938   0.789   3.736
 1606TIP3    H2 4825   4.827   0.719   3.661
 1607TIP3   OH2 4826   0.034   2.405   2.663
 1607TIP3    H1 4827   0.091   2.340   2.620
 1607TIP3    H2 4828   0.010   2.365   2.746
 1608TIP3   OH2 4829   6.263   1.698   2.966
 1608TIP3    H1 4830   6.349   1.735   2.984
 1608TIP3    H2 4831   6.274   1.604   2.983
 1609TIP3   OH2 4832   1.511   0.971   2.589
 1609TIP3    H1 4833   1.459   0.892   2.575
 1609TIP3    H2 4834   1.593   0.955   2.542
 1610TIP3   OH2 4835   5.063   2.661   4.677
 1610TIP3    H1 4836   5.012   2.729   4.633
 1610TIP3    H2 4837   5.106   2.706   4.750
 1611TIP3   OH2 4838   3.873   5.542   4.142
 1611TIP3    H1 4839   3.936   5.551   4.070
 1611TIP3    H2 4840   3.818   5.620   4.136
 1612TIP3   OH2 4841   3.566   3.165   1.570
 1612TIP3    H1 4842   3.547   3.227   1.640
 1612TIP3    H2 4843   3.612   3.093   1.615
 1613TIP3   OH2 4844   6.342   0.656   1.534
 1613TIP3    H1 4845   6.371   0.658   1.625
 1613TIP3    H2 4846   6.247   0.671   1.539
 1614TIP3   OH2 4847   2.780   2.483   3.508
 1614TIP3    H1 4848   2.767   2.502   3.601
 1614TIP3    H2 4849   2.743   2.396   3.496
 1615TIP3   OH2 4850   4.734   1.110   4.301
 1615TIP3    H1 4851   4.728   1.046   4.230
 1615TIP3    H2 4852   4.805   1.077   4.357
 1616TIP3   OH2 4853   6.275   4.121   2.750
 1616TIP3    H1 4854   6.334   4.079   2.686
 1616TIP3    H2 4855   6.223   4.049   2.785
 1617TIP3   OH2 4856   3.619   2.153   4.526
 1617TIP3    H1 4857   3.651   2.237   4.560
 1617TIP3    H2 4858   3.692   2.093   4.537
 1618TIP3   OH2 4859   3.573   5.086   3.255
 1618TIP3    H1 4860   3.577   5.001   3.210
 1618TIP3    H2 4861   3.629   5.143   3.203
 1619TIP3   OH2 4862   3.414   3.756   2.742
 1619TIP3    H1 4863   3.426   3.785   2.652
 1619TIP3    H2 4864   3.476   3.684   2.753
 1620TIP3   OH2 4865   6.260   2.116   1.680
 1620TIP3    H1 4866   6.257   2.085   1.771
 1620TIP3    H2 4867   6.337   2.074   1.643
 1621TIP3   OH2 4868   0.588   2.563   4.995
 1621TIP3    H1 4869   0.543   2.562   5.080
 1621TIP3    H2 4870   0.590   2.655   4.970
 1622TIP3   OH2 4871   1.607   3.228   1.723
 1622TIP3    H1 4872   1.671   3.270   1.780
 1622TIP3    H2 4873   1.608   3.280   1.643
 1623TIP3   OH2 4874   1.743   4.638   4.510
 1623TIP3    H1 4875   1.698   4.716   4.479
 1623TIP3    H2 4876   1.796   4.668   4.584
 1624TIP3   OH2 4877   4.154   0.305   0.746
 1624TIP3    H1 4878   4.141   0.210   0.739
 1624TIP3    H2 4879   4.249   0.315   0.758
 1625TIP3   OH2 4880   1.485   4.506   1.765
 1625TIP3    H1 4881   1.403   4.554   1.759
 1625TIP3    H2 4882   1.521   4.530   1.850
 1626TIP3   OH2 4883   5.611   1.006   4.627
 1626TIP3    H1 4884   5.638   0.998   4.536
 1626TIP3    H2 4885   5.556   1.084   4.629
 1627TIP3   OH2 4886   0.193   0.162   1.212
 1627TIP3    H1 4887   0.233   0.242   1.179
 1627TIP3    H2 4888   0.107   0.159   1.169
 1628TIP3   OH2 4889   5.559   0.122   2.409
 1628TIP3    H1 4890   5.489   0.076   2.364
 1628TIP3    H2 4891   5.565   0.206   2.364
 1629TIP3   OH2 4892   4.258   4.911   3.847
 1629TIP3    H1 4893   4.206   4.879   3.773
 1629TIP3    H2 4894   4.206   4.983   3.883
 1630TIP3   OH2 4895   4.504   2.720   2.035
 1630TIP3    H1 4896   4.544   2.715   2.122
 1630TIP3    H2 4897   4.568   2.680   1.977
 1631TIP3   OH2 4898   5.976   5.420   1.125
 1631TIP3    H1 4899   6.066   5.390   1.113
 1631TIP3    H2 4900   5.945   5.371   1.202
 1632TIP3   OH2 4901   1.381   5.577   2.824
 1632TIP3    H1 4902   1.471   5.611   2.824
 1632TIP3    H2 4903   1.366   5.551   2.915
 1633TIP3   OH2 4904   3.917   3.679   2.968
 1633TIP3    H1 4905   3.886   3.765   2.940
 1633TIP3    H2 4906   3.970   3.697   3.046
 1634TIP3   OH2 4907   4.179   2.584   4.691
 1634TIP3    H1 4908   4.273   2.576   4.709
 1634TIP3    H2 4909   4.140   2.505   4.728
 1635TIP3   OH2 4910   6.147   5.352   1.359
 1635TIP3    H1 4911   6.112   5.329   1.445
 1635TIP3    H2 4912   6.126   5.445   1.350
 1636TIP3   OH2 4913   1.653   3.209   0.395
 1636TIP3    H1 4914   1.569   3.245   0.366
 1636TIP3    H2 4915   1.633   3.117   0.414
 1637TIP3   OH2 4916   4.355   4.200   1.964
 1637TIP3    H1 4917   4.347   4.277   2.019
 1637TIP3    H2 4918   4.413   4.227   1.893
 1638TIP3   OH2 4919   1.305   1.500   3.449
 1638TIP3    H1 4920   1.271   1.576   3.403
 1638TIP3    H2 4921   1.346   1.537   3.528
 1639TIP3   OH2 4922   5.781   5.220   1.688
 1639TIP3    H1 4923   5.750   5.136   1.654
 1639TIP3    H2 4924   5.745   5.225   1.777
 1640TIP3   OH2 4925   6.169   3.386   0.132
 1640TIP3    H1 4926   6.144   3.397   0.040
 1640TIP3    H2 4927   6.248   3.332   0.128
 1641TIP3   OH2 4928   5.606   0.153   3.476
 1641TIP3    H1 4929   5.592   0.217   3.546
 1641TIP3    H2 4930   5.677   0.190   3.424
 1642TIP3   OH2 4931   4.259   2.951   0.891
 1642TIP3    H1 4932   4.256   3.024   0.953
 1642TIP3    H2 4933   4.328   2.893   0.925
 1643TIP3   OH2 4934   5.703   3.725   3.185
 1643TIP3    H1 4935   5.709   3.815   3.154
 1643TIP3    H2 4936   5.793   3.701   3.207
 1644TIP3   OH2 4937   2.038   0.899   3.392
 1644TIP3    H1 4938   2.051   0.810   3.426
 1644TIP3    H2 4939   1.993   0.945   3.463
 1645TIP3   OH2 4940   6.161   4.958   2.799
 1645TIP3    H1 4941   6.202   5.031   2.847
 1645TIP3    H2 4942   6.084   4.936   2.851
 1646TIP3   OH2 4943   1.743   0.149   2.787
 1646TIP3    H1 4944   1.653   0.159   2.818
 1646TIP3    H2 4945   1.764   0.057   2.801
 1647TIP3   OH2 4946   1.417   3.077   4.228
 1647TIP3    H1 4947   1.336   3.128   4.219
 1647TIP3    H2 4948   1.388   2.995   4.268
 1648TIP3   OH2 4949   4.734   0.595   1.519
 1648TIP3    H1 4950   4.675   0.557   1.453
 1648TIP3    H2 4951   4.763   0.520   1.570
 1649TIP3   OH2 4952   0.184   4.855   2.660
 1649TIP3    H1 4953   0.186   4.782   2.722
 1649TIP3    H2 4954   0.265   4.847   2.609
 1650TIP3   OH2 4955   4.089   4.859   4.513
 1650TIP3    H1 4956   4.032   4.844   4.437
 1650TIP3    H2 4957   4.029   4.888   4.582
 1651TIP3   OH2 4958   3.371   3.524   3.379
 1651TIP3    H1 4959   3.437   3.528   3.311
 1651TIP3    H2 4960   3.418   3.495   3.457
 1652TIP3   OH2 4961   4.811   3.619   3.577
 1652TIP3    H1 4962   4.826   3.705   3.538
 1652TIP3    H2 4963   4.720   3.621   3.607
 1653TIP3   OH2 4964   3.176   4.163   2.269
 1653TIP3    H1 4965   3.163   4.092   2.331
 1653TIP3    H2 4966   3.201   4.238   2.322
 1654TIP3   OH2 4967   1.920   5.548   3.305
 1654TIP3    H1 4968   1.993   5.523   3.362
 1654TIP3    H2 4969   1.841   5.530   3.356
 1655TIP3   OH2 4970   4.082   2.430   2.661
 1655TIP3    H1 4971   4.083   2.464   2.750
 1655TIP3    H2 4972   4.173   2.410   2.641
 1656TIP3   OH2 4973   6.236   1.594   4.849
 1656TIP3    H1 4974   6.275   1.508   4.865
 1656TIP3    H2 4975   6.187   1.584   4.768
 1657TIP3   OH2 4976   1.433   2.169   4.258
 1657TIP3    H1 4977   1.409   2.101   4.196
 1657TIP3    H2 4978   1.501   2.129   4.312
 1658TIP3   OH2 4979   2.675   3.835   2.128
 1658TIP3    H1 4980   2.658   3.812   2.219
 1658TIP3    H2 4981   2.722   3.919   2.132
 1659TIP3   OH2 4982   2.485   2.877   3.940
 1659TIP3    H1 4983   2.502   2.814   3.870
 1659TIP3    H2 4984   2.462   2.822   4.015
 1660TIP3   OH2 4985   3.194   2.401   2.917
 1660TIP3    H1 4986   3.222   2.437   3.001
 1660TIP3    H2 4987   3.272   2.356   2.883
 1661TIP3   OH2 4988   2.829   0.285   2.674
 1661TIP3    H1 4989   2.785   0.229   2.738
 1661TIP3    H2 4990   2.880   0.346   2.727
 1662TIP3   OH2 4991   2.795   3.173   2.385
 1662TIP3    H1 4992   2.806   3.225   2.464
 1662TIP3    H2 4993   2.806   3.236   2.313
 1663TIP3   OH2 4994   1.532   5.159   4.280
 1663TIP3    H1 4995   1.529   5.179   4.373
 1663TIP3    H2 4996   1.446   5.186   4.247
 1664TIP3   OH2 4997   5.729   1.027   4.375
 1664TIP3    H1 4998   5.743   1.059   4.286
 1664TIP3    H2 4999   5.763   1.097   4.431
 1665TIP3   OH2 5000   1.124   4.393   1.221
 1665TIP3    H1 5001   1.089   4.470   1.174
 1665TIP3    H2 5002   1.055   4.371   1.284
 1666TIP3   OH2 5003   2.091   4.738   1.977
 1666TIP3    H1 5004   2.053   4.664   2.025
 1666TIP3    H2 5005   2.040   4.814   2.005
 1667TIP3   OH2 5006   4.617   2.666   1.105
 1667TIP3    H1 5007   4.579   2.645   1.190
 1667TIP3    H2 5008   4.710   2.644   1.114
 1668TIP3   OH2 5009   1.702   1.266   1.755
 1668TIP3    H1 5010   1.615   1.257   1.793
 1668TIP3    H2 5011   1.760   1.279   1.829
 1669TIP3   OH2 5012   1.882   1.426   2.235
 1669TIP3    H1 5013   1.796   1.465   2.255
 1669TIP3    H2 5014   1.921   1.407   2.320
 1670TIP3   OH2 5015   0.636   0.206   3.332
 1670TIP3    H1 5016   0.704   0.214   3.399
 1670TIP3    H2 5017   0.644   0.285   3.279
 1671TIP3   OH2 5018   5.732   5.879   2.674
 1671TIP3    H1 5019   5.747   5.822   2.750
 1671TIP3    H2 5020   5.740   5.821   2.598
 1672TIP3   OH2 5021   5.224   2.113   3.432
 1672TIP3    H1 5022   5.249   2.134   3.342
 1672TIP3    H2 5023   5.135   2.148   3.441
 1673TIP3   OH2 5024   3.481   2.372   0.770
 1673TIP3    H1 5025   3.449   2.436   0.833
 1673TIP3    H2 5026   3.454   2.406   0.685
 1674TIP3   OH2 5027   3.987   2.147   0.164
 1674TIP3    H1 5028   4.007   2.112   0.251
 1674TIP3    H2 5029   4.018   2.237   0.166
 1675TIP3   OH2 5030   5.738   2.930   0.207
 1675TIP3    H1 5031   5.705   2.910   0.120
 1675TIP3    H2 5032   5.831   2.908   0.203
 1676TIP3   OH2 5033   1.640   4.776   2.315
 1676TIP3    H1 5034   1.691   4.697   2.336
 1676TIP3    H2 5035   1.704   4.847   2.317
 1677TIP3   OH2 5036   1.711   3.612   1.674
 1677TIP3    H1 5037   1.704   3.687   1.615
 1677TIP3    H2 5038   1.746   3.649   1.755
 1678TIP3   OH2 5039   1.958   3.096   1.837
 1678TIP3    H1 5040   1.928   3.184   1.859
 1678TIP3    H2 5041   1.980   3.101   1.744
 1679TIP3   OH2 5042   4.485   1.450   0.523
 1679TIP3    H1 5043   4.392   1.431   0.536
 1679TIP3    H2 5044   4.487   1.538   0.486
 1680TIP3   OH2 5045   5.758   0.109   4.387
 1680TIP3    H1 5046   5.751   0.075   4.298
 1680TIP3    H2 5047   5.737   0.202   4.380
 1681TIP3   OH2 5048   0.986   3.357   1.403
 1681TIP3    H1 5049   0.904   3.383   1.446
 1681TIP3    H2 5050   0.959   3.297   1.334
 1682TIP3   OH2 5051   4.390   2.395   3.942
 1682TIP3    H1 5052   4.304   2.359   3.918
 1682TIP3    H2 5053   4.371   2.481   3.979
 1683TIP3   OH2 5054   5.163   3.274   4.384
 1683TIP3    H1 5055   5.233   3.340   4.383
 1683TIP3    H2 5056   5.142   3.261   4.291
 1684TIP3   OH2 5057   3.972   3.191   0.437
 1684TIP3    H1 5058   4.039   3.213   0.503
 1684TIP3    H2 5059   3.927   3.274   0.421
 1685TIP3   OH2 5060   1.147   2.684   0.192
 1685TIP3    H1 5061   1.207   2.752   0.223
 1685TIP3    H2 5062   1.132   2.628   0.268
 1686TIP3   OH2 5063   3.495   3.279   1.819
 1686TIP3    H1 5064   3.407   3.296   1.855
 1686TIP3    H2 5065   3.536   3.366   1.816
 1687TIP3   OH2 5066   5.031   3.093   4.925
 1687TIP3    H1 5067   5.029   3.121   5.016
 1687TIP3    H2 5068   4.954   3.134   4.886
 1688TIP3   OH2 5069   6.132   1.881   4.988
 1688TIP3    H1 5070   6.084   1.871   4.906
 1688TIP3    H2 5071   6.064   1.885   5.055
 1689TIP3   OH2 5072   6.070   1.567   2.074
 1689TIP3    H1 5073   6.156   1.582   2.114
 1689TIP3    H2 5074   6.036   1.654   2.058
 1690TIP3   OH2 5075   3.942   5.137   3.691
 1690TIP3    H1 5076   3.997   5.117   3.767
 1690TIP3    H2 5077   4.002   5.173   3.626
 1691TIP3   OH2 5078   1.798   4.266   4.134
 1691TIP3    H1 5079   1.842   4.185   4.162
 1691TIP3    H2 5080   1.825   4.332   4.198
 1692TIP3   OH2 5081   1.014   5.328   3.135
 1692TIP3    H1 5082   0.945   5.286   3.084
 1692TIP3    H2 5083   1.041   5.404   3.083
 1693TIP3   OH2 5084   5.068   3.658   0.736
 1693TIP3    H1 5085   5.030   3.745   0.723
 1693TIP3    H2 5086   5.015   3.619   0.805
 1694TIP3   OH2 5087   5.730   3.917   4.734
 1694TIP3    H1 5088   5.667   3.896   4.803
 1694TIP3    H2 5089   5.778   3.835   4.719
 1695TIP3   OH2 5090   4.005   2.682   1.882
 1695TIP3    H1 5091   3.981   2.768   1.847
 1695TIP3    H2 5092   3.921   2.641   1.904
 1696TIP3   OH2 5093   1.794   1.959   2.427
 1696TIP3    H1 5094   1.701   1.937   2.421
 1696TIP3    H2 5095   1.802   2.006   2.510
 1697TIP3   OH2 5096   0.728   2.640   1.453
 1697TIP3    H1 5097   0.772   2.639   1.537
 1697TIP3    H2 5098   0.799   2.633   1.388
 1698TIP3   OH2 5099   0.861   5.395   1.649
 1698TIP3    H1 5100   0.932   5.414   1.710
 1698TIP3    H2 5101   0.781   5.417   1.697
 1699TIP3   OH2 5102   3.716   1.563   4.626
 1699TIP3    H1 5103   3.715   1.619   4.703
 1699TIP3    H2 5104   3.710   1.474   4.661
 1700TIP3   OH2 5105   3.940   0.304   4.786
 1700TIP3    H1 5106   3.992   0.306   4.867
 1700TIP3    H2 5107   3.885   0.227   4.795
 1701TIP3   OH2 5108   1.569   3.741   4.812
 1701TIP3    H1 5109   1.607   3.653   4.819
 1701TIP3    H2 5110   1.606   3.789   4.886
 1702TIP3   OH2 5111   1.454   1.858   4.636
 1702TIP3    H1 5112   1.376   1.870   4.690
 1702TIP3    H2 5113   1.419   1.839   4.549
 1703TIP3   OH2 5114   2.295   1.488   3.493
 1703TIP3    H1 5115   2.290   1.571   3.446
 1703TIP3    H2 5116   2.227   1.434   3.455
 1704TIP3   OH2 5117   5.168   4.717   5.148
 1704TIP3    H1 5118   5.249   4.768   5.150
 1704TIP3    H2 5119   5.134   4.731   5.060
 1705TIP3   OH2 5120   0.221   4.808   0.641
 1705TIP3    H1 5121   0.249   4.736   0.584
 1705TIP3    H2 5122   0.130   4.825   0.616
 1706TIP3   OH2 5123   1.231   2.346   4.820
 1706TIP3    H1 5124   1.292   2.370   4.749
 1706TIP3    H2 5125   1.212   2.254   4.805
 1707TIP3   OH2 5126   0.264   1.884   2.328
 1707TIP3    H1 5127   0.310   1.811   2.370
 1707TIP3    H2 5128   0.297   1.962   2.373
 1708TIP3   OH2 5129   2.513   1.191   2.286
 1708TIP3    H1 5130   2.582   1.129   2.309
 1708TIP3    H2 5131   2.560   1.270   2.256
 1709TIP3   OH2 5132   2.819   0.494   2.962
 1709TIP3    H1 5133   2.899   0.487   2.911
 1709TIP3    H2 5134   2.751   0.513   2.897
 1710TIP3   OH2 5135   5.302   5.818   0.537
 1710TIP3    H1 5136   5.274   5.729   0.519
 1710TIP3    H2 5137   5.228   5.873   0.512
 1711TIP3   OH2 5138   3.959   5.626   0.844
 1711TIP3    H1 5139   4.016   5.676   0.786
 1711TIP3    H2 5140   4.007   5.620   0.927
 1712TIP3   OH2 5141   2.622   0.647   3.614
 1712TIP3    H1 5142   2.657   0.735   3.601
 1712TIP3    H2 5143   2.685   0.589   3.570
 1713TIP3   OH2 5144   3.597   1.885   0.476
 1713TIP3    H1 5145   3.573   1.917   0.563
 1713TIP3    H2 5146   3.573   1.956   0.417
 1714TIP3   OH2 5147   4.661   1.465   1.999
 1714TIP3    H1 5148   4.687   1.557   2.007
 1714TIP3    H2 5149   4.649   1.451   1.905
 1715TIP3   OH2 5150   1.248   3.158   3.019
 1715TIP3    H1 5151   1.336   3.191   3.000
 1715TIP3    H2 5152   1.240   3.079   2.966
 1716TIP3   OH2 5153   5.936   0.322   0.877
 1716TIP3    H1 5154   5.856   0.359   0.839
 1716TIP3    H2 5155   5.949   0.371   0.958
 1717TIP3   OH2 5156   0.255   3.793   2.496
 1717TIP3    H1 5157   0.234   3.700   2.487
 1717TIP3    H2 5158   0.346   3.800   2.469
 1718TIP3   OH2 5159   3.939   5.150   3.394
 1718TIP3    H1 5160   4.031   5.160   3.416
 1718TIP3    H2 5161   3.902   5.101   3.467
 1719TIP3   OH2 5162   3.739   0.173   3.094
 1719TIP3    H1 5163   3.769   0.220   3.172
 1719TIP3    H2 5164   3.787   0.215   3.022
 1720TIP3   OH2 5165   5.962   4.543   3.276
 1720TIP3    H1 5166   6.032   4.486   3.307
 1720TIP3    H2 5167   5.888   4.484   3.259
 1721TIP3   OH2 5168   6.280   0.421   0.446
 1721TIP3    H1 5169   6.228   0.431   0.366
 1721TIP3    H2 5170   6.225   0.457   0.515
 1722TIP3   OH2 5171   1.663   2.026   4.343
 1722TIP3    H1 5172   1.653   1.931   4.352
 1722TIP3    H2 5173   1.745   2.037   4.295
 1723TIP3   OH2 5174   3.866   1.705   4.429
 1723TIP3    H1 5175   3.825   1.654   4.499
 1723TIP3    H2 5176   3.805   1.777   4.414
 1724TIP3   OH2 5177   6.066   3.101   0.563
 1724TIP3    H1 5178   6.042   3.180   0.611
 1724TIP3    H2 5179   5.986   3.048   0.562
 1725TIP3   OH2 5180   5.022   1.275   2.931
 1725TIP3    H1 5181   5.062   1.226   2.859
 1725TIP3    H2 5182   4.995   1.207   2.993
 1726TIP3   OH2 5183   4.457   5.955   0.031
 1726TIP3    H1 5184   4.470   6.034   0.083
 1726TIP3    H2 5185   4.405   5.898   0.086
 1727TIP3   OH2 5186   0.592   0.615   2.703
 1727TIP3    H1 5187   0.517   0.579   2.749
 1727TIP3    H2 5188   0.654   0.542   2.697
 1728TIP3   OH2 5189   4.849   1.447   2.766
 1728TIP3    H1 5190   4.795   1.478   2.838
 1728TIP3    H2 5191   4.894   1.370   2.800
 1729TIP3   OH2 5192   2.029   1.843   2.394
 1729TIP3    H1 5193   1.943   1.884   2.402
 1729TIP3    H2 5194   2.061   1.872   2.308
 1730TIP3   OH2 5195   3.826   4.995   4.991
 1730TIP3    H1 5196   3.797   5.019   5.079
 1730TIP3    H2 5197   3.848   5.078   4.949
 1731TIP3   OH2 5198   2.409   2.888   2.102
 1731TIP3    H1 5199   2.381   2.927   2.185
 1731TIP3    H2 5200   2.327   2.878   2.053
 1732TIP3   OH2 5201   4.681   4.428   4.568
 1732TIP3    H1 5202   4.600   4.478   4.579
 1732TIP3    H2 5203   4.748   4.494   4.550
 1733TIP3   OH2 5204   6.177   3.658   5.020
 1733TIP3    H1 5205   6.086   3.684   5.035
 1733TIP3    H2 5206   6.227   3.738   5.035
 1734TIP3   OH2 5207   5.403   3.334   5.018
 1734TIP3    H1 5208   5.348   3.263   4.984
 1734TIP3    H2 5209   5.472   3.345   4.953
 1735TIP3   OH2 5210   1.257   3.283   3.470
 1735TIP3    H1 5211   1.284   3.218   3.534
 1735TIP3    H2 5212   1.277   3.367   3.511
 1736TIP3   OH2 5213   5.685   3.194   4.698
 1736TIP3    H1 5214   5.673   3.138   4.775
 1736TIP3    H2 5215   5.716   3.134   4.630
 1737TIP3   OH2 5216   0.037   2.328   4.022
 1737TIP3    H1 5217   0.098   2.277   4.075
 1737TIP3    H2 5218   0.022   2.274   3.944
 1738TIP3   OH2 5219   6.241   2.898   1.837
 1738TIP3    H1 5220   6.238   2.807   1.867
 1738TIP3    H2 5221   6.307   2.899   1.768
 1739TIP3   OH2 5222   2.923   1.068   1.818
 1739TIP3    H1 5223   2.963   1.079   1.904
 1739TIP3    H2 5224   2.846   1.014   1.834
 1740TIP3   OH2 5225   3.120   4.784   4.268
 1740TIP3    H1 5226   3.109   4.878   4.261
 1740TIP3    H2 5227   3.214   4.769   4.256
 1741TIP3   OH2 5228   1.998   2.854   2.958
 1741TIP3    H1 5229   2.011   2.944   2.930
 1741TIP3    H2 5230   1.905   2.848   2.978
 1742TIP3   OH2 5231   0.072   3.031   3.394
 1742TIP3    H1 5232   0.005   2.988   3.341
 1742TIP3    H2 5233   0.152   2.983   3.375
 1743TIP3   OH2 5234   1.356   5.357   1.503
 1743TIP3    H1 5235   1.336   5.405   1.583
 1743TIP3    H2 5236   1.415   5.414   1.453
 1744TIP3   OH2 5237   4.524   0.352   4.557
 1744TIP3    H1 5238   4.530   0.320   4.647
 1744TIP3    H2 5239   4.580   0.293   4.507
 1745TIP3   OH2 5240   2.908   1.767   1.500
 1745TIP3    H1 5241   2.947   1.710   1.434
 1745TIP3    H2 5242   2.966   1.844   1.502
 1746TIP3   OH2 5243   0.922   2.273   0.423
 1746TIP3    H1 5244   0.896   2.198   0.476
 1746TIP3    H2 5245   0.944   2.235   0.338
 1747TIP3   OH2 5246   6.302   3.843   3.270
 1747TIP3    H1 5247   6.355   3.866   3.194
 1747TIP3    H2 5248   6.283   3.926   3.312
 1748TIP3   OH2 5249   5.910   0.662   0.564
 1748TIP3    H1 5250   5.880   0.726   0.628
 1748TIP3    H2 5251   5.832   0.643   0.512
 1749TIP3   OH2 5252   2.791   4.053   3.405
 1749TIP3    H1 5253   2.741   4.132   3.385
 1749TIP3    H2 5254   2.834   4.074   3.488
 1750TIP3   OH2 5255   0.862   5.111   0.199
 1750TIP3    H1 5256   0.855   5.169   0.274
 1750TIP3    H2 5257   0.772   5.078   0.185
 1751TIP3   OH2 5258   2.000   4.934   2.591
 1751TIP3    H1 5259   2.015   5.020   2.629
 1751TIP3    H2 5260   2.085   4.891   2.592
 1752TIP3   OH2 5261   2.584   2.440   2.328
 1752TIP3    H1 5262   2.595   2.522   2.279
 1752TIP3    H2 5263   2.672   2.420   2.359
 1753TIP3   OH2 5264   0.686   5.368   3.309
 1753TIP3    H1 5265   0.648   5.285   3.339
 1753TIP3    H2 5266   0.769   5.374   3.356
 1754TIP3   OH2 5267   2.899   1.553   1.922
 1754TIP3    H1 5268   2.876   1.593   1.838
 1754TIP3    H2 5269   2.845   1.474   1.927
 1755TIP3   OH2 5270   5.415   5.017   1.912
 1755TIP3    H1 5271   5.455   4.962   1.979
 1755TIP3    H2 5272   5.363   4.956   1.860
 1756TIP3   OH2 5273   3.279   3.592   0.077
 1756TIP3    H1 5274   3.296   3.682   0.104
 1756TIP3    H2 5275   3.320   3.585  -0.010
 1757TIP3   OH2 5276   3.366   1.877   4.107
 1757TIP3    H1 5277   3.374   1.919   4.021
 1757TIP3    H2 5278   3.310   1.936   4.158
 1758TIP3   OH2 5279   1.409   0.336   1.015
 1758TIP3    H1 5280   1.369   0.300   0.936
 1758TIP3    H2 5281   1.484   0.387   0.982
 1759TIP3   OH2 5282   4.522   4.896   2.297
 1759TIP3    H1 5283   4.435   4.934   2.308
 1759TIP3    H2 5284   4.519   4.852   2.212
 1760TIP3   OH2 5285   1.379   3.671   2.836
 1760TIP3    H1 5286   1.386   3.713   2.922
 1760TIP3    H2 5287   1.429   3.728   2.777
 1761TIP3   OH2 5288   0.860   0.157   4.566
 1761TIP3    H1 5289   0.864   0.211   4.487
 1761TIP3    H2 5290   0.790   0.197   4.619
 1762TIP3   OH2 5291   2.203   5.163   2.517
 1762TIP3    H1 5292   2.297   5.175   2.526
 1762TIP3    H2 5293   2.193   5.071   2.494
 1763TIP3   OH2 5294   4.275   0.146   4.640
 1763TIP3    H1 5295   4.364   0.121   4.616
 1763TIP3    H2 5296   4.234   0.064   4.669
 1764TIP3   OH2 5297   1.159   3.424   4.639
 1764TIP3    H1 5298   1.097   3.497   4.640
 1764TIP3    H2 5299   1.245   3.465   4.627
 1765TIP3   OH2 5300   1.060   1.757   4.275
 1765TIP3    H1 5301   1.080   1.814   4.201
 1765TIP3    H2 5302   1.015   1.682   4.236
 1766TIP3   OH2 5303   3.713   3.322   4.986
 1766TIP3    H1 5304   3.711   3.415   5.007
 1766TIP3    H2 5305   3.662   3.314   4.906
 1767TIP3   OH2 5306   1.590   0.812   4.616
 1767TIP3    H1 5307   1.595   0.822   4.520
 1767TIP3    H2 5308   1.496   0.808   4.635
 1768TIP3   OH2 5309   4.367   4.714   4.020
 1768TIP3    H1 5310   4.313   4.782   3.979
 1768TIP3    H2 5311   4.457   4.740   3.999
 1769TIP3   OH2 5312   4.893   5.548   3.055
 1769TIP3    H1 5313   4.953   5.491   3.007
 1769TIP3    H2 5314   4.949   5.607   3.105
 1770TIP3   OH2 5315  -0.006   2.871   0.894
 1770TIP3    H1 5316  -0.014   2.782   0.860
 1770TIP3    H2 5317   0.087   2.890   0.890
 1771TIP3   OH2 5318   2.592   0.592   2.826
 1771TIP3    H1 5319   2.582   0.687   2.831
 1771TIP3    H2 5320   2.503   0.558   2.829
 1772TIP3   OH2 5321   5.118   1.222   0.989
 1772TIP3    H1 5322   5.203   1.252   1.019
 1772TIP3    H2 5323   5.084   1.295   0.936
 1773TIP3   OH2 5324   4.116   1.850   4.486
 1773TIP3    H1 5325   4.096   1.889   4.571
 1773TIP3    H2 5326   4.036   1.805   4.460
 1774TIP3   OH2 5327   1.585   0.690   4.119
 1774TIP3    H1 5328   1.677   0.680   4.094
 1774TIP3    H2 5329   1.580   0.651   4.206
 1775TIP3   OH2 5330   2.614   0.442   2.596
 1775TIP3    H1 5331   2.610   0.501   2.671
 1775TIP3    H2 5332   2.679   0.376   2.622
 1776TIP3   OH2 5333   2.485   4.148   0.134
 1776TIP3    H1 5334   2.419   4.138   0.203
 1776TIP3    H2 5335   2.499   4.242   0.128
 1777TIP3   OH2 5336   2.744   3.113   0.534
 1777TIP3    H1 5337   2.663   3.077   0.499
 1777TIP3    H2 5338   2.716   3.175   0.601
 1778TIP3   OH2 5339   2.188   2.643   4.113
 1778TIP3    H1 5340   2.143   2.579   4.169
 1778TIP3    H2 5341   2.201   2.597   4.030
 1779TIP3   OH2 5342   2.414  -0.008   5.117
 1779TIP3    H1 5343   2.451  -0.083   5.165
 1779TIP3    H2 5344   2.394   0.056   5.185
 1780TIP3   OH2 5345   6.117   3.913   2.889
 1780TIP3    H1 5346   6.070   3.903   2.806
 1780TIP3    H2 5347   6.113   3.826   2.929
 1781TIP3   OH2 5348   3.401   0.205   3.194
 1781TIP3    H1 5349   3.463   0.217   3.122
 1781TIP3    H2 5350   3.360   0.120   3.177
 1782TIP3   OH2 5351   3.180   1.684   1.150
 1782TIP3    H1 5352   3.197   1.778   1.146
 1782TIP3    H2 5353   3.265   1.645   1.170
 1783TIP3   OH2 5354   4.251   2.975   3.695
 1783TIP3    H1 5355   4.288   2.918   3.762
 1783TIP3    H2 5356   4.202   3.041   3.744
 1784TIP3   OH2 5357   3.678   3.071   1.832
 1784TIP3    H1 5358   3.652   3.163   1.839
 1784TIP3    H2 5359   3.596   3.022   1.832
 1785TIP3   OH2 5360   5.463   3.774   3.366
 1785TIP3    H1 5361   5.410   3.742   3.294
 1785TIP3    H2 5362   5.538   3.714   3.369
 1786TIP3   OH2 5363   2.695   4.814   0.852
 1786TIP3    H1 5364   2.776   4.810   0.801
 1786TIP3    H2 5365   2.645   4.886   0.812
 1787TIP3   OH2 5366   6.113   4.594   0.450
 1787TIP3    H1 5367   6.066   4.670   0.485
 1787TIP3    H2 5368   6.181   4.632   0.395
 1788TIP3   OH2 5369   5.305   0.817   1.836
 1788TIP3    H1 5370   5.256   0.735   1.824
 1788TIP3    H2 5371   5.272   0.875   1.767
 1789TIP3   OH2 5372   3.411   2.711   1.560
 1789TIP3    H1 5373   3.502   2.685   1.545
 1789TIP3    H2 5374   3.387   2.761   1.482
 1790TIP3   OH2 5375   4.935   3.331   3.113
 1790TIP3    H1 5376   4.906   3.312   3.202
 1790TIP3    H2 5377   4.971   3.248   3.081
 1791TIP3   OH2 5378   0.985   5.491   4.985
 1791TIP3    H1 5379   0.982   5.400   4.958
 1791TIP3    H2 5380   1.076   5.517   4.974
 1792TIP3   OH2 5381   0.380   3.766   3.130
 1792TIP3    H1 5382   0.365   3.775   3.224
 1792TIP3    H2 5383   0.377   3.671   3.114
 1793TIP3   OH2 5384   4.863   0.206   3.308
 1793TIP3    H1 5385   4.850   0.236   3.218
 1793TIP3    H2 5386   4.958   0.207   3.319
 1794TIP3   OH2 5387   2.375   4.725   4.813
 1794TIP3    H1 5388   2.335   4.810   4.833
 1794TIP3    H2 5389   2.350   4.669   4.886
 1795TIP3   OH2 5390   0.443   0.359   1.930
 1795TIP3    H1 5391   0.374   0.418   1.960
 1795TIP3    H2 5392   0.407   0.317   1.852
 1796TIP3   OH2 5393   3.644   3.161   4.163
 1796TIP3    H1 5394   3.593   3.125   4.236
 1796TIP3    H2 5395   3.579   3.181   4.096
 1797TIP3   OH2 5396  -0.027   3.824   0.849
 1797TIP3    H1 5397   0.027   3.903   0.857
 1797TIP3    H2 5398   0.009   3.764   0.914
 1798TIP3   OH2 5399   1.306   3.175   0.425
 1798TIP3    H1 5400   1.302   3.090   0.381
 1798TIP3    H2 5401   1.324   3.153   0.517
 1799TIP3   OH2 5402   3.738   2.040   2.970
 1799TIP3    H1 5403   3.722   1.946   2.977
 1799TIP3    H2 5404   3.826   2.046   2.934
 1800TIP3   OH2 5405   2.077   4.541   0.825
 1800TIP3    H1 5406   2.131   4.619   0.839
 1800TIP3    H2 5407   1.990   4.566   0.858
 1801TIP3   OH2 5408   2.296   1.452   0.721
 1801TIP3    H1 5409   2.346   1.524   0.759
 1801TIP3    H2 5410   2.207   1.464   0.756
 1802TIP3   OH2 5411   0.683   5.491   1.810
 1802TIP3    H1 5412   0.605   5.448   1.845
 1802TIP3    H2 5413   0.655   5.581   1.794
 1803TIP3   OH2 5414   6.045   4.440   0.094
 1803TIP3    H1 5415   6.029   4.520   0.144
 1803TIP3    H2 5416   5.982   4.377   0.130
 1804TIP3   OH2 5417   3.929   2.674   1.512
 1804TIP3    H1 5418   3.955   2.765   1.522
 1804TIP3    H2 5419   4.010   2.628   1.491
 1805TIP3   OH2 5420   5.785   5.309   4.598
 1805TIP3    H1 5421   5.772   5.324   4.692
 1805TIP3    H2 5422   5.708   5.348   4.556
 1806TIP3   OH2 5423   3.314   1.381   2.089
 1806TIP3    H1 5424   3.348   1.361   2.001
 1806TIP3    H2 5425   3.370   1.452   2.120
 1807TIP3   OH2 5426   4.219   1.612   0.705
 1807TIP3    H1 5427   4.211   1.627   0.799
 1807TIP3    H2 5428   4.301   1.657   0.681
 1808TIP3   OH2 5429   3.676   5.520   2.393
 1808TIP3    H1 5430   3.642   5.435   2.367
 1808TIP3    H2 5431   3.631   5.541   2.474
 1809TIP3   OH2 5432   3.992   1.418   2.147
 1809TIP3    H1 5433   3.915   1.414   2.091
 1809TIP3    H2 5434   4.065   1.395   2.090
 1810TIP3   OH2 5435   0.968   0.712   4.925
 1810TIP3    H1 5436   0.911   0.683   4.854
 1810TIP3    H2 5437   0.922   0.687   5.005
 1811TIP3   OH2 5438   3.604   5.899   2.518
 1811TIP3    H1 5439   3.597   5.842   2.442
 1811TIP3    H2 5440   3.558   5.979   2.492
 1812TIP3   OH2 5441   4.329   0.675   3.835
 1812TIP3    H1 5442   4.259   0.609   3.836
 1812TIP3    H2 5443   4.371   0.667   3.920
 1813TIP3   OH2 5444   0.485   4.974   4.972
 1813TIP3    H1 5445   0.444   4.986   4.886
 1813TIP3    H2 5446   0.541   5.051   4.984
 1814TIP3   OH2 5447   1.100   5.967   1.843
 1814TIP3    H1 5448   1.124   5.961   1.751
 1814TIP3    H2 5449   1.163   5.909   1.887
 1815TIP3   OH2 5450   4.966   1.451   1.560
 1815TIP3    H1 5451   4.964   1.378   1.498
 1815TIP3    H2 5452   4.899   1.512   1.528
 1816TIP3   OH2 5453   1.702   1.311   1.494
 1816TIP3    H1 5454   1.725   1.291   1.585
 1816TIP3    H2 5455   1.622   1.262   1.477
 1817TIP3   OH2 5456   1.434   3.750   0.967
 1817TIP3    H1 5457   1.431   3.711   1.054
 1817TIP3    H2 5458   1.467   3.679   0.911
 1818TIP3   OH2 5459   0.096   2.867   2.344
 1818TIP3    H1 5460   0.024   2.804   2.339
 1818TIP3    H2 5461   0.174   2.812   2.358
 1819TIP3   OH2 5462   2.456   0.351   3.195
 1819TIP3    H1 5463   2.420   0.286   3.135
 1819TIP3    H2 5464   2.535   0.309   3.231
 1820TIP3   OH2 5465   6.340   2.174   3.796
 1820TIP3    H1 5466   6.245   2.164   3.785
 1820TIP3    H2 5467   6.377   2.101   3.746
 1821TIP3   OH2 5468   0.494   5.141   3.798
 1821TIP3    H1 5469   0.588   5.138   3.783
 1821TIP3    H2 5470   0.485   5.171   3.889
 1822TIP3   OH2 5471   3.556   5.204   2.535
 1822TIP3    H1 5472   3.559   5.250   2.451
 1822TIP3    H2 5473   3.647   5.177   2.551
 1823TIP3   OH2 5474   1.506   5.297   2.604
 1823TIP3    H1 5475   1.496   5.213   2.650
 1823TIP3    H2 5476   1.582   5.338   2.645
 1824TIP3   OH2 5477   1.720   5.875   3.076
 1824TIP3    H1 5478   1.782   5.931   3.030
 1824TIP3    H2 5479   1.635   5.919   3.065
 1825TIP3   OH2 5480   1.376   5.790   3.076
 1825TIP3    H1 5481   1.391   5.803   2.983
 1825TIP3    H2 5482   1.298   5.842   3.096
 1826TIP3   OH2 5483   2.360   2.100   3.765
 1826TIP3    H1 5484   2.359   2.196   3.765
 1826TIP3    H2 5485   2.268   2.075   3.766
 1827TIP3   OH2 5486   2.792   3.102   1.860
 1827TIP3    H1 5487   2.736   3.173   1.892
 1827TIP3    H2 5488   2.733   3.027   1.852
 1828TIP3   OH2 5489   4.144   5.301   3.584
 1828TIP3    H1 5490   4.197   5.265   3.654
 1828TIP3    H2 5491   4.206   5.317   3.513
 1829TIP3   OH2 5492   0.497   2.945   1.070
 1829TIP3    H1 5493   0.443   2.897   1.007
 1829TIP3    H2 5494   0.494   2.892   1.150
 1830TIP3   OH2 5495   3.398   4.132   4.531
 1830TIP3    H1 5496   3.419   4.043   4.502
 1830TIP3    H2 5497   3.303   4.134   4.535
 1831TIP3   OH2 5498   2.612   3.726   3.015
 1831TIP3    H1 5499   2.689   3.748   3.067
 1831TIP3    H2 5500   2.550   3.797   3.032
 1832TIP3   OH2 5501   3.280   0.361   4.551
 1832TIP3    H1 5502   3.273   0.347   4.456
 1832TIP3    H2 5503   3.357   0.417   4.562
 1833TIP3   OH2 5504   0.850   1.549   3.835
 1833TIP3    H1 5505   0.757   1.559   3.815
 1833TIP3    H2 5506   0.862   1.455   3.848
 1834TIP3   OH2 5507   4.981   6.026   2.138
 1834TIP3    H1 5508   4.916   5.969   2.180
 1834TIP3    H2 5509   5.049   5.966   2.107
 1835TIP3   OH2 5510   2.720   5.637   2.328
 1835TIP3    H1 5511   2.727   5.727   2.362
 1835TIP3    H2 5512   2.706   5.648   2.234
 1836TIP3   OH2 5513   3.508   3.740   1.186
 1836TIP3    H1 5514   3.551   3.757   1.269
 1836TIP3    H2 5515   3.501   3.825   1.144
 1837TIP3   OH2 5516   3.201   3.564   2.111
 1837TIP3    H1 5517   3.230   3.612   2.033
 1837TIP3    H2 5518   3.108   3.584   2.118
 1838TIP3   OH2 5519   3.171   5.703   2.943
 1838TIP3    H1 5520   3.164   5.754   3.024
 1838TIP3    H2 5521   3.165   5.768   2.873
 1839TIP3   OH2 5522   5.315   2.258   1.799
 1839TIP3    H1 5523   5.304   2.311   1.720
 1839TIP3    H2 5524   5.373   2.187   1.772
 1840TIP3   OH2 5525   0.088   3.558   0.472
 1840TIP3    H1 5526  -0.003   3.537   0.494
 1840TIP3    H2 5527   0.097   3.651   0.495
 1841TIP3   OH2 5528   2.655   2.513   2.966
 1841TIP3    H1 5529   2.657   2.527   2.872
 1841TIP3    H2 5530   2.746   2.519   2.994
 1842TIP3   OH2 5531   2.526   2.370   0.177
 1842TIP3    H1 5532   2.467   2.325   0.118
 1842TIP3    H2 5533   2.597   2.307   0.194
 1843TIP3   OH2 5534   0.805   2.595   3.497
 1843TIP3    H1 5535   0.814   2.637   3.583
 1843TIP3    H2 5536   0.731   2.639   3.456
 1844TIP3   OH2 5537   2.156   3.251   0.466
 1844TIP3    H1 5538   2.074   3.291   0.437
 1844TIP3    H2 5539   2.190   3.206   0.389
 1845TIP3   OH2 5540   5.716   5.678   3.424
 1845TIP3    H1 5541   5.733   5.756   3.372
 1845TIP3    H2 5542   5.663   5.709   3.498
 1846TIP3   OH2 5543   5.608   1.368   3.446
 1846TIP3    H1 5544   5.589   1.311   3.372
 1846TIP3    H2 5545   5.629   1.307   3.518
 1847TIP3   OH2 5546   2.864  -0.002   0.639
 1847TIP3    H1 5547   2.899   0.072   0.689
 1847TIP3    H2 5548   2.820  -0.057   0.703
 1848TIP3   OH2 5549   2.191   3.325   1.599
 1848TIP3    H1 5550   2.236   3.316   1.514
 1848TIP3    H2 5551   2.121   3.388   1.582
 1849TIP3   OH2 5552   2.037   5.044   3.596
 1849TIP3    H1 5553   1.942   5.057   3.596
 1849TIP3    H2 5554   2.062   5.049   3.689
 1850TIP3   OH2 5555   6.157   5.204   4.119
 1850TIP3    H1 5556   6.090   5.197   4.052
 1850TIP3    H2 5557   6.163   5.115   4.156
 1851TIP3   OH2 5558   2.181   4.795   1.725
 1851TIP3    H1 5559   2.147   4.765   1.809
 1851TIP3    H2 5560   2.108   4.785   1.664
 1852TIP3   OH2 5561   3.948   2.148   3.817
 1852TIP3    H1 5562   3.918   2.163   3.727
 1852TIP3    H2 5563   3.870   2.118   3.863
 1853TIP3   OH2 5564   5.164   2.105   1.977
 1853TIP3    H1 5565   5.089   2.165   1.982
 1853TIP3    H2 5566   5.236   2.159   1.944
 1854TIP3   OH2 5567   4.290   2.802   4.252
 1854TIP3    H1 5568   4.316   2.884   4.293
 1854TIP3    H2 5569   4.258   2.748   4.324
 1855TIP3   OH2 5570   0.802   5.952   0.138
 1855TIP3    H1 5571   0.747   6.013   0.089
 1855TIP3    H2 5572   0.817   5.879   0.078
 1856TIP3   OH2 5573   1.199   4.520   0.356
 1856TIP3    H1 5574   1.268   4.454   0.347
 1856TIP3    H2 5575   1.239   4.589   0.409
 1857TIP3   OH2 5576   0.022   5.624   4.245
 1857TIP3    H1 5577   0.015   5.601   4.152
 1857TIP3    H2 5578  -0.034   5.561   4.290
 1858TIP3   OH2 5579   3.440   4.606   3.076
 1858TIP3    H1 5580   3.350   4.598   3.106
 1858TIP3    H2 5581   3.493   4.589   3.154
 1859TIP3   OH2 5582   1.383   1.795   2.604
 1859TIP3    H1 5583   1.329   1.807   2.526
 1859TIP3    H2 5584   1.320   1.788   2.676
 1860TIP3   OH2 5585   2.721   1.407   4.562
 1860TIP3    H1 5586   2.644   1.373   4.516
 1860TIP3    H2 5587   2.795   1.382   4.508
 1861TIP3   OH2 5588   6.244   4.308   3.563
 1861TIP3    H1 5589   6.279   4.291   3.476
 1861TIP3    H2 5590   6.320   4.331   3.616
 1862TIP3   OH2 5591   6.112   3.881   1.125
 1862TIP3    H1 5592   6.132   3.796   1.086
 1862TIP3    H2 5593   6.020   3.897   1.102
 1863TIP3   OH2 5594   4.148   5.297   4.262
 1863TIP3    H1 5595   4.198   5.219   4.287
 1863TIP3    H2 5596   4.152   5.353   4.340
 1864TIP3   OH2 5597   3.898   0.076   2.534
 1864TIP3    H1 5598   3.949   0.121   2.601
 1864TIP3    H2 5599   3.849   0.145   2.490
 1865TIP3   OH2 5600   4.372   2.768   3.194
 1865TIP3    H1 5601   4.388   2.731   3.280
 1865TIP3    H2 5602   4.436   2.725   3.137
 1866TIP3   OH2 5603   0.525   3.614   0.944
 1866TIP3    H1 5604   0.439   3.652   0.958
 1866TIP3    H2 5605   0.512   3.520   0.952
 1867TIP3   OH2 5606   3.770   3.617   4.901
 1867TIP3    H1 5607   3.769   3.557   4.826
 1867TIP3    H2 5608   3.814   3.696   4.868
 1868TIP3   OH2 5609   0.810   3.682   2.229
 1868TIP3    H1 5610   0.838   3.637   2.308
 1868TIP3    H2 5611   0.813   3.775   2.252
 1869TIP3   OH2 5612   5.407   0.710   1.290
 1869TIP3    H1 5613   5.418   0.723   1.385
 1869TIP3    H2 5614   5.337   0.769   1.265
 1870TIP3   OH2 5615   1.066   0.804   1.096
 1870TIP3    H1 5616   1.093   0.861   1.169
 1870TIP3    H2 5617   1.124   0.728   1.103
 1871TIP3   OH2 5618   1.968   5.328   3.907
 1871TIP3    H1 5619   1.895   5.354   3.964
 1871TIP3    H2 5620   1.959   5.233   3.900
 1872TIP3   OH2 5621   2.718   0.424   0.258
 1872TIP3    H1 5622   2.702   0.397   0.348
 1872TIP3    H2 5623   2.655   0.373   0.206
 1873TIP3   OH2 5624   1.684   4.778   1.270
 1873TIP3    H1 5625   1.597   4.744   1.251
 1873TIP3    H2 5626   1.734   4.701   1.297
 1874TIP3   OH2 5627   0.705   1.096   4.398
 1874TIP3    H1 5628   0.669   1.183   4.419
 1874TIP3    H2 5629   0.775   1.114   4.336
 1875TIP3   OH2 5630   4.089   2.513   3.942
 1875TIP3    H1 5631   4.091   2.606   3.961
 1875TIP3    H2 5632   4.004   2.498   3.902
 1876TIP3   OH2 5633   2.857   0.456   1.029
 1876TIP3    H1 5634   2.855   0.361   1.041
 1876TIP3    H2 5635   2.767   0.484   1.046
 1877TIP3   OH2 5636   5.297   4.067   4.613
 1877TIP3    H1 5637   5.380   4.111   4.597
 1877TIP3    H2 5638   5.264   4.104   4.695
 1878TIP3   OH2 5639   0.964   2.794   0.014
 1878TIP3    H1 5640   0.895   2.727   0.012
 1878TIP3    H2 5641   1.031   2.757   0.072
 1879TIP3   OH2 5642   4.292   4.150   3.360
 1879TIP3    H1 5643   4.232   4.215   3.323
 1879TIP3    H2 5644   4.346   4.199   3.422
 1880TIP3   OH2 5645   2.137   0.436   4.323
 1880TIP3    H1 5646   2.226   0.405   4.308
 1880TIP3    H2 5647   2.095   0.368   4.376
 1881TIP3   OH2 5648   1.928   0.900   3.009
 1881TIP3    H1 5649   1.991   0.862   2.947
 1881TIP3    H2 5650   1.843   0.888   2.967
 1882TIP3   OH2 5651   6.175   2.454   2.203
 1882TIP3    H1 5652   6.187   2.365   2.236
 1882TIP3    H2 5653   6.224   2.457   2.121
 1883TIP3   OH2 5654   2.952   1.448   0.688
 1883TIP3    H1 5655   3.002   1.370   0.665
 1883TIP3    H2 5656   2.998   1.486   0.763
 1884TIP3   OH2 5657   3.511   2.766   5.058
 1884TIP3    H1 5658   3.580   2.727   5.005
 1884TIP3    H2 5659   3.477   2.693   5.111
 1885TIP3   OH2 5660   5.397   5.556   0.874
 1885TIP3    H1 5661   5.372   5.481   0.928
 1885TIP3    H2 5662   5.445   5.613   0.933
 1886TIP3   OH2 5663   1.139   0.029   2.286
 1886TIP3    H1 5664   1.058   0.080   2.287
 1886TIP3    H2 5665   1.183   0.051   2.368
 1887TIP3   OH2 5666   3.361   3.235   4.746
 1887TIP3    H1 5667   3.373   3.155   4.798
 1887TIP3    H2 5668   3.450   3.266   4.728
 1888TIP3   OH2 5669   2.709   4.870   2.000
 1888TIP3    H1 5670   2.750   4.869   2.086
 1888TIP3    H2 5671   2.746   4.947   1.957
 1889TIP3   OH2 5672   5.159   3.502   3.878
 1889TIP3    H1 5673   5.177   3.547   3.961
 1889TIP3    H2 5674   5.211   3.422   3.882
 1890TIP3   OH2 5675   0.058   2.154   0.047
 1890TIP3    H1 5676   0.009   2.176   0.126
 1890TIP3    H2 5677   0.141   2.201   0.056
 1891TIP3   OH2 5678   0.021   0.215   0.996
 1891TIP3    H1 5679  -0.017   0.222   0.908
 1891TIP3    H2 5680   0.085   0.286   1.000
 1892TIP3   OH2 5681   4.790   3.700   0.543
 1892TIP3    H1 5682   4.846   3.769   0.578
 1892TIP3    H2 5683   4.815   3.694   0.451
 1893TIP3   OH2 5684   0.349   1.537   4.236
 1893TIP3    H1 5685   0.327   1.607   4.174
 1893TIP3    H2 5686   0.348   1.457   4.183
 1894TIP3   OH2 5687   3.959   0.676   3.684
 1894TIP3    H1 5688   3.872   0.645   3.710
 1894TIP3    H2 5689   4.018   0.606   3.713
 1895TIP3   OH2 5690   5.650   4.704   1.103
 1895TIP3    H1 5691   5.684   4.619   1.074
 1895TIP3    H2 5692   5.555   4.695   1.098
 1896TIP3   OH2 5693   4.678   2.205   4.935
 1896TIP3    H1 5694   4.722   2.120   4.942
 1896TIP3    H2 5695   4.601   2.196   4.992
 1897TIP3   OH2 5696   4.900   5.630   4.379
 1897TIP3    H1 5697   4.936   5.716   4.397
 1897TIP3    H2 5698   4.805   5.642   4.383
 1898TIP3   OH2 5699   0.607   4.830   1.754
 1898TIP3    H1 5700   0.672   4.835   1.683
 1898TIP3    H2 5701   0.555   4.910   1.744
 1899TIP3   OH2 5702   4.691   3.253   2.792
 1899TIP3    H1 5703   4.737   3.169   2.793
 1899TIP3    H2 5704   4.639   3.252   2.712
 1900TIP3   OH2 5705   2.638   0.726   4.814
 1900TIP3    H1 5706   2.577   0.737   4.740
 1900TIP3    H2 5707   2.693   0.804   4.811
 1901TIP3   OH2 5708   4.944   1.498   0.086
 1901TIP3    H1 5709   4.931   1.426   0.025
 1901TIP3    H2 5710   4.859   1.508   0.130
 1902TIP3   OH2 5711   5.309   4.764   2.148
 1902TIP3    H1 5712   5.404   4.755   2.135
 1902TIP3    H2 5713   5.298   4.850   2.187
 1903TIP3   OH2 5714   1.801   0.653   3.844
 1903TIP3    H1 5715   1.875   0.709   3.821
 1903TIP3    H2 5716   1.783   0.672   3.936
 1904TIP3   OH2 5717   2.229   0.190   0.812
 1904TIP3    H1 5718   2.194   0.114   0.858
 1904TIP3    H2 5719   2.321   0.170   0.799
 1905TIP3   OH2 5720   2.830   2.370   4.269
 1905TIP3    H1 5721   2.737   2.389   4.256
 1905TIP3    H2 5722   2.831   2.283   4.309
 1906TIP3   OH2 5723   0.591   5.624   3.919
 1906TIP3    H1 5724   0.527   5.582   3.976
 1906TIP3    H2 5725   0.605   5.561   3.848
 1907TIP3   OH2 5726   3.575   5.244   4.898
 1907TIP3    H1 5727   3.561   5.150   4.911
 1907TIP3    H2 5728   3.596   5.277   4.985
 1908TIP3   OH2 5729   3.369   5.691   0.042
 1908TIP3    H1 5730   3.353   5.768  -0.012
 1908TIP3    H2 5731   3.282   5.655   0.059
 1909TIP3   OH2 5732   3.120   2.721   2.829
 1909TIP3    H1 5733   3.171   2.799   2.851
 1909TIP3    H2 5734   3.182   2.649   2.842
 1910TIP3   OH2 5735   4.166   5.721   4.440
 1910TIP3    H1 5736   4.224   5.742   4.513
 1910TIP3    H2 5737   4.148   5.627   4.449
 1911TIP3   OH2 5738   5.006   4.286   0.236
 1911TIP3    H1 5739   5.007   4.276   0.141
 1911TIP3    H2 5740   5.030   4.377   0.252
 1912TIP3   OH2 5741   5.723   0.349   3.945
 1912TIP3    H1 5742   5.680   0.349   4.031
 1912TIP3    H2 5743   5.752   0.440   3.934
 1913TIP3   OH2 5744   5.223   2.661   1.747
 1913TIP3    H1 5745   5.139   2.627   1.778
 1913TIP3    H2 5746   5.211   2.756   1.744
 1914TIP3   OH2 5747   2.574   5.387   4.710
 1914TIP3    H1 5748   2.647   5.333   4.678
 1914TIP3    H2 5749   2.525   5.409   4.631
 1915TIP3   OH2 5750   5.506   5.445   1.213
 1915TIP3    H1 5751   5.581   5.504   1.215
 1915TIP3    H2 5752   5.537   5.366   1.257
 1916TIP3   OH2 5753   0.365   4.552   2.204
 1916TIP3    H1 5754   0.289   4.494   2.200
 1916TIP3    H2 5755   0.365   4.586   2.293
 1917TIP3   OH2 5756   1.016   3.952   0.661
 1917TIP3    H1 5757   0.958   3.979   0.732
 1917TIP3    H2 5758   1.058   3.873   0.695
 1918TIP3   OH2 5759   1.144   0.076   1.978
 1918TIP3    H1 5760   1.203   0.150   1.962
 1918TIP3    H2 5761   1.077   0.112   2.037
 1919TIP3   OH2 5762   4.844   5.798   0.876
 1919TIP3    H1 5763   4.897   5.856   0.931
 1919TIP3    H2 5764   4.886   5.801   0.790
 1920TIP3   OH2 5765   0.073   3.212   1.450
 1920TIP3    H1 5766  -0.019   3.194   1.427
 1920TIP3    H2 5767   0.123   3.147   1.401
 1921TIP3   OH2 5768   2.061   0.977   1.965
 1921TIP3    H1 5769   1.973   0.951   1.989
 1921TIP3    H2 5770   2.086   1.043   2.030
 1922TIP3   OH2 5771   4.745   0.002   4.863
 1922TIP3    H1 5772   4.808   0.053   4.813
 1922TIP3    H2 5773   4.796  -0.042   4.931
 1923TIP3   OH2 5774   5.481   4.420   0.824
 1923TIP3    H1 5775   5.449   4.459   0.743
 1923TIP3    H2 5776   5.452   4.329   0.820
 1924TIP3   OH2 5777   0.063   4.984   1.857
 1924TIP3    H1 5778   0.143   5.002   1.808
 1924TIP3    H2 5779   0.014   4.923   1.802
 1925TIP3   OH2 5780   3.071   4.332   4.473
 1925TIP3    H1 5781   3.149   4.350   4.421
 1925TIP3    H2 5782   3.021   4.269   4.420
 1926TIP3   OH2 5783   5.035   2.436   1.766
 1926TIP3    H1 5784   5.069   2.388   1.691
 1926TIP3    H2 5785   4.965   2.491   1.730
 1927TIP3   OH2 5786   2.838   1.963   4.823
 1927TIP3    H1 5787   2.763   2.021   4.812
 1927TIP3    H2 5788   2.800   1.875   4.829
 1928TIP3   OH2 5789   1.083   1.933   4.045
 1928TIP3    H1 5790   1.085   2.013   4.097
 1928TIP3    H2 5791   1.016   1.949   3.978
 1929TIP3   OH2 5792   1.218   5.578   4.526
 1929TIP3    H1 5793   1.312   5.596   4.525
 1929TIP3    H2 5794   1.209   5.502   4.583
 1930TIP3   OH2 5795   1.759   4.335   2.566
 1930TIP3    H1 5796   1.691   4.361   2.504
 1930TIP3    H2 5797   1.768   4.411   2.624
 1931TIP3   OH2 5798   0.909   5.530   2.075
 1931TIP3    H1 5799   0.817   5.540   2.098
 1931TIP3    H2 5800   0.953   5.507   2.158
 1932TIP3   OH2 5801   5.475   2.995   0.525
 1932TIP3    H1 5802   5.405   3.033   0.577
 1932TIP3    H2 5803   5.473   3.045   0.443
 1933TIP3   OH2 5804   4.871   3.966   3.065
 1933TIP3    H1 5805   4.777   3.980   3.072
 1933TIP3    H2 5806   4.884   3.874   3.090
 1934TIP3   OH2 5807   5.902   2.128   4.112
 1934TIP3    H1 5808   5.919   2.150   4.020
 1934TIP3    H2 5809   5.812   2.155   4.127
 1935TIP3   OH2 5810   4.950   2.046   0.150
 1935TIP3    H1 5811   4.997   2.029   0.068
 1935TIP3    H2 5812   4.930   1.959   0.185
 1936TIP3   OH2 5813   3.217   4.120   5.011
 1936TIP3    H1 5814   3.298   4.120   5.063
 1936TIP3    H2 5815   3.237   4.173   4.935
 1937TIP3   OH2 5816   5.829   0.754   4.896
 1937TIP3    H1 5817   5.894   0.806   4.942
 1937TIP3    H2 5818   5.881   0.692   4.843
 1938TIP3   OH2 5819   3.103   5.217   0.194
 1938TIP3    H1 5820   3.078   5.149   0.132
 1938TIP3    H2 5821   3.160   5.173   0.257
 1939TIP3   OH2 5822   3.575   4.251   1.280
 1939TIP3    H1 5823   3.555   4.263   1.373
 1939TIP3    H2 5824   3.623   4.168   1.276
 1940TIP3   OH2 5825   5.828   3.668   3.934
 1940TIP3    H1 5826   5.873   3.589   3.965
 1940TIP3    H2 5827   5.796   3.643   3.847
 1941TIP3   OH2 5828   2.752   3.250   5.041
 1941TIP3    H1 5829   2.753   3.186   4.970
 1941TIP3    H2 5830   2.769   3.198   5.120
 1942TIP3   OH2 5831   5.775   3.812   2.495
 1942TIP3    H1 5832   5.809   3.814   2.405
 1942TIP3    H2 5833   5.841   3.857   2.547
 1943TIP3   OH2 5834   5.873   2.343   1.875
 1943TIP3    H1 5835   5.969   2.349   1.874
 1943TIP3    H2 5836   5.848   2.388   1.955
 1944TIP3   OH2 5837   5.327   1.065   3.893
 1944TIP3    H1 5838   5.369   0.994   3.846
 1944TIP3    H2 5839   5.288   1.023   3.970
 1945TIP3   OH2 5840   3.310   5.693   2.127
 1945TIP3    H1 5841   3.223   5.678   2.089
 1945TIP3    H2 5842   3.354   5.609   2.118
 1946TIP3   OH2 5843   6.371   5.587   1.809
 1946TIP3    H1 5844   6.325   5.666   1.779
 1946TIP3    H2 5845   6.446   5.620   1.858
 1947TIP3   OH2 5846   3.793   5.962   3.320
 1947TIP3    H1 5847   3.703   5.937   3.300
 1947TIP3    H2 5848   3.789   5.993   3.411
 1948TIP3   OH2 5849   3.228   0.811   2.767
 1948TIP3    H1 5850   3.309   0.790   2.814
 1948TIP3    H2 5851   3.207   0.731   2.720
 1949TIP3   OH2 5852   5.896   3.732   0.039
 1949TIP3    H1 5853   5.987   3.713   0.016
 1949TIP3    H2 5854   5.899   3.757   0.131
 1950TIP3   OH2 5855   1.237   0.646   4.973
 1950TIP3    H1 5856   1.227   0.552   4.954
 1950TIP3    H2 5857   1.149   0.682   4.965
 1951TIP3   OH2 5858   5.211   5.554   0.495
 1951TIP3    H1 5859   5.295   5.530   0.535
 1951TIP3    H2 5860   5.146   5.505   0.544
 1952TIP3   OH2 5861   3.412   0.604   0.963
 1952TIP3    H1 5862   3.333   0.560   0.997
 1952TIP3    H2 5863   3.398   0.609   0.869
 1953TIP3   OH2 5864   1.274   1.018   0.134
 1953TIP3    H1 5865   1.305   0.948   0.076
 1953TIP3    H2 5866   1.336   1.019   0.206
 1954TIP3   OH2 5867   0.081   2.459   3.727
 1954TIP3    H1 5868   0.086   2.481   3.634
 1954TIP3    H2 5869   0.031   2.378   3.730
 1955TIP3   OH2 5870   4.245   1.144   3.026
 1955TIP3    H1 5871   4.243   1.236   3.053
 1955TIP3    H2 5872   4.253   1.147   2.931
 1956TIP3   OH2 5873   6.006   0.792   1.018
 1956TIP3    H1 5874   5.986   0.821   1.107
 1956TIP3    H2 5875   5.971   0.703   1.013
 1957TIP3   OH2 5876   2.608   5.296   0.952
 1957TIP3    H1 5877   2.640   5.289   1.042
 1957TIP3    H2 5878   2.647   5.378   0.919
 1958TIP3   OH2 5879   1.995   1.178   3.643
 1958TIP3    H1 5880   1.909   1.138   3.628
 1958TIP3    H2 5881   1.976   1.254   3.698
 1959TIP3   OH2 5882   4.125   3.456   0.281
 1959TIP3    H1 5883   4.194   3.464   0.347
 1959TIP3    H2 5884   4.044   3.469   0.330
 1960TIP3   OH2 5885   3.140   4.336   2.046
 1960TIP3    H1 5886   3.116   4.256   2.093
 1960TIP3    H2 5887   3.129   4.406   2.111
 1961TIP3   OH2 5888   2.302   4.950   4.993
 1961TIP3    H1 5889   2.227   4.906   5.033
 1961TIP3    H2 5890   2.275   5.041   4.984
 1962TIP3   OH2 5891   2.618   3.509   4.238
 1962TIP3    H1 5892   2.588   3.594   4.271
 1962TIP3    H2 5893   2.712   3.521   4.222
 1963TIP3   OH2 5894   1.013   0.485   3.128
 1963TIP3    H1 5895   0.934   0.532   3.156
 1963TIP3    H2 5896   1.033   0.523   3.042
 1964TIP3   OH2 5897   5.805   1.581   4.886
 1964TIP3    H1 5898   5.795   1.531   4.967
 1964TIP3    H2 5899   5.719   1.620   4.871
 1965TIP3   OH2 5900   3.733   4.414   0.557
 1965TIP3    H1 5901   3.744   4.451   0.644
 1965TIP3    H2 5902   3.653   4.362   0.563
 1966TIP3   OH2 5903   4.876   3.050   2.796
 1966TIP3    H1 5904   4.857   3.022   2.886
 1966TIP3    H2 5905   4.963   3.090   2.802
 1967TIP3   OH2 5906   2.828   5.823   1.859
 1967TIP3    H1 5907   2.849   5.914   1.876
 1967TIP3    H2 5908   2.769   5.826   1.784
 1968TIP3   OH2 5909   3.535   2.769   3.870
 1968TIP3    H1 5910   3.619   2.808   3.895
 1968TIP3    H2 5911   3.486   2.841   3.831
 1969TIP3   OH2 5912   1.308   3.266   2.459
 1969TIP3    H1 5913   1.354   3.345   2.487
 1969TIP3    H2 5914   1.228   3.265   2.511
 1970TIP3   OH2 5915   0.077   4.574   4.812
 1970TIP3    H1 5916   0.130   4.567   4.732
 1970TIP3    H2 5917   0.087   4.488   4.854
 1971TIP3   OH2 5918   4.003   2.995   2.468
 1971TIP3    H1 5919   3.910   2.987   2.446
 1971TIP3    H2 5920   4.036   3.061   2.407
 1972TIP3   OH2 5921   3.342   0.039   1.593
 1972TIP3    H1 5922   3.300   0.036   1.507
 1972TIP3    H2 5923   3.322   0.126   1.627
 1973TIP3   OH2 5924   3.351   5.095   1.717
 1973TIP3    H1 5925   3.363   5.164   1.782
 1973TIP3    H2 5926   3.265   5.111   1.679
 1974TIP3   OH2 5927   2.480   0.529   0.859
 1974TIP3    H1 5928   2.495   0.467   0.930
 1974TIP3    H2 5929   2.556   0.520   0.801
 1975TIP3   OH2 5930   0.121   3.528   5.031
 1975TIP3    H1 5931   0.174   3.583   4.973
 1975TIP3    H2 5932   0.031   3.541   5.000
 1976TIP3   OH2 5933   0.655   3.451   4.657
 1976TIP3    H1 5934   0.562   3.425   4.657
 1976TIP3    H2 5935   0.678   3.458   4.565
 1977TIP3   OH2 5936   0.566   1.340   4.472
 1977TIP3    H1 5937   0.527   1.381   4.550
 1977TIP3    H2 5938   0.497   1.343   4.406
 1978TIP3   OH2 5939   0.584   4.197   0.663
 1978TIP3    H1 5940   0.661   4.251   0.683
 1978TIP3    H2 5941   0.566   4.150   0.745
 1979TIP3   OH2 5942   2.803   3.946   2.570
 1979TIP3    H1 5943   2.783   3.905   2.486
 1979TIP3    H2 5944   2.746   3.902   2.633
 1980TIP3   OH2 5945   5.181   0.392   4.005
 1980TIP3    H1 5946   5.213   0.306   4.032
 1980TIP3    H2 5947   5.131   0.424   4.081
 1981TIP3   OH2 5948   5.754   1.151   3.620
 1981TIP3    H1 5949   5.759   1.092   3.695
 1981TIP3    H2 5950   5.795   1.103   3.548
 1982TIP3   OH2 5951   3.472   3.988   1.365
 1982TIP3    H1 5952   3.465   3.908   1.417
 1982TIP3    H2 5953   3.432   4.056   1.420
 1983TIP3   OH2 5954   0.513   1.875   4.562
 1983TIP3    H1 5955   0.536   1.951   4.615
 1983TIP3    H2 5956   0.509   1.909   4.472
 1984TIP3   OH2 5957   4.647   5.162   2.037
 1984TIP3    H1 5958   4.691   5.146   1.953
 1984TIP3    H2 5959   4.579   5.094   2.041
 1985TIP3   OH2 5960   2.845   3.608   2.445
 1985TIP3    H1 5961   2.891   3.672   2.392
 1985TIP3    H2 5962   2.878   3.621   2.534
 1986TIP3   OH2 5963   0.963   4.305   5.002
 1986TIP3    H1 5964   0.944   4.249   4.927
 1986TIP3    H2 5965   0.882   4.353   5.018
 1987TIP3   OH2 5966   1.437   0.493   3.022
 1987TIP3    H1 5967   1.377   0.464   2.954
 1987TIP3    H2 5968   1.385   0.552   3.076
 1988TIP3   OH2 5969   0.359   4.086   2.267
 1988TIP3    H1 5970   0.382   4.149   2.198
 1988TIP3    H2 5971   0.371   4.133   2.349
 1989TIP3   OH2 5972   1.858   2.936   3.943
 1989TIP3    H1 5973   1.887   2.862   3.889
 1989TIP3    H2 5974   1.842   2.897   4.029
 1990TIP3   OH2 5975   4.147   5.193   3.889
 1990TIP3    H1 5976   4.070   5.230   3.933
 1990TIP3    H2 5977   4.222   5.229   3.937
 1991TIP3   OH2 5978   2.291   0.628   3.392
 1991TIP3    H1 5979   2.285   0.591   3.480
 1991TIP3    H2 5980   2.325   0.716   3.405
 1992TIP3   OH2 5981   3.634   2.737   4.184
 1992TIP3    H1 5982   3.570   2.670   4.161
 1992TIP3    H2 5983   3.642   2.792   4.106
 1993TIP3   OH2 5984   5.818   0.199   2.248
 1993TIP3    H1 5985   5.880   0.129   2.228
 1993TIP3    H2 5986   5.767   0.166   2.322
 1994TIP3   OH2 5987   3.420   2.881   2.625
 1994TIP3    H1 5988   3.495   2.917   2.672
 1994TIP3    H2 5989   3.398   2.947   2.560
 1995TIP3   OH2 5990   2.811   4.639   5.151
 1995TIP3    H1 5991   2.781   4.730   5.154
 1995TIP3    H2 5992   2.839   4.626   5.060
 1996TIP3   OH2 5993   0.969   4.145   2.716
 1996TIP3    H1 5994   0.914   4.196   2.657
 1996TIP3    H2 5995   1.045   4.121   2.664
 1997TIP3   OH2 5996   4.310   0.295   4.871
 1997TIP3    H1 5997   4.361   0.229   4.919
 1997TIP3    H2 5998   4.292   0.255   4.787
 1998TIP3   OH2 5999   1.856   5.456   0.300
 1998TIP3    H1 6000   1.940   5.429   0.262
 1998TIP3    H2 6001   1.794   5.387   0.273
 1999TIP3   OH2 6002   3.814   1.609   0.372
 1999TIP3    H1 6003   3.779   1.539   0.317
 1999TIP3    H2 6004   3.881   1.566   0.425
 2000TIP3   OH2 6005   6.287   2.543   4.184
 2000TIP3    H1 6006   6.298   2.468   4.124
 2000TIP3    H2 6007   6.370   2.547   4.232
 2001TIP3   OH2 6008   4.384   3.969   2.743
 2001TIP3    H1 6009   4.472   4.001   2.763
 2001TIP3    H2 6010   4.399   3.897   2.681
 2002TIP3   OH2 6011   3.097   5.986   1.957
 2002TIP3    H1 6012   3.102   5.891   1.948
 2002TIP3    H2 6013   3.073   6.017   1.869
 2003TIP3   OH2 6014   3.354   4.453   3.454
 2003TIP3    H1 6015   3.408   4.374   3.445
 2003TIP3    H2 6016   3.270   4.429   3.415
 2004TIP3   OH2 6017   5.932   3.002   5.037
 2004TIP3    H1 6018   5.965   2.920   5.074
 2004TIP3    H2 6019   5.871   3.035   5.103
 2005TIP3   OH2 6020   1.198   2.946   2.587
 2005TIP3    H1 6021   1.189   2.983   2.499
 2005TIP3    H2 6022   1.180   2.852   2.575
 2006TIP3   OH2 6023   3.500   5.487   1.155
 2006TIP3    H1 6024   3.506   5.513   1.247
 2006TIP3    H2 6025   3.491   5.570   1.107
 2007TIP3   OH2 6026   0.387   0.554   4.625
 2007TIP3    H1 6027   0.475   0.538   4.660
 2007TIP3    H2 6028   0.388   0.646   4.600
 2008TIP3   OH2 6029   5.142   1.602   0.282
 2008TIP3    H1 6030   5.146   1.533   0.349
 2008TIP3    H2 6031   5.101   1.561   0.207
 2009TIP3   OH2 6032   2.552   1.478   0.522
 2009TIP3    H1 6033   2.520   1.396   0.559
 2009TIP3    H2 6034   2.602   1.519   0.593
 2010TIP3   OH2 6035   0.334   5.955   0.140
 2010TIP3    H1 6036   0.342   5.964   0.045
 2010TIP3    H2 6037   0.382   5.875   0.161
 2011TIP3   OH2 6038   0.116   0.532   4.502
 2011TIP3    H1 6039   0.093   0.609   4.553
 2011TIP3    H2 6040   0.179   0.485   4.557
 2012TIP3   OH2 6041   2.769   5.349   3.891
 2012TIP3    H1 6042   2.721   5.431   3.904
 2012TIP3    H2 6043   2.759   5.302   3.973
 2013TIP3   OH2 6044   3.580   5.103   1.320
 2013TIP3    H1 6045   3.647   5.035   1.311
 2013TIP3    H2 6046   3.608   5.154   1.396
 2014TIP3   OH2 6047   4.682   2.035   2.089
 2014TIP3    H1 6048   4.675   2.035   2.184
 2014TIP3    H2 6049   4.597   2.002   2.058
 2015TIP3   OH2 6050   3.172   4.829   1.893
 2015TIP3    H1 6051   3.164   4.872   1.808
 2015TIP3    H2 6052   3.104   4.762   1.892
 2016TIP3   OH2 6053   5.184   2.187   4.654
 2016TIP3    H1 6054   5.149   2.099   4.641
 2016TIP3    H2 6055   5.172   2.231   4.569
 2017TIP3   OH2 6056   0.462   5.068   2.803
 2017TIP3    H1 6057   0.485   5.139   2.863
 2017TIP3    H2 6058   0.446   4.993   2.860
 2018TIP3   OH2 6059   5.980   5.984   0.242
 2018TIP3    H1 6060   5.997   5.904   0.292
 2018TIP3    H2 6061   5.886   5.997   0.249
 2019TIP3   OH2 6062   0.593   1.473   0.438
 2019TIP3    H1 6063   0.650   1.410   0.394
 2019TIP3    H2 6064   0.631   1.482   0.526
 2020TIP3   OH2 6065   2.903   1.128   1.223
 2020TIP3    H1 6066   2.952   1.209   1.239
 2020TIP3    H2 6067   2.856   1.112   1.305
 2021TIP3   OH2 6068   1.368   5.362   3.958
 2021TIP3    H1 6069   1.375   5.268   3.975
 2021TIP3    H2 6070   1.456   5.397   3.974
 2022TIP3   OH2 6071   1.365   3.160   4.600
 2022TIP3    H1 6072   1.386   3.234   4.657
 2022TIP3    H2 6073   1.313   3.198   4.529
 2023TIP3   OH2 6074   1.125   2.453   4.308
 2023TIP3    H1 6075   1.052   2.392   4.298
 2023TIP3    H2 6076   1.140   2.457   4.402
 2024TIP3   OH2 6077   0.687   2.693   4.698
 2024TIP3    H1 6078   0.646   2.606   4.693
 2024TIP3    H2 6079   0.772   2.677   4.738
 2025TIP3   OH2 6080   2.696   5.241   1.201
 2025TIP3    H1 6081   2.651   5.296   1.265
 2025TIP3    H2 6082   2.671   5.151   1.225
 2026TIP3   OH2 6083   0.481   2.517   4.275
 2026TIP3    H1 6084   0.482   2.587   4.209
 2026TIP3    H2 6085   0.567   2.523   4.317
 2027TIP3   OH2 6086   3.619   0.828   1.786
 2027TIP3    H1 6087   3.608   0.914   1.826
 2027TIP3    H2 6088   3.712   0.809   1.795
 2028TIP3   OH2 6089   6.192   4.843   4.957
 2028TIP3    H1 6090   6.190   4.827   5.051
 2028TIP3    H2 6091   6.256   4.780   4.923
 2029TIP3   OH2 6092   3.434   2.666   0.155
 2029TIP3    H1 6093   3.526   2.694   0.153
 2029TIP3    H2 6094   3.434   2.586   0.207
 2030TIP3   OH2 6095   3.476   3.504   1.055
 2030TIP3    H1 6096   3.464   3.525   0.962
 2030TIP3    H2 6097   3.489   3.589   1.097
 2031TIP3   OH2 6098   5.696   3.721   4.181
 2031TIP3    H1 6099   5.724   3.648   4.237
 2031TIP3    H2 6100   5.723   3.696   4.093
 2032TIP3   OH2 6101   1.496   5.034   1.532
 2032TIP3    H1 6102   1.460   5.090   1.601
 2032TIP3    H2 6103   1.571   5.082   1.498
 2033TIP3   OH2 6104   3.353   1.524   0.833
 2033TIP3    H1 6105   3.366   1.607   0.878
 2033TIP3    H2 6106   3.314   1.549   0.748
 2034TIP3   OH2 6107   0.423   5.231   4.091
 2034TIP3    H1 6108   0.493   5.253   4.153
 2034TIP3    H2 6109   0.437   5.139   4.070
 2035TIP3   OH2 6110   3.143   0.434   1.884
 2035TIP3    H1 6111   3.201   0.419   1.809
 2035TIP3    H2 6112   3.092   0.512   1.860
 2036TIP3   OH2 6113   2.739   2.839   0.659
 2036TIP3    H1 6114   2.649   2.853   0.689
 2036TIP3    H2 6115   2.782   2.923   0.673
 2037TIP3   OH2 6116   4.093   4.468   2.445
 2037TIP3    H1 6117   4.036   4.533   2.485
 2037TIP3    H2 6118   4.166   4.520   2.408
 2038TIP3   OH2 6119  -0.001   2.958   3.662
 2038TIP3    H1 6120   0.046   2.985   3.584
 2038TIP3    H2 6121   0.065   2.913   3.716
 2039TIP3   OH2 6122   0.560   0.679   2.240
 2039TIP3    H1 6123   0.626   0.676   2.309
 2039TIP3    H2 6124   0.582   0.755   2.188
 2040TIP3   OH2 6125   5.580   1.415   4.346
 2040TIP3    H1 6126   5.631   1.462   4.280
 2040TIP3    H2 6127   5.643   1.393   4.415
 2041TIP3   OH2 6128   3.810   3.234   3.092
 2041TIP3    H1 6129   3.845   3.308   3.141
 2041TIP3    H2 6130   3.715   3.243   3.099
 2042TIP3   OH2 6131   5.856   2.424   0.667
 2042TIP3    H1 6132   5.939   2.398   0.707
 2042TIP3    H2 6133   5.791   2.406   0.734
 2043TIP3   OH2 6134   4.819   3.423   0.592
 2043TIP3    H1 6135   4.801   3.517   0.592
 2043TIP3    H2 6136   4.780   3.392   0.674
 2044TIP3   OH2 6137   4.666   3.004   1.471
 2044TIP3    H1 6138   4.753   2.972   1.493
 2044TIP3    H2 6139   4.627   3.027   1.555
 2045TIP3   OH2 6140   2.722   4.545   3.021
 2045TIP3    H1 6141   2.637   4.581   3.046
 2045TIP3    H2 6142   2.703   4.455   2.994
 2046TIP3   OH2 6143   3.989   2.896   0.862
 2046TIP3    H1 6144   3.975   2.805   0.888
 2046TIP3    H2 6145   4.082   2.912   0.878
 2047TIP3   OH2 6146   0.548   0.252   1.438
 2047TIP3    H1 6147   0.582   0.187   1.377
 2047TIP3    H2 6148   0.467   0.213   1.471
 2048TIP3   OH2 6149   5.294   3.408   0.401
 2048TIP3    H1 6150   5.350   3.478   0.368
 2048TIP3    H2 6151   5.211   3.452   0.421
 2049TIP3   OH2 6152   2.056   0.440   1.635
 2049TIP3    H1 6153   2.019   0.373   1.578
 2049TIP3    H2 6154   2.150   0.434   1.622
 2050TIP3   OH2 6155   5.024   2.197   1.624
 2050TIP3    H1 6156   4.929   2.189   1.633
 2050TIP3    H2 6157   5.058   2.159   1.704
 2051TIP3   OH2 6158   6.103   4.302   3.324
 2051TIP3    H1 6159   6.095   4.271   3.415
 2051TIP3    H2 6160   6.059   4.234   3.273
 2052TIP3   OH2 6161   1.805   2.283   3.642
 2052TIP3    H1 6162   1.720   2.247   3.669
 2052TIP3    H2 6163   1.864   2.208   3.643
 2053TIP3   OH2 6164   2.031   4.265   1.351
 2053TIP3    H1 6165   1.992   4.221   1.276
 2053TIP3    H2 6166   2.115   4.222   1.364
 2054TIP3   OH2 6167   6.266   0.412   1.914
 2054TIP3    H1 6168   6.342   0.460   1.948
 2054TIP3    H2 6169   6.291   0.389   1.824
 2055TIP3   OH2 6170   4.399   2.013   2.021
 2055TIP3    H1 6171   4.355   2.060   1.950
 2055TIP3    H2 6172   4.367   1.924   2.014
 2056TIP3   OH2 6173   5.653   5.402   3.555
 2056TIP3    H1 6174   5.587   5.415   3.623
 2056TIP3    H2 6175   5.682   5.491   3.532
 2057TIP3   OH2 6176   1.459   5.456   4.962
 2057TIP3    H1 6177   1.503   5.424   5.041
 2057TIP3    H2 6178   1.513   5.530   4.933
 2058TIP3   OH2 6179   4.366   2.071   4.865
 2058TIP3    H1 6180   4.333   2.130   4.798
 2058TIP3    H2 6181   4.379   2.127   4.942
 2059TIP3   OH2 6182   0.842   3.249   1.857
 2059TIP3    H1 6183   0.811   3.159   1.867
 2059TIP3    H2 6184   0.762   3.301   1.847
 2060TIP3   OH2 6185   3.790   3.366   4.042
 2060TIP3    H1 6186   3.748   3.300   4.097
 2060TIP3    H2 6187   3.730   3.440   4.044
 2061TIP3   OH2 6188   2.453   2.638   3.113
 2061TIP3    H1 6189   2.483   2.630   3.204
 2061TIP3    H2 6190   2.525   2.602   3.061
 2062TIP3   OH2 6191   4.112   0.903   2.229
 2062TIP3    H1 6192   4.059   0.944   2.297
 2062TIP3    H2 6193   4.198   0.945   2.237
 2063TIP3   OH2 6194   2.280   2.953   3.736
 2063TIP3    H1 6195   2.192   2.984   3.759
 2063TIP3    H2 6196   2.332   2.968   3.815
 2064TIP3   OH2 6197   0.640   1.995   0.276
 2064TIP3    H1 6198   0.626   1.978   0.369
 2064TIP3    H2 6199   0.727   1.960   0.258
 2065TIP3   OH2 6200   3.467   1.617   1.731
 2065TIP3    H1 6201   3.485   1.614   1.825
 2065TIP3    H2 6202   3.378   1.584   1.722
 2066TIP3   OH2 6203   5.486   5.724   4.532
 2066TIP3    H1 6204   5.536   5.799   4.499
 2066TIP3    H2 6205   5.401   5.730   4.488
 2067TIP3   OH2 6206   4.004   1.472   3.828
 2067TIP3    H1 6207   3.974   1.546   3.775
 2067TIP3    H2 6208   3.924   1.433   3.863
 2068TIP3   OH2 6209   4.951   4.234   1.774
 2068TIP3    H1 6210   4.971   4.297   1.843
 2068TIP3    H2 6211   4.884   4.177   1.812
 2069TIP3   OH2 6212   0.409   3.515   0.320
 2069TIP3    H1 6213   0.363   3.598   0.335
 2069TIP3    H2 6214   0.491   3.541   0.278
 2070TIP3   OH2 6215   5.859   3.999   1.491
 2070TIP3    H1 6216   5.881   3.920   1.443
 2070TIP3    H2 6217   5.889   4.070   1.434
 2071TIP3   OH2 6218   5.799   2.973   4.558
 2071TIP3    H1 6219   5.891   2.951   4.571
 2071TIP3    H2 6220   5.752   2.928   4.628
 2072TIP3   OH2 6221   4.014   0.367   3.497
 2072TIP3    H1 6222   3.945   0.347   3.561
 2072TIP3    H2 6223   4.084   0.305   3.518
 2073TIP3   OH2 6224   2.101   2.873   0.977
 2073TIP3    H1 6225   2.152   2.931   0.921
 2073TIP3    H2 6226   2.150   2.871   1.060
 2074TIP3   OH2 6227   3.749   1.152   0.090
 2074TIP3    H1 6228   3.747   1.182  -0.001
 2074TIP3    H2 6229   3.802   1.072   0.086
 2075TIP3   OH2 6230   2.493   4.282   3.452
 2075TIP3    H1 6231   2.535   4.258   3.369
 2075TIP3    H2 6232   2.518   4.374   3.466
 2076TIP3   OH2 6233   3.354   0.432   0.609
 2076TIP3    H1 6234   3.322   0.396   0.691
 2076TIP3    H2 6235   3.425   0.374   0.583
 2077TIP3   OH2 6236   0.536   3.233   1.033
 2077TIP3    H1 6237   0.523   3.138   1.035
 2077TIP3    H2 6238   0.451   3.268   1.008
 2078TIP3   OH2 6239   1.793   5.158   3.507
 2078TIP3    H1 6240   1.743   5.186   3.431
 2078TIP3    H2 6241   1.857   5.229   3.522
 2079TIP3   OH2 6242   1.981   0.885   0.640
 2079TIP3    H1 6243   2.042   0.946   0.600
 2079TIP3    H2 6244   1.895   0.916   0.613
 2080TIP3   OH2 6245   2.241   2.325   1.676
 2080TIP3    H1 6246   2.161   2.350   1.629
 2080TIP3    H2 6247   2.300   2.293   1.607
 2081TIP3   OH2 6248   4.482   5.665   4.581
 2081TIP3    H1 6249   4.527   5.684   4.499
 2081TIP3    H2 6250   4.500   5.573   4.597
 2082TIP3   OH2 6251   1.477   5.738   0.090
 2082TIP3    H1 6252   1.411   5.789   0.137
 2082TIP3    H2 6253   1.426   5.674   0.040
 2083TIP3   OH2 6254   1.684   5.504   3.451
 2083TIP3    H1 6255   1.625   5.564   3.497
 2083TIP3    H2 6256   1.627   5.457   3.389
 2084TIP3   OH2 6257   2.375   1.324   0.313
 2084TIP3    H1 6258   2.435   1.386   0.354
 2084TIP3    H2 6259   2.383   1.244   0.366
 2085TIP3   OH2 6260   4.850   0.418   1.679
 2085TIP3    H1 6261   4.871   0.432   1.771
 2085TIP3    H2 6262   4.934   0.404   1.637
 2086TIP3   OH2 6263   2.111   1.933   3.322
 2086TIP3    H1 6264   2.150   1.990   3.256
 2086TIP3    H2 6265   2.168   1.857   3.325
 2087TIP3   OH2 6266   4.454   3.804   1.855
 2087TIP3    H1 6267   4.442   3.842   1.942
 2087TIP3    H2 6268   4.547   3.816   1.836
 2088TIP3   OH2 6269   4.890   0.350   0.370
 2088TIP3    H1 6270   4.901   0.275   0.429
 2088TIP3    H2 6271   4.864   0.310   0.286
 2089TIP3   OH2 6272   1.485   5.635   0.815
 2089TIP3    H1 6273   1.556   5.664   0.758
 2089TIP3    H2 6274   1.407   5.635   0.759
 2090TIP3   OH2 6275   0.379   4.213   3.825
 2090TIP3    H1 6276   0.430   4.160   3.762
 2090TIP3    H2 6277   0.392   4.169   3.909
 2091TIP3   OH2 6278   2.863   3.505   2.967
 2091TIP3    H1 6279   2.889   3.468   3.052
 2091TIP3    H2 6280   2.886   3.598   2.974
 2092TIP3   OH2 6281   2.953   0.731   3.631
 2092TIP3    H1 6282   2.879   0.760   3.578
 2092TIP3    H2 6283   3.010   0.684   3.570
 2093TIP3   OH2 6284   1.073   5.048   0.902
 2093TIP3    H1 6285   0.986   5.073   0.870
 2093TIP3    H2 6286   1.096   4.970   0.852
 2094TIP3   OH2 6287   1.373   5.147   3.453
 2094TIP3    H1 6288   1.351   5.142   3.360
 2094TIP3    H2 6289   1.425   5.227   3.461
 2095TIP3   OH2 6290   2.403   5.965   4.681
 2095TIP3    H1 6291   2.481   5.994   4.727
 2095TIP3    H2 6292   2.389   5.875   4.711
 2096TIP3   OH2 6293   0.421   5.171   1.941
 2096TIP3    H1 6294   0.396   5.236   2.007
 2096TIP3    H2 6295   0.447   5.223   1.865
 2097TIP3   OH2 6296   3.644   0.312   1.631
 2097TIP3    H1 6297   3.721   0.334   1.684
 2097TIP3    H2 6298   3.588   0.262   1.690
 2098TIP3   OH2 6299   5.268   1.871   4.667
 2098TIP3    H1 6300   5.335   1.873   4.598
 2098TIP3    H2 6301   5.187   1.894   4.622
 2099TIP3   OH2 6302   1.703   4.229   3.219
 2099TIP3    H1 6303   1.628   4.288   3.234
 2099TIP3    H2 6304   1.678   4.147   3.262
 2100TIP3   OH2 6305   2.832   3.562   3.687
 2100TIP3    H1 6306   2.902   3.625   3.700
 2100TIP3    H2 6307   2.853   3.519   3.604
 2101TIP3   OH2 6308   4.818   4.666   4.511
 2101TIP3    H1 6309   4.743   4.667   4.452
 2101TIP3    H2 6310   4.815   4.750   4.556
 2102TIP3   OH2 6311   3.004   0.285   0.705
 2102TIP3    H1 6312   3.090   0.245   0.720
 2102TIP3    H2 6313   2.998   0.353   0.772
 2103TIP3   OH2 6314   4.313   5.067   4.979
 2103TIP3    H1 6315   4.257   5.127   4.931
 2103TIP3    H2 6316   4.252   5.001   5.014
 2104TIP3   OH2 6317   3.373   3.736   4.801
 2104TIP3    H1 6318   3.287   3.696   4.818
 2104TIP3    H2 6319   3.429   3.663   4.778
 2105TIP3   OH2 6320   4.485   2.079   1.725
 2105TIP3    H1 6321   4.467   2.103   1.634
 2105TIP3    H2 6322   4.401   2.053   1.761
 2106TIP3   OH2 6323   3.868   0.709   3.095
 2106TIP3    H1 6324   3.924   0.641   3.132
 2106TIP3    H2 6325   3.923   0.787   3.094
 2107TIP3   OH2 6326   4.082   2.560   0.610
 2107TIP3    H1 6327   4.011   2.618   0.637
 2107TIP3    H2 6328   4.057   2.474   0.643
 2108TIP3   OH2 6329   2.300   1.375   2.509
 2108TIP3    H1 6330   2.387   1.335   2.514
 2108TIP3    H2 6331   2.295   1.430   2.588
 2109TIP3   OH2 6332   3.764   2.505   0.139
 2109TIP3    H1 6333   3.784   2.492   0.231
 2109TIP3    H2 6334   3.734   2.596   0.134
 2110TIP3   OH2 6335   2.158   0.802   0.379
 2110TIP3    H1 6336   2.199   0.730   0.428
 2110TIP3    H2 6337   2.152   0.873   0.443
 2111TIP3   OH2 6338   6.220   5.253   0.294
 2111TIP3    H1 6339   6.137   5.206   0.292
 2111TIP3    H2 6340   6.206   5.325   0.356
 2112TIP3   OH2 6341   5.123   3.181   4.041
 2112TIP3    H1 6342   5.206   3.219   4.010
 2112TIP3    H2 6343   5.116   3.098   3.995
 2113TIP3   OH2 6344   2.285   1.458   2.234
 2113TIP3    H1 6345   2.374   1.431   2.211
 2113TIP3    H2 6346   2.282   1.455   2.329
 2114TIP3   OH2 6347   3.303   4.647   1.065
 2114TIP3    H1 6348   3.303   4.593   0.986
 2114TIP3    H2 6349   3.395   4.650   1.092
 2115TIP3   OH2 6350   2.899   5.519   4.384
 2115TIP3    H1 6351   2.864   5.601   4.418
 2115TIP3    H2 6352   2.994   5.529   4.389
 2116TIP3   OH2 6353   0.506   5.236   1.667
 2116TIP3    H1 6354   0.504   5.204   1.577
 2116TIP3    H2 6355   0.485   5.329   1.660
 2117TIP3   OH2 6356   1.679   3.946   1.770
 2117TIP3    H1 6357   1.592   3.906   1.769
 2117TIP3    H2 6358   1.735   3.881   1.812
 2118TIP3   OH2 6359   1.381   4.781   2.399
 2118TIP3    H1 6360   1.336   4.860   2.369
 2118TIP3    H2 6361   1.469   4.788   2.363
 2119TIP3   OH2 6362   5.287   0.971   2.082
 2119TIP3    H1 6363   5.328   0.908   2.023
 2119TIP3    H2 6364   5.288   1.054   2.034
 2120TIP3   OH2 6365   6.275   5.570   3.210
 2120TIP3    H1 6366   6.210   5.611   3.153
 2120TIP3    H2 6367   6.347   5.634   3.213
 2121TIP3   OH2 6368   1.965   3.805   1.245
 2121TIP3    H1 6369   1.875   3.779   1.230
 2121TIP3    H2 6370   1.997   3.831   1.159
 2122TIP3   OH2 6371   2.736   2.516   2.663
 2122TIP3    H1 6372   2.769   2.606   2.659
 2122TIP3    H2 6373   2.791   2.468   2.601
 2123TIP3   OH2 6374   4.271   5.496   3.774
 2123TIP3    H1 6375   4.357   5.465   3.804
 2123TIP3    H2 6376   4.291   5.553   3.700
 2124TIP3   OH2 6377   4.125   1.886   2.198
 2124TIP3    H1 6378   4.167   1.964   2.235
 2124TIP3    H2 6379   4.179   1.862   2.123
 2125TIP3   OH2 6380   5.543   2.555   5.197
 2125TIP3    H1 6381   5.462   2.600   5.219
 2125TIP3    H2 6382   5.531   2.527   5.106
 2126TIP3   OH2 6383   2.284   3.497   2.707
 2126TIP3    H1 6384   2.325   3.487   2.793
 2126TIP3    H2 6385   2.302   3.415   2.662
 2127TIP3   OH2 6386   2.865   0.841   0.478
 2127TIP3    H1 6387   2.898   0.898   0.408
 2127TIP3    H2 6388   2.817   0.772   0.433
 2128TIP3   OH2 6389   4.652   0.760   1.055
 2128TIP3    H1 6390   4.748   0.757   1.049
 2128TIP3    H2 6391   4.629   0.679   1.101
 2129TIP3   OH2 6392   3.952   4.940   2.713
 2129TIP3    H1 6393   3.898   5.008   2.673
 2129TIP3    H2 6394   3.940   4.863   2.657
 2130TIP3   OH2 6395   2.138   1.206   2.090
 2130TIP3    H1 6396   2.167   1.296   2.075
 2130TIP3    H2 6397   2.175   1.182   2.175
 2131TIP3   OH2 6398   4.810   5.559   5.040
 2131TIP3    H1 6399   4.791   5.582   5.131
 2131TIP3    H2 6400   4.724   5.539   5.002
 2132TIP3   OH2 6401   3.605   3.927   4.875
 2132TIP3    H1 6402   3.686   3.895   4.834
 2132TIP3    H2 6403   3.537   3.868   4.842
 2133TIP3   OH2 6404   6.119   0.263   2.561
 2133TIP3    H1 6405   6.178   0.195   2.528
 2133TIP3    H2 6406   6.051   0.214   2.609
 2134TIP3   OH2 6407   5.440   3.463   4.377
 2134TIP3    H1 6408   5.528   3.492   4.353
 2134TIP3    H2 6409   5.415   3.518   4.451
 2135TIP3   OH2 6410   2.605  -0.012   3.055
 2135TIP3    H1 6411   2.537   0.050   3.028
 2135TIP3    H2 6412   2.568  -0.098   3.034
 2136TIP3   OH2 6413   5.181   0.583   1.604
 2136TIP3    H1 6414   5.170   0.502   1.652
 2136TIP3    H2 6415   5.107   0.586   1.544
 2137TIP3   OH2 6416   4.418   3.412   4.833
 2137TIP3    H1 6417   4.488   3.445   4.890
 2137TIP3    H2 6418   4.369   3.351   4.888
 2138TIP3   OH2 6419   0.865   4.966   4.754
 2138TIP3    H1 6420   0.890   4.999   4.667
 2138TIP3    H2 6421   0.803   4.896   4.735
 2139TIP3   OH2 6422   3.784   5.228   0.048
 2139TIP3    H1 6423   3.704   5.243  -0.002
 2139TIP3    H2 6424   3.854   5.237  -0.016
 2140TIP3   OH2 6425   4.216   3.264   0.837
 2140TIP3    H1 6426   4.280   3.334   0.830
 2140TIP3    H2 6427   4.234   3.222   0.921
 2141TIP3   OH2 6428   1.337   3.083   5.073
 2141TIP3    H1 6429   1.327   2.990   5.091
 2141TIP3    H2 6430   1.276   3.101   5.002
 2142TIP3   OH2 6431   2.252   2.481   0.382
 2142TIP3    H1 6432   2.278   2.573   0.386
 2142TIP3    H2 6433   2.264   2.456   0.291
 2143TIP3   OH2 6434   1.715   1.996   1.648
 2143TIP3    H1 6435   1.755   2.068   1.600
 2143TIP3    H2 6436   1.649   1.960   1.587
 2144TIP3   OH2 6437   2.972   5.202   3.067
 2144TIP3    H1 6438   2.945   5.251   3.145
 2144TIP3    H2 6439   2.995   5.115   3.099
 2145TIP3   OH2 6440   2.789   5.959   0.018
 2145TIP3    H1 6441   2.714   5.929  -0.034
 2145TIP3    H2 6442   2.861   5.902  -0.009
 2146TIP3   OH2 6443   1.492   0.401   3.417
 2146TIP3    H1 6444   1.531   0.464   3.477
 2146TIP3    H2 6445   1.397   0.413   3.427
 2147TIP3   OH2 6446   3.678   3.792   0.078
 2147TIP3    H1 6447   3.694   3.846   0.001
 2147TIP3    H2 6448   3.739   3.719   0.069
 2148TIP3   OH2 6449   4.633   4.553   3.988
 2148TIP3    H1 6450   4.706   4.501   3.956
 2148TIP3    H2 6451   4.575   4.489   4.031
 2149TIP3   OH2 6452   5.447   0.166   4.866
 2149TIP3    H1 6453   5.492   0.237   4.913
 2149TIP3    H2 6454   5.406   0.114   4.934
 2150TIP3   OH2 6455   2.758   3.289   0.786
 2150TIP3    H1 6456   2.843   3.326   0.808
 2150TIP3    H2 6457   2.704   3.305   0.864
 2151TIP3   OH2 6458   3.592   1.937   4.733
 2151TIP3    H1 6459   3.561   1.862   4.784
 2151TIP3    H2 6460   3.676   1.909   4.697
 2152TIP3   OH2 6461   0.176   5.702   4.480
 2152TIP3    H1 6462   0.103   5.642   4.490
 2152TIP3    H2 6463   0.181   5.718   4.385
 2153TIP3   OH2 6464   4.252   3.505   2.514
 2153TIP3    H1 6465   4.324   3.462   2.468
 2153TIP3    H2 6466   4.176   3.449   2.498
 2154TIP3   OH2 6467   2.629   4.123   4.085
 2154TIP3    H1 6468   2.616   4.070   4.163
 2154TIP3    H2 6469   2.687   4.194   4.113
 2155TIP3   OH2 6470   2.201   2.725   4.541
 2155TIP3    H1 6471   2.270   2.660   4.553
 2155TIP3    H2 6472   2.124   2.674   4.516
 2156TIP3   OH2 6473   1.848   3.717   2.937
 2156TIP3    H1 6474   1.913   3.652   2.963
 2156TIP3    H2 6475   1.791   3.671   2.875
 2157TIP3   OH2 6476   1.536   0.457   2.406
 2157TIP3    H1 6477   1.466   0.401   2.438
 2157TIP3    H2 6478   1.509   0.546   2.431
 2158TIP3   OH2 6479   1.972   0.582   5.151
 2158TIP3    H1 6480   1.877   0.588   5.147
 2158TIP3    H2 6481   1.991   0.492   5.121
 2159TIP3   OH2 6482   4.989   4.070   0.370
 2159TIP3    H1 6483   5.011   4.159   0.341
 2159TIP3    H2 6484   5.032   4.013   0.306
 2160TIP3   OH2 6485   3.447   5.977   4.705
 2160TIP3    H1 6486   3.380   6.030   4.748
 2160TIP3    H2 6487   3.446   5.893   4.751
 2161TIP3   OH2 6488   5.490   3.271   3.157
 2161TIP3    H1 6489   5.466   3.241   3.070
 2161TIP3    H2 6490   5.407   3.287   3.202
 2162TIP3   OH2 6491   5.912   4.872   4.716
 2162TIP3    H1 6492   5.830   4.913   4.690
 2162TIP3    H2 6493   5.901   4.855   4.810
 2163TIP3   OH2 6494   0.294   4.565   3.624
 2163TIP3    H1 6495   0.264   4.651   3.594
 2163TIP3    H2 6496   0.384   4.558   3.590
 2164TIP3   OH2 6497   5.899   2.641   4.640
 2164TIP3    H1 6498   5.933   2.551   4.644
 2164TIP3    H2 6499   5.874   2.653   4.548
 2165TIP3   OH2 6500   1.132   5.758   3.949
 2165TIP3    H1 6501   1.120   5.839   3.999
 2165TIP3    H2 6502   1.042   5.729   3.929
 2166TIP3   OH2 6503   5.175   5.779   2.079
 2166TIP3    H1 6504   5.270   5.776   2.067
 2166TIP3    H2 6505   5.139   5.757   1.993
 2167TIP3   OH2 6506   0.227   2.729   1.123
 2167TIP3    H1 6507   0.165   2.666   1.160
 2167TIP3    H2 6508   0.283   2.755   1.197
 2168TIP3   OH2 6509   0.081   5.289   1.997
 2168TIP3    H1 6510   0.070   5.194   1.993
 2168TIP3    H2 6511   0.051   5.312   2.085
 2169TIP3   OH2 6512   2.137   1.576   4.858
 2169TIP3    H1 6513   2.056   1.528   4.872
 2169TIP3    H2 6514   2.147   1.630   4.937
 2170TIP3   OH2 6515   5.840   2.849   3.710
 2170TIP3    H1 6516   5.913   2.895   3.668
 2170TIP3    H2 6517   5.871   2.828   3.797
 2171TIP3   OH2 6518   3.940   0.036   3.809
 2171TIP3    H1 6519   3.931   0.046   3.904
 2171TIP3    H2 6520   3.905  -0.051   3.791
 2172TIP3   OH2 6521   5.084   4.989   0.264
 2172TIP3    H1 6522   5.118   4.988   0.353
 2172TIP3    H2 6523   5.108   4.903   0.228
 2173TIP3   OH2 6524   5.524   2.233   3.367
 2173TIP3    H1 6525   5.533   2.170   3.438
 2173TIP3    H2 6526   5.614   2.255   3.344
 2174TIP3   OH2 6527   5.961   5.142   0.267
 2174TIP3    H1 6528   5.929   5.227   0.238
 2174TIP3    H2 6529   5.896   5.080   0.234
 2175TIP3   OH2 6530   0.430   3.057   4.929
 2175TIP3    H1 6531   0.504   3.116   4.942
 2175TIP3    H2 6532   0.470   2.971   4.914
 2176TIP3   OH2 6533   2.286   4.217   1.767
 2176TIP3    H1 6534   2.295   4.265   1.685
 2176TIP3    H2 6535   2.301   4.283   1.835
 2177TIP3   OH2 6536   5.239   1.186   3.135
 2177TIP3    H1 6537   5.206   1.188   3.225
 2177TIP3    H2 6538   5.174   1.136   3.086
 2178TIP3   OH2 6539   2.784   0.962   3.274
 2178TIP3    H1 6540   2.843   0.894   3.241
 2178TIP3    H2 6541   2.702   0.946   3.227
 2179TIP3   OH2 6542   5.154   2.901   2.415
 2179TIP3    H1 6543   5.153   2.975   2.475
 2179TIP3    H2 6544   5.136   2.825   2.470
 2180TIP3   OH2 6545   3.017   5.095   0.658
 2180TIP3    H1 6546   2.942   5.154   0.653
 2180TIP3    H2 6547   3.084   5.145   0.706
 2181TIP3   OH2 6548   4.349   3.317   3.870
 2181TIP3    H1 6549   4.348   3.224   3.892
 2181TIP3    H2 6550   4.430   3.350   3.910
 2182TIP3   OH2 6551   3.882   2.368   2.526
 2182TIP3    H1 6552   3.937   2.441   2.554
 2182TIP3    H2 6553   3.927   2.291   2.559
 2183TIP3   OH2 6554   4.732   1.184   1.172
 2183TIP3    H1 6555   4.690   1.189   1.258
 2183TIP3    H2 6556   4.782   1.266   1.165
 2184TIP3   OH2 6557   4.619   4.691   2.542
 2184TIP3    H1 6558   4.637   4.619   2.482
 2184TIP3    H2 6559   4.648   4.769   2.495
 2185TIP3   OH2 6560   5.894   4.324   1.670
 2185TIP3    H1 6561   5.819   4.378   1.645
 2185TIP3    H2 6562   5.936   4.301   1.587
 2186TIP3   OH2 6563   5.100   0.411   2.476
 2186TIP3    H1 6564   5.129   0.434   2.388
 2186TIP3    H2 6565   5.083   0.496   2.518
 2187TIP3   OH2 6566   0.486   0.716   1.909
 2187TIP3    H1 6567   0.524   0.770   1.979
 2187TIP3    H2 6568   0.544   0.731   1.834
 2188TIP3   OH2 6569   5.546   3.090   4.020
 2188TIP3    H1 6570   5.568   3.056   3.933
 2188TIP3    H2 6571   5.503   3.016   4.063
 2189TIP3   OH2 6572   1.656   0.156   0.894
 2189TIP3    H1 6573   1.589   0.155   0.826
 2189TIP3    H2 6574   1.717   0.086   0.870
 2190TIP3   OH2 6575   4.525   3.837   4.168
 2190TIP3    H1 6576   4.567   3.784   4.236
 2190TIP3    H2 6577   4.589   3.905   4.147
 2191TIP3   OH2 6578   3.272   2.953   2.874
 2191TIP3    H1 6579   3.347   2.964   2.815
 2191TIP3    H2 6580   3.252   3.041   2.906
 2192TIP3   OH2 6581   2.393   2.216   1.925
 2192TIP3    H1 6582   2.410   2.242   2.015
 2192TIP3    H2 6583   2.321   2.272   1.896
 2193TIP3   OH2 6584   4.140   5.432   0.244
 2193TIP3    H1 6585   4.087   5.358   0.214
 2193TIP3    H2 6586   4.089   5.509   0.219
 2194TIP3   OH2 6587   3.834   1.907   0.248
 2194TIP3    H1 6588   3.778   1.865   0.313
 2194TIP3    H2 6589   3.920   1.913   0.289
 2195TIP3   OH2 6590   2.826   4.915   4.288
 2195TIP3    H1 6591   2.744   4.901   4.335
 2195TIP3    H2 6592   2.889   4.935   4.357
 2196TIP3   OH2 6593   0.117   3.182   4.287
 2196TIP3    H1 6594   0.185   3.242   4.317
 2196TIP3    H2 6595   0.052   3.238   4.245
 2197TIP3   OH2 6596   0.453   5.250   0.325
 2197TIP3    H1 6597   0.407   5.310   0.266
 2197TIP3    H2 6598   0.411   5.165   0.309
 2198TIP3   OH2 6599   0.688   0.870   0.646
 2198TIP3    H1 6600   0.592   0.865   0.640
 2198TIP3    H2 6601   0.704   0.894   0.738
 2199TIP3   OH2 6602   6.081   0.360   4.196
 2199TIP3    H1 6603   6.034   0.441   4.179
 2199TIP3    H2 6604   6.143   0.381   4.265
 2200TIP3   OH2 6605   5.362   4.571   4.133
 2200TIP3    H1 6606   5.435   4.632   4.133
 2200TIP3    H2 6607   5.303   4.606   4.066
 2201TIP3   OH2 6608   2.618   4.295   2.970
 2201TIP3    H1 6609   2.671   4.269   2.895
 2201TIP3    H2 6610   2.536   4.246   2.960
 2202TIP3   OH2 6611   2.695   1.553   0.743
 2202TIP3    H1 6612   2.784   1.553   0.710
 2202TIP3    H2 6613   2.704   1.540   0.837
 2203TIP3   OH2 6614   2.386   3.193   1.190
 2203TIP3    H1 6615   2.428   3.108   1.177
 2203TIP3    H2 6616   2.295   3.171   1.211
 2204TIP3   OH2 6617   4.830   2.204   0.888
 2204TIP3    H1 6618   4.813   2.278   0.830
 2204TIP3    H2 6619   4.864   2.136   0.830
 2205TIP3   OH2 6620   3.271   5.842   1.168
 2205TIP3    H1 6621   3.216   5.916   1.192
 2205TIP3    H2 6622   3.313   5.815   1.250
 2206TIP3   OH2 6623   1.256   4.014   4.234
 2206TIP3    H1 6624   1.331   4.050   4.186
 2206TIP3    H2 6625   1.180   4.035   4.180
 2207TIP3   OH2 6626   2.144   5.110   2.200
 2207TIP3    H1 6627   2.216   5.150   2.151
 2207TIP3    H2 6628   2.125   5.174   2.269
 2208TIP3   OH2 6629   5.873   3.154   4.037
 2208TIP3    H1 6630   5.889   3.061   4.055
 2208TIP3    H2 6631   5.811   3.180   4.105
 2209TIP3   OH2 6632   3.429   2.554   4.115
 2209TIP3    H1 6633   3.411   2.548   4.209
 2209TIP3    H2 6634   3.343   2.544   4.074
 2210TIP3   OH2 6635   1.865   3.296   0.035
 2210TIP3    H1 6636   1.878   3.213   0.081
 2210TIP3    H2 6637   1.770   3.309   0.035
 2211TIP3   OH2 6638   4.580   5.414   4.922
 2211TIP3    H1 6639   4.574   5.415   4.827
 2211TIP3    H2 6640   4.490   5.399   4.952
 2212TIP3   OH2 6641   4.393   0.210   3.170
 2212TIP3    H1 6642   4.354   0.130   3.136
 2212TIP3    H2 6643   4.451   0.240   3.100
 2213TIP3   OH2 6644   0.558   2.989   0.249
 2213TIP3    H1 6645   0.577   2.919   0.312
 2213TIP3    H2 6646   0.611   3.063   0.280
 2214TIP3   OH2 6647   2.279   2.146   4.055
 2214TIP3    H1 6648   2.308   2.090   4.127
 2214TIP3    H2 6649   2.321   2.109   3.978
 2215TIP3   OH2 6650   1.276   4.988   1.095
 2215TIP3    H1 6651   1.270   5.040   1.175
 2215TIP3    H2 6652   1.227   5.039   1.030
 2216TIP3   OH2 6653   4.078   3.990   4.783
 2216TIP3    H1 6654   4.159   3.949   4.812
 2216TIP3    H2 6655   4.090   4.003   4.689
 2217TIP3   OH2 6656   3.509   2.803   0.691
 2217TIP3    H1 6657   3.449   2.857   0.742
 2217TIP3    H2 6658   3.454   2.765   0.621
 2218TIP3   OH2 6659   1.814   0.886   2.042
 2218TIP3    H1 6660   1.718   0.888   2.041
 2218TIP3    H2 6661   1.835   0.818   2.106
 2219TIP3   OH2 6662   1.709   2.068   0.890
 2219TIP3    H1 6663   1.627   2.083   0.843
 2219TIP3    H2 6664   1.763   2.018   0.829
 2220TIP3   OH2 6665   5.301   5.033   1.366
 2220TIP3    H1 6666   5.306   5.094   1.439
 2220TIP3    H2 6667   5.249   4.960   1.401
 2221TIP3   OH2 6668   3.378   3.455   4.316
 2221TIP3    H1 6669   3.284   3.472   4.326
 2221TIP3    H2 6670   3.395   3.378   4.371
 2222TIP3   OH2 6671   3.119   2.272   2.544
 2222TIP3    H1 6672   3.123   2.364   2.571
 2222TIP3    H2 6673   3.180   2.227   2.603
 2223TIP3   OH2 6674   4.274   0.204   2.499
 2223TIP3    H1 6675   4.271   0.119   2.543
 2223TIP3    H2 6676   4.361   0.208   2.459
 2224TIP3   OH2 6677   3.590   4.549   3.321
 2224TIP3    H1 6678   3.513   4.553   3.377
 2224TIP3    H2 6679   3.650   4.614   3.357
 2225TIP3   OH2 6680   3.269   0.756   4.669
 2225TIP3    H1 6681   3.265   0.695   4.596
 2225TIP3    H2 6682   3.187   0.805   4.664
 2226TIP3   OH2 6683   3.895   1.060   1.578
 2226TIP3    H1 6684   3.910   0.966   1.571
 2226TIP3    H2 6685   3.800   1.069   1.579
 2227TIP3   OH2 6686   1.831   3.095   5.006
 2227TIP3    H1 6687   1.899   3.057   5.062
 2227TIP3    H2 6688   1.842   3.190   5.018
 2228TIP3   OH2 6689   1.041   2.528   0.431
 2228TIP3    H1 6690   0.990   2.448   0.439
 2228TIP3    H2 6691   1.129   2.499   0.406
 2229TIP3   OH2 6692   1.497   0.330   5.073
 2229TIP3    H1 6693   1.433   0.277   5.122
 2229TIP3    H2 6694   1.578   0.280   5.078
 2230TIP3   OH2 6695   1.956   3.084   2.639
 2230TIP3    H1 6696   1.865   3.072   2.668
 2230TIP3    H2 6697   1.989   2.995   2.629
 2231TIP3   OH2 6698   1.877   2.188   0.024
 2231TIP3    H1 6699   1.860   2.242   0.102
 2231TIP3    H2 6700   1.894   2.101   0.059
 2232TIP3   OH2 6701   2.593   3.974   1.174
 2232TIP3    H1 6702   2.614   4.020   1.092
 2232TIP3    H2 6703   2.498   3.970   1.175
 2233TIP3   OH2 6704   0.543   4.535   3.504
 2233TIP3    H1 6705   0.619   4.594   3.496
 2233TIP3    H2 6706   0.569   4.472   3.572
 2234TIP3   OH2 6707   1.671   3.706   3.885
 2234TIP3    H1 6708   1.645   3.791   3.851
 2234TIP3    H2 6709   1.742   3.678   3.827
 2235TIP3   OH2 6710   0.130   1.233   3.162
 2235TIP3    H1 6711   0.167   1.145   3.175
 2235TIP3    H2 6712   0.117   1.239   3.067
 2236TIP3   OH2 6713   1.773   3.698   0.113
 2236TIP3    H1 6714   1.737   3.647   0.185
 2236TIP3    H2 6715   1.700   3.708   0.052
 2237TIP3   OH2 6716   5.540   4.741   3.103
 2237TIP3    H1 6717   5.456   4.702   3.076
 2237TIP3    H2 6718   5.591   4.744   3.022
 2238TIP3   OH2 6719   1.696   6.036   4.826
 2238TIP3    H1 6720   1.627   5.983   4.866
 2238TIP3    H2 6721   1.772   5.978   4.823
 2239TIP3   OH2 6722   4.729   1.525   0.672
 2239TIP3    H1 6723   4.641   1.509   0.639
 2239TIP3    H2 6724   4.754   1.609   0.634
 2240TIP3   OH2 6725   3.910   2.014   0.932
 2240TIP3    H1 6726   3.846   1.945   0.912
 2240TIP3    H2 6727   3.876   2.092   0.887
 2241TIP3   OH2 6728   0.242   3.419   4.347
 2241TIP3    H1 6729   0.189   3.483   4.396
 2241TIP3    H2 6730   0.294   3.472   4.287
 2242TIP3   OH2 6731   5.899   3.772   1.365
 2242TIP3    H1 6732   5.859   3.701   1.414
 2242TIP3    H2 6733   5.984   3.737   1.338
 2243TIP3   OH2 6734   3.991   0.237   4.182
 2243TIP3    H1 6735   4.006   0.328   4.156
 2243TIP3    H2 6736   4.031   0.229   4.268
 2244TIP3   OH2 6737   1.072   2.703   3.921
 2244TIP3    H1 6738   1.056   2.732   4.011
 2244TIP3    H2 6739   1.162   2.732   3.902
 2245TIP3   OH2 6740   5.142   0.151   2.189
 2245TIP3    H1 6741   5.197   0.114   2.258
 2245TIP3    H2 6742   5.137   0.081   2.123
 2246TIP3   OH2 6743   3.317   5.179   2.690
 2246TIP3    H1 6744   3.404   5.196   2.655
 2246TIP3    H2 6745   3.257   5.214   2.624
 2247TIP3   OH2 6746   3.157   2.360   4.594
 2247TIP3    H1 6747   3.226   2.328   4.652
 2247TIP3    H2 6748   3.095   2.288   4.588
 2248TIP3   OH2 6749   4.578   3.393   3.979
 2248TIP3    H1 6750   4.585   3.406   4.073
 2248TIP3    H2 6751   4.650   3.444   3.942
 2249TIP3   OH2 6752   1.091   5.150   2.602
 2249TIP3    H1 6753   1.154   5.081   2.579
 2249TIP3    H2 6754   1.036   5.159   2.525
 2250TIP3   OH2 6755   0.160   5.839   4.857
 2250TIP3    H1 6756   0.118   5.771   4.908
 2250TIP3    H2 6757   0.192   5.902   4.922
 2251TIP3   OH2 6758   5.562   0.992   1.782
 2251TIP3    H1 6759   5.632   1.053   1.759
 2251TIP3    H2 6760   5.491   1.047   1.813
 2252TIP3   OH2 6761   4.043   3.791   1.687
 2252TIP3    H1 6762   3.967   3.811   1.741
 2252TIP3    H2 6763   4.032   3.699   1.664
 2253TIP3   OH2 6764   5.660   5.461   1.615
 2253TIP3    H1 6765   5.611   5.488   1.693
 2253TIP3    H2 6766   5.710   5.385   1.644
 2254TIP3   OH2 6767   3.728   5.516   0.449
 2254TIP3    H1 6768   3.660   5.545   0.388
 2254TIP3    H2 6769   3.770   5.442   0.405
 2255TIP3   OH2 6770   0.599   3.303   4.958
 2255TIP3    H1 6771   0.625   3.318   4.867
 2255TIP3    H2 6772   0.528   3.365   4.973
 2256TIP3   OH2 6773   4.703   4.359   1.517
 2256TIP3    H1 6774   4.680   4.442   1.557
 2256TIP3    H2 6775   4.795   4.369   1.492
 2257TIP3   OH2 6776   1.564   0.601   4.388
 2257TIP3    H1 6777   1.656   0.588   4.410
 2257TIP3    H2 6778   1.527   0.513   4.386
 2258TIP3   OH2 6779   2.394   3.718   1.083
 2258TIP3    H1 6780   2.331   3.771   1.034
 2258TIP3    H2 6781   2.365   3.628   1.071
 2259TIP3   OH2 6782   2.967   0.367   4.694
 2259TIP3    H1 6783   3.018   0.335   4.620
 2259TIP3    H2 6784   3.011   0.446   4.723
 2260TIP3   OH2 6785   5.105   2.431   2.276
 2260TIP3    H1 6786   5.188   2.384   2.285
 2260TIP3    H2 6787   5.046   2.386   2.337
 2261TIP3   OH2 6788   0.205   4.656   4.285
 2261TIP3    H1 6789   0.271   4.594   4.255
 2261TIP3    H2 6790   0.160   4.684   4.205
 2262TIP3   OH2 6791   3.356   2.815   2.012
 2262TIP3    H1 6792   3.344   2.878   2.084
 2262TIP3    H2 6793   3.409   2.745   2.049
 2263TIP3   OH2 6794   4.679   0.964   3.395
 2263TIP3    H1 6795   4.775   0.974   3.393
 2263TIP3    H2 6796   4.663   0.877   3.360
 2264TIP3   OH2 6797   2.984   3.194   0.134
 2264TIP3    H1 6798   3.050   3.258   0.160
 2264TIP3    H2 6799   2.904   3.223   0.178
 2265TIP3   OH2 6800   0.145   5.642   1.157
 2265TIP3    H1 6801   0.184   5.704   1.218
 2265TIP3    H2 6802   0.082   5.593   1.210
 2266TIP3   OH2 6803   2.767   1.877   0.575
 2266TIP3    H1 6804   2.788   1.852   0.665
 2266TIP3    H2 6805   2.847   1.856   0.525
 2267TIP3   OH2 6806   5.799   2.593   2.685
 2267TIP3    H1 6807   5.829   2.502   2.679
 2267TIP3    H2 6808   5.738   2.603   2.612
 2268TIP3   OH2 6809   0.978   1.950   0.879
 2268TIP3    H1 6810   0.985   1.940   0.974
 2268TIP3    H2 6811   1.059   1.911   0.845
 2269TIP3   OH2 6812   5.736   3.140   1.153
 2269TIP3    H1 6813   5.723   3.110   1.243
 2269TIP3    H2 6814   5.773   3.228   1.162
 2270TIP3   OH2 6815   3.818   0.541   0.865
 2270TIP3    H1 6816   3.802   0.525   0.958
 2270TIP3    H2 6817   3.806   0.456   0.823
 2271TIP3   OH2 6818   0.268   5.247   3.015
 2271TIP3    H1 6819   0.204   5.243   2.944
 2271TIP3    H2 6820   0.258   5.335   3.052
 2272TIP3   OH2 6821   0.538   4.893   3.150
 2272TIP3    H1 6822   0.481   4.852   3.084
 2272TIP3    H2 6823   0.509   4.855   3.233
 2273TIP3   OH2 6824   3.333   4.882   4.660
 2273TIP3    H1 6825   3.367   4.799   4.693
 2273TIP3    H2 6826   3.242   4.862   4.637
 2274TIP3   OH2 6827   3.684   0.720   4.559
 2274TIP3    H1 6828   3.766   0.751   4.521
 2274TIP3    H2 6829   3.684   0.754   4.648
 2275TIP3   OH2 6830   1.038   3.594   0.676
 2275TIP3    H1 6831   1.131   3.592   0.698
 2275TIP3    H2 6832   1.027   3.525   0.610
 2276TIP3   OH2 6833   2.135   5.805   2.215
 2276TIP3    H1 6834   2.205   5.817   2.279
 2276TIP3    H2 6835   2.126   5.710   2.206
 2277TIP3   OH2 6836   3.866   4.632   3.113
 2277TIP3    H1 6837   3.959   4.631   3.093
 2277TIP3    H2 6838   3.856   4.700   3.179
 2278TIP3   OH2 6839   4.543   4.683   2.805
 2278TIP3    H1 6840   4.609   4.687   2.736
 2278TIP3    H2 6841   4.473   4.629   2.769
 2279TIP3   OH2 6842   1.195   1.653   0.530
 2279TIP3    H1 6843   1.275   1.639   0.580
 2279TIP3    H2 6844   1.221   1.707   0.456
 2280TIP3   OH2 6845   5.176   0.442   0.380
 2280TIP3    H1 6846   5.091   0.403   0.399
 2280TIP3    H2 6847   5.188   0.510   0.446
 2281TIP3   OH2 6848   2.454   1.920   0.266
 2281TIP3    H1 6849   2.450   2.010   0.296
 2281TIP3    H2 6850   2.524   1.881   0.318
 2282TIP3   OH2 6851   4.425   3.011   1.663
 2282TIP3    H1 6852   4.423   3.011   1.759
 2282TIP3    H2 6853   4.334   3.021   1.637
 2283TIP3   OH2 6854   5.400   4.627   3.675
 2283TIP3    H1 6855   5.357   4.651   3.593
 2283TIP3    H2 6856   5.488   4.666   3.668
 2284TIP3   OH2 6857   1.920   5.243   0.084
 2284TIP3    H1 6858   1.970   5.188   0.023
 2284TIP3    H2 6859   1.987   5.292   0.132
 2285TIP3   OH2 6860   4.654   0.158   1.735
 2285TIP3    H1 6861   4.599   0.175   1.811
 2285TIP3    H2 6862   4.703   0.239   1.722
 2286TIP3   OH2 6863   4.975   3.850   0.993
 2286TIP3    H1 6864   4.947   3.881   1.080
 2286TIP3    H2 6865   4.997   3.758   1.006
 2287TIP3   OH2 6866   3.664   5.732   5.013
 2287TIP3    H1 6867   3.657   5.807   5.072
 2287TIP3    H2 6868   3.577   5.723   4.975
 2288TIP3   OH2 6869   1.186   0.764   2.731
 2288TIP3    H1 6870   1.280   0.746   2.740
 2288TIP3    H2 6871   1.174   0.783   2.637
 2289TIP3   OH2 6872   2.477   3.714   4.402
 2289TIP3    H1 6873   2.527   3.706   4.483
 2289TIP3    H2 6874   2.389   3.685   4.426
 2290TIP3   OH2 6875   1.554   5.860   4.960
 2290TIP3    H1 6876   1.637   5.844   5.004
 2290TIP3    H2 6877   1.488   5.849   5.028
 2291TIP3   OH2 6878   4.996   1.825   2.434
 2291TIP3    H1 6879   5.029   1.913   2.449
 2291TIP3    H2 6880   4.961   1.827   2.345
 2292TIP3   OH2 6881   0.141   1.465   1.924
 2292TIP3    H1 6882   0.087   1.543   1.928
 2292TIP3    H2 6883   0.080   1.393   1.940
 2293TIP3   OH2 6884   4.508   2.237   2.698
 2293TIP3    H1 6885   4.586   2.191   2.729
 2293TIP3    H2 6886   4.465   2.175   2.639
 2294TIP3   OH2 6887   0.416   0.862   0.680
 2294TIP3    H1 6888   0.379   0.853   0.768
 2294TIP3    H2 6889   0.372   0.939   0.643
 2295TIP3   OH2 6890   4.454   5.712   5.182
 2295TIP3    H1 6891   4.496   5.760   5.110
 2295TIP3    H2 6892   4.442   5.778   5.251
 2296TIP3   OH2 6893   4.038   4.043   1.189
 2296TIP3    H1 6894   4.042   3.965   1.134
 2296TIP3    H2 6895   4.057   4.011   1.277
 2297TIP3   OH2 6896   0.296   3.890   3.710
 2297TIP3    H1 6897   0.245   3.902   3.630
 2297TIP3    H2 6898   0.387   3.906   3.683
 2298TIP3   OH2 6899   4.715   2.831   4.313
 2298TIP3    H1 6900   4.736   2.778   4.236
 2298TIP3    H2 6901   4.621   2.849   4.304
 2299TIP3   OH2 6902   0.911   4.869   3.973
 2299TIP3    H1 6903   0.859   4.949   3.965
 2299TIP3    H2 6904   0.983   4.881   3.911
 2300TIP3   OH2 6905   5.643   2.305   1.588
 2300TIP3    H1 6906   5.700   2.301   1.665
 2300TIP3    H2 6907   5.649   2.217   1.550
 2301TIP3   OH2 6908   0.675   5.853   3.336
 2301TIP3    H1 6909   0.629   5.830   3.417
 2301TIP3    H2 6910   0.606   5.879   3.276
 2302TIP3   OH2 6911   2.816   3.377   3.479
 2302TIP3    H1 6912   2.767   3.302   3.512
 2302TIP3    H2 6913   2.888   3.339   3.429
 2303TIP3   OH2 6914   5.831   5.922   3.026
 2303TIP3    H1 6915   5.795   6.008   3.007
 2303TIP3    H2 6916   5.800   5.866   2.955
 2304TIP3   OH2 6917   4.138   1.189   4.402
 2304TIP3    H1 6918   4.095   1.274   4.395
 2304TIP3    H2 6919   4.112   1.155   4.487
 2305TIP3   OH2 6920   6.134   4.683   2.738
 2305TIP3    H1 6921   6.087   4.645   2.664
 2305TIP3    H2 6922   6.112   4.776   2.736
 2306TIP3   OH2 6923   1.506   2.677   4.359
 2306TIP3    H1 6924   1.595   2.678   4.394
 2306TIP3    H2 6925   1.479   2.585   4.361
 2307TIP3   OH2 6926   1.736   3.208   1.276
 2307TIP3    H1 6927   1.651   3.179   1.308
 2307TIP3    H2 6928   1.716   3.267   1.204
 2308TIP3   OH2 6929   0.533   1.623   5.121
 2308TIP3    H1 6930   0.439   1.603   5.110
 2308TIP3    H2 6931   0.548   1.697   5.063
 2309TIP3   OH2 6932   1.016   2.484   4.976
 2309TIP3    H1 6933   1.099   2.439   4.959
 2309TIP3    H2 6934   0.951   2.436   4.925
 2310TIP3   OH2 6935   5.879   2.182   0.514
 2310TIP3    H1 6936   5.938   2.250   0.546
 2310TIP3    H2 6937   5.886   2.111   0.579
 2311TIP3   OH2 6938   1.999   2.481   3.605
 2311TIP3    H1 6939   2.030   2.456   3.518
 2311TIP3    H2 6940   1.909   2.449   3.608
 2312TIP3   OH2 6941   2.477   5.526   2.486
 2312TIP3    H1 6942   2.513   5.584   2.418
 2312TIP3    H2 6943   2.550   5.469   2.509
 2313TIP3   OH2 6944   4.346   1.581   5.192
 2313TIP3    H1 6945   4.386   1.523   5.127
 2313TIP3    H2 6946   4.296   1.644   5.140
 2314TIP3   OH2 6947   5.978   3.689   3.261
 2314TIP3    H1 6948   6.059   3.657   3.303
 2314TIP3    H2 6949   5.996   3.685   3.168
 2315TIP3   OH2 6950   2.510   1.963   2.878
 2315TIP3    H1 6951   2.591   1.999   2.914
 2315TIP3    H2 6952   2.489   2.021   2.805
 2316TIP3   OH2 6953   5.242   1.732   3.823
 2316TIP3    H1 6954   5.224   1.826   3.827
 2316TIP3    H2 6955   5.186   1.694   3.891
 2317TIP3   OH2 6956   4.927   3.357   4.108
 2317TIP3    H1 6957   4.904   3.400   4.025
 2317TIP3    H2 6958   4.992   3.292   4.084
 2318TIP3   OH2 6959   0.994   2.541   0.770
 2318TIP3    H1 6960   1.064   2.600   0.742
 2318TIP3    H2 6961   0.919   2.599   0.785
 2319TIP3   OH2 6962   3.766   3.456   1.594
 2319TIP3    H1 6963   3.859   3.470   1.609
 2319TIP3    H2 6964   3.724   3.492   1.672
 2320TIP3   OH2 6965   6.313   0.880   4.357
 2320TIP3    H1 6966   6.380   0.892   4.290
 2320TIP3    H2 6967   6.238   0.930   4.326
 2321TIP3   OH2 6968   5.342   0.662   4.964
 2321TIP3    H1 6969   5.247   0.660   4.962
 2321TIP3    H2 6970   5.365   0.743   4.919
 2322TIP3   OH2 6971   5.264   2.956   0.946
 2322TIP3    H1 6972   5.189   2.910   0.908
 2322TIP3    H2 6973   5.226   3.028   0.996
 2323TIP3   OH2 6974   3.144   3.407   1.675
 2323TIP3    H1 6975   3.192   3.376   1.752
 2323TIP3    H2 6976   3.076   3.341   1.661
 2324TIP3   OH2 6977   0.873   2.623   1.675
 2324TIP3    H1 6978   0.898   2.532   1.657
 2324TIP3    H2 6979   0.949   2.661   1.718
 2325TIP3   OH2 6980   3.942   0.500   1.468
 2325TIP3    H1 6981   3.901   0.417   1.492
 2325TIP3    H2 6982   4.024   0.475   1.424
 2326TIP3   OH2 6983   4.454   1.251   4.332
 2326TIP3    H1 6984   4.536   1.206   4.308
 2326TIP3    H2 6985   4.391   1.180   4.347
 2327TIP3   OH2 6986   1.354   2.718   2.829
 2327TIP3    H1 6987   1.301   2.638   2.824
 2327TIP3    H2 6988   1.440   2.688   2.858
 2328TIP3   OH2 6989   0.609   0.412   4.095
 2328TIP3    H1 6990   0.532   0.438   4.145
 2328TIP3    H2 6991   0.582   0.330   4.052
 2329TIP3   OH2 6992   0.828   3.944   3.575
 2329TIP3    H1 6993   0.876   4.024   3.554
 2329TIP3    H2 6994   0.895   3.876   3.583
 2330TIP3   OH2 6995   0.020   0.195   3.322
 2330TIP3    H1 6996  -0.047   0.128   3.334
 2330TIP3    H2 6997   0.101   0.145   3.308
 2331TIP3   OH2 6998   4.252   3.138   4.893
 2331TIP3    H1 6999   4.214   3.061   4.852
 2331TIP3    H2 7000   4.247   3.120   4.987
 2332TIP3   OH2 7001   3.346   2.222   4.733
 2332TIP3    H1 7002   3.345   2.142   4.679
 2332TIP3    H2 7003   3.439   2.239   4.747
 2333TIP3   OH2 7004   5.113   0.806   3.808
 2333TIP3    H1 7005   5.204   0.832   3.794
 2333TIP3    H2 7006   5.111   0.774   3.898
 2334TIP3   OH2 7007   4.902   2.798   1.170
 2334TIP3    H1 7008   4.961   2.784   1.244
 2334TIP3    H2 7009   4.935   2.739   1.102
 2335TIP3   OH2 7010   1.615   4.088   1.174
 2335TIP3    H1 7011   1.540   4.066   1.119
 2335TIP3    H2 7012   1.676   4.015   1.161
 2336TIP3   OH2 7013   4.498   0.035   0.899
 2336TIP3    H1 7014   4.507  -0.033   0.965
 2336TIP3    H2 7015   4.585   0.040   0.858
 2337TIP3   OH2 7016   5.754   5.474   1.359
 2337TIP3    H1 7017   5.839   5.516   1.369
 2337TIP3    H2 7018   5.707   5.496   1.439
 2338TIP3   OH2 7019   1.562   2.603   2.953
 2338TIP3    H1 7020   1.580   2.561   3.037
 2338TIP3    H2 7021   1.620   2.558   2.891
 2339TIP3   OH2 7022   4.594   5.708   2.737
 2339TIP3    H1 7023   4.675   5.708   2.686
 2339TIP3    H2 7024   4.548   5.628   2.709
 2340TIP3   OH2 7025   2.607   2.642   0.098
 2340TIP3    H1 7026   2.526   2.671   0.056
 2340TIP3    H2 7027   2.584   2.558   0.138
 2341TIP3   OH2 7028   1.103   4.204   0.547
 2341TIP3    H1 7029   1.048   4.128   0.564
 2341TIP3    H2 7030   1.067   4.244   0.468
 2342TIP3   OH2 7031   1.790   2.963   1.090
 2342TIP3    H1 7032   1.819   3.029   1.027
 2342TIP3    H2 7033   1.871   2.924   1.124
 2343TIP3   OH2 7034   2.368   2.695   2.490
 2343TIP3    H1 7035   2.336   2.743   2.414
 2343TIP3    H2 7036   2.454   2.733   2.509
 2344TIP3   OH2 7037   1.721   5.574   1.092
 2344TIP3    H1 7038   1.778   5.498   1.105
 2344TIP3    H2 7039   1.636   5.536   1.069
 2345TIP3   OH2 7040   4.144   5.651   1.956
 2345TIP3    H1 7041   4.108   5.680   2.040
 2345TIP3    H2 7042   4.207   5.583   1.980
 2346TIP3   OH2 7043   2.129   3.084   2.897
 2346TIP3    H1 7044   2.208   3.038   2.928
 2346TIP3    H2 7045   2.129   3.070   2.802
 2347TIP3   OH2 7046   0.078   5.294   4.101
 2347TIP3    H1 7047   0.076   5.323   4.010
 2347TIP3    H2 7048  -0.014   5.292   4.127
 2348TIP3   OH2 7049   1.512   4.162   4.775
 2348TIP3    H1 7050   1.589   4.216   4.793
 2348TIP3    H2 7051   1.438   4.221   4.790
 2349TIP3   OH2 7052   4.967   4.280   2.508
 2349TIP3    H1 7053   4.984   4.290   2.602
 2349TIP3    H2 7054   4.985   4.188   2.490
 2350TIP3   OH2 7055   2.986   5.296   1.366
 2350TIP3    H1 7056   2.999   5.382   1.324
 2350TIP3    H2 7057   3.063   5.245   1.341
 2351TIP3   OH2 7058   3.124   5.285   2.493
 2351TIP3    H1 7059   3.042   5.253   2.532
 2351TIP3    H2 7060   3.106   5.376   2.470
 2352TIP3   OH2 7061   6.082   5.640   2.998
 2352TIP3    H1 7062   6.040   5.707   3.051
 2352TIP3    H2 7063   6.025   5.629   2.922
 2353TIP3   OH2 7064   0.227   4.812   3.520
 2353TIP3    H1 7065   0.293   4.880   3.537
 2353TIP3    H2 7066   0.144   4.857   3.531
 2354TIP3   OH2 7067   1.158   5.290   0.196
 2354TIP3    H1 7068   1.174   5.348   0.271
 2354TIP3    H2 7069   1.243   5.284   0.153
 2355TIP3   OH2 7070   6.119   0.300   3.665
 2355TIP3    H1 7071   6.039   0.336   3.628
 2355TIP3    H2 7072   6.112   0.318   3.759
 2356TIP3   OH2 7073   1.264   1.106   3.562
 2356TIP3    H1 7074   1.192   1.063   3.608
 2356TIP3    H2 7075   1.240   1.103   3.470
 2357TIP3   OH2 7076   2.084   3.140   3.862
 2357TIP3    H1 7077   2.145   3.141   3.936
 2357TIP3    H2 7078   2.008   3.092   3.895
 2358TIP3   OH2 7079   3.920   2.924   1.719
 2358TIP3    H1 7080   3.937   2.937   1.626
 2358TIP3    H2 7081   3.836   2.966   1.735
 2359TIP3   OH2 7082   0.965   1.615   1.457
 2359TIP3    H1 7083   0.914   1.537   1.479
 2359TIP3    H2 7084   0.922   1.652   1.381
 2360TIP3   OH2 7085   2.262   5.376   2.976
 2360TIP3    H1 7086   2.267   5.300   2.917
 2360TIP3    H2 7087   2.185   5.359   3.030
 2361TIP3   OH2 7088   4.813   5.885   5.183
 2361TIP3    H1 7089   4.744   5.889   5.117
 2361TIP3    H2 7090   4.792   5.807   5.235
 2362TIP3   OH2 7091   5.072   3.831   3.718
 2362TIP3    H1 7092   5.136   3.836   3.790
 2362TIP3    H2 7093   5.093   3.749   3.674
 2363TIP3   OH2 7094   0.478   2.055   2.719
 2363TIP3    H1 7095   0.529   1.974   2.721
 2363TIP3    H2 7096   0.402   2.034   2.664
 2364TIP3   OH2 7097   4.562   1.619   1.227
 2364TIP3    H1 7098   4.497   1.675   1.271
 2364TIP3    H2 7099   4.525   1.603   1.140
 2365TIP3   OH2 7100   4.036   2.918   1.483
 2365TIP3    H1 7101   4.117   2.965   1.466
 2365TIP3    H2 7102   3.989   2.919   1.400
 2366TIP3   OH2 7103   5.601   4.274   1.913
 2366TIP3    H1 7104   5.645   4.358   1.927
 2366TIP3    H2 7105   5.508   4.295   1.913
 2367TIP3   OH2 7106   5.562   3.865   4.952
 2367TIP3    H1 7107   5.544   3.806   5.025
 2367TIP3    H2 7108   5.509   3.831   4.880
 2368TIP3   OH2 7109   1.491   4.436   3.234
 2368TIP3    H1 7110   1.518   4.471   3.149
 2368TIP3    H2 7111   1.397   4.420   3.226
 2369TIP3   OH2 7112   5.766   5.179   3.646
 2369TIP3    H1 7113   5.843   5.226   3.679
 2369TIP3    H2 7114   5.709   5.247   3.610
 2370TIP3   OH2 7115   2.215   2.724   1.659
 2370TIP3    H1 7116   2.180   2.671   1.587
 2370TIP3    H2 7117   2.291   2.675   1.690
 2371TIP3   OH2 7118   2.543   0.565   1.230
 2371TIP3    H1 7119   2.505   0.578   1.317
 2371TIP3    H2 7120   2.491   0.495   1.191
 2372TIP3   OH2 7121   0.420   0.736   1.484
 2372TIP3    H1 7122   0.342   0.781   1.449
 2372TIP3    H2 7123   0.450   0.793   1.556
 2373TIP3   OH2 7124   0.823   2.943   1.938
 2373TIP3    H1 7125   0.840   2.953   2.032
 2373TIP3    H2 7126   0.909   2.927   1.900
 2374TIP3   OH2 7127   2.279   4.504   0.644
 2374TIP3    H1 7128   2.307   4.413   0.636
 2374TIP3    H2 7129   2.205   4.500   0.705
 2375TIP3   OH2 7130   3.187   1.721   2.812
 2375TIP3    H1 7131   3.136   1.643   2.792
 2375TIP3    H2 7132   3.123   1.792   2.812
 2376TIP3   OH2 7133   4.765   4.787   3.624
 2376TIP3    H1 7134   4.836   4.847   3.644
 2376TIP3    H2 7135   4.712   4.784   3.704
 2377TIP3   OH2 7136   5.802   4.787   2.165
 2377TIP3    H1 7137   5.784   4.840   2.243
 2377TIP3    H2 7138   5.895   4.768   2.170
 2378TIP3   OH2 7139   4.130   0.635   2.215
 2378TIP3    H1 7140   4.198   0.599   2.158
 2378TIP3    H2 7141   4.130   0.729   2.196
 2379TIP3   OH2 7142   3.099   2.405   0.217
 2379TIP3    H1 7143   3.067   2.431   0.304
 2379TIP3    H2 7144   3.068   2.315   0.206
 2380TIP3   OH2 7145   2.943   4.585   1.941
 2380TIP3    H1 7146   3.028   4.570   1.983
 2380TIP3    H2 7147   2.905   4.659   1.988
 2381TIP3   OH2 7148   0.792   4.336   0.824
 2381TIP3    H1 7149   0.878   4.362   0.792
 2381TIP3    H2 7150   0.804   4.318   0.917
 2382TIP3   OH2 7151   5.544   5.130   1.250
 2382TIP3    H1 7152   5.459   5.089   1.268
 2382TIP3    H2 7153   5.575   5.087   1.171
 2383TIP3   OH2 7154   2.044   4.645   2.391
 2383TIP3    H1 7155   2.061   4.612   2.303
 2383TIP3    H2 7156   2.095   4.726   2.396
 2384TIP3   OH2 7157   4.973   2.519   4.106
 2384TIP3    H1 7158   4.882   2.497   4.125
 2384TIP3    H2 7159   4.968   2.576   4.029
 2385TIP3   OH2 7160   3.522   4.296   2.678
 2385TIP3    H1 7161   3.513   4.387   2.705
 2385TIP3    H2 7162   3.573   4.255   2.749
 2386TIP3   OH2 7163   3.145   4.665   0.172
 2386TIP3    H1 7164   3.148   4.710   0.088
 2386TIP3    H2 7165   3.207   4.593   0.164
 2387TIP3   OH2 7166   1.104   3.884   2.094
 2387TIP3    H1 7167   1.199   3.875   2.093
 2387TIP3    H2 7168   1.075   3.829   2.167
 2388TIP3   OH2 7169   5.445   4.423   0.101
 2388TIP3    H1 7170   5.492   4.353   0.055
 2388TIP3    H2 7171   5.384   4.377   0.159
 2389TIP3   OH2 7172   6.013   1.752  -0.010
 2389TIP3    H1 7173   6.014   1.711   0.076
 2389TIP3    H2 7174   6.033   1.844   0.007
 2390TIP3   OH2 7175   3.922   4.725   3.477
 2390TIP3    H1 7176   3.903   4.645   3.526
 2390TIP3    H2 7177   3.837   4.757   3.448
 2391TIP3   OH2 7178   1.564   1.744   5.138
 2391TIP3    H1 7179   1.517   1.827   5.145
 2391TIP3    H2 7180   1.497   1.681   5.111
 2392TIP3   OH2 7181   5.425   5.491   2.119
 2392TIP3    H1 7182   5.435   5.573   2.168
 2392TIP3    H2 7183   5.499   5.490   2.059
 2393TIP3   OH2 7184   2.739   3.280   4.688
 2393TIP3    H1 7185   2.805   3.223   4.650
 2393TIP3    H2 7186   2.659   3.262   4.639
 2394TIP3   OH2 7187   2.758   5.097   0.845
 2394TIP3    H1 7188   2.793   5.111   0.756
 2394TIP3    H2 7189   2.701   5.172   0.860
 2395TIP3   OH2 7190   4.890   5.279   2.425
 2395TIP3    H1 7191   4.848   5.308   2.345
 2395TIP3    H2 7192   4.824   5.226   2.470
 2396TIP3   OH2 7193   1.274   2.276   3.179
 2396TIP3    H1 7194   1.361   2.290   3.141
 2396TIP3    H2 7195   1.271   2.182   3.196
 2397TIP3   OH2 7196   4.188   4.966   0.780
 2397TIP3    H1 7197   4.202   5.060   0.792
 2397TIP3    H2 7198   4.142   4.959   0.696
 2398TIP3   OH2 7199   4.545   0.728   4.606
 2398TIP3    H1 7200   4.463   0.680   4.619
 2398TIP3    H2 7201   4.590   0.678   4.537
 2399TIP3   OH2 7202   4.715   4.145   3.403
 2399TIP3    H1 7203   4.650   4.214   3.415
 2399TIP3    H2 7204   4.796   4.192   3.383
 2400TIP3   OH2 7205   4.920   2.793   2.000
 2400TIP3    H1 7206   4.900   2.849   2.076
 2400TIP3    H2 7207   4.977   2.725   2.036
 2401TIP3   OH2 7208   6.001   1.092   1.124
 2401TIP3    H1 7209   6.019   1.046   1.042
 2401TIP3    H2 7210   6.087   1.125   1.151
 2402TIP3   OH2 7211   1.913   1.928   0.768
 2402TIP3    H1 7212   2.001   1.936   0.805
 2402TIP3    H2 7213   1.918   1.854   0.708
 2403TIP3   OH2 7214   0.116   4.324   4.931
 2403TIP3    H1 7215   0.135   4.231   4.939
 2403TIP3    H2 7216   0.038   4.338   4.985
 2404TIP3   OH2 7217   1.893   3.842   4.545
 2404TIP3    H1 7218   1.940   3.795   4.614
 2404TIP3    H2 7219   1.898   3.785   4.468
 2405TIP3   OH2 7220   6.096   2.914   3.599
 2405TIP3    H1 7221   6.189   2.912   3.623
 2405TIP3    H2 7222   6.064   2.997   3.634
 2406TIP3   OH2 7223   1.864   4.870   3.099
 2406TIP3    H1 7224   1.786   4.821   3.073
 2406TIP3    H2 7225   1.937   4.816   3.070
 2407TIP3   OH2 7226   1.973   4.278   3.913
 2407TIP3    H1 7227   1.933   4.258   3.998
 2407TIP3    H2 7228   1.917   4.346   3.876
 2408TIP3   OH2 7229   1.963   4.923   1.009
 2408TIP3    H1 7230   1.973   4.864   1.084
 2408TIP3    H2 7231   1.960   5.011   1.048
 2409TIP3   OH2 7232   3.533   0.098   0.907
 2409TIP3    H1 7233   3.516   0.005   0.893
 2409TIP3    H2 7234   3.625   0.102   0.930
 2410TIP3   OH2 7235   2.654   1.687   2.023
 2410TIP3    H1 7236   2.667   1.781   2.014
 2410TIP3    H2 7237   2.581   1.667   1.964
 2411TIP3   OH2 7238   5.842   3.409   1.165
 2411TIP3    H1 7239   5.797   3.486   1.132
 2411TIP3    H2 7240   5.916   3.444   1.216
 2412TIP3   OH2 7241   1.196   3.064   2.321
 2412TIP3    H1 7242   1.254   3.135   2.347
 2412TIP3    H2 7243   1.112   3.107   2.305
 2413TIP3   OH2 7244   3.676   4.087   4.232
 2413TIP3    H1 7245   3.735   4.027   4.185
 2413TIP3    H2 7246   3.734   4.138   4.288
 2414TIP3   OH2 7247   4.330   4.264   4.717
 2414TIP3    H1 7248   4.420   4.235   4.733
 2414TIP3    H2 7249   4.281   4.231   4.792
 2415TIP3   OH2 7250   5.328   4.120   2.570
 2415TIP3    H1 7251   5.281   4.115   2.653
 2415TIP3    H2 7252   5.414   4.084   2.588
 2416TIP3   OH2 7253   4.434   0.582   3.070
 2416TIP3    H1 7254   4.397   0.602   3.155
 2416TIP3    H2 7255   4.404   0.653   3.013
 2417TIP3   OH2 7256   4.019   4.465   4.965
 2417TIP3    H1 7257   4.070   4.525   4.912
 2417TIP3    H2 7258   4.065   4.381   4.957
 2418TIP3   OH2 7259   1.371   3.538   3.559
 2418TIP3    H1 7260   1.443   3.480   3.535
 2418TIP3    H2 7261   1.380   3.549   3.654
 2419TIP3   OH2 7262   3.416   4.181   4.207
 2419TIP3    H1 7263   3.359   4.114   4.246
 2419TIP3    H2 7264   3.504   4.148   4.220
 2420TIP3   OH2 7265   4.172   2.119   3.130
 2420TIP3    H1 7266   4.196   2.195   3.183
 2420TIP3    H2 7267   4.155   2.050   3.194
 2421TIP3   OH2 7268   4.955   0.808   1.966
 2421TIP3    H1 7269   5.039   0.764   1.950
 2421TIP3    H2 7270   4.889   0.741   1.949
 2422TIP3   OH2 7271   3.394   4.109   1.127
 2422TIP3    H1 7272   3.435   4.065   1.201
 2422TIP3    H2 7273   3.455   4.178   1.102
 2423TIP3   OH2 7274   5.796   2.965   3.183
 2423TIP3    H1 7275   5.801   2.875   3.216
 2423TIP3    H2 7276   5.782   2.955   3.089
 2424TIP3   OH2 7277   4.135   3.251   2.489
 2424TIP3    H1 7278   4.060   3.258   2.548
 2424TIP3    H2 7279   4.193   3.187   2.530
 2425TIP3   OH2 7280   5.939   0.971   4.685
 2425TIP3    H1 7281   5.972   0.899   4.631
 2425TIP3    H2 7282   5.863   1.004   4.638
 2426TIP3   OH2 7283   3.981   5.818   3.615
 2426TIP3    H1 7284   3.912   5.782   3.670
 2426TIP3    H2 7285   3.949   5.905   3.589
 2427TIP3   OH2 7286   0.157   5.236   0.247
 2427TIP3    H1 7287   0.064   5.255   0.229
 2427TIP3    H2 7288   0.204   5.312   0.213
 2428TIP3   OH2 7289   4.249   5.948   2.215
 2428TIP3    H1 7290   4.325   5.900   2.249
 2428TIP3    H2 7291   4.265   5.954   2.121
 2429TIP3   OH2 7292   2.371   0.901   3.471
 2429TIP3    H1 7293   2.297   0.913   3.531
 2429TIP3    H2 7294   2.448   0.900   3.528
 2430TIP3   OH2 7295   5.004   1.029   3.114
 2430TIP3    H1 7296   4.952   0.963   3.067
 2430TIP3    H2 7297   4.987   1.011   3.206
 2431TIP3   OH2 7298   2.856   0.889   4.490
 2431TIP3    H1 7299   2.861   0.795   4.506
 2431TIP3    H2 7300   2.947   0.919   4.493
 2432TIP3   OH2 7301   4.062   3.984   2.485
 2432TIP3    H1 7302   4.105   3.929   2.551
 2432TIP3    H2 7303   4.115   4.063   2.481
 2433TIP3   OH2 7304   3.023   5.673   4.104
 2433TIP3    H1 7305   2.990   5.732   4.171
 2433TIP3    H2 7306   2.961   5.600   4.103
 2434TIP3   OH2 7307   3.105   1.679   2.272
 2434TIP3    H1 7308   3.049   1.604   2.251
 2434TIP3    H2 7309   3.164   1.646   2.340
 2435TIP3   OH2 7310   5.408   3.197   1.162
 2435TIP3    H1 7311   5.499   3.215   1.138
 2435TIP3    H2 7312   5.357   3.233   1.090
 2436TIP3   OH2 7313   3.383   4.328   4.860
 2436TIP3    H1 7314   3.432   4.269   4.918
 2436TIP3    H2 7315   3.428   4.412   4.868
 2437TIP3   OH2 7316   1.170   4.301   5.201
 2437TIP3    H1 7317   1.103   4.275   5.138
 2437TIP3    H2 7318   1.247   4.321   5.147
 2438TIP3   OH2 7319   4.874   0.924   4.737
 2438TIP3    H1 7320   4.827   0.870   4.800
 2438TIP3    H2 7321   4.910   0.997   4.788
 2439TIP3   OH2 7322   2.617   2.651   3.341
 2439TIP3    H1 7323   2.650   2.574   3.389
 2439TIP3    H2 7324   2.664   2.725   3.379
 2440TIP3   OH2 7325   2.894   1.193   3.029
 2440TIP3    H1 7326   2.915   1.174   3.121
 2440TIP3    H2 7327   2.910   1.110   2.984
 2441TIP3   OH2 7328   5.333   2.519   2.488
 2441TIP3    H1 7329   5.261   2.574   2.455
 2441TIP3    H2 7330   5.314   2.509   2.581
 2442TIP3   OH2 7331   1.485   1.059   3.228
 2442TIP3    H1 7332   1.494   0.967   3.253
 2442TIP3    H2 7333   1.514   1.109   3.305
 2443TIP3   OH2 7334   2.441   3.565   4.952
 2443TIP3    H1 7335   2.486   3.648   4.935
 2443TIP3    H2 7336   2.501   3.517   5.009
 2444TIP3   OH2 7337   3.015   4.146   2.632
 2444TIP3    H1 7338   3.021   4.111   2.721
 2444TIP3    H2 7339   2.940   4.101   2.593
 2445TIP3   OH2 7340   5.586   0.136   0.871
 2445TIP3    H1 7341   5.555   0.076   0.804
 2445TIP3    H2 7342   5.653   0.086   0.918
 2446TIP3   OH2 7343   2.047   2.260   3.953
 2446TIP3    H1 7344   2.119   2.214   3.997
 2446TIP3    H2 7345   2.081   2.349   3.939
 2447TIP3   OH2 7346   1.538   2.402   1.709
 2447TIP3    H1 7347   1.486   2.346   1.767
 2447TIP3    H2 7348   1.550   2.483   1.758
 2448TIP3   OH2 7349   0.876   2.792   0.729
 2448TIP3    H1 7350   0.960   2.832   0.751
 2448TIP3    H2 7351   0.811   2.846   0.775
 2449TIP3   OH2 7352   4.025   5.759   1.558
 2449TIP3    H1 7353   3.982   5.842   1.579
 2449TIP3    H2 7354   4.116   5.772   1.582
 2450TIP3   OH2 7355   2.483   0.967   2.074
 2450TIP3    H1 7356   2.478   0.874   2.052
 2450TIP3    H2 7357   2.575   0.980   2.098
 2451TIP3   OH2 7358   5.870   1.526   3.334
 2451TIP3    H1 7359   5.951   1.499   3.377
 2451TIP3    H2 7360   5.812   1.450   3.344
 2452TIP3   OH2 7361   1.529   3.407   4.615
 2452TIP3    H1 7362   1.501   3.495   4.641
 2452TIP3    H2 7363   1.603   3.422   4.555
 2453TIP3   OH2 7364   0.627   0.313   0.708
 2453TIP3    H1 7365   0.550   0.308   0.651
 2453TIP3    H2 7366   0.656   0.404   0.701
 2454TIP3   OH2 7367   4.022   5.314   1.238
 2454TIP3    H1 7368   4.042   5.406   1.255
 2454TIP3    H2 7369   4.005   5.310   1.143
 2455TIP3   OH2 7370   4.736   3.686   0.908
 2455TIP3    H1 7371   4.680   3.736   0.848
 2455TIP3    H2 7372   4.732   3.734   0.990
 2456TIP3   OH2 7373   3.782   5.080   1.053
 2456TIP3    H1 7374   3.699   5.128   1.047
 2456TIP3    H2 7375   3.841   5.126   0.993
 2457TIP3   OH2 7376   2.356   4.931   4.441
 2457TIP3    H1 7377   2.420   4.999   4.418
 2457TIP3    H2 7378   2.394   4.850   4.407
 2458TIP3   OH2 7379   2.916   4.712   1.660
 2458TIP3    H1 7380   2.943   4.649   1.726
 2458TIP3    H2 7381   2.998   4.746   1.623
 2459TIP3   OH2 7382   0.627   4.340   1.314
 2459TIP3    H1 7383   0.607   4.434   1.310
 2459TIP3    H2 7384   0.652   4.324   1.405
 2460TIP3   OH2 7385   1.082   1.021   0.505
 2460TIP3    H1 7386   1.168   1.054   0.532
 2460TIP3    H2 7387   1.074   0.936   0.547
 2461TIP3   OH2 7388   6.369   3.602   3.436
 2461TIP3    H1 7389   6.396   3.531   3.379
 2461TIP3    H2 7390   6.397   3.682   3.391
 2462TIP3   OH2 7391   0.260   1.656   4.007
 2462TIP3    H1 7392   0.315   1.662   3.929
 2462TIP3    H2 7393   0.227   1.746   4.019
 2463TIP3   OH2 7394   6.111   3.494   3.423
 2463TIP3    H1 7395   6.179   3.551   3.459
 2463TIP3    H2 7396   6.154   3.410   3.410
 2464TIP3   OH2 7397   0.166   2.071   1.563
 2464TIP3    H1 7398   0.195   1.991   1.519
 2464TIP3    H2 7399   0.205   2.142   1.513
 2465TIP3   OH2 7400   5.680   3.789   0.481
 2465TIP3    H1 7401   5.627   3.843   0.422
 2465TIP3    H2 7402   5.667   3.828   0.567
 2466TIP3   OH2 7403   1.724   4.102   2.093
 2466TIP3    H1 7404   1.724   4.011   2.125
 2466TIP3    H2 7405   1.805   4.109   2.042
 2467TIP3   OH2 7406   2.066   3.356   2.445
 2467TIP3    H1 7407   2.058   3.435   2.392
 2467TIP3    H2 7408   2.161   3.346   2.459
 2468TIP3   OH2 7409   5.296   5.388   1.070
 2468TIP3    H1 7410   5.255   5.313   1.112
 2468TIP3    H2 7411   5.359   5.420   1.135
 2469TIP3   OH2 7412   3.792   5.602   1.517
 2469TIP3    H1 7413   3.743   5.532   1.561
 2469TIP3    H2 7414   3.883   5.571   1.517
 2470TIP3   OH2 7415   4.032   4.928   2.980
 2470TIP3    H1 7416   3.990   4.918   2.894
 2470TIP3    H2 7417   4.118   4.889   2.969
 2471TIP3   OH2 7418   5.300   2.781   0.648
 2471TIP3    H1 7419   5.252   2.739   0.719
 2471TIP3    H2 7420   5.266   2.871   0.647
 2472TIP3   OH2 7421   2.605   3.777   4.913
 2472TIP3    H1 7422   2.699   3.792   4.911
 2472TIP3    H2 7423   2.570   3.851   4.963
 2473TIP3   OH2 7424   3.478   0.078   2.136
 2473TIP3    H1 7425   3.552   0.137   2.121
 2473TIP3    H2 7426   3.401   0.133   2.118
 2474TIP3   OH2 7427   2.288   0.954   4.468
 2474TIP3    H1 7428   2.208   1.005   4.464
 2474TIP3    H2 7429   2.267   0.872   4.423
 2475TIP3   OH2 7430   5.449   1.146   4.333
 2475TIP3    H1 7431   5.535   1.141   4.376
 2475TIP3    H2 7432   5.428   1.240   4.332
 2476TIP3   OH2 7433   4.910   1.753   0.267
 2476TIP3    H1 7434   4.890   1.759   0.174
 2476TIP3    H2 7435   4.980   1.687   0.272
 2477TIP3   OH2 7436   6.096   0.928   2.420
 2477TIP3    H1 7437   6.009   0.923   2.379
 2477TIP3    H2 7438   6.141   0.998   2.373
 2478TIP3   OH2 7439   0.902   2.668   4.435
 2478TIP3    H1 7440   0.820   2.622   4.448
 2478TIP3    H2 7441   0.913   2.722   4.514
 2479TIP3   OH2 7442   3.906   3.066   5.012
 2479TIP3    H1 7443   3.883   3.053   4.920
 2479TIP3    H2 7444   3.839   3.127   5.045
 2480TIP3   OH2 7445   5.765   3.665   0.852
 2480TIP3    H1 7446   5.730   3.576   0.848
 2480TIP3    H2 7447   5.695   3.720   0.817
 2481TIP3   OH2 7448   4.174   3.039   1.810
 2481TIP3    H1 7449   4.228   2.963   1.834
 2481TIP3    H2 7450   4.091   3.002   1.782
 2482TIP3   OH2 7451   5.459   2.972   3.531
 2482TIP3    H1 7452   5.519   3.019   3.472
 2482TIP3    H2 7453   5.423   2.902   3.477
 2483TIP3   OH2 7454   6.193   3.235   3.307
 2483TIP3    H1 7455   6.126   3.203   3.248
 2483TIP3    H2 7456   6.242   3.157   3.333
 2484TIP3   OH2 7457   3.066   4.412   2.594
 2484TIP3    H1 7458   3.041   4.320   2.601
 2484TIP3    H2 7459   3.120   4.428   2.672
 2485TIP3   OH2 7460   1.254   3.637   0.342
 2485TIP3    H1 7461   1.227   3.713   0.393
 2485TIP3    H2 7462   1.199   3.640   0.263
 2486TIP3   OH2 7463   5.001   2.967   3.514
 2486TIP3    H1 7464   4.915   2.963   3.557
 2486TIP3    H2 7465   5.064   2.957   3.586
 2487TIP3   OH2 7466   0.279   3.549   4.065
 2487TIP3    H1 7467   0.215   3.554   3.994
 2487TIP3    H2 7468   0.295   3.641   4.089
 2488TIP3   OH2 7469   1.877   4.125   1.712
 2488TIP3    H1 7470   1.948   4.096   1.655
 2488TIP3    H2 7471   1.808   4.060   1.702
 2489TIP3   OH2 7472   0.083   5.841   2.365
 2489TIP3    H1 7473   0.000   5.797   2.348
 2489TIP3    H2 7474   0.067   5.932   2.343
 2490TIP3   OH2 7475   0.854   0.293   0.150
 2490TIP3    H1 7476   0.896   0.280   0.065
 2490TIP3    H2 7477   0.796   0.368   0.138
 2491TIP3   OH2 7478   3.288   2.490   4.904
 2491TIP3    H1 7479   3.226   2.419   4.886
 2491TIP3    H2 7480   3.241   2.548   4.965
 2492TIP3   OH2 7481   5.036   0.289   4.291
 2492TIP3    H1 7482   4.975   0.239   4.237
 2492TIP3    H2 7483   5.012   0.380   4.275
 2493TIP3   OH2 7484   1.811   1.087   0.500
 2493TIP3    H1 7485   1.839   1.178   0.494
 2493TIP3    H2 7486   1.851   1.045   0.424
 2494TIP3   OH2 7487   4.827   5.338   3.674
 2494TIP3    H1 7488   4.874   5.284   3.738
 2494TIP3    H2 7489   4.894   5.396   3.638
 2495TIP3   OH2 7490   0.618   3.416   1.871
 2495TIP3    H1 7491   0.682   3.472   1.915
 2495TIP3    H2 7492   0.555   3.395   1.940
 2496TIP3   OH2 7493   4.383   1.230   1.039
 2496TIP3    H1 7494   4.450   1.293   1.012
 2496TIP3    H2 7495   4.326   1.280   1.097
 2497TIP3   OH2 7496   1.846   4.879   3.719
 2497TIP3    H1 7497   1.839   4.807   3.781
 2497TIP3    H2 7498   1.940   4.891   3.706
 2498TIP3   OH2 7499   0.134   5.462   0.766
 2498TIP3    H1 7500   0.146   5.556   0.758
 2498TIP3    H2 7501   0.147   5.429   0.677
 2499TIP3   OH2 7502   4.559   3.819   1.554
 2499TIP3    H1 7503   4.649   3.802   1.526
 2499TIP3    H2 7504   4.568   3.869   1.635
 2500TIP3   OH2 7505   1.341   2.318   0.454
 2500TIP3    H1 7506   1.324   2.393   0.511
 2500TIP3    H2 7507   1.270   2.321   0.390
 2501TIP3   OH2 7508   1.984   2.622   2.470
 2501TIP3    H1 7509   2.008   2.573   2.548
 2501TIP3    H2 7510   1.957   2.555   2.407
 2502TIP3   OH2 7511   5.365   3.689   3.743
 2502TIP3    H1 7512   5.331   3.634   3.813
 2502TIP3    H2 7513   5.320   3.658   3.664
 2503TIP3   OH2 7514   3.721   4.445   1.703
 2503TIP3    H1 7515   3.783   4.375   1.725
 2503TIP3    H2 7516   3.658   4.444   1.774
 2504TIP3   OH2 7517   5.210   3.310   2.460
 2504TIP3    H1 7518   5.196   3.319   2.366
 2504TIP3    H2 7519   5.138   3.359   2.500
 2505TIP3   OH2 7520   1.388   4.821   2.905
 2505TIP3    H1 7521   1.433   4.761   2.846
 2505TIP3    H2 7522   1.295   4.805   2.890
 2506TIP3   OH2 7523   5.963   1.588   0.252
 2506TIP3    H1 7524   5.994   1.512   0.301
 2506TIP3    H2 7525   5.888   1.621   0.303
 2507TIP3   OH2 7526   1.099   4.149   2.008
 2507TIP3    H1 7527   1.110   4.227   2.063
 2507TIP3    H2 7528   1.079   4.078   2.070
 2508TIP3   OH2 7529   4.737   2.741   4.002
 2508TIP3    H1 7530   4.663   2.788   3.964
 2508TIP3    H2 7531   4.814   2.788   3.971
 2509TIP3   OH2 7532   5.365   5.445   0.268
 2509TIP3    H1 7533   5.331   5.460   0.356
 2509TIP3    H2 7534   5.306   5.379   0.230
 2510TIP3   OH2 7535   2.753  -0.018   0.373
 2510TIP3    H1 7536   2.812  -0.019   0.297
 2510TIP3    H2 7537   2.812  -0.025   0.448
 2511TIP3   OH2 7538   1.370   3.071   0.679
 2511TIP3    H1 7539   1.419   3.060   0.761
 2511TIP3    H2 7540   1.318   2.992   0.671
 2512TIP3   OH2 7541   3.460   4.120   0.718
 2512TIP3    H1 7542   3.381   4.125   0.772
 2512TIP3    H2 7543   3.487   4.211   0.705
 2513TIP3   OH2 7544   3.811   0.094   0.976
 2513TIP3    H1 7545   3.849   0.007   0.968
 2513TIP3    H2 7546   3.870   0.142   1.034
 2514TIP3   OH2 7547   3.554   4.722   2.199
 2514TIP3    H1 7548   3.609   4.784   2.247
 2514TIP3    H2 7549   3.613   4.679   2.138
 2515TIP3   OH2 7550   4.964   1.782   1.791
 2515TIP3    H1 7551   5.021   1.768   1.716
 2515TIP3    H2 7552   4.941   1.875   1.787
 2516TIP3   OH2 7553   4.742   5.385   0.107
 2516TIP3    H1 7554   4.757   5.318   0.174
 2516TIP3    H2 7555   4.757   5.468   0.152
 2517TIP3   OH2 7556   4.938   3.025   0.383
 2517TIP3    H1 7557   4.905   3.061   0.301
 2517TIP3    H2 7558   5.025   2.992   0.362
 2518TIP3   OH2 7559   0.370   1.420   0.586
 2518TIP3    H1 7560   0.304   1.386   0.526
 2518TIP3    H2 7561   0.449   1.428   0.533
 2519TIP3   OH2 7562   3.098   0.626   1.455
 2519TIP3    H1 7563   3.039   0.683   1.406
 2519TIP3    H2 7564   3.051   0.609   1.537
 2520TIP3   OH2 7565   5.164   0.918   5.107
 2520TIP3    H1 7566   5.084   0.970   5.096
 2520TIP3    H2 7567   5.136   0.828   5.091
 2521TIP3   OH2 7568   6.355   1.848   0.320
 2521TIP3    H1 7569   6.261   1.851   0.302
 2521TIP3    H2 7570   6.378   1.937   0.344
 2522TIP3   OH2 7571   1.418   2.515   3.810
 2522TIP3    H1 7572   1.500   2.556   3.782
 2522TIP3    H2 7573   1.423   2.513   3.905
 2523TIP3   OH2 7574   2.259   4.845   2.291
 2523TIP3    H1 7575   2.315   4.889   2.356
 2523TIP3    H2 7576   2.306   4.857   2.209
 2524TIP3   OH2 7577   1.280   4.926   1.645
 2524TIP3    H1 7578   1.369   4.950   1.618
 2524TIP3    H2 7579   1.286   4.834   1.669
 2525TIP3   OH2 7580   5.988   4.481   2.898
 2525TIP3    H1 7581   5.969   4.573   2.881
 2525TIP3    H2 7582   6.079   4.469   2.871
 2526TIP3   OH2 7583   6.339   1.237   1.948
 2526TIP3    H1 7584   6.386   1.170   1.899
 2526TIP3    H2 7585   6.247   1.220   1.927
 2527TIP3   OH2 7586   0.627   4.644   2.065
 2527TIP3    H1 7587   0.586   4.596   1.993
 2527TIP3    H2 7588   0.570   4.627   2.140
 2528TIP3   OH2 7589   1.907   4.982   0.233
 2528TIP3    H1 7590   1.818   4.952   0.248
 2528TIP3    H2 7591   1.898   5.072   0.202
 2529TIP3   OH2 7592   5.153   5.183   4.493
 2529TIP3    H1 7593   5.173   5.276   4.482
 2529TIP3    H2 7594   5.207   5.139   4.428
 2530TIP3   OH2 7595   3.603   4.046   3.928
 2530TIP3    H1 7596   3.655   4.000   3.994
 2530TIP3    H2 7597   3.643   4.021   3.845
 2531TIP3   OH2 7598   3.697   0.527   3.772
 2531TIP3    H1 7599   3.702   0.436   3.742
 2531TIP3    H2 7600   3.688   0.521   3.867
 2532TIP3   OH2 7601   1.530   3.061   0.939
 2532TIP3    H1 7602   1.471   3.130   0.970
 2532TIP3    H2 7603   1.554   3.013   1.018
 2533TIP3   OH2 7604   5.380   5.567   1.802
 2533TIP3    H1 7605   5.396   5.661   1.815
 2533TIP3    H2 7606   5.446   5.524   1.856
 2534TIP3   OH2 7607   1.151   4.542   1.875
 2534TIP3    H1 7608   1.073   4.493   1.903
 2534TIP3    H2 7609   1.197   4.562   1.957
 2535TIP3   OH2 7610   1.336   3.692   1.285
 2535TIP3    H1 7611   1.263   3.630   1.281
 2535TIP3    H2 7612   1.296   3.777   1.265
 2536TIP3   OH2 7613   4.135   0.864   0.582
 2536TIP3    H1 7614   4.079   0.824   0.648
 2536TIP3    H2 7615   4.151   0.953   0.615
 2537TIP3   OH2 7616   5.270   4.713   3.021
 2537TIP3    H1 7617   5.300   4.759   2.942
 2537TIP3    H2 7618   5.190   4.668   2.994
 2538TIP3   OH2 7619   0.822   1.237   0.844
 2538TIP3    H1 7620   0.873   1.216   0.921
 2538TIP3    H2 7621   0.858   1.182   0.775
 2539TIP3   OH2 7622   3.117   2.042   3.598
 2539TIP3    H1 7623   3.102   2.016   3.689
 2539TIP3    H2 7624   3.140   2.135   3.603
 2540TIP3   OH2 7625   2.611   2.791   2.546
 2540TIP3    H1 7626   2.706   2.796   2.531
 2540TIP3    H2 7627   2.580   2.880   2.531
 2541TIP3   OH2 7628   5.104   5.148   1.045
 2541TIP3    H1 7629   5.080   5.217   0.983
 2541TIP3    H2 7630   5.056   5.071   1.014
 2542TIP3   OH2 7631   2.518   3.026   4.378
 2542TIP3    H1 7632   2.496   3.108   4.332
 2542TIP3    H2 7633   2.472   2.958   4.330
 2543TIP3   OH2 7634   1.323   0.757   4.708
 2543TIP3    H1 7635   1.246   0.812   4.718
 2543TIP3    H2 7636   1.343   0.726   4.797
 2544TIP3   OH2 7637   2.321   3.050   2.656
 2544TIP3    H1 7638   2.286   2.996   2.585
 2544TIP3    H2 7639   2.352   2.986   2.721
 2545TIP3   OH2 7640   3.742   0.517   2.872
 2545TIP3    H1 7641   3.791   0.584   2.920
 2545TIP3    H2 7642   3.702   0.563   2.799
 2546TIP3   OH2 7643   3.018   1.462   5.160
 2546TIP3    H1 7644   2.925   1.486   5.161
 2546TIP3    H2 7645   3.020   1.375   5.121
 2547TIP3   OH2 7646   0.277   5.490   4.835
 2547TIP3    H1 7647   0.315   5.495   4.748
 2547TIP3    H2 7648   0.183   5.506   4.822
 2548TIP3   OH2 7649   4.711   1.279   3.450
 2548TIP3    H1 7650   4.636   1.224   3.428
 2548TIP3    H2 7651   4.684   1.367   3.422
 2549TIP3   OH2 7652   1.841   0.417   0.258
 2549TIP3    H1 7653   1.847   0.327   0.226
 2549TIP3    H2 7654   1.747   0.433   0.270
 2550TIP3   OH2 7655   1.353   0.761   0.507
 2550TIP3    H1 7656   1.396   0.676   0.516
 2550TIP3    H2 7657   1.425   0.824   0.498
 2551TIP3   OH2 7658   6.327   5.544   2.780
 2551TIP3    H1 7659   6.314   5.449   2.776
 2551TIP3    H2 7660   6.362   5.567   2.694
 2552TIP3   OH2 7661   2.969   2.082   1.408
 2552TIP3    H1 7662   3.019   2.092   1.327
 2552TIP3    H2 7663   3.034   2.053   1.472
 2553TIP3   OH2 7664   4.640   4.498   4.932
 2553TIP3    H1 7665   4.726   4.534   4.954
 2553TIP3    H2 7666   4.596   4.569   4.885
 2554TIP3   OH2 7667   3.842   3.845   4.731
 2554TIP3    H1 7668   3.809   3.857   4.643
 2554TIP3    H2 7669   3.929   3.885   4.730
 2555TIP3   OH2 7670   5.602   4.915   4.674
 2555TIP3    H1 7671   5.577   4.900   4.583
 2555TIP3    H2 7672   5.535   4.869   4.725
 2556TIP3   OH2 7673   4.470   3.029   4.278
 2556TIP3    H1 7674   4.463   3.043   4.373
 2556TIP3    H2 7675   4.555   3.066   4.255
 2557TIP3   OH2 7676   3.421   4.213   1.537
 2557TIP3    H1 7677   3.361   4.285   1.522
 2557TIP3    H2 7678   3.414   4.195   1.631
 2558TIP3   OH2 7679   1.581   0.919   2.201
 2558TIP3    H1 7680   1.555   0.879   2.118
 2558TIP3    H2 7681   1.525   0.878   2.266
 2559TIP3   OH2 7682   5.840   1.238   4.487
 2559TIP3    H1 7683   5.897   1.303   4.447
 2559TIP3    H2 7684   5.841   1.259   4.581
 2560TIP3   OH2 7685   2.957   2.880   1.684
 2560TIP3    H1 7686   3.021   2.936   1.729
 2560TIP3    H2 7687   2.921   2.824   1.754
 2561TIP3   OH2 7688   0.569   3.218   4.383
 2561TIP3    H1 7689   0.528   3.221   4.470
 2561TIP3    H2 7690   0.521   3.283   4.332
 2562TIP3   OH2 7691   3.185   2.004   1.168
 2562TIP3    H1 7692   3.167   2.044   1.083
 2562TIP3    H2 7693   3.186   2.076   1.230
 2563TIP3   OH2 7694   4.145   0.867   2.618
 2563TIP3    H1 7695   4.172   0.788   2.571
 2563TIP3    H2 7696   4.227   0.911   2.640
 2564TIP3   OH2 7697   2.690   4.230   3.695
 2564TIP3    H1 7698   2.665   4.146   3.732
 2564TIP3    H2 7699   2.782   4.218   3.669
 2565TIP3   OH2 7700   1.225   2.523   2.134
 2565TIP3    H1 7701   1.279   2.513   2.056
 2565TIP3    H2 7702   1.260   2.601   2.178
 2566TIP3   OH2 7703   5.934   2.514   2.064
 2566TIP3    H1 7704   5.996   2.502   2.135
 2566TIP3    H2 7705   5.934   2.609   2.049
 2567TIP3   OH2 7706   4.602   3.513   5.036
 2567TIP3    H1 7707   4.624   3.435   5.086
 2567TIP3    H2 7708   4.595   3.582   5.102
 2568TIP3   OH2 7709   6.195   5.175  -0.048
 2568TIP3    H1 7710   6.102   5.154  -0.039
 2568TIP3    H2 7711   6.241   5.103  -0.004
 2569TIP3   OH2 7712   5.000   4.454   0.524
 2569TIP3    H1 7713   5.075   4.480   0.470
 2569TIP3    H2 7714   4.924   4.489   0.478
 2570TIP3   OH2 7715   3.274   1.631   0.580
 2570TIP3    H1 7716   3.344   1.621   0.516
 2570TIP3    H2 7717   3.202   1.669   0.531
 2571TIP3   OH2 7718   0.431   1.606   1.468
 2571TIP3    H1 7719   0.367   1.545   1.433
 2571TIP3    H2 7720   0.456   1.568   1.553
 2572TIP3   OH2 7721   4.299   1.417   3.541
 2572TIP3    H1 7722   4.371   1.481   3.540
 2572TIP3    H2 7723   4.305   1.373   3.456
 2573TIP3   OH2 7724   6.165   4.527   4.197
 2573TIP3    H1 7725   6.168   4.479   4.279
 2573TIP3    H2 7726   6.255   4.522   4.163
 2574TIP3   OH2 7727   5.188   0.972   0.176
 2574TIP3    H1 7728   5.127   0.929   0.236
 2574TIP3    H2 7729   5.139   0.981   0.094
 2575TIP3   OH2 7730   4.178   4.987   1.671
 2575TIP3    H1 7731   4.190   5.064   1.614
 2575TIP3    H2 7732   4.207   5.017   1.757
 2576TIP3   OH2 7733   2.340   1.015   2.983
 2576TIP3    H1 7734   2.313   1.066   3.060
 2576TIP3    H2 7735   2.349   1.081   2.913
 2577TIP3   OH2 7736   1.321   3.695   4.141
 2577TIP3    H1 7737   1.338   3.764   4.077
 2577TIP3    H2 7738   1.406   3.652   4.152
 2578TIP3   OH2 7739   1.820   4.470   2.816
 2578TIP3    H1 7740   1.869   4.550   2.834
 2578TIP3    H2 7741   1.879   4.399   2.841
 2579TIP3   OH2 7742   3.983   3.007   3.073
 2579TIP3    H1 7743   3.929   3.085   3.084
 2579TIP3    H2 7744   3.932   2.950   3.015
 2580TIP3   OH2 7745   1.747   4.417   3.787
 2580TIP3    H1 7746   1.664   4.444   3.827
 2580TIP3    H2 7747   1.721   4.370   3.708
 2581TIP3   OH2 7748   3.217   2.046   0.245
 2581TIP3    H1 7749   3.243   1.992   0.319
 2581TIP3    H2 7750   3.172   2.121   0.284
 2582TIP3   OH2 7751   0.167   5.199   0.515
 2582TIP3    H1 7752   0.245   5.147   0.533
 2582TIP3    H2 7753   0.176   5.224   0.423
 2583TIP3   OH2 7754   5.507   5.005   0.556
 2583TIP3    H1 7755   5.425   4.959   0.576
 2583TIP3    H2 7756   5.509   5.079   0.617
 2584TIP3   OH2 7757   4.392   0.886   0.055
 2584TIP3    H1 7758   4.403   0.952   0.124
 2584TIP3    H2 7759   4.457   0.819   0.075
 2585TIP3   OH2 7760   0.188   0.452   1.321
 2585TIP3    H1 7761   0.104   0.420   1.356
 2585TIP3    H2 7762   0.170   0.469   1.229
 2586TIP3   OH2 7763   2.990   5.530   4.895
 2586TIP3    H1 7764   2.952   5.601   4.844
 2586TIP3    H2 7765   2.980   5.557   4.986
 2587TIP3   OH2 7766   2.271   3.239   3.171
 2587TIP3    H1 7767   2.248   3.293   3.246
 2587TIP3    H2 7768   2.202   3.254   3.106
 2588TIP3   OH2 7769   4.273   5.867   4.663
 2588TIP3    H1 7770   4.341   5.805   4.687
 2588TIP3    H2 7771   4.191   5.824   4.687
 2589TIP3   OH2 7772   4.723   3.168   4.177
 2589TIP3    H1 7773   4.771   3.251   4.174
 2589TIP3    H2 7774   4.712   3.143   4.085
 2590TIP3   OH2 7775   2.206   1.093   1.125
 2590TIP3    H1 7776   2.203   1.102   1.030
 2590TIP3    H2 7777   2.297   1.073   1.145
 2591TIP3   OH2 7778   3.080   3.292   3.826
 2591TIP3    H1 7779   3.127   3.244   3.758
 2591TIP3    H2 7780   3.010   3.232   3.853
 2592TIP3   OH2 7781   1.844   0.608   4.407
 2592TIP3    H1 7782   1.906   0.631   4.476
 2592TIP3    H2 7783   1.874   0.522   4.376
 2593TIP3   OH2 7784   5.413   3.569   2.332
 2593TIP3    H1 7785   5.388   3.548   2.422
 2593TIP3    H2 7786   5.487   3.511   2.314
 2594TIP3   OH2 7787   0.176  -0.003   0.467
 2594TIP3    H1 7788   0.109  -0.057   0.425
 2594TIP3    H2 7789   0.133   0.033   0.545
 2595TIP3   OH2 7790   4.658   5.426   3.449
 2595TIP3    H1 7791   4.693   5.516   3.446
 2595TIP3    H2 7792   4.714   5.381   3.513
 2596TIP3   OH2 7793   0.512   5.206   1.142
 2596TIP3    H1 7794   0.547   5.243   1.223
 2596TIP3    H2 7795   0.583   5.216   1.079
 2597TIP3   OH2 7796   4.659   4.577   1.695
 2597TIP3    H1 7797   4.689   4.654   1.646
 2597TIP3    H2 7798   4.574   4.603   1.730
 2598TIP3   OH2 7799   3.925   1.370   1.133
 2598TIP3    H1 7800   3.889   1.333   1.214
 2598TIP3    H2 7801   3.954   1.294   1.083
 2599TIP3   OH2 7802   3.580   3.270   2.833
 2599TIP3    H1 7803   3.614   3.358   2.817
 2599TIP3    H2 7804   3.488   3.276   2.809
 2600TIP3   OH2 7805   3.943   5.296   4.054
 2600TIP3    H1 7806   3.882   5.366   4.077
 2600TIP3    H2 7807   3.983   5.271   4.137
 2601TIP3   OH2 7808   5.479   2.152   0.697
 2601TIP3    H1 7809   5.522   2.227   0.655
 2601TIP3    H2 7810   5.507   2.156   0.788
 2602TIP3   OH2 7811   3.871   4.106   0.696
 2602TIP3    H1 7812   3.808   4.133   0.763
 2602TIP3    H2 7813   3.817   4.079   0.622
 2603TIP3   OH2 7814   2.644   4.712   4.728
 2603TIP3    H1 7815   2.552   4.713   4.756
 2603TIP3    H2 7816   2.670   4.804   4.729
 2604TIP3   OH2 7817   1.231   3.660   3.343
 2604TIP3    H1 7818   1.167   3.725   3.375
 2604TIP3    H2 7819   1.268   3.622   3.423
 2605TIP3   OH2 7820   0.746   3.746   2.678
 2605TIP3    H1 7821   0.787   3.813   2.623
 2605TIP3    H2 7822   0.781   3.765   2.766
 2606TIP3   OH2 7823   2.626   4.811   1.657
 2606TIP3    H1 7824   2.637   4.905   1.644
 2606TIP3    H2 7825   2.705   4.783   1.703
 2607TIP3   OH2 7826   4.070   1.938   4.120
 2607TIP3    H1 7827   4.069   1.845   4.139
 2607TIP3    H2 7828   4.147   1.972   4.166
 2608TIP3   OH2 7829   3.828   4.681   1.631
 2608TIP3    H1 7830   3.770   4.707   1.560
 2608TIP3    H2 7831   3.815   4.587   1.639
 2609TIP3   OH2 7832   0.393   2.418   3.144
 2609TIP3    H1 7833   0.416   2.416   3.051
 2609TIP3    H2 7834   0.390   2.326   3.169
 2610TIP3   OH2 7835   5.653   4.879   2.800
 2610TIP3    H1 7836   5.661   4.926   2.717
 2610TIP3    H2 7837   5.742   4.877   2.835
 2611TIP3   OH2 7838   4.996   4.317   4.221
 2611TIP3    H1 7839   4.901   4.330   4.217
 2611TIP3    H2 7840   5.026   4.379   4.287
 2612TIP3   OH2 7841   3.262   2.066   2.713
 2612TIP3    H1 7842   3.307   1.982   2.705
 2612TIP3    H2 7843   3.329   2.126   2.744
 2613TIP3   OH2 7844   0.120   3.260   3.561
 2613TIP3    H1 7845   0.130   3.311   3.480
 2613TIP3    H2 7846   0.116   3.169   3.531
 2614TIP3   OH2 7847   5.491   4.990   0.128
 2614TIP3    H1 7848   5.489   5.034   0.213
 2614TIP3    H2 7849   5.407   4.942   0.124
 2615TIP3   OH2 7850   3.663   2.299   3.268
 2615TIP3    H1 7851   3.673   2.275   3.360
 2615TIP3    H2 7852   3.578   2.344   3.264
 2616TIP3   OH2 7853   0.505   4.544   4.872
 2616TIP3    H1 7854   0.438   4.531   4.938
 2616TIP3    H2 7855   0.473   4.499   4.794
 2617TIP3   OH2 7856   2.301   5.574   3.247
 2617TIP3    H1 7857   2.269   5.531   3.326
 2617TIP3    H2 7858   2.348   5.505   3.199
 2618TIP3   OH2 7859   5.717   2.901   2.937
 2618TIP3    H1 7860   5.680   2.971   2.882
 2618TIP3    H2 7861   5.680   2.821   2.900
 2619TIP3   OH2 7862   4.669   1.307   2.967
 2619TIP3    H1 7863   4.628   1.246   3.028
 2619TIP3    H2 7864   4.733   1.255   2.919
 2620TIP3   OH2 7865   4.801   0.839   3.058
 2620TIP3    H1 7866   4.719   0.887   3.048
 2620TIP3    H2 7867   4.788   0.787   3.138
 2621TIP3   OH2 7868   5.418   0.840   3.780
 2621TIP3    H1 7869   5.469   0.825   3.859
 2621TIP3    H2 7870   5.388   0.753   3.753
 2622TIP3   OH2 7871   0.403   0.533   4.214
 2622TIP3    H1 7872   0.310   0.513   4.218
 2622TIP3    H2 7873   0.408   0.613   4.160
 2623TIP3   OH2 7874   1.247   3.085   3.650
 2623TIP3    H1 7875   1.320   3.024   3.664
 2623TIP3    H2 7876   1.190   3.040   3.588
 2624TIP3   OH2 7877   6.404   2.588   0.909
 2624TIP3    H1 7878   6.309   2.602   0.916
 2624TIP3    H2 7879   6.438   2.612   0.995
 2625TIP3   OH2 7880   4.308   4.562   2.795
 2625TIP3    H1 7881   4.307   4.466   2.792
 2625TIP3    H2 7882   4.351   4.583   2.878
 2626TIP3   OH2 7883   2.346   5.747   2.929
 2626TIP3    H1 7884   2.279   5.751   2.997
 2626TIP3    H2 7885   2.369   5.654   2.924
 2627TIP3   OH2 7886   6.289   4.041   4.170
 2627TIP3    H1 7887   6.330   4.086   4.244
 2627TIP3    H2 7888   6.319   3.950   4.179
 2628TIP3   OH2 7889   1.239   1.039   3.915
 2628TIP3    H1 7890   1.171   1.032   3.848
 2628TIP3    H2 7891   1.250   0.950   3.948
 2629TIP3   OH2 7892   4.186   0.940   1.086
 2629TIP3    H1 7893   4.112   0.888   1.116
 2629TIP3    H2 7894   4.262   0.883   1.096
 2630TIP3   OH2 7895   4.660   0.671   3.344
 2630TIP3    H1 7896   4.653   0.592   3.290
 2630TIP3    H2 7897   4.716   0.644   3.417
 2631TIP3   OH2 7898   0.694   1.969   0.546
 2631TIP3    H1 7899   0.740   1.887   0.531
 2631TIP3    H2 7900   0.705   1.986   0.639
 2632TIP3   OH2 7901   3.965   1.580   1.463
 2632TIP3    H1 7902   3.998   1.499   1.502
 2632TIP3    H2 7903   4.038   1.611   1.408
 2633TIP3   OH2 7904   3.645   4.331   3.887
 2633TIP3    H1 7905   3.592   4.347   3.809
 2633TIP3    H2 7906   3.638   4.236   3.901
 2634TIP3   OH2 7907   2.427   0.498   4.912
 2634TIP3    H1 7908   2.477   0.465   4.838
 2634TIP3    H2 7909   2.462   0.586   4.928
 2635TIP3   OH2 7910   1.518   4.206   1.503
 2635TIP3    H1 7911   1.470   4.235   1.426
 2635TIP3    H2 7912   1.525   4.111   1.493
 2636TIP3   OH2 7913   5.492   3.891   1.307
 2636TIP3    H1 7914   5.489   3.871   1.400
 2636TIP3    H2 7915   5.493   3.987   1.302
 2637TIP3   OH2 7916   5.103   5.933   0.368
 2637TIP3    H1 7917   5.066   5.849   0.340
 2637TIP3    H2 7918   5.173   5.950   0.305
 2638TIP3   OH2 7919   1.491   1.121   3.801
 2638TIP3    H1 7920   1.526   1.033   3.813
 2638TIP3    H2 7921   1.408   1.120   3.849
 2639TIP3   OH2 7922   3.002   4.146   0.805
 2639TIP3    H1 7923   2.987   4.063   0.761
 2639TIP3    H2 7924   2.969   4.212   0.744
 2640TIP3   OH2 7925   3.860   2.696   0.701
 2640TIP3    H1 7926   3.812   2.643   0.765
 2640TIP3    H2 7927   3.863   2.783   0.740
 2641TIP3   OH2 7928   4.768   5.737   2.163
 2641TIP3    H1 7929   4.703   5.670   2.183
 2641TIP3    H2 7930   4.781   5.784   2.246
 2642TIP3   OH2 7931   6.100   3.261   1.958
 2642TIP3    H1 7932   6.118   3.254   1.865
 2642TIP3    H2 7933   6.183   3.237   2.000
 2643TIP3   OH2 7934   5.633   1.185   2.130
 2643TIP3    H1 7935   5.602   1.100   2.162
 2643TIP3    H2 7936   5.685   1.219   2.203
 2644TIP3   OH2 7937   1.683   3.310   4.274
 2644TIP3    H1 7938   1.743   3.257   4.222
 2644TIP3    H2 7939   1.657   3.381   4.215
 2645TIP3   OH2 7940   5.125   2.826   4.883
 2645TIP3    H1 7941   5.218   2.841   4.896
 2645TIP3    H2 7942   5.087   2.913   4.871
 2646TIP3   OH2 7943   2.357   0.750   5.110
 2646TIP3    H1 7944   2.405   0.829   5.137
 2646TIP3    H2 7945   2.278   0.751   5.164
 2647TIP3   OH2 7946   2.881   4.051   1.946
 2647TIP3    H1 7947   2.842   4.048   2.033
 2647TIP3    H2 7948   2.878   4.144   1.922
 2648TIP3   OH2 7949   4.050   0.430   2.451
 2648TIP3    H1 7950   4.121   0.368   2.460
 2648TIP3    H2 7951   4.083   0.496   2.390
 2649TIP3   OH2 7952   2.632   3.355   1.957
 2649TIP3    H1 7953   2.606   3.447   1.961
 2649TIP3    H2 7954   2.553   3.307   1.981
 2650TIP3   OH2 7955   5.865   5.752   0.910
 2650TIP3    H1 7956   5.775   5.781   0.924
 2650TIP3    H2 7957   5.876   5.750   0.815
 2651TIP3   OH2 7958   1.492   5.364   3.253
 2651TIP3    H1 7959   1.527   5.303   3.189
 2651TIP3    H2 7960   1.428   5.416   3.205
 2652TIP3   OH2 7961   4.892   2.701   2.382
 2652TIP3    H1 7962   4.916   2.608   2.376
 2652TIP3    H2 7963   4.964   2.747   2.338
 2653TIP3   OH2 7964   3.952   4.250   4.575
 2653TIP3    H1 7965   3.924   4.336   4.606
 2653TIP3    H2 7966   3.893   4.188   4.618
 2654TIP3   OH2 7967   5.616   5.459   1.918
 2654TIP3    H1 7968   5.636   5.367   1.933
 2654TIP3    H2 7969   5.676   5.506   1.976
 2655TIP3   OH2 7970   2.098   5.406   0.215
 2655TIP3    H1 7971   2.154   5.355   0.274
 2655TIP3    H2 7972   2.112   5.497   0.242
 2656TIP3   OH2 7973   4.531   5.402   4.641
 2656TIP3    H1 7974   4.621   5.393   4.611
 2656TIP3    H2 7975   4.489   5.320   4.616
 2657TIP3   OH2 7976   0.371   5.417   1.023
 2657TIP3    H1 7977   0.288   5.425   1.070
 2657TIP3    H2 7978   0.426   5.365   1.081
 2658TIP3   OH2 7979   2.260   3.470   0.051
 2658TIP3    H1 7980   2.284   3.438  -0.036
 2658TIP3    H2 7981   2.177   3.517   0.038
 2659TIP3   OH2 7982   4.702   0.032   3.626
 2659TIP3    H1 7983   4.776  -0.005   3.577
 2659TIP3    H2 7984   4.648  -0.043   3.649
 2660TIP3   OH2 7985   4.198   3.957   3.111
 2660TIP3    H1 7986   4.107   3.964   3.084
 2660TIP3    H2 7987   4.196   3.909   3.193
 2661TIP3   OH2 7988   3.901   5.966   5.086
 2661TIP3    H1 7989   3.948   5.994   5.165
 2661TIP3    H2 7990   3.812   5.948   5.116
 2662TIP3   OH2 7991   4.544   3.667   0.659
 2662TIP3    H1 7992   4.509   3.751   0.630
 2662TIP3    H2 7993   4.628   3.660   0.614
 2663TIP3   OH2 7994   0.026   5.154   1.537
 2663TIP3    H1 7995  -0.053   5.187   1.495
 2663TIP3    H2 7996   0.058   5.226   1.590
 2664TIP3   OH2 7997   1.936   5.523   1.564
 2664TIP3    H1 7998   2.001   5.510   1.495
 2664TIP3    H2 7999   1.965   5.602   1.610
 2665TIP3   OH2 8000   1.667   1.482   1.119
 2665TIP3    H1 8001   1.742   1.480   1.179
 2665TIP3    H2 8002   1.599   1.528   1.168
 2666TIP3   OH2 8003   4.542   4.222   0.695
 2666TIP3    H1 8004   4.636   4.241   0.701
 2666TIP3    H2 8005   4.537   4.140   0.646
 2667TIP3   OH2 8006   3.961   2.714   2.427
 2667TIP3    H1 8007   4.045   2.679   2.397
 2667TIP3    H2 8008   3.978   2.807   2.442
 2668TIP3   OH2 8009   1.119   1.411   1.028
 2668TIP3    H1 8010   1.174   1.461   0.968
 2668TIP3    H2 8011   1.080   1.343   0.973
 2669TIP3   OH2 8012   2.636   1.807   1.681
 2669TIP3    H1 8013   2.642   1.818   1.586
 2669TIP3    H2 8014   2.551   1.768   1.695
 2670TIP3   OH2 8015   3.318   1.420   3.128
 2670TIP3    H1 8016   3.225   1.431   3.150
 2670TIP3    H2 8017   3.358   1.504   3.150
 2671TIP3   OH2 8018   5.983   4.957   1.242
 2671TIP3    H1 8019   5.958   4.994   1.327
 2671TIP3    H2 8020   6.013   5.033   1.191
 2672TIP3   OH2 8021   0.605   3.867   3.444
 2672TIP3    H1 8022   0.656   3.833   3.371
 2672TIP3    H2 8023   0.671   3.898   3.507
 2673TIP3   OH2 8024   4.121   3.330   1.819
 2673TIP3    H1 8025   4.119   3.235   1.814
 2673TIP3    H2 8026   4.193   3.350   1.878
 2674TIP3   OH2 8027   2.844   2.394   2.401
 2674TIP3    H1 8028   2.843   2.339   2.322
 2674TIP3    H2 8029   2.934   2.389   2.433
 2675TIP3   OH2 8030   3.521   5.481   1.422
 2675TIP3    H1 8031   3.559   5.559   1.463
 2675TIP3    H2 8032   3.585   5.411   1.439
 2676TIP3   OH2 8033   1.765   0.868   0.017
 2676TIP3    H1 8034   1.825   0.806  -0.022
 2676TIP3    H2 8035   1.801   0.886   0.103
 2677TIP3   OH2 8036   0.575   5.980   4.016
 2677TIP3    H1 8037   0.563   5.898   3.968
 2677TIP3    H2 8038   0.642   5.959   4.082
 2678TIP3   OH2 8039   2.964   2.360   3.840
 2678TIP3    H1 8040   2.965   2.323   3.928
 2678TIP3    H2 8041   3.051   2.340   3.805
 2679TIP3   OH2 8042   3.931   3.278   0.103
 2679TIP3    H1 8043   3.967   3.345   0.160
 2679TIP3    H2 8044   3.991   3.204   0.112
 2680TIP3   OH2 8045   4.392   3.139   2.284
 2680TIP3    H1 8046   4.475   3.099   2.259
 2680TIP3    H2 8047   4.374   3.106   2.372
 2681TIP3   OH2 8048   3.245   5.239   0.740
 2681TIP3    H1 8049   3.337   5.215   0.732
 2681TIP3    H2 8050   3.227   5.231   0.834
 2682TIP3   OH2 8051   5.954   0.430   1.886
 2682TIP3    H1 8052   6.041   0.410   1.921
 2682TIP3    H2 8053   5.919   0.345   1.858
 2683TIP3   OH2 8054   5.159   5.895   4.716
 2683TIP3    H1 8055   5.188   5.902   4.807
 2683TIP3    H2 8056   5.120   5.980   4.696
 2684TIP3   OH2 8057   2.977   1.237   3.669
 2684TIP3    H1 8058   2.988   1.329   3.642
 2684TIP3    H2 8059   2.953   1.191   3.589
 2685TIP3   OH2 8060   0.808   3.274   1.016
 2685TIP3    H1 8061   0.817   3.361   0.978
 2685TIP3    H2 8062   0.714   3.261   1.026
 2686TIP3   OH2 8063   1.591   4.898   4.425
 2686TIP3    H1 8064   1.595   4.930   4.335
 2686TIP3    H2 8065   1.501   4.867   4.436
 2687TIP3   OH2 8066   4.572   0.445   1.864
 2687TIP3    H1 8067   4.540   0.443   1.954
 2687TIP3    H2 8068   4.500   0.486   1.815
 2688TIP3   OH2 8069   3.412   5.628   3.176
 2688TIP3    H1 8070   3.322   5.605   3.199
 2688TIP3    H2 8071   3.440   5.560   3.115
 2689TIP3   OH2 8072   4.722   4.051   0.426
 2689TIP3    H1 8073   4.702   4.142   0.448
 2689TIP3    H2 8074   4.815   4.052   0.403
 2690TIP3   OH2 8075   1.119   5.827   4.801
 2690TIP3    H1 8076   1.164   5.746   4.827
 2690TIP3    H2 8077   1.077   5.858   4.882
 2691TIP3   OH2 8078   5.439   3.722   3.058
 2691TIP3    H1 8079   5.452   3.693   2.967
 2691TIP3    H2 8080   5.521   3.698   3.102
 2692TIP3   OH2 8081   2.223   2.501   0.123
 2692TIP3    H1 8082   2.249   2.577   0.072
 2692TIP3    H2 8083   2.276   2.429   0.088
 2693TIP3   OH2 8084   4.518   3.544   1.814
 2693TIP3    H1 8085   4.468   3.497   1.881
 2693TIP3    H2 8086   4.482   3.633   1.815
 2694TIP3   OH2 8087   3.483   4.599   0.776
 2694TIP3    H1 8088   3.479   4.688   0.742
 2694TIP3    H2 8089   3.451   4.544   0.704
 2695TIP3   OH2 8090   1.880   4.969   4.711
 2695TIP3    H1 8091   1.877   5.065   4.703
 2695TIP3    H2 8092   1.961   4.944   4.666
 2696TIP3   OH2 8093   6.193   0.853   1.977
 2696TIP3    H1 8094   6.120   0.796   1.951
 2696TIP3    H2 8095   6.154   0.939   1.987
 2697TIP3   OH2 8096   0.849   1.014   2.601
 2697TIP3    H1 8097   0.849   1.057   2.515
 2697TIP3    H2 8098   0.759   0.983   2.612
 2698TIP3   OH2 8099   1.883   1.805   1.532
 2698TIP3    H1 8100   1.823   1.733   1.554
 2698TIP3    H2 8101   1.844   1.882   1.573
 2699TIP3   OH2 8102   3.769   3.196   2.608
 2699TIP3    H1 8103   3.769   3.118   2.553
 2699TIP3    H2 8104   3.687   3.191   2.657
 2700TIP3   OH2 8105   4.326   5.555   1.321
 2700TIP3    H1 8106   4.298   5.647   1.321
 2700TIP3    H2 8107   4.370   5.544   1.237
 2701TIP3   OH2 8108   4.491   1.325   3.169
 2701TIP3    H1 8109   4.474   1.267   3.243
 2701TIP3    H2 8110   4.404   1.351   3.138
 2702TIP3   OH2 8111   5.633   3.101   3.355
 2702TIP3    H1 8112   5.684   3.042   3.299
 2702TIP3    H2 8113   5.586   3.158   3.293
 2703TIP3   OH2 8114   2.010   4.015   4.173
 2703TIP3    H1 8115   2.097   4.051   4.188
 2703TIP3    H2 8116   1.964   4.030   4.256
 2704TIP3   OH2 8117   1.081   1.135   4.962
 2704TIP3    H1 8118   0.987   1.144   4.948
 2704TIP3    H2 8119   1.115   1.224   4.957
 2705TIP3   OH2 8120   3.161   2.701   1.861
 2705TIP3    H1 8121   3.091   2.697   1.926
 2705TIP3    H2 8122   3.232   2.748   1.905
 2706TIP3   OH2 8123   5.602   5.396   3.231
 2706TIP3    H1 8124   5.632   5.364   3.316
 2706TIP3    H2 8125   5.523   5.446   3.251
 2707TIP3   OH2 8126   1.108   3.595   4.286
 2707TIP3    H1 8127   1.193   3.637   4.275
 2707TIP3    H2 8128   1.099   3.539   4.208
 2708TIP3   OH2 8129   1.238   3.316   0.742
 2708TIP3    H1 8130   1.283   3.238   0.711
 2708TIP3    H2 8131   1.155   3.284   0.777
 2709TIP3   OH2 8132   5.776   0.862   0.766
 2709TIP3    H1 8133   5.768   0.857   0.861
 2709TIP3    H2 8134   5.699   0.912   0.738
 2710TIP3   OH2 8135   2.399   3.045   3.010
 2710TIP3    H1 8136   2.425   2.978   3.073
 2710TIP3    H2 8137   2.343   3.105   3.060
 2711TIP3   OH2 8138   0.108   4.655   1.926
 2711TIP3    H1 8139   0.061   4.571   1.928
 2711TIP3    H2 8140   0.057   4.709   1.867
 2712TIP3   OH2 8141   1.168   4.252   0.959
 2712TIP3    H1 8142   1.149   4.297   0.877
 2712TIP3    H2 8143   1.171   4.322   1.024
 2713TIP3   OH2 8144   1.213   0.046   3.331
 2713TIP3    H1 8145   1.304   0.021   3.316
 2713TIP3    H2 8146   1.211   0.140   3.311
 2714TIP3   OH2 8147   2.147   4.952   4.643
 2714TIP3    H1 8148   2.218   4.940   4.579
 2714TIP3    H2 8149   2.174   4.900   4.718
 2715TIP3   OH2 8150   2.679   5.859   2.564
 2715TIP3    H1 8151   2.589   5.839   2.588
 2715TIP3    H2 8152   2.730   5.786   2.598
 2716TIP3   OH2 8153   0.791   1.124   2.853
 2716TIP3    H1 8154   0.801   1.035   2.884
 2716TIP3    H2 8155   0.835   1.125   2.768
 2717TIP3   OH2 8156   0.990   5.332   0.670
 2717TIP3    H1 8157   0.960   5.419   0.697
 2717TIP3    H2 8158   0.943   5.271   0.728
 2718TIP3   OH2 8159   2.197   1.282   1.367
 2718TIP3    H1 8160   2.186   1.241   1.453
 2718TIP3    H2 8161   2.219   1.209   1.309
 2719TIP3   OH2 8162   3.978   0.242   1.130
 2719TIP3    H1 8163   3.952   0.331   1.154
 2719TIP3    H2 8164   4.067   0.233   1.165
 2720TIP3   OH2 8165   0.311   3.478   1.781
 2720TIP3    H1 8166   0.311   3.408   1.716
 2720TIP3    H2 8167   0.260   3.442   1.854
 2721TIP3   OH2 8168   1.211   1.376   0.635
 2721TIP3    H1 8169   1.218   1.409   0.724
 2721TIP3    H2 8170   1.269   1.432   0.584
 2722TIP3   OH2 8171   1.679   3.836   2.131
 2722TIP3    H1 8172   1.641   3.751   2.155
 2722TIP3    H2 8173   1.738   3.815   2.059
 2723TIP3   OH2 8174   4.092   1.271   2.425
 2723TIP3    H1 8175   4.185   1.279   2.403
 2723TIP3    H2 8176   4.047   1.276   2.340
 2724TIP3   OH2 8177   0.639   2.801   3.039
 2724TIP3    H1 8178   0.589   2.878   3.065
 2724TIP3    H2 8179   0.680   2.770   3.119
 2725TIP3   OH2 8180   3.516   3.339   2.368
 2725TIP3    H1 8181   3.530   3.418   2.420
 2725TIP3    H2 8182   3.594   3.333   2.313
 2726TIP3   OH2 8183   1.946   5.469   0.742
 2726TIP3    H1 8184   2.006   5.503   0.808
 2726TIP3    H2 8185   1.934   5.377   0.766
 2727TIP3   OH2 8186   0.348   2.593   0.650
 2727TIP3    H1 8187   0.304   2.516   0.685
 2727TIP3    H2 8188   0.376   2.642   0.727
 2728TIP3   OH2 8189   2.974   3.178   1.602
 2728TIP3    H1 8190   2.998   3.134   1.684
 2728TIP3    H2 8191   3.015   3.124   1.534
 2729TIP3   OH2 8192   3.252   2.319   3.807
 2729TIP3    H1 8193   3.313   2.393   3.812
 2729TIP3    H2 8194   3.300   2.246   3.846
 2730TIP3   OH2 8195   5.259   5.690   1.276
 2730TIP3    H1 8196   5.351   5.717   1.279
 2730TIP3    H2 8197   5.242   5.656   1.364
 2731TIP3   OH2 8198   5.502   5.665   2.693
 2731TIP3    H1 8199   5.419   5.618   2.693
 2731TIP3    H2 8200   5.501   5.716   2.611
 2732TIP3   OH2 8201   2.650   2.046   2.388
 2732TIP3    H1 8202   2.640   2.070   2.480
 2732TIP3    H2 8203   2.561   2.025   2.359
 2733TIP3   OH2 8204   4.321   0.557   4.574
 2733TIP3    H1 8205   4.386   0.487   4.560
 2733TIP3    H2 8206   4.237   0.511   4.578
 2734TIP3   OH2 8207   2.126   5.152   3.318
 2734TIP3    H1 8208   2.158   5.072   3.277
 2734TIP3    H2 8209   2.095   5.125   3.404
 2735TIP3   OH2 8210   4.082   1.445   4.292
 2735TIP3    H1 8211   4.134   1.494   4.355
 2735TIP3    H2 8212   4.047   1.511   4.233
 2736TIP3   OH2 8213   3.001   0.248   3.461
 2736TIP3    H1 8214   3.056   0.283   3.390
 2736TIP3    H2 8215   3.022   0.303   3.537
 2737TIP3   OH2 8216   6.037   1.427   3.895
 2737TIP3    H1 8217   6.106   1.469   3.845
 2737TIP3    H2 8218   6.028   1.481   3.974
 2738TIP3   OH2 8219   4.933   4.985   3.307
 2738TIP3    H1 8220   4.992   5.015   3.376
 2738TIP3    H2 8221   4.935   5.055   3.241
 2739TIP3   OH2 8222   1.249   4.976   4.536
 2739TIP3    H1 8223   1.221   4.997   4.625
 2739TIP3    H2 8224   1.312   5.044   4.514
 2740TIP3   OH2 8225   6.151   4.916   1.542
 2740TIP3    H1 8226   6.148   4.959   1.628
 2740TIP3    H2 8227   6.093   4.968   1.487
 2741TIP3   OH2 8228   0.213   5.817   1.362
 2741TIP3    H1 8229   0.218   5.913   1.358
 2741TIP3    H2 8230   0.132   5.799   1.409
 2742TIP3   OH2 8231   2.268   1.699   4.357
 2742TIP3    H1 8232   2.301   1.741   4.436
 2742TIP3    H2 8233   2.211   1.629   4.389
 2743TIP3   OH2 8234   2.098   3.608   4.227
 2743TIP3    H1 8235   2.175   3.568   4.186
 2743TIP3    H2 8236   2.119   3.611   4.320
 2744TIP3   OH2 8237   2.978   2.220   4.066
 2744TIP3    H1 8238   2.922   2.262   4.131
 2744TIP3    H2 8239   3.058   2.197   4.114
 2745TIP3   OH2 8240   6.341   0.850   2.196
 2745TIP3    H1 8241   6.281   0.829   2.124
 2745TIP3    H2 8242   6.293   0.915   2.248
 2746TIP3   OH2 8243   5.316   5.897   0.160
 2746TIP3    H1 8244   5.250   5.908   0.091
 2746TIP3    H2 8245   5.346   5.807   0.150
 2747TIP3   OH2 8246   3.014   3.119   2.072
 2747TIP3    H1 8247   3.014   3.110   1.977
 2747TIP3    H2 8248   2.930   3.160   2.092
 2748TIP3   OH2 8249   0.182   1.822   4.259
 2748TIP3    H1 8250   0.092   1.793   4.251
 2748TIP3    H2 8251   0.190   1.852   4.350
 2749TIP3   OH2 8252   1.195   5.729   3.637
 2749TIP3    H1 8253   1.215   5.647   3.682
 2749TIP3    H2 8254   1.206   5.796   3.704
 2750TIP3   OH2 8255   1.646   2.731   1.097
 2750TIP3    H1 8256   1.688   2.816   1.110
 2750TIP3    H2 8257   1.553   2.747   1.115
 2751TIP3   OH2 8258   4.844   1.641   3.425
 2751TIP3    H1 8259   4.895   1.709   3.381
 2751TIP3    H2 8260   4.820   1.579   3.356
 2752TIP3   OH2 8261   3.352   0.438   0.094
 2752TIP3    H1 8262   3.270   0.437   0.143
 2752TIP3    H2 8263   3.329   0.404   0.008
 2753TIP3   OH2 8264   2.099   3.553   2.991
 2753TIP3    H1 8265   2.146   3.527   3.071
 2753TIP3    H2 8266   2.141   3.634   2.964
 2754TIP3   OH2 8267   3.857   2.925   3.589
 2754TIP3    H1 8268   3.866   2.837   3.625
 2754TIP3    H2 8269   3.876   2.983   3.662
 2755TIP3   OH2 8270   6.080   4.678   4.637
 2755TIP3    H1 8271   6.025   4.754   4.660
 2755TIP3    H2 8272   6.093   4.632   4.720
 2756TIP3   OH2 8273   0.247   0.984   5.146
 2756TIP3    H1 8274   0.312   1.038   5.191
 2756TIP3    H2 8275   0.180   0.966   5.211
 2757TIP3   OH2 8276   5.812   0.629   3.929
 2757TIP3    H1 8277   5.793   0.674   3.846
 2757TIP3    H2 8278   5.895   0.583   3.912
 2758TIP3   OH2 8279   3.109   0.431   0.206
 2758TIP3    H1 8280   3.050   0.470   0.141
 2758TIP3    H2 8281   3.055   0.420   0.284
 2759TIP3   OH2 8282   2.358   5.587   3.871
 2759TIP3    H1 8283   2.404   5.647   3.930
 2759TIP3    H2 8284   2.297   5.643   3.823
 2760TIP3   OH2 8285   5.831   3.513   2.506
 2760TIP3    H1 8286   5.887   3.573   2.457
 2760TIP3    H2 8287   5.782   3.466   2.438
 2761TIP3   OH2 8288   2.696   0.373   3.971
 2761TIP3    H1 8289   2.769   0.327   3.929
 2761TIP3    H2 8290   2.726   0.464   3.978
 2762TIP3   OH2 8291   2.855   2.586   0.713
 2762TIP3    H1 8292   2.829   2.531   0.639
 2762TIP3    H2 8293   2.830   2.675   0.688
 2763TIP3   OH2 8294   4.024   4.893   4.789
 2763TIP3    H1 8295   4.077   4.813   4.794
 2763TIP3    H2 8296   3.958   4.883   4.858
 2764TIP3   OH2 8297   3.307   2.767   0.952
 2764TIP3    H1 8298   3.335   2.849   0.913
 2764TIP3    H2 8299   3.224   2.746   0.908
 2765TIP3   OH2 8300   5.926   5.450   0.090
 2765TIP3    H1 8301   5.838   5.440   0.126
 2765TIP3    H2 8302   5.913   5.446  -0.004
 2766TIP3   OH2 8303   2.178   5.382   5.062
 2766TIP3    H1 8304   2.183   5.290   5.084
 2766TIP3    H2 8305   2.269   5.412   5.060
 2767TIP3   OH2 8306   3.589   0.284   1.169
 2767TIP3    H1 8307   3.519   0.347   1.150
 2767TIP3    H2 8308   3.619   0.254   1.083
 2768TIP3   OH2 8309   5.990   0.607   4.759
 2768TIP3    H1 8310   6.040   0.527   4.778
 2768TIP3    H2 8311   6.049   0.660   4.705
 2769TIP3   OH2 8312   3.449   5.528   0.664
 2769TIP3    H1 8313   3.454   5.607   0.611
 2769TIP3    H2 8314   3.394   5.551   0.738
 2770TIP3   OH2 8315   3.254   1.660   1.471
 2770TIP3    H1 8316   3.323   1.651   1.406
 2770TIP3    H2 8317   3.176   1.624   1.429
 2771TIP3   OH2 8318   1.971   2.065   3.101
 2771TIP3    H1 8319   1.947   2.053   3.193
 2771TIP3    H2 8320   1.952   1.981   3.060
 2772TIP3   OH2 8321   6.005   3.874   2.661
 2772TIP3    H1 8322   6.074   3.824   2.617
 2772TIP3    H2 8323   6.009   3.961   2.620
 2773TIP3   OH2 8324   0.325   2.296   4.916
 2773TIP3    H1 8325   0.417   2.276   4.900
 2773TIP3    H2 8326   0.282   2.211   4.922
 2774TIP3   OH2 8327   2.207   2.031   0.878
 2774TIP3    H1 8328   2.155   2.102   0.914
 2774TIP3    H2 8329   2.194   1.958   0.938
 2775TIP3   OH2 8330   3.766   4.893   2.328
 2775TIP3    H1 8331   3.831   4.956   2.359
 2775TIP3    H2 8332   3.816   4.830   2.276
 2776TIP3   OH2 8333   2.790   5.948   1.435
 2776TIP3    H1 8334   2.742   5.976   1.357
 2776TIP3    H2 8335   2.863   5.897   1.401
 2777TIP3   OH2 8336   1.189   4.957   1.902
 2777TIP3    H1 8337   1.251   4.931   1.833
 2777TIP3    H2 8338   1.193   5.052   1.902
 2778TIP3   OH2 8339   2.950   2.185   0.237
 2778TIP3    H1 8340   2.916   2.162   0.323
 2778TIP3    H2 8341   2.973   2.101   0.197
 2779TIP3   OH2 8342   4.612   4.798   3.872
 2779TIP3    H1 8343   4.630   4.705   3.889
 2779TIP3    H2 8344   4.646   4.843   3.950
 2780TIP3   OH2 8345   0.873   4.907   3.403
 2780TIP3    H1 8346   0.954   4.952   3.428
 2780TIP3    H2 8347   0.886   4.883   3.312
 2781TIP3   OH2 8348   4.729   4.770   0.526
 2781TIP3    H1 8349   4.636   4.787   0.543
 2781TIP3    H2 8350   4.729   4.700   0.460
 2782TIP3   OH2 8351   0.346   5.375   5.063
 2782TIP3    H1 8352   0.315   5.426   4.988
 2782TIP3    H2 8353   0.304   5.289   5.052
 2783TIP3   OH2 8354   3.444   3.884   1.626
 2783TIP3    H1 8355   3.456   3.912   1.717
 2783TIP3    H2 8356   3.357   3.915   1.603
 2784TIP3   OH2 8357   4.054   3.611   3.573
 2784TIP3    H1 8358   4.145   3.586   3.590
 2784TIP3    H2 8359   4.015   3.533   3.533
 2785TIP3   OH2 8360   4.251   3.629   0.846
 2785TIP3    H1 8361   4.262   3.718   0.813
 2785TIP3    H2 8362   4.340   3.597   0.859
 2786TIP3   OH2 8363   2.077   3.714   4.719
 2786TIP3    H1 8364   2.149   3.735   4.660
 2786TIP3    H2 8365   2.102   3.631   4.760
 2787TIP3   OH2 8366   1.214   4.351   2.325
 2787TIP3    H1 8367   1.141   4.413   2.335
 2787TIP3    H2 8368   1.283   4.402   2.282
 2788TIP3   OH2 8369   2.749   5.576   3.375
 2788TIP3    H1 8370   2.812   5.525   3.323
 2788TIP3    H2 8371   2.667   5.570   3.326
 2789TIP3   OH2 8372   3.919   5.327   2.801
 2789TIP3    H1 8373   3.949   5.271   2.873
 2789TIP3    H2 8374   3.862   5.392   2.843
 2790TIP3   OH2 8375   5.379   5.427   5.187
 2790TIP3    H1 8376   5.340   5.379   5.114
 2790TIP3    H2 8377   5.310   5.431   5.253
 2791TIP3   OH2 8378   3.570   0.377   2.510
 2791TIP3    H1 8379   3.647   0.346   2.463
 2791TIP3    H2 8380   3.578   0.472   2.509
 2792TIP3   OH2 8381   5.962   1.449   1.845
 2792TIP3    H1 8382   5.965   1.358   1.874
 2792TIP3    H2 8383   5.982   1.500   1.924
 2793TIP3   OH2 8384   3.419   1.698   3.436
 2793TIP3    H1 8385   3.414   1.602   3.443
 2793TIP3    H2 8386   3.433   1.727   3.526
 2794TIP3   OH2 8387   5.795   1.127  -0.008
 2794TIP3    H1 8388   5.871   1.186  -0.001
 2794TIP3    H2 8389   5.743   1.148   0.070
 2795TIP3   OH2 8390   2.987   2.863   4.068
 2795TIP3    H1 8391   3.001   2.781   4.115
 2795TIP3    H2 8392   2.938   2.838   3.989
 2796TIP3   OH2 8393   1.089   0.533   2.567
 2796TIP3    H1 8394   1.155   0.578   2.515
 2796TIP3    H2 8395   1.017   0.596   2.574
 2797TIP3   OH2 8396   2.024   2.845   1.268
 2797TIP3    H1 8397   1.941   2.846   1.317
 2797TIP3    H2 8398   2.059   2.758   1.284
 2798TIP3   OH2 8399   5.507   2.680   2.190
 2798TIP3    H1 8400   5.455   2.615   2.142
 2798TIP3    H2 8401   5.559   2.629   2.252
 2799TIP3   OH2 8402   5.657   2.120   2.841
 2799TIP3    H1 8403   5.615   2.116   2.927
 2799TIP3    H2 8404   5.716   2.044   2.840
 2800TIP3   OH2 8405   0.354   5.067   4.502
 2800TIP3    H1 8406   0.270   5.051   4.459
 2800TIP3    H2 8407   0.335   5.056   4.595
 2801TIP3   OH2 8408   2.913   1.972   3.153
 2801TIP3    H1 8409   3.004   2.002   3.144
 2801TIP3    H2 8410   2.909   1.892   3.101
 2802TIP3   OH2 8411   2.831   1.538   1.614
 2802TIP3    H1 8412   2.864   1.618   1.573
 2802TIP3    H2 8413   2.737   1.553   1.623
 2803TIP3   OH2 8414   6.005   3.677   2.359
 2803TIP3    H1 8415   6.054   3.717   2.431
 2803TIP3    H2 8416   6.061   3.691   2.282
 2804TIP3   OH2 8417   1.086   2.926   0.848
 2804TIP3    H1 8418   1.088   3.020   0.861
 2804TIP3    H2 8419   1.098   2.889   0.936
 2805TIP3   OH2 8420   3.728   5.483   0.906
 2805TIP3    H1 8421   3.709   5.436   0.826
 2805TIP3    H2 8422   3.786   5.554   0.879
 2806TIP3   OH2 8423   5.802   2.056   2.531
 2806TIP3    H1 8424   5.880   2.110   2.547
 2806TIP3    H2 8425   5.793   2.004   2.611
 2807TIP3   OH2 8426   5.883   4.406   0.440
 2807TIP3    H1 8427   5.940   4.332   0.418
 2807TIP3    H2 8428   5.942   4.474   0.471
 2808TIP3   OH2 8429   0.249   2.307   1.413
 2808TIP3    H1 8430   0.304   2.295   1.337
 2808TIP3    H2 8431   0.251   2.401   1.430
 2809TIP3   OH2 8432   1.309   5.316   2.817
 2809TIP3    H1 8433   1.298   5.278   2.729
 2809TIP3    H2 8434   1.335   5.407   2.801
 2810TIP3   OH2 8435   5.274   3.634   4.875
 2810TIP3    H1 8436   5.329   3.596   4.943
 2810TIP3    H2 8437   5.197   3.577   4.872
 2811TIP3   OH2 8438   1.997   1.403   3.837
 2811TIP3    H1 8439   1.917   1.381   3.885
 2811TIP3    H2 8440   1.970   1.471   3.775
 2812TIP3   OH2 8441   4.422   4.576   0.306
 2812TIP3    H1 8442   4.355   4.518   0.270
 2812TIP3    H2 8443   4.398   4.587   0.398
 2813TIP3   OH2 8444   5.084   2.415   2.850
 2813TIP3    H1 8445   5.156   2.473   2.825
 2813TIP3    H2 8446   5.128   2.338   2.887
 2814TIP3   OH2 8447   5.354   2.012   4.113
 2814TIP3    H1 8448   5.400   1.967   4.184
 2814TIP3    H2 8449   5.261   1.997   4.130
 2815TIP3   OH2 8450   2.678   0.790   2.531
 2815TIP3    H1 8451   2.723   0.861   2.487
 2815TIP3    H2 8452   2.734   0.713   2.517
 2816TIP3   OH2 8453   4.774   0.346   0.895
 2816TIP3    H1 8454   4.701   0.395   0.932
 2816TIP3    H2 8455   4.808   0.403   0.825
 2817TIP3   OH2 8456   0.995   4.504   2.270
 2817TIP3    H1 8457   0.977   4.510   2.176
 2817TIP3    H2 8458   0.944   4.574   2.309
 2818TIP3   OH2 8459   5.061   1.481   4.876
 2818TIP3    H1 8460   5.046   1.461   4.783
 2818TIP3    H2 8461   5.136   1.540   4.876
 2819TIP3   OH2 8462   3.879   0.549   0.106
 2819TIP3    H1 8463   3.845   0.625   0.059
 2819TIP3    H2 8464   3.953   0.519   0.053
 2820TIP3   OH2 8465   0.979   1.627   1.154
 2820TIP3    H1 8466   0.885   1.610   1.143
 2820TIP3    H2 8467   1.019   1.540   1.151
 2821TIP3   OH2 8468   2.159   2.100   0.221
 2821TIP3    H1 8469   2.073   2.139   0.237
 2821TIP3    H2 8470   2.167   2.032   0.288
 2822TIP3   OH2 8471   5.367   2.997   2.917
 2822TIP3    H1 8472   5.306   3.006   2.990
 2822TIP3    H2 8473   5.393   3.087   2.897
 2823TIP3   OH2 8474   2.634   5.845   3.050
 2823TIP3    H1 8475   2.611   5.752   3.048
 2823TIP3    H2 8476   2.564   5.888   3.001
 2824TIP3   OH2 8477   6.204   4.985   0.904
 2824TIP3    H1 8478   6.248   5.026   0.829
 2824TIP3    H2 8479   6.202   4.892   0.883
 2825TIP3   OH2 8480   3.422   4.970   5.165
 2825TIP3    H1 8481   3.422   4.974   5.069
 2825TIP3    H2 8482   3.510   4.997   5.190
 2826TIP3   OH2 8483   6.254   0.426   2.752
 2826TIP3    H1 8484   6.342   0.464   2.749
 2826TIP3    H2 8485   6.236   0.400   2.662
 2827TIP3   OH2 8486   4.480   5.836   3.020
 2827TIP3    H1 8487   4.527   5.771   3.072
 2827TIP3    H2 8488   4.464   5.794   2.936
 2828TIP3   OH2 8489   2.920   3.596   2.116
 2828TIP3    H1 8490   2.911   3.639   2.031
 2828TIP3    H2 8491   2.909   3.666   2.180
 2829TIP3   OH2 8492   0.596   2.236   0.970
 2829TIP3    H1 8493   0.640   2.196   0.895
 2829TIP3    H2 8494   0.665   2.284   1.016
 2830TIP3   OH2 8495   3.706   2.209   0.118
 2830TIP3    H1 8496   3.613   2.228   0.113
 2830TIP3    H2 8497   3.747   2.293   0.139
 2831TIP3   OH2 8498   4.063   2.304   1.742
 2831TIP3    H1 8499   4.008   2.288   1.818
 2831TIP3    H2 8500   4.118   2.227   1.735
 2832TIP3   OH2 8501   5.990   1.309   0.036
 2832TIP3    H1 8502   5.957   1.386  -0.010
 2832TIP3    H2 8503   6.012   1.340   0.124
 2833TIP3   OH2 8504   0.875   2.086   3.092
 2833TIP3    H1 8505   0.921   2.125   3.018
 2833TIP3    H2 8506   0.782   2.093   3.069
 2834TIP3   OH2 8507   1.919   2.457   4.725
 2834TIP3    H1 8508   1.873   2.478   4.806
 2834TIP3    H2 8509   1.890   2.369   4.703
 2835TIP3   OH2 8510   3.817   4.866   1.836
 2835TIP3    H1 8511   3.898   4.904   1.869
 2835TIP3    H2 8512   3.842   4.822   1.755
 2836TIP3   OH2 8513   1.865   1.271   1.984
 2836TIP3    H1 8514   1.933   1.206   2.001
 2836TIP3    H2 8515   1.879   1.339   2.050
 2837TIP3   OH2 8516   0.694   2.274   0.151
 2837TIP3    H1 8517   0.619   2.323   0.185
 2837TIP3    H2 8518   0.673   2.182   0.168
 2838TIP3   OH2 8519   3.944   5.306   0.970
 2838TIP3    H1 8520   3.974   5.298   0.879
 2838TIP3    H2 8521   3.899   5.390   0.973
 2839TIP3   OH2 8522   5.725   5.293   3.014
 2839TIP3    H1 8523   5.685   5.310   3.099
 2839TIP3    H2 8524   5.817   5.316   3.024
 2840TIP3   OH2 8525   2.851   0.767   5.076
 2840TIP3    H1 8526   2.760   0.740   5.071
 2840TIP3    H2 8527   2.882   0.733   5.160
 2841TIP3   OH2 8528   2.010   5.700   1.763
 2841TIP3    H1 8529   2.012   5.622   1.819
 2841TIP3    H2 8530   1.925   5.740   1.781
 2842TIP3   OH2 8531   3.839   0.139   0.144
 2842TIP3    H1 8532   3.835   0.045   0.157
 2842TIP3    H2 8533   3.750   0.170   0.158
 2843TIP3   OH2 8534   2.342   2.109   4.742
 2843TIP3    H1 8535   2.431   2.132   4.715
 2843TIP3    H2 8536   2.307   2.189   4.780
 2844TIP3   OH2 8537  -0.011   5.271   2.678
 2844TIP3    H1 8538  -0.017   5.239   2.588
 2844TIP3    H2 8539   0.051   5.212   2.720
 2845TIP3   OH2 8540   1.188   2.964   4.584
 2845TIP3    H1 8541   1.217   2.897   4.522
 2845TIP3    H2 8542   1.259   3.027   4.588
 2846TIP3   OH2 8543   1.095   5.345   4.673
 2846TIP3    H1 8544   1.071   5.280   4.739
 2846TIP3    H2 8545   1.190   5.336   4.666
 2847TIP3   OH2 8546   4.164   0.297   0.227
 2847TIP3    H1 8547   4.153   0.308   0.132
 2847TIP3    H2 8548   4.078   0.269   0.258
 2848TIP3   OH2 8549   2.134   2.509   1.121
 2848TIP3    H1 8550   2.125   2.512   1.216
 2848TIP3    H2 8551   2.210   2.563   1.102
 2849TIP3   OH2 8552   0.365   0.996   0.264
 2849TIP3    H1 8553   0.307   0.936   0.310
 2849TIP3    H2 8554   0.450   0.952   0.263
 2850TIP3   OH2 8555   2.145   1.451   1.894
 2850TIP3    H1 8556   2.100   1.496   1.966
 2850TIP3    H2 8557   2.089   1.464   1.818
 2851TIP3   OH2 8558   0.242   2.855   3.276
 2851TIP3    H1 8559   0.282   2.778   3.315
 2851TIP3    H2 8560   0.228   2.832   3.184
 2852TIP3   OH2 8561   1.780   2.924   1.374
 2852TIP3    H1 8562   1.690   2.918   1.406
 2852TIP3    H2 8563   1.782   3.004   1.322
 2853TIP3   OH2 8564   0.695   5.098   2.659
 2853TIP3    H1 8565   0.611   5.106   2.705
 2853TIP3    H2 8566   0.672   5.106   2.567
 2854TIP3   OH2 8567   2.677   1.384   1.972
 2854TIP3    H1 8568   2.666   1.449   2.042
 2854TIP3    H2 8569   2.589   1.352   1.955
 2855TIP3   OH2 8570   3.285   0.935   1.658
 2855TIP3    H1 8571   3.223   0.959   1.588
 2855TIP3    H2 8572   3.232   0.891   1.723
 2856TIP3   OH2 8573   3.522   3.923   4.401
 2856TIP3    H1 8574   3.583   3.968   4.342
 2856TIP3    H2 8575   3.527   3.831   4.376
 2857TIP3   OH2 8576   4.450   2.845   1.382
 2857TIP3    H1 8577   4.522   2.902   1.356
 2857TIP3    H2 8578   4.480   2.804   1.463
 2858TIP3   OH2 8579   4.148   1.247   3.697
 2858TIP3    H1 8580   4.211   1.310   3.661
 2858TIP3    H2 8581   4.079   1.301   3.735
 2859TIP3   OH2 8582   2.179   0.348   0.312
 2859TIP3    H1 8583   2.155   0.277   0.372
 2859TIP3    H2 8584   2.107   0.411   0.319
 2860TIP3   OH2 8585   3.621   0.340   4.321
 2860TIP3    H1 8586   3.538   0.319   4.280
 2860TIP3    H2 8587   3.658   0.255   4.347
 2861TIP3   OH2 8588   0.413   3.488   5.054
 2861TIP3    H1 8589   0.396   3.568   5.005
 2861TIP3    H2 8590   0.396   3.512   5.145
 2862TIP3   OH2 8591   2.013   4.508   0.420
 2862TIP3    H1 8592   2.080   4.502   0.351
 2862TIP3    H2 8593   2.057   4.552   0.492
 2863TIP3   OH2 8594   1.079   2.686   4.808
 2863TIP3    H1 8595   1.014   2.657   4.872
 2863TIP3    H2 8596   1.028   2.737   4.744
 2864TIP3   OH2 8597   0.620   3.640   0.470
 2864TIP3    H1 8598   0.697   3.664   0.521
 2864TIP3    H2 8599   0.546   3.669   0.523
 2865TIP3   OH2 8600   0.240   0.696   3.336
 2865TIP3    H1 8601   0.193   0.613   3.334
 2865TIP3    H2 8602   0.258   0.715   3.244
 2866TIP3   OH2 8603   1.339   5.168   1.302
 2866TIP3    H1 8604   1.429   5.135   1.307
 2866TIP3    H2 8605   1.326   5.214   1.385
 2867TIP3   OH2 8606   4.463   2.632   4.143
 2867TIP3    H1 8607   4.498   2.680   4.068
 2867TIP3    H2 8608   4.408   2.696   4.189
 2868TIP3   OH2 8609   3.363   4.858   3.383
 2868TIP3    H1 8610   3.277   4.826   3.409
 2868TIP3    H2 8611   3.345   4.922   3.314
 2869TIP3   OH2 8612   0.915   5.112   2.856
 2869TIP3    H1 8613   0.873   5.171   2.918
 2869TIP3    H2 8614   0.889   5.145   2.770
 2870TIP3   OH2 8615   1.776   5.045   2.372
 2870TIP3    H1 8616   1.865   5.030   2.403
 2870TIP3    H2 8617   1.751   5.129   2.411
 2871TIP3   OH2 8618   4.406   5.967   4.450
 2871TIP3    H1 8619   4.386   5.919   4.370
 2871TIP3    H2 8620   4.376   5.910   4.521
 2872TIP3   OH2 8621   0.279   1.129   1.198
 2872TIP3    H1 8622   0.356   1.185   1.214
 2872TIP3    H2 8623   0.211   1.166   1.254
 2873TIP3   OH2 8624   1.565   1.943   0.560
 2873TIP3    H1 8625   1.590   1.896   0.640
 2873TIP3    H2 8626   1.647   1.981   0.528
 2874TIP3   OH2 8627   1.025   4.270   4.695
 2874TIP3    H1 8628   0.953   4.212   4.717
 2874TIP3    H2 8629   0.982   4.352   4.667
 2875TIP3   OH2 8630   0.961   4.019   4.145
 2875TIP3    H1 8631   0.965   3.967   4.225
 2875TIP3    H2 8632   0.968   3.954   4.074
 2876TIP3   OH2 8633   2.153   3.329   3.423
 2876TIP3    H1 8634   2.210   3.313   3.499
 2876TIP3    H2 8635   2.074   3.278   3.441
 2877TIP3   OH2 8636   5.364   1.328   5.103
 2877TIP3    H1 8637   5.428   1.258   5.112
 2877TIP3    H2 8638   5.413   1.408   5.127
 2878TIP3   OH2 8639   0.276   0.368   2.456
 2878TIP3    H1 8640   0.318   0.386   2.373
 2878TIP3    H2 8641   0.287   0.274   2.470
 2879TIP3   OH2 8642   4.937   1.195   2.586
 2879TIP3    H1 8643   5.019   1.147   2.581
 2879TIP3    H2 8644   4.942   1.258   2.514
 2880TIP3   OH2 8645   2.162   0.245   2.833
 2880TIP3    H1 8646   2.096   0.301   2.872
 2880TIP3    H2 8647   2.113   0.181   2.781
 2881TIP3   OH2 8648   1.177   5.026   4.822
 2881TIP3    H1 8649   1.132   4.942   4.827
 2881TIP3    H2 8650   1.260   5.011   4.868
 2882TIP3   OH2 8651   0.302   3.150   2.801
 2882TIP3    H1 8652   0.327   3.075   2.747
 2882TIP3    H2 8653   0.301   3.224   2.740
 2883TIP3   OH2 8654   3.462   4.009   1.868
 2883TIP3    H1 8655   3.401   3.989   1.939
 2883TIP3    H2 8656   3.447   4.102   1.849
 2884TIP3   OH2 8657   5.508   5.183   4.914
 2884TIP3    H1 8658   5.462   5.170   4.831
 2884TIP3    H2 8659   5.561   5.262   4.901
 2885TIP3   OH2 8660   1.089   4.248   4.146
 2885TIP3    H1 8661   1.061   4.157   4.149
 2885TIP3    H2 8662   1.083   4.278   4.237
 2886TIP3   OH2 8663   2.411   2.478   3.530
 2886TIP3    H1 8664   2.463   2.428   3.468
 2886TIP3    H2 8665   2.347   2.524   3.476
 2887TIP3   OH2 8666   2.581   5.338   0.463
 2887TIP3    H1 8667   2.638   5.394   0.410
 2887TIP3    H2 8668   2.641   5.283   0.513
 2888TIP3   OH2 8669   4.455   3.020   4.568
 2888TIP3    H1 8670   4.529   3.004   4.627
 2888TIP3    H2 8671   4.416   3.102   4.601
 2889TIP3   OH2 8672   4.382   5.596   0.642
 2889TIP3    H1 8673   4.343   5.559   0.721
 2889TIP3    H2 8674   4.422   5.522   0.597
 2890TIP3   OH2 8675   2.920   4.187   0.378
 2890TIP3    H1 8676   2.881   4.137   0.450
 2890TIP3    H2 8677   2.942   4.122   0.312
 2891TIP3   OH2 8678   5.674   1.149   0.237
 2891TIP3    H1 8679   5.634   1.236   0.236
 2891TIP3    H2 8680   5.600   1.088   0.243
 2892TIP3   OH2 8681   0.816   3.612   1.958
 2892TIP3    H1 8682   0.849   3.641   2.043
 2892TIP3    H2 8683   0.872   3.656   1.894
 2893TIP3   OH2 8684   1.389   3.442   3.158
 2893TIP3    H1 8685   1.295   3.436   3.176
 2893TIP3    H2 8686   1.425   3.490   3.233
 2894TIP3   OH2 8687   2.485   4.651   3.459
 2894TIP3    H1 8688   2.412   4.713   3.471
 2894TIP3    H2 8689   2.540   4.665   3.536
 2895TIP3   OH2 8690   5.609   5.681   3.134
 2895TIP3    H1 8691   5.674   5.742   3.168
 2895TIP3    H2 8692   5.640   5.594   3.161
 2896TIP3   OH2 8693   5.291   1.863   1.299
 2896TIP3    H1 8694   5.219   1.925   1.312
 2896TIP3    H2 8695   5.248   1.781   1.275
 2897TIP3   OH2 8696   0.797   2.596   4.113
 2897TIP3    H1 8697   0.751   2.603   4.029
 2897TIP3    H2 8698   0.782   2.680   4.156
 2898TIP3   OH2 8699   2.256   5.344   3.988
 2898TIP3    H1 8700   2.195   5.347   4.062
 2898TIP3    H2 8701   2.285   5.434   3.977
 2899TIP3   OH2 8702   0.578   4.069   0.415
 2899TIP3    H1 8703   0.582   4.125   0.493
 2899TIP3    H2 8704   0.663   4.025   0.412
 2900TIP3   OH2 8705   0.666   0.236   4.775
 2900TIP3    H1 8706   0.717   0.198   4.847
 2900TIP3    H2 8707   0.611   0.164   4.744
 2901TIP3   OH2 8708   2.772   2.792   0.376
 2901TIP3    H1 8709   2.741   2.816   0.463
 2901TIP3    H2 8710   2.745   2.700   0.365
 2902TIP3   OH2 8711   6.206   1.090   4.678
 2902TIP3    H1 8712   6.221   1.156   4.611
 2902TIP3    H2 8713   6.112   1.073   4.676
 2903TIP3   OH2 8714   4.272   3.288   0.504
 2903TIP3    H1 8715   4.357   3.252   0.530
 2903TIP3    H2 8716   4.281   3.382   0.519
 2904TIP3   OH2 8717   1.420   2.372   2.883
 2904TIP3    H1 8718   1.454   2.391   2.970
 2904TIP3    H2 8719   1.486   2.315   2.844
 2905TIP3   OH2 8720   1.697   0.537   2.907
 2905TIP3    H1 8721   1.715   0.627   2.936
 2905TIP3    H2 8722   1.620   0.511   2.957
 2906TIP3   OH2 8723   3.260   2.148   4.119
 2906TIP3    H1 8724   3.323   2.150   4.047
 2906TIP3    H2 8725   3.314   2.148   4.198
 2907TIP3   OH2 8726   0.953   2.776   0.474
 2907TIP3    H1 8727   0.896   2.775   0.551
 2907TIP3    H2 8728   0.992   2.689   0.472
 2908TIP3   OH2 8729   1.117   0.692   0.011
 2908TIP3    H1 8730   1.134   0.667   0.102
 2908TIP3    H2 8731   1.039   0.747   0.017
 2909TIP3   OH2 8732   5.656   5.176   1.936
 2909TIP3    H1 8733   5.703   5.119   1.996
 2909TIP3    H2 8734   5.575   5.129   1.917
 2910TIP3   OH2 8735   3.914   0.311   1.747
 2910TIP3    H1 8736   4.010   0.312   1.742
 2910TIP3    H2 8737   3.893   0.223   1.780
 2911TIP3   OH2 8738   4.987   4.739   1.653
 2911TIP3    H1 8739   4.991   4.781   1.567
 2911TIP3    H2 8740   4.927   4.793   1.704
 2912TIP3   OH2 8741   1.743   4.237   4.578
 2912TIP3    H1 8742   1.757   4.182   4.501
 2912TIP3    H2 8743   1.821   4.223   4.632
 2913TIP3   OH2 8744   5.253   3.050   3.169
 2913TIP3    H1 8745   5.162   3.058   3.196
 2913TIP3    H2 8746   5.299   3.019   3.247
 2914TIP3   OH2 8747   2.233   3.562   4.510
 2914TIP3    H1 8748   2.160   3.501   4.507
 2914TIP3    H2 8749   2.251   3.573   4.604
 2915TIP3   OH2 8750   1.340   2.813   3.192
 2915TIP3    H1 8751   1.337   2.720   3.170
 2915TIP3    H2 8752   1.261   2.829   3.242
 2916TIP3   OH2 8753   5.226   4.806   4.454
 2916TIP3    H1 8754   5.311   4.806   4.409
 2916TIP3    H2 8755   5.190   4.719   4.436
 2917TIP3   OH2 8756   4.658   0.155   3.907
 2917TIP3    H1 8757   4.568   0.188   3.901
 2917TIP3    H2 8758   4.677   0.123   3.819
 2918TIP3   OH2 8759   4.960   3.609   1.316
 2918TIP3    H1 8760   4.993   3.523   1.341
 2918TIP3    H2 8761   5.038   3.658   1.290
 2919TIP3   OH2 8762   1.289   4.026   0.288
 2919TIP3    H1 8763   1.301   4.117   0.260
 2919TIP3    H2 8764   1.368   3.981   0.259
 2920TIP3   OH2 8765   0.286   5.630   2.723
 2920TIP3    H1 8766   0.334   5.547   2.725
 2920TIP3    H2 8767   0.321   5.679   2.797
 2921TIP3   OH2 8768   0.207   3.087   1.157
 2921TIP3    H1 8769   0.143   3.018   1.171
 2921TIP3    H2 8770   0.272   3.048   1.099
 2922TIP3   OH2 8771   6.192   1.802   3.788
 2922TIP3    H1 8772   6.198   1.842   3.875
 2922TIP3    H2 8773   6.260   1.845   3.737
 2923TIP3   OH2 8774   6.179   0.182   2.894
 2923TIP3    H1 8775   6.207   0.247   2.829
 2923TIP3    H2 8776   6.232   0.105   2.875
 2924TIP3   OH2 8777   6.212   1.958   2.824
 2924TIP3    H1 8778   6.305   1.979   2.815
 2924TIP3    H2 8779   6.212   1.871   2.865
 2925TIP3   OH2 8780   5.752   1.879   1.816
 2925TIP3    H1 8781   5.728   1.938   1.888
 2925TIP3    H2 8782   5.847   1.882   1.813
 2926TIP3   OH2 8783   3.244   3.917   2.900
 2926TIP3    H1 8784   3.268   4.009   2.888
 2926TIP3    H2 8785   3.288   3.872   2.828
 2927TIP3   OH2 8786   2.551   2.904   3.197
 2927TIP3    H1 8787   2.551   2.916   3.292
 2927TIP3    H2 8788   2.566   2.810   3.184
 2928TIP3   OH2 8789   5.309   5.591   4.754
 2928TIP3    H1 8790   5.285   5.562   4.842
 2928TIP3    H2 8791   5.234   5.641   4.723
 2929TIP3   OH2 8792   4.155   5.630   2.804
 2929TIP3    H1 8793   4.203   5.549   2.785
 2929TIP3    H2 8794   4.127   5.621   2.895
 2930TIP3   OH2 8795   3.385   0.540   3.074
 2930TIP3    H1 8796   3.405   0.633   3.087
 2930TIP3    H2 8797   3.449   0.493   3.127
 2931TIP3   OH2 8798   4.426   5.531   0.234
 2931TIP3    H1 8799   4.347   5.478   0.238
 2931TIP3    H2 8800   4.437   5.550   0.141
 2932TIP3   OH2 8801   5.873   5.467   0.617
 2932TIP3    H1 8802   5.936   5.491   0.684
 2932TIP3    H2 8803   5.798   5.524   0.633
 2933TIP3   OH2 8804   4.117   4.085   2.072
 2933TIP3    H1 8805   4.187   4.044   2.122
 2933TIP3    H2 8806   4.056   4.117   2.138
 2934TIP3   OH2 8807   3.935   5.603   3.224
 2934TIP3    H1 8808   3.878   5.671   3.259
 2934TIP3    H2 8809   3.932   5.533   3.289
 2935TIP3   OH2 8810   1.831   0.230   2.513
 2935TIP3    H1 8811   1.814   0.311   2.562
 2935TIP3    H2 8812   1.747   0.184   2.515
 2936TIP3   OH2 8813   1.726   4.263   4.912
 2936TIP3    H1 8814   1.692   4.335   4.966
 2936TIP3    H2 8815   1.819   4.258   4.935
 2937TIP3   OH2 8816   4.469   0.113   2.777
 2937TIP3    H1 8817   4.557   0.120   2.815
 2937TIP3    H2 8818   4.447   0.202   2.750
 2938TIP3   OH2 8819   5.737   2.566   1.458
 2938TIP3    H1 8820   5.799   2.592   1.527
 2938TIP3    H2 8821   5.686   2.495   1.498
 2939TIP3   OH2 8822   4.433   4.495   3.036
 2939TIP3    H1 8823   4.399   4.409   3.062
 2939TIP3    H2 8824   4.451   4.539   3.119
 2940TIP3   OH2 8825   1.587   2.125   4.589
 2940TIP3    H1 8826   1.560   2.035   4.608
 2940TIP3    H2 8827   1.647   2.116   4.515
 2941TIP3   OH2 8828   0.360   4.296   0.451
 2941TIP3    H1 8829   0.436   4.255   0.492
 2941TIP3    H2 8830   0.391   4.323   0.364
 2942TIP3   OH2 8831   0.793   2.150   1.638
 2942TIP3    H1 8832   0.734   2.164   1.564
 2942TIP3    H2 8833   0.735   2.128   1.711
 2943TIP3   OH2 8834   4.191   4.450   0.010
 2943TIP3    H1 8835   4.177   4.438   0.104
 2943TIP3    H2 8836   4.208   4.544   0.000
 2944TIP3   OH2 8837   4.111   3.217   3.545
 2944TIP3    H1 8838   4.128   3.155   3.474
 2944TIP3    H2 8839   4.059   3.286   3.506
 2945TIP3   OH2 8840   3.563   4.199   2.114
 2945TIP3    H1 8841   3.569   4.250   2.195
 2945TIP3    H2 8842   3.511   4.254   2.055
 2946TIP3   OH2 8843   4.392   2.696   3.466
 2946TIP3    H1 8844   4.448   2.707   3.543
 2946TIP3    H2 8845   4.307   2.730   3.493
 2947TIP3   OH2 8846   6.242   1.867   3.443
 2947TIP3    H1 8847   6.154   1.894   3.469
 2947TIP3    H2 8848   6.300   1.931   3.485
 2948TIP3   OH2 8849   1.420   1.158   4.239
 2948TIP3    H1 8850   1.487   1.215   4.276
 2948TIP3    H2 8851   1.386   1.206   4.163
 2949TIP3   OH2 8852   4.039   0.662   0.777
 2949TIP3    H1 8853   3.958   0.629   0.816
 2949TIP3    H2 8854   4.062   0.598   0.710
 2950TIP3   OH2 8855  -0.028   5.809   4.668
 2950TIP3    H1 8856   0.017   5.772   4.593
 2950TIP3    H2 8857   0.037   5.810   4.738
 2951TIP3   OH2 8858   4.932   5.364   0.960
 2951TIP3    H1 8859   4.984   5.443   0.944
 2951TIP3    H2 8860   4.851   5.377   0.910
 2952TIP3   OH2 8861   2.778   4.074   2.214
 2952TIP3    H1 8862   2.690   4.098   2.245
 2952TIP3    H2 8863   2.830   4.154   2.224
 2953TIP3   OH2 8864   0.660   4.932   2.325
 2953TIP3    H1 8865   0.643   5.016   2.368
 2953TIP3    H2 8866   0.603   4.933   2.248
 2954TIP3   OH2 8867   5.243   1.826   3.469
 2954TIP3    H1 8868   5.187   1.816   3.545
 2954TIP3    H2 8869   5.249   1.920   3.455
 2955TIP3   OH2 8870   2.645   3.304   1.016
 2955TIP3    H1 8871   2.694   3.351   1.083
 2955TIP3    H2 8872   2.553   3.320   1.037
 2956TIP3   OH2 8873   4.285   3.643   4.719
 2956TIP3    H1 8874   4.278   3.559   4.765
 2956TIP3    H2 8875   4.205   3.647   4.665
 2957TIP3   OH2 8876   3.891   4.392   3.581
 2957TIP3    H1 8877   3.833   4.464   3.608
 2957TIP3    H2 8878   3.880   4.326   3.650
 2958TIP3   OH2 8879   5.818   0.280   2.942
 2958TIP3    H1 8880   5.775   0.198   2.917
 2958TIP3    H2 8881   5.895   0.251   2.992
 2959TIP3   OH2 8882   1.484   4.558   2.997
 2959TIP3    H1 8883   1.431   4.532   2.922
 2959TIP3    H2 8884   1.489   4.653   2.990
 2960TIP3   OH2 8885   5.017   4.069   3.258
 2960TIP3    H1 8886   5.043   3.995   3.314
 2960TIP3    H2 8887   4.983   4.027   3.179
 2961TIP3   OH2 8888   0.305   1.017   3.175
 2961TIP3    H1 8889   0.369   1.070   3.127
 2961TIP3    H2 8890   0.337   0.927   3.166
 2962TIP3   OH2 8891   5.201   5.183   1.858
 2962TIP3    H1 8892   5.274   5.133   1.895
 2962TIP3    H2 8893   5.177   5.244   1.928
 2963TIP3   OH2 8894   1.401   4.630   5.100
 2963TIP3    H1 8895   1.376   4.541   5.076
 2963TIP3    H2 8896   1.394   4.633   5.196
 2964TIP3   OH2 8897   3.448   2.531   0.985
 2964TIP3    H1 8898   3.379   2.593   0.962
 2964TIP3    H2 8899   3.445   2.527   1.080
 2965TIP3   OH2 8900   4.175   4.745   3.354
 2965TIP3    H1 8901   4.081   4.739   3.373
 2965TIP3    H2 8902   4.217   4.721   3.437
 2966TIP3   OH2 8903   5.702   0.502   4.630
 2966TIP3    H1 8904   5.743   0.486   4.715
 2966TIP3    H2 8905   5.666   0.417   4.605
 2967TIP3   OH2 8906   4.661   2.482   5.024
 2967TIP3    H1 8907   4.684   2.398   4.986
 2967TIP3    H2 8908   4.716   2.490   5.102
 2968TIP3   OH2 8909   0.488   3.096   4.651
 2968TIP3    H1 8910   0.459   3.098   4.742
 2968TIP3    H2 8911   0.408   3.085   4.600
 2969TIP3   OH2 8912   2.583   1.663   3.918
 2969TIP3    H1 8913   2.513   1.632   3.976
 2969TIP3    H2 8914   2.574   1.758   3.919
 2970TIP3   OH2 8915   3.247   5.364   1.164
 2970TIP3    H1 8916   3.217   5.416   1.089
 2970TIP3    H2 8917   3.342   5.376   1.165
 2971TIP3   OH2 8918   0.690   0.145   0.351
 2971TIP3    H1 8919   0.739   0.224   0.373
 2971TIP3    H2 8920   0.757   0.077   0.343
 2972TIP3   OH2 8921   1.667   5.206   0.892
 2972TIP3    H1 8922   1.646   5.123   0.934
 2972TIP3    H2 8923   1.638   5.272   0.956
 2973TIP3   OH2 8924   4.628   1.369   2.598
 2973TIP3    H1 8925   4.719   1.380   2.625
 2973TIP3    H2 8926   4.632   1.344   2.506
 2974TIP3   OH2 8927   0.060   1.875   3.160
 2974TIP3    H1 8928   0.086   1.881   3.252
 2974TIP3    H2 8929   0.142   1.854   3.114
 2975TIP3   OH2 8930   3.140   3.772   3.941
 2975TIP3    H1 8931   3.050   3.801   3.927
 2975TIP3    H2 8932   3.152   3.702   3.878
 2976TIP3   OH2 8933   5.763   4.947   0.215
 2976TIP3    H1 8934   5.814   4.890   0.157
 2976TIP3    H2 8935   5.682   4.962   0.167
 2977TIP3   OH2 8936   3.565   0.104   0.410
 2977TIP3    H1 8937   3.602   0.021   0.439
 2977TIP3    H2 8938   3.595   0.167   0.475
 2978TIP3   OH2 8939   4.950   5.524   1.982
 2978TIP3    H1 8940   4.983   5.596   1.927
 2978TIP3    H2 8941   4.882   5.564   2.035
 2979TIP3   OH2 8942   4.596   2.316   3.509
 2979TIP3    H1 8943   4.577   2.371   3.585
 2979TIP3    H2 8944   4.622   2.231   3.546
 2980TIP3   OH2 8945   3.661   3.948   0.964
 2980TIP3    H1 8946   3.596   3.948   0.894
 2980TIP3    H2 8947   3.684   3.856   0.975
 2981TIP3   OH2 8948   1.509   0.184   2.962
 2981TIP3    H1 8949   1.462   0.255   3.007
 2981TIP3    H2 8950   1.479   0.189   2.871
 2982TIP3   OH2 8951   2.557   2.320   4.532
 2982TIP3    H1 8952   2.525   2.366   4.454
 2982TIP3    H2 8953   2.637   2.366   4.555
 2983TIP3   OH2 8954   6.255   1.819   2.143
 2983TIP3    H1 8955   6.278   1.743   2.198
 2983TIP3    H2 8956   6.285   1.794   2.056
 2984TIP3   OH2 8957   0.064   0.616   4.252
 2984TIP3    H1 8958  -0.015   0.664   4.276
 2984TIP3    H2 8959   0.097   0.580   4.334
 2985TIP3   OH2 8960   0.226   4.697   1.623
 2985TIP3    H1 8961   0.254   4.783   1.652
 2985TIP3    H2 8962   0.159   4.714   1.556
 2986TIP3   OH2 8963   3.061   3.305   4.326
 2986TIP3    H1 8964   3.008   3.232   4.293
 2986TIP3    H2 8965   3.087   3.353   4.248
 2987TIP3   OH2 8966   2.770   1.524   0.998
 2987TIP3    H1 8967   2.859   1.525   0.962
 2987TIP3    H2 8968   2.775   1.576   1.078
 2988TIP3   OH2 8969   3.540   4.797   2.502
 2988TIP3    H1 8970   3.583   4.719   2.465
 2988TIP3    H2 8971   3.576   4.870   2.451
 2989TIP3   OH2 8972   0.195   5.014   3.120
 2989TIP3    H1 8973   0.202   5.105   3.089
 2989TIP3    H2 8974   0.275   4.999   3.170
 2990TIP3   OH2 8975   5.393   0.575   4.259
 2990TIP3    H1 8976   5.328   0.592   4.327
 2990TIP3    H2 8977   5.461   0.642   4.273
 2991TIP3   OH2 8978   0.568   5.963   4.948
 2991TIP3    H1 8979   0.540   5.979   5.039
 2991TIP3    H2 8980   0.524   5.881   4.924
 2992TIP3   OH2 8981   2.536   5.628   4.870
 2992TIP3    H1 8982   2.537   5.561   4.801
 2992TIP3    H2 8983   2.591   5.699   4.835
 2993TIP3   OH2 8984   0.204   5.052   4.063
 2993TIP3    H1 8985   0.194   5.147   4.055
 2993TIP3    H2 8986   0.167   5.017   3.982
 2994TIP3   OH2 8987   1.391   5.535   1.718
 2994TIP3    H1 8988   1.485   5.527   1.735
 2994TIP3    H2 8989   1.353   5.559   1.803
 2995TIP3   OH2 8990   1.826   0.439   3.460
 2995TIP3    H1 8991   1.800   0.352   3.489
 2995TIP3    H2 8992   1.807   0.440   3.366
 2996TIP3   OH2 8993   2.919   3.174   3.320
 2996TIP3    H1 8994   2.836   3.130   3.300
 2996TIP3    H2 8995   2.984   3.104   3.322
 2997TIP3   OH2 8996   4.611   4.624   4.321
 2997TIP3    H1 8997   4.520   4.647   4.304
 2997TIP3    H2 8998   4.655   4.638   4.238
 2998TIP3   OH2 8999   2.522   2.250   1.030
 2998TIP3    H1 9000   2.572   2.187   0.976
 2998TIP3    H2 9001   2.492   2.316   0.967
 2999TIP3   OH2 9002   2.203   5.844   3.957
 2999TIP3    H1 9003   2.203   5.880   3.869
 2999TIP3    H2 9004   2.149   5.765   3.951
 3000TIP3   OH2 9005   0.687   4.650   0.701
 3000TIP3    H1 9006   0.603   4.650   0.746
 3000TIP3    H2 9007   0.732   4.727   0.734
 3001TIP3   OH2 9008   0.246   1.232   0.398
 3001TIP3    H1 9009   0.277   1.285   0.325
 3001TIP3    H2 9010   0.269   1.142   0.374
 3002TIP3   OH2 9011   5.019   1.191   4.812
 3002TIP3    H1 9012   5.113   1.194   4.827
 3002TIP3    H2 9013   4.983   1.255   4.874
 3003TIP3   OH2 9014   4.099   3.373   4.835
 3003TIP3    H1 9015   4.112   3.417   4.919
 3003TIP3    H2 9016   4.153   3.293   4.842
 3004TIP3   OH2 9017   2.541   0.264   5.051
 3004TIP3    H1 9018   2.499   0.344   5.017
 3004TIP3    H2 9019   2.523   0.198   4.984
 3005TIP3   OH2 9020   0.291   1.448   5.104
 3005TIP3    H1 9021   0.208   1.411   5.132
 3005TIP3    H2 9022   0.347   1.372   5.086
 3006TIP3   OH2 9023   4.274   1.599   1.394
 3006TIP3    H1 9024   4.311   1.551   1.468
 3006TIP3    H2 9025   4.319   1.684   1.395
 3007TIP3   OH2 9026   5.633   3.992   4.216
 3007TIP3    H1 9027   5.604   3.965   4.302
 3007TIP3    H2 9028   5.662   3.912   4.173
 3008TIP3   OH2 9029   1.475   3.012   2.595
 3008TIP3    H1 9030   1.500   2.926   2.562
 3008TIP3    H2 9031   1.381   3.007   2.608
 3009TIP3   OH2 9032   3.238   1.588   5.053
 3009TIP3    H1 9033   3.156   1.546   5.079
 3009TIP3    H2 9034   3.287   1.599   5.134
 3010TIP3   OH2 9035   4.657   5.318   2.739
 3010TIP3    H1 9036   4.665   5.249   2.673
 3010TIP3    H2 9037   4.639   5.271   2.820
 3011TIP3   OH2 9038   5.329   2.349   0.397
 3011TIP3    H1 9039   5.327   2.292   0.320
 3011TIP3    H2 9040   5.417   2.387   0.395
 3012TIP3   OH2 9041   2.512   0.355   3.640
 3012TIP3    H1 9042   2.466   0.409   3.705
 3012TIP3    H2 9043   2.546   0.418   3.576
 3013TIP3   OH2 9044  -0.019   3.637   2.837
 3013TIP3    H1 9045  -0.011   3.710   2.899
 3013TIP3    H2 9046   0.070   3.622   2.806
 3014TIP3   OH2 9047   2.636   3.820   2.738
 3014TIP3    H1 9048   2.560   3.794   2.685
 3014TIP3    H2 9049   2.631   3.765   2.816
 3015TIP3   OH2 9050   2.010   1.275   0.641
 3015TIP3    H1 9051   2.042   1.353   0.685
 3015TIP3    H2 9052   1.916   1.274   0.661
 3016TIP3   OH2 9053   4.729   1.341   4.114
 3016TIP3    H1 9054   4.771   1.255   4.114
 3016TIP3    H2 9055   4.777   1.391   4.048
 3017TIP3   OH2 9056   5.083   5.876   5.195
 3017TIP3    H1 9057   5.091   5.951   5.254
 3017TIP3    H2 9058   4.996   5.842   5.211
 3018TIP3   OH2 9059   6.210   1.626   5.176
 3018TIP3    H1 9060   6.172   1.658   5.093
 3018TIP3    H2 9061   6.287   1.682   5.190
 3019TIP3   OH2 9062   1.995   2.684   0.829
 3019TIP3    H1 9063   1.900   2.675   0.828
 3019TIP3    H2 9064   2.011   2.762   0.883
 3020TIP3   OH2 9065   3.781   1.030   1.867
 3020TIP3    H1 9066   3.831   0.959   1.908
 3020TIP3    H2 9067   3.847   1.092   1.838
 3021TIP3   OH2 9068   4.836   5.591   1.086
 3021TIP3    H1 9069   4.824   5.662   1.023
 3021TIP3    H2 9070   4.931   5.588   1.101
 3022TIP3   OH2 9071   1.464   5.336   1.085
 3022TIP3    H1 9072   1.418   5.401   1.138
 3022TIP3    H2 9073   1.402   5.316   1.014
 3023TIP3   OH2 9074   0.624   1.382   0.000
 3023TIP3    H1 9075   0.636   1.474  -0.023
 3023TIP3    H2 9076   0.712   1.346   0.002
 3024TIP3   OH2 9077   5.388   3.499   0.100
 3024TIP3    H1 9078   5.392   3.527   0.009
 3024TIP3    H2 9079   5.344   3.414   0.097
 3025TIP3   OH2 9080   1.083   3.213   2.593
 3025TIP3    H1 9081   1.061   3.270   2.667
 3025TIP3    H2 9082   1.096   3.127   2.632
 3026TIP3   OH2 9083   1.913   2.658   3.947
 3026TIP3    H1 9084   1.868   2.685   4.028
 3026TIP3    H2 9085   1.856   2.592   3.909
 3027TIP3   OH2 9086   2.034   0.902   0.894
 3027TIP3    H1 9087   2.099   0.972   0.897
 3027TIP3    H2 9088   2.005   0.900   0.803
 3028TIP3   OH2 9089   5.543   0.373   4.168
 3028TIP3    H1 9090   5.496   0.450   4.199
 3028TIP3    H2 9091   5.501   0.299   4.212
 3029TIP3   OH2 9092   1.724   1.864   3.712
 3029TIP3    H1 9093   1.775   1.850   3.633
 3029TIP3    H2 9094   1.713   1.777   3.751
 3030TIP3   OH2 9095   0.884   3.512   0.927
 3030TIP3    H1 9096   0.921   3.551   1.006
 3030TIP3    H2 9097   0.941   3.544   0.857
 3031TIP3   OH2 9098   0.470   4.451   4.198
 3031TIP3    H1 9099   0.548   4.467   4.250
 3031TIP3    H2 9100   0.497   4.468   4.108
 3032TIP3   OH2 9101   4.771   1.521   5.164
 3032TIP3    H1 9102   4.754   1.579   5.090
 3032TIP3    H2 9103   4.796   1.437   5.123
 3033TIP3   OH2 9104   1.070   4.915   1.348
 3033TIP3    H1 9105   0.981   4.948   1.337
 3033TIP3    H2 9106   1.100   4.952   1.431
 3034TIP3   OH2 9107   5.432   2.869   4.128
 3034TIP3    H1 9108   5.343   2.890   4.103
 3034TIP3    H2 9109   5.450   2.784   4.087
 3035TIP3   OH2 9110   4.996   5.127   4.958
 3035TIP3    H1 9111   4.938   5.187   5.006
 3035TIP3    H2 9112   5.083   5.162   4.972
 3036TIP3   OH2 9113   2.423   4.472   1.296
 3036TIP3    H1 9114   2.511   4.473   1.335
 3036TIP3    H2 9115   2.428   4.536   1.225
 3037TIP3   OH2 9116   2.356   5.839   2.430
 3037TIP3    H1 9117   2.409   5.848   2.509
 3037TIP3    H2 9118   2.371   5.921   2.382
 3038TIP3   OH2 9119   3.436   4.929   3.650
 3038TIP3    H1 9120   3.442   4.837   3.675
 3038TIP3    H2 9121   3.431   4.927   3.554
 3039TIP3   OH2 9122   0.946   2.861   4.639
 3039TIP3    H1 9123   1.021   2.918   4.624
 3039TIP3    H2 9124   0.870   2.918   4.627
 3040TIP3   OH2 9125   2.193   3.134   0.206
 3040TIP3    H1 9126   2.207   3.158   0.115
 3040TIP3    H2 9127   2.099   3.145   0.220
 3041TIP3   OH2 9128   5.120   4.827   1.404
 3041TIP3    H1 9129   5.072   4.826   1.321
 3041TIP3    H2 9130   5.135   4.734   1.424
 3042TIP3   OH2 9131   0.238   2.602   1.480
 3042TIP3    H1 9132   0.194   2.685   1.463
 3042TIP3    H2 9133   0.285   2.616   1.562
 3043TIP3   OH2 9134   1.878   0.694   4.166
 3043TIP3    H1 9135   1.938   0.769   4.171
 3043TIP3    H2 9136   1.879   0.657   4.254
 3044TIP3   OH2 9137   2.799   3.696   1.530
 3044TIP3    H1 9138   2.747   3.636   1.476
 3044TIP3    H2 9139   2.871   3.723   1.472
 3045TIP3   OH2 9140   3.312   3.113   1.111
 3045TIP3    H1 9141   3.267   3.196   1.096
 3045TIP3    H2 9142   3.394   3.137   1.154
 3046TIP3   OH2 9143   6.185   2.522   0.057
 3046TIP3    H1 9144   6.211   2.613   0.046
 3046TIP3    H2 9145   6.237   2.475  -0.008
 3047TIP3   OH2 9146   1.995   1.658   3.150
 3047TIP3    H1 9147   1.971   1.704   3.231
 3047TIP3    H2 9148   1.915   1.612   3.124
 3048TIP3   OH2 9149   5.390   4.702   1.026
 3048TIP3    H1 9150   5.332   4.627   1.033
 3048TIP3    H2 9151   5.390   4.724   0.933
 3049TIP3   OH2 9152   1.772   5.255   4.950
 3049TIP3    H1 9153   1.743   5.167   4.928
 3049TIP3    H2 9154   1.713   5.283   5.019
 3050TIP3   OH2 9155   5.394   5.325   2.963
 3050TIP3    H1 9156   5.482   5.292   2.977
 3050TIP3    H2 9157   5.346   5.251   2.927
 3051TIP3   OH2 9158   5.596   0.811   2.811
 3051TIP3    H1 9159   5.638   0.780   2.731
 3051TIP3    H2 9160   5.636   0.760   2.881
 3052TIP3   OH2 9161   0.982   1.308   3.819
 3052TIP3    H1 9162   0.976   1.236   3.882
 3052TIP3    H2 9163   1.071   1.304   3.786
 3053TIP3   OH2 9164   0.571   1.011   1.384
 3053TIP3    H1 9165   0.623   1.082   1.346
 3053TIP3    H2 9166   0.635   0.951   1.423
 3054TIP3   OH2 9167   4.240   2.240   3.395
 3054TIP3    H1 9168   4.328   2.262   3.366
 3054TIP3    H2 9169   4.241   2.255   3.490
 3055TIP3   OH2 9170   1.371   2.673   0.371
 3055TIP3    H1 9171   1.355   2.663   0.465
 3055TIP3    H2 9172   1.395   2.585   0.342
 3056TIP3   OH2 9173   0.305   4.493   1.843
 3056TIP3    H1 9174   0.283   4.517   1.753
 3056TIP3    H2 9175   0.280   4.570   1.895
 3057TIP3   OH2 9176   1.612   2.699   3.380
 3057TIP3    H1 9177   1.616   2.769   3.315
 3057TIP3    H2 9178   1.697   2.702   3.424
 3058TIP3   OH2 9179   0.199   2.832   0.270
 3058TIP3    H1 9180   0.161   2.892   0.205
 3058TIP3    H2 9181   0.137   2.832   0.342
 3059TIP3   OH2 9182   6.059   2.399   0.877
 3059TIP3    H1 9183   6.025   2.331   0.935
 3059TIP3    H2 9184   6.020   2.480   0.910
 3060TIP3   OH2 9185   2.163   3.470   1.853
 3060TIP3    H1 9186   2.211   3.392   1.824
 3060TIP3    H2 9187   2.210   3.500   1.931
 3061TIP3   OH2 9188   1.542   0.954   0.429
 3061TIP3    H1 9189   1.558   1.027   0.370
 3061TIP3    H2 9190   1.621   0.947   0.482
 3062TIP3   OH2 9191   4.240   5.062   3.368
 3062TIP3    H1 9192   4.312   5.100   3.418
 3062TIP3    H2 9193   4.274   4.979   3.335
 3063TIP3   OH2 9194   0.977   1.978   2.534
 3063TIP3    H1 9195   0.918   1.991   2.460
 3063TIP3    H2 9196   1.015   1.891   2.519
 3064TIP3   OH2 9197   5.308   4.760   3.448
 3064TIP3    H1 9198   5.367   4.801   3.386
 3064TIP3    H2 9199   5.262   4.693   3.397
 3065TIP3   OH2 9200   4.891   2.252   3.205
 3065TIP3    H1 9201   4.819   2.207   3.247
 3065TIP3    H2 9202   4.960   2.186   3.197
 3066TIP3   OH2 9203   1.067   4.003   1.460
 3066TIP3    H1 9204   1.068   3.913   1.494
 3066TIP3    H2 9205   1.095   4.057   1.534
 3067TIP3   OH2 9206   4.684   1.852   1.712
 3067TIP3    H1 9207   4.760   1.867   1.655
 3067TIP3    H2 9208   4.634   1.934   1.708
 3068TIP3   OH2 9209   3.916   0.819   4.444
 3068TIP3    H1 9210   3.923   0.872   4.364
 3068TIP3    H2 9211   4.006   0.805   4.471
 3069TIP3   OH2 9212   4.685   3.852   1.118
 3069TIP3    H1 9213   4.627   3.928   1.124
 3069TIP3    H2 9214   4.745   3.861   1.192
 3070TIP3   OH2 9215   3.196   3.887   0.441
 3070TIP3    H1 9216   3.285   3.854   0.430
 3070TIP3    H2 9217   3.140   3.813   0.416
 3071TIP3   OH2 9218   6.297   1.520   1.306
 3071TIP3    H1 9219   6.307   1.425   1.304
 3071TIP3    H2 9220   6.335   1.547   1.389
 3072TIP3   OH2 9221   0.953   5.374   4.338
 3072TIP3    H1 9222   1.035   5.413   4.367
 3072TIP3    H2 9223   0.918   5.435   4.274
 3073TIP3   OH2 9224   2.378   5.741   0.247
 3073TIP3    H1 9225   2.352   5.829   0.271
 3073TIP3    H2 9226   2.382   5.693   0.329
 3074TIP3   OH2 9227   5.345   4.819   2.479
 3074TIP3    H1 9228   5.415   4.789   2.421
 3074TIP3    H2 9229   5.264   4.793   2.435
 3075TIP3   OH2 9230   3.554   3.614   4.440
 3075TIP3    H1 9231   3.633   3.577   4.400
 3075TIP3    H2 9232   3.484   3.594   4.379
 3076TIP3   OH2 9233   2.805   5.718   3.605
 3076TIP3    H1 9234   2.833   5.794   3.553
 3076TIP3    H2 9235   2.780   5.653   3.540
 3077TIP3   OH2 9236   4.206   2.508   1.836
 3077TIP3    H1 9237   4.146   2.434   1.825
 3077TIP3    H2 9238   4.148   2.583   1.852
 3078TIP3   OH2 9239   6.286   3.942   5.090
 3078TIP3    H1 9240   6.232   4.000   5.144
 3078TIP3    H2 9241   6.353   3.909   5.150
 3079TIP3   OH2 9242   3.926   5.926   1.238
 3079TIP3    H1 9243   3.993   5.990   1.264
 3079TIP3    H2 9244   3.916   5.939   1.143
 3080TIP3   OH2 9245   4.231   2.856   1.156
 3080TIP3    H1 9246   4.272   2.852   1.242
 3080TIP3    H2 9247   4.233   2.949   1.133
 3081TIP3   OH2 9248   1.126   4.980   3.475
 3081TIP3    H1 9249   1.202   5.022   3.515
 3081TIP3    H2 9250   1.161   4.934   3.399
 3082TIP3   OH2 9251   3.060   2.311   3.552
 3082TIP3    H1 9252   2.975   2.270   3.541
 3082TIP3    H2 9253   3.043   2.386   3.609
 3083TIP3   OH2 9254   0.274   3.189   0.742
 3083TIP3    H1 9255   0.308   3.174   0.654
 3083TIP3    H2 9256   0.241   3.279   0.740
 3084TIP3   OH2 9257   6.177   0.816   0.431
 3084TIP3    H1 9258   6.099   0.846   0.477
 3084TIP3    H2 9259   6.250   0.854   0.480
 3085TIP3   OH2 9260   1.085   5.897   1.182
 3085TIP3    H1 9261   1.113   5.973   1.232
 3085TIP3    H2 9262   1.167   5.854   1.157
 3086TIP3   OH2 9263   0.957   2.211   4.300
 3086TIP3    H1 9264   0.919   2.228   4.387
 3086TIP3    H2 9265   0.946   2.117   4.287
 3087TIP3   OH2 9266   4.898   1.388   4.347
 3087TIP3    H1 9267   4.878   1.333   4.423
 3087TIP3    H2 9268   4.837   1.358   4.279
 3088TIP3   OH2 9269   0.472   0.791   4.050
 3088TIP3    H1 9270   0.462   0.844   4.129
 3088TIP3    H2 9271   0.564   0.800   4.026
 3089TIP3   OH2 9272   0.472   2.317   1.213
 3089TIP3    H1 9273   0.492   2.265   1.135
 3089TIP3    H2 9274   0.499   2.406   1.190
 3090TIP3   OH2 9275   3.448   3.172   3.973
 3090TIP3    H1 9276   3.471   3.135   3.888
 3090TIP3    H2 9277   3.376   3.117   4.005
 3091TIP3   OH2 9278   3.870   1.645   3.614
 3091TIP3    H1 9279   3.793   1.701   3.615
 3091TIP3    H2 9280   3.836   1.556   3.616
 3092TIP3   OH2 9281   0.317   3.399   0.974
 3092TIP3    H1 9282   0.285   3.464   0.911
 3092TIP3    H2 9283   0.244   3.388   1.035
 3093TIP3   OH2 9284   2.040   4.855   4.900
 3093TIP3    H1 9285   1.964   4.899   4.861
 3093TIP3    H2 9286   2.030   4.869   4.995
 3094TIP3   OH2 9287   2.716   0.243   2.332
 3094TIP3    H1 9288   2.746   0.184   2.263
 3094TIP3    H2 9289   2.654   0.192   2.383
 3095TIP3   OH2 9290   5.227   0.971   4.502
 3095TIP3    H1 9291   5.284   1.021   4.444
 3095TIP3    H2 9292   5.264   0.882   4.502
 3096TIP3   OH2 9293   1.617   1.281   2.370
 3096TIP3    H1 9294   1.696   1.271   2.422
 3096TIP3    H2 9295   1.647   1.290   2.280
 3097TIP3   OH2 9296   0.520   2.464   4.677
 3097TIP3    H1 9297   0.429   2.468   4.647
 3097TIP3    H2 9298   0.513   2.450   4.771
 3098TIP3   OH2 9299   4.158   3.842   2.704
 3098TIP3    H1 9300   4.156   3.749   2.724
 3098TIP3    H2 9301   4.247   3.869   2.725
 3099TIP3   OH2 9302   6.030   1.236   4.186
 3099TIP3    H1 9303   5.997   1.315   4.228
 3099TIP3    H2 9304   6.020   1.254   4.092
 3100TIP3   OH2 9305   0.696   1.510   0.694
 3100TIP3    H1 9306   0.771   1.463   0.729
 3100TIP3    H2 9307   0.694   1.592   0.743
 3101TIP3   OH2 9308   4.421   1.312   2.790
 3101TIP3    H1 9309   4.436   1.360   2.872
 3101TIP3    H2 9310   4.500   1.327   2.739
 3102TIP3   OH2 9311   1.537   1.663   1.272
 3102TIP3    H1 9312   1.485   1.678   1.193
 3102TIP3    H2 9313   1.615   1.718   1.260
 3103TIP3   OH2 9314   3.365   5.902   4.390
 3103TIP3    H1 9315   3.432   5.885   4.456
 3103TIP3    H2 9316   3.359   5.821   4.339
 3104TIP3   OH2 9317   2.190   1.235   0.137
 3104TIP3    H1 9318   2.253   1.271   0.200
 3104TIP3    H2 9319   2.244   1.203   0.065
 3105TIP3   OH2 9320   3.436   5.737   0.470
 3105TIP3    H1 9321   3.342   5.747   0.456
 3105TIP3    H2 9322   3.467   5.691   0.391
 3106TIP3   OH2 9323   4.679   3.169   1.846
 3106TIP3    H1 9324   4.732   3.234   1.893
 3106TIP3    H2 9325   4.603   3.155   1.902
 3107TIP3   OH2 9326   6.002   5.370   2.971
 3107TIP3    H1 9327   6.077   5.428   2.961
 3107TIP3    H2 9328   5.968   5.390   3.058
 3108TIP3   OH2 9329   6.316   1.702   1.885
 3108TIP3    H1 9330   6.367   1.778   1.857
 3108TIP3    H2 9331   6.256   1.685   1.812
 3109TIP3   OH2 9332   5.858   3.633   2.747
 3109TIP3    H1 9333   5.835   3.582   2.670
 3109TIP3    H2 9334   5.942   3.673   2.725
 3110TIP3   OH2 9335   5.950   5.824   1.993
 3110TIP3    H1 9336   5.895   5.893   2.027
 3110TIP3    H2 9337   6.040   5.851   2.014
 3111TIP3   OH2 9338   4.735   2.147   3.700
 3111TIP3    H1 9339   4.737   2.051   3.707
 3111TIP3    H2 9340   4.704   2.176   3.785
 3112TIP3   OH2 9341   2.860   3.316   2.617
 3112TIP3    H1 9342   2.812   3.381   2.669
 3112TIP3    H2 9343   2.906   3.263   2.682
 3113TIP3   OH2 9344   4.513   5.390   3.243
 3113TIP3    H1 9345   4.567   5.370   3.319
 3113TIP3    H2 9346   4.550   5.472   3.208
 3114TIP3   OH2 9347   6.034   5.875   3.195
 3114TIP3    H1 9348   5.989   5.936   3.137
 3114TIP3    H2 9349   6.059   5.928   3.270
 3115TIP3   OH2 9350   2.723   2.660   4.414
 3115TIP3    H1 9351   2.761   2.598   4.476
 3115TIP3    H2 9352   2.634   2.628   4.398
 3116TIP3   OH2 9353   4.728   4.341   4.246
 3116TIP3    H1 9354   4.703   4.400   4.317
 3116TIP3    H2 9355   4.707   4.254   4.278
 3117TIP3   OH2 9356   5.478   2.517   0.748
 3117TIP3    H1 9357   5.536   2.462   0.800
 3117TIP3    H2 9358   5.392   2.507   0.789
 3118TIP3   OH2 9359   4.394   3.867   0.361
 3118TIP3    H1 9360   4.345   3.793   0.323
 3118TIP3    H2 9361   4.400   3.931   0.291
 3119TIP3   OH2 9362   5.587   3.203   2.045
 3119TIP3    H1 9363   5.496   3.221   2.021
 3119TIP3    H2 9364   5.639   3.250   1.979
 3120TIP3   OH2 9365   1.459   2.382   4.651
 3120TIP3    H1 9366   1.417   2.404   4.568
 3120TIP3    H2 9367   1.489   2.292   4.640
 3121TIP3   OH2 9368   2.341   2.969   2.379
 3121TIP3    H1 9369   2.296   3.043   2.337
 3121TIP3    H2 9370   2.412   3.009   2.428
 3122TIP3   OH2 9371   5.146   2.292   1.399
 3122TIP3    H1 9372   5.089   2.250   1.463
 3122TIP3    H2 9373   5.219   2.326   1.451
 3123TIP3   OH2 9374   4.739   3.305   0.822
 3123TIP3    H1 9375   4.727   3.210   0.822
 3123TIP3    H2 9376   4.762   3.327   0.912
 3124TIP3   OH2 9377   2.891   2.108   4.359
 3124TIP3    H1 9378   2.898   2.016   4.337
 3124TIP3    H2 9379   2.932   2.115   4.446
 3125TIP3   OH2 9380   5.366   0.541   2.856
 3125TIP3    H1 9381   5.456   0.520   2.830
 3125TIP3    H2 9382   5.330   0.592   2.784
 3126TIP3   OH2 9383   0.325   5.866   2.263
 3126TIP3    H1 9384   0.354   5.894   2.350
 3126TIP3    H2 9385   0.235   5.836   2.277
 3127TIP3   OH2 9386   4.326   2.363   2.508
 3127TIP3    H1 9387   4.404   2.350   2.561
 3127TIP3    H2 9388   4.290   2.275   2.495
 3128TIP3   OH2 9389   2.168   0.386   2.426
 3128TIP3    H1 9390   2.151   0.447   2.498
 3128TIP3    H2 9391   2.256   0.410   2.395
 3129TIP3   OH2 9392   4.908   0.980   1.622
 3129TIP3    H1 9393   4.969   0.990   1.695
 3129TIP3    H2 9394   4.959   0.935   1.554
 3130TIP3   OH2 9395   1.125   4.713   2.535
 3130TIP3    H1 9396   1.065   4.778   2.500
 3130TIP3    H2 9397   1.210   4.735   2.496
 3131TIP3   OH2 9398   4.616   2.362   4.726
 3131TIP3    H1 9399   4.628   2.297   4.795
 3131TIP3    H2 9400   4.705   2.388   4.702
 3132TIP3   OH2 9401   2.682   4.838   2.888
 3132TIP3    H1 9402   2.768   4.810   2.918
 3132TIP3    H2 9403   2.642   4.879   2.964
 3133TIP3   OH2 9404   3.837   4.079   0.073
 3133TIP3    H1 9405   3.759   4.064   0.127
 3133TIP3    H2 9406   3.802   4.105  -0.012
 3134TIP3   OH2 9407   4.020   2.292   0.483
 3134TIP3    H1 9408   4.072   2.243   0.546
 3134TIP3    H2 9409   4.075   2.296   0.405
 3135TIP3   OH2 9410   5.440   5.768   2.457
 3135TIP3    H1 9411   5.456   5.770   2.362
 3135TIP3    H2 9412   5.347   5.747   2.465
 3136TIP3   OH2 9413   0.142   4.034   2.602
 3136TIP3    H1 9414   0.209   4.063   2.664
 3136TIP3    H2 9415   0.180   3.957   2.559
 3137TIP3   OH2 9416   2.528   4.448   4.050
 3137TIP3    H1 9417   2.445   4.427   4.093
 3137TIP3    H2 9418   2.522   4.405   3.965
 3138TIP3   OH2 9419   4.404   1.926   3.192
 3138TIP3    H1 9420   4.492   1.962   3.203
 3138TIP3    H2 9421   4.374   1.961   3.108
 3139TIP3   OH2 9422   4.247   3.023   0.617
 3139TIP3    H1 9423   4.259   3.118   0.616
 3139TIP3    H2 9424   4.238   3.001   0.710
 3140TIP3   OH2 9425   4.372   2.085   2.519
 3140TIP3    H1 9426   4.337   2.059   2.433
 3140TIP3    H2 9427   4.366   2.006   2.572
 3141TIP3   OH2 9428   1.695   2.717   0.807
 3141TIP3    H1 9429   1.686   2.718   0.902
 3141TIP3    H2 9430   1.701   2.625   0.784
 3142TIP3   OH2 9431   4.740   4.861   4.095
 3142TIP3    H1 9432   4.828   4.883   4.062
 3142TIP3    H2 9433   4.753   4.782   4.147
 3143TIP3   OH2 9434   0.396   2.680   0.907
 3143TIP3    H1 9435   0.337   2.708   0.977
 3143TIP3    H2 9436   0.467   2.634   0.953
 3144TIP3   OH2 9437   5.261   4.736   3.915
 3144TIP3    H1 9438   5.254   4.831   3.927
 3144TIP3    H2 9439   5.316   4.726   3.837
 3145TIP3   OH2 9440   4.101   5.393   1.591
 3145TIP3    H1 9441   4.153   5.329   1.542
 3145TIP3    H2 9442   4.156   5.471   1.594
 3146TIP3   OH2 9443   2.383   3.763   0.442
 3146TIP3    H1 9444   2.410   3.715   0.364
 3146TIP3    H2 9445   2.300   3.724   0.467
 3147TIP3   OH2 9446   4.615   1.678   4.630
 3147TIP3    H1 9447   4.573   1.756   4.595
 3147TIP3    H2 9448   4.590   1.608   4.570
 3148TIP3   OH2 9449   1.308   0.498   0.752
 3148TIP3    H1 9450   1.252   0.421   0.749
 3148TIP3    H2 9451   1.345   0.505   0.664
 3149TIP3   OH2 9452   2.105   4.762   3.733
 3149TIP3    H1 9453   2.197   4.738   3.744
 3149TIP3    H2 9454   2.057   4.698   3.787
 3150TIP3   OH2 9455   0.371   2.375   4.014
 3150TIP3    H1 9456   0.452   2.399   4.059
 3150TIP3    H2 9457   0.354   2.285   4.041
 3151TIP3   OH2 9458   1.223   2.949   2.853
 3151TIP3    H1 9459   1.266   2.864   2.857
 3151TIP3    H2 9460   1.195   2.958   2.762
 3152TIP3   OH2 9461   6.019   3.841   4.049
 3152TIP3    H1 9462   6.002   3.919   4.101
 3152TIP3    H2 9463   5.936   3.824   4.003
 3153TIP3   OH2 9464   4.609   3.476   3.386
 3153TIP3    H1 9465   4.516   3.454   3.379
 3153TIP3    H2 9466   4.640   3.427   3.461
 3154TIP3   OH2 9467   2.893   1.274   0.235
 3154TIP3    H1 9468   2.985   1.296   0.222
 3154TIP3    H2 9469   2.846   1.330   0.173
 3155TIP3   OH2 9470   6.132   5.892   5.103
 3155TIP3    H1 9471   6.197   5.957   5.130
 3155TIP3    H2 9472   6.146   5.817   5.161
 3156TIP3   OH2 9473   5.509   1.226   3.049
 3156TIP3    H1 9474   5.571   1.285   3.093
 3156TIP3    H2 9475   5.447   1.202   3.118
 3157TIP3   OH2 9476   1.641   1.833   3.989
 3157TIP3    H1 9477   1.559   1.809   4.031
 3157TIP3    H2 9478   1.704   1.769   4.022
 3158TIP3   OH2 9479   5.648   5.338   2.504
 3158TIP3    H1 9480   5.715   5.385   2.455
 3158TIP3    H2 9481   5.654   5.372   2.594
 3159TIP3   OH2 9482   1.320   2.105   4.737
 3159TIP3    H1 9483   1.411   2.106   4.707
 3159TIP3    H2 9484   1.320   2.046   4.813
 3160TIP3   OH2 9485   0.613   3.754   0.204
 3160TIP3    H1 9486   0.690   3.724   0.252
 3160TIP3    H2 9487   0.578   3.827   0.255
 3161TIP3   OH2 9488   4.802   3.524   2.411
 3161TIP3    H1 9489   4.781   3.439   2.372
 3161TIP3    H2 9490   4.875   3.506   2.471
 3162TIP3   OH2 9491   0.558   1.325   1.454
 3162TIP3    H1 9492   0.570   1.240   1.497
 3162TIP3    H2 9493   0.618   1.384   1.499
 3163TIP3   OH2 9494   2.448   5.938   2.156
 3163TIP3    H1 9495   2.445   5.872   2.087
 3163TIP3    H2 9496   2.416   6.017   2.114
 3164TIP3   OH2 9497   0.895   2.239   1.080
 3164TIP3    H1 9498   0.919   2.272   1.167
 3164TIP3    H2 9499   0.967   2.268   1.023
 3165TIP3   OH2 9500   2.638   2.175   1.778
 3165TIP3    H1 9501   2.554   2.177   1.824
 3165TIP3    H2 9502   2.658   2.267   1.762
 3166TIP3   OH2 9503   5.305   0.684   3.096
 3166TIP3    H1 9504   5.379   0.731   3.133
 3166TIP3    H2 9505   5.340   0.639   3.020
 3167TIP3   OH2 9506   3.343   2.213   2.085
 3167TIP3    H1 9507   3.300   2.190   2.003
 3167TIP3    H2 9508   3.272   2.241   2.143
 3168TIP3   OH2 9509   1.861   1.151   4.228
 3168TIP3    H1 9510   1.803   1.076   4.243
 3168TIP3    H2 9511   1.939   1.114   4.187
 3169TIP3   OH2 9512   1.351   5.311   4.615
 3169TIP3    H1 9513   1.418   5.348   4.673
 3169TIP3    H2 9514   1.399   5.250   4.559
 3170TIP3   OH2 9515   2.440   5.844   2.678
 3170TIP3    H1 9516   2.445   5.789   2.757
 3170TIP3    H2 9517   2.384   5.918   2.704
 3171TIP3   OH2 9518   5.100   1.544   3.511
 3171TIP3    H1 9519   5.156   1.467   3.523
 3171TIP3    H2 9520   5.015   1.507   3.487
 3172TIP3   OH2 9521   1.063   4.401   4.395
 3172TIP3    H1 9522   1.114   4.462   4.341
 3172TIP3    H2 9523   1.128   4.350   4.442
 3173TIP3   OH2 9524   5.197   5.572   5.005
 3173TIP3    H1 9525   5.266   5.613   5.057
 3173TIP3    H2 9526   5.116   5.597   5.050
 3174TIP3   OH2 9527   0.339   1.494   1.744
 3174TIP3    H1 9528   0.293   1.475   1.826
 3174TIP3    H2 9529   0.334   1.413   1.694
 3175TIP3   OH2 9530   2.331   4.268   4.313
 3175TIP3    H1 9531   2.404   4.273   4.375
 3175TIP3    H2 9532   2.257   4.237   4.364
 3176TIP3   OH2 9533   0.271   0.797   2.209
 3176TIP3    H1 9534   0.177   0.798   2.225
 3176TIP3    H2 9535   0.282   0.747   2.129
 3177TIP3   OH2 9536   0.585   2.112   4.655
 3177TIP3    H1 9537   0.580   2.168   4.732
 3177TIP3    H2 9538   0.527   2.154   4.591
 3178TIP3   OH2 9539   4.415   5.615   3.557
 3178TIP3    H1 9540   4.361   5.686   3.522
 3178TIP3    H2 9541   4.505   5.647   3.547
 3179TIP3   OH2 9542   6.049   1.883   0.329
 3179TIP3    H1 9543   5.956   1.874   0.350
 3179TIP3    H2 9544   6.050   1.918   0.240
 3180TIP3   OH2 9545   1.490   2.467   2.593
 3180TIP3    H1 9546   1.465   2.382   2.629
 3180TIP3    H2 9547   1.542   2.445   2.515
 3181TIP3   OH2 9548   0.547   3.050   3.532
 3181TIP3    H1 9549   0.594   3.012   3.606
 3181TIP3    H2 9550   0.505   3.129   3.568
 3182TIP3   OH2 9551   6.232   3.864   4.822
 3182TIP3    H1 9552   6.251   3.891   4.912
 3182TIP3    H2 9553   6.142   3.894   4.807
 3183TIP3   OH2 9554   2.842   4.754   3.939
 3183TIP3    H1 9555   2.853   4.662   3.914
 3183TIP3    H2 9556   2.786   4.750   4.016
 3184TIP3   OH2 9557   0.843   0.569   0.832
 3184TIP3    H1 9558   0.869   0.633   0.898
 3184TIP3    H2 9559   0.750   0.587   0.816
 3185TIP3   OH2 9560   3.235   3.083   0.112
 3185TIP3    H1 9561   3.140   3.097   0.116
 3185TIP3    H2 9562   3.268   3.118   0.195
 3186TIP3   OH2 9563   0.159   4.259   1.899
 3186TIP3    H1 9564   0.230   4.321   1.885
 3186TIP3    H2 9565   0.080   4.314   1.901
 3187TIP3   OH2 9566   0.921   0.308   1.810
 3187TIP3    H1 9567   0.859   0.381   1.802
 3187TIP3    H2 9568   0.886   0.242   1.750
 3188TIP3   OH2 9569   4.419   2.154   1.475
 3188TIP3    H1 9570   4.380   2.233   1.439
 3188TIP3    H2 9571   4.471   2.118   1.402
 3189TIP3   OH2 9572   4.226   4.344   0.274
 3189TIP3    H1 9573   4.296   4.334   0.339
 3189TIP3    H2 9574   4.149   4.368   0.324
 3190TIP3   OH2 9575   5.129   1.214   3.388
 3190TIP3    H1 9576   5.081   1.152   3.441
 3190TIP3    H2 9577   5.202   1.242   3.444
 3191TIP3   OH2 9578   0.466   4.910   2.045
 3191TIP3    H1 9579   0.452   4.852   1.970
 3191TIP3    H2 9580   0.438   4.996   2.014
 3192TIP3   OH2 9581   4.094   0.198   2.704
 3192TIP3    H1 9582   4.153   0.271   2.684
 3192TIP3    H2 9583   4.140   0.120   2.671
 3193TIP3   OH2 9584   5.645   3.261   4.220
 3193TIP3    H1 9585   5.597   3.235   4.142
 3193TIP3    H2 9586   5.679   3.179   4.256
 3194TIP3   OH2 9587   3.814   1.301   3.914
 3194TIP3    H1 9588   3.724   1.267   3.910
 3194TIP3    H2 9589   3.835   1.300   4.007
 3195TIP3   OH2 9590   0.246   3.702   2.768
 3195TIP3    H1 9591   0.230   3.734   2.679
 3195TIP3    H2 9592   0.322   3.750   2.798
 3196TIP3   OH2 9593   5.927   5.114   4.453
 3196TIP3    H1 9594   5.883   5.182   4.503
 3196TIP3    H2 9595   6.005   5.092   4.504
 3197TIP3   OH2 9596   2.282   1.602   1.182
 3197TIP3    H1 9597   2.303   1.668   1.116
 3197TIP3    H2 9598   2.359   1.546   1.187
 3198TIP3   OH2 9599   4.065   3.670   4.553
 3198TIP3    H1 9600   3.994   3.708   4.502
 3198TIP3    H2 9601   4.144   3.691   4.503
 3199TIP3   OH2 9602   0.057   3.235   1.740
 3199TIP3    H1 9603   0.063   3.228   1.645
 3199TIP3    H2 9604  -0.002   3.164   1.765
 3200TIP3   OH2 9605   3.746   1.011   0.524
 3200TIP3    H1 9606   3.671   1.062   0.556
 3200TIP3    H2 9607   3.707   0.940   0.474
 3201TIP3   OH2 9608   1.148   4.994   4.081
 3201TIP3    H1 9609   1.089   5.055   4.126
 3201TIP3    H2 9610   1.235   5.030   4.094
 3202TIP3   OH2 9611   0.265   3.077   4.507
 3202TIP3    H1 9612   0.185   3.101   4.460
 3202TIP3    H2 9613   0.280   2.986   4.484
 3203TIP3   OH2 9614   4.017   5.616   1.323
 3203TIP3    H1 9615   3.926   5.627   1.296
 3203TIP3    H2 9616   4.028   5.678   1.395
 3204TIP3   OH2 9617   4.333   1.378   0.112
 3204TIP3    H1 9618   4.354   1.457   0.163
 3204TIP3    H2 9619   4.310   1.313   0.177
 3205TIP3   OH2 9620   0.530   2.824   4.877
 3205TIP3    H1 9621   0.450   2.776   4.857
 3205TIP3    H2 9622   0.597   2.783   4.821
 3206TIP3   OH2 9623   5.931   4.627   2.555
 3206TIP3    H1 9624   5.935   4.560   2.486
 3206TIP3    H2 9625   5.846   4.613   2.596
 3207TIP3   OH2 9626   2.681   5.155   3.199
 3207TIP3    H1 9627   2.768   5.118   3.218
 3207TIP3    H2 9628   2.640   5.090   3.142
 3208TIP3   OH2 9629   5.529   3.197   1.505
 3208TIP3    H1 9630   5.503   3.286   1.482
 3208TIP3    H2 9631   5.509   3.145   1.427
 3209TIP3   OH2 9632   5.337   3.119   1.718
 3209TIP3    H1 9633   5.390   3.136   1.641
 3209TIP3    H2 9634   5.381   3.046   1.763
 3210TIP3   OH2 9635   0.004   0.757   2.580
 3210TIP3    H1 9636   0.042   0.808   2.652
 3210TIP3    H2 9637   0.078   0.710   2.542
 3211TIP3   OH2 9638   0.357   4.864   2.308
 3211TIP3    H1 9639   0.361   4.870   2.213
 3211TIP3    H2 9640   0.345   4.955   2.338
 3212TIP3   OH2 9641   3.676   2.397   2.330
 3212TIP3    H1 9642   3.643   2.308   2.343
 3212TIP3    H2 9643   3.734   2.411   2.405
 3213TIP3   OH2 9644   0.331   4.720   3.263
 3213TIP3    H1 9645   0.302   4.718   3.354
 3213TIP3    H2 9646   0.270   4.663   3.217
 3214TIP3   OH2 9647   1.222   3.865   0.475
 3214TIP3    H1 9648   1.174   3.920   0.537
 3214TIP3    H2 9649   1.252   3.926   0.407
 3215TIP3   OH2 9650   1.434   5.915   2.803
 3215TIP3    H1 9651   1.419   6.006   2.775
 3215TIP3    H2 9652   1.501   5.883   2.743
 3216TIP3   OH2 9653   2.879   5.596   0.553
 3216TIP3    H1 9654   2.793   5.557   0.538
 3216TIP3    H2 9655   2.935   5.556   0.487
 3217TIP3   OH2 9656   1.507   4.149   4.163
 3217TIP3    H1 9657   1.479   4.241   4.169
 3217TIP3    H2 9658   1.597   4.154   4.130
 3218TIP3   OH2 9659   0.572   4.080   0.923
 3218TIP3    H1 9660   0.600   4.120   1.005
 3218TIP3    H2 9661   0.517   4.006   0.950
 3219TIP3   OH2 9662   2.426   1.269   2.840
 3219TIP3    H1 9663   2.473   1.346   2.871
 3219TIP3    H2 9664   2.492   1.219   2.790
 3220TIP3   OH2 9665   5.945   1.684   0.880
 3220TIP3    H1 9666   5.941   1.589   0.865
 3220TIP3    H2 9667   6.029   1.711   0.843
 3221TIP3   OH2 9668   3.566   0.317   4.677
 3221TIP3    H1 9669   3.565   0.381   4.605
 3221TIP3    H2 9670   3.606   0.365   4.750
 3222TIP3   OH2 9671   4.802   4.425   3.123
 3222TIP3    H1 9672   4.771   4.505   3.166
 3222TIP3    H2 9673   4.847   4.376   3.192
 3223TIP3   OH2 9674   0.958   5.039   4.472
 3223TIP3    H1 9675   1.053   5.037   4.463
 3223TIP3    H2 9676   0.928   5.096   4.401
 3224TIP3   OH2 9677   2.766   3.554   0.569
 3224TIP3    H1 9678   2.825   3.509   0.630
 3224TIP3    H2 9679   2.697   3.490   0.551
 3225TIP3   OH2 9680   5.743   5.121   2.210
 3225TIP3    H1 9681   5.757   5.056   2.279
 3225TIP3    H2 9682   5.738   5.204   2.257
 3226TIP3   OH2 9683   6.012   0.684   1.845
 3226TIP3    H1 9684   5.932   0.732   1.824
 3226TIP3    H2 9685   5.982   0.599   1.877
 3227TIP3   OH2 9686   6.207   1.971   4.530
 3227TIP3    H1 9687   6.289   1.926   4.549
 3227TIP3    H2 9688   6.141   1.902   4.530
 3228TIP3   OH2 9689   1.142   5.364   4.087
 3228TIP3    H1 9690   1.204   5.374   4.016
 3228TIP3    H2 9691   1.196   5.348   4.164
 3229TIP3   OH2 9692   1.726   1.318   3.983
 3229TIP3    H1 9693   1.678   1.271   3.915
 3229TIP3    H2 9694   1.778   1.250   4.027
 3230TIP3   OH2 9695   4.163   4.003   0.885
 3230TIP3    H1 9696   4.120   3.922   0.913
 3230TIP3    H2 9697   4.173   3.993   0.790
 3231TIP3   OH2 9698   0.478   3.268   2.365
 3231TIP3    H1 9699   0.450   3.184   2.401
 3231TIP3    H2 9700   0.437   3.333   2.422
 3232TIP3   OH2 9701   1.430   5.165   0.430
 3232TIP3    H1 9702   1.487   5.185   0.504
 3232TIP3    H2 9703   1.354   5.122   0.470
 3233TIP3   OH2 9704   0.579   4.566   3.958
 3233TIP3    H1 9705   0.583   4.638   3.895
 3233TIP3    H2 9706   0.655   4.512   3.938
 3234TIP3   OH2 9707   4.825   1.733   3.077
 3234TIP3    H1 9708   4.874   1.651   3.089
 3234TIP3    H2 9709   4.742   1.706   3.038
 3235TIP3   OH2 9710   2.694   2.753   5.013
 3235TIP3    H1 9711   2.695   2.786   5.102
 3235TIP3    H2 9712   2.778   2.707   5.004
 3236TIP3   OH2 9713   6.230   4.527   2.491
 3236TIP3    H1 9714   6.259   4.618   2.485
 3236TIP3    H2 9715   6.207   4.515   2.583
 3237TIP3   OH2 9716   4.850   1.695   4.467
 3237TIP3    H1 9717   4.924   1.648   4.505
 3237TIP3    H2 9718   4.780   1.686   4.532
 3238TIP3   OH2 9719   2.942   0.150   4.877
 3238TIP3    H1 9720   2.963   0.219   4.814
 3238TIP3    H2 9721   2.917   0.197   4.957
 3239TIP3   OH2 9722   4.606   4.326   0.247
 3239TIP3    H1 9723   4.576   4.236   0.235
 3239TIP3    H2 9724   4.665   4.342   0.173
 3240TIP3   OH2 9725   3.016   5.048   1.703
 3240TIP3    H1 9726   2.926   5.061   1.672
 3240TIP3    H2 9727   3.053   4.982   1.644
 3241TIP3   OH2 9728   5.916   0.987   0.270
 3241TIP3    H1 9729   5.973   1.042   0.324
 3241TIP3    H2 9730   5.833   1.035   0.266
 3242TIP3   OH2 9731   0.811   1.187   3.167
 3242TIP3    H1 9732   0.902   1.210   3.151
 3242TIP3    H2 9733   0.767   1.200   3.083
 3243TIP3   OH2 9734   5.146   0.459   3.739
 3243TIP3    H1 9735   5.075   0.400   3.715
 3243TIP3    H2 9736   5.145   0.460   3.835
 3244TIP3   OH2 9737   0.535   4.529   2.814
 3244TIP3    H1 9738   0.441   4.529   2.831
 3244TIP3    H2 9739   0.567   4.449   2.854
 3245TIP3   OH2 9740   4.158   3.579   2.136
 3245TIP3    H1 9741   4.248   3.583   2.103
 3245TIP3    H2 9742   4.147   3.489   2.166
 3246TIP3   OH2 9743   2.047   2.692   5.016
 3246TIP3    H1 9744   1.977   2.638   4.979
 3246TIP3    H2 9745   2.088   2.733   4.940
 3247TIP3   OH2 9746   4.408   1.462   1.602
 3247TIP3    H1 9747   4.487   1.414   1.574
 3247TIP3    H2 9748   4.441   1.547   1.632
 3248TIP3   OH2 9749   1.525   4.585   4.803
 3248TIP3    H1 9750   1.579   4.560   4.728
 3248TIP3    H2 9751   1.488   4.670   4.778
 3249TIP3   OH2 9752   3.341   4.337   3.803
 3249TIP3    H1 9753   3.254   4.374   3.787
 3249TIP3    H2 9754   3.324   4.247   3.831
 3250TIP3   OH2 9755   4.674   0.980   1.381
 3250TIP3    H1 9756   4.636   0.927   1.451
 3250TIP3    H2 9757   4.613   0.969   1.307
 3251TIP3   OH2 9758   1.034   2.413   2.312
 3251TIP3    H1 9759   1.067   2.348   2.374
 3251TIP3    H2 9760   1.110   2.440   2.261
 3252TIP3   OH2 9761   5.020   3.240   0.551
 3252TIP3    H1 9762   4.993   3.163   0.501
 3252TIP3    H2 9763   4.951   3.304   0.535
 3253TIP3   OH2 9764   2.285   3.463   0.333
 3253TIP3    H1 9765   2.209   3.511   0.366
 3253TIP3    H2 9766   2.272   3.458   0.238
 3254TIP3   OH2 9767   1.442   5.621   3.526
 3254TIP3    H1 9768   1.459   5.651   3.437
 3254TIP3    H2 9769   1.349   5.640   3.539
 3255TIP3   OH2 9770   2.852   5.016   0.332
 3255TIP3    H1 9771   2.929   5.026   0.277
 3255TIP3    H2 9772   2.780   5.049   0.279
 3256TIP3   OH2 9773   1.703   1.080   1.212
 3256TIP3    H1 9774   1.654   1.009   1.171
 3256TIP3    H2 9775   1.640   1.122   1.271
 3257TIP3   OH2 9776   3.099   0.961   4.642
 3257TIP3    H1 9777   3.029   0.995   4.698
 3257TIP3    H2 9778   3.174   1.016   4.662
 3258TIP3   OH2 9779   2.154   1.150   2.805
 3258TIP3    H1 9780   2.187   1.236   2.780
 3258TIP3    H2 9781   2.078   1.169   2.861
 3259TIP3   OH2 9782   0.131   0.871   4.584
 3259TIP3    H1 9783   0.069   0.884   4.512
 3259TIP3    H2 9784   0.076   0.868   4.663
 3260TIP3   OH2 9785   6.156   0.499   5.028
 3260TIP3    H1 9786   6.194   0.462   4.948
 3260TIP3    H2 9787   6.146   0.425   5.087
 3261TIP3   OH2 9788   1.005   0.543   3.840
 3261TIP3    H1 9789   0.982   0.546   3.933
 3261TIP3    H2 9790   1.072   0.610   3.830
 3262TIP3   OH2 9791   1.335   2.693   4.901
 3262TIP3    H1 9792   1.242   2.675   4.887
 3262TIP3    H2 9793   1.349   2.776   4.855
 3263TIP3   OH2 9794   5.811   4.927   2.403
 3263TIP3    H1 9795   5.749   4.937   2.474
 3263TIP3    H2 9796   5.896   4.952   2.441
 3264TIP3   OH2 9797   2.457   5.251   2.602
 3264TIP3    H1 9798   2.491   5.317   2.662
 3264TIP3    H2 9799   2.521   5.247   2.531
 3265TIP3   OH2 9800   0.249   4.331   1.574
 3265TIP3    H1 9801   0.336   4.362   1.601
 3265TIP3    H2 9802   0.229   4.382   1.495
 3266TIP3   OH2 9803   0.891   2.974   2.209
 3266TIP3    H1 9804   0.938   2.916   2.269
 3266TIP3    H2 9805   0.824   3.016   2.262
 3267TIP3   OH2 9806   0.122   3.612   4.497
 3267TIP3    H1 9807   0.103   3.705   4.505
 3267TIP3    H2 9808   0.038   3.568   4.512
 3268TIP3   OH2 9809   2.279   5.305   0.374
 3268TIP3    H1 9810   2.298   5.389   0.415
 3268TIP3    H2 9811   2.364   5.264   0.361
 3269TIP3   OH2 9812   4.402   0.935   3.826
 3269TIP3    H1 9813   4.485   0.917   3.871
 3269TIP3    H2 9814   4.359   0.850   3.821
 3270TIP3   OH2 9815   3.078   2.062   5.037
 3270TIP3    H1 9816   3.042   2.089   5.121
 3270TIP3    H2 9817   3.003   2.035   4.985
 3271TIP3   OH2 9818   4.441   4.303   3.854
 3271TIP3    H1 9819   4.457   4.325   3.946
 3271TIP3    H2 9820   4.514   4.245   3.830
 3272TIP3   OH2 9821   1.884   1.792   4.949
 3272TIP3    H1 9822   1.888   1.702   4.916
 3272TIP3    H2 9823   1.806   1.829   4.909
 3273TIP3   OH2 9824   4.393   4.339   0.492
 3273TIP3    H1 9825   4.420   4.294   0.572
 3273TIP3    H2 9826   4.475   4.356   0.445
 3274TIP3   OH2 9827   4.566   0.850   2.671
 3274TIP3    H1 9828   4.496   0.913   2.684
 3274TIP3    H2 9829   4.647   0.899   2.686
 3275TIP3   OH2 9830   3.804   4.845   3.769
 3275TIP3    H1 9831   3.794   4.919   3.829
 3275TIP3    H2 9832   3.869   4.875   3.705
 3276TIP3   OH2 9833   4.124   4.832   0.360
 3276TIP3    H1 9834   4.161   4.763   0.414
 3276TIP3    H2 9835   4.040   4.798   0.332
 3277TIP3   OH2 9836   3.835   1.731   0.639
 3277TIP3    H1 9837   3.881   1.651   0.613
 3277TIP3    H2 9838   3.770   1.745   0.570
 3278TIP3   OH2 9839   4.959   1.162   0.033
 3278TIP3    H1 9840   4.912   1.232  -0.013
 3278TIP3    H2 9841   4.895   1.126   0.095
 3279TIP3   OH2 9842   1.699   0.835   2.883
 3279TIP3    H1 9843   1.694   0.901   2.813
 3279TIP3    H2 9844   1.610   0.830   2.917
 3280TIP3   OH2 9845   5.366   4.015   3.058
 3280TIP3    H1 9846   5.413   3.931   3.058
 3280TIP3    H2 9847   5.337   4.026   3.149
 3281TIP3   OH2 9848   0.282   1.077   3.790
 3281TIP3    H1 9849   0.300   1.093   3.883
 3281TIP3    H2 9850   0.344   1.008   3.766
 3282TIP3   OH2 9851   6.318   4.829   3.166
 3282TIP3    H1 9852   6.397   4.820   3.220
 3282TIP3    H2 9853   6.338   4.903   3.108
 3283TIP3   OH2 9854   2.014   5.738   1.342
 3283TIP3    H1 9855   2.051   5.801   1.403
 3283TIP3    H2 9856   2.087   5.714   1.285
 3284TIP3   OH2 9857   6.146   5.851   3.459
 3284TIP3    H1 9858   6.160   5.756   3.461
 3284TIP3    H2 9859   6.076   5.866   3.522
 3285TIP3   OH2 9860   5.252   1.385   3.947
 3285TIP3    H1 9861   5.301   1.404   3.868
 3285TIP3    H2 9862   5.273   1.294   3.968
 3286TIP3   OH2 9863   0.123   5.825   0.732
 3286TIP3    H1 9864   0.082   5.794   0.813
 3286TIP3    H2 9865   0.201   5.770   0.723
 3287TIP3   OH2 9866   3.478   2.601   2.154
 3287TIP3    H1 9867   3.443   2.550   2.227
 3287TIP3    H2 9868   3.524   2.537   2.100
 3288TIP3   OH2 9869   0.399   3.103   1.381
 3288TIP3    H1 9870   0.414   3.014   1.413
 3288TIP3    H2 9871   0.370   3.092   1.291
 3289TIP3   OH2 9872   1.496   0.647   0.899
 3289TIP3    H1 9873   1.519   0.714   0.834
 3289TIP3    H2 9874   1.448   0.581   0.848
 3290TIP3   OH2 9875   5.981   2.896   0.889
 3290TIP3    H1 9876   5.954   2.830   0.826
 3290TIP3    H2 9877   5.903   2.913   0.941
 3291TIP3   OH2 9878   3.990   4.752   0.771
 3291TIP3    H1 9879   4.069   4.731   0.721
 3291TIP3    H2 9880   4.021   4.812   0.839
 3292TIP3   OH2 9881   3.315   1.972   2.339
 3292TIP3    H1 9882   3.327   1.910   2.411
 3292TIP3    H2 9883   3.231   1.947   2.300
 3293TIP3   OH2 9884   3.581   3.101   3.422
 3293TIP3    H1 9885   3.513   3.083   3.357
 3293TIP3    H2 9886   3.534   3.139   3.496
 3294TIP3   OH2 9887   5.658   2.233   1.285
 3294TIP3    H1 9888   5.576   2.186   1.302
 3294TIP3    H2 9889   5.704   2.178   1.221
 3295TIP3   OH2 9890   3.284   3.941   2.136
 3295TIP3    H1 9891   3.271   4.027   2.176
 3295TIP3    H2 9892   3.218   3.937   2.066
 3296TIP3   OH2 9893   6.172   0.548   3.224
 3296TIP3    H1 9894   6.258   0.509   3.243
 3296TIP3    H2 9895   6.180   0.582   3.135
 3297TIP3   OH2 9896   2.213   5.222   4.406
 3297TIP3    H1 9897   2.241   5.213   4.497
 3297TIP3    H2 9898   2.245   5.143   4.363
 3298TIP3   OH2 9899   5.627   5.810   4.311
 3298TIP3    H1 9900   5.687   5.805   4.386
 3298TIP3    H2 9901   5.683   5.829   4.236
 3299TIP3   OH2 9902   1.178   5.774   2.729
 3299TIP3    H1 9903   1.242   5.706   2.753
 3299TIP3    H2 9904   1.228   5.856   2.735
 3300TIP3   OH2 9905   5.093   4.034   4.215
 3300TIP3    H1 9906   5.174   4.029   4.267
 3300TIP3    H2 9907   5.104   4.112   4.161
 3301TIP3   OH2 9908   2.064   5.949   0.208
 3301TIP3    H1 9909   2.107   6.023   0.165
 3301TIP3    H2 9910   2.066   5.970   0.301
 3302TIP3   OH2 9911   5.358   3.517   1.201
 3302TIP3    H1 9912   5.446   3.528   1.167
 3302TIP3    H2 9913   5.316   3.455   1.141
 3303TIP3   OH2 9914   0.590   2.738   4.441
 3303TIP3    H1 9915   0.621   2.746   4.531
 3303TIP3    H2 9916   0.506   2.783   4.440
 3304TIP3   OH2 9917   6.182   5.898   0.476
 3304TIP3    H1 9918   6.227   5.817   0.450
 3304TIP3    H2 9919   6.238   5.968   0.444
 3305TIP3   OH2 9920   1.775   5.545   2.662
 3305TIP3    H1 9921   1.871   5.545   2.658
 3305TIP3    H2 9922   1.752   5.461   2.702
 3306TIP3   OH2 9923   3.208   3.221   2.567
 3306TIP3    H1 9924   3.246   3.254   2.648
 3306TIP3    H2 9925   3.145   3.289   2.541
 3307TIP3   OH2 9926   4.776   4.022   0.879
 3307TIP3    H1 9927   4.845   3.967   0.916
 3307TIP3    H2 9928   4.702   4.010   0.938
 3308TIP3   OH2 9929   5.295   5.099   2.857
 3308TIP3    H1 9930   5.343   5.016   2.864
 3308TIP3    H2 9931   5.276   5.107   2.764
 3309TIP3   OH2 9932   5.807   1.487   2.880
 3309TIP3    H1 9933   5.715   1.487   2.854
 3309TIP3    H2 9934   5.819   1.405   2.928
 3310TIP3   OH2 9935   5.513   5.719   3.621
 3310TIP3    H1 9936   5.501   5.808   3.656
 3310TIP3    H2 9937   5.496   5.662   3.696
 3311TIP3   OH2 9938   6.235   3.341   4.805
 3311TIP3    H1 9939   6.223   3.360   4.898
 3311TIP3    H2 9940   6.198   3.254   4.794
 3312TIP3   OH2 9941   1.678   2.071   1.375
 3312TIP3    H1 9942   1.744   2.050   1.310
 3312TIP3    H2 9943   1.636   2.150   1.343
 3313TIP3   OH2 9944   5.865   5.166   3.998
 3313TIP3    H1 9945   5.781   5.166   4.044
 3313TIP3    H2 9946   5.855   5.228   3.927
 3314TIP3   OH2 9947   4.168   1.556   1.947
 3314TIP3    H1 9948   4.076   1.582   1.956
 3314TIP3    H2 9949   4.170   1.504   1.867
 3315TIP3   OH2 9950   2.783   5.252   2.088
 3315TIP3    H1 9951   2.826   5.332   2.058
 3315TIP3    H2 9952   2.849   5.183   2.076
 3316TIP3   OH2 9953   5.325   3.288   1.948
 3316TIP3    H1 9954   5.305   3.224   1.880
 3316TIP3    H2 9955   5.300   3.373   1.910
 3317TIP3   OH2 9956   3.584   1.556   3.835
 3317TIP3    H1 9957   3.637   1.539   3.757
 3317TIP3    H2 9958   3.494   1.536   3.808
 3318TIP3   OH2 9959   0.035   1.224   0.787
 3318TIP3    H1 9960   0.119   1.190   0.819
 3318TIP3    H2 9961   0.060   1.298   0.732
 3319TIP3   OH2 9962   1.322   5.005   3.811
 3319TIP3    H1 9963   1.343   4.929   3.757
 3319TIP3    H2 9964   1.382   5.074   3.781
 3320TIP3   OH2 9965   2.446   1.630   3.681
 3320TIP3    H1 9966   2.511   1.669   3.739
 3320TIP3    H2 9967   2.432   1.696   3.613
 3321TIP3   OH2 9968   6.154   3.449   3.056
 3321TIP3    H1 9969   6.086   3.393   3.018
 3321TIP3    H2 9970   6.185   3.401   3.132
 3322TIP3   OH2 9971   2.397   2.367   3.771
 3322TIP3    H1 9972   2.434   2.403   3.690
 3322TIP3    H2 9973   2.322   2.424   3.790
 3323TIP3   OH2 9974   6.008   3.131   3.808
 3323TIP3    H1 9975   5.967   3.126   3.894
 3323TIP3    H2 9976   5.936   3.124   3.745
 3324TIP3   OH2 9977   4.391   3.690   3.501
 3324TIP3    H1 9978   4.438   3.737   3.570
 3324TIP3    H2 9979   4.359   3.611   3.543
 3325TIP3   OH2 9980   4.052   1.889   0.645
 3325TIP3    H1 9981   4.095   1.879   0.730
 3325TIP3    H2 9982   3.967   1.845   0.655
 3326TIP3   OH2 9983   1.661   4.799   4.106
 3326TIP3    H1 9984   1.676   4.737   4.034
 3326TIP3    H2 9985   1.736   4.858   4.103
 3327TIP3   OH2 9986   3.143   2.526   2.185
 3327TIP3    H1 9987   3.209   2.481   2.238
 3327TIP3    H2 9988   3.104   2.457   2.131
 3328TIP3   OH2 9989   5.333   2.463   2.005
 3328TIP3    H1 9990   5.307   2.401   1.937
 3328TIP3    H2 9991   5.383   2.410   2.068
 3329TIP3   OH2 9992   4.618   1.997   4.716
 3329TIP3    H1 9993   4.608   2.090   4.700
 3329TIP3    H2 9994   4.547   1.956   4.667
 3330TIP3   OH2 9995   2.503   0.056   0.782
 3330TIP3    H1 9996   2.574  -0.007   0.793
 3330TIP3    H2 9997   2.547   0.139   0.767
 3331TIP3   OH2 9998   1.528   3.659   2.294
 3331TIP3    H1 9999   1.483   3.598   2.236
 3331TIP3    H210000   1.490   3.642   2.380
 3332TIP3   OH210001   0.800   1.879   4.925
 3332TIP3    H110002   0.817   1.791   4.958
 3332TIP3    H210003   0.874   1.931   4.954
 3333TIP3   OH210004   0.671   3.551   4.372
 3333TIP3    H110005   0.626   3.610   4.431
 3333TIP3    H210006   0.648   3.582   4.284
 3334TIP3   OH210007   3.629   1.037   1.526
 3334TIP3    H110008   3.542   1.072   1.544
 3334TIP3    H210009   3.615   0.942   1.519
 3335TIP3   OH210010   4.611   2.985   3.330
 3335TIP3    H110011   4.578   3.008   3.416
 3335TIP3    H210012   4.666   3.059   3.305
 3336TIP3   OH210013   4.546   2.569   1.347
 3336TIP3    H110014   4.479   2.501   1.351
 3336TIP3    H210015   4.535   2.620   1.427
 3337TIP3   OH210016   5.196   5.532   1.585
 3337TIP3    H110017   5.221   5.453   1.537
 3337TIP3    H210018   5.271   5.549   1.643
 3338TIP3   OH210019   0.891   2.349   1.916
 3338TIP3    H110020   0.890   2.270   1.970
 3338TIP3    H210021   0.800   2.379   1.916
 3339TIP3   OH210022   2.829   1.238   4.780
 3339TIP3    H110023   2.776   1.280   4.713
 3339TIP3    H210024   2.893   1.304   4.807
 3340TIP3   OH210025   2.041   3.645   0.050
 3340TIP3    H110026   2.009   3.610  -0.033
 3340TIP3    H210027   1.976   3.619   0.114
 3341TIP3   OH210028   0.052   3.134   0.279
 3341TIP3    H110029   0.052   3.130   0.375
 3341TIP3    H210030   0.099   3.215   0.258
 3342TIP3   OH210031   6.248   5.117   2.444
 3342TIP3    H110032   6.300   5.037   2.432
 3342TIP3    H210033   6.159   5.086   2.459
 3343TIP3   OH210034   3.851   5.170   2.559
 3343TIP3    H110035   3.888   5.214   2.482
 3343TIP3    H210036   3.871   5.229   2.632
 3344TIP3   OH210037   4.134   4.172   0.654
 3344TIP3    H110038   4.142   4.260   0.618
 3344TIP3    H210039   4.046   4.169   0.691
 3345TIP3   OH210040   5.555   4.144   3.875
 3345TIP3    H110041   5.462   4.149   3.895
 3345TIP3    H210042   5.561   4.080   3.804
 3346TIP3   OH210043   5.588   2.339   0.158
 3346TIP3    H110044   5.509   2.287   0.145
 3346TIP3    H210045   5.611   2.324   0.250
 3347TIP3   OH210046   4.651   0.401   3.243
 3347TIP3    H110047   4.651   0.368   3.332
 3347TIP3    H210048   4.566   0.374   3.207
 3348TIP3   OH210049   3.746   2.951   4.521
 3348TIP3    H110050   3.790   2.894   4.458
 3348TIP3    H210051   3.673   2.989   4.472
 3349TIP3   OH210052   4.177   5.423   4.511
 3349TIP3    H110053   4.117   5.385   4.575
 3349TIP3    H210054   4.263   5.388   4.534
 3350TIP3   OH210055   3.425   2.399   0.245
 3350TIP3    H110056   3.438   2.361   0.158
 3350TIP3    H210057   3.330   2.400   0.257
 3351TIP3   OH210058   5.596   4.868   4.368
 3351TIP3    H110059   5.690   4.886   4.369
 3351TIP3    H210060   5.574   4.863   4.275
 3352TIP3   OH210061   3.310   3.254   4.482
 3352TIP3    H110062   3.307   3.263   4.577
 3352TIP3    H210063   3.221   3.273   4.453
 3353TIP3   OH210064   3.818   4.196   2.471
 3353TIP3    H110065   3.769   4.134   2.417
 3353TIP3    H210066   3.834   4.148   2.553
 3354TIP3   OH210067   0.910   5.361   2.696
 3354TIP3    H110068   0.962   5.283   2.677
 3354TIP3    H210069   0.972   5.423   2.734
 3355TIP3   OH210070   5.073   5.856   2.783
 3355TIP3    H110071   5.111   5.903   2.708
 3355TIP3    H210072   5.130   5.879   2.856
 3356TIP3   OH210073   1.984   1.509   1.672
 3356TIP3    H110074   1.922   1.581   1.658
 3356TIP3    H210075   2.031   1.502   1.589
 3357TIP3   OH210076   2.973   5.130   4.194
 3357TIP3    H110077   3.038   5.129   4.265
 3357TIP3    H210078   2.894   5.095   4.234
 3358TIP3   OH210079   3.238   5.063   0.452
 3358TIP3    H110080   3.158   5.057   0.504
 3358TIP3    H210081   3.305   5.091   0.514
 3359TIP3   OH210082   3.243   3.221   3.055
 3359TIP3    H110083   3.229   3.301   3.105
 3359TIP3    H210084   3.191   3.154   3.101
 3360TIP3   OH210085   6.043   3.156   4.857
 3360TIP3    H110086   6.021   3.103   4.781
 3360TIP3    H210087   6.013   3.104   4.932
 3361TIP3   OH210088   5.218   0.134   2.532
 3361TIP3    H110089   5.131   0.094   2.530
 3361TIP3    H210090   5.202   0.228   2.532
 3362TIP3   OH210091   1.604   5.660   0.340
 3362TIP3    H110092   1.579   5.568   0.339
 3362TIP3    H210093   1.555   5.699   0.268
 3363TIP3   OH210094   3.433   1.773   0.132
 3363TIP3    H110095   3.377   1.822   0.072
 3363TIP3    H210096   3.374   1.745   0.202
 3364TIP3   OH210097   6.322   5.411   1.028
 3364TIP3    H110098   6.389   5.342   1.032
 3364TIP3    H210099   6.319   5.436   0.936
 3365TIP3   OH210100   5.627   2.785   0.415
 3365TIP3    H110101   5.686   2.843   0.366
 3365TIP3    H210102   5.564   2.845   0.455
 3366TIP3   OH210103   5.968   5.622   3.666
 3366TIP3    H110104   5.979   5.606   3.572
 3366TIP3    H210105   5.914   5.700   3.671
 3367TIP3   OH210106   0.599   5.657   4.667
 3367TIP3    H110107   0.524   5.604   4.695
 3367TIP3    H210108   0.670   5.594   4.655
 3368TIP3   OH210109   0.642   2.783   1.818
 3368TIP3    H110110   0.692   2.837   1.879
 3368TIP3    H210111   0.706   2.722   1.781
 3369TIP3   OH210112   0.068   1.823   5.155
 3369TIP3    H110113   0.155   1.802   5.121
 3369TIP3    H210114   0.046   1.907   5.115
 3370TIP3   OH210115   6.107   0.172   1.880
 3370TIP3    H110116   6.162   0.237   1.923
 3370TIP3    H210117   6.144   0.164   1.792
 3371TIP3   OH210118   1.597   4.071   0.139
 3371TIP3    H110119   1.546   4.007   0.089
 3371TIP3    H210120   1.687   4.058   0.109
 3372TIP3   OH210121   5.736   4.283   0.641
 3372TIP3    H110122   5.760   4.346   0.573
 3372TIP3    H210123   5.784   4.203   0.619
 3373TIP3   OH210124   4.150   0.599   3.368
 3373TIP3    H110125   4.067   0.566   3.400
 3373TIP3    H210126   4.215   0.536   3.399
 3374TIP3   OH210127   1.077   4.993   0.354
 3374TIP3    H110128   1.028   5.030   0.281
 3374TIP3    H210129   1.164   4.976   0.318
 3375TIP3   OH210130   3.055   1.928   2.167
 3375TIP3    H110131   3.012   1.919   2.082
 3375TIP3    H210132   3.063   1.838   2.200
 3376TIP3   OH210133   4.763   5.242   1.242
 3376TIP3    H110134   4.781   5.258   1.149
 3376TIP3    H210135   4.700   5.171   1.242
 3377TIP3   OH210136   0.138   4.509   1.333
 3377TIP3    H110137   0.203   4.545   1.273
 3377TIP3    H210138   0.084   4.584   1.359
 3378TIP3   OH210139   1.504   5.374   3.625
 3378TIP3    H110140   1.472   5.463   3.608
 3378TIP3    H210141   1.588   5.386   3.668
 3379TIP3   OH210142   4.534   1.016   4.498
 3379TIP3    H110143   4.599   1.037   4.431
 3379TIP3    H210144   4.553   0.926   4.522
 3380TIP3   OH210145   4.362   4.619   1.669
 3380TIP3    H110146   4.358   4.669   1.588
 3380TIP3    H210147   4.275   4.630   1.709
 3381TIP3   OH210148   4.302   3.861   4.884
 3381TIP3    H110149   4.300   3.782   4.829
 3381TIP3    H210150   4.395   3.876   4.900
 3382TIP3   OH210151   1.558   2.076   0.023
 3382TIP3    H110152   1.550   2.170   0.040
 3382TIP3    H210153   1.563   2.036   0.110
 3383TIP3   OH210154   6.187   2.548   3.188
 3383TIP3    H110155   6.156   2.623   3.137
 3383TIP3    H210156   6.271   2.525   3.148
 3384TIP3   OH210157   0.795   4.493   1.112
 3384TIP3    H110158   0.753   4.539   1.185
 3384TIP3    H210159   0.851   4.560   1.072
 3385TIP3   OH210160   4.523   2.043   1.256
 3385TIP3    H110161   4.614   2.036   1.226
 3385TIP3    H210162   4.481   2.101   1.192
 3386TIP3   OH210163   3.844   1.293   4.196
 3386TIP3    H110164   3.759   1.296   4.240
 3386TIP3    H210165   3.903   1.342   4.254
 3387TIP3   OH210166   0.535   5.333   1.403
 3387TIP3    H110167   0.511   5.425   1.390
 3387TIP3    H210168   0.627   5.336   1.430
 3388TIP3   OH210169   1.823   5.278   1.638
 3388TIP3    H110170   1.874   5.355   1.615
 3388TIP3    H210171   1.770   5.259   1.560
 3389TIP3   OH210172   2.239   4.277   3.815
 3389TIP3    H110173   2.152   4.290   3.853
 3389TIP3    H210174   2.266   4.190   3.844
 3390TIP3   OH210175   2.392  -0.016   4.399
 3390TIP3    H110176   2.486  -0.005   4.408
 3390TIP3    H210177   2.369  -0.081   4.466
 3391TIP3   OH210178   2.970   0.714   1.864
 3391TIP3    H110179   2.931   0.700   1.951
 3391TIP3    H210180   3.045   0.771   1.881
 3392TIP3   OH210181   5.171   3.508   2.221
 3392TIP3    H110182   5.136   3.550   2.300
 3392TIP3    H210183   5.260   3.542   2.214
 3393TIP3   OH210184   1.964   0.702   2.338
 3393TIP3    H110185   2.038   0.761   2.329
 3393TIP3    H210186   1.976   0.662   2.424
 3394TIP3   OH210187   0.632   2.482   1.882
 3394TIP3    H110188   0.637   2.461   1.788
 3394TIP3    H210189   0.563   2.425   1.915
 3395TIP3   OH210190   3.257   1.241   5.011
 3395TIP3    H110191   3.172   1.229   5.053
 3395TIP3    H210192   3.320   1.234   5.082
 3396TIP3   OH210193   3.872   0.355   3.256
 3396TIP3    H110194   3.907   0.366   3.344
 3396TIP3    H210195   3.919   0.420   3.204
 3397TIP3   OH210196   3.706   5.184   4.630
 3397TIP3    H110197   3.658   5.182   4.713
 3397TIP3    H210198   3.644   5.224   4.568
 3398TIP3   OH210199   3.301   3.304   2.807
 3398TIP3    H110200   3.241   3.370   2.772
 3398TIP3    H210201   3.263   3.280   2.891
 3399TIP3   OH210202   0.878   0.723   2.609
 3399TIP3    H110203   0.924   0.801   2.639
 3399TIP3    H210204   0.828   0.752   2.532
 3400TIP3   OH210205   5.729   3.015   4.291
 3400TIP3    H110206   5.655   2.971   4.249
 3400TIP3    H210207   5.732   2.978   4.379
 3401TIP3   OH210208   3.085   1.665   4.645
 3401TIP3    H110209   3.150   1.654   4.576
 3401TIP3    H210210   3.009   1.704   4.602
 3402TIP3   OH210211   0.701   0.674   4.453
 3402TIP3    H110212   0.737   0.730   4.522
 3402TIP3    H210213   0.658   0.603   4.499
 3403TIP3   OH210214   3.696   1.297   4.678
 3403TIP3    H110215   3.680   1.228   4.614
 3403TIP3    H210216   3.637   1.278   4.751
 3404TIP3   OH210217   3.264   2.989   4.063
 3404TIP3    H110218   3.185   2.954   4.022
 3404TIP3    H210219   3.277   2.935   4.141
 3405TIP3   OH210220   2.407   5.078   3.343
 3405TIP3    H110221   2.503   5.080   3.332
 3405TIP3    H210222   2.373   5.077   3.253
 3406TIP3   OH210223   0.988   3.406   3.469
 3406TIP3    H110224   1.069   3.377   3.427
 3406TIP3    H210225   0.928   3.333   3.457
 3407TIP3   OH210226   3.726   3.850   4.068
 3407TIP3    H110227   3.818   3.862   4.046
 3407TIP3    H210228   3.718   3.758   4.091
 3408TIP3   OH210229   3.554   1.495   2.440
 3408TIP3    H110230   3.547   1.403   2.415
 3408TIP3    H210231   3.548   1.543   2.357
 3409TIP3   OH210232   3.423   4.713   4.261
 3409TIP3    H110233   3.489   4.782   4.261
 3409TIP3    H210234   3.400   4.702   4.353
 3410TIP3   OH210235   6.227   2.677   2.337
 3410TIP3    H110236   6.203   2.641   2.423
 3410TIP3    H210237   6.229   2.601   2.279
 3411TIP3   OH210238   0.428   2.288   4.471
 3411TIP3    H110239   0.363   2.357   4.465
 3411TIP3    H210240   0.474   2.291   4.386
 3412TIP3   OH210241   2.693   3.529   2.740
 3412TIP3    H110242   2.767   3.550   2.797
 3412TIP3    H210243   2.619   3.519   2.799
 3413TIP3   OH210244   0.893   1.828   0.288
 3413TIP3    H110245   0.851   1.767   0.348
 3413TIP3    H210246   0.982   1.839   0.323
 3414TIP3   OH210247   1.895   2.879   0.376
 3414TIP3    H110248   1.956   2.837   0.437
 3414TIP3    H210249   1.817   2.823   0.377
 3415TIP3   OH210250   2.572   2.083   2.638
 3415TIP3    H110251   2.506   2.135   2.683
 3415TIP3    H210252   2.655   2.116   2.672
 3416TIP3   OH210253   6.307   2.590   1.800
 3416TIP3    H110254   6.351   2.575   1.717
 3416TIP3    H210255   6.218   2.558   1.786
 3417TIP3   OH210256   3.171   0.662   3.157
 3417TIP3    H110257   3.213   0.596   3.101
 3417TIP3    H210258   3.243   0.716   3.189
 3418TIP3   OH210259   3.565   5.147   3.809
 3418TIP3    H110260   3.618   5.117   3.736
 3418TIP3    H210261   3.480   5.105   3.796
 3419TIP3   OH210262   1.059   3.786   1.626
 3419TIP3    H110263   0.990   3.720   1.625
 3419TIP3    H210264   1.046   3.833   1.708
 3420TIP3   OH210265   4.237   5.207   2.108
 3420TIP3    H110266   4.180   5.255   2.047
 3420TIP3    H210267   4.285   5.145   2.053
 3421TIP3   OH210268   0.963   1.763   0.034
 3421TIP3    H110269   0.913   1.788   0.111
 3421TIP3    H210270   1.040   1.718   0.068
 3422TIP3   OH210271   3.547   2.162   1.227
 3422TIP3    H110272   3.517   2.185   1.315
 3422TIP3    H210273   3.635   2.128   1.240
 3423TIP3   OH210274   4.941   5.359   4.296
 3423TIP3    H110275   4.928   5.440   4.346
 3423TIP3    H210276   4.889   5.371   4.217
 3424TIP3   OH210277   3.660   0.540   1.395
 3424TIP3    H110278   3.616   0.589   1.465
 3424TIP3    H210279   3.683   0.457   1.435
 3425TIP3   OH210280   1.743   2.481   3.830
 3425TIP3    H110281   1.782   2.411   3.778
 3425TIP3    H210282   1.697   2.436   3.901
 3426TIP3   OH210283   6.128   5.916   4.006
 3426TIP3    H110284   6.191   5.876   3.946
 3426TIP3    H210285   6.160   5.893   4.093
 3427TIP3   OH210286   3.444   2.526   0.539
 3427TIP3    H110287   3.369   2.584   0.534
 3427TIP3    H210288   3.480   2.525   0.450
 3428TIP3   OH210289   3.224   5.580   1.518
 3428TIP3    H110290   3.311   5.618   1.511
 3428TIP3    H210291   3.239   5.486   1.508
 3429TIP3   OH210292   1.412   1.092   4.505
 3429TIP3    H110293   1.386   1.118   4.416
 3429TIP3    H210294   1.354   1.141   4.563
 3430TIP3   OH210295   2.740   2.171   3.755
 3430TIP3    H110296   2.698   2.193   3.839
 3430TIP3    H210297   2.812   2.233   3.748
 3431TIP3   OH210298   4.734   1.110   2.783
 3431TIP3    H110299   4.809   1.050   2.779
 3431TIP3    H210300   4.758   1.183   2.727
 3432TIP3   OH210301   1.041   3.220   2.082
 3432TIP3    H110302   0.998   3.249   2.162
 3432TIP3    H210303   0.969   3.194   2.024
 3433TIP3   OH210304   3.552   4.433   0.987
 3433TIP3    H110305   3.577   4.509   1.039
 3433TIP3    H210306   3.494   4.467   0.920
 3434TIP3   OH210307   3.387   2.105   4.364
 3434TIP3    H110308   3.482   2.114   4.372
 3434TIP3    H210309   3.363   2.041   4.431
 3435TIP3   OH210310   3.433   4.440   4.085
 3435TIP3    H110311   3.510   4.465   4.137
 3435TIP3    H210312   3.429   4.344   4.093
 3436TIP3   OH210313   6.218   2.083   0.447
 3436TIP3    H110314   6.239   2.158   0.391
 3436TIP3    H210315   6.141   2.043   0.405
 3437TIP3   OH210316   0.775   5.275   1.067
 3437TIP3    H110317   0.817   5.230   1.141
 3437TIP3    H210318   0.833   5.349   1.049
 3438TIP3   OH210319   2.471   2.395   5.042
 3438TIP3    H110320   2.531   2.408   5.116
 3438TIP3    H210321   2.395   2.449   5.062
 3439TIP3   OH210322   0.088   4.167   2.970
 3439TIP3    H110323   0.045   4.151   2.886
 3439TIP3    H210324   0.025   4.218   3.020
 3440TIP3   OH210325   5.752   3.464   3.140
 3440TIP3    H110326   5.695   3.540   3.155
 3440TIP3    H210327   5.771   3.432   3.228
 3441TIP3   OH210328   5.452   3.421   0.675
 3441TIP3    H110329   5.431   3.329   0.659
 3441TIP3    H210330   5.502   3.448   0.598
 3442TIP3   OH210331   1.145   0.249   4.870
 3442TIP3    H110332   1.172   0.322   4.815
 3442TIP3    H210333   1.098   0.290   4.943
 3443TIP3   OH210334   5.134   4.233   3.025
 3443TIP3    H110335   5.090   4.174   3.085
 3443TIP3    H210336   5.218   4.253   3.066
 3444TIP3   OH210337   2.717   2.886   4.270
 3444TIP3    H110338   2.747   2.813   4.324
 3444TIP3    H210339   2.656   2.934   4.326
 3445TIP3   OH210340   2.612   2.923   4.660
 3445TIP3    H110341   2.587   2.965   4.577
 3445TIP3    H210342   2.561   2.969   4.727
 3446TIP3   OH210343   2.959   2.704   3.478
 3446TIP3    H110344   2.904   2.628   3.459
 3446TIP3    H210345   2.992   2.688   3.567
 3447TIP3   OH210346   5.595   2.630   2.501
 3447TIP3    H110347   5.501   2.610   2.496
 3447TIP3    H210348   5.635   2.574   2.434
 3448TIP3   OH210349   1.193   3.963   2.876
 3448TIP3    H110350   1.287   3.971   2.891
 3448TIP3    H210351   1.158   4.048   2.901
 3449TIP3   OH210352   3.990   3.823   4.028
 3449TIP3    H110353   4.047   3.778   3.966
 3449TIP3    H210354   4.050   3.874   4.083
 3450TIP3   OH210355   6.052   2.347   2.959
 3450TIP3    H110356   6.107   2.316   2.888
 3450TIP3    H210357   6.099   2.322   3.039
 3451TIP3   OH210358   1.644   3.409   1.525
 3451TIP3    H110359   1.732   3.406   1.488
 3451TIP3    H210360   1.649   3.476   1.594
 3452TIP3   OH210361   0.057   3.747   1.867
 3452TIP3    H110362   0.153   3.747   1.875
 3452TIP3    H210363   0.034   3.839   1.851
 3453TIP3   OH210364   0.843   3.014   2.599
 3453TIP3    H110365   0.807   3.095   2.635
 3453TIP3    H210366   0.904   2.983   2.665
 3454TIP3   OH210367   4.691   0.944   2.365
 3454TIP3    H110368   4.783   0.929   2.388
 3454TIP3    H210369   4.690   1.028   2.320
 3455TIP3   OH210370   4.537   4.654   0.070
 3455TIP3    H110371   4.593   4.731   0.082
 3455TIP3    H210372   4.512   4.629   0.159
 3456TIP3   OH210373   1.147   3.928   3.754
 3456TIP3    H110374   1.191   3.996   3.805
 3456TIP3    H210375   1.170   3.846   3.798
 3457TIP3   OH210376   3.421   5.376   3.053
 3457TIP3    H110377   3.334   5.361   3.015
 3457TIP3    H210378   3.464   5.291   3.049
 3458TIP3   OH210379   3.166   2.524   1.218
 3458TIP3    H110380   3.256   2.507   1.245
 3458TIP3    H210381   3.149   2.614   1.246
 3459TIP3   OH210382   4.324   0.475   2.052
 3459TIP3    H110383   4.257   0.446   1.991
 3459TIP3    H210384   4.349   0.562   2.020
 3460TIP3   OH210385   0.549   2.092   3.898
 3460TIP3    H110386   0.594   2.008   3.894
 3460TIP3    H210387   0.539   2.110   3.991
 3461TIP3   OH210388   0.536   1.122   2.976
 3461TIP3    H110389   0.555   1.031   2.954
 3461TIP3    H210390   0.601   1.173   2.927
 3462TIP3   OH210391   3.629   1.949   0.029
 3462TIP3    H110392   3.578   1.879   0.071
 3462TIP3    H210393   3.591   1.956  -0.059
 3463TIP3   OH210394   4.298   3.511   1.482
 3463TIP3    H110395   4.376   3.476   1.524
 3463TIP3    H210396   4.271   3.441   1.421
 3464TIP3   OH210397   0.826   1.256   4.144
 3464TIP3    H110398   0.863   1.344   4.143
 3464TIP3    H210399   0.731   1.270   4.141
 3465TIP3   OH210400   3.403   5.356   0.097
 3465TIP3    H110401   3.313   5.330   0.077
 3465TIP3    H210402   3.443   5.278   0.135
 3466TIP3   OH210403   2.152   1.785   1.568
 3466TIP3    H110404   2.070   1.826   1.542
 3466TIP3    H210405   2.153   1.701   1.521
 3467TIP3   OH210406   6.328   4.774   4.404
 3467TIP3    H110407   6.388   4.722   4.351
 3467TIP3    H210408   6.242   4.760   4.364
 3468TIP3   OH210409   2.933   5.671   0.816
 3468TIP3    H110410   2.935   5.767   0.826
 3468TIP3    H210411   2.928   5.657   0.721
 3469TIP3   OH210412   2.899   3.560   0.324
 3469TIP3    H110413   2.925   3.467   0.322
 3469TIP3    H210414   2.837   3.565   0.397
 3470TIP3   OH210415   2.244   1.885   4.159
 3470TIP3    H110416   2.176   1.864   4.095
 3470TIP3    H210417   2.252   1.806   4.213
 3471TIP3   OH210418   2.907   3.084   3.907
 3471TIP3    H110419   2.918   3.013   3.970
 3471TIP3    H210420   2.830   3.133   3.938
 3472TIP3   OH210421   1.301   4.955   0.754
 3472TIP3    H110422   1.264   5.023   0.698
 3472TIP3    H210423   1.242   4.880   0.743
 3473TIP3   OH210424   1.616   5.373   4.703
 3473TIP3    H110425   1.622   5.461   4.740
 3473TIP3    H210426   1.635   5.315   4.776
 3474TIP3   OH210427   5.994   2.841   0.238
 3474TIP3    H110428   6.048   2.771   0.274
 3474TIP3    H210429   6.054   2.916   0.231
 3475TIP3   OH210430   4.514   1.039   4.126
 3475TIP3    H110431   4.551   0.962   4.169
 3475TIP3    H210432   4.422   1.041   4.154
 3476TIP3   OH210433   1.525   2.157   1.107
 3476TIP3    H110434   1.442   2.177   1.065
 3476TIP3    H210435   1.576   2.111   1.040
 3477TIP3   OH210436   1.475   0.500   0.516
 3477TIP3    H110437   1.554   0.448   0.506
 3477TIP3    H210438   1.415   0.465   0.450
 3478TIP3   OH210439   5.058   3.617   0.434
 3478TIP3    H110440   4.982   3.587   0.384
 3478TIP3    H210441   5.036   3.597   0.526
 3479TIP3   OH210442   2.767   2.570   1.966
 3479TIP3    H110443   2.831   2.511   2.005
 3479TIP3    H210444   2.721   2.608   2.041
 3480TIP3   OH210445   4.194   2.167   3.683
 3480TIP3    H110446   4.117   2.131   3.728
 3480TIP3    H210447   4.267   2.145   3.740
 3481TIP3   OH210448   4.888   5.097   4.379
 3481TIP3    H110449   4.870   5.097   4.473
 3481TIP3    H210450   4.918   5.185   4.360
 3482TIP3   OH210451   2.419   5.164   1.747
 3482TIP3    H110452   2.344   5.145   1.803
 3482TIP3    H210453   2.420   5.091   1.684
 3483TIP3   OH210454   4.879   1.892   5.092
 3483TIP3    H110455   4.858   1.885   4.999
 3483TIP3    H210456   4.948   1.827   5.106
 3484TIP3   OH210457   3.016   1.431   4.822
 3484TIP3    H110458   3.066   1.461   4.897
 3484TIP3    H210459   3.038   1.494   4.753
 3485TIP3   OH210460   6.197   0.345   0.754
 3485TIP3    H110461   6.117   0.305   0.789
 3485TIP3    H210462   6.167   0.410   0.691
 3486TIP3   OH210463   4.413   1.729   0.543
 3486TIP3    H110464   4.445   1.776   0.466
 3486TIP3    H210465   4.411   1.795   0.612
 3487TIP3   OH210466   4.823   0.232   0.127
 3487TIP3    H110467   4.733   0.264   0.123
 3487TIP3    H210468   4.824   0.155   0.071
 3488TIP3   OH210469   2.425   5.460   5.057
 3488TIP3    H110470   2.505   5.411   5.070
 3488TIP3    H210471   2.440   5.510   4.977
 3489TIP3   OH210472   2.853   3.352   1.387
 3489TIP3    H110473   2.913   3.358   1.462
 3489TIP3    H210474   2.773   3.316   1.424
 3490TIP3   OH210475   4.485   4.845   0.637
 3490TIP3    H110476   4.413   4.791   0.670
 3490TIP3    H210477   4.467   4.932   0.671
 3491TIP3   OH210478   0.372   2.621   0.394
 3491TIP3    H110479   0.372   2.611   0.489
 3491TIP3    H210480   0.321   2.700   0.377
 3492TIP3   OH210481   3.681   1.431   3.598
 3492TIP3    H110482   3.723   1.345   3.604
 3492TIP3    H210483   3.601   1.415   3.548
 3493TIP3   OH210484   1.513   2.986   1.834
 3493TIP3    H110485   1.431   3.023   1.867
 3493TIP3    H210486   1.568   3.061   1.814
 3494TIP3   OH210487   4.428   1.473   4.498
 3494TIP3    H110488   4.381   1.533   4.440
 3494TIP3    H210489   4.446   1.396   4.445
 3495TIP3   OH210490   2.733   2.993   1.314
 3495TIP3    H110491   2.644   3.010   1.284
 3495TIP3    H210492   2.725   2.981   1.408
 3496TIP3   OH210493   4.595   5.850   4.992
 3496TIP3    H110494   4.571   5.939   4.968
 3496TIP3    H210495   4.631   5.812   4.912
 3497TIP3   OH210496   3.681   4.047   0.520
 3497TIP3    H110497   3.586   4.064   0.516
 3497TIP3    H210498   3.694   3.972   0.462
 3498TIP3   OH210499   2.599   5.397   2.767
 3498TIP3    H110500   2.682   5.353   2.788
 3498TIP3    H210501   2.571   5.436   2.850
 3499TIP3   OH210502   1.197   2.313   0.871
 3499TIP3    H110503   1.241   2.386   0.828
 3499TIP3    H210504   1.131   2.284   0.807
 3500TIP3   OH210505   0.730   3.530   3.922
 3500TIP3    H110506   0.657   3.474   3.896
 3500TIP3    H210507   0.725   3.605   3.863
 3501TIP3   OH210508   2.000   5.183   2.738
 3501TIP3    H110509   2.017   5.247   2.669
 3501TIP3    H210510   1.917   5.210   2.776
 3502TIP3   OH210511   3.712   2.418   4.975
 3502TIP3    H110512   3.640   2.447   5.030
 3502TIP3    H210513   3.672   2.360   4.910
 3503TIP3   OH210514   4.181   4.699   4.885
 3503TIP3    H110515   4.169   4.744   4.969
 3503TIP3    H210516   4.276   4.690   4.877
 3504TIP3   OH210517   3.753   4.773   4.078
 3504TIP3    H110518   3.804   4.796   4.001
 3504TIP3    H210519   3.663   4.798   4.056
 3505TIP3   OH210520   1.995   3.948   1.486
 3505TIP3    H110521   2.062   3.917   1.548
 3505TIP3    H210522   2.028   3.922   1.400
 3506TIP3   OH210523   3.944   2.785   4.382
 3506TIP3    H110524   4.027   2.741   4.394
 3506TIP3    H210525   3.967   2.872   4.349
 3507TIP3   OH210526   2.416   4.019   3.323
 3507TIP3    H110527   2.343   3.958   3.330
 3507TIP3    H210528   2.394   4.088   3.386
 3508TIP3   OH210529   4.585   2.644   0.456
 3508TIP3    H110530   4.631   2.701   0.518
 3508TIP3    H210531   4.500   2.685   0.445
 3509TIP3   OH210532   6.217   4.917   4.149
 3509TIP3    H110533   6.300   4.882   4.116
 3509TIP3    H210534   6.150   4.860   4.111
 3510TIP3   OH210535   3.996   3.302   2.737
 3510TIP3    H110536   3.908   3.270   2.720
 3510TIP3    H210537   4.039   3.229   2.783
 3511TIP3   OH210538   1.195   0.239   3.642
 3511TIP3    H110539   1.200   0.321   3.593
 3511TIP3    H210540   1.282   0.229   3.682
 3512TIP3   OH210541   5.801   0.529   3.574
 3512TIP3    H110542   5.885   0.572   3.589
 3512TIP3    H210543   5.749   0.595   3.527
 3513TIP3   OH210544   1.828   4.803   2.794
 3513TIP3    H110545   1.880   4.749   2.853
 3513TIP3    H210546   1.887   4.825   2.722
 3514TIP3   OH210547   2.521   5.523   4.149
 3514TIP3    H110548   2.585   5.527   4.079
 3514TIP3    H210549   2.460   5.594   4.129
 3515TIP3   OH210550   2.713   4.936   3.598
 3515TIP3    H110551   2.706   5.031   3.607
 3515TIP3    H210552   2.677   4.902   3.680
 3516TIP3   OH210553   4.639   1.722   2.555
 3516TIP3    H110554   4.716   1.671   2.531
 3516TIP3    H210555   4.658   1.753   2.644
 3517TIP3   OH210556   6.132   2.375   1.724
 3517TIP3    H110557   6.177   2.291   1.739
 3517TIP3    H210558   6.070   2.356   1.654
 3518TIP3   OH210559   6.240   0.330   3.961
 3518TIP3    H110560   6.283   0.415   3.957
 3518TIP3    H210561   6.170   0.343   4.026
 3519TIP3   OH210562   3.331   5.354   3.932
 3519TIP3    H110563   3.252   5.387   3.890
 3519TIP3    H210564   3.306   5.268   3.965
 3520TIP3   OH210565   1.967   4.097   1.969
 3520TIP3    H110566   2.016   4.015   1.966
 3520TIP3    H210567   1.938   4.111   1.879
 3521TIP3   OH210568   4.040   4.181   5.046
 3521TIP3    H110569   4.069   4.130   4.970
 3521TIP3    H210570   4.111   4.172   5.109
 3522TIP3   OH210571   2.394   5.229   3.783
 3522TIP3    H110572   2.345   5.267   3.856
 3522TIP3    H210573   2.360   5.140   3.773
 3523TIP3   OH210574   1.632   3.527   4.074
 3523TIP3    H110575   1.639   3.583   3.997
 3523TIP3    H210576   1.702   3.559   4.132
 3524TIP3   OH210577   3.913   3.205   4.470
 3524TIP3    H110578   3.938   3.278   4.527
 3524TIP3    H210579   3.857   3.150   4.524
 3525TIP3   OH210580   2.032   0.069   2.638
 3525TIP3    H110581   2.001  -0.007   2.686
 3525TIP3    H210582   1.953   0.111   2.604
 3526TIP3   OH210583   3.027   0.258   1.292
 3526TIP3    H110584   3.017   0.283   1.384
 3526TIP3    H210585   2.941   0.223   1.267
 3527TIP3   OH210586   0.389   2.137   2.390
 3527TIP3    H110587   0.450   2.117   2.319
 3527TIP3    H210588   0.336   2.210   2.356
 3528TIP3   OH210589   2.218   0.743   1.055
 3528TIP3    H110590   2.309   0.750   1.026
 3528TIP3    H210591   2.171   0.810   1.004
 3529TIP3   OH210592   5.143   4.227   0.612
 3529TIP3    H110593   5.126   4.227   0.706
 3529TIP3    H210594   5.084   4.294   0.577
 3530TIP3   OH210595   3.211   1.044   1.269
 3530TIP3    H110596   3.144   1.013   1.330
 3530TIP3    H210597   3.280   1.080   1.325
 3531TIP3   OH210598   1.870   3.216   3.258
 3531TIP3    H110599   1.939   3.232   3.194
 3531TIP3    H210600   1.888   3.128   3.292
 3532TIP3   OH210601   5.311   5.928   4.287
 3532TIP3    H110602   5.250   5.997   4.263
 3532TIP3    H210603   5.381   5.933   4.221
 3533TIP3   OH210604   4.363   1.665   3.749
 3533TIP3    H110605   4.306   1.653   3.672
 3533TIP3    H210606   4.311   1.633   3.822
 3534TIP3   OH210607   5.297   4.223   0.225
 3534TIP3    H110608   5.268   4.151   0.170
 3534TIP3    H210609   5.289   4.191   0.314
 3535TIP3   OH210610   3.956   2.210   3.418
 3535TIP3    H110611   3.915   2.165   3.343
 3535TIP3    H210612   4.050   2.197   3.405
 3536TIP3   OH210613   5.117   5.584   1.091
 3536TIP3    H110614   5.162   5.500   1.096
 3536TIP3    H210615   5.159   5.638   1.158
 3537TIP3   OH210616   3.289   5.574   3.709
 3537TIP3    H110617   3.289   5.495   3.655
 3537TIP3    H210618   3.346   5.635   3.662
 3538TIP3   OH210619   1.167   5.520   0.796
 3538TIP3    H110620   1.222   5.534   0.719
 3538TIP3    H210621   1.183   5.429   0.821
 3539TIP3   OH210622   1.808   0.581   1.517
 3539TIP3    H110623   1.797   0.660   1.570
 3539TIP3    H210624   1.899   0.555   1.530
 3540TIP3   OH210625   1.567   2.412   0.646
 3540TIP3    H110626   1.523   2.364   0.576
 3540TIP3    H210627   1.522   2.497   0.648
 3541TIP3   OH210628   5.259   5.882   1.681
 3541TIP3    H110629   5.248   5.971   1.648
 3541TIP3    H210630   5.354   5.871   1.689
 3542TIP3   OH210631   0.133   5.014   4.348
 3542TIP3    H110632   0.095   4.931   4.376
 3542TIP3    H210633   0.096   5.030   4.261
 3543TIP3   OH210634   2.991   1.204   5.086
 3543TIP3    H110635   2.900   1.189   5.062
 3543TIP3    H210636   3.017   1.125   5.134
 3544TIP3   OH210637   5.745   2.818   1.006
 3544TIP3    H110638   5.718   2.828   1.097
 3544TIP3    H210639   5.664   2.828   0.955
 3545TIP3   OH210640   4.455   3.406   2.366
 3545TIP3    H110641   4.434   3.328   2.315
 3545TIP3    H210642   4.476   3.472   2.300
 3546TIP3   OH210643   5.057   4.555   3.893
 3546TIP3    H110644   5.114   4.624   3.859
 3546TIP3    H210645   5.073   4.554   3.987
 3547TIP3   OH210646   4.629   2.995   2.217
 3547TIP3    H110647   4.626   2.918   2.273
 3547TIP3    H210648   4.721   3.002   2.192
 3548TIP3   OH210649   3.797   4.114   5.149
 3548TIP3    H110650   3.810   4.019   5.147
 3548TIP3    H210651   3.886   4.150   5.150
 3549TIP3   OH210652   5.565   1.053   1.145
 3549TIP3    H110653   5.643   1.104   1.166
 3549TIP3    H210654   5.599   0.968   1.118
 3550TIP3   OH210655   3.286   3.112   1.599
 3550TIP3    H110656   3.267   3.094   1.507
 3550TIP3    H210657   3.382   3.107   1.605
 3551TIP3   OH210658   0.389   5.884   4.654
 3551TIP3    H110659   0.359   5.967   4.691
 3551TIP3    H210660   0.330   5.818   4.691
 3552TIP3   OH210661   5.968   4.690   0.206
 3552TIP3    H110662   5.892   4.642   0.239
 3552TIP3    H210663   5.966   4.774   0.253
 3553TIP3   OH210664   1.523   5.697   3.273
 3553TIP3    H110665   1.443   5.722   3.227
 3553TIP3    H210666   1.591   5.751   3.234
 3554TIP3   OH210667   3.688   3.569   3.451
 3554TIP3    H110668   3.773   3.534   3.425
 3554TIP3    H210669   3.640   3.493   3.485
 3555TIP3   OH210670   1.068   2.901   1.119
 3555TIP3    H110671   1.041   2.838   1.186
 3555TIP3    H210672   1.112   2.971   1.168
 3556TIP3   OH210673   0.467   4.599   1.654
 3556TIP3    H110674   0.376   4.622   1.640
 3556TIP3    H210675   0.508   4.682   1.683
 3557TIP3   OH210676   0.847   0.703   3.241
 3557TIP3    H110677   0.836   0.677   3.332
 3557TIP3    H210678   0.886   0.790   3.245
 3558TIP3   OH210679   1.164   0.215   4.474
 3558TIP3    H110680   1.127   0.146   4.419
 3558TIP3    H210681   1.158   0.181   4.563
 3559TIP3   OH210682   2.487   2.173   0.425
 3559TIP3    H110683   2.433   2.137   0.495
 3559TIP3    H210684   2.430   2.236   0.381
 3560TIP3   OH210685   5.090   3.854   3.406
 3560TIP3    H110686   5.095   3.831   3.499
 3560TIP3    H210687   5.129   3.780   3.360
 3561TIP3   OH210688   1.031   1.714   3.676
 3561TIP3    H110689   1.112   1.700   3.726
 3561TIP3    H210690   0.970   1.649   3.711
 3562TIP3   OH210691   0.480   3.139   2.021
 3562TIP3    H110692   0.413   3.177   2.078
 3562TIP3    H210693   0.518   3.069   2.074
 3563TIP3   OH210694   5.139   3.189   0.209
 3563TIP3    H110695   5.158   3.102   0.243
 3563TIP3    H210696   5.193   3.248   0.262
 3564TIP3   OH210697   0.152   4.346   3.705
 3564TIP3    H110698   0.202   4.289   3.763
 3564TIP3    H210699   0.216   4.410   3.673
 3565TIP3   OH210700   4.952   0.949   3.445
 3565TIP3    H110701   5.002   0.868   3.460
 3565TIP3    H210702   4.949   0.991   3.531
 3566TIP3   OH210703   5.769   3.092   2.240
 3566TIP3    H110704   5.749   3.002   2.266
 3566TIP3    H210705   5.687   3.127   2.207
 3567TIP3   OH210706   5.536   1.744   1.562
 3567TIP3    H110707   5.583   1.663   1.547
 3567TIP3    H210708   5.501   1.736   1.651
 3568TIP3   OH210709   3.484   4.941  -0.016
 3568TIP3    H110710   3.467   5.007   0.052
 3568TIP3    H210711   3.397   4.921  -0.052
 3569TIP3   OH210712   3.794   5.043   3.963
 3569TIP3    H110713   3.838   5.110   4.016
 3569TIP3    H210714   3.714   5.086   3.932
 3570TIP3   OH210715   3.798   3.078   0.871
 3570TIP3    H110716   3.864   3.009   0.872
 3570TIP3    H210717   3.842   3.153   0.833
 3571TIP3   OH210718   2.069   3.819   1.890
 3571TIP3    H110719   2.125   3.813   1.967
 3571TIP3    H210720   2.122   3.866   1.825
 3572TIP3   OH210721   0.622   4.602   1.308
 3572TIP3    H110722   0.591   4.609   1.398
 3572TIP3    H210723   0.569   4.666   1.260
 3573TIP3   OH210724   6.089   4.466   4.931
 3573TIP3    H110725   6.159   4.480   4.995
 3573TIP3    H210726   6.052   4.381   4.956
 3574TIP3   OH210727   4.282   4.861   1.012
 3574TIP3    H110728   4.213   4.897   0.956
 3574TIP3    H210729   4.351   4.927   1.011
 3575TIP3   OH210730   2.797   0.524   3.449
 3575TIP3    H110731   2.820   0.438   3.414
 3575TIP3    H210732   2.869   0.581   3.421
 3576TIP3   OH210733   3.017   2.892   5.123
 3576TIP3    H110734   2.997   2.943   5.045
 3576TIP3    H210735   2.937   2.843   5.142
 3577TIP3   OH210736   2.525   0.820   4.586
 3577TIP3    H110737   2.468   0.896   4.574
 3577TIP3    H210738   2.521   0.774   4.503
 3578TIP3   OH210739   5.638   0.043   2.916
 3578TIP3    H110740   5.556   0.065   2.961
 3578TIP3    H210741   5.617  -0.036   2.865
 3579TIP3   OH210742   3.170   5.082   1.334
 3579TIP3    H110743   3.227   5.039   1.270
 3579TIP3    H210744   3.093   5.025   1.340
 3580TIP3   OH210745   4.901   2.884   4.614
 3580TIP3    H110746   4.919   2.977   4.611
 3580TIP3    H210747   4.893   2.858   4.522
 3581TIP3   OH210748   3.778   3.501   3.206
 3581TIP3    H110749   3.684   3.482   3.207
 3581TIP3    H210750   3.782   3.595   3.188
 3582TIP3   OH210751   0.591   5.082   0.083
 3582TIP3    H110752   0.610   5.008   0.025
 3582TIP3    H210753   0.495   5.083   0.090
 3583TIP3   OH210754   0.750   1.718   2.223
 3583TIP3    H110755   0.749   1.688   2.132
 3583TIP3    H210756   0.729   1.640   2.275
 3584TIP3   OH210757   5.873   1.981   2.884
 3584TIP3    H110758   5.852   1.895   2.921
 3584TIP3    H210759   5.969   1.985   2.885
 3585TIP3   OH210760   2.968   4.792   3.680
 3585TIP3    H110761   2.928   4.879   3.679
 3585TIP3    H210762   2.933   4.751   3.760
 3586TIP3   OH210763   2.496   1.870   0.550
 3586TIP3    H110764   2.502   1.801   0.485
 3586TIP3    H210765   2.586   1.884   0.579
 3587TIP3   OH210766   0.630   2.503   1.047
 3587TIP3    H110767   0.715   2.542   1.068
 3587TIP3    H210768   0.638   2.476   0.956
 3588TIP3   OH210769   1.965   1.604   3.626
 3588TIP3    H110770   1.945   1.696   3.610
 3588TIP3    H210771   1.953   1.561   3.541
 3589TIP3   OH210772   4.850   1.472   3.888
 3589TIP3    H110773   4.880   1.426   3.810
 3589TIP3    H210774   4.776   1.525   3.857
 3590TIP3   OH210775   2.652   5.895   1.676
 3590TIP3    H110776   2.712   5.895   1.602
 3590TIP3    H210777   2.629   5.988   1.689
 3591TIP3   OH210778   1.058   3.774   3.049
 3591TIP3    H110779   1.054   3.818   3.134
 3591TIP3    H210780   1.142   3.799   3.012
 3592TIP3   OH210781   1.895   2.431   4.195
 3592TIP3    H110782   1.886   2.465   4.284
 3592TIP3    H210783   1.984   2.398   4.190
 3593TIP3   OH210784   0.927   4.878   1.777
 3593TIP3    H110785   1.015   4.902   1.808
 3593TIP3    H210786   0.899   4.954   1.725
 3594TIP3   OH210787   3.568   4.729   1.827
 3594TIP3    H110788   3.525   4.742   1.912
 3594TIP3    H210789   3.660   4.746   1.844
 3595TIP3   OH210790   6.206   1.758   0.912
 3595TIP3    H110791   6.203   1.793   0.823
 3595TIP3    H210792   6.182   1.832   0.968
 3596TIP3   OH210793   5.281   4.784   0.127
 3596TIP3    H110794   5.287   4.771   0.032
 3596TIP3    H210795   5.194   4.752   0.150
 3597TIP3   OH210796   5.322   3.422   3.337
 3597TIP3    H110797   5.320   3.366   3.414
 3597TIP3    H210798   5.405   3.470   3.343
 3598TIP3   OH210799   6.025   1.768   4.469
 3598TIP3    H110800   5.982   1.683   4.463
 3598TIP3    H210801   6.049   1.790   4.379
 3599TIP3   OH210802   5.250   5.462   4.504
 3599TIP3    H110803   5.230   5.532   4.443
 3599TIP3    H210804   5.268   5.507   4.587
 3600TIP3   OH210805   0.179   5.763   1.958
 3600TIP3    H110806   0.255   5.820   1.969
 3600TIP3    H210807   0.182   5.705   2.034
 3601TIP3   OH210808   3.018   5.530   2.433
 3601TIP3    H110809   2.997   5.576   2.514
 3601TIP3    H210810   3.009   5.596   2.365
 3602TIP3   OH210811   1.186   2.554   3.140
 3602TIP3    H110812   1.121   2.563   3.211
 3602TIP3    H210813   1.210   2.462   3.142
 3603TIP3   OH210814   3.593   3.540   2.718
 3603TIP3    H110815   3.682   3.519   2.744
 3603TIP3    H210816   3.598   3.552   2.623
 3604TIP3   OH210817   5.808   1.108   3.298
 3604TIP3    H110818   5.873   1.064   3.353
 3604TIP3    H210819   5.857   1.174   3.250
 3605TIP3   OH210820   0.760   2.091   0.786
 3605TIP3    H110821   0.789   2.170   0.740
 3605TIP3    H210822   0.841   2.047   0.812
 3606TIP3   OH210823   3.199   3.847   3.155
 3606TIP3    H110824   3.129   3.910   3.139
 3606TIP3    H210825   3.249   3.845   3.073
 3607TIP3   OH210826   5.548   3.782   0.731
 3607TIP3    H110827   5.541   3.872   0.701
 3607TIP3    H210828   5.468   3.740   0.701
 3608TIP3   OH210829   4.363   0.375   3.395
 3608TIP3    H110830   4.439   0.322   3.418
 3608TIP3    H210831   4.333   0.340   3.311
 3609TIP3   OH210832   0.407   4.790   2.932
 3609TIP3    H110833   0.484   4.737   2.912
 3609TIP3    H210834   0.335   4.746   2.888
 3610TIP3   OH210835   3.673   5.374   1.713
 3610TIP3    H110836   3.716   5.390   1.797
 3610TIP3    H210837   3.698   5.285   1.689
 3611TIP3   OH210838   1.681   5.774   4.246
 3611TIP3    H110839   1.714   5.798   4.160
 3611TIP3    H210840   1.603   5.721   4.228
 3612TIP3   OH210841   1.200   0.483   3.471
 3612TIP3    H110842   1.237   0.556   3.521
 3612TIP3    H210843   1.107   0.483   3.493
 3613TIP3   OH210844   2.473   3.099   1.604
 3613TIP3    H110845   2.503   3.153   1.532
 3613TIP3    H210846   2.548   3.044   1.627
 3614TIP3   OH210847   2.434   5.544   1.584
 3614TIP3    H110848   2.356   5.488   1.582
 3614TIP3    H210849   2.467   5.536   1.673
 3615TIP3   OH210850   1.995   3.027   1.566
 3615TIP3    H110851   1.953   2.942   1.568
 3615TIP3    H210852   2.089   3.008   1.564
 3616TIP3   OH210853   1.245   3.903   4.477
 3616TIP3    H110854   1.257   3.936   4.387
 3616TIP3    H210855   1.285   3.816   4.476
 3617TIP3   OH210856   6.199   1.334   3.398
 3617TIP3    H110857   6.132   1.383   3.445
 3617TIP3    H210858   6.210   1.253   3.449
 3618TIP3   OH210859   6.193   5.376   1.817
 3618TIP3    H110860   6.266   5.435   1.799
 3618TIP3    H210861   6.232   5.304   1.867
 3619TIP3   OH210862   5.461   5.154   0.351
 3619TIP3    H110863   5.507   5.237   0.355
 3619TIP3    H210864   5.470   5.117   0.439
 3620TIP3   OH210865   5.339   3.975   4.361
 3620TIP3    H110866   5.334   4.022   4.445
 3620TIP3    H210867   5.401   3.904   4.377
 3621TIP3   OH210868   3.075   5.398   0.444
 3621TIP3    H110869   3.118   5.368   0.524
 3621TIP3    H210870   3.090   5.327   0.381
 3622TIP3   OH210871   1.194   3.510   2.731
 3622TIP3    H110872   1.123   3.484   2.789
 3622TIP3    H210873   1.252   3.563   2.786
 3623TIP3   OH210874   1.659   5.107   3.962
 3623TIP3    H110875   1.637   5.105   3.869
 3623TIP3    H210876   1.720   5.034   3.974
 3624TIP3   OH210877   1.917   3.626   5.145
 3624TIP3    H110878   1.930   3.619   5.240
 3624TIP3    H210879   1.880   3.714   5.133
 3625TIP3   OH210880   2.432   3.937   3.047
 3625TIP3    H110881   2.424   4.011   2.987
 3625TIP3    H210882   2.408   3.973   3.132
 3626TIP3   OH210883   3.922   0.149   0.522
 3626TIP3    H110884   3.907   0.214   0.453
 3626TIP3    H210885   3.888   0.189   0.601
 3627TIP3   OH210886   1.298   1.874   2.057
 3627TIP3    H110887   1.279   1.950   2.001
 3627TIP3    H210888   1.394   1.872   2.062
 3628TIP3   OH210889   1.930   0.823   2.647
 3628TIP3    H110890   1.853   0.872   2.676
 3628TIP3    H210891   1.999   0.846   2.710
 3629TIP3   OH210892   2.425   4.247   2.534
 3629TIP3    H110893   2.340   4.237   2.492
 3629TIP3    H210894   2.440   4.342   2.537
 3630TIP3   OH210895   5.503   4.226   4.489
 3630TIP3    H110896   5.583   4.267   4.522
 3630TIP3    H210897   5.516   4.220   4.394
 3631TIP3   OH210898   0.518   0.706   1.197
 3631TIP3    H110899   0.513   0.639   1.128
 3631TIP3    H210900   0.439   0.758   1.185
 3632TIP3   OH210901   4.777   5.482   1.658
 3632TIP3    H110902   4.700   5.476   1.602
 3632TIP3    H210903   4.787   5.576   1.676
 3633TIP3   OH210904   6.217   0.377   4.444
 3633TIP3    H110905   6.290   0.427   4.480
 3633TIP3    H210906   6.254   0.291   4.424
 3634TIP3   OH210907   0.284   0.117   2.531
 3634TIP3    H110908   0.265   0.076   2.615
 3634TIP3    H210909   0.240   0.061   2.467
 3635TIP3   OH210910   1.460   0.100   0.693
 3635TIP3    H110911   1.409   0.027   0.658
 3635TIP3    H210912   1.516   0.127   0.619
 3636TIP3   OH210913   1.798   4.573   0.977
 3636TIP3    H110914   1.798   4.531   1.062
 3636TIP3    H210915   1.705   4.579   0.953
 3637TIP3   OH210916   3.816   3.430   1.080
 3637TIP3    H110917   3.759   3.436   1.156
 3637TIP3    H210918   3.856   3.344   1.086
 3638TIP3   OH210919   1.850   1.375   0.405
 3638TIP3    H110920   1.889   1.320   0.337
 3638TIP3    H210921   1.922   1.428   0.437
 3639TIP3   OH210922   0.789   4.211   1.089
 3639TIP3    H110923   0.767   4.298   1.121
 3639TIP3    H210924   0.803   4.159   1.168
 3640TIP3   OH210925   5.614   0.741   4.274
 3640TIP3    H110926   5.627   0.834   4.289
 3640TIP3    H210927   5.664   0.698   4.344
 3641TIP3   OH210928   0.531   5.863   4.389
 3641TIP3    H110929   0.581   5.891   4.313
 3641TIP3    H210930   0.462   5.807   4.353
 3642TIP3   OH210931   1.567   1.905   2.158
 3642TIP3    H110932   1.652   1.870   2.131
 3642TIP3    H210933   1.528   1.836   2.212
 3643TIP3   OH210934   4.430   0.159   1.162
 3643TIP3    H110935   4.426   0.141   1.068
 3643TIP3    H210936   4.471   0.245   1.168
 3644TIP3   OH210937   5.638   3.633   2.073
 3644TIP3    H110938   5.701   3.684   2.123
 3644TIP3    H210939   5.644   3.668   1.984
 3645TIP3   OH210940   0.438   5.794   0.419
 3645TIP3    H110941   0.477   5.725   0.365
 3645TIP3    H210942   0.486   5.873   0.394
 3646TIP3   OH210943   3.842   3.920   2.869
 3646TIP3    H110944   3.896   3.994   2.841
 3646TIP3    H210945   3.752   3.948   2.850
 3647TIP3   OH210946   4.094   0.514   0.571
 3647TIP3    H110947   4.051   0.457   0.507
 3647TIP3    H210948   4.137   0.453   0.631
 3648TIP3   OH210949   4.077   2.399   0.229
 3648TIP3    H110950   4.156   2.426   0.182
 3648TIP3    H210951   4.033   2.480   0.252
 3649TIP3   OH210952   4.208   5.354   2.724
 3649TIP3    H110953   4.112   5.351   2.733
 3649TIP3    H210954   4.231   5.266   2.693
 3650TIP3   OH210955   5.959   5.807   4.504
 3650TIP3    H110956   5.870   5.823   4.535
 3650TIP3    H210957   5.983   5.723   4.543
 3651TIP3   OH210958   1.115   3.986   1.006
 3651TIP3    H110959   1.029   3.977   0.965
 3651TIP3    H210960   1.141   4.077   0.988
 3652TIP3   OH210961   0.323   2.074   1.980
 3652TIP3    H110962   0.264   2.019   2.032
 3652TIP3    H210963   0.348   2.145   2.039
 3653TIP3   OH210964   6.145   0.618   0.257
 3653TIP3    H110965   6.145   0.705   0.296
 3653TIP3    H210966   6.063   0.579   0.285
 3654TIP3   OH210967   1.190   5.918   3.427
 3654TIP3    H110968   1.099   5.941   3.411
 3654TIP3    H210969   1.189   5.868   3.509
 3655TIP3   OH210970   5.596   3.532   0.427
 3655TIP3    H110971   5.622   3.608   0.478
 3655TIP3    H210972   5.660   3.528   0.356
 3656TIP3   OH210973   5.497   5.792   2.166
 3656TIP3    H110974   5.449   5.867   2.202
 3656TIP3    H210975   5.567   5.831   2.114
 3657TIP3   OH210976   5.685   5.295   0.490
 3657TIP3    H110977   5.729   5.212   0.510
 3657TIP3    H210978   5.736   5.361   0.537
 3658TIP3   OH210979  -0.002   4.455   1.632
 3658TIP3    H110980   0.093   4.447   1.646
 3658TIP3    H210981  -0.020   4.548   1.640
 3659TIP3   OH210982   4.913   0.683   0.721
 3659TIP3    H110983   4.829   0.639   0.708
 3659TIP3    H210984   4.906   0.723   0.807
 3660TIP3   OH210985   0.942   0.268   2.074
 3660TIP3    H110986   0.970   0.356   2.098
 3660TIP3    H210987   0.949   0.266   1.979
 3661TIP3   OH210988   5.246   4.506   2.252
 3661TIP3    H110989   5.310   4.470   2.314
 3661TIP3    H210990   5.288   4.584   2.217
 3662TIP3   OH210991   3.511   1.338   2.755
 3662TIP3    H110992   3.581   1.364   2.696
 3662TIP3    H210993   3.482   1.421   2.795
 3663TIP3   OH210994   1.525   5.522   4.219
 3663TIP3    H110995   1.432   5.539   4.233
 3663TIP3    H210996   1.546   5.454   4.283
 3664TIP3   OH210997   0.093   4.145   2.143
 3664TIP3    H110998   0.153   4.087   2.190
 3664TIP3    H210999   0.122   4.142   2.052
 3665TIP3   OH211000   4.356   1.214   0.319
 3665TIP3    H111001   4.346   1.122   0.344
 3665TIP3    H211002   4.312   1.262   0.389
 3666TIP3   OH211003   3.120   0.172   3.807
 3666TIP3    H111004   3.028   0.149   3.790
 3666TIP3    H211005   3.132   0.256   3.762
 3667TIP3   OH211006   3.429   2.647   4.413
 3667TIP3    H111007   3.447   2.693   4.495
 3667TIP3    H211008   3.399   2.560   4.440
 3668TIP3   OH211009   2.729   0.909   1.920
 3668TIP3    H111010   2.764   0.953   1.998
 3668TIP3    H211011   2.709   0.820   1.950
 3669TIP3   OH211012   3.973   4.065   4.321
 3669TIP3    H111013   4.018   4.112   4.250
 3669TIP3    H211014   3.968   4.129   4.392
 3670TIP3   OH211015   1.794   1.290   4.533
 3670TIP3    H111016   1.755   1.233   4.599
 3670TIP3    H211017   1.863   1.238   4.492
 3671TIP3   OH211018   0.224   1.625   2.924
 3671TIP3    H111019   0.148   1.575   2.894
 3671TIP3    H211020   0.267   1.652   2.843
 3672TIP3   OH211021   3.233   3.586   0.575
 3672TIP3    H111022   3.281   3.592   0.492
 3672TIP3    H211023   3.213   3.493   0.584
 3673TIP3   OH211024   0.001   6.002   1.004
 3673TIP3    H111025  -0.075   5.943   1.007
 3673TIP3    H211026   0.076   5.944   1.016
 3674TIP3   OH211027   2.982   4.828   4.958
 3674TIP3    H111028   2.945   4.751   4.914
 3674TIP3    H211029   3.027   4.792   5.034
 3675TIP3   OH211030   3.528   2.426   1.937
 3675TIP3    H111031   3.491   2.354   1.988
 3675TIP3    H211032   3.471   2.432   1.860
 3676TIP3   OH211033   0.095   3.031   2.996
 3676TIP3    H111034   0.171   3.085   2.972
 3676TIP3    H211035   0.026   3.057   2.935
 3677TIP3   OH211036   1.198   4.730   2.072
 3677TIP3    H111037   1.219   4.791   2.001
 3677TIP3    H211038   1.133   4.776   2.125
 3678TIP3   OH211039   5.603   3.930   1.063
 3678TIP3    H111040   5.566   3.913   1.150
 3678TIP3    H211041   5.608   4.025   1.057
 3679TIP3   OH211042   0.299   3.771   0.361
 3679TIP3    H111043   0.322   3.834   0.430
 3679TIP3    H211044   0.213   3.738   0.387
 3680TIP3   OH211045   0.737   4.321   1.608
 3680TIP3    H111046   0.792   4.285   1.678
 3680TIP3    H211047   0.667   4.367   1.654
 3681TIP3   OH211048   2.728   5.377   2.481
 3681TIP3    H111049   2.747   5.438   2.410
 3681TIP3    H211050   2.812   5.363   2.524
 3682TIP3   OH211051   1.437   2.143   0.799
 3682TIP3    H111052   1.459   2.227   0.760
 3682TIP3    H211053   1.345   2.151   0.825
 3683TIP3   OH211054   1.760   4.877   0.820
 3683TIP3    H111055   1.700   4.852   0.891
 3683TIP3    H211056   1.845   4.885   0.862
 3684TIP3   OH211057   0.695   0.406   2.178
 3684TIP3    H111058   0.685   0.391   2.272
 3684TIP3    H211059   0.629   0.473   2.158
 3685TIP3   OH211060   4.524   3.114   4.868
 3685TIP3    H111061   4.430   3.097   4.861
 3685TIP3    H211062   4.565   3.030   4.845
 3686TIP3   OH211063   3.478   5.954   0.636
 3686TIP3    H111064   3.463   5.898   0.560
 3686TIP3    H211065   3.567   5.935   0.664
 3687TIP3   OH211066   5.297   2.258   1.111
 3687TIP3    H111067   5.229   2.205   1.068
 3687TIP3    H211068   5.257   2.286   1.193
 3688TIP3   OH211069   3.877   0.957   1.120
 3688TIP3    H111070   3.842   0.875   1.156
 3688TIP3    H211071   3.888   0.939   1.027
 3689TIP3   OH211072   3.168   3.597   4.493
 3689TIP3    H111073   3.120   3.516   4.514
 3689TIP3    H211074   3.198   3.629   4.578
 3690TIP3   OH211075   2.781   1.848   0.986
 3690TIP3    H111076   2.781   1.934   1.028
 3690TIP3    H211077   2.688   1.826   0.976
 3691TIP3   OH211078   5.909   4.919   3.848
 3691TIP3    H111079   5.893   5.009   3.873
 3691TIP3    H211080   5.842   4.869   3.894
 3692TIP3   OH211081   3.731   3.831   0.350
 3692TIP3    H111082   3.819   3.819   0.313
 3692TIP3    H211083   3.672   3.825   0.275
 3693TIP3   OH211084   4.440   5.852   0.761
 3693TIP3    H111085   4.370   5.909   0.730
 3693TIP3    H211086   4.418   5.766   0.726
 3694TIP3   OH211087   6.295   3.746   4.210
 3694TIP3    H111088   6.297   3.673   4.148
 3694TIP3    H211089   6.211   3.737   4.255
 3695TIP3   OH211090   0.791   0.565   0.143
 3695TIP3    H111091   0.824   0.616   0.069
 3695TIP3    H211092   0.793   0.627   0.217
 3696TIP3   OH211093   3.728   2.329   1.641
 3696TIP3    H111094   3.794   2.330   1.571
 3696TIP3    H211095   3.684   2.414   1.632
 3697TIP3   OH211096   2.242   2.978   1.506
 3697TIP3    H111097   2.263   2.885   1.513
 3697TIP3    H211098   2.326   3.023   1.515
 3698TIP3   OH211099   4.888   5.868   1.523
 3698TIP3    H111100   4.928   5.783   1.503
 3698TIP3    H211101   4.886   5.913   1.439
 3699TIP3   OH211102   3.836   2.690   3.144
 3699TIP3    H111103   3.771   2.703   3.212
 3699TIP3    H211104   3.897   2.627   3.181
 3700TIP3   OH211105   1.610   0.329   4.546
 3700TIP3    H111106   1.664   0.252   4.566
 3700TIP3    H211107   1.566   0.349   4.628
 3701TIP3   OH211108   3.580   0.261   0.663
 3701TIP3    H111109   3.541   0.201   0.727
 3701TIP3    H211110   3.671   0.270   0.691
 3702TIP3   OH211111   6.152   3.768   3.660
 3702TIP3    H111112   6.211   3.693   3.667
 3702TIP3    H211113   6.129   3.788   3.751
 3703TIP3   OH211114   3.316   0.422   2.151
 3703TIP3    H111115   3.296   0.412   2.058
 3703TIP3    H211116   3.241   0.470   2.186
 3704TIP3   OH211117   0.592   2.905   1.500
 3704TIP3    H111118   0.623   2.822   1.537
 3704TIP3    H211119   0.643   2.972   1.547
 3705TIP3   OH211120   2.012   3.623   2.381
 3705TIP3    H111121   2.052   3.651   2.464
 3705TIP3    H211122   1.920   3.649   2.388
 3706TIP3   OH211123   1.197   3.485   1.061
 3706TIP3    H111124   1.153   3.508   1.143
 3706TIP3    H211125   1.195   3.565   1.009
 3707TIP3   OH211126   5.121   5.984   2.413
 3707TIP3    H111127   5.132   5.995   2.507
 3707TIP3    H211128   5.157   5.898   2.394
 3708TIP3   OH211129   5.897   3.403   3.672
 3708TIP3    H111130   5.873   3.333   3.612
 3708TIP3    H211131   5.962   3.454   3.625
 3709TIP3   OH211132   2.111   3.874   2.170
 3709TIP3    H111133   2.065   3.815   2.229
 3709TIP3    H211134   2.200   3.839   2.167
 3710TIP3   OH211135   2.897   2.198   0.898
 3710TIP3    H111136   2.911   2.289   0.922
 3710TIP3    H211137   2.863   2.157   0.977
 3711TIP3   OH211138   2.076   1.621   2.144
 3711TIP3    H111139   2.014   1.558   2.179
 3711TIP3    H211140   2.162   1.589   2.173
 3712TIP3   OH211141   2.340   4.049   4.134
 3712TIP3    H111142   2.330   4.138   4.170
 3712TIP3    H211143   2.420   4.016   4.174
 3713TIP3   OH211144   1.474   2.606   4.067
 3713TIP3    H111145   1.460   2.640   4.156
 3713TIP3    H211146   1.538   2.536   4.078
 3714TIP3   OH211147   1.850   0.580   1.204
 3714TIP3    H111148   1.896   0.572   1.120
 3714TIP3    H211149   1.919   0.583   1.270
 3715TIP3   OH211150   1.258   2.068   1.892
 3715TIP3    H111151   1.269   2.067   1.797
 3715TIP3    H211152   1.278   2.158   1.919
 3716TIP3   OH211153   4.052   1.297   1.540
 3716TIP3    H111154   3.999   1.230   1.583
 3716TIP3    H211155   4.077   1.257   1.457
 3717TIP3   OH211156   1.523   5.102   4.584
 3717TIP3    H111157   1.552   5.087   4.674
 3717TIP3    H211158   1.556   5.026   4.536
 3718TIP3   OH211159   3.243   5.777   0.777
 3718TIP3    H111160   3.151   5.787   0.799
 3718TIP3    H211161   3.257   5.835   0.702
 3719TIP3   OH211162   5.780   1.297   2.351
 3719TIP3    H111163   5.856   1.306   2.294
 3719TIP3    H211164   5.809   1.332   2.435
 3720TIP3   OH211165   5.944   2.240   4.387
 3720TIP3    H111166   5.963   2.333   4.378
 3720TIP3    H211167   5.935   2.209   4.296
 3721TIP3   OH211168   3.046   3.262   5.057
 3721TIP3    H111169   2.961   3.257   5.014
 3721TIP3    H211170   3.100   3.315   4.998
 3722TIP3   OH211171   1.823   2.875   1.828
 3722TIP3    H111172   1.849   2.854   1.739
 3722TIP3    H211173   1.865   2.959   1.846
 3723TIP3   OH211174   0.734   3.965   3.888
 3723TIP3    H111175   0.686   3.981   3.969
 3723TIP3    H211176   0.816   3.925   3.917
 3724TIP3   OH211177   1.443   5.059   2.738
 3724TIP3    H111178   1.518   5.002   2.754
 3724TIP3    H211179   1.377   5.028   2.800
 3725TIP3   OH211180   2.778   4.219   1.603
 3725TIP3    H111181   2.849   4.260   1.651
 3725TIP3    H211182   2.777   4.263   1.518
 3726TIP3   OH211183   4.538   5.477   1.461
 3726TIP3    H111184   4.463   5.524   1.426
 3726TIP3    H211185   4.606   5.486   1.394
 3727TIP3   OH211186   3.796   2.083   3.601
 3727TIP3    H111187   3.847   2.096   3.521
 3727TIP3    H211188   3.727   2.148   3.596
 3728TIP3   OH211189   0.620   4.939   0.391
 3728TIP3    H111190   0.549   4.992   0.354
 3728TIP3    H211191   0.590   4.848   0.380
 3729TIP3   OH211192   5.790   3.839   2.191
 3729TIP3    H111193   5.791   3.870   2.101
 3729TIP3    H211194   5.873   3.868   2.228
 3730TIP3   OH211195   0.789   5.898   1.472
 3730TIP3    H111196   0.825   5.939   1.551
 3730TIP3    H211197   0.709   5.947   1.454
 3731TIP3   OH211198   5.225   3.808   0.554
 3731TIP3    H111199   5.197   3.753   0.627
 3731TIP3    H211200   5.169   3.782   0.481
 3732TIP3   OH211201   2.646   4.204   2.693
 3732TIP3    H111202   2.686   4.122   2.665
 3732TIP3    H211203   2.565   4.210   2.644
 3733TIP3   OH211204   3.614   1.448   1.301
 3733TIP3    H111205   3.693   1.396   1.310
 3733TIP3    H211206   3.585   1.463   1.391
 3734TIP3   OH211207   4.761   0.072   0.802
 3734TIP3    H111208   4.748   0.093   0.710
 3734TIP3    H211209   4.795   0.153   0.840
 3735TIP3   OH211210   5.839   4.000   3.806
 3735TIP3    H111211   5.754   3.956   3.813
 3735TIP3    H211212   5.901   3.939   3.844
 3736TIP3   OH211213   4.082   3.328   2.204
 3736TIP3    H111214   4.116   3.240   2.185
 3736TIP3    H211215   4.079   3.332   2.300
 3737TIP3   OH211216   3.201   0.296   1.091
 3737TIP3    H111217   3.146   0.256   1.158
 3737TIP3    H211218   3.201   0.390   1.113
 3738TIP3   OH211219   1.993   4.561   5.044
 3738TIP3    H111220   1.914   4.593   5.088
 3738TIP3    H211221   2.065   4.601   5.092
 3739TIP3   OH211222   4.884   5.147   0.180
 3739TIP3    H111223   4.954   5.093   0.216
 3739TIP3    H211224   4.894   5.141   0.085
 3740TIP3   OH211225   0.676   5.509   2.621
 3740TIP3    H111226   0.714   5.572   2.559
 3740TIP3    H211227   0.747   5.446   2.637
 3741TIP3   OH211228   4.004   2.629   0.002
 3741TIP3    H111229   3.922   2.586  -0.023
 3741TIP3    H211230   3.990   2.655   0.093
 3742TIP3   OH211231   3.424   4.727   1.607
 3742TIP3    H111232   3.483   4.726   1.683
 3742TIP3    H211233   3.482   4.741   1.532
 3743TIP3   OH211234   5.490   2.040   1.749
 3743TIP3    H111235   5.557   1.973   1.737
 3743TIP3    H211236   5.533   2.108   1.801
 3744TIP3   OH211237   4.717   3.442   2.972
 3744TIP3    H111238   4.684   3.376   2.910
 3744TIP3    H211239   4.776   3.393   3.030
 3745TIP3   OH211240   0.372   3.775   4.135
 3745TIP3    H111241   0.387   3.803   4.225
 3745TIP3    H211242   0.313   3.841   4.099
 3746TIP3   OH211243   5.490   0.047   1.956
 3746TIP3    H111244   5.398   0.022   1.964
 3746TIP3    H211245   5.538  -0.036   1.964
 3747TIP3   OH211246   0.766   5.684   2.333
 3747TIP3    H111247   0.796   5.758   2.281
 3747TIP3    H211248   0.845   5.651   2.376
 3748TIP3   OH211249   2.231   2.351   4.846
 3748TIP3    H111250   2.193   2.333   4.931
 3748TIP3    H211251   2.156   2.376   4.791
 3749TIP3   OH211252   1.531   1.893   1.856
 3749TIP3    H111253   1.486   1.977   1.850
 3749TIP3    H211254   1.620   1.911   1.824
 3750TIP3   OH211255   0.780   4.887   2.040
 3750TIP3    H111256   0.727   4.810   2.060
 3750TIP3    H211257   0.810   4.873   1.950
 3751TIP3   OH211258   1.742   3.154   2.091
 3751TIP3    H111259   1.765   3.063   2.108
 3751TIP3    H211260   1.681   3.177   2.161
 3752TIP3   OH211261   4.267   2.947   3.024
 3752TIP3    H111262   4.185   2.981   3.059
 3752TIP3    H211263   4.306   2.898   3.096
 3753TIP3   OH211264   2.022   2.140   3.522
 3753TIP3    H111265   2.078   2.094   3.459
 3753TIP3    H211266   1.993   2.218   3.475
 3754TIP3   OH211267   2.694   0.242   0.473
 3754TIP3    H111268   2.712   0.241   0.568
 3754TIP3    H211269   2.690   0.149   0.449
 3755TIP3   OH211270   1.010   2.596   1.949
 3755TIP3    H111271   1.078   2.590   2.016
 3755TIP3    H211272   0.982   2.505   1.936
 3756TIP3   OH211273   5.583   5.477   4.543
 3756TIP3    H111274   5.506   5.421   4.533
 3756TIP3    H211275   5.547   5.563   4.564
 3757TIP3   OH211276   4.852   0.614   0.357
 3757TIP3    H111277   4.762   0.608   0.390
 3757TIP3    H211278   4.877   0.523   0.339
 3758TIP3   OH211279   0.322   3.396   2.663
 3758TIP3    H111280   0.374   3.420   2.587
 3758TIP3    H211281   0.237   3.438   2.650
 3759TIP3   OH211282   3.186   4.541   3.102
 3759TIP3    H111283   3.158   4.532   3.193
 3759TIP3    H211284   3.105   4.540   3.052
 3760TIP3   OH211285   3.489   2.878   1.786
 3760TIP3    H111286   3.493   2.797   1.735
 3760TIP3    H211287   3.444   2.853   1.866
 3761TIP3   OH211288   3.852   0.625   1.823
 3761TIP3    H111289   3.922   0.674   1.780
 3761TIP3    H211290   3.875   0.533   1.811
 3762TIP3   OH211291   1.707   0.679   2.485
 3762TIP3    H111292   1.632   0.725   2.447
 3762TIP3    H211293   1.775   0.746   2.492
 3763TIP3   OH211294   1.213   5.489   3.763
 3763TIP3    H111295   1.182   5.408   3.722
 3763TIP3    H211296   1.259   5.460   3.842
 3764TIP3   OH211297   1.833   1.817   2.719
 3764TIP3    H111298   1.752   1.778   2.686
 3764TIP3    H211299   1.903   1.771   2.672
 3765TIP3   OH211300   1.378   1.880   4.104
 3765TIP3    H111301   1.414   1.926   4.028
 3765TIP3    H211302   1.285   1.904   4.104
 3766TIP3   OH211303   1.535   5.852   0.530
 3766TIP3    H111304   1.599   5.841   0.600
 3766TIP3    H211305   1.556   5.782   0.467
 3767TIP3   OH211306   1.466   0.309   4.780
 3767TIP3    H111307   1.494   0.218   4.777
 3767TIP3    H211308   1.480   0.336   4.871
 3768TIP3   OH211309   5.191   2.021   4.977
 3768TIP3    H111310   5.217   2.095   5.032
 3768TIP3    H211311   5.106   2.047   4.941
 3769TIP3   OH211312   1.586   1.611   0.136
 3769TIP3    H111313   1.507   1.575   0.097
 3769TIP3    H211314   1.656   1.585   0.075
 3770TIP3   OH211315   6.203   3.823   2.205
 3770TIP3    H111316   6.279   3.764   2.213
 3770TIP3    H211317   6.229   3.884   2.136
 3771TIP3   OH211318   3.018   0.941   4.919
 3771TIP3    H111319   3.095   0.947   4.975
 3771TIP3    H211320   2.955   0.889   4.970
 3772TIP3   OH211321   5.478   5.816   1.854
 3772TIP3    H111322   5.573   5.820   1.851
 3772TIP3    H211323   5.452   5.895   1.902
 3773TIP3   OH211324   5.413   2.646   1.542
 3773TIP3    H111325   5.455   2.724   1.579
 3773TIP3    H211326   5.327   2.643   1.585
 3774TIP3   OH211327   0.057   1.515   4.162
 3774TIP3    H111328   0.129   1.572   4.133
 3774TIP3    H211329  -0.018   1.543   4.110
 3775TIP3   OH211330   5.701   5.470   5.106
 3775TIP3    H111331   5.616   5.463   5.150
 3775TIP3    H211332   5.765   5.470   5.177
 3776TIP3   OH211333   3.335   5.312   4.216
 3776TIP3    H111334   3.283   5.250   4.165
 3776TIP3    H211335   3.308   5.398   4.183
 3777TIP3   OH211336   5.910   3.376   0.432
 3777TIP3    H111337   5.870   3.293   0.409
 3777TIP3    H211338   5.870   3.439   0.372
 3778TIP3   OH211339   5.696   5.890   5.018
 3778TIP3    H111340   5.739   5.877   5.103
 3778TIP3    H211341   5.620   5.945   5.038
 3779TIP3   OH211342   0.573   0.168   3.712
 3779TIP3    H111343   0.503   0.139   3.655
 3779TIP3    H211344   0.644   0.193   3.652
 3780TIP3   OH211345   1.066   2.356   3.736
 3780TIP3    H111346   1.041   2.386   3.824
 3780TIP3    H211347   0.993   2.300   3.709
 3781TIP3   OH211348   4.695   2.527   4.399
 3781TIP3    H111349   4.772   2.485   4.438
 3781TIP3    H211350   4.717   2.620   4.396
 3782TIP3   OH211351   1.216   2.825   2.217
 3782TIP3    H111352   1.223   2.916   2.245
 3782TIP3    H211353   1.288   2.781   2.262
 3783TIP3   OH211354   0.852   1.725   0.543
 3783TIP3    H111355   0.924   1.662   0.552
 3783TIP3    H211356   0.789   1.701   0.611
 3784TIP3   OH211357   5.777   0.379   4.315
 3784TIP3    H111358   5.830   0.427   4.252
 3784TIP3    H211359   5.687   0.393   4.287
 3785TIP3   OH211360   1.919   3.902   4.864
 3785TIP3    H111361   1.827   3.879   4.875
 3785TIP3    H211362   1.955   3.833   4.809
 3786TIP3   OH211363   4.515   2.918   1.010
 3786TIP3    H111364   4.565   2.844   1.045
 3786TIP3    H211365   4.508   2.978   1.084
 3787TIP3   OH211366   4.258   5.599   2.406
 3787TIP3    H111367   4.245   5.619   2.314
 3787TIP3    H211368   4.230   5.508   2.416
 3788TIP3   OH211369   1.139   1.931   0.344
 3788TIP3    H111370   1.193   1.934   0.423
 3788TIP3    H211371   1.194   1.886   0.279
 3789TIP3   OH211372   6.320   1.058   0.531
 3789TIP3    H111373   6.293   1.146   0.504
 3789TIP3    H211374   6.358   1.071   0.618
 3790TIP3   OH211375   2.560   5.417   3.232
 3790TIP3    H111376   2.520   5.415   3.319
 3790TIP3    H211377   2.605   5.333   3.224
 3791TIP3   OH211378   4.665   5.108   4.186
 3791TIP3    H111379   4.708   5.130   4.268
 3791TIP3    H211380   4.695   5.019   4.166
 3792TIP3   OH211381   4.488   5.018   0.183
 3792TIP3    H111382   4.480   5.064   0.099
 3792TIP3    H211383   4.398   4.994   0.205
 3793TIP3   OH211384   5.654   1.697   0.205
 3793TIP3    H111385   5.708   1.766   0.245
 3793TIP3    H211386   5.564   1.724   0.222
 3794TIP3   OH211387   1.903   4.523   3.337
 3794TIP3    H111388   1.902   4.603   3.390
 3794TIP3    H211389   1.847   4.543   3.262
 3795TIP3   OH211390   0.558   4.008   4.694
 3795TIP3    H111391   0.631   3.996   4.633
 3795TIP3    H211392   0.561   3.931   4.751
 3796TIP3   OH211393   0.231   2.214   2.636
 3796TIP3    H111394   0.266   2.196   2.549
 3796TIP3    H211395   0.299   2.265   2.680
 3797TIP3   OH211396   5.929   4.275   3.834
 3797TIP3    H111397   5.929   4.295   3.928
 3797TIP3    H211398   5.872   4.198   3.826
 3798TIP3   OH211399   4.156   0.785   4.558
 3798TIP3    H111400   4.217   0.711   4.563
 3798TIP3    H211401   4.211   0.863   4.560
 3799TIP3   OH211402   6.255   5.748   3.785
 3799TIP3    H111403   6.172   5.764   3.741
 3799TIP3    H211404   6.317   5.805   3.739
 3800TIP3   OH211405   0.049   4.231   3.307
 3800TIP3    H111406   0.002   4.265   3.231
 3800TIP3    H211407   0.117   4.174   3.270
 3801TIP3   OH211408   6.136   1.515   0.638
 3801TIP3    H111409   6.205   1.456   0.669
 3801TIP3    H211410   6.062   1.498   0.696
 3802TIP3   OH211411   5.379   2.899   1.919
 3802TIP3    H111412   5.290   2.919   1.889
 3802TIP3    H211413   5.368   2.860   2.005
 3803TIP3   OH211414   3.487   0.931   2.556
 3803TIP3    H111415   3.562   0.896   2.604
 3803TIP3    H211416   3.522   0.955   2.470
 3804TIP3   OH211417   0.071   4.161   3.969
 3804TIP3    H111418   0.021   4.126   4.042
 3804TIP3    H211419   0.149   4.105   3.964
 3805TIP3   OH211420   1.580   4.793   1.649
 3805TIP3    H111421   1.587   4.832   1.737
 3805TIP3    H211422   1.561   4.867   1.591
 3806TIP3   OH211423   0.433   1.837   0.443
 3806TIP3    H111424   0.476   1.827   0.358
 3806TIP3    H211425   0.343   1.862   0.421
 3807TIP3   OH211426   2.783   5.686   1.266
 3807TIP3    H111427   2.858   5.632   1.244
 3807TIP3    H211428   2.797   5.768   1.220
 3808TIP3   OH211429   6.194   5.315   4.392
 3808TIP3    H111430   6.217   5.237   4.443
 3808TIP3    H211431   6.214   5.291   4.301
 3809TIP3   OH211432   2.704   3.863   3.241
 3809TIP3    H111433   2.695   3.934   3.305
 3809TIP3    H211434   2.757   3.798   3.287
 3810TIP3   OH211435   4.942   2.427   4.504
 3810TIP3    H111436   5.013   2.366   4.485
 3810TIP3    H211437   4.954   2.451   4.596
 3811TIP3   OH211438   2.462   2.391   1.257
 3811TIP3    H111439   2.502   2.334   1.192
 3811TIP3    H211440   2.434   2.468   1.207
 3812TIP3   OH211441   3.698   0.539   0.491
 3812TIP3    H111442   3.610   0.535   0.454
 3812TIP3    H211443   3.709   0.631   0.516
 3813TIP3   OH211444   5.255   2.653   0.413
 3813TIP3    H111445   5.310   2.577   0.399
 3813TIP3    H211446   5.279   2.685   0.500
 3814TIP3   OH211447   0.348   1.930   3.061
 3814TIP3    H111448   0.425   1.923   3.004
 3814TIP3    H211449   0.351   1.852   3.116
 3815TIP3   OH211450   4.613   1.225   0.627
 3815TIP3    H111451   4.546   1.282   0.592
 3815TIP3    H211452   4.693   1.251   0.582
 3816TIP3   OH211453   0.705   4.143   4.133
 3816TIP3    H111454   0.793   4.111   4.152
 3816TIP3    H211455   0.709   4.237   4.149
 3817TIP3   OH211456   0.764   2.392   2.264
 3817TIP3    H111457   0.855   2.383   2.294
 3817TIP3    H211458   0.767   2.465   2.202
 3818TIP3   OH211459   5.232   4.299   4.477
 3818TIP3    H111460   5.212   4.249   4.556
 3818TIP3    H211461   5.327   4.295   4.469
 3819TIP3   OH211462   5.411   5.719   3.895
 3819TIP3    H111463   5.364   5.688   3.972
 3819TIP3    H211464   5.408   5.814   3.901
 3820TIP3   OH211465   2.874   1.104   0.936
 3820TIP3    H111466   2.897   1.115   1.028
 3820TIP3    H211467   2.804   1.038   0.937
 3821TIP3   OH211468   0.874   4.009   0.891
 3821TIP3    H111469   0.829   4.088   0.922
 3821TIP3    H211470   0.810   3.938   0.905
 3822TIP3   OH211471   5.875   3.166   0.127
 3822TIP3    H111472   5.831   3.104   0.184
 3822TIP3    H211473   5.967   3.164   0.155
 3823TIP3   OH211474   5.038   0.688   2.524
 3823TIP3    H111475   5.104   0.686   2.592
 3823TIP3    H211476   5.047   0.775   2.484
 3824TIP3   OH211477   0.157   4.539   0.816
 3824TIP3    H111478   0.081   4.580   0.773
 3824TIP3    H211479   0.187   4.473   0.754
 3825TIP3   OH211480   2.843   3.307   2.130
 3825TIP3    H111481   2.771   3.345   2.078
 3825TIP3    H211482   2.906   3.379   2.138
 3826TIP3   OH211483   2.406   4.647   1.759
 3826TIP3    H111484   2.464   4.716   1.727
 3826TIP3    H211485   2.319   4.688   1.763
 3827TIP3   OH211486   1.974   4.128   3.475
 3827TIP3    H111487   1.973   4.153   3.383
 3827TIP3    H211488   2.067   4.120   3.497
 3828TIP3   OH211489   4.000   1.545   0.109
 3828TIP3    H111490   4.028   1.482   0.042
 3828TIP3    H211491   4.045   1.516   0.189
 3829TIP3   OH211492   2.925   2.349   2.033
 3829TIP3    H111493   2.925   2.320   1.942
 3829TIP3    H211494   2.883   2.277   2.081
 3830TIP3   OH211495   3.517   3.004   4.899
 3830TIP3    H111496   3.438   3.035   4.944
 3830TIP3    H211497   3.558   2.944   4.961
 3831TIP3   OH211498   5.131   2.099   3.103
 3831TIP3    H111499   5.199   2.150   3.059
 3831TIP3    H211500   5.073   2.071   3.033
 3832TIP3   OH211501   0.326   0.488   1.563
 3832TIP3    H111502   0.365   0.574   1.545
 3832TIP3    H211503   0.275   0.468   1.485
 3833TIP3   OH211504   1.133   1.760   1.594
 3833TIP3    H111505   1.205   1.728   1.648
 3833TIP3    H211506   1.101   1.682   1.548
 3834TIP3   OH211507   5.668   0.278   0.648
 3834TIP3    H111508   5.583   0.283   0.605
 3834TIP3    H211509   5.656   0.218   0.721
 3835TIP3   OH211510   2.188   0.324   3.256
 3835TIP3    H111511   2.178   0.260   3.185
 3835TIP3    H211512   2.280   0.350   3.251
 3836TIP3   OH211513   6.175   1.091   2.217
 3836TIP3    H111514   6.111   1.161   2.226
 3836TIP3    H211515   6.201   1.095   2.125
 3837TIP3   OH211516   5.603   1.202   2.562
 3837TIP3    H111517   5.681   1.256   2.577
 3837TIP3    H211518   5.536   1.241   2.618
 3838TIP3   OH211519   4.252   3.872   0.659
 3838TIP3    H111520   4.217   3.843   0.574
 3838TIP3    H211521   4.320   3.935   0.636
 3839TIP3   OH211522   5.385   0.568   0.043
 3839TIP3    H111523   5.304   0.592  -0.001
 3839TIP3    H211524   5.454   0.592  -0.019
 3840TIP3   OH211525   3.461   1.351   4.876
 3840TIP3    H111526   3.528   1.357   4.944
 3840TIP3    H211527   3.378   1.341   4.924
 3841TIP3   OH211528   5.559   4.746   2.022
 3841TIP3    H111529   5.644   4.786   2.043
 3841TIP3    H211530   5.581   4.671   1.967
 3842TIP3   OH211531   5.337   3.611   4.566
 3842TIP3    H111532   5.251   3.644   4.543
 3842TIP3    H211533   5.347   3.631   4.659
 3843TIP3   OH211534   3.700   0.210   2.048
 3843TIP3    H111535   3.788   0.220   2.086
 3843TIP3    H211536   3.710   0.143   1.981
 3844TIP3   OH211537   3.257   0.344   2.912
 3844TIP3    H111538   3.304   0.271   2.952
 3844TIP3    H211539   3.293   0.422   2.954
 3845TIP3   OH211540   0.663   0.202   1.930
 3845TIP3    H111541   0.575   0.238   1.922
 3845TIP3    H211542   0.673   0.148   1.852
 3846TIP3   OH211543   1.634   5.787   2.217
 3846TIP3    H111544   1.711   5.834   2.250
 3846TIP3    H211545   1.564   5.808   2.279
 3847TIP3   OH211546   4.873   0.340   3.063
 3847TIP3    H111547   4.798   0.400   3.062
 3847TIP3    H211548   4.948   0.396   3.081
 3848TIP3   OH211549   5.924   4.261   5.008
 3848TIP3    H111550   5.846   4.289   4.962
 3848TIP3    H211551   5.962   4.193   4.953
 3849TIP3   OH211552   3.055   1.018   1.526
 3849TIP3    H111553   2.987   0.966   1.484
 3849TIP3    H211554   3.032   1.016   1.619
 3850TIP3   OH211555   2.342   3.301   2.535
 3850TIP3    H111556   2.353   3.209   2.559
 3850TIP3    H211557   2.431   3.330   2.514
 3851TIP3   OH211558   5.987   3.243   0.982
 3851TIP3    H111559   5.988   3.238   0.886
 3851TIP3    H211560   5.916   3.303   1.003
 3852TIP3   OH211561   0.496   3.370   0.552
 3852TIP3    H111562   0.488   3.441   0.615
 3852TIP3    H211563   0.493   3.412   0.466
 3853TIP3   OH211564   0.680   1.121   1.640
 3853TIP3    H111565   0.735   1.184   1.688
 3853TIP3    H211566   0.742   1.066   1.593
 3854TIP3   OH211567   1.403   1.396   3.214
 3854TIP3    H111568   1.353   1.332   3.163
 3854TIP3    H211569   1.361   1.395   3.301
 3855TIP3   OH211570   0.643   5.330   4.223
 3855TIP3    H111571   0.704   5.387   4.177
 3855TIP3    H211572   0.680   5.323   4.312
 3856TIP3   OH211573   3.489   2.878   2.292
 3856TIP3    H111574   3.414   2.820   2.302
 3856TIP3    H211575   3.464   2.957   2.340
 3857TIP3   OH211576   3.302   1.150   4.771
 3857TIP3    H111577   3.245   1.166   4.845
 3857TIP3    H211578   3.365   1.223   4.772
 3858TIP3   OH211579   4.879   1.322   5.008
 3858TIP3    H111580   4.932   1.274   5.071
 3858TIP3    H211581   4.928   1.403   4.993
 3859TIP3   OH211582   5.617   0.609   1.162
 3859TIP3    H111583   5.553   0.665   1.205
 3859TIP3    H211584   5.591   0.520   1.186
 3860TIP3   OH211585   3.454   2.464   1.260
 3860TIP3    H111586   3.458   2.377   1.301
 3860TIP3    H211587   3.518   2.516   1.309
 3861TIP3   OH211588   2.822   4.434   3.294
 3861TIP3    H111589   2.828   4.517   3.246
 3861TIP3    H211590   2.804   4.460   3.384
 3862TIP3   OH211591   0.421   1.690   2.410
 3862TIP3    H111592   0.460   1.611   2.372
 3862TIP3    H211593   0.492   1.730   2.460
 3863TIP3   OH211594   4.822   0.534   2.601
 3863TIP3    H111595   4.894   0.587   2.565
 3863TIP3    H211596   4.820   0.558   2.694
 3864TIP3   OH211597   2.721   2.701   4.024
 3864TIP3    H111598   2.783   2.678   4.093
 3864TIP3    H211599   2.645   2.737   4.071
 3865TIP3   OH211600   1.797   0.346   1.032
 3865TIP3    H111601   1.759   0.265   1.000
 3865TIP3    H211602   1.814   0.398   0.954
 3866TIP3   OH211603   0.379   5.967   1.987
 3866TIP3    H111604   0.407   5.942   2.075
 3866TIP3    H211605   0.449   5.937   1.930
 3867TIP3   OH211606   1.400   4.506   0.655
 3867TIP3    H111607   1.362   4.564   0.589
 3867TIP3    H211608   1.494   4.518   0.647
 3868TIP3   OH211609   2.181   1.428   3.144
 3868TIP3    H111610   2.117   1.499   3.135
 3868TIP3    H211611   2.149   1.376   3.218
 3869TIP3   OH211612   4.861   1.964   0.758
 3869TIP3    H111613   4.928   1.950   0.692
 3869TIP3    H211614   4.791   1.902   0.735
 3870TIP3   OH211615   5.689   0.821   0.214
 3870TIP3    H111616   5.773   0.860   0.240
 3870TIP3    H211617   5.710   0.773   0.133
 3871TIP3   OH211618   2.178   2.364   4.213
 3871TIP3    H111619   2.209   2.314   4.137
 3871TIP3    H211620   2.257   2.399   4.253
 3872TIP3   OH211621   1.440   3.291   1.071
 3872TIP3    H111622   1.353   3.314   1.041
 3872TIP3    H211623   1.476   3.372   1.107
 3873TIP3   OH211624   0.817   1.975   2.292
 3873TIP3    H111625   0.771   2.040   2.239
 3873TIP3    H211626   0.793   1.891   2.253
 3874TIP3   OH211627   1.958   1.087   3.198
 3874TIP3    H111628   1.954   1.022   3.128
 3874TIP3    H211629   1.996   1.041   3.272
 3875TIP3   OH211630   1.470   3.944   1.447
 3875TIP3    H111631   1.474   3.856   1.483
 3875TIP3    H211632   1.407   3.938   1.375
 3876TIP3   OH211633   0.699   3.514   2.572
 3876TIP3    H111634   0.773   3.519   2.512
 3876TIP3    H211635   0.694   3.601   2.611
 3877TIP3   OH211636   3.685   4.804   3.386
 3877TIP3    H111637   3.599   4.847   3.393
 3877TIP3    H211638   3.723   4.841   3.307
 3878TIP3   OH211639   5.385   2.927   2.226
 3878TIP3    H111640   5.323   2.910   2.297
 3878TIP3    H211641   5.443   2.851   2.226
 3879TIP3   OH211642   4.121   4.360   3.004
 3879TIP3    H111643   4.104   4.454   3.009
 3879TIP3    H211644   4.197   4.352   2.947
 3880TIP3   OH211645   3.144   2.358   1.584
 3880TIP3    H111646   3.107   2.441   1.555
 3880TIP3    H211647   3.196   2.381   1.662
 3881TIP3   OH211648   0.441   0.619   0.541
 3881TIP3    H111649   0.351   0.595   0.563
 3881TIP3    H211650   0.442   0.715   0.548
 3882TIP3   OH211651   3.250   4.241   0.845
 3882TIP3    H111652   3.166   4.194   0.850
 3882TIP3    H211653   3.225   4.332   0.829
 3883TIP3   OH211654   6.327   5.700   0.936
 3883TIP3    H111655   6.250   5.738   0.979
 3883TIP3    H211656   6.376   5.659   1.007
 3884TIP3   OH211657   5.918   5.193   2.765
 3884TIP3    H111658   5.829   5.226   2.776
 3884TIP3    H211659   5.968   5.236   2.835
 3885TIP3   OH211660   4.993   1.989   3.804
 3885TIP3    H111661   4.972   1.922   3.739
 3885TIP3    H211662   4.966   1.950   3.887
 3886TIP3   OH211663   1.486   3.358   2.923
 3886TIP3    H111664   1.453   3.412   2.995
 3886TIP3    H211665   1.577   3.342   2.945
 3887TIP3   OH211666   3.224   1.423   4.443
 3887TIP3    H111667   3.298   1.476   4.473
 3887TIP3    H211668   3.260   1.334   4.436
 3888TIP3   OH211669   3.787   1.755   1.328
 3888TIP3    H111670   3.714   1.754   1.391
 3888TIP3    H211671   3.858   1.710   1.373
 3889TIP3   OH211672   5.180   3.316   1.622
 3889TIP3    H111673   5.112   3.370   1.662
 3889TIP3    H211674   5.211   3.260   1.693
 3890TIP3   OH211675   0.138   1.726   0.548
 3890TIP3    H111676   0.096   1.771   0.474
 3890TIP3    H211677   0.173   1.645   0.511
 3891TIP3   OH211678   2.432   0.487   2.006
 3891TIP3    H111679   2.430   0.405   2.055
 3891TIP3    H211680   2.379   0.471   1.928
 3892TIP3   OH211681   5.302   2.591   2.793
 3892TIP3    H111682   5.315   2.566   2.885
 3892TIP3    H211683   5.388   2.622   2.765
 3893TIP3   OH211684   4.850   3.070   2.514
 3893TIP3    H111685   4.782   3.012   2.547
 3893TIP3    H211686   4.918   3.068   2.580
 3894TIP3   OH211687   2.196   3.214   4.729
 3894TIP3    H111688   2.220   3.137   4.677
 3894TIP3    H211689   2.238   3.200   4.813
 3895TIP3   OH211690   0.184   2.643   1.955
 3895TIP3    H111691   0.099   2.636   1.913
 3895TIP3    H211692   0.218   2.728   1.927
 3896TIP3   OH211693   4.322   3.748   2.961
 3896TIP3    H111694   4.266   3.822   2.982
 3896TIP3    H211695   4.405   3.788   2.934
 3897TIP3   OH211696   4.404   4.504   4.636
 3897TIP3    H111697   4.397   4.419   4.680
 3897TIP3    H211698   4.339   4.500   4.565
 3898TIP3   OH211699   1.426   5.804   3.928
 3898TIP3    H111700   1.338   5.769   3.912
 3898TIP3    H211701   1.412   5.898   3.942
 3899TIP3   OH211702   1.016   5.226   4.937
 3899TIP3    H111703   1.080   5.160   4.911
 3899TIP3    H211704   0.984   5.196   5.022
 3900TIP3   OH211705   0.161   2.857   1.755
 3900TIP3    H111706   0.213   2.797   1.701
 3900TIP3    H211707   0.224   2.923   1.784
 3901TIP3   OH211708   3.238   2.824   0.241
 3901TIP3    H111709   3.265   2.908   0.205
 3901TIP3    H211710   3.291   2.759   0.195
 3902TIP3   OH211711   0.206   4.520   3.067
 3902TIP3    H111712   0.218   4.477   3.152
 3902TIP3    H211713   0.116   4.554   3.071
 3903TIP3   OH211714   0.031   2.429   1.571
 3903TIP3    H111715   0.101   2.421   1.506
 3903TIP3    H211716  -0.050   2.434   1.519
 3904TIP3   OH211717   1.925   1.209   0.207
 3904TIP3    H111718   1.906   1.116   0.220
 3904TIP3    H211719   2.010   1.211   0.165
 3905TIP3   OH211720   2.251   4.108   0.280
 3905TIP3    H111721   2.269   4.018   0.252
 3905TIP3    H211722   2.155   4.113   0.283
 3906TIP3   OH211723   4.966   0.823   2.245
 3906TIP3    H111724   4.957   0.731   2.268
 3906TIP3    H211725   4.959   0.825   2.149
 3907TIP3   OH211726   5.944   2.849   1.623
 3907TIP3    H111727   5.921   2.761   1.652
 3907TIP3    H211728   5.904   2.907   1.688
 3908TIP3   OH211729   5.604   4.834   3.373
 3908TIP3    H111730   5.664   4.773   3.414
 3908TIP3    H211731   5.571   4.787   3.296
 3909TIP3   OH211732   3.520   1.394   1.563
 3909TIP3    H111733   3.458   1.328   1.597
 3909TIP3    H211734   3.521   1.462   1.630
 3910TIP3   OH211735   3.583   1.318   4.314
 3910TIP3    H111736   3.570   1.381   4.243
 3910TIP3    H211737   3.495   1.285   4.333
 3911TIP3   OH211738   1.833   0.349   1.780
 3911TIP3    H111739   1.910   0.393   1.743
 3911TIP3    H211740   1.821   0.391   1.865
 3912TIP3   OH211741   1.943   5.746   4.370
 3912TIP3    H111742   1.931   5.652   4.354
 3912TIP3    H211743   1.894   5.789   4.299
 3913TIP3   OH211744   3.015   0.826   1.066
 3913TIP3    H111745   3.074   0.902   1.058
 3913TIP3    H211746   2.931   0.858   1.033
 3914TIP3   OH211747   4.783   0.297   2.402
 3914TIP3    H111748   4.836   0.231   2.446
 3914TIP3    H211749   4.809   0.380   2.442
 3915TIP3   OH211750   0.989   5.676   2.506
 3915TIP3    H111751   1.064   5.735   2.509
 3915TIP3    H211752   0.966   5.661   2.598
 3916TIP3   OH211753   4.076   2.661   0.967
 3916TIP3    H111754   4.135   2.675   1.042
 3916TIP3    H211755   4.083   2.568   0.948
 3917TIP3   OH211756   0.452   3.429   2.120
 3917TIP3    H111757   0.484   3.386   2.199
 3917TIP3    H211758   0.361   3.402   2.112
 3918TIP3   OH211759   0.851   5.738   0.477
 3918TIP3    H111760   0.917   5.773   0.417
 3918TIP3    H211761   0.837   5.809   0.540
 3919TIP3   OH211762   1.865   3.670   3.237
 3919TIP3    H111763   1.924   3.689   3.164
 3919TIP3    H211764   1.924   3.657   3.312
 3920TIP3   OH211765   3.024   5.845   2.327
 3920TIP3    H111766   3.022   5.819   2.419
 3920TIP3    H211767   2.934   5.872   2.308
 3921TIP3   OH211768   3.445   2.119   0.946
 3921TIP3    H111769   3.496   2.128   1.026
 3921TIP3    H211770   3.462   2.199   0.897
 3922TIP3   OH211771   3.730   0.761   2.104
 3922TIP3    H111772   3.659   0.706   2.071
 3922TIP3    H211773   3.793   0.764   2.032
 3923TIP3   OH211774   2.661   0.039   1.437
 3923TIP3    H111775   2.641   0.124   1.398
 3923TIP3    H211776   2.603   0.034   1.513
 3924TIP3   OH211777   4.903   5.230   3.151
 3924TIP3    H111778   4.938   5.267   3.070
 3924TIP3    H211779   4.813   5.205   3.129
 3925TIP3   OH211780   3.323   2.202   3.334
 3925TIP3    H111781   3.314   2.277   3.392
 3925TIP3    H211782   3.336   2.127   3.393
 3926TIP3   OH211783   5.808   2.339  -0.006
 3926TIP3    H111784   5.868   2.363   0.064
 3926TIP3    H211785   5.723   2.331   0.037
 3927TIP3   OH211786   5.614   3.417   2.224
 3927TIP3    H111787   5.625   3.492   2.165
 3927TIP3    H211788   5.593   3.344   2.165
 3928TIP3   OH211789   2.639   0.181   4.747
 3928TIP3    H111790   2.651   0.113   4.813
 3928TIP3    H211791   2.689   0.255   4.781
 3929TIP3   OH211792   0.189   0.570   0.595
 3929TIP3    H111793   0.143   0.509   0.536
 3929TIP3    H211794   0.127   0.642   0.608
 3930TIP3   OH211795   3.298   4.381   0.085
 3930TIP3    H111796   3.377   4.425   0.115
 3930TIP3    H211797   3.308   4.290   0.115
 3931TIP3   OH211798   3.424   1.209   1.302
 3931TIP3    H111799   3.505   1.190   1.254
 3931TIP3    H211800   3.402   1.299   1.276
 3932TIP3   OH211801   4.062   5.936   3.256
 3932TIP3    H111802   4.064   5.940   3.161
 3932TIP3    H211803   3.974   5.966   3.280
 3933TIP3   OH211804   2.289   3.285   0.730
 3933TIP3    H111805   2.258   3.371   0.760
 3933TIP3    H211806   2.264   3.281   0.638
 3934TIP3   OH211807   0.989   2.702   2.295
 3934TIP3    H111808   1.060   2.740   2.244
 3934TIP3    H211809   1.028   2.626   2.338
 3935TIP3   OH211810   1.308   2.047   0.557
 3935TIP3    H111811   1.328   2.126   0.507
 3935TIP3    H211812   1.394   2.013   0.582
 3936TIP3   OH211813   6.174   1.344   2.499
 3936TIP3    H111814   6.266   1.318   2.505
 3936TIP3    H211815   6.159   1.357   2.406
 3937TIP3   OH211816   4.803   0.523   3.522
 3937TIP3    H111817   4.891   0.559   3.511
 3937TIP3    H211818   4.814   0.454   3.587
 3938TIP3   OH211819   4.269   3.938   4.123
 3938TIP3    H111820   4.363   3.921   4.125
 3938TIP3    H211821   4.255   3.993   4.046
 3939TIP3   OH211822   0.043   1.269   3.788
 3939TIP3    H111823  -0.012   1.257   3.866
 3939TIP3    H211824   0.049   1.364   3.777
 3940TIP3   OH211825   4.697   0.641   4.821
 3940TIP3    H111826   4.689   0.692   4.741
 3940TIP3    H211827   4.628   0.673   4.878
 3941TIP3   OH211828   6.136   3.270   1.416
 3941TIP3    H111829   6.083   3.203   1.374
 3941TIP3    H211830   6.112   3.351   1.371
 3942TIP3   OH211831   2.636   3.634   1.941
 3942TIP3    H111832   2.705   3.643   1.876
 3942TIP3    H211833   2.646   3.711   1.998
 3943TIP3   OH211834   4.694   1.738   1.983
 3943TIP3    H111835   4.704   1.776   1.895
 3943TIP3    H211836   4.660   1.810   2.036
 3944TIP3   OH211837   2.629   0.122   3.570
 3944TIP3    H111838   2.637   0.216   3.583
 3944TIP3    H211839   2.656   0.108   3.480
 3945TIP3   OH211840   0.140   0.881   4.149
 3945TIP3    H111841   0.212   0.944   4.153
 3945TIP3    H211842   0.181   0.799   4.122
 3946TIP3   OH211843   5.331   0.397   3.514
 3946TIP3    H111844   5.418   0.396   3.554
 3946TIP3    H211845   5.272   0.421   3.586
 3947TIP3   OH211846   3.854   4.980   0.364
 3947TIP3    H111847   3.763   5.000   0.385
 3947TIP3    H211848   3.853   4.952   0.273
 3948TIP3   OH211849   0.732   3.172   2.927
 3948TIP3    H111850   0.647   3.182   2.969
 3948TIP3    H211851   0.795   3.206   2.990
 3949TIP3   OH211852   0.680   5.605   0.948
 3949TIP3    H111853   0.615   5.535   0.958
 3949TIP3    H211854   0.760   5.571   0.987
 3950TIP3   OH211855   6.292   4.467   5.100
 3950TIP3    H111856   6.340   4.418   5.168
 3950TIP3    H211857   6.354   4.535   5.072
 3951TIP3   OH211858   2.268   4.507   4.131
 3951TIP3    H111859   2.175   4.526   4.142
 3951TIP3    H211860   2.282   4.424   4.177
 3952TIP3   OH211861   0.294   2.757   4.777
 3952TIP3    H111862   0.250   2.700   4.714
 3952TIP3    H211863   0.234   2.831   4.788
 3953TIP3   OH211864   2.188   1.732   5.103
 3953TIP3    H111865   2.211   1.818   5.069
 3953TIP3    H211866   2.260   1.709   5.162
 3954TIP3   OH211867   0.792   0.740   3.532
 3954TIP3    H111868   0.812   0.829   3.504
 3954TIP3    H211869   0.698   0.741   3.549
 3955TIP3   OH211870   3.149   5.777   3.201
 3955TIP3    H111871   3.214   5.842   3.228
 3955TIP3    H211872   3.065   5.814   3.229
 3956TIP3   OH211873   5.945   4.052   4.839
 3956TIP3    H111874   5.872   3.991   4.838
 3956TIP3    H211875   5.988   4.041   4.754
 3957TIP3   OH211876   2.212   5.624   2.482
 3957TIP3    H111877   2.281   5.564   2.510
 3957TIP3    H211878   2.256   5.707   2.466
 3958TIP3   OH211879   2.391   2.006   1.167
 3958TIP3    H111880   2.380   2.099   1.147
 3958TIP3    H211881   2.339   1.992   1.246
 3959TIP3   OH211882   3.097   1.686   3.327
 3959TIP3    H111883   3.157   1.664   3.256
 3959TIP3    H211884   3.010   1.679   3.287
 3960TIP3   OH211885   2.736   0.704   0.267
 3960TIP3    H111886   2.815   0.712   0.213
 3960TIP3    H211887   2.715   0.611   0.265
 3961TIP3   OH211888   2.427   5.030   1.481
 3961TIP3    H111889   2.427   5.078   1.398
 3961TIP3    H211890   2.419   4.938   1.455
 3962TIP3   OH211891   3.828   2.107   0.675
 3962TIP3    H111892   3.830   2.016   0.644
 3962TIP3    H211893   3.858   2.158   0.599
 3963TIP3   OH211894   0.348   1.124   4.526
 3963TIP3    H111895   0.334   1.030   4.516
 3963TIP3    H211896   0.442   1.134   4.542
 3964TIP3   OH211897   3.807   4.114   2.041
 3964TIP3    H111898   3.847   4.084   2.122
 3964TIP3    H211899   3.715   4.128   2.063
 3965TIP3   OH211900   6.059   3.068   1.240
 3965TIP3    H111901   5.972   3.046   1.274
 3965TIP3    H211902   6.042   3.102   1.152
 3966TIP3   OH211903   5.667   2.615   3.720
 3966TIP3    H111904   5.652   2.602   3.626
 3966TIP3    H211905   5.724   2.692   3.725
 3967TIP3   OH211906   3.660   2.814   3.368
 3967TIP3    H111907   3.716   2.867   3.425
 3967TIP3    H211908   3.580   2.867   3.357
 3968TIP3   OH211909   0.069   5.189   4.841
 3968TIP3    H111910   0.068   5.243   4.919
 3968TIP3    H211911   0.037   5.246   4.771
 3969TIP3   OH211912   5.594   3.845   3.807
 3969TIP3    H111913   5.509   3.801   3.804
 3969TIP3    H211914   5.654   3.784   3.765
 3970TIP3   OH211915   1.585   3.961   3.259
 3970TIP3    H111916   1.670   3.959   3.215
 3970TIP3    H211917   1.562   3.869   3.273
 3971TIP3   OH211918   4.750   0.145   0.545
 3971TIP3    H111919   4.675   0.204   0.537
 3971TIP3    H211920   4.753   0.097   0.462
 3972TIP3   OH211921   2.119   5.942   4.255
 3972TIP3    H111922   2.084   5.876   4.315
 3972TIP3    H211923   2.200   5.972   4.296
 3973TIP3   OH211924   3.916   0.937   2.447
 3973TIP3    H111925   3.993   0.896   2.486
 3973TIP3    H211926   3.878   0.988   2.519
 3974TIP3   OH211927   2.773   5.853   4.102
 3974TIP3    H111928   2.808   5.937   4.133
 3974TIP3    H211929   2.712   5.826   4.170
 3975TIP3   OH211930   3.403   4.627   4.510
 3975TIP3    H111931   3.314   4.627   4.546
 3975TIP3    H211932   3.457   4.587   4.578
 3976TIP3   OH211933   1.520   2.418   3.143
 3976TIP3    H111934   1.601   2.369   3.135
 3976TIP3    H211935   1.507   2.426   3.238
 3977TIP3   OH211936   1.543   1.954   0.271
 3977TIP3    H111937   1.474   1.897   0.238
 3977TIP3    H211938   1.530   1.956   0.366
 3978TIP3   OH211939   0.067   4.988   0.073
 3978TIP3    H111940   0.068   5.016   0.164
 3978TIP3    H211941   0.014   4.908   0.073
 3979TIP3   OH211942   3.632   2.073   1.906
 3979TIP3    H111943   3.578   2.021   1.965
 3979TIP3    H211944   3.692   2.121   1.963
 3980TIP3   OH211945   3.006   4.037   3.212
 3980TIP3    H111946   2.920   4.050   3.253
 3980TIP3    H211947   3.068   4.051   3.283
 3981TIP3   OH211948   1.304   3.717   4.801
 3981TIP3    H111949   1.397   3.738   4.796
 3981TIP3    H211950   1.295   3.666   4.882
 3982TIP3   OH211951   4.183   3.267   4.165
 3982TIP3    H111952   4.124   3.325   4.115
 3982TIP3    H211953   4.247   3.237   4.100
 3983TIP3   OH211954   3.006   5.929   2.864
 3983TIP3    H111955   2.947   5.962   2.932
 3983TIP3    H211956   3.059   6.005   2.840
 3984TIP3   OH211957   0.181   4.712   5.059
 3984TIP3    H111958   0.226   4.628   5.053
 3984TIP3    H211959   0.153   4.731   4.970
 3985TIP3   OH211960   3.288   5.554   2.599
 3985TIP3    H111961   3.378   5.530   2.576
 3985TIP3    H211962   3.267   5.627   2.541
 3986TIP3   OH211963   3.287   0.560   3.769
 3986TIP3    H111964   3.364   0.554   3.827
 3986TIP3    H211965   3.249   0.645   3.790
 3987TIP3   OH211966   1.518   4.455   3.938
 3987TIP3    H111967   1.430   4.418   3.928
 3987TIP3    H211968   1.538   4.445   4.031
 3988TIP3   OH211969   3.583   0.856   1.010
 3988TIP3    H111970   3.598   0.805   0.931
 3988TIP3    H211971   3.607   0.796   1.082
 3989TIP3   OH211972   5.203   0.899   1.538
 3989TIP3    H111973   5.293   0.880   1.564
 3989TIP3    H211974   5.208   0.906   1.442
 3990TIP3   OH211975   4.836   2.564   1.619
 3990TIP3    H111976   4.824   2.659   1.612
 3990TIP3    H211977   4.789   2.528   1.544
 3991TIP3   OH211978   5.247   1.506   0.674
 3991TIP3    H111979   5.185   1.433   0.679
 3991TIP3    H211980   5.322   1.470   0.627
 3992TIP3   OH211981   0.337   5.716   3.393
 3992TIP3    H111982   0.276   5.744   3.325
 3992TIP3    H211983   0.402   5.664   3.347
 3993TIP3   OH211984   0.931   4.590   3.729
 3993TIP3    H111985   0.943   4.561   3.638
 3993TIP3    H211986   1.004   4.651   3.744
 3994TIP3   OH211987   5.786   5.203   1.360
 3994TIP3    H111988   5.711   5.177   1.308
 3994TIP3    H211989   5.771   5.296   1.380
 3995TIP3   OH211990   2.245   2.760   0.470
 3995TIP3    H111991   2.166   2.731   0.515
 3995TIP3    H211992   2.255   2.851   0.496
 3996TIP3   OH211993   3.499   2.449   5.116
 3996TIP3    H111994   3.489   2.370   5.169
 3996TIP3    H211995   3.427   2.445   5.053
 3997TIP3   OH211996   0.089   3.371   3.029
 3997TIP3    H111997   0.068   3.326   2.948
 3997TIP3    H211998   0.020   3.437   3.039
 3998TIP3   OH211999   3.471   4.971   4.889
 3998TIP3    H112000   3.423   4.964   4.806
 3998TIP3    H212001   3.552   4.922   4.873
 3999TIP3   OH212002   4.108   0.463   3.806
 3999TIP3    H112003   4.092   0.443   3.898
 3999TIP3    H212004   4.101   0.379   3.761
 4000TIP3   OH212005   5.051   4.231   0.921
 4000TIP3    H112006   5.127   4.185   0.958
 4000TIP3    H212007   4.999   4.255   0.998
 4001TIP3   OH212008   0.157   3.294   4.800
 4001TIP3    H112009   0.188   3.294   4.891
 4001TIP3    H212010   0.066   3.321   4.806
 4002TIP3   OH212011   3.028   1.461   3.103
 4002TIP3    H112012   2.995   1.550   3.086
 4002TIP3    H212013   2.983   1.406   3.039
 4003TIP3   OH212014   2.745   0.883   3.527
 4003TIP3    H112015   2.765   0.917   3.440
 4003TIP3    H212016   2.730   0.961   3.580
 4004TIP3   OH212017   2.413   0.661   0.476
 4004TIP3    H112018   2.428   0.568   0.460
 4004TIP3    H212019   2.399   0.667   0.570
 4005TIP3   OH212020   4.785   5.485   1.335
 4005TIP3    H112021   4.753   5.532   1.258
 4005TIP3    H212022   4.776   5.392   1.311
 4006TIP3   OH212023   4.152   4.081   0.151
 4006TIP3    H112024   4.114   4.047   0.232
 4006TIP3    H212025   4.188   4.167   0.175
 4007TIP3   OH212026   4.079   1.354   5.080
 4007TIP3    H112027   4.059   1.275   5.131
 4007TIP3    H212028   4.064   1.426   5.142
 4008TIP3   OH212029   0.498   1.709   2.754
 4008TIP3    H112030   0.536   1.758   2.826
 4008TIP3    H212031   0.550   1.734   2.677
 4009TIP3   OH212032   6.283   5.335   5.067
 4009TIP3    H112033   6.264   5.250   5.105
 4009TIP3    H212034   6.340   5.378   5.130
 4010TIP3   OH212035   1.618   2.542   1.484
 4010TIP3    H112036   1.589   2.484   1.554
 4010TIP3    H212037   1.706   2.510   1.461
 4011TIP3   OH212038   5.599   3.885   4.467
 4011TIP3    H112039   5.640   3.948   4.526
 4011TIP3    H212040   5.631   3.800   4.497
 4012TIP3   OH212041   5.756   2.053   1.084
 4012TIP3    H112042   5.791   1.969   1.114
 4012TIP3    H212043   5.696   2.030   1.013
 4013TIP3   OH212044   6.328   2.597   1.194
 4013TIP3    H112045   6.268   2.538   1.239
 4013TIP3    H212046   6.284   2.682   1.195
 4014TIP3   OH212047   0.153   0.258   2.053
 4014TIP3    H112048   0.143   0.166   2.028
 4014TIP3    H212049   0.247   0.275   2.043
 4015TIP3   OH212050   5.608   4.992   1.632
 4015TIP3    H112051   5.558   4.916   1.603
 4015TIP3    H212052   5.543   5.049   1.672
 4016TIP3   OH212053   2.480   2.922   1.201
 4016TIP3    H112054   2.540   2.848   1.196
 4016TIP3    H212055   2.405   2.890   1.250
 4017TIP3   OH212056   1.598   3.667   3.286
 4017TIP3    H112057   1.688   3.683   3.255
 4017TIP3    H212058   1.605   3.669   3.381
 4018TIP3   OH212059   4.877   1.290   4.608
 4018TIP3    H112060   4.797   1.328   4.644
 4018TIP3    H212061   4.911   1.235   4.678
 4019TIP3   OH212062   4.288   2.093   2.257
 4019TIP3    H112063   4.345   2.083   2.181
 4019TIP3    H212064   4.259   2.185   2.253
 4020TIP3   OH212065   0.489   0.951   4.289
 4020TIP3    H112066   0.468   0.895   4.364
 4020TIP3    H212067   0.562   1.004   4.319
 4021TIP3   OH212068   4.386   1.650   3.298
 4021TIP3    H112069   4.295   1.634   3.273
 4021TIP3    H212070   4.407   1.735   3.258
 4022TIP3   OH212071   0.998   4.494   2.949
 4022TIP3    H112072   0.933   4.541   2.896
 4022TIP3    H212073   1.075   4.550   2.948
 4023TIP3   OH212074   5.295   5.041   4.245
 4023TIP3    H112075   5.376   5.058   4.293
 4023TIP3    H212076   5.320   5.046   4.153
 4024TIP3   OH212077   0.146   0.701   3.597
 4024TIP3    H112078   0.209   0.703   3.526
 4024TIP3    H212079   0.103   0.616   3.589
 4025TIP3   OH212080   6.253   4.735   1.736
 4025TIP3    H112081   6.214   4.777   1.658
 4025TIP3    H212082   6.188   4.670   1.762
 4026TIP3   OH212083   6.068   5.287   2.336
 4026TIP3    H112084   6.161   5.271   2.353
 4026TIP3    H212085   6.042   5.216   2.277
 4027TIP3   OH212086   1.050   1.873   1.878
 4027TIP3    H112087   1.105   1.950   1.865
 4027TIP3    H212088   1.109   1.806   1.912
 4028TIP3   OH212089   2.064   2.122   0.527
 4028TIP3    H112090   2.150   2.095   0.560
 4028TIP3    H212091   2.047   2.206   0.571
 4029TIP3   OH212092   5.379   2.314   2.263
 4029TIP3    H112093   5.354   2.225   2.285
 4029TIP3    H212094   5.450   2.335   2.324
 4030TIP3   OH212095   4.144   3.089   0.114
 4030TIP3    H112096   4.072   3.042   0.155
 4030TIP3    H212097   4.222   3.062   0.163
 4031TIP3   OH212098   0.833   0.626   2.357
 4031TIP3    H112099   0.861   0.588   2.274
 4031TIP3    H212100   0.830   0.552   2.418
 4032TIP3   OH212101   3.854   1.229   3.628
 4032TIP3    H112102   3.924   1.163   3.622
 4032TIP3    H212103   3.844   1.244   3.722
 4033TIP3   OH212104   2.222   0.330   4.980
 4033TIP3    H112105   2.289   0.397   4.963
 4033TIP3    H212106   2.223   0.319   5.075
 4034TIP3   OH212107   3.051   2.620   1.612
 4034TIP3    H112108   3.065   2.656   1.699
 4034TIP3    H212109   3.065   2.694   1.553
 4035TIP3   OH212110   4.644   0.809   0.188
 4035TIP3    H112111   4.685   0.848   0.264
 4035TIP3    H212112   4.687   0.850   0.113
 4036TIP3   OH212113   3.532   4.303   2.365
 4036TIP3    H112114   3.457   4.362   2.378
 4036TIP3    H212115   3.545   4.261   2.450
 4037TIP3   OH212116   0.897   4.602   4.475
 4037TIP3    H112117   0.902   4.633   4.565
 4037TIP3    H212118   0.977   4.550   4.463
 4038TIP3   OH212119   5.442   1.397   0.513
 4038TIP3    H112120   5.453   1.356   0.428
 4038TIP3    H212121   5.481   1.484   0.503
 4039TIP3   OH212122   4.752   2.386   1.378
 4039TIP3    H112123   4.829   2.434   1.348
 4039TIP3    H212124   4.678   2.431   1.337
 4040TIP3   OH212125   5.848   0.275   3.296
 4040TIP3    H112126   5.879   0.355   3.337
 4040TIP3    H212127   5.924   0.239   3.251
 4041TIP3   OH212128   2.107   4.787   0.233
 4041TIP3    H112129   2.147   4.821   0.154
 4041TIP3    H212130   2.034   4.847   0.251
 4042TIP3   OH212131   0.560   1.681   0.223
 4042TIP3    H112132   0.641   1.672   0.172
 4042TIP3    H212133   0.565   1.610   0.287
 4043TIP3   OH212134   2.991   1.350   3.341
 4043TIP3    H112135   3.026   1.379   3.257
 4043TIP3    H212136   3.000   1.426   3.398
 4044TIP3   OH212137   3.826   2.526   3.861
 4044TIP3    H112138   3.807   2.492   3.948
 4044TIP3    H212139   3.741   2.531   3.817
 4045TIP3   OH212140   5.161   4.346   1.552
 4045TIP3    H112141   5.232   4.282   1.565
 4045TIP3    H212142   5.150   4.387   1.637
 4046TIP3   OH212143   2.804   0.322   3.185
 4046TIP3    H112144   2.899   0.318   3.196
 4046TIP3    H212145   2.791   0.389   3.118
 4047TIP3   OH212146   2.186   0.437   1.398
 4047TIP3    H112147   2.158   0.387   1.321
 4047TIP3    H212148   2.158   0.526   1.380
 4048TIP3   OH212149   1.119   4.756   4.885
 4048TIP3    H112150   1.037   4.735   4.929
 4048TIP3    H212151   1.185   4.755   4.954
 4049TIP3   OH212152   3.115   4.787   1.246
 4049TIP3    H112153   3.204   4.812   1.222
 4049TIP3    H212154   3.101   4.703   1.202
 4050TIP3   OH212155   1.315   0.303   1.971
 4050TIP3    H112156   1.358   0.308   2.057
 4050TIP3    H212157   1.338   0.385   1.928
 4051TIP3   OH212158   3.267   5.216   5.130
 4051TIP3    H112159   3.274   5.123   5.152
 4051TIP3    H212160   3.357   5.249   5.136
 4052TIP3   OH212161   4.278   4.608   0.534
 4052TIP3    H112162   4.231   4.531   0.567
 4052TIP3    H212163   4.335   4.633   0.606
 4053TIP3   OH212164   6.154   2.972   1.483
 4053TIP3    H112165   6.097   3.014   1.419
 4053TIP3    H212166   6.097   2.914   1.533
 4054TIP3   OH212167   3.476   5.105   0.859
 4054TIP3    H112168   3.390   5.089   0.898
 4054TIP3    H212169   3.529   5.139   0.931
 4055TIP3   OH212170   5.388   0.641   2.366
 4055TIP3    H112171   5.370   0.735   2.369
 4055TIP3    H212172   5.374   0.617   2.274
 4056TIP3   OH212173   0.064   5.932   0.251
 4056TIP3    H112174   0.147   5.965   0.215
 4056TIP3    H212175   0.089   5.895   0.336
 4057TIP3   OH212176   0.311   4.475   5.047
 4057TIP3    H112177   0.338   4.428   5.125
 4057TIP3    H212178   0.267   4.410   4.992
 4058TIP3   OH212179   3.031   5.954   3.896
 4058TIP3    H112180   3.028   5.874   3.845
 4058TIP3    H212181   3.053   5.926   3.985
 4059TIP3   OH212182   6.009   4.645   1.838
 4059TIP3    H112183   5.988   4.609   1.752
 4059TIP3    H212184   5.963   4.587   1.900
 4060TIP3   OH212185   4.410   3.448   2.030
 4060TIP3    H112186   4.449   3.525   2.071
 4060TIP3    H212187   4.478   3.381   2.033
 4061TIP3   OH212188   5.752   2.822   0.704
 4061TIP3    H112189   5.729   2.775   0.624
 4061TIP3    H212190   5.681   2.802   0.765
 4062TIP3   OH212191   3.665   0.952   2.317
 4062TIP3    H112192   3.668   0.888   2.247
 4062TIP3    H212193   3.754   0.953   2.353
 4063TIP3   OH212194   4.419   5.698   3.948
 4063TIP3    H112195   4.367   5.632   3.994
 4063TIP3    H212196   4.359   5.736   3.884
 4064TIP3   OH212197   5.293   0.745   2.646
 4064TIP3    H112198   5.347   0.824   2.638
 4064TIP3    H212199   5.318   0.691   2.571
 4065TIP3   OH212200   3.285   5.870   2.589
 4065TIP3    H112201   3.378   5.891   2.599
 4065TIP3    H212202   3.242   5.955   2.580
 4066TIP3   OH212203   4.290   3.663   0.115
 4066TIP3    H112204   4.349   3.614   0.171
 4066TIP3    H212205   4.235   3.597   0.074
 4067TIP3   OH212206   2.942   4.128   3.629
 4067TIP3    H112207   2.998   4.171   3.694
 4067TIP3    H212208   2.962   4.035   3.639
 4068TIP3   OH212209   0.257   1.566   0.779
 4068TIP3    H112210   0.240   1.649   0.734
 4068TIP3    H212211   0.311   1.516   0.718
 4069TIP3   OH212212   2.426   2.243   2.204
 4069TIP3    H112213   2.381   2.186   2.267
 4069TIP3    H212214   2.475   2.304   2.259
 4070TIP3   OH212215   5.547   4.140   1.369
 4070TIP3    H112216   5.575   4.136   1.461
 4070TIP3    H212217   5.628   4.144   1.320
 4071TIP3   OH212218   5.466   5.607   4.237
 4071TIP3    H112219   5.520   5.599   4.159
 4071TIP3    H212220   5.506   5.679   4.286
 4072TIP3   OH212221   1.492   5.185   2.343
 4072TIP3    H112222   1.505   5.238   2.421
 4072TIP3    H212223   1.569   5.127   2.339
 4073TIP3   OH212224   2.315   3.212   4.994
 4073TIP3    H112225   2.258   3.285   5.017
 4073TIP3    H212226   2.344   3.176   5.078
 4074TIP3   OH212227   0.980   2.283   0.712
 4074TIP3    H112228   1.017   2.270   0.624
 4074TIP3    H212229   0.987   2.377   0.728
 4075TIP3   OH212230   1.117   5.502   0.383
 4075TIP3    H112231   1.110   5.499   0.479
 4075TIP3    H212232   1.180   5.571   0.366
 4076TIP3   OH212233   5.710   1.738   3.914
 4076TIP3    H112234   5.727   1.759   4.005
 4076TIP3    H212235   5.621   1.702   3.914
 4077TIP3   OH212236   2.602   4.991   1.244
 4077TIP3    H112237   2.564   4.948   1.168
 4077TIP3    H212238   2.694   4.964   1.244
 4078TIP3   OH212239   1.151   2.546   1.000
 4078TIP3    H112240   1.128   2.471   0.946
 4078TIP3    H212241   1.177   2.614   0.937
 4079TIP3   OH212242   5.585   0.706   5.084
 4079TIP3    H112243   5.491   0.700   5.062
 4079TIP3    H212244   5.628   0.720   5.000
 4080TIP3   OH212245   1.717   1.630   1.622
 4080TIP3    H112246   1.694   1.621   1.715
 4080TIP3    H212247   1.659   1.568   1.577
 4081TIP3   OH212248   1.428   5.679   2.437
 4081TIP3    H112249   1.482   5.687   2.516
 4081TIP3    H212250   1.377   5.760   2.436
 4082TIP3   OH212251   4.272   3.426   4.352
 4082TIP3    H112252   4.220   3.356   4.312
 4082TIP3    H212253   4.237   3.506   4.315
 4083TIP3   OH212254   0.140   2.668   2.646
 4083TIP3    H112255   0.070   2.733   2.651
 4083TIP3    H212256   0.095   2.584   2.634
 4084TIP3   OH212257   5.525   2.864   0.862
 4084TIP3    H112258   5.481   2.920   0.798
 4084TIP3    H212259   5.456   2.839   0.923
 4085TIP3   OH212260   0.846   3.564   1.671
 4085TIP3    H112261   0.817   3.531   1.756
 4085TIP3    H212262   0.803   3.505   1.608
 4086TIP3   OH212263   1.862   3.519   3.636
 4086TIP3    H112264   1.880   3.494   3.727
 4086TIP3    H212265   1.868   3.437   3.587
 4087TIP3   OH212266   4.294   1.308   4.687
 4087TIP3    H112267   4.201   1.330   4.698
 4087TIP3    H212268   4.328   1.373   4.626
 4088TIP3   OH212269   1.451   0.327   0.082
 4088TIP3    H112270   1.451   0.410   0.036
 4088TIP3    H212271   1.497   0.267   0.024
 4089TIP3   OH212272   3.020   5.940   0.846
 4089TIP3    H112273   2.969   5.988   0.781
 4089TIP3    H212274   3.070   6.007   0.892
 4090TIP3   OH212275   1.793   5.147   0.513
 4090TIP3    H112276   1.719   5.091   0.536
 4090TIP3    H212277   1.773   5.178   0.424
 4091TIP3   OH212278   6.332   3.073   5.095
 4091TIP3    H112279   6.263   3.139   5.104
 4091TIP3    H212280   6.411   3.123   5.075
 4092TIP3   OH212281   0.616   5.854   0.844
 4092TIP3    H112282   0.638   5.765   0.871
 4092TIP3    H212283   0.653   5.910   0.912
 4093TIP3   OH212284   5.259   0.283   1.479
 4093TIP3    H112285   5.322   0.351   1.506
 4093TIP3    H212286   5.178   0.331   1.462
 4094TIP3   OH212287   2.686   0.417   1.866
 4094TIP3    H112288   2.621   0.464   1.919
 4094TIP3    H212289   2.676   0.453   1.778
 4095TIP3   OH212290   4.784   0.293   5.143
 4095TIP3    H112291   4.756   0.210   5.182
 4095TIP3    H212292   4.703   0.340   5.126
 4096TIP3   OH212293   3.744   4.047   1.214
 4096TIP3    H112294   3.720   3.982   1.148
 4096TIP3    H212295   3.832   4.075   1.190
 4097TIP3   OH212296   6.336   1.475   1.591
 4097TIP3    H112297   6.252   1.432   1.607
 4097TIP3    H212298   6.401   1.418   1.632
 4098TIP3   OH212299   3.775   4.152   3.466
 4098TIP3    H112300   3.844   4.218   3.454
 4098TIP3    H212301   3.819   4.078   3.509
 4099TIP3   OH212302   2.487   0.745   4.329
 4099TIP3    H112303   2.539   0.686   4.276
 4099TIP3    H212304   2.396   0.729   4.303
 4100TIP3   OH212305   3.663   3.826   3.497
 4100TIP3    H112306   3.745   3.823   3.547
 4100TIP3    H212307   3.648   3.736   3.470
 4101TIP3   OH212308   5.191   2.156   2.738
 4101TIP3    H112309   5.231   2.202   2.812
 4101TIP3    H212310   5.207   2.063   2.756
 4102TIP3   OH212311   4.386   1.092   1.352
 4102TIP3    H112312   4.320   1.152   1.316
 4102TIP3    H212313   4.411   1.038   1.277
 4103TIP3   OH212314   6.212   1.552   0.372
 4103TIP3    H112315   6.149   1.596   0.316
 4103TIP3    H212316   6.174   1.558   0.460
 4104TIP3   OH212317   3.408   3.727   2.262
 4104TIP3    H112318   3.380   3.669   2.191
 4104TIP3    H212319   3.364   3.810   2.245
 4105TIP3   OH212320   2.664   4.368   0.132
 4105TIP3    H112321   2.728   4.298   0.117
 4105TIP3    H212322   2.682   4.432   0.063
 4106TIP3   OH212323   2.695   3.983   1.720
 4106TIP3    H112324   2.720   4.062   1.671
 4106TIP3    H212325   2.769   3.967   1.778
 4107TIP3   OH212326   1.791   0.224   1.281
 4107TIP3    H112327   1.726   0.278   1.325
 4107TIP3    H212328   1.807   0.268   1.198
 4108TIP3   OH212329   6.261   1.586   2.275
 4108TIP3    H112330   6.297   1.497   2.277
 4108TIP3    H212331   6.248   1.608   2.368
 4109TIP3   OH212332   1.405   2.143   2.248
 4109TIP3    H112333   1.319   2.101   2.243
 4109TIP3    H212334   1.467   2.070   2.243
 4110TIP3   OH212335   5.364   3.320   3.964
 4110TIP3    H112336   5.417   3.242   3.982
 4110TIP3    H212337   5.428   3.392   3.960
 4111TIP3   OH212338   1.876   2.927   2.236
 4111TIP3    H112339   1.942   2.886   2.180
 4111TIP3    H212340   1.820   2.854   2.262
 4112TIP3   OH212341   2.048   0.569   3.975
 4112TIP3    H112342   2.077   0.627   3.904
 4112TIP3    H212343   2.001   0.626   4.035
 4113TIP3   OH212344   2.323   1.912   4.534
 4113TIP3    H112345   2.334   1.974   4.606
 4113TIP3    H212346   2.308   1.967   4.457
 4114TIP3   OH212347   0.165   2.200   4.219
 4114TIP3    H112348   0.089   2.186   4.276
 4114TIP3    H212349   0.221   2.123   4.235
 4115TIP3   OH212350   3.063   2.524   2.619
 4115TIP3    H112351   3.086   2.606   2.577
 4115TIP3    H212352   3.037   2.549   2.708
 4116TIP3   OH212353   1.717   3.861   0.944
 4116TIP3    H112354   1.730   3.925   0.874
 4116TIP3    H212355   1.625   3.835   0.936
 4117TIP3   OH212356   0.640   4.221   2.313
 4117TIP3    H112357   0.558   4.230   2.361
 4117TIP3    H212358   0.626   4.271   2.232
 4118TIP3   OH212359   0.489   3.040   3.230
 4118TIP3    H112360   0.539   2.997   3.300
 4118TIP3    H212361   0.401   3.049   3.266
 4119TIP3   OH212362   1.756   5.707   1.436
 4119TIP3    H112363   1.829   5.749   1.390
 4119TIP3    H212364   1.795   5.631   1.479
 4120TIP3   OH212365   1.854   4.702   1.574
 4120TIP3    H112366   1.767   4.698   1.614
 4120TIP3    H212367   1.896   4.621   1.601
 4121TIP3   OH212368   2.424   2.819   2.779
 4121TIP3    H112369   2.485   2.764   2.730
 4121TIP3    H212370   2.466   2.829   2.865
 4122TIP3   OH212371   2.527   2.699   3.749
 4122TIP3    H112372   2.599   2.636   3.756
 4122TIP3    H212373   2.458   2.652   3.702
 4123TIP3   OH212374   0.094   1.932   3.710
 4123TIP3    H112375   0.159   1.947   3.779
 4123TIP3    H212376   0.145   1.912   3.632
 4124TIP3   OH212377   5.790   4.482   2.011
 4124TIP3    H112378   5.716   4.516   2.061
 4124TIP3    H212379   5.844   4.437   2.075
 4125TIP3   OH212380   4.941   2.144   0.457
 4125TIP3    H112381   4.981   2.218   0.503
 4125TIP3    H212382   4.915   2.180   0.372
 4126TIP3   OH212383   4.348   1.080   2.675
 4126TIP3    H112384   4.395   1.148   2.723
 4126TIP3    H212385   4.258   1.112   2.671
 4127TIP3   OH212386   5.868   5.091   0.921
 4127TIP3    H112387   5.806   5.062   0.988
 4127TIP3    H212388   5.942   5.125   0.972
 4128TIP3   OH212389   3.862   3.569   2.719
 4128TIP3    H112390   3.869   3.646   2.662
 4128TIP3    H212391   3.904   3.596   2.800
 4129TIP3   OH212392   3.909   4.665   2.587
 4129TIP3    H112393   3.839   4.620   2.539
 4129TIP3    H212394   3.878   4.669   2.677
 4130TIP3   OH212395   4.506   3.961   2.071
 4130TIP3    H112396   4.445   3.992   2.138
 4130TIP3    H212397   4.517   4.036   2.013
 4131TIP3   OH212398   3.942   1.665   2.295
 4131TIP3    H112399   4.014   1.728   2.284
 4131TIP3    H212400   3.978   1.583   2.263
 4132TIP3   OH212401   4.638   2.706   2.268
 4132TIP3    H112402   4.715   2.724   2.322
 4132TIP3    H212403   4.584   2.648   2.321
 4133TIP3   OH212404   3.750   4.517   1.239
 4133TIP3    H112405   3.695   4.438   1.243
 4133TIP3    H212406   3.839   4.484   1.253
 4134TIP3   OH212407   2.823   3.806   0.807
 4134TIP3    H112408   2.764   3.730   0.807
 4134TIP3    H212409   2.811   3.845   0.721
 4135TIP3   OH212410   0.047   1.264   4.831
 4135TIP3    H112411   0.113   1.324   4.796
 4135TIP3    H212412   0.027   1.205   4.758
 4136TIP3   OH212413   0.853   1.430   4.530
 4136TIP3    H112414   0.900   1.404   4.609
 4136TIP3    H212415   0.761   1.413   4.551
 4137TIP3   OH212416   1.940   0.318   4.067
 4137TIP3    H112417   1.942   0.222   4.063
 4137TIP3    H212418   1.919   0.338   4.158
 4138TIP3   OH212419   3.181   4.520   0.740
 4138TIP3    H112420   3.170   4.528   0.646
 4138TIP3    H212421   3.210   4.607   0.768
 4139TIP3   OH212422   4.699   1.910   3.847
 4139TIP3    H112423   4.695   1.819   3.817
 4139TIP3    H212424   4.726   1.904   3.939
 4140TIP3   OH212425   5.726   1.837   0.912
 4140TIP3    H112426   5.671   1.773   0.958
 4140TIP3    H212427   5.812   1.797   0.909
 4141TIP3   OH212428   1.857   5.518   3.016
 4141TIP3    H112429   1.867   5.510   3.111
 4141TIP3    H212430   1.906   5.444   2.980
 4142TIP3   OH212431   4.718   3.497   4.778
 4142TIP3    H112432   4.713   3.402   4.766
 4142TIP3    H212433   4.707   3.510   4.872
 4143TIP3   OH212434   4.936   2.044   4.280
 4143TIP3    H112435   4.855   2.016   4.238
 4143TIP3    H212436   5.004   1.991   4.239
 4144TIP3   OH212437   3.659   2.689   0.886
 4144TIP3    H112438   3.599   2.629   0.931
 4144TIP3    H212439   3.609   2.720   0.810
 4145TIP3   OH212440   2.067   3.591   3.822
 4145TIP3    H112441   2.057   3.682   3.851
 4145TIP3    H212442   2.031   3.539   3.893
 4146TIP3   OH212443   4.504   3.970   3.751
 4146TIP3    H112444   4.567   4.035   3.722
 4146TIP3    H212445   4.555   3.890   3.762
 4147TIP3   OH212446   1.608   3.891   4.138
 4147TIP3    H112447   1.554   3.961   4.175
 4147TIP3    H212448   1.580   3.812   4.186
 4148TIP3   OH212449   4.085   4.783   3.698
 4148TIP3    H112450   4.062   4.759   3.608
 4148TIP3    H212451   4.087   4.700   3.745
 4149TIP3   OH212452   4.478   1.843   4.997
 4149TIP3    H112453   4.466   1.920   4.941
 4149TIP3    H212454   4.394   1.796   4.991
 4150TIP3   OH212455   2.223   5.015   1.909
 4150TIP3    H112456   2.141   5.063   1.920
 4150TIP3    H212457   2.202   4.945   1.847
 4151TIP3   OH212458   4.061   1.319   0.304
 4151TIP3    H112459   4.137   1.358   0.347
 4151TIP3    H212460   3.986   1.347   0.357
 4152TIP3   OH212461   3.605   4.052   2.788
 4152TIP3    H112462   3.535   4.051   2.853
 4152TIP3    H212463   3.560   4.035   2.705
 4153TIP3   OH212464   5.995   4.783   0.840
 4153TIP3    H112465   5.989   4.867   0.887
 4153TIP3    H212466   6.053   4.730   0.895
 4154TIP3   OH212467   2.390   1.796   3.049
 4154TIP3    H112468   2.308   1.787   3.001
 4154TIP3    H212469   2.424   1.882   3.023
 4155TIP3   OH212470   0.295   5.473   3.187
 4155TIP3    H112471   0.262   5.557   3.222
 4155TIP3    H212472   0.237   5.407   3.225
 4156TIP3   OH212473   0.737   1.834   1.468
 4156TIP3    H112474   0.733   1.848   1.563
 4156TIP3    H212475   0.723   1.921   1.431
 4157TIP3   OH212476   1.088   1.088   2.713
 4157TIP3    H112477   1.131   1.038   2.643
 4157TIP3    H212478   0.995   1.067   2.704
 4158TIP3   OH212479   1.039   3.317   4.854
 4158TIP3    H112480   1.106   3.342   4.790
 4158TIP3    H212481   1.032   3.394   4.911
 4159TIP3   OH212482   2.240   0.123   1.325
 4159TIP3    H112483   2.163   0.140   1.380
 4159TIP3    H212484   2.208   0.136   1.236
 4160TIP3   OH212485   1.077   4.417   2.615
 4160TIP3    H112486   1.112   4.495   2.572
 4160TIP3    H212487   0.982   4.423   2.601
 4161TIP3   OH212488   1.009   4.683   1.511
 4161TIP3    H112489   0.937   4.729   1.554
 4161TIP3    H212490   1.047   4.749   1.453
 4162TIP3   OH212491   0.779   1.321   0.310
 4162TIP3    H112492   0.863   1.298   0.350
 4162TIP3    H212493   0.801   1.386   0.243
 4163TIP3   OH212494   1.175   2.529   1.269
 4163TIP3    H112495   1.124   2.450   1.287
 4163TIP3    H212496   1.200   2.520   1.177
 4164TIP3   OH212497   0.082   0.181   5.011
 4164TIP3    H112498   0.046   0.099   5.044
 4164TIP3    H212499   0.175   0.163   4.998
 4165TIP3   OH212500   5.288   4.153   1.273
 4165TIP3    H112501   5.250   4.077   1.318
 4165TIP3    H212502   5.375   4.162   1.310
 4166TIP3   OH212503   0.915   4.497   0.637
 4166TIP3    H112504   0.914   4.516   0.543
 4166TIP3    H212505   0.849   4.556   0.674
 4167TIP3   OH212506   2.803   0.775   4.186
 4167TIP3    H112507   2.792   0.847   4.248
 4167TIP3    H212508   2.881   0.729   4.216
 4168TIP3   OH212509   2.892   3.866   3.919
 4168TIP3    H112510   2.888   3.810   3.841
 4168TIP3    H212511   2.845   3.817   3.986
 4169TIP3   OH212512   0.212   3.632   3.774
 4169TIP3    H112513   0.134   3.594   3.733
 4169TIP3    H212514   0.220   3.719   3.735
 4170TIP3   OH212515   6.217   1.324   5.172
 4170TIP3    H112516   6.236   1.417   5.175
 4170TIP3    H212517   6.123   1.319   5.155
 4171TIP3   OH212518   2.539   1.935   3.886
 4171TIP3    H112519   2.626   1.963   3.858
 4171TIP3    H212520   2.479   2.000   3.850
 4172TIP3   OH212521   0.546   1.156   3.891
 4172TIP3    H112522   0.585   1.119   3.811
 4172TIP3    H212523   0.576   1.098   3.961
 4173TIP3   OH212524   4.259   2.385   1.394
 4173TIP3    H112525   4.189   2.434   1.350
 4173TIP3    H212526   4.260   2.420   1.483
 4174TIP3   OH212527   2.202   2.762   3.126
 4174TIP3    H112528   2.167   2.779   3.039
 4174TIP3    H212529   2.293   2.736   3.110
 4175TIP3   OH212530   1.795   1.597   4.042
 4175TIP3    H112531   1.762   1.526   4.097
 4175TIP3    H212532   1.861   1.640   4.097
 4176TIP3   OH212533   1.528   1.520   4.165
 4176TIP3    H112534   1.570   1.458   4.224
 4176TIP3    H212535   1.528   1.476   4.080
 4177TIP3   OH212536   2.866   2.755   0.977
 4177TIP3    H112537   2.924   2.819   1.018
 4177TIP3    H212538   2.804   2.807   0.926
 4178TIP3   OH212539   1.315   0.396   0.306
 4178TIP3    H112540   1.347   0.400   0.217
 4178TIP3    H212541   1.282   0.307   0.316
 4179TIP3   OH212542   6.091   0.129   0.386
 4179TIP3    H112543   6.071   0.189   0.314
 4179TIP3    H212544   6.094   0.185   0.464
 4180TIP3   OH212545   2.716   0.456   4.830
 4180TIP3    H112546   2.700   0.513   4.755
 4180TIP3    H212547   2.810   0.462   4.846
 4181TIP3   OH212548   1.531   4.352   2.361
 4181TIP3    H112549   1.520   4.257   2.362
 4181TIP3    H212550   1.594   4.369   2.291
 4182TIP3   OH212551   1.846   3.924   3.628
 4182TIP3    H112552   1.923   3.940   3.682
 4182TIP3    H212553   1.855   3.986   3.555
 4183TIP3   OH212554   4.289   3.158   2.867
 4183TIP3    H112555   4.230   3.140   2.794
 4183TIP3    H212556   4.289   3.078   2.919
 4184TIP3   OH212557   2.422   3.662   1.347
 4184TIP3    H112558   2.332   3.668   1.378
 4184TIP3    H212559   2.418   3.688   1.255
 4185TIP3   OH212560   5.665   3.125   0.882
 4185TIP3    H112561   5.689   3.109   0.973
 4185TIP3    H212562   5.700   3.050   0.834
 4186TIP3   OH212563   1.016   1.295   0.448
 4186TIP3    H112564   1.056   1.330   0.527
 4186TIP3    H212565   1.038   1.202   0.449
 4187TIP3   OH212566   1.779   2.114   3.337
 4187TIP3    H112567   1.779   2.161   3.421
 4187TIP3    H212568   1.689   2.123   3.306
 4188TIP3   OH212569   5.285   4.573   4.717
 4188TIP3    H112570   5.194   4.585   4.689
 4188TIP3    H212571   5.336   4.592   4.638
 4189TIP3   OH212572   3.838   0.270   3.688
 4189TIP3    H112573   3.883   0.185   3.687
 4189TIP3    H212574   3.748   0.250   3.713
 4190TIP3   OH212575   0.993   0.558   2.121
 4190TIP3    H112576   1.053   0.622   2.160
 4190TIP3    H212577   0.972   0.596   2.035
 4191TIP3   OH212578   2.996   4.603   4.466
 4191TIP3    H112579   3.022   4.666   4.399
 4191TIP3    H212580   3.050   4.526   4.450
 4192TIP3   OH212581   2.564   3.948   4.309
 4192TIP3    H112582   2.523   3.863   4.325
 4192TIP3    H212583   2.615   3.966   4.388
 4193TIP3   OH212584   0.048   3.035   2.589
 4193TIP3    H112585   0.125   2.983   2.611
 4193TIP3    H212586  -0.023   2.971   2.579
 4194TIP3   OH212587   5.461   3.070   0.247
 4194TIP3    H112588   5.416   3.057   0.164
 4194TIP3    H212589   5.551   3.041   0.232
 4195TIP3   OH212590   1.714   0.366   0.504
 4195TIP3    H112591   1.719   0.270   0.511
 4195TIP3    H212592   1.799   0.396   0.536
 4196TIP3   OH212593   2.970   1.208   4.143
 4196TIP3    H112594   3.014   1.292   4.130
 4196TIP3    H212595   3.010   1.173   4.222
 4197TIP3   OH212596   6.241   2.789   2.664
 4197TIP3    H112597   6.231   2.850   2.737
 4197TIP3    H212598   6.157   2.745   2.657
 4198TIP3   OH212599   3.929   1.006   4.211
 4198TIP3    H112600   3.914   1.100   4.215
 4198TIP3    H212601   3.940   0.988   4.117
 4199TIP3   OH212602   4.574   5.377   4.318
 4199TIP3    H112603   4.515   5.303   4.330
 4199TIP3    H212604   4.641   5.346   4.257
 4200TIP3   OH212605  -0.023   0.872   0.138
 4200TIP3    H112606  -0.116   0.872   0.116
 4200TIP3    H212607   0.012   0.794   0.094
 4201TIP3   OH212608   2.508   4.837   3.792
 4201TIP3    H112609   2.535   4.837   3.884
 4201TIP3    H212610   2.428   4.785   3.791
 4202TIP3   OH212611   3.481   4.551   2.811
 4202TIP3    H112612   3.490   4.644   2.793
 4202TIP3    H212613   3.498   4.542   2.905
 4203TIP3   OH212614   6.142   3.270   5.166
 4203TIP3    H112615   6.099   3.330   5.104
 4203TIP3    H212616   6.070   3.221   5.205
 4204TIP3   OH212617   4.316   1.036   1.763
 4204TIP3    H112618   4.309   1.132   1.771
 4204TIP3    H212619   4.405   1.016   1.791
 4205TIP3   OH212620   2.537   1.674   4.951
 4205TIP3    H112621   2.613   1.675   4.894
 4205TIP3    H212622   2.470   1.724   4.903
 4206TIP3   OH212623   5.899   4.204  -0.010
 4206TIP3    H112624   5.860   4.142   0.052
 4206TIP3    H212625   5.990   4.176  -0.019
 4207TIP3   OH212626   1.335   3.376   4.377
 4207TIP3    H112627   1.315   3.348   4.287
 4207TIP3    H212628   1.421   3.338   4.395
 4208TIP3   OH212629   1.062   3.713   4.643
 4208TIP3    H112630   1.157   3.714   4.651
 4208TIP3    H212631   1.038   3.805   4.632
 4209TIP3   OH212632   6.185   4.204   2.255
 4209TIP3    H112633   6.274   4.187   2.222
 4209TIP3    H212634   6.198   4.231   2.346
 4210TIP3   OH212635   4.384   4.899   4.451
 4210TIP3    H112636   4.295   4.907   4.486
 4210TIP3    H212637   4.387   4.811   4.414
 4211TIP3   OH212638   1.177   5.249   1.932
 4211TIP3    H112639   1.153   5.340   1.918
 4211TIP3    H212640   1.258   5.253   1.983
 4212TIP3   OH212641   1.916   1.281   2.881
 4212TIP3    H112642   1.892   1.354   2.823
 4212TIP3    H212643   1.836   1.265   2.932
 4213TIP3   OH212644   6.003   1.141   4.912
 4213TIP3    H112645   5.970   1.080   4.846
 4213TIP3    H212646   6.090   1.107   4.934
 4214TIP3   OH212647   5.319   1.356   3.537
 4214TIP3    H112648   5.384   1.424   3.523
 4214TIP3    H212649   5.350   1.308   3.613
 4215TIP3   OH212650   2.550   3.179   2.804
 4215TIP3    H112651   2.502   3.121   2.862
 4215TIP3    H212652   2.485   3.208   2.740
 4216TIP3   OH212653   3.245   3.307   1.969
 4216TIP3    H112654   3.266   3.237   2.030
 4216TIP3    H212655   3.206   3.376   2.022
 4217TIP3   OH212656   5.713   1.836   0.637
 4217TIP3    H112657   5.757   1.920   0.651
 4217TIP3    H212658   5.703   1.799   0.724
 4218TIP3   OH212659   1.113   2.200   2.943
 4218TIP3    H112660   1.108   2.236   3.032
 4218TIP3    H212661   1.058   2.258   2.891
 4219TIP3   OH212662   4.702   2.723   3.387
 4219TIP3    H112663   4.673   2.802   3.343
 4219TIP3    H212664   4.644   2.716   3.463
 4220TIP3   OH212665   5.962   0.315   4.548
 4220TIP3    H112666   6.044   0.342   4.506
 4220TIP3    H212667   5.894   0.344   4.488
 4221TIP3   OH212668   2.932   3.490   0.787
 4221TIP3    H112669   2.991   3.561   0.811
 4221TIP3    H212670   2.857   3.500   0.845
 4222TIP3   OH212671   5.836   1.534   3.739
 4222TIP3    H112672   5.805   1.603   3.798
 4222TIP3    H212673   5.909   1.494   3.786
 4223TIP3   OH212674   2.650   1.928   1.940
 4223TIP3    H112675   2.636   1.906   1.848
 4223TIP3    H212676   2.688   2.016   1.938
 4224TIP3   OH212677   6.360   5.215   1.223
 4224TIP3    H112678   6.435   5.266   1.253
 4224TIP3    H212679   6.285   5.252   1.269
 4225TIP3   OH212680   4.520   0.328   0.532
 4225TIP3    H112681   4.428   0.301   0.523
 4225TIP3    H212682   4.531   0.399   0.469
 4226TIP3   OH212683   1.655   3.357   0.806
 4226TIP3    H112684   1.632   3.275   0.848
 4226TIP3    H212685   1.719   3.333   0.739
 4227TIP3   OH212686   4.512   1.137   4.779
 4227TIP3    H112687   4.484   1.216   4.733
 4227TIP3    H212688   4.565   1.090   4.715
 4228TIP3   OH212689   3.464   0.288   1.422
 4228TIP3    H112690   3.531   0.268   1.488
 4228TIP3    H212691   3.503   0.261   1.339
 4229TIP3   OH212692   2.487   3.197   0.186
 4229TIP3    H112693   2.407   3.247   0.204
 4229TIP3    H212694   2.497   3.141   0.263
 4230TIP3   OH212695   6.316   5.437   2.240
 4230TIP3    H112696   6.250   5.493   2.280
 4230TIP3    H212697   6.377   5.497   2.197
 4231TIP3   OH212698   1.022   5.434   2.322
 4231TIP3    H112699   1.116   5.451   2.325
 4231TIP3    H212700   0.985   5.492   2.388
 4232TIP3   OH212701   5.552   3.321   3.708
 4232TIP3    H112702   5.550   3.386   3.778
 4232TIP3    H212703   5.627   3.265   3.730
 4233TIP3   OH212704   0.144   3.611   0.036
 4233TIP3    H112705   0.196   3.686   0.066
 4233TIP3    H212706   0.091   3.587   0.113
 4234TIP3   OH212707   1.127   2.017   1.371
 4234TIP3    H112708   1.139   2.007   1.465
 4234TIP3    H212709   1.215   2.006   1.335
 4235TIP3   OH212710   1.384   1.591   3.683
 4235TIP3    H112711   1.338   1.634   3.755
 4235TIP3    H212712   1.477   1.604   3.703
 4236TIP3   OH212713   2.112   1.551   4.565
 4236TIP3    H112714   2.094   1.627   4.620
 4236TIP3    H212715   2.106   1.476   4.625
 4237TIP3   OH212716   5.020   1.767   3.621
 4237TIP3    H112717   4.935   1.740   3.587
 4237TIP3    H212718   5.074   1.687   3.619
 4238TIP3   OH212719   2.661   3.132   3.586
 4238TIP3    H112720   2.673   3.213   3.637
 4238TIP3    H212721   2.576   3.143   3.544
 4239TIP3   OH212722   5.161   1.729   2.889
 4239TIP3    H112723   5.119   1.815   2.903
 4239TIP3    H212724   5.183   1.729   2.796
 4240TIP3   OH212725   1.189   0.343   1.711
 4240TIP3    H112726   1.218   0.304   1.794
 4240TIP3    H212727   1.094   0.329   1.710
 4241TIP3   OH212728   0.636   2.765   2.238
 4241TIP3    H112729   0.689   2.706   2.184
 4241TIP3    H212730   0.680   2.766   2.323
 4242TIP3   OH212731   2.145   4.117   5.151
 4242TIP3    H112732   2.127   4.170   5.073
 4242TIP3    H212733   2.177   4.034   5.117
 4243TIP3   OH212734   5.667   0.231   2.024
 4243TIP3    H112735   5.604   0.164   1.996
 4243TIP3    H212736   5.699   0.200   2.109
 4244TIP3   OH212737   4.645   5.170   2.500
 4244TIP3    H112738   4.553   5.194   2.487
 4244TIP3    H212739   4.663   5.108   2.429
 4245TIP3   OH212740   4.270   1.428   3.024
 4245TIP3    H112741   4.244   1.511   3.063
 4245TIP3    H212742   4.246   1.436   2.932
 4246TIP3   OH212743   4.849   1.224   0.476
 4246TIP3    H112744   4.916   1.256   0.416
 4246TIP3    H212745   4.808   1.151   0.431
 4247TIP3   OH212746   1.752   5.304   2.847
 4247TIP3    H112747   1.738   5.211   2.828
 4247TIP3    H212748   1.688   5.325   2.915
 4248TIP3   OH212749   2.586   0.237   0.117
 4248TIP3    H112750   2.572   0.150   0.153
 4248TIP3    H212751   2.507   0.255   0.066
 4249TIP3   OH212752   0.593   0.150   2.503
 4249TIP3    H112753   0.506   0.135   2.465
 4249TIP3    H212754   0.642   0.070   2.483
 4250TIP3   OH212755   2.689   0.257   0.775
 4250TIP3    H112756   2.722   0.344   0.753
 4250TIP3    H212757   2.726   0.238   0.861
 4251TIP3   OH212758   5.240   3.519   1.829
 4251TIP3    H112759   5.181   3.544   1.758
 4251TIP3    H212760   5.236   3.592   1.891
 4252TIP3   OH212761   3.193   2.102   1.886
 4252TIP3    H112762   3.116   2.152   1.856
 4252TIP3    H212763   3.155   2.025   1.928
 4253TIP3   OH212764   5.876   3.360   3.374
 4253TIP3    H112765   5.946   3.424   3.391
 4253TIP3    H212766   5.908   3.309   3.300
 4254TIP3   OH212767   1.881   3.392   3.901
 4254TIP3    H112768   1.795   3.348   3.901
 4254TIP3    H212769   1.941   3.326   3.864
 4255TIP3   OH212770   5.030   0.407   5.081
 4255TIP3    H112771   4.946   0.361   5.084
 4255TIP3    H212772   5.076   0.380   5.160
 4256TIP3   OH212773   1.845   4.046   4.378
 4256TIP3    H112774   1.754   4.026   4.359
 4256TIP3    H212775   1.863   4.000   4.461
 4257TIP3   OH212776   3.222   1.779   4.422
 4257TIP3    H112777   3.285   1.850   4.422
 4257TIP3    H212778   3.274   1.700   4.407
 4258TIP3   OH212779   2.994   4.328   1.747
 4258TIP3    H112780   2.948   4.323   1.830
 4258TIP3    H212781   3.061   4.396   1.761
 4259TIP3   OH212782   2.678   1.375   2.967
 4259TIP3    H112783   2.765   1.346   2.940
 4259TIP3    H212784   2.685   1.382   3.063
 4260TIP3   OH212785   2.547   3.084   4.864
 4260TIP3    H112786   2.487   3.118   4.930
 4260TIP3    H212787   2.553   3.154   4.799
 4261TIP3   OH212788   0.723   3.950   4.504
 4261TIP3    H112789   0.807   3.964   4.547
 4261TIP3    H212790   0.743   3.894   4.430
 4262TIP3   OH212791   1.225   0.938   1.490
 4262TIP3    H112792   1.138   0.944   1.452
 4262TIP3    H212793   1.262   0.859   1.451
 4263TIP3   OH212794   4.624   4.018   3.161
 4263TIP3    H112795   4.637   4.067   3.243
 4263TIP3    H212796   4.599   3.930   3.190
 4264TIP3   OH212797   5.545   4.048   0.608
 4264TIP3    H112798   5.467   4.058   0.554
 4264TIP3    H212799   5.579   4.136   0.619
 4265TIP3   OH212800   4.469   4.968   3.686
 4265TIP3    H112801   4.553   4.947   3.726
 4265TIP3    H212802   4.405   4.955   3.756
 4266TIP3   OH212803   1.251   3.039   1.561
 4266TIP3    H112804   1.158   3.017   1.561
 4266TIP3    H212805   1.259   3.111   1.624
 4267TIP3   OH212806   5.063   3.614   2.433
 4267TIP3    H112807   4.968   3.630   2.430
 4267TIP3    H212808   5.101   3.701   2.448
 4268TIP3   OH212809   5.022   4.865   3.675
 4268TIP3    H112810   5.095   4.927   3.670
 4268TIP3    H212811   5.030   4.811   3.596
 4269TIP3   OH212812   3.354   1.972   4.616
 4269TIP3    H112813   3.448   1.960   4.630
 4269TIP3    H212814   3.312   1.918   4.684
 4270TIP3   OH212815   0.049   2.113   3.431
 4270TIP3    H112816  -0.030   2.168   3.440
 4270TIP3    H212817   0.121   2.175   3.429
 4271TIP3   OH212818   1.118   2.222   3.425
 4271TIP3    H112819   1.123   2.149   3.362
 4271TIP3    H212820   1.025   2.244   3.428
 4272TIP3   OH212821   4.059   4.054   0.398
 4272TIP3    H112822   4.070   4.056   0.493
 4272TIP3    H212823   4.022   4.140   0.376
 4273TIP3   OH212824   6.038   4.088   4.147
 4273TIP3    H112825   6.012   4.176   4.121
 4273TIP3    H212826   6.132   4.084   4.131
 4274TIP3   OH212827   0.172   3.507   2.416
 4274TIP3    H112828   0.171   3.412   2.410
 4274TIP3    H212829   0.121   3.536   2.340
 4275TIP3   OH212830   0.941   0.098   3.300
 4275TIP3    H112831   1.030   0.104   3.336
 4275TIP3    H212832   0.897   0.035   3.356
 4276TIP3   OH212833   1.681   4.521   5.032
 4276TIP3    H112834   1.699   4.604   5.077
 4276TIP3    H212835   1.595   4.533   4.993
 4277TIP3   OH212836   4.485   1.683   1.782
 4277TIP3    H112837   4.483   1.671   1.877
 4277TIP3    H212838   4.559   1.741   1.766
 4278TIP3   OH212839   1.041   5.500   1.822
 4278TIP3    H112840   1.106   5.566   1.797
 4278TIP3    H212841   1.008   5.531   1.906
 4279TIP3   OH212842   2.517   5.008   0.697
 4279TIP3    H112843   2.449   5.058   0.744
 4279TIP3    H212844   2.472   4.928   0.670
 4280TIP3   OH212845   5.753   0.515   0.773
 4280TIP3    H112846   5.696   0.590   0.757
 4280TIP3    H212847   5.726   0.450   0.708
 4281TIP3   OH212848   1.186   0.944   2.488
 4281TIP3    H112849   1.235   0.999   2.427
 4281TIP3    H212850   1.204   0.854   2.459
 4282TIP3   OH212851   2.063   3.137   2.084
 4282TIP3    H112852   2.034   3.098   2.001
 4282TIP3    H212853   1.999   3.107   2.148
 4283TIP3   OH212854   2.974   0.308   0.421
 4283TIP3    H112855   2.886   0.289   0.387
 4283TIP3    H212856   2.973   0.274   0.510
 4284TIP3   OH212857  -0.039   4.833   2.469
 4284TIP3    H112858   0.009   4.804   2.392
 4284TIP3    H212859   0.026   4.835   2.539
 4285TIP3   OH212860   3.323   2.390   4.381
 4285TIP3    H112861   3.252   2.384   4.445
 4285TIP3    H212862   3.371   2.308   4.390
 4286TIP3   OH212863   4.955   0.776   0.997
 4286TIP3    H112864   4.985   0.866   1.007
 4286TIP3    H212865   5.019   0.723   1.044
 4287TIP3   OH212866   5.333   4.992   1.063
 4287TIP3    H112867   5.324   4.897   1.064
 4287TIP3    H212868   5.260   5.024   1.115
 4288TIP3   OH212869   2.266   2.582   5.136
 4288TIP3    H112870   2.321   2.641   5.085
 4288TIP3    H212871   2.177   2.616   5.123
 4289TIP3   OH212872   4.193   0.344   1.655
 4289TIP3    H112873   4.223   0.394   1.731
 4289TIP3    H212874   4.183   0.410   1.586
 4290TIP3   OH212875   3.352   1.823   2.604
 4290TIP3    H112876   3.278   1.788   2.655
 4290TIP3    H212877   3.415   1.751   2.601
 4291TIP3   OH212878   3.410   1.978   3.131
 4291TIP3    H112879   3.449   2.053   3.087
 4291TIP3    H212880   3.457   1.972   3.214
 4292TIP3   OH212881   4.976   1.312   2.332
 4292TIP3    H112882   4.989   1.322   2.238
 4292TIP3    H212883   5.016   1.228   2.353
 4293TIP3   OH212884   0.260   2.948   0.880
 4293TIP3    H112885   0.266   3.039   0.852
 4293TIP3    H212886   0.324   2.902   0.826
 4294TIP3   OH212887   2.249   3.013   4.555
 4294TIP3    H112888   2.254   2.920   4.533
 4294TIP3    H212889   2.184   3.048   4.493
 4295TIP3   OH212890   1.003   1.093   0.186
 4295TIP3    H112891   1.017   1.108   0.279
 4295TIP3    H212892   1.064   1.022   0.164
 4296TIP3   OH212893   4.633   0.015   1.299
 4296TIP3    H112894   4.587  -0.033   1.369
 4296TIP3    H212895   4.563   0.063   1.255
 4297TIP3   OH212896   4.096   3.769   0.434
 4297TIP3    H112897   4.049   3.847   0.464
 4297TIP3    H212898   4.100   3.779   0.339
 4298TIP3   OH212899   5.420   2.074   4.413
 4298TIP3    H112900   5.435   2.082   4.507
 4298TIP3    H212901   5.347   2.014   4.405
 4299TIP3   OH212902   0.293   4.147   2.799
 4299TIP3    H112903   0.215   4.147   2.855
 4299TIP3    H212904   0.360   4.102   2.851
 4300TIP3   OH212905   5.720   4.035   1.981
 4300TIP3    H112906   5.791   4.052   1.918
 4300TIP3    H212907   5.646   4.087   1.947
 4301TIP3   OH212908   5.992   3.149   2.366
 4301TIP3    H112909   6.058   3.080   2.365
 4301TIP3    H212910   5.913   3.108   2.331
 4302TIP3   OH212911   0.345   0.263   0.157
 4302TIP3    H112912   0.302   0.271   0.242
 4302TIP3    H212913   0.395   0.344   0.147
 4303TIP3   OH212914   3.484   5.758   1.432
 4303TIP3    H112915   3.573   5.791   1.422
 4303TIP3    H212916   3.451   5.802   1.509
 4304TIP3   OH212917   5.314   1.555   4.434
 4304TIP3    H112918   5.409   1.545   4.434
 4304TIP3    H212919   5.293   1.582   4.344
 4305TIP3   OH212920   4.091   4.248   1.779
 4305TIP3    H112921   3.997   4.256   1.760
 4305TIP3    H212922   4.133   4.311   1.721
 4306TIP3   OH212923   1.875   0.004   0.770
 4306TIP3    H112924   1.844  -0.068   0.716
 4306TIP3    H212925   1.902  -0.037   0.853
 4307TIP3   OH212926   4.365   5.252   2.487
 4307TIP3    H112927   4.313   5.311   2.432
 4307TIP3    H212928   4.301   5.191   2.523
 4308TIP3   OH212929   3.411   3.609   2.990
 4308TIP3    H112930   3.464   3.670   3.043
 4308TIP3    H212931   3.378   3.662   2.918
 4309TIP3   OH212932   5.282   0.031   0.557
 4309TIP3    H112933   5.206   0.072   0.598
 4309TIP3    H212934   5.246  -0.019   0.484
 4310TIP3   OH212935   2.669   0.493   1.581
 4310TIP3    H112936   2.598   0.476   1.519
 4310TIP3    H212937   2.671   0.589   1.588
 4311TIP3   OH212938   5.034   5.414   0.058
 4311TIP3    H112939   5.072   5.343   0.109
 4311TIP3    H212940   4.939   5.403   0.067
 4312TIP3   OH212941   3.968   2.609   5.005
 4312TIP3    H112942   3.916   2.682   5.040
 4312TIP3    H212943   4.051   2.615   5.052
 4313TIP3   OH212944   3.403   4.408   2.036
 4313TIP3    H112945   3.317   4.366   2.042
 4313TIP3    H212946   3.393   4.489   2.085
 4314TIP3   OH212947   2.544   5.515   3.677
 4314TIP3    H112948   2.476   5.505   3.745
 4314TIP3    H212949   2.512   5.463   3.604
 4315TIP3   OH212950   3.563   4.089   0.135
 4315TIP3    H112951   3.548   4.117   0.045
 4315TIP3    H212952   3.480   4.050   0.162
 4316TIP3   OH212953   6.068   4.696   1.201
 4316TIP3    H112954   6.037   4.777   1.242
 4316TIP3    H212955   6.148   4.722   1.154
 4317TIP3   OH212956   3.146   0.732   0.318
 4317TIP3    H112957   3.188   0.794   0.378
 4317TIP3    H212958   3.113   0.663   0.376
 4318TIP3   OH212959   4.490   5.150   0.664
 4318TIP3    H112960   4.529   5.209   0.599
 4318TIP3    H212961   4.410   5.194   0.690
 4319TIP3   OH212962   2.270   4.866   3.475
 4319TIP3    H112963   2.308   4.947   3.441
 4319TIP3    H212964   2.216   4.893   3.549
 4320TIP3   OH212965   3.675   1.842   3.594
 4320TIP3    H112966   3.724   1.922   3.615
 4320TIP3    H212967   3.586   1.859   3.627
 4321TIP3   OH212968   2.559   2.517   0.426
 4321TIP3    H112969   2.513   2.470   0.356
 4321TIP3    H212970   2.493   2.530   0.493
 4322TIP3   OH212971   1.547   4.500   1.486
 4322TIP3    H112972   1.557   4.595   1.492
 4322TIP3    H212973   1.571   4.479   1.396
 4323TIP3   OH212974   3.319   2.786   0.503
 4323TIP3    H112975   3.326   2.796   0.408
 4323TIP3    H212976   3.230   2.813   0.524
 4324TIP3   OH212977   2.574   4.983   4.988
 4324TIP3    H112978   2.503   4.920   4.998
 4324TIP3    H212979   2.554   5.053   5.050
 4325TIP3   OH212980   0.013   0.503   0.971
 4325TIP3    H112981  -0.043   0.487   0.895
 4325TIP3    H212982   0.095   0.534   0.935
 4326TIP3   OH212983   6.300   4.094   1.132
 4326TIP3    H112984   6.361   4.025   1.157
 4326TIP3    H212985   6.214   4.052   1.132
 4327TIP3   OH212986   3.565   3.214   0.832
 4327TIP3    H112987   3.639   3.155   0.841
 4327TIP3    H212988   3.580   3.282   0.897
 4328TIP3   OH212989   0.154   0.867   1.431
 4328TIP3    H112990   0.102   0.943   1.459
 4328TIP3    H212991   0.107   0.792   1.469
 4329TIP3   OH212992   2.515   5.533   1.829
 4329TIP3    H112993   2.470   5.484   1.898
 4329TIP3    H212994   2.598   5.487   1.817
 4330TIP3   OH212995   2.577   0.715   2.072
 4330TIP3    H112996   2.573   0.722   2.168
 4330TIP3    H212997   2.533   0.632   2.053
 4331TIP3   OH212998   1.270   0.678   1.372
 4331TIP3    H112999   1.223   0.604   1.411
 4331TIP3    H213000   1.294   0.647   1.285
 4332TIP3   OH213001   5.162   5.458   2.413
 4332TIP3    H113002   5.080   5.410   2.424
 4332TIP3    H213003   5.229   5.390   2.411
 4333TIP3   OH213004   0.285   4.581   0.495
 4333TIP3    H113005   0.302   4.613   0.407
 4333TIP3    H213006   0.237   4.499   0.482
 4334TIP3   OH213007   3.028   2.767   0.435
 4334TIP3    H113008   3.066   2.796   0.352
 4334TIP3    H213009   2.934   2.767   0.420
 4335TIP3   OH213010   5.211   5.616   2.637
 4335TIP3    H113011   5.175   5.566   2.563
 4335TIP3    H213012   5.148   5.602   2.707
 4336TIP3   OH213013   0.159   1.879   0.771
 4336TIP3    H113014   0.150   1.831   0.689
 4336TIP3    H213015   0.252   1.871   0.793
 4337TIP3   OH213016   5.563   3.484   2.934
 4337TIP3    H113017   5.616   3.481   2.855
 4337TIP3    H213018   5.604   3.422   2.994
 4338TIP3   OH213019   1.149   0.968   2.970
 4338TIP3    H113020   1.164   0.936   2.881
 4338TIP3    H213021   1.197   1.051   2.974
 4339TIP3   OH213022   2.836   0.154   3.808
 4339TIP3    H113023   2.782   0.110   3.874
 4339TIP3    H213024   2.792   0.134   3.725
 4340TIP3   OH213025   5.003   4.542   4.662
 4340TIP3    H113026   4.966   4.614   4.610
 4340TIP3    H213027   4.987   4.464   4.609
 4341TIP3   OH213028   2.494   0.810   1.124
 4341TIP3    H113029   2.502   0.883   1.185
 4341TIP3    H213030   2.518   0.733   1.176
 4342TIP3   OH213031   1.293   1.934   0.999
 4342TIP3    H113032   1.222   1.949   0.937
 4342TIP3    H213033   1.253   1.950   1.085
 4343TIP3   OH213034   5.869   4.040   4.395
 4343TIP3    H113035   5.789   4.016   4.350
 4343TIP3    H213036   5.934   4.052   4.325
 4344TIP3   OH213037   2.109   0.692   1.305
 4344TIP3    H113038   2.041   0.757   1.322
 4344TIP3    H213039   2.167   0.734   1.242
 4345TIP3   OH213040   5.911   2.867   4.007
 4345TIP3    H113041   5.875   2.793   4.055
 4345TIP3    H213042   6.001   2.875   4.039
 4346TIP3   OH213043   0.645   5.206   5.010
 4346TIP3    H113044   0.595   5.241   5.083
 4346TIP3    H213045   0.616   5.257   4.934
 4347TIP3   OH213046   3.305   0.034   5.157
 4347TIP3    H113047   3.364   0.063   5.087
 4347TIP3    H213048   3.221   0.020   5.113
 4348TIP3   OH213049   5.469   1.245   3.732
 4348TIP3    H113050   5.564   1.246   3.733
 4348TIP3    H213051   5.445   1.188   3.805
 4349TIP3   OH213052   3.977   2.317   4.595
 4349TIP3    H113053   3.979   2.318   4.499
 4349TIP3    H213054   4.069   2.307   4.620
 4350TIP3   OH213055   3.774   2.020   3.292
 4350TIP3    H113056   3.753   2.030   3.200
 4350TIP3    H213057   3.694   1.985   3.332
 4351TIP3   OH213058   0.190   4.405   0.225
 4351TIP3    H113059   0.277   4.380   0.195
 4351TIP3    H213060   0.181   4.497   0.199
 4352TIP3   OH213061   0.784   3.151   1.535
 4352TIP3    H113062   0.705   3.196   1.563
 4352TIP3    H213063   0.787   3.165   1.440
 4353TIP3   OH213064   4.417   1.180   3.651
 4353TIP3    H113065   4.435   1.123   3.726
 4353TIP3    H213066   4.338   1.228   3.675
 4354TIP3   OH213067   0.513   1.164   0.865
 4354TIP3    H113068   0.538   1.095   0.926
 4354TIP3    H213069   0.596   1.204   0.838
 4355TIP3   OH213070   6.063   2.502   4.358
 4355TIP3    H113071   6.084   2.553   4.436
 4355TIP3    H213072   6.131   2.525   4.295
 4356TIP3   OH213073   4.721   3.256   1.329
 4356TIP3    H113074   4.784   3.196   1.370
 4356TIP3    H213075   4.670   3.290   1.402
 4357TIP3   OH213076   5.764   4.581   1.322
 4357TIP3    H113077   5.827   4.648   1.296
 4357TIP3    H213078   5.681   4.609   1.282
 4358TIP3   OH213079   2.625   0.152   3.295
 4358TIP3    H113080   2.701   0.209   3.278
 4358TIP3    H213081   2.618   0.099   3.215
 4359TIP3   OH213082   0.461   0.280   0.503
 4359TIP3    H113083   0.489   0.207   0.447
 4359TIP3    H213084   0.422   0.342   0.443
 4360TIP3   OH213085   0.993   4.161   3.519
 4360TIP3    H113086   0.920   4.211   3.484
 4360TIP3    H213087   1.055   4.228   3.549
 4361TIP3   OH213088   1.103   4.103   2.439
 4361TIP3    H113089   1.146   4.177   2.398
 4361TIP3    H213090   1.144   4.026   2.400
 4362TIP3   OH213091   1.439   2.671   2.289
 4362TIP3    H113092   1.459   2.581   2.317
 4362TIP3    H213093   1.522   2.703   2.252
 4363TIP3   OH213094   5.031   3.952   5.134
 4363TIP3    H113095   5.114   3.950   5.086
 4363TIP3    H213096   5.034   4.033   5.184
 4364TIP3   OH213097   1.617   5.787   2.639
 4364TIP3    H113098   1.689   5.847   2.620
 4364TIP3    H213099   1.660   5.702   2.650
 4365TIP3   OH213100   2.121   5.684   0.253
 4365TIP3    H113101   2.203   5.683   0.204
 4365TIP3    H213102   2.090   5.774   0.247
 4366TIP3   OH213103   2.640   1.256   1.003
 4366TIP3    H113104   2.669   1.348   0.999
 4366TIP3    H213105   2.701   1.210   0.945
 4367TIP3   OH213106   4.623   4.074   2.820
 4367TIP3    H113107   4.615   4.154   2.871
 4367TIP3    H213108   4.717   4.065   2.805
 4368TIP3   OH213109   0.422   1.011   1.602
 4368TIP3    H113110   0.453   1.023   1.512
 4368TIP3    H213111   0.501   0.994   1.653
 4369TIP3   OH213112   3.016   0.591   0.540
 4369TIP3    H113113   2.959   0.517   0.519
 4369TIP3    H213114   3.028   0.586   0.635
 4370TIP3   OH213115   2.725   5.912   0.310
 4370TIP3    H113116   2.808   5.897   0.354
 4370TIP3    H213117   2.749   5.939   0.221
 4371TIP3   OH213118   1.946   1.996   5.117
 4371TIP3    H113119   1.942   1.927   5.051
 4371TIP3    H213120   1.916   2.075   5.072
 4372TIP3   OH213121   4.560   0.551   0.130
 4372TIP3    H113122   4.572   0.641   0.158
 4372TIP3    H213123   4.465   0.536   0.136
 4373TIP3   OH213124   0.945   0.538   4.689
 4373TIP3    H113125   0.991   0.489   4.757
 4373TIP3    H213126   0.985   0.508   4.607
 4374TIP3   OH213127   2.329   5.332   0.913
 4374TIP3    H113128   2.309   5.250   0.867
 4374TIP3    H213129   2.425   5.335   0.914
 4375TIP3   OH213130   5.101   5.646   3.774
 4375TIP3    H113131   5.068   5.735   3.761
 4375TIP3    H213132   5.095   5.632   3.868
 4376TIP3   OH213133   5.087   2.432   4.992
 4376TIP3    H113134   5.156   2.469   4.937
 4376TIP3    H213135   5.134   2.375   5.053
 4377TIP3   OH213136   0.789   3.192   3.437
 4377TIP3    H113137   0.797   3.123   3.370
 4377TIP3    H213138   0.720   3.161   3.495
 4378TIP3   OH213139   1.806   4.367   0.326
 4378TIP3    H113140   1.753   4.333   0.398
 4378TIP3    H213141   1.871   4.422   0.370
 4379TIP3   OH213142   5.515   3.912   0.291
 4379TIP3    H113143   5.429   3.947   0.316
 4379TIP3    H213144   5.495   3.842   0.230
 4380TIP3   OH213145   2.021   3.392   4.547
 4380TIP3    H113146   1.947   3.332   4.542
 4380TIP3    H213147   2.092   3.340   4.587
 4381TIP3   OH213148   0.226   1.298   3.547
 4381TIP3    H113149   0.207   1.349   3.468
 4381TIP3    H213150   0.304   1.339   3.584
 4382TIP3   OH213151   5.084   5.157   3.473
 4382TIP3    H113152   5.051   5.229   3.421
 4382TIP3    H213153   5.180   5.165   3.469
 4383TIP3   OH213154   3.609   2.167   4.851
 4383TIP3    H113155   3.601   2.088   4.798
 4383TIP3    H213156   3.610   2.135   4.941
 4384TIP3   OH213157   0.314   3.812   1.919
 4384TIP3    H113158   0.304   3.854   1.834
 4384TIP3    H213159   0.404   3.779   1.919
 4385TIP3   OH213160   6.159   4.457   4.452
 4385TIP3    H113161   6.173   4.404   4.530
 4385TIP3    H213162   6.136   4.544   4.485
 4386TIP3   OH213163   4.066   5.677   0.143
 4386TIP3    H113164   3.976   5.709   0.138
 4386TIP3    H213165   4.109   5.716   0.067
 4387TIP3   OH213166   0.127   5.330   1.711
 4387TIP3    H113167   0.189   5.403   1.713
 4387TIP3    H213168   0.095   5.322   1.800
 4388TIP3   OH213169   5.906   3.360   2.936
 4388TIP3    H113170   5.851   3.338   2.861
 4388TIP3    H213171   5.849   3.412   2.993
 4389TIP3   OH213172   2.212   0.473   0.801
 4389TIP3    H113173   2.228   0.382   0.827
 4389TIP3    H213174   2.300   0.512   0.795
 4390TIP3   OH213175   1.874   1.041   1.737
 4390TIP3    H113176   1.796   1.091   1.760
 4390TIP3    H213177   1.945   1.105   1.741
 4391TIP3   OH213178   3.723   5.187   4.270
 4391TIP3    H113179   3.672   5.246   4.325
 4391TIP3    H213180   3.722   5.227   4.184
 4392TIP3   OH213181   2.392   0.633   3.750
 4392TIP3    H113182   2.381   0.727   3.763
 4392TIP3    H213183   2.463   0.625   3.687
 4393TIP3   OH213184   0.124   5.015   3.799
 4393TIP3    H113185   0.036   4.979   3.800
 4393TIP3    H213186   0.142   5.033   3.706
 4394TIP3   OH213187   3.333   0.315   0.861
 4394TIP3    H113188   3.271   0.307   0.934
 4394TIP3    H213189   3.400   0.249   0.879
 4395TIP3   OH213190   3.118   5.550   0.985
 4395TIP3    H113191   3.182   5.618   0.966
 4395TIP3    H213192   3.070   5.537   0.903
 4396TIP3   OH213193   0.959   3.830   1.866
 4396TIP3    H113194   0.871   3.865   1.879
 4396TIP3    H213195   1.010   3.864   1.940
 4397TIP3   OH213196   5.019   1.087   1.847
 4397TIP3    H113197   4.978   1.020   1.901
 4397TIP3    H213198   5.026   1.163   1.904
 4398TIP3   OH213199   3.196   2.450   3.187
 4398TIP3    H113200   3.103   2.455   3.210
 4398TIP3    H213201   3.232   2.384   3.247
 4399TIP3   OH213202   2.377   2.716   1.388
 4399TIP3    H113203   2.430   2.645   1.424
 4399TIP3    H213204   2.289   2.679   1.382
 4400TIP3   OH213205   2.166   3.892   3.352
 4400TIP3    H113206   2.169   3.931   3.439
 4400TIP3    H213207   2.134   3.803   3.366
 4401TIP3   OH213208   6.260   1.530   3.747
 4401TIP3    H113209   6.266   1.530   3.651
 4401TIP3    H213210   6.258   1.622   3.771
 4402TIP3   OH213211   4.776   4.844   4.977
 4402TIP3    H113212   4.687   4.846   5.013
 4402TIP3    H213213   4.775   4.908   4.906
 4403TIP3   OH213214   2.555   2.993   0.356
 4403TIP3    H113215   2.493   2.920   0.346
 4403TIP3    H213216   2.635   2.962   0.314
 4404TIP3   OH213217   3.647   2.184   2.625
 4404TIP3    H113218   3.661   2.095   2.657
 4404TIP3    H213219   3.698   2.189   2.545
 4405TIP3   OH213220   2.194   2.641   2.805
 4405TIP3    H113221   2.267   2.702   2.806
 4405TIP3    H213222   2.224   2.567   2.752
 4406TIP3   OH213223   1.079   3.227   4.377
 4406TIP3    H113224   1.143   3.297   4.392
 4406TIP3    H213225   0.997   3.273   4.363
 4407TIP3   OH213226   3.557   5.836   1.950
 4407TIP3    H113227   3.581   5.751   1.987
 4407TIP3    H213228   3.640   5.881   1.937
 4408TIP3   OH213229   0.773   2.780   2.464
 4408TIP3    H113230   0.799   2.850   2.523
 4408TIP3    H213231   0.854   2.757   2.418
 4409TIP3   OH213232   2.312   0.463   1.123
 4409TIP3    H113233   2.240   0.400   1.122
 4409TIP3    H213234   2.277   0.539   1.076
 4410TIP3   OH213235   1.586   2.914   3.229
 4410TIP3    H113236   1.492   2.897   3.222
 4410TIP3    H213237   1.593   3.009   3.222
 4411TIP3   OH213238   0.870   3.762   1.303
 4411TIP3    H113239   0.892   3.852   1.325
 4411TIP3    H213240   0.805   3.769   1.234
 4412TIP3   OH213241   3.567   2.251   3.000
 4412TIP3    H113242   3.646   2.199   2.998
 4412TIP3    H213243   3.560   2.281   3.091
 4413TIP3   OH213244   0.614   2.258   4.187
 4413TIP3    H113245   0.643   2.321   4.253
 4413TIP3    H213246   0.692   2.239   4.136
 4414TIP3   OH213247   5.824   1.866   1.414
 4414TIP3    H113248   5.862   1.895   1.331
 4414TIP3    H213249   5.861   1.778   1.427
 4415TIP3   OH213250   3.196   2.720   4.741
 4415TIP3    H113251   3.254   2.739   4.667
 4415TIP3    H213252   3.230   2.638   4.777
 4416TIP3   OH213253   3.010   4.447   0.457
 4416TIP3    H113254   2.968   4.413   0.536
 4416TIP3    H213255   2.980   4.390   0.387
 4417TIP3   OH213256   4.876   2.375   2.424
 4417TIP3    H113257   4.794   2.349   2.382
 4417TIP3    H213258   4.887   2.311   2.495
 4418TIP3   OH213259   1.029   1.016   3.685
 4418TIP3    H113260   0.950   1.070   3.681
 4418TIP3    H213261   0.997   0.928   3.703
 4419TIP3   OH213262   4.195   3.131   1.103
 4419TIP3    H113263   4.235   3.162   1.185
 4419TIP3    H213264   4.103   3.156   1.111
 4420TIP3   OH213265   0.509   0.637   3.578
 4420TIP3    H113266   0.490   0.566   3.639
 4420TIP3    H213267   0.506   0.596   3.492
 4421TIP3   OH213268   0.632   5.628   0.335
 4421TIP3    H113269   0.675   5.543   0.342
 4421TIP3    H213270   0.698   5.691   0.363
 4422TIP3   OH213271   1.949   0.285   0.758
 4422TIP3    H113272   2.035   0.249   0.781
 4422TIP3    H213273   1.889   0.211   0.768
 4423TIP3   OH213274   0.278   1.646   3.549
 4423TIP3    H113275   0.262   1.731   3.509
 4423TIP3    H213276   0.191   1.610   3.566
 4424TIP3   OH213277   2.455   1.114   4.594
 4424TIP3    H113278   2.397   1.063   4.538
 4424TIP3    H213279   2.441   1.205   4.567
 4425TIP3   OH213280   4.242   3.981   1.772
 4425TIP3    H113281   4.173   3.918   1.755
 4425TIP3    H213282   4.323   3.936   1.748
 4426TIP3   OH213283   0.691   5.558   4.971
 4426TIP3    H113284   0.786   5.559   4.958
 4426TIP3    H213285   0.675   5.481   5.025
 4427TIP3   OH213286   0.791   4.657   2.374
 4427TIP3    H113287   0.750   4.685   2.456
 4427TIP3    H213288   0.779   4.731   2.315
 4428TIP3   OH213289   3.517   1.648   0.398
 4428TIP3    H113290   3.583   1.580   0.382
 4428TIP3    H213291   3.567   1.727   0.416
 4429TIP3   OH213292   4.487   5.540   1.103
 4429TIP3    H113293   4.579   5.521   1.086
 4429TIP3    H213294   4.476   5.632   1.079
 4430TIP3   OH213295   4.127   1.652   3.180
 4430TIP3    H113296   4.116   1.726   3.239
 4430TIP3    H213297   4.048   1.653   3.126
 4431TIP3   OH213298   3.176   2.251   0.450
 4431TIP3    H113299   3.183   2.346   0.450
 4431TIP3    H213300   3.119   2.231   0.525
 4432TIP3   OH213301   5.777   3.026   1.757
 4432TIP3    H113302   5.771   3.122   1.764
 4432TIP3    H213303   5.765   2.995   1.847
 4433TIP3   OH213304   5.803   0.716  -0.006
 4433TIP3    H113305   5.834   0.644   0.048
 4433TIP3    H213306   5.850   0.706  -0.089
 4434TIP3   OH213307   0.892   1.908   3.860
 4434TIP3    H113308   0.804   1.876   3.882
 4434TIP3    H213309   0.904   1.884   3.768
 4435TIP3   OH213310   3.038   1.550   1.343
 4435TIP3    H113311   3.055   1.599   1.262
 4435TIP3    H213312   3.066   1.461   1.323
 4436TIP3   OH213313   0.427   3.277   3.644
 4436TIP3    H113314   0.462   3.356   3.603
 4436TIP3    H213315   0.333   3.280   3.628
 4437TIP3   OH213316   1.723   2.858   3.701
 4437TIP3    H113317   1.761   2.779   3.737
 4437TIP3    H213318   1.766   2.869   3.616
 4438TIP3   OH213319   1.834   2.497   0.532
 4438TIP3    H113320   1.775   2.443   0.585
 4438TIP3    H213321   1.919   2.488   0.574
 4439TIP3   OH213322   3.486   0.127   4.960
 4439TIP3    H113323   3.553   0.067   4.927
 4439TIP3    H213324   3.443   0.160   4.881
 4440TIP3   OH213325   1.851   2.036   1.146
 4440TIP3    H113326   1.818   2.051   1.057
 4440TIP3    H213327   1.903   1.956   1.139
 4441TIP3   OH213328   4.931   4.334   3.332
 4441TIP3    H113329   4.985   4.258   3.311
 4441TIP3    H213330   4.961   4.361   3.419
 4442TIP3   OH213331   4.239   1.005   4.224
 4442TIP3    H113332   4.184   1.060   4.279
 4442TIP3    H213333   4.217   1.030   4.134
 4443TIP3   OH213334   3.201   4.237   1.276
 4443TIP3    H113335   3.130   4.236   1.211
 4443TIP3    H213336   3.279   4.215   1.225
 4444TIP3   OH213337   4.281   1.666   4.363
 4444TIP3    H113338   4.308   1.709   4.282
 4444TIP3    H213339   4.242   1.736   4.415
 4445TIP3   OH213340   5.944   4.135   3.568
 4445TIP3    H113341   5.976   4.183   3.644
 4445TIP3    H213342   5.888   4.066   3.604
 4446TIP3   OH213343   5.707   4.542   1.612
 4446TIP3    H113344   5.735   4.545   1.520
 4446TIP3    H213345   5.695   4.634   1.636
 4447TIP3   OH213346   4.784   2.833   1.708
 4447TIP3    H113347   4.792   2.777   1.785
 4447TIP3    H213348   4.778   2.922   1.743
 4448TIP3   OH213349   3.223   0.601   4.140
 4448TIP3    H113350   3.276   0.597   4.061
 4448TIP3    H213351   3.220   0.510   4.172
 4449TIP3   OH213352   1.986   5.976   2.925
 4449TIP3    H113353   1.989   5.889   2.887
 4449TIP3    H213354   2.009   6.035   2.854
 4450TIP3   OH213355   2.067   0.805   3.841
 4450TIP3    H113356   2.081   0.849   3.925
 4450TIP3    H213357   2.095   0.869   3.776
 4451TIP3   OH213358   0.785   4.174   4.757
 4451TIP3    H113359   0.786   4.248   4.696
 4451TIP3    H213360   0.694   4.142   4.753
 4452TIP3   OH213361   2.137   2.507   3.852
 4452TIP3    H113362   2.079   2.474   3.784
 4452TIP3    H213363   2.093   2.586   3.886
 4453TIP3   OH213364   1.464   3.304   5.103
 4453TIP3    H113365   1.536   3.274   5.047
 4453TIP3    H213366   1.404   3.230   5.107
 4454TIP3   OH213367   5.339   2.248   3.947
 4454TIP3    H113368   5.434   2.258   3.940
 4454TIP3    H213369   5.325   2.153   3.942
 4455TIP3   OH213370   5.749   4.168   2.217
 4455TIP3    H113371   5.720   4.133   2.133
 4455TIP3    H213372   5.796   4.095   2.259
 4456TIP3   OH213373   2.925   4.644   2.490
 4456TIP3    H113374   2.979   4.715   2.525
 4456TIP3    H213375   2.961   4.565   2.530
 4457TIP3   OH213376   0.582   3.784   4.886
 4457TIP3    H113377   0.597   3.785   4.980
 4457TIP3    H213378   0.668   3.767   4.848
 4458TIP3   OH213379   3.349   0.622   1.365
 4458TIP3    H113380   3.333   0.594   1.275
 4458TIP3    H213381   3.262   0.647   1.398
 4459TIP3   OH213382   4.365   0.948   2.380
 4459TIP3    H113383   4.402   0.970   2.295
 4459TIP3    H213384   4.436   0.963   2.442
 4460TIP3   OH213385   4.661   4.926   3.391
 4460TIP3    H113386   4.740   4.926   3.338
 4460TIP3    H213387   4.682   4.869   3.465
 4461TIP3   OH213388   4.314   2.918   0.268
 4461TIP3    H113389   4.406   2.941   0.275
 4461TIP3    H213390   4.301   2.851   0.336
 4462TIP3   OH213391   2.740   2.529   3.790
 4462TIP3    H113392   2.807   2.460   3.795
 4462TIP3    H213393   2.728   2.557   3.881
 4463TIP3   OH213394   1.787   1.052   2.714
 4463TIP3    H113395   1.827   1.103   2.785
 4463TIP3    H213396   1.803   1.103   2.635
 4464TIP3   OH213397   1.009   4.844   2.209
 4464TIP3    H113398   0.999   4.882   2.297
 4464TIP3    H213399   0.923   4.857   2.168
 4465TIP3   OH213400   0.882   4.163   1.807
 4465TIP3    H113401   0.936   4.142   1.883
 4465TIP3    H213402   0.792   4.143   1.835
 4466TIP3   OH213403   4.718   2.127   2.830
 4466TIP3    H113404   4.685   2.202   2.880
 4466TIP3    H213405   4.714   2.053   2.891
 4467TIP3   OH213406   1.783   2.661   4.431
 4467TIP3    H113407   1.775   2.730   4.497
 4467TIP3    H213408   1.862   2.613   4.457
 4468TIP3   OH213409   0.815   3.932   0.432
 4468TIP3    H113410   0.852   3.875   0.365
 4468TIP3    H213411   0.852   3.901   0.514
 4469TIP3   OH213412   3.439   4.426   0.506
 4469TIP3    H113413   3.391   4.346   0.484
 4469TIP3    H213414   3.381   4.497   0.479
 4470TIP3   OH213415   2.757   1.568   0.142
 4470TIP3    H113416   2.747   1.619   0.222
 4470TIP3    H213417   2.668   1.558   0.108
 4471TIP3   OH213418   2.108   4.617   3.164
 4471TIP3    H113419   2.103   4.640   3.256
 4471TIP3    H213420   2.124   4.522   3.164
 4472TIP3   OH213421   2.881   5.315   3.498
 4472TIP3    H113422   2.916   5.254   3.563
 4472TIP3    H213423   2.789   5.326   3.522
 4473TIP3   OH213424   2.020   4.648   2.909
 4473TIP3    H113425   2.102   4.669   2.865
 4473TIP3    H213426   2.044   4.635   3.000
 4474TIP3   OH213427   4.497   3.219   0.129
 4474TIP3    H113428   4.544   3.293   0.092
 4474TIP3    H213429   4.404   3.241   0.118
 4475TIP3   OH213430   0.938   3.120   0.648
 4475TIP3    H113431   0.880   3.136   0.723
 4475TIP3    H213432   0.902   3.041   0.608
 4476TIP3   OH213433   3.392   5.357   4.649
 4476TIP3    H113434   3.351   5.345   4.735
 4476TIP3    H213435   3.480   5.390   4.669
 4477TIP3   OH213436   3.792   6.030   3.010
 4477TIP3    H113437   3.713   6.007   2.961
 4477TIP3    H213438   3.770   6.008   3.101
 4478TIP3   OH213439   2.597   1.352   3.602
 4478TIP3    H113440   2.676   1.332   3.552
 4478TIP3    H213441   2.613   1.313   3.688
 4479TIP3   OH213442   5.974   2.379   5.089
 4479TIP3    H113443   5.965   2.439   5.163
 4479TIP3    H213444   6.025   2.306   5.124
 4480TIP3   OH213445   0.850   5.013   5.046
 4480TIP3    H113446   0.875   4.996   4.955
 4480TIP3    H213447   0.776   5.074   5.039
 4481TIP3   OH213448   1.610   3.960   4.570
 4481TIP3    H113449   1.596   3.904   4.646
 4481TIP3    H213450   1.601   4.049   4.603
 4482TIP3   OH213451   1.166   5.242   3.597
 4482TIP3    H113452   1.244   5.210   3.552
 4482TIP3    H213453   1.126   5.303   3.535
 4483TIP3   OH213454   0.506   0.294   5.134
 4483TIP3    H113455   0.472   0.236   5.202
 4483TIP3    H213456   0.567   0.240   5.084
 4484TIP3   OH213457   6.278   5.537   3.971
 4484TIP3    H113458   6.299   5.464   3.913
 4484TIP3    H213459   6.276   5.614   3.914
 4485TIP3   OH213460   3.210   1.518   1.701
 4485TIP3    H113461   3.216   1.581   1.629
 4485TIP3    H213462   3.123   1.479   1.691
 4486TIP3   OH213463   0.237   5.122   5.077
 4486TIP3    H113464   0.152   5.090   5.047
 4486TIP3    H213465   0.299   5.052   5.056
 4487TIP3   OH213466   4.279   0.154   4.071
 4487TIP3    H113467   4.192   0.190   4.086
 4487TIP3    H213468   4.273   0.064   4.105
 4488TIP3   OH213469   6.189   5.497   0.078
 4488TIP3    H113470   6.234   5.414   0.097
 4488TIP3    H213471   6.096   5.473   0.077
 4489TIP3   OH213472   2.520   1.158   1.631
 4489TIP3    H113473   2.530   1.252   1.640
 4489TIP3    H213474   2.446   1.136   1.687
 4490TIP3   OH213475   3.555   3.751   3.196
 4490TIP3    H113476   3.500   3.787   3.265
 4490TIP3    H213477   3.618   3.821   3.177
 4491TIP3   OH213478   2.488   1.146   0.000
 4491TIP3    H113479   2.492   1.241   0.015
 4491TIP3    H213480   2.536   1.109   0.074
 4492TIP3   OH213481   0.194   4.058   0.507
 4492TIP3    H113482   0.251   4.124   0.470
 4492TIP3    H213483   0.108   4.076   0.468
 4493TIP3   OH213484   2.408   5.382   2.271
 4493TIP3    H113485   2.451   5.438   2.336
 4493TIP3    H213486   2.315   5.393   2.288
 4494TIP3   OH213487   2.183   1.114   0.827
 4494TIP3    H113488   2.124   1.178   0.786
 4494TIP3    H213489   2.270   1.144   0.803
 4495TIP3   OH213490   5.656   4.404   3.809
 4495TIP3    H113491   5.627   4.414   3.718
 4495TIP3    H213492   5.610   4.326   3.840
 4496TIP3   OH213493   2.452   5.787   1.473
 4496TIP3    H113494   2.422   5.699   1.497
 4496TIP3    H213495   2.511   5.813   1.544
 4497TIP3   OH213496   1.502   4.811   1.992
 4497TIP3    H113497   1.553   4.889   1.972
 4497TIP3    H213498   1.450   4.835   2.069
 4498TIP3   OH213499   0.635   4.050   1.490
 4498TIP3    H113500   0.594   4.098   1.562
 4498TIP3    H213501   0.646   3.961   1.524
 4499TIP3   OH213502   3.135   3.693   3.398
 4499TIP3    H113503   3.144   3.748   3.320
 4499TIP3    H213504   3.224   3.663   3.416
 4500TIP3   OH213505   5.025   2.907   0.755
 4500TIP3    H113506   4.960   2.901   0.685
 4500TIP3    H213507   4.973   2.919   0.834
 4501TIP3   OH213508   4.164   4.109   4.541
 4501TIP3    H113509   4.097   4.174   4.522
 4501TIP3    H213510   4.231   4.156   4.589
 4502TIP3   OH213511   3.260   3.084   4.977
 4502TIP3    H113512   3.217   3.040   4.903
 4502TIP3    H213513   3.189   3.119   5.029
 4503TIP3   OH213514   3.687   4.827   4.805
 4503TIP3    H113515   3.749   4.867   4.867
 4503TIP3    H213516   3.723   4.848   4.719
 4504TIP3   OH213517   5.736   4.033   0.183
 4504TIP3    H113518   5.813   4.028   0.239
 4504TIP3    H213519   5.671   3.976   0.225
 4505TIP3   OH213520   1.904   2.524   2.029
 4505TIP3    H113521   1.992   2.494   2.053
 4505TIP3    H213522   1.909   2.539   1.934
 4506TIP3   OH213523   2.235   4.247   3.459
 4506TIP3    H113524   2.329   4.253   3.443
 4506TIP3    H213525   2.225   4.273   3.551
 4507TIP3   OH213526   5.319   2.556   3.058
 4507TIP3    H113527   5.373   2.635   3.065
 4507TIP3    H213528   5.359   2.494   3.119
 4508TIP3   OH213529   4.904   2.660   3.598
 4508TIP3    H113530   4.986   2.662   3.550
 4508TIP3    H213531   4.839   2.631   3.534
 4509TIP3   OH213532   4.282   4.190   1.446
 4509TIP3    H113533   4.293   4.192   1.351
 4509TIP3    H213534   4.207   4.133   1.460
 4510TIP3   OH213535   1.838   3.065   0.194
 4510TIP3    H113536   1.867   3.008   0.264
 4510TIP3    H213537   1.758   3.106   0.228
 4511TIP3   OH213538   2.913   0.632   2.540
 4511TIP3    H113539   2.997   0.590   2.559
 4511TIP3    H213540   2.904   0.699   2.608
 4512TIP3   OH213541   2.090   5.327   4.199
 4512TIP3    H113542   2.006   5.290   4.173
 4512TIP3    H213543   2.115   5.277   4.277
 4513TIP3   OH213544   0.839   3.957   5.087
 4513TIP3    H113545   0.870   3.986   5.001
 4513TIP3    H213546   0.787   4.030   5.120
 4514TIP3   OH213547   2.947   2.624   4.191
 4514TIP3    H113548   2.929   2.530   4.192
 4514TIP3    H213549   2.949   2.649   4.283
 4515TIP3   OH213550   3.567   5.421   3.603
 4515TIP3    H113551   3.636   5.379   3.654
 4515TIP3    H213552   3.485   5.387   3.640
 4516TIP3   OH213553   4.864   5.503   4.765
 4516TIP3    H113554   4.870   5.525   4.858
 4516TIP3    H213555   4.945   5.537   4.727
 4517TIP3   OH213556   2.266   1.728   0.183
 4517TIP3    H113557   2.328   1.801   0.185
 4517TIP3    H213558   2.192   1.757   0.236
 4518TIP3   OH213559   2.545   0.618   3.208
 4518TIP3    H113560   2.548   0.526   3.180
 4518TIP3    H213561   2.468   0.624   3.264
 4519TIP3   OH213562   5.940   0.544   1.355
 4519TIP3    H113563   5.871   0.485   1.386
 4519TIP3    H213564   5.987   0.493   1.288
 4520TIP3   OH213565   3.773   5.755   0.093
 4520TIP3    H113566   3.714   5.681   0.082
 4520TIP3    H213567   3.732   5.808   0.162
 4521TIP3   OH213568   1.666   3.514   4.929
 4521TIP3    H113569   1.760   3.495   4.939
 4521TIP3    H213570   1.625   3.428   4.921
 4522TIP3   OH213571   4.237   1.347   0.525
 4522TIP3    H113572   4.236   1.278   0.592
 4522TIP3    H213573   4.180   1.416   0.561
 4523TIP3   OH213574   4.517   3.285   2.594
 4523TIP3    H113575   4.514   3.337   2.514
 4523TIP3    H213576   4.449   3.218   2.582
 4524TIP3   OH213577   0.118   1.200   2.912
 4524TIP3    H113578   0.165   1.274   2.874
 4524TIP3    H213579   0.026   1.226   2.909
 4525TIP3   OH213580   2.108   2.084   1.708
 4525TIP3    H113581   2.021   2.121   1.716
 4525TIP3    H213582   2.166   2.159   1.701
 4526TIP3   OH213583   0.746   3.034   4.578
 4526TIP3    H113584   0.654   3.058   4.589
 4526TIP3    H213585   0.794   3.116   4.586
 4527TIP3   OH213586   3.517   2.951   4.333
 4527TIP3    H113587   3.565   2.871   4.315
 4527TIP3    H213588   3.426   2.922   4.346
 4528TIP3   OH213589   5.537   3.397   4.793
 4528TIP3    H113590   5.563   3.310   4.764
 4528TIP3    H213591   5.484   3.431   4.721
 4529TIP3   OH213592   0.673   1.770   0.806
 4529TIP3    H113593   0.760   1.789   0.841
 4529TIP3    H213594   0.618   1.762   0.884
 4530TIP3   OH213595   0.308   5.434   0.128
 4530TIP3    H113596   0.380   5.458   0.070
 4530TIP3    H213597   0.240   5.499   0.110
 4531TIP3   OH213598   3.320   1.174   2.624
 4531TIP3    H113599   3.381   1.117   2.577
 4531TIP3    H213600   3.374   1.223   2.685
 4532TIP3   OH213601   3.758   4.816   0.598
 4532TIP3    H113602   3.814   4.790   0.670
 4532TIP3    H213603   3.809   4.882   0.550
 4533TIP3   OH213604   4.505   0.141   4.975
 4533TIP3    H113605   4.556   0.060   4.981
 4533TIP3    H213606   4.487   0.164   5.066
 4534TIP3   OH213607   2.932   3.061   4.273
 4534TIP3    H113608   3.007   3.007   4.246
 4534TIP3    H213609   2.856   3.003   4.262
 4535TIP3   OH213610   2.128   3.658   0.473
 4535TIP3    H113611   2.112   3.735   0.418
 4535TIP3    H213612   2.041   3.622   0.490
 4536TIP3   OH213613   3.538   3.533   4.707
 4536TIP3    H113614   3.548   3.554   4.614
 4536TIP3    H213615   3.571   3.444   4.715
 4537TIP3   OH213616   2.752   1.727   4.751
 4537TIP3    H113617   2.697   1.701   4.677
 4537TIP3    H213618   2.831   1.674   4.742
 4538TIP3   OH213619   1.567   3.680   0.553
 4538TIP3    H113620   1.563   3.767   0.591
 4538TIP3    H213621   1.519   3.625   0.615
 4539TIP3   OH213622   3.076   2.582   3.699
 4539TIP3    H113623   3.154   2.622   3.738
 4539TIP3    H213624   3.007   2.596   3.764
 4540TIP3   OH213625   1.938   3.329   0.296
 4540TIP3    H113626   1.850   3.354   0.325
 4540TIP3    H213627   1.939   3.349   0.203
 4541TIP3   OH213628   2.474   5.429   1.326
 4541TIP3    H113629   2.456   5.475   1.408
 4541TIP3    H213630   2.510   5.495   1.268
 4542TIP3   OH213631   2.204   4.364   0.177
 4542TIP3    H113632   2.215   4.301   0.248
 4542TIP3    H213633   2.152   4.318   0.111
 4543TIP3   OH213634   5.199   4.014   0.110
 4543TIP3    H113635   5.266   3.993   0.045
 4543TIP3    H213636   5.158   3.929   0.129
 4544TIP3   OH213637   0.922   1.013   4.618
 4544TIP3    H113638   0.861   0.939   4.625
 4544TIP3    H213639   0.884   1.081   4.673
 4545TIP3   OH213640   6.294   3.090   2.031
 4545TIP3    H113641   6.383   3.076   2.063
 4545TIP3    H213642   6.277   3.016   1.974
 4546TIP3   OH213643   1.162   3.714   0.921
 4546TIP3    H113644   1.137   3.795   0.965
 4546TIP3    H213645   1.244   3.736   0.877
 4547TIP3   OH213646   1.838   1.226   2.519
 4547TIP3    H113647   1.889   1.307   2.527
 4547TIP3    H213648   1.896   1.165   2.475
 4548TIP3   OH213649   1.981   1.341   4.837
 4548TIP3    H113650   2.052   1.293   4.795
 4548TIP3    H213651   1.970   1.297   4.921
 4549TIP3   OH213652   3.659   4.417   4.280
 4549TIP3    H113653   3.730   4.428   4.217
 4549TIP3    H213654   3.653   4.502   4.324
 4550TIP3   OH213655   2.295   2.109   2.694
 4550TIP3    H113656   2.279   2.144   2.782
 4550TIP3    H213657   2.232   2.037   2.685
 4551TIP3   OH213658   2.780   4.767   1.355
 4551TIP3    H113659   2.862   4.815   1.345
 4551TIP3    H213660   2.768   4.760   1.450
 4552TIP3   OH213661   5.061   2.719   5.172
 4552TIP3    H113662   5.048   2.625   5.162
 4552TIP3    H213663   5.023   2.758   5.093
 4553TIP3   OH213664   4.889   5.731   2.645
 4553TIP3    H113665   4.896   5.636   2.641
 4553TIP3    H213666   4.954   5.757   2.710
 4554TIP3   OH213667   2.994   0.246   5.129
 4554TIP3    H113668   3.006   0.216   5.220
 4554TIP3    H213669   3.081   0.272   5.101
 4555TIP3   OH213670   5.659   4.587   2.648
 4555TIP3    H113671   5.636   4.643   2.574
 4555TIP3    H213672   5.577   4.542   2.671
 4556TIP3   OH213673   5.702   1.910   5.001
 4556TIP3    H113674   5.609   1.922   4.984
 4556TIP3    H213675   5.745   1.978   4.948
 4557TIP3   OH213676   4.971   3.609   4.871
 4557TIP3    H113677   4.892   3.588   4.821
 4557TIP3    H213678   4.949   3.691   4.916
 4558TIP3   OH213679   0.532   1.858   4.928
 4558TIP3    H113680   0.621   1.846   4.895
 4558TIP3    H213681   0.540   1.925   4.996
 4559TIP3   OH213682   2.322   3.433   2.298
 4559TIP3    H113683   2.314   3.338   2.289
 4559TIP3    H213684   2.395   3.445   2.359
 4560TIP3   OH213685   6.271   2.766   4.027
 4560TIP3    H113686   6.323   2.723   3.960
 4560TIP3    H213687   6.249   2.696   4.089
 4561TIP3   OH213688   6.243   4.384   1.876
 4561TIP3    H113689   6.150   4.379   1.899
 4561TIP3    H213690   6.244   4.384   1.781
 4562TIP3   OH213691   3.870   2.330   1.371
 4562TIP3    H113692   3.870   2.235   1.384
 4562TIP3    H213693   3.822   2.343   1.289
 4563TIP3   OH213694   0.418   0.941   2.396
 4563TIP3    H113695   0.350   0.982   2.450
 4563TIP3    H213696   0.371   0.909   2.319
 4564TIP3   OH213697   2.939   4.065   4.119
 4564TIP3    H113698   3.033   4.055   4.132
 4564TIP3    H213699   2.915   3.994   4.060
 4565TIP3   OH213700   1.581   4.967   0.614
 4565TIP3    H113701   1.650   4.929   0.669
 4565TIP3    H213702   1.501   4.957   0.665
 4566TIP3   OH213703   6.224   5.715   2.081
 4566TIP3    H113704   6.209   5.673   2.166
 4566TIP3    H213705   6.208   5.645   2.017
 4567TIP3   OH213706   4.936   3.969   2.493
 4567TIP3    H113707   4.903   3.905   2.555
 4567TIP3    H213708   4.858   4.013   2.459
 4568TIP3   OH213709   3.185   3.925   2.443
 4568TIP3    H113710   3.211   3.835   2.465
 4568TIP3    H213711   3.157   3.963   2.526
 4569TIP3   OH213712   3.459   3.637   0.816
 4569TIP3    H113713   3.428   3.723   0.847
 4569TIP3    H213714   3.392   3.609   0.754
 4570TIP3   OH213715   2.751   4.353   4.190
 4570TIP3    H113716   2.812   4.425   4.178
 4570TIP3    H213717   2.668   4.386   4.156
 4571TIP3   OH213718   3.656   2.341   3.532
 4571TIP3    H113719   3.602   2.406   3.486
 4571TIP3    H213720   3.655   2.371   3.623
 4572TIP3   OH213721   3.461   5.759   2.837
 4572TIP3    H113722   3.375   5.718   2.829
 4572TIP3    H213723   3.513   5.720   2.767
 4573TIP3   OH213724   3.017   2.245   0.669
 4573TIP3    H113725   2.974   2.201   0.743
 4573TIP3    H213726   2.954   2.311   0.640
 4574TIP3   OH213727   3.721   1.793   0.893
 4574TIP3    H113728   3.756   1.765   0.809
 4574TIP3    H213729   3.749   1.725   0.955
 4575TIP3   OH213730   4.617   0.234   3.455
 4575TIP3    H113731   4.609   0.156   3.509
 4575TIP3    H213732   4.699   0.222   3.407
 4576TIP3   OH213733   5.173   3.964   1.424
 4576TIP3    H113734   5.238   3.929   1.484
 4576TIP3    H213735   5.105   4.001   1.480
 4577TIP3   OH213736   0.430   1.524   1.018
 4577TIP3    H113737   0.373   1.530   0.942
 4577TIP3    H213738   0.461   1.614   1.032
 4578TIP3   OH213739   4.482   0.286   4.179
 4578TIP3    H113740   4.429   0.239   4.114
 4578TIP3    H213741   4.447   0.258   4.264
 4579TIP3   OH213742   2.683   3.671   0.152
 4579TIP3    H113743   2.756   3.636   0.203
 4579TIP3    H213744   2.695   3.766   0.156
 4580TIP3   OH213745   4.418   3.652   3.985
 4580TIP3    H113746   4.461   3.585   4.038
 4580TIP3    H213747   4.387   3.717   4.048
 4581TIP3   OH213748   4.287   3.564   0.513
 4581TIP3    H113749   4.223   3.629   0.484
 4581TIP3    H213750   4.317   3.595   0.598
 4582TIP3   OH213751   2.655   3.171   3.202
 4582TIP3    H113752   2.633   3.262   3.225
 4582TIP3    H213753   2.570   3.128   3.192
 4583TIP3   OH213754   5.266   4.839   1.760
 4583TIP3    H113755   5.212   4.889   1.699
 4583TIP3    H213756   5.203   4.796   1.818
 4584TIP3   OH213757   3.765   2.694   0.433
 4584TIP3    H113758   3.773   2.730   0.521
 4584TIP3    H213759   3.781   2.601   0.444
 4585TIP3   OH213760   5.906   0.479   0.295
 4585TIP3    H113761   5.898   0.434   0.379
 4585TIP3    H213762   5.824   0.459   0.249
 4586TIP3   OH213763   3.333   4.110   3.949
 4586TIP3    H113764   3.324   4.159   4.031
 4586TIP3    H213765   3.422   4.076   3.951
 4587TIP3   OH213766   1.172   5.666   1.519
 4587TIP3    H113767   1.155   5.758   1.539
 4587TIP3    H213768   1.267   5.660   1.511
 4588TIP3   OH213769   1.484   3.548   1.868
 4588TIP3    H113770   1.549   3.592   1.813
 4588TIP3    H213771   1.402   3.593   1.848
 4589TIP3   OH213772   3.855   0.249   2.850
 4589TIP3    H113773   3.947   0.242   2.827
 4589TIP3    H213774   3.840   0.343   2.859
 4590TIP3   OH213775   3.911   4.363   2.023
 4590TIP3    H113776   3.864   4.287   1.988
 4590TIP3    H213777   3.943   4.334   2.108
 4591TIP3   OH213778  -0.015   0.755   0.683
 4591TIP3    H113779  -0.030   0.749   0.778
 4591TIP3    H213780  -0.063   0.833   0.656
 4592TIP3   OH213781   2.810   5.493   1.835
 4592TIP3    H113782   2.823   5.557   1.765
 4592TIP3    H213783   2.880   5.429   1.823
 4593TIP3   OH213784   2.499   0.983   0.689
 4593TIP3    H113785   2.455   1.053   0.737
 4593TIP3    H213786   2.444   0.906   0.702
 4594TIP3   OH213787   3.773   5.613   4.400
 4594TIP3    H113788   3.734   5.543   4.451
 4594TIP3    H213789   3.810   5.569   4.323
 4595TIP3   OH213790   0.852   5.064   1.430
 4595TIP3    H113791   0.851   5.146   1.380
 4595TIP3    H213792   0.900   5.085   1.510
 4596TIP3   OH213793   4.855   3.009   0.982
 4596TIP3    H113794   4.833   3.079   1.045
 4596TIP3    H213795   4.840   2.928   1.031
 4597TIP3   OH213796   1.796   4.055   0.734
 4597TIP3    H113797   1.839   4.126   0.781
 4597TIP3    H213798   1.846   4.044   0.653
 4598TIP3   OH213799   2.224   4.086   1.015
 4598TIP3    H113800   2.231   4.182   1.017
 4598TIP3    H213801   2.256   4.058   1.101
 4599TIP3   OH213802   4.983   0.088   4.453
 4599TIP3    H113803   5.016   0.168   4.413
 4599TIP3    H213804   4.999   0.100   4.547
 4600TIP3   OH213805   3.747   1.910   2.612
 4600TIP3    H113806   3.835   1.929   2.643
 4600TIP3    H213807   3.710   1.852   2.678
 4601TIP3   OH213808   0.844   4.365   3.459
 4601TIP3    H113809   0.772   4.387   3.399
 4601TIP3    H213810   0.911   4.431   3.442
 4602TIP3   OH213811   5.974   3.185   3.151
 4602TIP3    H113812   5.949   3.230   3.070
 4602TIP3    H213813   5.933   3.099   3.144
 4603TIP3   OH213814   4.976   1.188   1.452
 4603TIP3    H113815   4.924   1.118   1.492
 4603TIP3    H213816   5.053   1.196   1.509
 4604TIP3   OH213817   4.074   1.137   1.301
 4604TIP3    H113818   4.092   1.064   1.360
 4604TIP3    H213819   4.085   1.101   1.213
 4605TIP3   OH213820   4.607   1.567   2.963
 4605TIP3    H113821   4.627   1.473   2.960
 4605TIP3    H213822   4.540   1.574   3.032
 4606TIP3   OH213823   2.190   2.429   3.167
 4606TIP3    H113824   2.256   2.497   3.161
 4606TIP3    H213825   2.126   2.451   3.098
 4607TIP3   OH213826   2.426   3.221   3.483
 4607TIP3    H113827   2.473   3.285   3.429
 4607TIP3    H213828   2.389   3.273   3.555
 4608TIP3   OH213829   1.017   0.428   4.451
 4608TIP3    H113830   1.078   0.361   4.420
 4608TIP3    H213831   1.056   0.511   4.421
 4609TIP3   OH213832   1.708   3.141   3.760
 4609TIP3    H113833   1.716   3.046   3.752
 4609TIP3    H213834   1.643   3.154   3.830
 4610TIP3   OH213835   1.445   0.256   3.758
 4610TIP3    H113836   1.532   0.216   3.758
 4610TIP3    H213837   1.462   0.350   3.766
 4611TIP3   OH213838   1.192   0.950   5.116
 4611TIP3    H113839   1.110   0.976   5.073
 4611TIP3    H213840   1.241   0.905   5.048
 4612TIP3   OH213841   6.069   0.646   3.583
 4612TIP3    H113842   6.030   0.732   3.565
 4612TIP3    H213843   6.159   0.653   3.552
 4613TIP3   OH213844   5.184   4.523   4.349
 4613TIP3    H113845   5.257   4.539   4.289
 4613TIP3    H213846   5.200   4.436   4.384
 4614TIP3   OH213847   0.604   0.201   0.968
 4614TIP3    H113848   0.578   0.217   0.878
 4614TIP3    H213849   0.668   0.129   0.963
 4615TIP3   OH213850   2.712   4.479   2.405
 4615TIP3    H113851   2.751   4.558   2.444
 4615TIP3    H213852   2.618   4.494   2.410
 4616TIP3   OH213853   0.627   2.124   1.852
 4616TIP3    H113854   0.669   2.150   1.935
 4616TIP3    H213855   0.543   2.088   1.878
 4617TIP3   OH213856   5.143   5.034   1.593
 4617TIP3    H113857   5.105   4.994   1.515
 4617TIP3    H213858   5.071   5.084   1.633
 4618TIP3   OH213859   1.048   3.408   3.749
 4618TIP3    H113860   1.043   3.392   3.655
 4618TIP3    H213861   0.986   3.346   3.788
 4619TIP3   OH213862   3.620   3.587   2.425
 4619TIP3    H113863   3.545   3.636   2.390
 4619TIP3    H213864   3.692   3.606   2.364
 4620TIP3   OH213865   1.668   5.218   1.408
 4620TIP3    H113866   1.617   5.299   1.410
 4620TIP3    H213867   1.666   5.191   1.316
 4621TIP3   OH213868   4.874   1.958   4.823
 4621TIP3    H113869   4.809   1.991   4.761
 4621TIP3    H213870   4.873   1.863   4.809
 4622TIP3   OH213871   5.051   3.514   5.109
 4622TIP3    H113872   5.047   3.551   5.020
 4622TIP3    H213873   5.037   3.589   5.166
 4623TIP3   OH213874   2.604   2.697   2.199
 4623TIP3    H113875   2.518   2.734   2.181
 4623TIP3    H213876   2.640   2.752   2.268
 4624TIP3   OH213877   5.572   4.687   2.339
 4624TIP3    H113878   5.602   4.596   2.341
 4624TIP3    H213879   5.627   4.729   2.272
 4625TIP3   OH213880   0.222   5.002   1.408
 4625TIP3    H113881   0.147   5.056   1.433
 4625TIP3    H213882   0.234   5.021   1.315
 4626TIP3   OH213883   2.462   4.945   2.446
 4626TIP3    H113884   2.497   5.015   2.391
 4626TIP3    H213885   2.535   4.885   2.458
 4627TIP3   OH213886   4.836   5.878   2.941
 4627TIP3    H113887   4.922   5.881   2.899
 4627TIP3    H213888   4.789   5.808   2.895
 4628TIP3   OH213889   2.814   0.164   1.001
 4628TIP3    H113890   2.761   0.119   1.067
 4628TIP3    H213891   2.900   0.123   1.008
 4629TIP3   OH213892   2.437   4.746   0.588
 4629TIP3    H113893   2.374   4.675   0.605
 4629TIP3    H213894   2.521   4.701   0.576
 4630TIP3   OH213895   4.136   5.738   0.640
 4630TIP3    H113896   4.218   5.700   0.609
 4630TIP3    H213897   4.071   5.709   0.575
 4631TIP3   OH213898   3.589   1.886   5.100
 4631TIP3    H113899   3.571   1.794   5.085
 4631TIP3    H213900   3.504   1.929   5.088
 4632TIP3   OH213901   4.512   3.957   0.578
 4632TIP3    H113902   4.469   3.935   0.495
 4632TIP3    H213903   4.604   3.974   0.554
 4633TIP3   OH213904   0.217   5.564   2.181
 4633TIP3    H113905   0.256   5.477   2.190
 4633TIP3    H213906   0.289   5.625   2.195
 4634TIP3   OH213907   1.290   4.558  -0.020
 4634TIP3    H113908   1.385   4.547  -0.020
 4634TIP3    H213909   1.264   4.549   0.072
 4635TIP3   OH213910   2.699   2.299   4.907
 4635TIP3    H113911   2.622   2.341   4.945
 4635TIP3    H213912   2.667   2.261   4.825
 4636TIP3   OH213913   5.786   3.507   0.228
 4636TIP3    H113914   5.820   3.566   0.161
 4636TIP3    H213915   5.753   3.432   0.179
 4637TIP3   OH213916   0.243   1.170   4.062
 4637TIP3    H113917   0.201   1.151   4.146
 4637TIP3    H213918   0.172   1.202   4.007
 4638TIP3   OH213919   3.301   0.626   3.496
 4638TIP3    H113920   3.390   0.606   3.467
 4638TIP3    H213921   3.302   0.608   3.590
 4639TIP3   OH213922   2.838   4.302   0.672
 4639TIP3    H113923   2.756   4.288   0.624
 4639TIP3    H213924   2.814   4.364   0.742
 4640TIP3   OH213925   2.301   4.441   1.600
 4640TIP3    H113926   2.368   4.428   1.533
 4640TIP3    H213927   2.345   4.493   1.668
 4641TIP3   OH213928   1.188   0.307   3.259
 4641TIP3    H113929   1.177   0.358   3.339
 4641TIP3    H213930   1.151   0.363   3.190
 4642TIP3   OH213931   6.200   5.149   3.235
 4642TIP3    H113932   6.231   5.131   3.146
 4642TIP3    H213933   6.125   5.092   3.247
 4643TIP3   OH213934   1.068   1.664   3.397
 4643TIP3    H113935   1.059   1.675   3.491
 4643TIP3    H213936   1.016   1.736   3.360
 4644TIP3   OH213937   2.931   3.634   4.349
 4644TIP3    H113938   2.874   3.649   4.424
 4644TIP3    H213939   3.018   3.623   4.386
 4645TIP3   OH213940   5.102   5.384   2.978
 4645TIP3    H113941   5.069   5.309   2.928
 4645TIP3    H213942   5.194   5.392   2.952
 4646TIP3   OH213943   1.306   1.800   0.190
 4646TIP3    H113944   1.299   1.835   0.102
 4646TIP3    H213945   1.345   1.713   0.178
 4647TIP3   OH213946   5.834   4.565   0.758
 4647TIP3    H113947   5.913   4.617   0.767
 4647TIP3    H213948   5.775   4.618   0.705
 4648TIP3   OH213949   1.056   4.810   4.338
 4648TIP3    H113950   1.005   4.811   4.419
 4648TIP3    H213951   1.147   4.805   4.368
 4649TIP3   OH213952   5.274   5.947   1.072
 4649TIP3    H113953   5.338   5.941   1.001
 4649TIP3    H213954   5.324   5.980   1.146
 4650TIP3   OH213955   4.357   3.168   3.320
 4650TIP3    H113956   4.413   3.127   3.254
 4650TIP3    H213957   4.275   3.119   3.317
 4651TIP3   OH213958   3.013   5.895   4.269
 4651TIP3    H113959   3.064   5.829   4.314
 4651TIP3    H213960   2.962   5.939   4.338
 4652TIP3   OH213961   5.596   1.004   2.351
 4652TIP3    H113962   5.681   0.961   2.340
 4652TIP3    H213963   5.611   1.068   2.420
 4653TIP3   OH213964   6.066   5.659   4.758
 4653TIP3    H113965   5.978   5.638   4.728
 4653TIP3    H213966   6.065   5.753   4.773
 4654TIP3   OH213967   5.015   3.911   2.186
 4654TIP3    H113968   5.074   3.931   2.258
 4654TIP3    H213969   4.932   3.952   2.212
 4655TIP3   OH213970   4.071   4.829   2.409
 4655TIP3    H113971   4.127   4.883   2.464
 4655TIP3    H213972   4.019   4.778   2.471
 4656TIP3   OH213973   2.568   1.000   1.428
 4656TIP3    H113974   2.564   1.083   1.475
 4656TIP3    H213975   2.640   0.953   1.469
 4657TIP3   OH213976   4.230   3.357   1.255
 4657TIP3    H113977   4.291   3.367   1.182
 4657TIP3    H213978   4.154   3.409   1.230
 4658TIP3   OH213979   0.339   4.910   0.060
 4658TIP3    H113980   0.401   4.880  -0.007
 4658TIP3    H213981   0.254   4.903   0.018
 4659TIP3   OH213982   2.675   3.515   1.203
 4659TIP3    H113983   2.712   3.481   1.284
 4659TIP3    H213984   2.704   3.607   1.200
 4660TIP3   OH213985   4.224   0.886   1.414
 4660TIP3    H113986   4.290   0.954   1.429
 4660TIP3    H213987   4.269   0.820   1.362
 4661TIP3   OH213988   0.601   2.422   0.733
 4661TIP3    H113989   0.515   2.424   0.775
 4661TIP3    H213990   0.589   2.367   0.656
 4662TIP3   OH213991   0.478   2.368   0.343
 4662TIP3    H113992   0.420   2.442   0.361
 4662TIP3    H213993   0.507   2.339   0.429
 4663TIP3   OH213994   5.738   3.579   4.901
 4663TIP3    H113995   5.809   3.586   4.837
 4663TIP3    H213996   5.667   3.537   4.852
 4664TIP3   OH213997   1.446   0.426   4.125
 4664TIP3    H113998   1.445   0.385   4.211
 4664TIP3    H213999   1.354   0.443   4.106
 4665TIP3   OH214000   4.565   1.260   1.550
 4665TIP3    H114001   4.624   1.210   1.606
 4665TIP3    H214002   4.514   1.192   1.505
 4666TIP3   OH214003   0.677   0.481   4.655
 4666TIP3    H114004   0.660   0.410   4.716
 4666TIP3    H214005   0.768   0.505   4.669
 4667TIP3   OH214006   4.629   5.653   3.133
 4667TIP3    H114007   4.684   5.692   3.201
 4667TIP3    H214008   4.692   5.613   3.072
 4668TIP3   OH214009   4.715   4.858   0.092
 4668TIP3    H114010   4.678   4.936   0.135
 4668TIP3    H214011   4.805   4.854   0.124
 4669TIP3   OH214012   3.394   0.947   4.106
 4669TIP3    H114013   3.355   0.951   4.018
 4669TIP3    H214014   3.488   0.937   4.090
 4670TIP3   OH214015   0.853   1.219   3.594
 4670TIP3    H114016   0.886   1.280   3.660
 4670TIP3    H214017   0.915   1.226   3.522
 4671TIP3   OH214018   4.886   5.842   0.085
 4671TIP3    H114019   4.865   5.828   0.177
 4671TIP3    H214020   4.891   5.937   0.075
 4672TIP3   OH214021   0.995   2.952   1.558
 4672TIP3    H114022   0.927   3.019   1.570
 4672TIP3    H214023   0.991   2.900   1.638
 4673TIP3   OH214024   1.952   1.404   4.226
 4673TIP3    H114025   2.047   1.415   4.234
 4673TIP3    H214026   1.937   1.311   4.243
 4674TIP3   OH214027   3.545   0.726   1.556
 4674TIP3    H114028   3.458   0.715   1.518
 4674TIP3    H214029   3.530   0.773   1.638
 4675TIP3   OH214030   3.566   2.554   3.379
 4675TIP3    H114031   3.474   2.567   3.401
 4675TIP3    H214032   3.607   2.639   3.394
 4676TIP3   OH214033   2.574   3.443   2.475
 4676TIP3    H114034   2.651   3.435   2.418
 4676TIP3    H214035   2.610   3.473   2.559
 4677TIP3   OH214036   2.834   5.801   4.508
 4677TIP3    H114037   2.764   5.789   4.444
 4677TIP3    H214038   2.871   5.887   4.487
 4678TIP3   OH214039   1.753   2.759   3.067
 4678TIP3    H114040   1.709   2.831   3.113
 4678TIP3    H214041   1.682   2.712   3.022
 4679TIP3   OH214042   2.026   4.026   3.843
 4679TIP3    H114043   2.016   3.967   3.918
 4679TIP3    H214044   2.004   4.112   3.878
 4680TIP3   OH214045   1.284   1.302   1.254
 4680TIP3    H114046   1.235   1.362   1.198
 4680TIP3    H214047   1.253   1.321   1.343
 4681TIP3   OH214048   5.206   5.298   4.964
 4681TIP3    H114049   5.240   5.312   4.876
 4681TIP3    H214050   5.173   5.384   4.991
 4682TIP3   OH214051   2.045   2.261   1.948
 4682TIP3    H114052   2.049   2.172   1.982
 4682TIP3    H214053   1.973   2.260   1.885
 4683TIP3   OH214054   5.512   5.139   4.441
 4683TIP3    H114055   5.569   5.062   4.440
 4683TIP3    H214056   5.563   5.207   4.397
 4684TIP3   OH214057   2.827   5.951   3.472
 4684TIP3    H114058   2.841   5.960   3.378
 4684TIP3    H214059   2.893   6.007   3.512
 4685TIP3   OH214060   2.563   3.243   1.387
 4685TIP3    H114061   2.561   3.337   1.407
 4685TIP3    H214062   2.514   3.234   1.306
 4686TIP3   OH214063   6.154   2.179   4.702
 4686TIP3    H114064   6.182   2.105   4.648
 4686TIP3    H214065   6.234   2.230   4.716
 4687TIP3   OH214066   6.252   4.045   3.735
 4687TIP3    H114067   6.316   4.096   3.784
 4687TIP3    H214068   6.248   4.087   3.650
 4688TIP3   OH214069   1.354   4.235   1.291
 4688TIP3    H114070   1.273   4.275   1.263
 4688TIP3    H214071   1.337   4.141   1.286
 4689TIP3   OH214072   1.313   0.574   1.850
 4689TIP3    H114073   1.316   0.653   1.796
 4689TIP3    H214074   1.223   0.543   1.842
 4690TIP3   OH214075   3.435   0.573   0.329
 4690TIP3    H114076   3.378   0.562   0.253
 4690TIP3    H214077   3.377   0.600   0.400
 4691TIP3   OH214078   5.396   0.408   5.086
 4691TIP3    H114079   5.367   0.491   5.047
 4691TIP3    H214080   5.329   0.388   5.151
 4692TIP3   OH214081   0.681   1.689   1.960
 4692TIP3    H114082   0.605   1.706   1.903
 4692TIP3    H214083   0.756   1.697   1.902
 4693TIP3   OH214084   1.759   0.552   2.249
 4693TIP3    H114085   1.694   0.549   2.320
 4693TIP3    H214086   1.814   0.627   2.271
 4694TIP3   OH214087   5.014   3.853   2.845
 4694TIP3    H114088   4.977   3.892   2.923
 4694TIP3    H214089   4.939   3.832   2.790
 4695TIP3   OH214090   0.651   2.451   2.979
 4695TIP3    H114091   0.615   2.523   2.927
 4695TIP3    H214092   0.740   2.480   3.000
 4696TIP3   OH214093   4.737   1.140   1.752
 4696TIP3    H114094   4.770   1.225   1.782
 4696TIP3    H214095   4.808   1.106   1.697
 4697TIP3   OH214096   3.287   3.106   0.390
 4697TIP3    H114097   3.197   3.111   0.424
 4697TIP3    H214098   3.340   3.149   0.456
 4698TIP3   OH214099   2.074   5.095   0.497
 4698TIP3    H114100   2.123   5.150   0.436
 4698TIP3    H214101   1.985   5.131   0.496
 4699TIP3   OH214102   1.766   4.587   3.089
 4699TIP3    H114103   1.683   4.633   3.081
 4699TIP3    H214104   1.773   4.534   3.009
 4700TIP3   OH214105   4.716   5.757   4.756
 4700TIP3    H114106   4.767   5.675   4.752
 4700TIP3    H214107   4.639   5.739   4.702
 4701TIP3   OH214108   6.059   1.581   1.178
 4701TIP3    H114109   6.071   1.511   1.114
 4701TIP3    H214110   6.140   1.583   1.228
 4702TIP3   OH214111   1.596   1.192   2.117
 4702TIP3    H114112   1.569   1.101   2.130
 4702TIP3    H214113   1.684   1.186   2.080
 4703TIP3   OH214114   6.095   1.180   0.800
 4703TIP3    H114115   6.115   1.186   0.894
 4703TIP3    H214116   6.178   1.195   0.756
 4704TIP3   OH214117   5.795   0.214   4.786
 4704TIP3    H114118   5.703   0.185   4.789
 4704TIP3    H214119   5.804   0.272   4.862
 4705TIP3   OH214120   2.967   5.763   2.590
 4705TIP3    H114121   2.888   5.720   2.625
 4705TIP3    H214122   3.004   5.809   2.665
 4706TIP3   OH214123   0.549   4.584   3.133
 4706TIP3    H114124   0.522   4.492   3.124
 4706TIP3    H214125   0.471   4.629   3.163
 4707TIP3   OH214126   4.743   4.293   0.894
 4707TIP3    H114127   4.723   4.200   0.885
 4707TIP3    H214128   4.785   4.318   0.812
 4708TIP3   OH214129   3.984   2.171   2.966
 4708TIP3    H114130   4.062   2.150   3.018
 4708TIP3    H214131   3.945   2.245   3.011
 4709TIP3   OH214132   1.066   0.318   2.406
 4709TIP3    H114133   0.980   0.292   2.372
 4709TIP3    H214134   1.048   0.393   2.463
 4710TIP3   OH214135   2.920   2.619   5.034
 4710TIP3    H114136   2.974   2.571   4.971
 4710TIP3    H214137   2.932   2.572   5.117
 4711TIP3   OH214138   5.340   1.884   0.879
 4711TIP3    H114139   5.288   1.814   0.920
 4711TIP3    H214140   5.348   1.857   0.787
 4712TIP3   OH214141   4.054   4.304   4.153
 4712TIP3    H114142   3.971   4.347   4.133
 4712TIP3    H214143   4.121   4.368   4.130
 4713TIP3   OH214144   1.413   3.528   0.756
 4713TIP3    H114145   1.487   3.468   0.755
 4713TIP3    H214146   1.336   3.472   0.763
 4714TIP3   OH214147   6.120   1.862   3.143
 4714TIP3    H114148   6.101   1.812   3.064
 4714TIP3    H214149   6.201   1.825   3.177
 4715TIP3   OH214150   6.181   5.848   4.301
 4715TIP3    H114151   6.120   5.818   4.369
 4715TIP3    H214152   6.247   5.778   4.295
 4716TIP3   OH214153   5.424   4.163   2.177
 4716TIP3    H114154   5.384   4.220   2.243
 4716TIP3    H214155   5.519   4.173   2.191
 4717TIP3   OH214156   0.676   2.316   3.795
 4717TIP3    H114157   0.736   2.251   3.757
 4717TIP3    H214158   0.607   2.264   3.836
 4718TIP3   OH214159   0.570   1.439   3.777
 4718TIP3    H114160   0.538   1.411   3.692
 4718TIP3    H214161   0.614   1.362   3.813
 4719TIP3   OH214162   0.545   4.553   4.443
 4719TIP3    H114163   0.565   4.645   4.463
 4719TIP3    H214164   0.505   4.519   4.523
 4720TIP3   OH214165   4.357   5.171   4.640
 4720TIP3    H114166   4.431   5.140   4.693
 4720TIP3    H214167   4.280   5.151   4.692
 4721TIP3   OH214168   3.788   5.526   2.944
 4721TIP3    H114169   3.729   5.595   2.974
 4721TIP3    H214170   3.874   5.552   2.977
 4722TIP3   OH214171   2.000   2.536   0.271
 4722TIP3    H114172   2.004   2.512   0.364
 4722TIP3    H214173   2.083   2.504   0.235
 4723TIP3   OH214174   0.963   4.422   1.437
 4723TIP3    H114175   0.873   4.414   1.467
 4723TIP3    H214176   0.991   4.508   1.468
 4724TIP3   OH214177   1.217   0.467   4.718
 4724TIP3    H114178   1.302   0.427   4.697
 4724TIP3    H214179   1.218   0.551   4.673
 4725TIP3   OH214180   1.839   1.680   0.966
 4725TIP3    H114181   1.770   1.650   1.025
 4725TIP3    H214182   1.901   1.725   1.023
 4726TIP3   OH214183   1.204   0.035   4.711
 4726TIP3    H114184   1.181   0.110   4.765
 4726TIP3    H214185   1.129  -0.024   4.719
 4727TIP3   OH214186   5.897   1.844   5.173
 4727TIP3    H114187   5.898   1.775   5.239
 4727TIP3    H214188   5.825   1.820   5.114
 4728TIP3   OH214189   3.714   1.765   3.097
 4728TIP3    H114190   3.633   1.725   3.064
 4728TIP3    H214191   3.715   1.741   3.190
 4729TIP3   OH214192   3.144   1.028   2.887
 4729TIP3    H114193   3.185   0.960   2.833
 4729TIP3    H214194   3.146   1.107   2.833
 4730TIP3   OH214195   3.932   0.939   2.770
 4730TIP3    H114196   3.964   1.002   2.835
 4730TIP3    H214197   4.010   0.910   2.724
 4731TIP3   OH214198   2.800   2.507   1.322
 4731TIP3    H114199   2.773   2.421   1.353
 4731TIP3    H214200   2.881   2.491   1.275
 4732TIP3   OH214201   3.323   0.719   2.123
 4732TIP3    H114202   3.376   0.652   2.079
 4732TIP3    H214203   3.254   0.669   2.166
 4733TIP3   OH214204   4.683   2.001   4.155
 4733TIP3    H114205   4.650   2.053   4.228
 4733TIP3    H214206   4.667   1.910   4.182
 4734TIP3   OH214207   4.894   1.120   0.724
 4734TIP3    H114208   4.875   1.144   0.634
 4734TIP3    H214209   4.808   1.108   0.764
 4735TIP3   OH214210   0.107   4.760   4.031
 4735TIP3    H114211   0.038   4.713   3.984
 4735TIP3    H214212   0.189   4.728   3.992
 4736TIP3   OH214213   5.079   3.369   1.365
 4736TIP3    H114214   5.056   3.282   1.333
 4736TIP3    H214215   5.131   3.353   1.444
 4737TIP3   OH214216   2.499   1.005   3.681
 4737TIP3    H114217   2.528   1.005   3.772
 4737TIP3    H214218   2.516   1.094   3.650
 4738TIP3   OH214219   5.928   3.078   2.752
 4738TIP3    H114220   5.935   2.983   2.742
 4738TIP3    H214221   5.864   3.105   2.687
 4739TIP3   OH214222   2.781   2.648   1.581
 4739TIP3    H114223   2.772   2.623   1.489
 4739TIP3    H214224   2.875   2.643   1.598
 4740TIP3   OH214225   2.929   3.842   2.283
 4740TIP3    H114226   3.017   3.872   2.304
 4740TIP3    H214227   2.880   3.922   2.264
 4741TIP3   OH214228   0.219   5.130   2.370
 4741TIP3    H114229   0.220   5.216   2.411
 4741TIP3    H214230   0.130   5.120   2.336
 4742TIP3   OH214231   1.413   4.721   4.237
 4742TIP3    H114232   1.477   4.751   4.172
 4742TIP3    H214233   1.463   4.715   4.318
 4743TIP3   OH214234   1.966   5.437   1.149
 4743TIP3    H114235   2.031   5.460   1.083
 4743TIP3    H214236   1.993   5.486   1.227
 4744TIP3   OH214237   0.267   1.578   0.274
 4744TIP3    H114238   0.316   1.652   0.238
 4744TIP3    H214239   0.322   1.502   0.258
 4745TIP3   OH214240   0.804   0.232   3.585
 4745TIP3    H114241   0.833   0.322   3.567
 4745TIP3    H214242   0.857   0.204   3.660
 4746TIP3   OH214243   5.488   1.605   3.861
 4746TIP3    H114244   5.402   1.647   3.854
 4746TIP3    H214245   5.519   1.599   3.771
 4747TIP3   OH214246   0.412   2.284   2.122
 4747TIP3    H114247   0.412   2.313   2.031
 4747TIP3    H214248   0.386   2.362   2.172
 4748TIP3   OH214249   5.635   3.781   2.806
 4748TIP3    H114250   5.649   3.832   2.886
 4748TIP3    H214251   5.722   3.750   2.782
 4749TIP3   OH214252   3.788   2.051   1.289
 4749TIP3    H114253   3.776   1.958   1.309
 4749TIP3    H214254   3.868   2.054   1.237
 4750TIP3   OH214255   3.430   0.893   4.436
 4750TIP3    H114256   3.371   0.843   4.493
 4750TIP3    H214257   3.427   0.846   4.353
 4751TIP3   OH214258   2.348   0.994   2.663
 4751TIP3    H114259   2.292   0.925   2.628
 4751TIP3    H214260   2.288   1.064   2.688
 4752TIP3   OH214261   3.694   2.771   0.179
 4752TIP3    H114262   3.690   2.866   0.170
 4752TIP3    H214263   3.706   2.755   0.273
 4753TIP3   OH214264   3.828   0.493   1.164
 4753TIP3    H114265   3.848   0.544   1.242
 4753TIP3    H214266   3.741   0.456   1.181
 4754TIP3   OH214267   6.047   4.624   1.553
 4754TIP3    H114268   6.054   4.533   1.523
 4754TIP3    H214269   6.014   4.672   1.478
 4755TIP3   OH214270   5.890   3.348   1.660
 4755TIP3    H114271   5.926   3.259   1.666
 4755TIP3    H214272   5.964   3.402   1.634
 4756TIP3   OH214273   4.802   3.331   1.086
 4756TIP3    H114274   4.777   3.418   1.118
 4756TIP3    H214275   4.778   3.272   1.157
 4757TIP3   OH214276   4.884   2.066   1.854
 4757TIP3    H114277   4.859   2.069   1.946
 4757TIP3    H214278   4.835   2.139   1.814
 4758TIP3   OH214279   5.831   5.116   0.640
 4758TIP3    H114280   5.829   5.116   0.736
 4758TIP3    H214281   5.799   5.029   0.615
 4759TIP3   OH214282   4.814   4.280   0.624
 4759TIP3    H114283   4.840   4.372   0.623
 4759TIP3    H214284   4.888   4.233   0.585
 4760TIP3   OH214285   0.392   1.983   4.126
 4760TIP3    H114286   0.333   1.929   4.179
 4760TIP3    H214287   0.452   2.022   4.189
 4761TIP3   OH214288   5.298   1.452   3.191
 4761TIP3    H114289   5.309   1.362   3.162
 4761TIP3    H214290   5.209   1.455   3.227
 4762TIP3   OH214291   2.323   0.762   0.754
 4762TIP3    H114292   2.227   0.762   0.753
 4762TIP3    H214293   2.347   0.701   0.824
 4763TIP3   OH214294   1.798   0.978   3.643
 4763TIP3    H114295   1.790   1.003   3.735
 4763TIP3    H214296   1.800   0.882   3.644
 4764TIP3   OH214297   2.119   4.899   1.361
 4764TIP3    H114298   2.061   4.865   1.293
 4764TIP3    H214299   2.198   4.845   1.354
 4765TIP3   OH214300   2.644   3.737   3.991
 4765TIP3    H114301   2.714   3.679   4.021
 4765TIP3    H214302   2.616   3.699   3.907
 4766TIP3   OH214303   1.381   0.833   4.371
 4766TIP3    H114304   1.437   0.761   4.398
 4766TIP3    H214305   1.419   0.910   4.413
 4767TIP3   OH214306   5.209   3.750   1.230
 4767TIP3    H114307   5.241   3.814   1.293
 4767TIP3    H214308   5.281   3.687   1.222
 4768TIP3   OH214309   2.644   2.069   0.789
 4768TIP3    H114310   2.636   2.160   0.760
 4768TIP3    H214311   2.737   2.049   0.781
 4769TIP3   OH214312   4.597   4.336   1.855
 4769TIP3    H114313   4.535   4.323   1.783
 4769TIP3    H214314   4.661   4.398   1.820
 4770TIP3   OH214315   4.224   3.982   3.838
 4770TIP3    H114316   4.177   3.909   3.797
 4770TIP3    H214317   4.306   3.988   3.789
 4771TIP3   OH214318   2.609   3.739   2.373
 4771TIP3    H114319   2.551   3.740   2.449
 4771TIP3    H214320   2.682   3.683   2.398
 4772TIP3   OH214321   3.592   0.147  -0.004
 4772TIP3    H114322   3.613   0.232   0.035
 4772TIP3    H214323   3.527   0.109   0.055
 4773TIP3   OH214324   6.381   5.786   2.904
 4773TIP3    H114325   6.411   5.774   2.994
 4773TIP3    H214326   6.361   5.698   2.873
 4774TIP3   OH214327   1.632   0.232   4.077
 4774TIP3    H114328   1.561   0.294   4.091
 4774TIP3    H214329   1.674   0.222   4.162
 4775TIP3   OH214330   4.043   3.462   4.005
 4775TIP3    H114331   4.057   3.426   3.918
 4775TIP3    H214332   3.958   3.426   4.033
 4776TIP3   OH214333   1.304   2.850   4.346
 4776TIP3    H114334   1.240   2.817   4.283
 4776TIP3    H214335   1.372   2.782   4.349
 4777TIP3   OH214336   4.248   5.858   1.333
 4777TIP3    H114337   4.230   5.925   1.267
 4777TIP3    H214338   4.186   5.876   1.403
 4778TIP3   OH214339   5.614   2.997   3.749
 4778TIP3    H114340   5.541   2.985   3.688
 4778TIP3    H214341   5.682   2.937   3.718
 4779TIP3   OH214342   0.865   3.773   4.313
 4779TIP3    H114343   0.800   3.704   4.325
 4779TIP3    H214344   0.948   3.732   4.336
 4780TIP3   OH214345   2.572   3.094   2.516
 4780TIP3    H114346   2.664   3.106   2.493
 4780TIP3    H214347   2.568   3.114   2.609
 4781TIP3   OH214348   5.119   5.621   4.075
 4781TIP3    H114349   5.174   5.567   4.132
 4781TIP3    H214350   5.038   5.572   4.067
 4782TIP3   OH214351   2.139   1.058   0.511
 4782TIP3    H114352   2.233   1.067   0.495
 4782TIP3    H214353   2.108   1.148   0.521
 4783TIP3   OH214354   3.901   5.696   2.660
 4783TIP3    H114355   3.985   5.676   2.619
 4783TIP3    H214356   3.923   5.751   2.735
 4784TIP3   OH214357   0.613   5.918   1.811
 4784TIP3    H114358   0.686   5.879   1.858
 4784TIP3    H214359   0.624   6.013   1.823
 4785TIP3   OH214360   4.120   4.534   2.035
 4785TIP3    H114361   4.046   4.475   2.020
 4785TIP3    H214362   4.186   4.478   2.076
 4786TIP3   OH214363   5.640   2.942   1.994
 4786TIP3    H114364   5.623   3.024   2.040
 4786TIP3    H214365   5.553   2.911   1.968
 4787TIP3   OH214366   3.013   5.542   1.243
 4787TIP3    H114367   3.091   5.597   1.249
 4787TIP3    H214368   3.016   5.505   1.155
 4788TIP3   OH214369   6.192   2.447   0.636
 4788TIP3    H114370   6.242   2.372   0.602
 4788TIP3    H214371   6.178   2.426   0.728
 4789TIP3   OH214372   3.613   1.121   1.104
 4789TIP3    H114373   3.575   1.037   1.076
 4789TIP3    H214374   3.708   1.107   1.100
 4790TIP3   OH214375   2.746   5.634   2.681
 4790TIP3    H114376   2.787   5.619   2.766
 4790TIP3    H214377   2.687   5.560   2.670
 4791TIP3   OH214378   2.129   3.099   1.207
 4791TIP3    H114379   2.074   3.160   1.256
 4791TIP3    H214380   2.108   3.013   1.243
 4792TIP3   OH214381   2.701   1.874   3.320
 4792TIP3    H114382   2.777   1.913   3.278
 4792TIP3    H214383   2.724   1.782   3.331
 4793TIP3   OH214384   4.540   1.535   4.186
 4793TIP3    H114385   4.597   1.458   4.183
 4793TIP3    H214386   4.452   1.500   4.173
 4794TIP3   OH214387   1.642   3.968   4.970
 4794TIP3    H114388   1.612   4.031   4.904
 4794TIP3    H214389   1.602   3.999   5.051
 4795TIP3   OH214390   2.837   5.246   0.082
 4795TIP3    H114391   2.861   5.153   0.078
 4795TIP3    H214392   2.847   5.269   0.174
 4796TIP3   OH214393   1.872   2.719   3.489
 4796TIP3    H114394   1.933   2.661   3.536
 4796TIP3    H214395   1.925   2.755   3.418
 4797TIP3   OH214396   6.296   4.614   3.842
 4797TIP3    H114397   6.205   4.587   3.830
 4797TIP3    H214398   6.347   4.546   3.798
 4798TIP3   OH214399   0.409   1.355   0.201
 4798TIP3    H114400   0.504   1.351   0.190
 4798TIP3    H214401   0.377   1.278   0.155
 4799TIP3   OH214402   0.216   5.177   0.854
 4799TIP3    H114403   0.131   5.160   0.814
 4799TIP3    H214404   0.234   5.269   0.833
 4800TIP3   OH214405   3.959   0.202   2.182
 4800TIP3    H114406   4.025   0.133   2.174
 4800TIP3    H214407   4.008   0.283   2.180
 4801TIP3   OH214408   5.372   4.847   2.765
 4801TIP3    H114409   5.363   4.837   2.670
 4801TIP3    H214410   5.466   4.839   2.781
 4802TIP3   OH214411   0.415   1.986   3.600
 4802TIP3    H114412   0.491   1.931   3.621
 4802TIP3    H214413   0.440   2.074   3.627
 4803TIP3   OH214414   2.142   5.769   4.617
 4803TIP3    H114415   2.073   5.766   4.551
 4803TIP3    H214416   2.096   5.771   4.701
 4804TIP3   OH214417   3.293   5.320   3.632
 4804TIP3    H114418   3.303   5.289   3.542
 4804TIP3    H214419   3.250   5.248   3.678
 4805TIP3   OH214420   3.004   1.312   1.709
 4805TIP3    H114421   3.001   1.224   1.746
 4805TIP3    H214422   2.912   1.337   1.698
 4806TIP3   OH214423   5.750   4.175   4.647
 4806TIP3    H114424   5.739   4.104   4.711
 4806TIP3    H214425   5.823   4.146   4.592
 4807TIP3   OH214426   4.662   3.280   4.444
 4807TIP3    H114427   4.573   3.287   4.477
 4807TIP3    H214428   4.652   3.254   4.352
 4808TIP3   OH214429   1.878   2.260   1.747
 4808TIP3    H114430   1.863   2.336   1.691
 4808TIP3    H214431   1.792   2.236   1.781
 4809TIP3   OH214432   1.996   5.442   4.644
 4809TIP3    H114433   2.078   5.393   4.653
 4809TIP3    H214434   1.976   5.472   4.733
 4810TIP3   OH214435   4.760   5.341   2.201
 4810TIP3    H114436   4.834   5.373   2.149
 4810TIP3    H214437   4.704   5.295   2.139
 4811TIP3   OH214438   4.875   2.611   0.668
 4811TIP3    H114439   4.928   2.558   0.609
 4811TIP3    H214440   4.834   2.677   0.612
 4812TIP3   OH214441   3.293   0.771   2.427
 4812TIP3    H114442   3.356   0.827   2.472
 4812TIP3    H214443   3.252   0.829   2.362
 4813TIP3   OH214444   3.066   3.409   2.419
 4813TIP3    H114445   2.981   3.443   2.446
 4813TIP3    H214446   3.047   3.355   2.342
 4814TIP3   OH214447   4.482   3.294   1.610
 4814TIP3    H114448   4.537   3.343   1.671
 4814TIP3    H214449   4.477   3.206   1.648
 4815TIP3   OH214450   3.189   0.878   1.923
 4815TIP3    H114451   3.228   0.822   1.990
 4815TIP3    H214452   3.171   0.960   1.969
 4816TIP3   OH214453   3.875   3.439   4.663
 4816TIP3    H114454   3.949   3.414   4.719
 4816TIP3    H214455   3.913   3.503   4.603
 4817TIP3   OH214456   1.256   5.029   2.350
 4817TIP3    H114457   1.183   5.052   2.293
 4817TIP3    H214458   1.309   5.109   2.355
 4818TIP3   OH214459  -0.002   1.797   1.591
 4818TIP3    H114460   0.057   1.863   1.626
 4818TIP3    H214461   0.053   1.720   1.576
 4819TIP3   OH214462   3.361   1.192   1.705
 4819TIP3    H114463   3.367   1.098   1.685
 4819TIP3    H214464   3.282   1.200   1.758
 4820TIP3   OH214465   2.590   4.877   3.143
 4820TIP3    H114466   2.666   4.857   3.197
 4820TIP3    H214467   2.530   4.805   3.158
 4821TIP3   OH214468   3.290   3.724   1.902
 4821TIP3    H114469   3.231   3.798   1.892
 4821TIP3    H214470   3.333   3.715   1.816
 4822TIP3   OH214471   3.572   3.785   1.980
 4822TIP3    H114472   3.489   3.739   1.967
 4822TIP3    H214473   3.557   3.873   1.945
 4823TIP3   OH214474   5.065   5.686   3.218
 4823TIP3    H114475   5.049   5.742   3.294
 4823TIP3    H214476   5.159   5.691   3.204
 4824TIP3   OH214477   1.627   0.364   2.114
 4824TIP3    H114478   1.607   0.439   2.059
 4824TIP3    H214479   1.677   0.400   2.187
 4825TIP3   OH214480   0.241   3.914   0.149
 4825TIP3    H114481   0.277   3.866   0.224
 4825TIP3    H214482   0.305   3.982   0.130
 4826TIP3   OH214483   4.370   5.489   2.038
 4826TIP3    H114484   4.370   5.426   2.110
 4826TIP3    H214485   4.418   5.445   1.968
 4827TIP3   OH214486   2.153   0.832   1.762
 4827TIP3    H114487   2.096   0.821   1.685
 4827TIP3    H214488   2.103   0.890   1.819
 4828TIP3   OH214489   4.687   6.022   0.739
 4828TIP3    H114490   4.752   5.985   0.800
 4828TIP3    H214491   4.622   5.952   0.729
 4829TIP3   OH214492   0.013   2.863   0.467
 4829TIP3    H114493  -0.018   2.927   0.532
 4829TIP3    H214494  -0.064   2.809   0.450
 4830TIP3   OH214495   5.337   3.267   3.552
 4830TIP3    H114496   5.386   3.291   3.630
 4830TIP3    H214497   5.398   3.215   3.499
 4831TIP3   OH214498   5.870   5.697   0.265
 4831TIP3    H114499   5.926   5.715   0.189
 4831TIP3    H214500   5.882   5.603   0.282
 4832TIP3   OH214501   3.905   3.171   1.095
 4832TIP3    H114502   3.846   3.144   1.024
 4832TIP3    H214503   3.872   3.128   1.173
 4833TIP3   OH214504   0.791   0.184   5.012
 4833TIP3    H114505   0.880   0.195   5.044
 4833TIP3    H214506   0.767   0.095   5.038
 4834TIP3   OH214507   1.658   1.292   3.672
 4834TIP3    H114508   1.624   1.296   3.583
 4834TIP3    H214509   1.601   1.230   3.717
 4835TIP3   OH214510   3.174   1.960   1.539
 4835TIP3    H114511   3.235   2.009   1.594
 4835TIP3    H214512   3.223   1.883   1.512
 4836TIP3   OH214513   4.156   1.436   2.756
 4836TIP3    H114514   4.228   1.476   2.707
 4836TIP3    H214515   4.161   1.343   2.735
 4837TIP3   OH214516   6.313   5.041   5.103
 4837TIP3    H114517   6.301   5.005   5.015
 4837TIP3    H214518   6.247   4.996   5.155
 4838TIP3   OH214519   1.086   1.140   0.943
 4838TIP3    H114520   1.180   1.124   0.951
 4838TIP3    H214521   1.046   1.053   0.954
 4839TIP3   OH214522   6.184   2.604   0.376
 4839TIP3    H114523   6.269   2.579   0.339
 4839TIP3    H214524   6.181   2.559   0.460
 4840TIP3   OH214525   5.143   2.276   4.368
 4840TIP3    H114526   5.185   2.321   4.295
 4840TIP3    H214527   5.076   2.221   4.326
 4841TIP3   OH214528   2.405   2.153   4.321
 4841TIP3    H114529   2.492   2.113   4.331
 4841TIP3    H214530   2.421   2.235   4.274
 4842TIP3   OH214531   2.030   1.835   0.294
 4842TIP3    H114532   1.975   1.872   0.225
 4842TIP3    H214533   1.969   1.817   0.366
 4843TIP3   OH214534   5.627   4.272   2.666
 4843TIP3    H114535   5.618   4.189   2.620
 4843TIP3    H214536   5.591   4.255   2.753
 4844TIP3   OH214537   2.521   4.201   1.562
 4844TIP3    H114538   2.485   4.115   1.580
 4844TIP3    H214539   2.604   4.202   1.610
 4845TIP3   OH214540   3.899   0.074   1.888
 4845TIP3    H114541   3.872  -0.002   1.836
 4845TIP3    H214542   3.979   0.045   1.932
 4846TIP3   OH214543   0.195   0.158   2.833
 4846TIP3    H114544   0.273   0.146   2.887
 4846TIP3    H214545   0.141   0.081   2.851
 4847TIP3   OH214546   4.637   4.354   2.901
 4847TIP3    H114547   4.553   4.398   2.918
 4847TIP3    H214548   4.679   4.351   2.987
 4848TIP3   OH214549   3.995   5.523   3.532
 4848TIP3    H114550   4.063   5.465   3.568
 4848TIP3    H214551   4.004   5.604   3.581
 4849TIP3   OH214552   0.322   4.960   1.673
 4849TIP3    H114553   0.324   4.959   1.577
 4849TIP3    H214554   0.367   5.041   1.697
 4850TIP3   OH214555   2.717   2.092   2.990
 4850TIP3    H114556   2.803   2.068   3.025
 4850TIP3    H214557   2.735   2.163   2.928
 4851TIP3   OH214558   2.084   4.126   0.645
 4851TIP3    H114559   2.063   4.054   0.585
 4851TIP3    H214560   2.177   4.143   0.631
 4852TIP3   OH214561   2.710   2.947   1.619
 4852TIP3    H114562   2.802   2.936   1.644
 4852TIP3    H214563   2.675   2.858   1.620
 4853TIP3   OH214564   2.613   1.920   4.498
 4853TIP3    H114565   2.546   1.852   4.511
 4853TIP3    H214566   2.677   1.879   4.440
 4854TIP3   OH214567   3.401   5.396   2.052
 4854TIP3    H114568   3.328   5.371   2.108
 4854TIP3    H214569   3.368   5.385   1.963
 4855TIP3   OH214570   3.431   5.727   0.989
 4855TIP3    H114571   3.384   5.797   1.033
 4855TIP3    H214572   3.399   5.728   0.899
 4856TIP3   OH214573   4.931   0.117   2.607
 4856TIP3    H114574   4.890   0.034   2.582
 4856TIP3    H214575   4.864   0.164   2.656
 4857TIP3   OH214576   0.288   0.872   0.905
 4857TIP3    H114577   0.280   0.965   0.883
 4857TIP3    H214578   0.268   0.868   0.999
 4858TIP3   OH214579   4.192   3.899   3.375
 4858TIP3    H114580   4.220   3.990   3.367
 4858TIP3    H214581   4.266   3.855   3.416
 4859TIP3   OH214582   3.370   0.660   5.008
 4859TIP3    H114583   3.368   0.627   4.919
 4859TIP3    H214584   3.453   0.627   5.044
 4860TIP3   OH214585   0.944   4.899   2.475
 4860TIP3    H114586   0.888   4.968   2.438
 4860TIP3    H214587   0.888   4.854   2.537
 4861TIP3   OH214588   4.854   4.704   2.156
 4861TIP3    H114589   4.868   4.667   2.069
 4861TIP3    H214590   4.901   4.645   2.215
 4862TIP3   OH214591   1.893   2.347   2.347
 4862TIP3    H114592   1.878   2.265   2.299
 4862TIP3    H214593   1.977   2.332   2.392
 4863TIP3   OH214594   0.416   3.004  -0.001
 4863TIP3    H114595   0.429   2.998   0.094
 4863TIP3    H214596   0.486   2.950  -0.037
 4864TIP3   OH214597   5.971   2.406   0.204
 4864TIP3    H114598   5.912   2.464   0.252
 4864TIP3    H214599   6.033   2.465   0.162
 4865TIP3   OH214600   1.730   1.223   0.736
 4865TIP3    H114601   1.752   1.186   0.822
 4865TIP3    H214602   1.745   1.151   0.675
 4866TIP3   OH214603   5.119   4.538   2.741
 4866TIP3    H114604   5.039   4.537   2.689
 4866TIP3    H214605   5.089   4.528   2.831
 4867TIP3   OH214606   4.332   1.420   4.959
 4867TIP3    H114607   4.248   1.381   4.983
 4867TIP3    H214608   4.359   1.373   4.880
 4868TIP3   OH214609   5.035   0.167   1.189
 4868TIP3    H114610   4.959   0.170   1.248
 4868TIP3    H214611   5.065   0.257   1.184
 4869TIP3   OH214612   3.031   4.976   3.954
 4869TIP3    H114613   2.982   4.894   3.962
 4869TIP3    H214614   2.990   5.035   4.017
 4870TIP3   OH214615   4.574   4.099   1.078
 4870TIP3    H114616   4.513   4.156   1.031
 4870TIP3    H214617   4.634   4.159   1.122
 4871TIP3   OH214618   6.025   5.010   2.550
 4871TIP3    H114619   6.101   4.951   2.544
 4871TIP3    H214620   6.022   5.036   2.642
 4872TIP3   OH214621   1.230   3.038   1.943
 4872TIP3    H114622   1.186   3.105   1.995
 4872TIP3    H214623   1.236   2.962   2.001
 4873TIP3   OH214624   1.992   2.365   3.351
 4873TIP3    H114625   2.071   2.384   3.300
 4873TIP3    H214626   1.920   2.389   3.293
 4874TIP3   OH214627   2.177   0.108   2.245
 4874TIP3    H114628   2.245   0.159   2.202
 4874TIP3    H214629   2.102   0.167   2.250
 4875TIP3   OH214630   0.022   0.310   1.670
 4875TIP3    H114631   0.061   0.222   1.674
 4875TIP3    H214632  -0.006   0.319   1.579
 4876TIP3   OH214633   1.580   0.785   3.316
 4876TIP3    H114634   1.650   0.766   3.254
 4876TIP3    H214635   1.611   0.860   3.366
 4877TIP3   OH214636   0.572   2.455   1.596
 4877TIP3    H114637   0.619   2.494   1.523
 4877TIP3    H214638   0.566   2.362   1.574
 4878TIP3   OH214639   0.565   3.680   2.083
 4878TIP3    H114640   0.653   3.659   2.113
 4878TIP3    H214641   0.514   3.600   2.100
 4879TIP3   OH214642   5.538   0.383   2.337
 4879TIP3    H114643   5.479   0.424   2.400
 4879TIP3    H214644   5.577   0.457   2.290
 4880TIP3   OH214645   0.526   4.342   2.068
 4880TIP3    H114646   0.556   4.376   1.983
 4880TIP3    H214647   0.466   4.409   2.100
 4881TIP3   OH214648   6.289   4.626   2.968
 4881TIP3    H114649   6.235   4.640   2.890
 4881TIP3    H214650   6.282   4.707   3.018
 4882TIP3   OH214651   1.773   3.945   3.056
 4882TIP3    H114652   1.863   3.965   3.082
 4882TIP3    H214653   1.781   3.864   3.005
 4883TIP3   OH214654   6.238   1.135   0.205
 4883TIP3    H114655   6.267   1.162   0.118
 4883TIP3    H214656   6.272   1.046   0.215
 4884TIP3   OH214657   2.193   0.997   3.685
 4884TIP3    H114658   2.260   1.042   3.736
 4884TIP3    H214659   2.124   1.063   3.673
 4885TIP3   OH214660   0.022   1.466   2.748
 4885TIP3    H114661   0.059   1.403   2.687
 4885TIP3    H214662  -0.023   1.530   2.692
 4886TIP3   OH214663   0.581   2.216   3.380
 4886TIP3    H114664   0.504   2.258   3.419
 4886TIP3    H214665   0.544   2.157   3.314
 4887TIP3   OH214666   2.726   2.923   2.305
 4887TIP3    H114667   2.680   2.932   2.222
 4887TIP3    H214668   2.747   3.013   2.331
 4888TIP3   OH214669   4.068   3.027   2.768
 4888TIP3    H114670   4.028   2.955   2.817
 4888TIP3    H214671   4.036   3.016   2.678
 4889TIP3   OH214672   2.897   3.048   3.627
 4889TIP3    H114673   2.806   3.058   3.599
 4889TIP3    H214674   2.894   3.051   3.722
 4890TIP3   OH214675   1.886   3.945   2.653
 4890TIP3    H114676   1.816   3.984   2.601
 4890TIP3    H214677   1.848   3.865   2.689
 4891TIP3   OH214678   1.003   2.637   5.194
 4891TIP3    H114679   0.960   2.716   5.162
 4891TIP3    H214680   1.009   2.580   5.117
 4892TIP3   OH214681   2.117   4.842   0.612
 4892TIP3    H114682   2.190   4.798   0.568
 4892TIP3    H214683   2.095   4.915   0.554
 4893TIP3   OH214684   4.515   3.188   0.589
 4893TIP3    H114685   4.582   3.195   0.521
 4893TIP3    H214686   4.551   3.124   0.651
 4894TIP3   OH214687   4.860   0.269   3.684
 4894TIP3    H114688   4.939   0.216   3.675
 4894TIP3    H214689   4.789   0.211   3.654
 4895TIP3   OH214690   1.741   3.609   1.123
 4895TIP3    H114691   1.662   3.587   1.173
 4895TIP3    H214692   1.813   3.574   1.174
 4896TIP3   OH214693   1.266   4.198   4.471
 4896TIP3    H114694   1.267   4.167   4.562
 4896TIP3    H214695   1.297   4.124   4.420
 4897TIP3   OH214696   1.178   0.650   0.268
 4897TIP3    H114697   1.253   0.594   0.248
 4897TIP3    H214698   1.209   0.706   0.339
 4898TIP3   OH214699   2.758   0.978   4.793
 4898TIP3    H114700   2.842   0.988   4.836
 4898TIP3    H214701   2.766   1.029   4.712
 4899TIP3   OH214702   3.608   0.868   3.942
 4899TIP3    H114703   3.617   0.821   3.859
 4899TIP3    H214704   3.699   0.885   3.969
 4900TIP3   OH214705   6.217   5.581   0.716
 4900TIP3    H114706   6.163   5.548   0.788
 4900TIP3    H214707   6.282   5.637   0.758
 4901TIP3   OH214708   3.445   1.226   3.015
 4901TIP3    H114709   3.482   1.262   2.935
 4901TIP3    H214710   3.408   1.302   3.060
 4902TIP3   OH214711   5.691   3.643   1.137
 4902TIP3    H114712   5.687   3.708   1.066
 4902TIP3    H214713   5.651   3.687   1.212
 4903TIP3   OH214714   1.363   1.369   3.960
 4903TIP3    H114715   1.437   1.353   3.901
 4903TIP3    H214716   1.286   1.366   3.903
 4904TIP3   OH214717   6.318   3.527   3.684
 4904TIP3    H114718   6.263   3.452   3.665
 4904TIP3    H214719   6.345   3.559   3.598
 4905TIP3   OH214720   3.974   0.772   1.501
 4905TIP3    H114721   4.062   0.779   1.463
 4905TIP3    H214722   3.948   0.681   1.485
 4906TIP3   OH214723   1.722   0.846   5.007
 4906TIP3    H114724   1.742   0.773   4.948
 4906TIP3    H214725   1.804   0.896   5.013
 4907TIP3   OH214726   5.885   1.203   1.457
 4907TIP3    H114727   5.952   1.247   1.510
 4907TIP3    H214728   5.821   1.173   1.521
 4908TIP3   OH214729   4.006   3.893   3.566
 4908TIP3    H114730   4.021   3.800   3.577
 4908TIP3    H214731   4.050   3.915   3.483
 4909TIP3   OH214732   1.535   0.773   1.960
 4909TIP3    H114733   1.538   0.680   1.936
 4909TIP3    H214734   1.490   0.815   1.887
 4910TIP3   OH214735   5.357   3.048   4.636
 4910TIP3    H114736   5.330   3.000   4.558
 4910TIP3    H214737   5.407   3.122   4.603
 4911TIP3   OH214738   4.331   4.817   1.497
 4911TIP3    H114739   4.291   4.862   1.423
 4911TIP3    H214740   4.283   4.850   1.573
 4912TIP3   OH214741   0.900   5.265   1.923
 4912TIP3    H114742   0.890   5.361   1.920
 4912TIP3    H214743   0.992   5.252   1.948
 4913TIP3   OH214744   6.274   4.625   0.240
 4913TIP3    H114745   6.204   4.635   0.176
 4913TIP3    H214746   6.354   4.622   0.187
 4914TIP3   OH214747   0.221   5.391   2.456
 4914TIP3    H114748   0.128   5.395   2.433
 4914TIP3    H214749   0.233   5.461   2.521
 4915TIP3   OH214750   4.128   5.127   4.778
 4915TIP3    H114751   4.066   5.167   4.838
 4915TIP3    H214752   4.104   5.034   4.777
 4916TIP3   OH214753   5.772   0.606   2.328
 4916TIP3    H114754   5.744   0.584   2.239
 4916TIP3    H214755   5.860   0.568   2.336
 4917TIP3   OH214756   4.285   1.024   4.613
 4917TIP3    H114757   4.313   1.109   4.648
 4917TIP3    H214758   4.347   1.006   4.542
 4918TIP3   OH214759   1.096   4.772   0.734
 4918TIP3    H114760   1.138   4.690   0.761
 4918TIP3    H214761   1.041   4.748   0.660
 4919TIP3   OH214762   1.391   5.089   4.056
 4919TIP3    H114763   1.363   5.037   3.981
 4919TIP3    H214764   1.481   5.063   4.072
 4920TIP3   OH214765   5.786   2.250   3.282
 4920TIP3    H114766   5.819   2.167   3.247
 4920TIP3    H214767   5.865   2.300   3.302
 4921TIP3   OH214768   2.042   5.778   5.132
 4921TIP3    H114769   2.071   5.742   5.049
 4921TIP3    H214770   2.123   5.797   5.180
 4922TIP3   OH214771   4.007   4.279   2.265
 4922TIP3    H114772   4.025   4.351   2.325
 4922TIP3    H214773   3.957   4.216   2.316
 4923TIP3   OH214774   0.253   1.875   0.187
 4923TIP3    H114775   0.213   1.955   0.223
 4923TIP3    H214776   0.202   1.804   0.226
 4924TIP3   OH214777   1.529   2.013   2.462
 4924TIP3    H114778   1.498   1.950   2.528
 4924TIP3    H214779   1.470   2.087   2.470
 4925TIP3   OH214780   5.223   1.181   1.576
 4925TIP3    H114781   5.295   1.184   1.514
 4925TIP3    H214782   5.216   1.089   1.601
 4926TIP3   OH214783   4.455   0.641   1.627
 4926TIP3    H114784   4.496   0.589   1.557
 4926TIP3    H214785   4.505   0.723   1.628
 4927TIP3   OH214786   0.126   2.298   1.785
 4927TIP3    H114787   0.115   2.337   1.698
 4927TIP3    H214788   0.102   2.206   1.773
 4928TIP3   OH214789   0.371   5.030   0.635
 4928TIP3    H114790   0.345   5.064   0.720
 4928TIP3    H214791   0.320   4.950   0.624
 4929TIP3   OH214792   2.164   1.554   1.442
 4929TIP3    H114793   2.174   1.460   1.430
 4929TIP3    H214794   2.183   1.592   1.355
 4930TIP3   OH214795   1.823   0.536   0.752
 4930TIP3    H114796   1.879   0.575   0.819
 4930TIP3    H214797   1.858   0.448   0.739
 4931TIP3   OH214798   5.670   1.425   3.161
 4931TIP3    H114799   5.761   1.454   3.164
 4931TIP3    H214800   5.620   1.501   3.193
 4932TIP3   OH214801   2.455   3.703   3.313
 4932TIP3    H114802   2.510   3.765   3.264
 4932TIP3    H214803   2.431   3.749   3.393
 4933TIP3   OH214804   5.062   3.637   4.455
 4933TIP3    H114805   5.084   3.561   4.509
 4933TIP3    H214806   4.981   3.612   4.410
 4934TIP3   OH214807   4.994   2.704   3.849
 4934TIP3    H114808   4.955   2.675   3.767
 4934TIP3    H214809   5.088   2.704   3.832
 4935TIP3   OH214810   0.857   4.799   0.188
 4935TIP3    H114811   0.876   4.889   0.211
 4935TIP3    H214812   0.884   4.791   0.096
 4936TIP3   OH214813   3.570   5.508   4.161
 4936TIP3    H114814   3.637   5.572   4.135
 4936TIP3    H214815   3.585   5.433   4.104
 4937TIP3   OH214816   1.538   4.921   3.336
 4937TIP3    H114817   1.474   4.955   3.398
 4937TIP3    H214818   1.598   4.869   3.389
 4938TIP3   OH214819   2.275   1.697   2.715
 4938TIP3    H114820   2.247   1.754   2.787
 4938TIP3    H214821   2.267   1.609   2.751
 4939TIP3   OH214822   5.351   4.156   1.678
 4939TIP3    H114823   5.447   4.157   1.677
 4939TIP3    H214824   5.327   4.223   1.742
 4940TIP3   OH214825   4.929   4.470   1.444
 4940TIP3    H114826   4.985   4.508   1.377
 4940TIP3    H214827   4.989   4.417   1.498
 4941TIP3   OH214828   4.955   2.172   3.502
 4941TIP3    H114829   4.922   2.178   3.591
 4941TIP3    H214830   4.927   2.254   3.460
 4942TIP3   OH214831   0.105   3.903   3.035
 4942TIP3    H114832   0.200   3.889   3.040
 4942TIP3    H214833   0.095   3.998   3.033
 4943TIP3   OH214834   4.258   3.083   1.411
 4943TIP3    H114835   4.292   3.169   1.384
 4943TIP3    H214836   4.332   3.023   1.401
 4944TIP3   OH214837   1.521   4.202   1.779
 4944TIP3    H114838   1.446   4.150   1.806
 4944TIP3    H214839   1.584   4.138   1.745
 4945TIP3   OH214840   0.814   4.423   3.949
 4945TIP3    H114841   0.867   4.475   3.889
 4945TIP3    H214842   0.818   4.334   3.914
 4946TIP3   OH214843   4.738   0.162   4.192
 4946TIP3    H114844   4.779   0.164   4.105
 4946TIP3    H214845   4.649   0.194   4.177
 4947TIP3   OH214846   2.458   1.836   3.449
 4947TIP3    H114847   2.435   1.924   3.479
 4947TIP3    H214848   2.548   1.845   3.417
 4948TIP3   OH214849   3.835   3.836   4.443
 4948TIP3    H114850   3.884   3.913   4.415
 4948TIP3    H214851   3.746   3.868   4.461
 4949TIP3   OH214852   3.690   3.539   1.842
 4949TIP3    H114853   3.775   3.532   1.885
 4949TIP3    H214854   3.656   3.625   1.869
 4950TIP3   OH214855   3.198   0.761   0.830
 4950TIP3    H114856   3.138   0.823   0.790
 4950TIP3    H214857   3.242   0.810   0.899
 4951TIP3   OH214858   2.863   4.734   0.461
 4951TIP3    H114859   2.950   4.717   0.424
 4951TIP3    H214860   2.838   4.819   0.424
 4952TIP3   OH214861   2.478   1.937   2.201
 4952TIP3    H114862   2.542   1.866   2.199
 4952TIP3    H214863   2.502   1.993   2.126
 4953TIP3   OH214864   4.354   0.508   4.110
 4953TIP3    H114865   4.390   0.596   4.123
 4953TIP3    H214866   4.427   0.449   4.126
 4954TIP3   OH214867   4.245   5.012   2.281
 4954TIP3    H114868   4.155   4.981   2.291
 4954TIP3    H214869   4.237   5.089   2.225
 4955TIP3   OH214870   3.799   1.282   0.469
 4955TIP3    H114871   3.812   1.187   0.473
 4955TIP3    H214872   3.751   1.296   0.388
 4956TIP3   OH214873   3.200   1.719   1.933
 4956TIP3    H114874   3.206   1.648   1.870
 4956TIP3    H214875   3.216   1.677   2.018
 4957TIP3   OH214876   5.258   4.128   3.814
 4957TIP3    H114877   5.236   4.151   3.905
 4957TIP3    H214878   5.257   4.212   3.768
 4958TIP3   OH214879   2.026   5.276   3.111
 4958TIP3    H114880   2.082   5.239   3.180
 4958TIP3    H214881   1.942   5.231   3.121
 4959TIP3   OH214882   5.196   4.054   2.812
 4959TIP3    H114883   5.227   4.035   2.900
 4959TIP3    H214884   5.138   3.982   2.790
 4960TIP3   OH214885   2.787   3.137   2.963
 4960TIP3    H114886   2.716   3.182   2.916
 4960TIP3    H214887   2.764   3.148   3.055
 4961TIP3   OH214888   0.851   3.600   4.816
 4961TIP3    H114889   0.892   3.634   4.736
 4961TIP3    H214890   0.784   3.539   4.784
 4962TIP3   OH214891   2.070   4.870   4.280
 4962TIP3    H114892   2.008   4.935   4.313
 4962TIP3    H214893   2.106   4.829   4.358
 4963TIP3   OH214894   1.483   3.447   2.130
 4963TIP3    H114895   1.513   3.449   2.039
 4963TIP3    H214896   1.389   3.430   2.125
 4964TIP3   OH214897   0.671   3.921   1.942
 4964TIP3    H114898   0.632   3.844   1.983
 4964TIP3    H214899   0.598   3.963   1.895
 4965TIP3   OH214900   0.070   0.120   0.705
 4965TIP3    H114901   0.005   0.178   0.666
 4965TIP3    H214902   0.143   0.178   0.727
 4966TIP3   OH214903   6.353   0.108   3.646
 4966TIP3    H114904   6.275   0.163   3.650
 4966TIP3    H214905   6.358   0.080   3.555
 4967TIP3   OH214906   4.525   2.339   2.140
 4967TIP3    H114907   4.439   2.379   2.150
 4967TIP3    H214908   4.541   2.340   2.046
 4968TIP3   OH214909   4.032   3.515   1.627
 4968TIP3    H114910   4.084   3.463   1.688
 4968TIP3    H214911   4.091   3.533   1.554
 4969TIP3   OH214912   1.302   2.798   1.712
 4969TIP3    H114913   1.320   2.887   1.682
 4969TIP3    H214914   1.273   2.752   1.633
 4970TIP3   OH214915   2.277   4.704   1.187
 4970TIP3    H114916   2.339   4.723   1.117
 4970TIP3    H214917   2.327   4.717   1.268
 4971TIP3   OH214918   4.650   1.636   3.778
 4971TIP3    H114919   4.655   1.604   3.688
 4971TIP3    H214920   4.557   1.640   3.797
 4972TIP3   OH214921   1.255   4.601   1.337
 4972TIP3    H114922   1.305   4.595   1.418
 4972TIP3    H214923   1.242   4.510   1.310
 4973TIP3   OH214924   1.610   1.298   5.003
 4973TIP3    H114925   1.552   1.366   4.970
 4973TIP3    H214926   1.673   1.343   5.059
 4974TIP3   OH214927   1.385   4.851   4.959
 4974TIP3    H114928   1.389   4.909   5.035
 4974TIP3    H214929   1.411   4.765   4.994
 4975TIP3   OH214930   4.018   3.722   3.216
 4975TIP3    H114931   3.949   3.785   3.238
 4975TIP3    H214932   4.094   3.751   3.267
 4976TIP3   OH214933   4.332   3.416   3.392
 4976TIP3    H114934   4.339   3.320   3.392
 4976TIP3    H214935   4.296   3.437   3.306
 4977TIP3   OH214936   1.221   4.302   3.188
 4977TIP3    H114937   1.258   4.218   3.215
 4977TIP3    H214938   1.175   4.282   3.106
 4978TIP3   OH214939   3.617   1.316   0.923
 4978TIP3    H114940   3.605   1.259   0.999
 4978TIP3    H214941   3.698   1.363   0.941
 4979TIP3   OH214942   0.413   1.351   3.053
 4979TIP3    H114943   0.394   1.403   2.975
 4979TIP3    H214944   0.447   1.268   3.019
 4980TIP3   OH214945   0.267   2.796   4.405
 4980TIP3    H114946   0.256   2.715   4.455
 4980TIP3    H214947   0.226   2.778   4.320
 4981TIP3   OH214948   4.041   0.463   4.597
 4981TIP3    H114949   3.990   0.543   4.581
 4981TIP3    H214950   4.005   0.428   4.679
 4982TIP3   OH214951   1.440   5.323   0.145
 4982TIP3    H114952   1.460   5.237   0.107
 4982TIP3    H214953   1.436   5.382   0.070
 4983TIP3   OH214954   1.428   3.519   2.537
 4983TIP3    H114955   1.379   3.543   2.616
 4983TIP3    H214956   1.514   3.494   2.570
 4984TIP3   OH214957   0.476   3.017   4.220
 4984TIP3    H114958   0.567   3.018   4.192
 4984TIP3    H214959   0.471   3.086   4.287
 4985TIP3   OH214960   2.753   2.128   0.438
 4985TIP3    H114961   2.661   2.154   0.431
 4985TIP3    H214962   2.752   2.057   0.502
 4986TIP3   OH214963   5.837   2.995   1.377
 4986TIP3    H114964   5.828   2.963   1.467
 4986TIP3    H214965   5.784   2.936   1.324
 4987TIP3   OH214966   4.599   4.860   4.649
 4987TIP3    H114967   4.646   4.928   4.697
 4987TIP3    H214968   4.539   4.908   4.592
 4988TIP3   OH214969   3.316   1.514   3.789
 4988TIP3    H114970   3.277   1.585   3.738
 4988TIP3    H214971   3.243   1.457   3.811
 4989TIP3   OH214972   3.912   4.739   2.139
 4989TIP3    H114973   3.939   4.804   2.074
 4989TIP3    H214974   3.994   4.708   2.177
 4990TIP3   OH214975   4.683   1.087   0.913
 4990TIP3    H114976   4.718   1.105   1.000
 4990TIP3    H214977   4.655   1.172   0.881
 4991TIP3   OH214978   5.288   2.556   4.569
 4991TIP3    H114979   5.288   2.612   4.491
 4991TIP3    H214980   5.203   2.570   4.609
 4992TIP3   OH214981   5.108   0.007   4.798
 4992TIP3    H114982   5.079   0.098   4.796
 4992TIP3    H214983   5.182   0.004   4.738
 4993TIP3   OH214984   4.380   2.177   1.054
 4993TIP3    H114985   4.360   2.242   0.986
 4993TIP3    H214986   4.295   2.143   1.080
 4994TIP3   OH214987   3.010   4.971   0.094
 4994TIP3    H114988   3.070   4.947   0.023
 4994TIP3    H214989   2.953   4.895   0.104
 4995TIP3   OH214990   2.909   4.837   0.708
 4995TIP3    H114991   2.896   4.790   0.626
 4995TIP3    H214992   2.947   4.921   0.682
 4996TIP3   OH214993   0.498   5.896   2.669
 4996TIP3    H114994   0.567   5.858   2.723
 4996TIP3    H214995   0.436   5.932   2.732
 4997TIP3   OH214996   5.287   1.770   0.626
 4997TIP3    H114997   5.254   1.686   0.656
 4997TIP3    H214998   5.222   1.800   0.563
 4998TIP3   OH214999   3.296   1.401   1.073
 4998TIP3    H115000   3.302   1.461   0.998
 4998TIP3    H215001   3.329   1.318   1.039
 4999TIP3   OH215002   3.452   0.930   4.795
 4999TIP3    H115003   3.409   0.852   4.760
 4999TIP3    H215004   3.383   0.995   4.802
 5000TIP3   OH215005   5.678   5.966   4.590
 5000TIP3    H115006   5.734   5.992   4.663
 5000TIP3    H215007   5.589   5.980   4.621
 5001TIP3   OH215008   0.270   1.766   4.980
 5001TIP3    H115009   0.350   1.811   4.951
 5001TIP3    H215010   0.275   1.679   4.941
 5002TIP3   OH215011   0.885   5.654   3.212
 5002TIP3    H115012   0.811   5.713   3.230
 5002TIP3    H215013   0.938   5.658   3.291
 5003TIP3   OH215014   4.669   3.081   3.914
 5003TIP3    H115015   4.698   3.020   3.847
 5003TIP3    H215016   4.606   3.138   3.869
 5004TIP3   OH215017   0.570   2.290   2.657
 5004TIP3    H115018   0.533   2.342   2.728
 5004TIP3    H215019   0.572   2.201   2.692
 5005TIP3   OH215020   1.613   4.272   0.842
 5005TIP3    H115021   1.625   4.356   0.886
 5005TIP3    H215022   1.555   4.222   0.899
 5006TIP3   OH215023   0.731   2.992   0.852
 5006TIP3    H115024   0.695   2.961   0.935
 5006TIP3    H215025   0.662   2.976   0.788
 5007TIP3   OH215026   1.296   3.425   1.452
 5007TIP3    H115027   1.218   3.382   1.418
 5007TIP3    H215028   1.292   3.413   1.547
 5008TIP3   OH215029   3.161   3.114   3.624
 5008TIP3    H115030   3.182   3.141   3.534
 5008TIP3    H215031   3.076   3.071   3.617
 5009TIP3   OH215032   4.854   3.432   1.910
 5009TIP3    H115033   4.887   3.520   1.927
 5009TIP3    H215034   4.809   3.439   1.826
 5010TIP3   OH215035   4.181   2.173   1.247
 5010TIP3    H115036   4.124   2.117   1.300
 5010TIP3    H215037   4.206   2.244   1.307
 5011TIP3   OH215038   0.546   4.917   4.327
 5011TIP3    H115039   0.499   4.988   4.370
 5011TIP3    H215040   0.501   4.907   4.243
 5012TIP3   OH215041   2.456   5.772   3.605
 5012TIP3    H115042   2.512   5.697   3.624
 5012TIP3    H215043   2.473   5.793   3.513
 5013TIP3   OH215044   2.881   3.742   4.927
 5013TIP3    H115045   2.834   3.670   4.886
 5013TIP3    H215046   2.972   3.712   4.931
 5014TIP3   OH215047   4.142   2.913   4.755
 5014TIP3    H115048   4.060   2.897   4.708
 5014TIP3    H215049   4.190   2.831   4.749
 5015TIP3   OH215050   5.886   1.724   3.002
 5015TIP3    H115051   5.873   1.647   2.946
 5015TIP3    H215052   5.847   1.701   3.086
 5016TIP3   OH215053   5.369   0.423   0.775
 5016TIP3    H115054   5.400   0.383   0.694
 5016TIP3    H215055   5.420   0.504   0.783
 5017TIP3   OH215056   4.572   1.395   0.905
 5017TIP3    H115057   4.519   1.469   0.932
 5017TIP3    H215058   4.614   1.424   0.824
 5018TIP3   OH215059   1.201   2.729   3.574
 5018TIP3    H115060   1.235   2.746   3.662
 5018TIP3    H215061   1.141   2.802   3.557
 5019TIP3   OH215062   2.880   5.042   1.354
 5019TIP3    H115063   2.900   5.133   1.333
 5019TIP3    H215064   2.808   5.048   1.417
 5020TIP3   OH215065   1.966   4.983   2.049
 5020TIP3    H115066   1.954   5.067   2.005
 5020TIP3    H215067   2.033   5.001   2.116
 5021TIP3   OH215068   2.299   4.607   0.292
 5021TIP3    H115069   2.220   4.660   0.280
 5021TIP3    H215070   2.283   4.528   0.241
 5022TIP3   OH215071   4.390   4.750   3.538
 5022TIP3    H115072   4.392   4.690   3.613
 5022TIP3    H215073   4.420   4.834   3.574
 5023TIP3   OH215074   5.377   0.066   3.006
 5023TIP3    H115075   5.307   0.122   2.973
 5023TIP3    H215076   5.358   0.056   3.099
 5024TIP3   OH215077   5.695   3.370   1.857
 5024TIP3    H115078   5.651   3.438   1.806
 5024TIP3    H215079   5.784   3.369   1.823
 5025TIP3   OH215080   4.702   3.589   1.197
 5025TIP3    H115081   4.780   3.597   1.251
 5025TIP3    H215082   4.667   3.678   1.192
 5026TIP3   OH215083   2.524   4.306   4.513
 5026TIP3    H115084   2.463   4.373   4.544
 5026TIP3    H215085   2.610   4.344   4.525
 5027TIP3   OH215086   3.955   3.308   0.758
 5027TIP3    H115087   3.971   3.401   0.744
 5027TIP3    H215088   4.036   3.276   0.798
 5028TIP3   OH215089   1.305   4.451   4.594
 5028TIP3    H115090   1.397   4.442   4.569
 5028TIP3    H215091   1.277   4.361   4.613
 5029TIP3   OH215092   5.451   1.311   2.789
 5029TIP3    H115093   5.478   1.291   2.879
 5029TIP3    H215094   5.374   1.256   2.775
 5030TIP3   OH215095   0.461   1.746   1.807
 5030TIP3    H115096   0.406   1.675   1.775
 5030TIP3    H215097   0.402   1.801   1.859
 5031TIP3   OH215098   5.485  -0.007   3.743
 5031TIP3    H115099   5.485   0.012   3.837
 5031TIP3    H215100   5.442   0.069   3.703
 5032TIP3   OH215101   4.358   4.421   2.132
 5032TIP3    H115102   4.435   4.455   2.087
 5032TIP3    H215103   4.369   4.448   2.224
 5033TIP3   OH215104   0.869   3.491   0.372
 5033TIP3    H115105   0.789   3.466   0.418
 5033TIP3    H215106   0.936   3.432   0.407
 5034TIP3   OH215107   0.129   0.889   2.795
 5034TIP3    H115108   0.114   0.966   2.850
 5034TIP3    H215109   0.171   0.826   2.853
 5035TIP3   OH215110   2.386   1.291   3.213
 5035TIP3    H115111   2.338   1.208   3.218
 5035TIP3    H215112   2.329   1.348   3.162
 5036TIP3   OH215113   4.890   2.398   4.770
 5036TIP3    H115114   4.952   2.411   4.842
 5036TIP3    H215115   4.879   2.303   4.765
 5037TIP3   OH215116   4.144   2.146   0.693
 5037TIP3    H115117   4.126   2.072   0.635
 5037TIP3    H215118   4.117   2.116   0.780
 5038TIP3   OH215119   5.754   2.837   4.803
 5038TIP3    H115120   5.727   2.819   4.893
 5038TIP3    H215121   5.771   2.751   4.764
 5039TIP3   OH215122   3.217   3.484   3.135
 5039TIP3    H115123   3.255   3.517   3.217
 5039TIP3    H215124   3.278   3.514   3.067
 5040TIP3   OH215125   2.601   3.621   0.866
 5040TIP3    H115126   2.579   3.659   0.951
 5040TIP3    H215127   2.521   3.578   0.837
 5041TIP3   OH215128   5.283   0.716   4.493
 5041TIP3    H115129   5.366   0.699   4.538
 5041TIP3    H215130   5.216   0.685   4.554
 5042TIP3   OH215131   0.156   2.068   0.355
 5042TIP3    H115132   0.173   2.145   0.301
 5042TIP3    H215133   0.204   2.086   0.436
 5043TIP3   OH215134   4.332   4.455   3.493
 5043TIP3    H115135   4.239   4.436   3.480
 5043TIP3    H215136   4.335   4.506   3.573
 5044TIP3   OH215137   1.573   3.392   3.478
 5044TIP3    H115138   1.645   3.455   3.485
 5044TIP3    H215139   1.613   3.314   3.440
 5045TIP3   OH215140   5.220   5.077   3.125
 5045TIP3    H115141   5.201   5.062   3.032
 5045TIP3    H215142   5.177   5.160   3.145
 5046TIP3   OH215143   4.671   3.723   4.359
 5046TIP3    H115144   4.761   3.692   4.350
 5046TIP3    H215145   4.635   3.670   4.431
 5047TIP3   OH215146   5.282   5.676   3.464
 5047TIP3    H115147   5.346   5.677   3.393
 5047TIP3    H215148   5.332   5.702   3.541
 5048TIP3   OH215149   1.628   1.309   4.296
 5048TIP3    H115150   1.659   1.292   4.385
 5048TIP3    H215151   1.701   1.282   4.240
 5049TIP3   OH215152   1.954   3.809   0.291
 5049TIP3    H115153   1.889   3.785   0.225
 5049TIP3    H215154   2.035   3.822   0.240
 5050TIP3   OH215155   1.580   3.237   2.293
 5050TIP3    H115156   1.538   3.307   2.242
 5050TIP3    H215157   1.515   3.213   2.359
 5051TIP3   OH215158   0.107   0.042   1.659
 5051TIP3    H115159   0.087  -0.052   1.667
 5051TIP3    H215160   0.148   0.050   1.573
 5052TIP3   OH215161   2.758   4.986   4.701
 5052TIP3    H115162   2.853   4.975   4.698
 5052TIP3    H215163   2.734   5.012   4.613
 5053TIP3   OH215164   5.572   4.186   0.016
 5053TIP3    H115165   5.617   4.155   0.095
 5053TIP3    H215166   5.607   4.131  -0.054
 5054TIP3   OH215167   4.752   2.265   1.649
 5054TIP3    H115168   4.658   2.247   1.648
 5054TIP3    H215169   4.762   2.344   1.595
 5055TIP3   OH215170   2.009   0.123   4.663
 5055TIP3    H115171   2.084   0.154   4.611
 5055TIP3    H215172   2.011   0.028   4.653
 5056TIP3   OH215173   4.602   0.869   1.618
 5056TIP3    H115174   4.692   0.859   1.646
 5056TIP3    H215175   4.553   0.887   1.698
 5057TIP3   OH215176   1.869   5.461   4.413
 5057TIP3    H115177   1.908   5.474   4.499
 5057TIP3    H215178   1.941   5.426   4.360
 5058TIP3   OH215179   3.201   5.253   2.940
 5058TIP3    H115180   3.111   5.243   2.970
 5058TIP3    H215181   3.210   5.190   2.869
 5059TIP3   OH215182   4.450   2.392   3.285
 5059TIP3    H115183   4.391   2.452   3.329
 5059TIP3    H215184   4.515   2.368   3.351
 5060TIP3   OH215185   4.556   3.490   0.052
 5060TIP3    H115186   4.527   3.576   0.022
 5060TIP3    H215187   4.522   3.483   0.141
 5061TIP3   OH215188   2.605   3.035   0.956
 5061TIP3    H115189   2.595   2.997   1.043
 5061TIP3    H215190   2.628   3.127   0.972
 5062TIP3   OH215191   0.018   1.607   0.125
 5062TIP3    H115192   0.096   1.620   0.179
 5062TIP3    H215193  -0.042   1.560   0.183
 5063TIP3   OH215194   0.048   2.474   3.414
 5063TIP3    H115195  -0.023   2.519   3.460
 5063TIP3    H215196   0.057   2.520   3.331
 5064TIP3   OH215197   0.110   2.542   3.131
 5064TIP3    H115198   0.092   2.622   3.082
 5064TIP3    H215199   0.204   2.531   3.126
 5065TIP3   OH215200   4.033   2.399   3.589
 5065TIP3    H115201   3.972   2.344   3.540
 5065TIP3    H215202   4.081   2.338   3.646
 5066TIP3   OH215203   0.461   5.297   4.459
 5066TIP3    H115204   0.418   5.214   4.480
 5066TIP3    H215205   0.555   5.279   4.470
 5067TIP3   OH215206   0.725   4.201   0.092
 5067TIP3    H115207   0.816   4.182   0.114
 5067TIP3    H215208   0.698   4.266   0.157
 5068TIP3   OH215209   0.669   1.620   1.306
 5068TIP3    H115210   0.703   1.695   1.355
 5068TIP3    H215211   0.592   1.592   1.356
 5069TIP3   OH215212   4.368   2.202   4.137
 5069TIP3    H115213   4.389   2.254   4.059
 5069TIP3    H215214   4.273   2.190   4.132
 5070TIP3   OH215215   2.440   4.545   2.521
 5070TIP3    H115216   2.505   4.611   2.549
 5070TIP3    H215217   2.359   4.571   2.565
 5071TIP3   OH215218   5.008   0.371   1.454
 5071TIP3    H115219   4.922   0.339   1.427
 5071TIP3    H215220   5.006   0.465   1.433
 5072TIP3   OH215221   2.896   3.037   0.787
 5072TIP3    H115222   2.965   3.087   0.830
 5072TIP3    H215223   2.816   3.088   0.803
 5073TIP3   OH215224   2.544   4.480   0.381
 5073TIP3    H115225   2.582   4.461   0.295
 5073TIP3    H215226   2.458   4.516   0.361
 5074TIP3   OH215227   2.346   3.851   4.750
 5074TIP3    H115228   2.400   3.924   4.780
 5074TIP3    H215229   2.405   3.776   4.752
 5075TIP3   OH215230   1.652   3.576   0.317
 5075TIP3    H115231   1.595   3.503   0.295
 5075TIP3    H215232   1.633   3.594   0.409
 5076TIP3   OH215233   3.533   1.410   4.050
 5076TIP3    H115234   3.514   1.328   4.004
 5076TIP3    H215235   3.549   1.473   3.980
 5077TIP3   OH215236   3.804   0.297   2.410
 5077TIP3    H115237   3.853   0.374   2.439
 5077TIP3    H215238   3.849   0.268   2.331
 5078TIP3   OH215239   1.617   0.170   3.379
 5078TIP3    H115240   1.677   0.180   3.305
 5078TIP3    H215241   1.578   0.256   3.391
 5079TIP3   OH215242   4.611   3.338   3.671
 5079TIP3    H115243   4.642   3.261   3.718
 5079TIP3    H215244   4.519   3.321   3.654
 5080TIP3   OH215245   3.545   4.857   2.801
 5080TIP3    H115246   3.551   4.832   2.708
 5080TIP3    H215247   3.588   4.943   2.805
 5081TIP3   OH215248   3.841   3.820   2.545
 5081TIP3    H115249   3.860   3.784   2.459
 5081TIP3    H215250   3.912   3.882   2.563
 5082TIP3   OH215251   5.003   5.407   0.602
 5082TIP3    H115252   4.913   5.435   0.615
 5082TIP3    H215253   5.013   5.330   0.657
 5083TIP3   OH215254   4.092   0.753   4.050
 5083TIP3    H115255   4.126   0.765   4.138
 5083TIP3    H215256   4.167   0.768   3.993
 5084TIP3   OH215257   5.049   1.642   4.280
 5084TIP3    H115258   4.979   1.589   4.317
 5084TIP3    H215259   5.070   1.601   4.196
 5085TIP3   OH215260   3.608   1.932   4.212
 5085TIP3    H115261   3.523   1.930   4.169
 5085TIP3    H215262   3.671   1.919   4.142
 5086TIP3   OH215263   4.391   0.723   1.976
 5086TIP3    H115264   4.441   0.748   2.054
 5086TIP3    H215265   4.401   0.796   1.916
 5087TIP3   OH215266   5.227   2.968   3.708
 5087TIP3    H115267   5.253   2.880   3.734
 5087TIP3    H215268   5.306   3.006   3.669
 5088TIP3   OH215269   0.023   2.084   1.200
 5088TIP3    H115270  -0.034   2.018   1.239
 5088TIP3    H215271   0.032   2.152   1.266
 5089TIP3   OH215272   1.304   5.267   0.847
 5089TIP3    H115273   1.261   5.182   0.839
 5089TIP3    H215274   1.350   5.278   0.763
 5090TIP3   OH215275   2.386   4.176   2.953
 5090TIP3    H115276   2.329   4.153   2.880
 5090TIP3    H215277   2.339   4.244   3.000
 5091TIP3   OH215278   4.127   2.384   4.898
 5091TIP3    H115279   4.068   2.440   4.948
 5091TIP3    H215280   4.093   2.295   4.912
 5092TIP3   OH215281   4.011   4.811   4.161
 5092TIP3    H115282   4.006   4.890   4.213
 5092TIP3    H215283   3.923   4.799   4.125
 5093TIP3   OH215284   3.269   5.366   1.803
 5093TIP3    H115285   3.187   5.370   1.753
 5093TIP3    H215286   3.329   5.424   1.756
 5094TIP3   OH215287   0.437   4.135   1.667
 5094TIP3    H115288   0.376   4.204   1.696
 5094TIP3    H215289   0.382   4.071   1.624
 5095TIP3   OH215290   2.378   2.792   4.993
 5095TIP3    H115291   2.368   2.868   5.051
 5095TIP3    H215292   2.472   2.787   4.978
 5096TIP3   OH215293   3.215   0.199   2.014
 5096TIP3    H115294   3.172   0.269   1.967
 5096TIP3    H215295   3.199   0.121   1.961
 5097TIP3   OH215296   3.151   3.740   0.793
 5097TIP3    H115297   3.190   3.699   0.716
 5097TIP3    H215298   3.073   3.784   0.760
 5098TIP3   OH215299   0.255   1.455   1.270
 5098TIP3    H115300   0.287   1.492   1.187
 5098TIP3    H215301   0.163   1.436   1.254
 5099TIP3   OH215302   5.505   3.821   2.430
 5099TIP3    H115303   5.467   3.750   2.379
 5099TIP3    H215304   5.598   3.799   2.437
 5100TIP3   OH215305   4.425   4.485   1.248
 5100TIP3    H115306   4.365   4.411   1.255
 5100TIP3    H215307   4.461   4.479   1.160
 5101TIP3   OH215308   5.996   3.971   2.318
 5101TIP3    H115309   6.074   3.925   2.290
 5101TIP3    H215310   6.025   4.025   2.392
 5102TIP3   OH215311   2.297   4.234   1.377
 5102TIP3    H115312   2.308   4.315   1.328
 5102TIP3    H215313   2.367   4.235   1.442
 5103TIP3   OH215314   3.259   5.472   4.883
 5103TIP3    H115315   3.293   5.524   4.956
 5103TIP3    H215316   3.165   5.484   4.886
 5104TIP3   OH215317   0.992   0.551   0.470
 5104TIP3    H115318   0.904   0.588   0.477
 5104TIP3    H215319   1.031   0.598   0.397
 5105TIP3   OH215320   1.902   4.067   0.106
 5105TIP3    H115321   1.916   4.159   0.128
 5105TIP3    H215322   1.931   4.019   0.184
 5106TIP3   OH215323   2.023   0.585   0.964
 5106TIP3    H115324   2.087   0.633   1.016
 5106TIP3    H215325   2.076   0.533   0.904
 5107TIP3   OH215326   2.302   3.031   0.877
 5107TIP3    H115327   2.398   3.029   0.874
 5107TIP3    H215328   2.279   3.118   0.845
 5108TIP3   OH215329   5.199   0.425   2.218
 5108TIP3    H115330   5.276   0.410   2.164
 5108TIP3    H215331   5.157   0.338   2.225
 5109TIP3   OH215332   5.747   0.458   4.903
 5109TIP3    H115333   5.720   0.490   4.989
 5109TIP3    H215334   5.827   0.506   4.883
 5110TIP3   OH215335   5.997   3.582   1.964
 5110TIP3    H115336   5.941   3.588   1.887
 5110TIP3    H215337   6.032   3.670   1.976
 5111TIP3   OH215338   4.477   1.647   0.949
 5111TIP3    H115339   4.391   1.660   0.909
 5111TIP3    H215340   4.525   1.727   0.928
 5112TIP3   OH215341   4.572   0.469   3.785
 5112TIP3    H115342   4.582   0.491   3.692
 5112TIP3    H215343   4.501   0.406   3.787
 5113TIP3   OH215344   4.474   3.447   0.833
 5113TIP3    H115345   4.516   3.375   0.785
 5113TIP3    H215346   4.525   3.524   0.810
 5114TIP3   OH215347   2.568   3.433   0.371
 5114TIP3    H115348   2.483   3.433   0.326
 5114TIP3    H215349   2.551   3.389   0.454
 5115TIP3   OH215350   3.450   5.099   0.225
 5115TIP3    H115351   3.514   5.080   0.294
 5115TIP3    H215352   3.366   5.076   0.264
 5116TIP3   OH215353   4.322   3.779   1.418
 5116TIP3    H115354   4.415   3.786   1.438
 5116TIP3    H215355   4.298   3.691   1.448
 5117TIP3   OH215356   5.515   3.841   1.841
 5117TIP3    H115357   5.439   3.784   1.836
 5117TIP3    H215358   5.500   3.894   1.919
 5118TIP3   OH215359   1.636   0.620   0.200
 5118TIP3    H115360   1.598   0.703   0.172
 5118TIP3    H215361   1.606   0.557   0.134
 5119TIP3   OH215362   5.483   2.227   2.648
 5119TIP3    H115363   5.422   2.158   2.622
 5119TIP3    H215364   5.525   2.193   2.727
 5120TIP3   OH215365   1.694   2.322   2.048
 5120TIP3    H115366   1.740   2.252   2.094
 5120TIP3    H215367   1.763   2.380   2.018
 5121TIP3   OH215368   5.410   2.993   1.316
 5121TIP3    H115369   5.383   3.067   1.261
 5121TIP3    H215370   5.423   2.921   1.254
 5122TIP3   OH215371   6.290   3.567   3.971
 5122TIP3    H115372   6.299   3.516   3.890
 5122TIP3    H215373   6.269   3.655   3.941
 5123TIP3   OH215374   1.850   4.444   4.351
 5123TIP3    H115375   1.789   4.506   4.391
 5123TIP3    H215376   1.912   4.423   4.421
 5124TIP3   OH215377   1.566   2.372   2.331
 5124TIP3    H115378   1.520   2.305   2.281
 5124TIP3    H215379   1.657   2.367   2.302
 5125TIP3   OH215380   5.417   3.892   5.211
 5125TIP3    H115381   5.465   3.928   5.137
 5125TIP3    H215382   5.448   3.801   5.218
 5126TIP3   OH215383   2.595   3.505   1.464
 5126TIP3    H115384   2.541   3.555   1.402
 5126TIP3    H215385   2.559   3.526   1.549
 5127TIP3   OH215386   5.919   3.764   0.326
 5127TIP3    H115387   5.986   3.824   0.360
 5127TIP3    H215388   5.853   3.761   0.395
 5128TIP3   OH215389   5.372   5.132   4.682
 5128TIP3    H115390   5.437   5.116   4.614
 5128TIP3    H215391   5.289   5.137   4.635
 5129TIP3   OH215392   4.993   3.872   4.688
 5129TIP3    H115393   4.968   3.784   4.659
 5129TIP3    H215394   5.003   3.922   4.607
 5130TIP3   OH215395   5.725   4.583   4.658
 5130TIP3    H115396   5.773   4.605   4.578
 5130TIP3    H215397   5.636   4.613   4.642
 5131TIP3   OH215398   2.821   5.094   5.010
 5131TIP3    H115399   2.751   5.036   4.980
 5131TIP3    H215400   2.895   5.035   5.024
 5132TIP3   OH215401   3.015   1.477   2.744
 5132TIP3    H115402   3.020   1.389   2.706
 5132TIP3    H215403   2.922   1.494   2.754
 5133TIP3   OH215404   2.763   1.578   2.802
 5133TIP3    H115405   2.708   1.518   2.853
 5133TIP3    H215406   2.703   1.647   2.773
 5134TIP3   OH215407   3.484   2.171   5.145
 5134TIP3    H115408   3.472   2.127   5.229
 5134TIP3    H215409   3.436   2.118   5.083
 5135TIP3   OH215410   5.350   0.340   3.232
 5135TIP3    H115411   5.337   0.371   3.322
 5135TIP3    H215412   5.445   0.340   3.220
 5136TIP3   OH215413   1.336   1.502   0.880
 5136TIP3    H115414   1.428   1.477   0.873
 5136TIP3    H215415   1.338   1.590   0.918
 5137TIP3   OH215416   0.929   5.352   3.402
 5137TIP3    H115417   0.960   5.441   3.415
 5137TIP3    H215418   0.964   5.327   3.316
 5138TIP3   OH215419   2.405   5.205   4.852
 5138TIP3    H115420   2.483   5.258   4.835
 5138TIP3    H215421   2.440   5.122   4.885
 5139TIP3   OH215422   5.050   1.769   3.294
 5139TIP3    H115423   5.113   1.748   3.363
 5139TIP3    H215424   5.085   1.725   3.216
 5140TIP3   OH215425   4.995   2.573   0.392
 5140TIP3    H115426   5.014   2.492   0.439
 5140TIP3    H215427   5.078   2.620   0.390
 5141TIP3   OH215428   3.038   0.916   0.677
 5141TIP3    H115429   2.979   0.876   0.614
 5141TIP3    H215430   3.027   1.010   0.663
 5142TIP3   OH215431   2.902   3.143   1.177
 5142TIP3    H115432   2.857   3.076   1.228
 5142TIP3    H215433   2.899   3.221   1.231
 5143TIP3   OH215434   0.606   0.873   2.569
 5143TIP3    H115435   0.542   0.908   2.507
 5143TIP3    H215436   0.573   0.786   2.592
 5144TIP3   OH215437   5.227   0.921   1.261
 5144TIP3    H115438   5.135   0.948   1.249
 5144TIP3    H215439   5.275   0.969   1.194
 5145TIP3   OH215440   4.783   2.921   3.698
 5145TIP3    H115441   4.829   2.838   3.711
 5145TIP3    H215442   4.696   2.895   3.668
 5146TIP3   OH215443   0.611   2.636   2.644
 5146TIP3    H115444   0.619   2.699   2.572
 5146TIP3    H215445   0.629   2.552   2.604
 5147TIP3   OH215446   2.427   0.843   1.755
 5147TIP3    H115447   2.439   0.936   1.775
 5147TIP3    H215448   2.333   0.831   1.747
 5148TIP3   OH215449   0.357   5.474   1.693
 5148TIP3    H115450   0.362   5.463   1.787
 5148TIP3    H215451   0.392   5.562   1.677
 5149TIP3   OH215452   1.484   3.814   0.296
 5149TIP3    H115453   1.571   3.776   0.309
 5149TIP3    H215454   1.425   3.756   0.346
 5150TIP3   OH215455   0.961   5.924   5.020
 5150TIP3    H115456   0.920   5.989   4.964
 5150TIP3    H215457   0.889   5.892   5.075
 5151TIP3   OH215458   4.084   5.477   3.012
 5151TIP3    H115459   4.022   5.501   3.080
 5151TIP3    H215460   4.132   5.402   3.048
 5152TIP3   OH215461   4.542   3.983   4.438
 5152TIP3    H115462   4.461   3.935   4.424
 5152TIP3    H215463   4.610   3.916   4.441
 5153TIP3   OH215464   2.518   0.946   3.171
 5153TIP3    H115465   2.455   0.949   3.243
 5153TIP3    H215466   2.467   0.972   3.094
 5154TIP3   OH215467   5.395   1.626   3.015
 5154TIP3    H115468   5.375   1.554   3.075
 5154TIP3    H215469   5.310   1.653   2.981
 5155TIP3   OH215470   2.859   4.825   2.259
 5155TIP3    H115471   2.941   4.874   2.266
 5155TIP3    H215472   2.868   4.754   2.323
 5156TIP3   OH215473   0.361   0.242   1.695
 5156TIP3    H115474   0.328   0.181   1.629
 5156TIP3    H215475   0.373   0.324   1.648
 5157TIP3   OH215476   5.691   2.051   2.008
 5157TIP3    H115477   5.652   2.137   1.996
 5157TIP3    H215478   5.652   2.018   2.089
 5158TIP3   OH215479   4.170   0.167   1.277
 5158TIP3    H115480   4.264   0.152   1.269
 5158TIP3    H215481   4.136   0.086   1.316
 5159TIP3   OH215482   2.164   1.148   1.611
 5159TIP3    H115483   2.117   1.065   1.602
 5159TIP3    H215484   2.244   1.125   1.658
 5160TIP3   OH215485   1.448   0.001   3.599
 5160TIP3    H115486   1.438   0.058   3.675
 5160TIP3    H215487   1.364   0.006   3.554
 5161TIP3   OH215488   4.280   2.862   1.961
 5161TIP3    H115489   4.223   2.807   2.016
 5161TIP3    H215490   4.368   2.826   1.974
 5162TIP3   OH215491   4.224   1.559   3.960
 5162TIP3    H115492   4.149   1.541   3.903
 5162TIP3    H215493   4.227   1.484   4.019
 5163TIP3   OH215494   6.299   4.298   1.350
 5163TIP3    H115495   6.347   4.233   1.298
 5163TIP3    H215496   6.346   4.380   1.334
 5164TIP3   OH215497   2.612   1.503   1.347
 5164TIP3    H115498   2.644   1.436   1.408
 5164TIP3    H215499   2.690   1.533   1.300
 5165TIP3   OH215500   1.522   4.247   3.579
 5165TIP3    H115501   1.595   4.194   3.547
 5165TIP3    H215502   1.461   4.251   3.505
 5166TIP3   OH215503   3.790   1.226   1.350
 5166TIP3    H115504   3.867   1.175   1.373
 5166TIP3    H215505   3.719   1.188   1.403
 5167TIP3   OH215506   4.138   4.499   0.856
 5167TIP3    H115507   4.052   4.529   0.825
 5167TIP3    H215508   4.120   4.413   0.895
 5168TIP3   OH215509   2.402   4.803   2.857
 5168TIP3    H115510   2.393   4.708   2.864
 5168TIP3    H215511   2.496   4.818   2.855
 5169TIP3   OH215512   2.524   5.834   0.491
 5169TIP3    H115513   2.460   5.906   0.491
 5169TIP3    H215514   2.577   5.849   0.412
 5170TIP3   OH215515   4.064   5.603   3.948
 5170TIP3    H115516   4.121   5.567   3.880
 5170TIP3    H215517   4.074   5.698   3.941
 5171TIP3   OH215518   3.957   5.041   4.308
 5171TIP3    H115519   3.870   5.081   4.305
 5171TIP3    H215520   4.008   5.099   4.364
 5172TIP3   OH215521   4.554   0.602   2.547
 5172TIP3    H115522   4.555   0.692   2.578
 5172TIP3    H215523   4.644   0.572   2.553
 5173TIP3   OH215524   1.097   0.794   0.646
 5173TIP3    H115525   1.057   0.707   0.640
 5173TIP3    H215526   1.186   0.776   0.678
 5174TIP3   OH215527   4.070   0.699   5.107
 5174TIP3    H115528   4.138   0.747   5.059
 5174TIP3    H215529   4.117   0.657   5.179
 5175TIP3   OH215530   5.679   0.781   3.454
 5175TIP3    H115531   5.755   0.839   3.448
 5175TIP3    H215532   5.615   0.830   3.506
 5176TIP3   OH215533   2.580   4.565   1.515
 5176TIP3    H115534   2.613   4.497   1.574
 5176TIP3    H215535   2.630   4.643   1.538
 5177TIP3   OH215536   4.928   2.683   0.936
 5177TIP3    H115537   4.874   2.651   0.864
 5177TIP3    H215538   5.018   2.674   0.904
 5178TIP3   OH215539   4.003   1.026   4.627
 5178TIP3    H115540   4.073   0.970   4.659
 5178TIP3    H215541   3.965   0.977   4.554
 5179TIP3   OH215542   4.221   1.418   1.197
 5179TIP3    H115543   4.242   1.472   1.273
 5179TIP3    H215544   4.126   1.414   1.194
 5180TIP3   OH215545   3.072   5.540   3.516
 5180TIP3    H115546   3.117   5.535   3.600
 5180TIP3    H215547   3.012   5.465   3.516
 5181TIP3   OH215548   0.749   5.793   5.163
 5181TIP3    H115549   0.806   5.726   5.201
 5181TIP3    H215550   0.703   5.748   5.092
 5182TIP3   OH215551   2.006   3.400   1.053
 5182TIP3    H115552   1.947   3.445   0.993
 5182TIP3    H215553   2.002   3.451   1.134
 5183TIP3   OH215554   5.791   1.277   5.043
 5183TIP3    H115555   5.852   1.216   5.001
 5183TIP3    H215556   5.712   1.224   5.059
 5184TIP3   OH215557   3.065   2.979   4.819
 5184TIP3    H115558   2.972   2.987   4.840
 5184TIP3    H215559   3.083   2.885   4.824
 5185TIP3   OH215560   0.762   2.597   2.071
 5185TIP3    H115561   0.701   2.555   2.011
 5185TIP3    H215562   0.838   2.619   2.016
 5186TIP3   OH215563   4.302   1.911   0.185
 5186TIP3    H115564   4.363   1.954   0.245
 5186TIP3    H215565   4.297   1.970   0.109
 5187TIP3   OH215566   3.796   2.296   1.910
 5187TIP3    H115567   3.827   2.357   1.843
 5187TIP3    H215568   3.709   2.270   1.881
 5188TIP3   OH215569   0.286   5.569   3.669
 5188TIP3    H115570   0.210   5.511   3.664
 5188TIP3    H215571   0.361   5.513   3.650
 5189TIP3   OH215572   4.919   3.878   4.087
 5189TIP3    H115573   4.983   3.886   4.017
 5189TIP3    H215574   4.964   3.914   4.164
 5190TIP3   OH215575   3.780   4.597   2.844
 5190TIP3    H115576   3.789   4.615   2.938
 5190TIP3    H215577   3.703   4.541   2.837
 5191TIP3   OH215578   2.351   1.120   4.242
 5191TIP3    H115579   2.301   1.040   4.259
 5191TIP3    H215580   2.442   1.094   4.256
 5192TIP3   OH215581   3.135   1.451   4.189
 5192TIP3    H115582   3.154   1.432   4.281
 5192TIP3    H215583   3.198   1.520   4.166
 5193TIP3   OH215584   6.049   0.795   4.503
 5193TIP3    H115585   6.034   0.857   4.431
 5193TIP3    H215586   6.137   0.816   4.534
 5194TIP3   OH215587   3.950   5.970   4.224
 5194TIP3    H115588   4.034   5.991   4.264
 5194TIP3    H215589   3.902   5.922   4.291
 5195TIP3   OH215590   2.833   1.006   2.440
 5195TIP3    H115591   2.885   0.963   2.508
 5195TIP3    H215592   2.843   1.100   2.458
 5196TIP3   OH215593   4.419   3.776   2.567
 5196TIP3    H115594   4.362   3.717   2.519
 5196TIP3    H215595   4.506   3.763   2.530
 5197TIP3   OH215596   4.410   4.843   3.266
 5197TIP3    H115597   4.335   4.806   3.313
 5197TIP3    H215598   4.478   4.853   3.333
 5198TIP3   OH215599   1.806   0.690   0.418
 5198TIP3    H115600   1.763   0.681   0.503
 5198TIP3    H215601   1.746   0.648   0.356
 5199TIP3   OH215602   3.288   5.951   2.243
 5199TIP3    H115603   3.217   5.916   2.297
 5199TIP3    H215604   3.312   5.879   2.186
 5200TIP3   OH215605   2.583   5.253   5.080
 5200TIP3    H115606   2.558   5.206   5.160
 5200TIP3    H215607   2.675   5.230   5.066
 5201TIP3   OH215608   3.204   5.023   3.171
 5201TIP3    H115609   3.228   5.103   3.124
 5201TIP3    H215610   3.228   4.952   3.111
 5202TIP3   OH215611   2.242   1.136   2.333
 5202TIP3    H115612   2.264   1.204   2.397
 5202TIP3    H215613   2.325   1.115   2.291
 5203TIP3   OH215614   2.585   5.115   4.396
 5203TIP3    H115615   2.551   5.150   4.314
 5203TIP3    H215616   2.643   5.183   4.430
 5204TIP3   OH215617   0.433   0.378   4.428
 5204TIP3    H115618   0.406   0.447   4.489
 5204TIP3    H215619   0.446   0.423   4.345
 5205TIP3   OH215620   2.728   0.868   0.976
 5205TIP3    H115621   2.673   0.856   0.899
 5205TIP3    H215622   2.672   0.844   1.050
 5206TIP3   OH215623   1.817   0.091   1.721
 5206TIP3    H115624   1.761   0.055   1.789
 5206TIP3    H215625   1.825   0.184   1.743
 5207TIP3   OH215626   2.653   0.768   0.648
 5207TIP3    H115627   2.600   0.846   0.666
 5207TIP3    H215628   2.737   0.802   0.618
 5208TIP3   OH215629   1.472   1.841   1.521
 5208TIP3    H115630   1.524   1.773   1.565
 5208TIP3    H215631   1.393   1.795   1.492
 5209TIP3   OH215632   4.224   0.041   0.795
 5209TIP3    H115633   4.306   0.058   0.840
 5209TIP3    H215634   4.194  -0.043   0.830
 5210TIP3   OH215635   3.683   1.118   3.113
 5210TIP3    H115636   3.677   1.123   3.208
 5210TIP3    H215637   3.606   1.165   3.081
 5211TIP3   OH215638   5.426   5.718   5.090
 5211TIP3    H115639   5.500   5.683   5.041
 5211TIP3    H215640   5.447   5.697   5.182
 5212TIP3   OH215641   4.364   2.466   5.029
 5212TIP3    H115642   4.308   2.514   5.090
 5212TIP3    H215643   4.306   2.403   4.987
 5213TIP3   OH215644   6.081   5.461   2.032
 5213TIP3    H115645   6.124   5.441   1.949
 5213TIP3    H215646   6.111   5.393   2.092
 5214TIP3   OH215647   0.205   2.596   3.930
 5214TIP3    H115648   0.258   2.535   3.981
 5214TIP3    H215649   0.149   2.540   3.877
 5215TIP3   OH215650   2.020   0.542   0.418
 5215TIP3    H115651   1.959   0.515   0.350
 5215TIP3    H215652   1.988   0.627   0.446
 5216TIP3   OH215653   5.044   2.302   0.143
 5216TIP3    H115654   4.973   2.347   0.098
 5216TIP3    H215655   5.004   2.221   0.176
 5217TIP3   OH215656   5.613   2.830  -0.017
 5217TIP3    H115657   5.541   2.889   0.004
 5217TIP3    H215658   5.584   2.745   0.016
 5218TIP3   OH215659   2.167   5.171   1.550
 5218TIP3    H115660   2.169   5.258   1.589
 5218TIP3    H215661   2.256   5.138   1.560
 5219TIP3   OH215662   0.736   4.902   2.929
 5219TIP3    H115663   0.693   4.923   3.012
 5219TIP3    H215664   0.787   4.980   2.908
 5220TIP3   OH215665   1.081   5.115   1.607
 5220TIP3    H115666   1.156   5.056   1.619
 5220TIP3    H215667   1.095   5.185   1.672
 5221TIP3   OH215668   5.650   0.129   1.499
 5221TIP3    H115669   5.693   0.081   1.428
 5221TIP3    H215670   5.591   0.066   1.540
 5222TIP3   OH215671   2.349   4.380   2.019
 5222TIP3    H115672   2.430   4.329   2.022
 5222TIP3    H215673   2.372   4.464   2.059
 5223TIP3   OH215674   2.708   1.193   3.788
 5223TIP3    H115675   2.798   1.208   3.756
 5223TIP3    H215676   2.716   1.199   3.883
 5224TIP3   OH215677   5.594   2.224   5.033
 5224TIP3    H115678   5.514   2.225   4.982
 5224TIP3    H215679   5.652   2.286   4.989
 5225TIP3   OH215680   0.285   1.865   1.450
 5225TIP3    H115681   0.302   1.877   1.356
 5225TIP3    H215682   0.361   1.815   1.481
 5226TIP3   OH215683   2.843   0.663   2.087
 5226TIP3    H115684   2.853   0.626   2.175
 5226TIP3    H215685   2.749   0.676   2.078
 5227TIP3   OH215686   0.132   1.184   4.331
 5227TIP3    H115687   0.072   1.244   4.375
 5227TIP3    H215688   0.187   1.149   4.401
 5228TIP3   OH215689   1.618   1.160   0.265
 5228TIP3    H115690   1.688   1.221   0.290
 5228TIP3    H215691   1.626   1.153   0.169
 5229TIP3   OH215692   2.369   0.222   2.053
 5229TIP3    H115693   2.413   0.137   2.048
 5229TIP3    H215694   2.319   0.228   1.972
 5230TIP3   OH215695   5.298   1.346   2.451
 5230TIP3    H115696   5.330   1.435   2.434
 5230TIP3    H215697   5.230   1.358   2.517
 5231TIP3   OH215698   6.138   4.372   0.900
 5231TIP3    H115699   6.224   4.345   0.931
 5231TIP3    H215700   6.089   4.394   0.980
 5232TIP3   OH215701   5.748   4.610   0.341
 5232TIP3    H115702   5.732   4.666   0.417
 5232TIP3    H215703   5.758   4.522   0.377
 5233TIP3   OH215704   6.038   0.049   2.259
 5233TIP3    H115705   6.018  -0.036   2.299
 5233TIP3    H215706   6.100   0.090   2.319
 5234TIP3   OH215707   0.627   1.990   4.272
 5234TIP3    H115708   0.698   1.967   4.332
 5234TIP3    H215709   0.662   2.063   4.221
 5235TIP3   OH215710   2.504   1.887   0.958
 5235TIP3    H115711   2.448   1.926   1.025
 5235TIP3    H215712   2.531   1.960   0.903
 5236TIP3   OH215713   4.228   2.616   2.469
 5236TIP3    H115714   4.251   2.523   2.473
 5236TIP3    H215715   4.254   2.651   2.554
 5237TIP3   OH215716   0.123   0.000   1.957
 5237TIP3    H115717   0.118   0.019   1.863
 5237TIP3    H215718   0.191  -0.067   1.964
 5238TIP3   OH215719   0.089   5.388   3.577
 5238TIP3    H115720   0.131   5.331   3.513
 5238TIP3    H215721   0.023   5.436   3.526
 5239TIP3   OH215722   2.483   3.209   4.632
 5239TIP3    H115723   2.476   3.237   4.541
 5239TIP3    H215724   2.393   3.187   4.657
 5240TIP3   OH215725   5.092   1.083   2.263
 5240TIP3    H115726   5.074   0.989   2.259
 5240TIP3    H215727   5.181   1.092   2.229
 5241TIP3   OH215728   5.850   0.872   2.312
 5241TIP3    H115729   5.834   0.778   2.324
 5241TIP3    H215730   5.847   0.885   2.217
 5242TIP3   OH215731   0.774   4.791   4.219
 5242TIP3    H115732   0.711   4.861   4.205
 5242TIP3    H215733   0.738   4.741   4.293
 5243TIP3   OH215734   3.384   1.444   0.054
 5243TIP3    H115735   3.320   1.389   0.007
 5243TIP3    H215736   3.369   1.423   0.146
 5244TIP3   OH215737   0.834   3.233   3.831
 5244TIP3    H115738   0.858   3.183   3.908
 5244TIP3    H215739   0.743   3.258   3.846
 5245TIP3   OH215740   2.494   4.399   3.777
 5245TIP3    H115741   2.424   4.334   3.767
 5245TIP3    H215742   2.566   4.366   3.722
 5246TIP3   OH215743   2.356   3.721   4.079
 5246TIP3    H115744   2.451   3.729   4.071
 5246TIP3    H215745   2.323   3.810   4.066
 5247TIP3   OH215746   5.325   2.564   4.858
 5247TIP3    H115747   5.341   2.559   4.763
 5247TIP3    H215748   5.356   2.651   4.882
 5248TIP3   OH215749   1.670   1.875   4.819
 5248TIP3    H115750   1.643   1.953   4.868
 5248TIP3    H215751   1.588   1.840   4.784
 5249TIP3   OH215752   6.235   3.635   0.198
 5249TIP3    H115753   6.177   3.658   0.270
 5249TIP3    H215754   6.218   3.542   0.181
 5250TIP3   OH215755   4.036   5.984   0.756
 5250TIP3    H115756   4.031   5.905   0.702
 5250TIP3    H215757   4.129   5.994   0.777
 5251TIP3   OH215758   3.528   1.681   4.869
 5251TIP3    H115759   3.503   1.630   4.946
 5251TIP3    H215760   3.451   1.680   4.813
 5252TIP3   OH215761   5.123   3.420   4.685
 5252TIP3    H115762   5.115   3.335   4.642
 5252TIP3    H215763   5.048   3.424   4.744
 5253TIP3   OH215764   0.323   0.375   3.131
 5253TIP3    H115765   0.385   0.423   3.075
 5253TIP3    H215766   0.339   0.283   3.110
 5254TIP3   OH215767   2.742   3.978   4.540
 5254TIP3    H115768   2.793   4.005   4.616
 5254TIP3    H215769   2.776   4.031   4.468
 5255TIP3   OH215770   3.735   4.015   1.482
 5255TIP3    H115771   3.781   4.026   1.399
 5255TIP3    H215772   3.645   3.995   1.457
 5256TIP3   OH215773   1.402   3.899   2.472
 5256TIP3    H115774   1.389   3.971   2.411
 5256TIP3    H215775   1.314   3.879   2.505
 5257TIP3   OH215776   4.108   4.610   1.747
 5257TIP3    H115777   4.105   4.588   1.840
 5257TIP3    H215778   4.026   4.656   1.731
 5258TIP3   OH215779   2.822   0.986   2.165
 5258TIP3    H115780   2.818   0.932   2.244
 5258TIP3    H215781   2.826   1.076   2.198
 5259TIP3   OH215782   2.454   5.312   3.501
 5259TIP3    H115783   2.409   5.297   3.584
 5259TIP3    H215784   2.431   5.237   3.446
 5260TIP3   OH215785   2.613   4.662   1.160
 5260TIP3    H115786   2.674   4.617   1.100
 5260TIP3    H215787   2.670   4.713   1.218
 5261TIP3   OH215788   5.001   5.637   1.430
 5261TIP3    H115789   4.956   5.572   1.375
 5261TIP3    H215790   5.058   5.585   1.487
 5262TIP3   OH215791   0.316   1.953   1.143
 5262TIP3    H115792   0.226   1.920   1.136
 5262TIP3    H215793   0.316   2.031   1.088
 5263TIP3   OH215794   3.715   0.863   4.790
 5263TIP3    H115795   3.770   0.936   4.820
 5263TIP3    H215796   3.626   0.897   4.794
 5264TIP3   OH215797   4.645   5.893   0.368
 5264TIP3    H115798   4.562   5.941   0.371
 5264TIP3    H215799   4.704   5.944   0.424
 5265TIP3   OH215800   1.256   0.682   3.137
 5265TIP3    H115801   1.273   0.685   3.231
 5265TIP3    H215802   1.163   0.660   3.130
 5266TIP3   OH215803   6.043   3.925   0.777
 5266TIP3    H115804   6.019   3.836   0.802
 5266TIP3    H215805   6.138   3.928   0.788
 5267TIP3   OH215806   2.454   0.513   4.538
 5267TIP3    H115807   2.429   0.529   4.447
 5267TIP3    H215808   2.384   0.552   4.590
 5268TIP3   OH215809   1.944   0.311   2.273
 5268TIP3    H115810   2.028   0.350   2.296
 5268TIP3    H215811   1.898   0.300   2.356
 5269TIP3   OH215812   4.925   4.044   1.563
 5269TIP3    H115813   4.829   4.040   1.566
 5269TIP3    H215814   4.948   4.115   1.622
 5270TIP3   OH215815   5.044   5.158   2.154
 5270TIP3    H115816   5.090   5.235   2.120
 5270TIP3    H215817   5.052   5.166   2.249
 5271TIP3   OH215818   2.831   0.201   1.895
 5271TIP3    H115819   2.761   0.265   1.887
 5271TIP3    H215820   2.903   0.237   1.842
 5272TIP3   OH215821   1.696   0.057   3.875
 5272TIP3    H115822   1.773   0.021   3.918
 5272TIP3    H215823   1.649   0.104   3.944
 5273TIP3   OH215824   0.215   3.924   3.966
 5273TIP3    H115825   0.253   3.909   3.879
 5273TIP3    H215826   0.127   3.887   3.960
 5274TIP3   OH215827   5.041   1.079   3.701
 5274TIP3    H115828   5.056   0.990   3.733
 5274TIP3    H215829   5.103   1.133   3.750
 5275TIP3   OH215830   4.751   1.210   2.074
 5275TIP3    H115831   4.751   1.258   1.991
 5275TIP3    H215832   4.834   1.233   2.116
 5276TIP3   OH215833   1.999   4.713   1.179
 5276TIP3    H115834   1.947   4.635   1.200
 5276TIP3    H215835   2.088   4.681   1.166
 5277TIP3   OH215836   6.113   2.189   2.707
 5277TIP3    H115837   6.164   2.204   2.627
 5277TIP3    H215838   6.150   2.108   2.743
 5278TIP3   OH215839   1.538   4.971   0.954
 5278TIP3    H115840   1.484   5.000   0.880
 5278TIP3    H215841   1.475   4.947   1.022
 5279TIP3   OH215842   6.309   1.067   1.053
 5279TIP3    H115843   6.338   0.976   1.047
 5279TIP3    H215844   6.348   1.111   0.978
 5280TIP3   OH215845   4.463   1.912   4.489
 5280TIP3    H115846   4.370   1.893   4.498
 5280TIP3    H215847   4.474   1.932   4.396
 5281TIP3   OH215848   6.192   5.842   1.668
 5281TIP3    H115849   6.131   5.915   1.672
 5281TIP3    H215850   6.218   5.838   1.576
 5282TIP3   OH215851   1.581   2.845   4.769
 5282TIP3    H115852   1.617   2.879   4.850
 5282TIP3    H215853   1.585   2.749   4.778
 5283TIP3   OH215854   4.204   5.722   3.074
 5283TIP3    H115855   4.175   5.701   3.163
 5283TIP3    H215856   4.248   5.642   3.044
 5284TIP3   OH215857   0.965   0.108   1.385
 5284TIP3    H115858   1.050   0.093   1.343
 5284TIP3    H215859   0.910   0.036   1.354
 5285TIP3   OH215860   4.565   2.113   0.844
 5285TIP3    H115861   4.617   2.183   0.804
 5285TIP3    H215862   4.535   2.150   0.927
 5286TIP3   OH215863   5.108   4.718   1.977
 5286TIP3    H115864   5.055   4.795   1.999
 5286TIP3    H215865   5.191   4.732   2.023
 5287TIP3   OH215866   3.057   1.089   2.069
 5287TIP3    H115867   2.975   1.052   2.103
 5287TIP3    H215868   3.076   1.163   2.127
 5288TIP3   OH215869   3.418   3.661   0.387
 5288TIP3    H115870   3.503   3.616   0.390
 5288TIP3    H215871   3.420   3.709   0.305
 5289TIP3   OH215872   6.015   4.151   0.304
 5289TIP3    H115873   6.111   4.151   0.296
 5289TIP3    H215874   5.999   4.132   0.396
 5290TIP3   OH215875   5.353   2.917   2.630
 5290TIP3    H115876   5.401   2.907   2.712
 5290TIP3    H215877   5.418   2.902   2.561
 5291TIP3   OH215878   3.591   1.242   2.366
 5291TIP3    H115879   3.618   1.193   2.288
 5291TIP3    H215880   3.631   1.195   2.439
 5292TIP3   OH215881   0.406   1.439   2.791
 5292TIP3    H115882   0.406   1.533   2.773
 5292TIP3    H215883   0.397   1.398   2.705
 5293TIP3   OH215884   4.635   4.836   3.005
 5293TIP3    H115885   4.601   4.771   2.942
 5293TIP3    H215886   4.730   4.823   3.003
 5294TIP3   OH215887   6.195   5.600   1.187
 5294TIP3    H115888   6.219   5.515   1.149
 5294TIP3    H215889   6.099   5.602   1.181
 5295TIP3   OH215890   5.841   2.151   0.244
 5295TIP3    H115891   5.883   2.234   0.226
 5295TIP3    H215892   5.834   2.147   0.339
 5296TIP3   OH215893   5.343   5.173   3.360
 5296TIP3    H115894   5.438   5.164   3.353
 5296TIP3    H215895   5.311   5.152   3.272
 5297TIP3   OH215896   4.801   0.236   1.323
 5297TIP3    H115897   4.755   0.311   1.286
 5297TIP3    H215898   4.736   0.166   1.324
 5298TIP3   OH215899   4.105   2.308   2.275
 5298TIP3    H115900   4.019   2.330   2.238
 5298TIP3    H215901   4.095   2.324   2.369
 5299TIP3   OH215902   1.496   0.198   2.691
 5299TIP3    H115903   1.538   0.125   2.646
 5299TIP3    H215904   1.514   0.274   2.635
 5300TIP3   OH215905   1.834   3.106   4.156
 5300TIP3    H115906   1.774   3.051   4.207
 5300TIP3    H215907   1.846   3.058   4.074
 5301TIP3   OH215908   5.862   4.350   3.094
 5301TIP3    H115909   5.900   4.265   3.117
 5301TIP3    H215910   5.913   4.381   3.020
 5302TIP3   OH215911   2.655   0.326   4.491
 5302TIP3    H115912   2.645   0.275   4.572
 5302TIP3    H215913   2.610   0.408   4.510
 5303TIP3   OH215914   2.814   1.188   3.443
 5303TIP3    H115915   2.811   1.119   3.377
 5303TIP3    H215916   2.887   1.243   3.417
 5304TIP3   OH215917   5.589   0.788   4.009
 5304TIP3    H115918   5.616   0.781   4.100
 5304TIP3    H215919   5.653   0.735   3.961
 5305TIP3   OH215920   3.126   2.973   3.138
 5305TIP3    H115921   3.034   2.960   3.113
 5305TIP3    H215922   3.175   2.917   3.078
 5306TIP3   OH215923   1.897   4.172   1.112
 5306TIP3    H115924   1.802   4.167   1.115
 5306TIP3    H215925   1.917   4.191   1.020
 5307TIP3   OH215926   3.573   5.873   3.543
 5307TIP3    H115927   3.635   5.900   3.611
 5307TIP3    H215928   3.521   5.951   3.525
 5308TIP3   OH215929   1.636   2.385   4.081
 5308TIP3    H115930   1.602   2.303   4.118
 5308TIP3    H215931   1.725   2.392   4.116
 5309TIP3   OH215932   0.145   3.390   0.253
 5309TIP3    H115933   0.127   3.453   0.322
 5309TIP3    H215934   0.241   3.382   0.252
 5310TIP3   OH215935   4.394   0.144   1.807
 5310TIP3    H115936   4.362   0.189   1.728
 5310TIP3    H215937   4.376   0.051   1.790
 5311TIP3   OH215938   5.505   0.666   0.782
 5311TIP3    H115939   5.478   0.677   0.691
 5311TIP3    H215940   5.449   0.726   0.831
 5312TIP3   OH215941   0.231   0.401   2.736
 5312TIP3    H115942   0.252   0.370   2.647
 5312TIP3    H215943   0.195   0.324   2.780
 5313TIP3   OH215944   2.216   0.252   4.018
 5313TIP3    H115945   2.198   0.195   4.093
 5313TIP3    H215946   2.311   0.255   4.011
 5314TIP3   OH215947   5.417   0.272   0.485
 5314TIP3    H115948   5.393   0.179   0.487
 5314TIP3    H215949   5.336   0.317   0.458
 5315TIP3   OH215950   1.254   5.183   3.217
 5315TIP3    H115951   1.325   5.220   3.164
 5315TIP3    H215952   1.176   5.192   3.162
 5316TIP3   OH215953   2.540   4.112   2.324
 5316TIP3    H115954   2.471   4.129   2.260
 5316TIP3    H215955   2.503   4.140   2.408
 5317TIP3   OH215956   1.474   1.034   2.840
 5317TIP3    H115957   1.472   1.023   2.745
 5317TIP3    H215958   1.441   0.952   2.875
 5318TIP3   OH215959   3.569   0.431   3.251
 5318TIP3    H115960   3.524   0.350   3.275
 5318TIP3    H215961   3.662   0.413   3.268
 5319TIP3   OH215962   1.352   2.195   2.662
 5319TIP3    H115963   1.294   2.190   2.739
 5319TIP3    H215964   1.438   2.170   2.695
 5320TIP3   OH215965   6.070   1.314   0.310
 5320TIP3    H115966   6.107   1.245   0.255
 5320TIP3    H215967   6.141   1.336   0.371
 5321TIP3   OH215968   1.656   1.614   0.407
 5321TIP3    H115969   1.702   1.531   0.416
 5321TIP3    H215970   1.641   1.623   0.313
 5322TIP3   OH215971   4.522   3.775   3.293
 5322TIP3    H115972   4.547   3.711   3.227
 5322TIP3    H215973   4.493   3.723   3.368
 5323TIP3   OH215974   1.635   1.612   1.894
 5323TIP3    H115975   1.657   1.681   1.957
 5323TIP3    H215976   1.575   1.554   1.942
 5324TIP3   OH215977   4.531   0.138   2.382
 5324TIP3    H115978   4.551   0.098   2.297
 5324TIP3    H215979   4.607   0.193   2.401
 5325TIP3   OH215980   2.019   3.409   2.122
 5325TIP3    H115981   2.089   3.467   2.093
 5325TIP3    H215982   2.045   3.322   2.091
 5326TIP3   OH215983   2.019   4.465   1.561
 5326TIP3    H115984   2.004   4.411   1.483
 5326TIP3    H215985   2.111   4.450   1.583
 5327TIP3   OH215986   5.613   4.933   3.978
 5327TIP3    H115987   5.603   5.018   4.021
 5327TIP3    H215988   5.591   4.949   3.886
 5328TIP3   OH215989   1.927   0.355   3.791
 5328TIP3    H115990   1.869   0.386   3.860
 5328TIP3    H215991   1.869   0.332   3.719
 5329TIP3   OH215992   5.495   2.006   0.204
 5329TIP3    H115993   5.441   1.927   0.193
 5329TIP3    H215994   5.510   2.010   0.299
 5330TIP3   OH215995   2.381   4.202   0.699
 5330TIP3    H115996   2.406   4.110   0.692
 5330TIP3    H215997   2.344   4.211   0.787
 5331TIP3   OH215998   3.097   3.432   4.094
 5331TIP3    H115999   3.070   3.396   4.009
 5331TIP3    H216000   3.183   3.470   4.078
 5332TIP3   OH216001   0.968   2.369   1.596
 5332TIP3    H116002   0.908   2.310   1.641
 5332TIP3    H216003   1.055   2.339   1.621
 5333TIP3   OH216004   4.220   4.448   4.420
 5333TIP3    H116005   4.127   4.472   4.419
 5333TIP3    H216006   4.222   4.357   4.392
 5334TIP3   OH216007   4.190   2.120   4.397
 5334TIP3    H116008   4.099   2.092   4.394
 5334TIP3    H216009   4.236   2.057   4.341
 5335TIP3   OH216010   2.395   3.792   2.180
 5335TIP3    H116011   2.468   3.754   2.229
 5335TIP3    H216012   2.429   3.876   2.148
 5336TIP3   OH216013   4.452   4.364   2.447
 5336TIP3    H116014   4.417   4.452   2.436
 5336TIP3    H216015   4.528   4.375   2.505
 5337TIP3   OH216016   2.789   3.291   0.296
 5337TIP3    H116017   2.742   3.219   0.339
 5337TIP3    H216018   2.721   3.356   0.276
 5338TIP3   OH216019   4.832   4.551   1.933
 5338TIP3    H116020   4.890   4.522   1.863
 5338TIP3    H216021   4.777   4.619   1.893
 5339TIP3   OH216022   6.226   5.514   3.469
 5339TIP3    H116023   6.258   5.535   3.381
 5339TIP3    H216024   6.131   5.517   3.461
 5340TIP3   OH216025   1.565   0.404   1.395
 5340TIP3    H116026   1.637   0.460   1.424
 5340TIP3    H216027   1.533   0.446   1.315
 5341TIP3   OH216028   2.973   5.518   3.164
 5341TIP3    H116029   3.063   5.486   3.164
 5341TIP3    H216030   2.980   5.607   3.198
 5342TIP3   OH216031   1.339   3.634   4.461
 5342TIP3    H116032   1.330   3.546   4.425
 5342TIP3    H216033   1.432   3.654   4.454
 5343TIP3   OH216034   6.285   0.320   4.824
 5343TIP3    H116035   6.344   0.285   4.892
 5343TIP3    H216036   6.319   0.283   4.742
 5344TIP3   OH216037   3.381   1.158   4.442
 5344TIP3    H116038   3.401   1.155   4.536
 5344TIP3    H216039   3.399   1.070   4.410
 5345TIP3   OH216040   1.414   3.903   0.045
 5345TIP3    H116041   1.404   3.848   0.122
 5345TIP3    H216042   1.422   3.842  -0.028
 5346TIP3   OH216043   2.480   0.747   2.338
 5346TIP3    H116044   2.529   0.754   2.420
 5346TIP3    H216045   2.458   0.655   2.331
 5347TIP3   OH216046   0.661   1.626   4.382
 5347TIP3    H116047   0.610   1.633   4.462
 5347TIP3    H216048   0.735   1.570   4.405
 5348TIP3   OH216049   4.972   1.189   3.973
 5348TIP3    H116050   4.895   1.137   3.997
 5348TIP3    H216051   4.936   1.270   3.937
 5349TIP3   OH216052   1.961   5.192   0.781
 5349TIP3    H116053   1.881   5.167   0.827
 5349TIP3    H216054   1.942   5.173   0.689
 5350TIP3   OH216055   1.745   2.305   3.084
 5350TIP3    H116056   1.840   2.313   3.070
 5350TIP3    H216057   1.725   2.215   3.059
 5351TIP3   OH216058   4.138   0.153   3.644
 5351TIP3    H116059   4.171   0.082   3.589
 5351TIP3    H216060   4.090   0.110   3.714
 5352TIP3   OH216061   1.140   3.842   0.127
 5352TIP3    H116062   1.146   3.910   0.194
 5352TIP3    H216063   1.110   3.888   0.048
 5353TIP3   OH216064  -0.018   2.804   4.438
 5353TIP3    H116065  -0.040   2.836   4.351
 5353TIP3    H216066   0.068   2.842   4.457
 5354TIP3   OH216067   0.198   4.515   4.524
 5354TIP3    H116068   0.228   4.437   4.479
 5354TIP3    H216069   0.198   4.584   4.458
 5355TIP3   OH216070   4.836   3.572   0.289
 5355TIP3    H116071   4.901   3.527   0.236
 5355TIP3    H216072   4.807   3.645   0.233
 5356TIP3   OH216073   1.607   0.890   1.597
 5356TIP3    H116074   1.574   0.852   1.516
 5356TIP3    H216075   1.672   0.955   1.568
 5357TIP3   OH216076   3.503   5.348   3.336
 5357TIP3    H116077   3.521   5.254   3.327
 5357TIP3    H216078   3.430   5.364   3.277
 5358TIP3   OH216079   5.348   5.902   0.821
 5358TIP3    H116080   5.349   5.904   0.726
 5358TIP3    H216081   5.256   5.888   0.844
 5359TIP3   OH216082   4.734   2.623   2.600
 5359TIP3    H116083   4.672   2.574   2.545
 5359TIP3    H216084   4.800   2.655   2.538
 5360TIP3   OH216085   4.082   2.334   1.040
 5360TIP3    H116086   4.159   2.343   0.984
 5360TIP3    H216087   4.110   2.275   1.110
 5361TIP3   OH216088   3.372   2.693   3.584
 5361TIP3    H116089   3.307   2.757   3.556
 5361TIP3    H216090   3.374   2.700   3.679
 5362TIP3   OH216091   3.945   0.667   4.779
 5362TIP3    H116092   3.889   0.743   4.761
 5362TIP3    H216093   4.019   0.702   4.829
 5363TIP3   OH216094   0.303   0.265   0.784
 5363TIP3    H116095   0.370   0.203   0.757
 5363TIP3    H216096   0.308   0.335   0.718
 5364TIP3   OH216097   1.611   2.774   1.635
 5364TIP3    H116098   1.591   2.837   1.565
 5364TIP3    H216099   1.602   2.688   1.593
 5365TIP3   OH216100   4.783   1.665   1.505
 5365TIP3    H116101   4.769   1.720   1.428
 5365TIP3    H216102   4.721   1.697   1.570
 5366TIP3   OH216103   4.277   2.449   4.278
 5366TIP3    H116104   4.338   2.411   4.342
 5366TIP3    H216105   4.334   2.490   4.213
 5367TIP3   OH216106   2.733   0.343   1.326
 5367TIP3    H116107   2.732   0.433   1.357
 5367TIP3    H216108   2.643   0.325   1.299
 5368TIP3   OH216109   2.675   5.620   3.953
 5368TIP3    H116110   2.699   5.653   3.866
 5368TIP3    H216111   2.686   5.695   4.011
 5369TIP3   OH216112   1.242   3.267   4.139
 5369TIP3    H116113   1.245   3.225   4.053
 5369TIP3    H216114   1.149   3.274   4.160
 5370TIP3   OH216115   2.134   5.421   1.398
 5370TIP3    H116116   2.205   5.466   1.354
 5370TIP3    H216117   2.123   5.340   1.349
 5371TIP3   OH216118   0.006   2.318   2.045
 5371TIP3    H116119   0.027   2.322   1.951
 5371TIP3    H216120   0.076   2.367   2.088
 5372TIP3   OH216121   0.938   3.057   0.143
 5372TIP3    H116122   0.982   3.034   0.225
 5372TIP3    H216123   0.949   2.980   0.088
 5373TIP3   OH216124   4.149   1.828   2.828
 5373TIP3    H116125   4.207   1.885   2.879
 5373TIP3    H216126   4.112   1.768   2.893
 5374TIP3   OH216127   1.071   5.089   3.807
 5374TIP3    H116128   1.159   5.054   3.811
 5374TIP3    H216129   1.072   5.148   3.731
 5375TIP3   OH216130   0.290   3.705   1.004
 5375TIP3    H116131   0.263   3.796   1.000
 5375TIP3    H216132   0.213   3.658   1.034
 5376TIP3   OH216133   0.245   3.638   1.287
 5376TIP3    H116134   0.314   3.614   1.225
 5376TIP3    H216135   0.291   3.647   1.371
 5377TIP3   OH216136   2.713   1.123   4.107
 5377TIP3    H116137   2.679   1.086   4.189
 5377TIP3    H216138   2.803   1.148   4.126
 5378TIP3   OH216139   4.938   4.686   4.192
 5378TIP3    H116140   4.985   4.661   4.272
 5378TIP3    H216141   4.963   4.777   4.178
 5379TIP3   OH216142   3.795   5.376   3.424
 5379TIP3    H116143   3.850   5.423   3.487
 5379TIP3    H216144   3.853   5.309   3.387
 5380TIP3   OH216145   2.649   4.711   2.623
 5380TIP3    H116146   2.654   4.627   2.669
 5380TIP3    H216147   2.686   4.774   2.684
 5381TIP3   OH216148   3.839   3.929   2.241
 5381TIP3    H116149   3.747   3.923   2.267
 5381TIP3    H216150   3.861   3.842   2.210
 5382TIP3   OH216151   2.599   0.899   2.774
 5382TIP3    H116152   2.595   0.854   2.689
 5382TIP3    H216153   2.516   0.946   2.780
 5383TIP3   OH216154   0.371   3.868   4.394
 5383TIP3    H116155   0.417   3.951   4.383
 5383TIP3    H216156   0.296   3.890   4.449
 5384TIP3   OH216157   5.221   2.421   4.146
 5384TIP3    H116158   5.134   2.456   4.127
 5384TIP3    H216159   5.243   2.369   4.068
 5385TIP3   OH216160   2.890   5.218   2.618
 5385TIP3    H116161   2.874   5.255   2.705
 5385TIP3    H216162   2.806   5.182   2.591
 5386TIP3   OH216163   5.182   5.728   2.343
 5386TIP3    H116164   5.188   5.634   2.357
 5386TIP3    H216165   5.179   5.739   2.248
 5387TIP3   OH216166   3.163   0.800   3.773
 5387TIP3    H116167   3.084   0.791   3.721
 5387TIP3    H216168   3.163   0.892   3.802
 5388TIP3   OH216169   5.033   3.501   0.097
 5388TIP3    H116170   4.963   3.518   0.033
 5388TIP3    H216171   5.082   3.428   0.059
 5389TIP3   OH216172   5.158   0.351   1.760
 5389TIP3    H116173   5.216   0.350   1.836
 5389TIP3    H216174   5.146   0.259   1.738
 5390TIP3   OH216175   1.344   1.555   4.443
 5390TIP3    H116176   1.417   1.561   4.505
 5390TIP3    H216177   1.309   1.644   4.438
 5391TIP3   OH216178   5.471   4.500   1.265
 5391TIP3    H116179   5.528   4.442   1.316
 5391TIP3    H216180   5.449   4.448   1.187
 5392TIP3   OH216181   3.181   4.066   3.408
 5392TIP3    H116182   3.169   4.049   3.501
 5392TIP3    H216183   3.272   4.040   3.390
 5393TIP3   OH216184   0.528   1.949   2.190
 5393TIP3    H116185   0.586   1.927   2.117
 5393TIP3    H216186   0.494   1.864   2.220
 5394TIP3   OH216187   1.974   1.708   4.284
 5394TIP3    H116188   2.062   1.689   4.318
 5394TIP3    H216189   1.916   1.649   4.333
 5395TIP3   OH216190   0.127   4.365   2.687
 5395TIP3    H116191   0.035   4.371   2.714
 5395TIP3    H216192   0.158   4.284   2.728
 5396TIP3   OH216193   3.260   0.894   0.505
 5396TIP3    H116194   3.195   0.896   0.575
 5396TIP3    H216195   3.344   0.890   0.550
 5397TIP3   OH216196   3.231   3.842   1.192
 5397TIP3    H116197   3.303   3.780   1.182
 5397TIP3    H216198   3.273   3.928   1.200
 5398TIP3   OH216199   0.103   2.257   3.205
 5398TIP3    H116200   0.012   2.230   3.210
 5398TIP3    H216201   0.109   2.334   3.262
 5399TIP3   OH216202   1.849   1.471   1.327
 5399TIP3    H116203   1.925   1.418   1.302
 5399TIP3    H216204   1.799   1.415   1.386
 5400TIP3   OH216205   3.905   4.024   3.835
 5400TIP3    H116206   3.965   4.000   3.906
 5400TIP3    H216207   3.959   4.021   3.757
 5401TIP3   OH216208   5.620   5.054   2.595
 5401TIP3    H116209   5.652   5.139   2.567
 5401TIP3    H216210   5.526   5.067   2.607
 5402TIP3   OH216211   5.880   3.988   1.010
 5402TIP3    H116212   5.924   4.029   0.935
 5402TIP3    H216213   5.788   3.983   0.984
 5403TIP3   OH216214   5.365   5.408   3.513
 5403TIP3    H116215   5.362   5.330   3.458
 5403TIP3    H216216   5.356   5.481   3.451
 5404TIP3   OH216217   5.041   5.988   0.948
 5404TIP3    H116218   5.057   6.036   0.867
 5404TIP3    H216219   5.125   5.989   0.993
 5405TIP3   OH216220   1.527   3.935   2.880
 5405TIP3    H116221   1.580   3.934   2.961
 5405TIP3    H216222   1.503   4.027   2.869
 5406TIP3   OH216223   5.346   0.314   1.967
 5406TIP3    H116224   5.343   0.222   1.995
 5406TIP3    H216225   5.438   0.339   1.977
 5407TIP3   OH216226   5.123   2.618   2.088
 5407TIP3    H116227   5.198   2.584   2.039
 5407TIP3    H216228   5.119   2.564   2.167
 5408TIP3   OH216229   3.159   2.082   3.146
 5408TIP3    H116230   3.231   2.019   3.152
 5408TIP3    H216231   3.191   2.158   3.195
 5409TIP3   OH216232   5.735   4.430   0.977
 5409TIP3    H116233   5.651   4.456   0.937
 5409TIP3    H216234   5.801   4.453   0.911
 5410TIP3   OH216235   5.700   1.078   2.940
 5410TIP3    H116236   5.625   1.103   2.993
 5410TIP3    H216237   5.678   0.992   2.905
 5411TIP3   OH216238   1.250   0.226   0.829
 5411TIP3    H116239   1.162   0.235   0.792
 5411TIP3    H216240   1.295   0.166   0.770
 5412TIP3   OH216241   4.387   0.746   3.319
 5412TIP3    H116242   4.343   0.696   3.388
 5412TIP3    H216243   4.480   0.739   3.340
 5413TIP3   OH216244   4.157   3.618   4.188
 5413TIP3    H116245   4.173   3.711   4.168
 5413TIP3    H216246   4.120   3.583   4.107
 5414TIP3   OH216247   1.159   3.516   2.313
 5414TIP3    H116248   1.226   3.498   2.379
 5414TIP3    H216249   1.182   3.459   2.239
 5415TIP3   OH216250   6.019   4.329   0.671
 5415TIP3    H116251   6.053   4.340   0.760
 5415TIP3    H216252   5.936   4.377   0.671
 5416TIP3   OH216253   1.675   4.541   0.587
 5416TIP3    H116254   1.764   4.571   0.571
 5416TIP3    H216255   1.686   4.451   0.618
 5417TIP3   OH216256   5.604   4.200   1.051
 5417TIP3    H116257   5.517   4.239   1.039
 5417TIP3    H216258   5.665   4.267   1.022
 5418TIP3   OH216259   4.762   4.748   1.171
 5418TIP3    H116260   4.788   4.795   1.250
 5418TIP3    H216261   4.667   4.750   1.171
 5419TIP3   OH216262   5.352   4.386   3.168
 5419TIP3    H116263   5.350   4.384   3.264
 5419TIP3    H216264   5.423   4.325   3.145
 5420TIP3   OH216265   5.979   4.430   1.137
 5420TIP3    H116266   6.002   4.519   1.165
 5420TIP3    H216267   5.888   4.436   1.110
 5421TIP3   OH216268   4.088   0.233   4.438
 5421TIP3    H116269   4.150   0.189   4.496
 5421TIP3    H216270   4.070   0.316   4.482
 5422TIP3   OH216271   2.466   4.538   3.222
 5422TIP3    H116272   2.489   4.570   3.310
 5422TIP3    H216273   2.395   4.477   3.237
 5423TIP3   OH216274   3.788   4.940   4.574
 5423TIP3    H116275   3.755   5.027   4.594
 5423TIP3    H216276   3.837   4.950   4.492
 5424TIP3   OH216277   0.269  -0.002   3.971
 5424TIP3    H116278   0.243  -0.090   3.999
 5424TIP3    H216279   0.187   0.045   3.960
 5425TIP3   OH216280   4.384   0.922   0.347
 5425TIP3    H116281   4.315   0.856   0.340
 5425TIP3    H216282   4.383   0.949   0.439
 5426TIP3   OH216283   1.192   0.423   1.448
 5426TIP3    H116284   1.230   0.346   1.405
 5426TIP3    H216285   1.198   0.402   1.541
 5427TIP3   OH216286   1.932   2.970   4.766
 5427TIP3    H116287   1.984   2.893   4.790
 5427TIP3    H216288   1.914   3.014   4.849
 5428TIP3   OH216289   1.031   3.920   3.289
 5428TIP3    H116290   1.072   3.971   3.358
 5428TIP3    H216291   0.988   3.985   3.234
 5429TIP3   OH216292   0.923   1.429   4.800
 5429TIP3    H116293   0.886   1.495   4.859
 5429TIP3    H216294   0.877   1.348   4.823
 5430TIP3   OH216295   2.127   0.861   2.825
 5430TIP3    H116296   2.192   0.824   2.885
 5430TIP3    H216297   2.148   0.954   2.821
 5431TIP3   OH216298   3.826   5.903   0.383
 5431TIP3    H116299   3.875   5.985   0.376
 5431TIP3    H216300   3.750   5.916   0.325
 5432TIP3   OH216301   6.151   3.740   4.509
 5432TIP3    H116302   6.066   3.728   4.466
 5432TIP3    H216303   6.184   3.652   4.522
 5433TIP3   OH216304   0.587   0.127   0.095
 5433TIP3    H116305   0.496   0.149   0.113
 5433TIP3    H216306   0.633   0.142   0.178
 5434TIP3   OH216307   0.562   3.308   1.311
 5434TIP3    H116308   0.558   3.282   1.219
 5434TIP3    H216309   0.510   3.242   1.357
 5435TIP3   OH216310   6.117   1.583   4.096
 5435TIP3    H116311   6.083   1.564   4.184
 5435TIP3    H216312   6.078   1.668   4.074
 5436TIP3   OH216313   2.966   1.917   0.138
 5436TIP3    H116314   2.984   1.838   0.087
 5436TIP3    H216315   2.870   1.921   0.142
 5437TIP3   OH216316   1.140   3.840   2.631
 5437TIP3    H116317   1.147   3.891   2.712
 5437TIP3    H216318   1.161   3.751   2.658
 5438TIP3   OH216319   5.123   2.569   0.051
 5438TIP3    H116320   5.154   2.534  -0.033
 5438TIP3    H216321   5.114   2.492   0.106
 5439TIP3   OH216322   5.318   1.597   1.432
 5439TIP3    H116323   5.399   1.647   1.417
 5439TIP3    H216324   5.347   1.506   1.433
 5440TIP3   OH216325   3.914   5.374   0.699
 5440TIP3    H116326   3.907   5.469   0.702
 5440TIP3    H216327   3.982   5.357   0.634
 5441TIP3   OH216328   5.777   3.748   1.787
 5441TIP3    H116329   5.778   3.738   1.692
 5441TIP3    H216330   5.705   3.808   1.804
 5442TIP3   OH216331   4.570   2.995   0.305
 5442TIP3    H116332   4.563   3.088   0.285
 5442TIP3    H216333   4.637   2.963   0.243
 5443TIP3   OH216334   1.085   2.712   4.229
 5443TIP3    H116335   1.010   2.722   4.288
 5443TIP3    H216336   1.115   2.622   4.243
 5444TIP3   OH216337   1.795   2.435   0.843
 5444TIP3    H116338   1.748   2.358   0.812
 5444TIP3    H216339   1.813   2.416   0.936
 5445TIP3   OH216340   3.389   3.445   4.047
 5445TIP3    H116341   3.389   3.422   4.140
 5445TIP3    H216342   3.404   3.362   4.002
 5446TIP3   OH216343   0.300   3.739   4.925
 5446TIP3    H116344   0.384   3.784   4.918
 5446TIP3    H216345   0.240   3.789   4.869
 5447TIP3   OH216346   2.841   4.155   4.370
 5447TIP3    H116347   2.866   4.128   4.282
 5447TIP3    H216348   2.808   4.244   4.359
 5448TIP3   OH216349   0.608   0.725   4.890
 5448TIP3    H116350   0.613   0.817   4.918
 5448TIP3    H216351   0.547   0.685   4.952
 5449TIP3   OH216352   2.535   0.106   2.477
 5449TIP3    H116353   2.585   0.038   2.522
 5449TIP3    H216354   2.449   0.104   2.519
 5450TIP3   OH216355   4.099   3.056   2.195
 5450TIP3    H116356   4.016   3.048   2.147
 5450TIP3    H216357   4.162   3.009   2.141
 5451TIP3   OH216358   5.052   4.841   2.719
 5451TIP3    H116359   5.130   4.889   2.691
 5451TIP3    H216360   5.078   4.750   2.720
 5452TIP3   OH216361   1.807   2.081   0.426
 5452TIP3    H116362   1.776   2.160   0.381
 5452TIP3    H216363   1.896   2.102   0.454
 5453TIP3   OH216364   2.855   5.637   2.923
 5453TIP3    H116365   2.914   5.698   2.967
 5453TIP3    H216366   2.850   5.562   2.983
 5454TIP3   OH216367   3.722   5.198   2.032
 5454TIP3    H116368   3.669   5.121   2.010
 5454TIP3    H216369   3.793   5.197   1.968
 5455TIP3   OH216370   1.661   4.254   0.570
 5455TIP3    H116371   1.662   4.241   0.665
 5455TIP3    H216372   1.621   4.175   0.535
 5456TIP3   OH216373   5.578   1.555   4.609
 5456TIP3    H116374   5.609   1.561   4.700
 5456TIP3    H216375   5.605   1.638   4.569
 5457TIP3   OH216376   1.809   4.215   2.939
 5457TIP3    H116377   1.723   4.202   2.899
 5457TIP3    H216378   1.791   4.218   3.033
 5458TIP3   OH216379   5.836   2.055   4.815
 5458TIP3    H116380   5.877   1.971   4.794
 5458TIP3    H216381   5.899   2.121   4.785
 5459TIP3   OH216382   4.903   4.546   1.064
 5459TIP3    H116383   4.854   4.626   1.085
 5459TIP3    H216384   4.853   4.505   0.994
 5460TIP3   OH216385   4.503   3.392   1.098
 5460TIP3    H116386   4.571   3.451   1.130
 5460TIP3    H216387   4.483   3.424   1.011
 5461TIP3   OH216388   5.097   2.363   0.527
 5461TIP3    H116389   5.180   2.364   0.478
 5461TIP3    H216390   5.124   2.364   0.619
 5462TIP3   OH216391   4.691   4.286   1.251
 5462TIP3    H116392   4.674   4.306   1.343
 5462TIP3    H216393   4.691   4.371   1.208
 5463TIP3   OH216394   6.094   1.009   1.651
 5463TIP3    H116395   6.064   1.064   1.723
 5463TIP3    H216396   6.100   0.921   1.689
 5464TIP3   OH216397   4.589   0.586   0.422
 5464TIP3    H116398   4.524   0.634   0.473
 5464TIP3    H216399   4.552   0.582   0.333
 5465TIP3   OH216400   1.394   3.758   3.109
 5465TIP3    H116401   1.473   3.712   3.138
 5465TIP3    H216402   1.333   3.750   3.183
 5466TIP3   OH216403   2.885   2.808   3.821
 5466TIP3    H116404   2.811   2.749   3.836
 5466TIP3    H216405   2.863   2.856   3.741
 5467TIP3   OH216406   0.280   4.069   3.234
 5467TIP3    H116407   0.291   4.074   3.140
 5467TIP3    H216408   0.362   4.102   3.270
 5468TIP3   OH216409   2.270   5.334   1.176
 5468TIP3    H116410   2.285   5.327   1.082
 5468TIP3    H216411   2.354   5.365   1.211
 5469TIP3   OH216412   3.257   5.692   3.985
 5469TIP3    H116413   3.165   5.707   4.005
 5469TIP3    H216414   3.256   5.624   3.918
 5470TIP3   OH216415   3.499   0.201   2.945
 5470TIP3    H116416   3.583   0.208   2.992
 5470TIP3    H216417   3.522   0.166   2.860
 5471TIP3   OH216418   4.665   3.312   2.086
 5471TIP3    H116419   4.688   3.285   2.175
 5471TIP3    H216420   4.737   3.370   2.059
 5472TIP3   OH216421   5.620   2.267   2.411
 5472TIP3    H116422   5.677   2.195   2.438
 5472TIP3    H216423   5.565   2.284   2.487
 5473TIP3   OH216424   5.110   5.108   2.416
 5473TIP3    H116425   5.021   5.133   2.443
 5473TIP3    H216426   5.132   5.033   2.471
 5474TIP3   OH216427   0.478   2.573   3.605
 5474TIP3    H116428   0.441   2.498   3.652
 5474TIP3    H216429   0.546   2.607   3.664
 5475TIP3   OH216430   6.157   0.606   2.970
 5475TIP3    H116431   6.214   0.553   2.915
 5475TIP3    H216432   6.068   0.580   2.944
 5476TIP3   OH216433   4.286   1.369   4.124
 5476TIP3    H116434   4.355   1.316   4.164
 5476TIP3    H216435   4.205   1.341   4.168
 5477TIP3   OH216436   6.075   0.114   4.848
 5477TIP3    H116437   6.157   0.159   4.869
 5477TIP3    H216438   6.072   0.041   4.909
 5478TIP3   OH216439   0.897   1.630   5.002
 5478TIP3    H116440   0.879   1.567   5.071
 5478TIP3    H216441   0.964   1.688   5.039
 5479TIP3   OH216442   3.991   1.114   3.307
 5479TIP3    H116443   4.019   1.026   3.283
 5479TIP3    H216444   3.900   1.103   3.337
 5480TIP3   OH216445   1.763   3.453   4.481
 5480TIP3    H116446   1.858   3.459   4.489
 5480TIP3    H216447   1.749   3.394   4.407
 5481TIP3   OH216448   0.764   4.842   1.526
 5481TIP3    H116449   0.728   4.790   1.453
 5481TIP3    H216450   0.782   4.927   1.487
 5482TIP3   OH216451   1.756   0.183   3.152
 5482TIP3    H116452   1.833   0.237   3.134
 5482TIP3    H216453   1.694   0.206   3.082
 5483TIP3   OH216454   0.376   5.493   4.017
 5483TIP3    H116455   0.380   5.404   4.051
 5483TIP3    H216456   0.302   5.492   3.956
 5484TIP3   OH216457   4.543   5.058   1.283
 5484TIP3    H116458   4.562   5.102   1.366
 5484TIP3    H216459   4.532   4.966   1.307
 5485TIP3   OH216460   2.270   4.354   3.224
 5485TIP3    H116461   2.231   4.303   3.295
 5485TIP3    H216462   2.215   4.334   3.148
 5486TIP3   OH216463   3.595   2.994   2.776
 5486TIP3    H116464   3.642   2.934   2.835
 5486TIP3    H216465   3.619   3.081   2.807
 5487TIP3   OH216466   1.349   2.571   1.900
 5487TIP3    H116467   1.322   2.644   1.844
 5487TIP3    H216468   1.305   2.495   1.862
 5488TIP3   OH216469   0.020   3.203   0.002
 5488TIP3    H116470  -0.057   3.211  -0.054
 5488TIP3    H216471  -0.006   3.141   0.070
 5489TIP3   OH216472   2.210   2.887   1.882
 5489TIP3    H116473   2.227   2.967   1.832
 5489TIP3    H216474   2.194   2.820   1.816
 5490TIP3   OH216475   3.291   0.941   1.017
 5490TIP3    H116476   3.274   0.974   1.105
 5490TIP3    H216477   3.386   0.935   1.011
 5491TIP3   OH216478   0.612   2.822   3.415
 5491TIP3    H116479   0.533   2.770   3.407
 5491TIP3    H216480   0.585   2.898   3.467
 5492TIP3   OH216481   5.595   4.989   3.689
 5492TIP3    H116482   5.636   4.904   3.674
 5492TIP3    H216483   5.668   5.052   3.692
 5493TIP3   OH216484   3.840   4.179   1.711
 5493TIP3    H116485   3.837   4.109   1.776
 5493TIP3    H216486   3.822   4.136   1.627
 5494TIP3   OH216487   1.812   0.318   4.327
 5494TIP3    H116488   1.806   0.224   4.341
 5494TIP3    H216489   1.745   0.356   4.385
 5495TIP3   OH216490   5.727   1.127   4.135
 5495TIP3    H116491   5.661   1.176   4.087
 5495TIP3    H216492   5.810   1.159   4.100
 5496TIP3   OH216493   0.825   5.775   3.622
 5496TIP3    H116494   0.734   5.745   3.621
 5496TIP3    H216495   0.831   5.837   3.549
 5497TIP3   OH216496   2.778   1.489   3.841
 5497TIP3    H116497   2.710   1.556   3.833
 5497TIP3    H216498   2.757   1.444   3.923
 5498TIP3   OH216499   0.105   1.795   4.520
 5498TIP3    H116500   0.154   1.713   4.513
 5498TIP3    H216501   0.119   1.823   4.611
 5499TIP3   OH216502   3.523   0.523   4.502
 5499TIP3    H116503   3.569   0.474   4.433
 5499TIP3    H216504   3.583   0.594   4.523
 5500TIP3   OH216505   6.138   0.566   0.613
 5500TIP3    H116506   6.179   0.644   0.650
 5500TIP3    H216507   6.056   0.598   0.576
 5501TIP3   OH216508   4.290   3.489   3.660
 5501TIP3    H116509   4.302   3.435   3.582
 5501TIP3    H216510   4.313   3.431   3.733
 5502TIP3   OH216511   4.940   0.895   1.371
 5502TIP3    H116512   4.852   0.926   1.392
 5502TIP3    H216513   4.981   0.970   1.327
 5503TIP3   OH216514   0.078   5.300   3.819
 5503TIP3    H116515   0.077   5.204   3.813
 5503TIP3    H216516   0.079   5.330   3.728
 5504TIP3   OH216517   0.056   1.856   4.800
 5504TIP3    H116518   0.119   1.819   4.862
 5504TIP3    H216519  -0.026   1.812   4.818
 5505TIP3   OH216520   1.415   3.868   3.942
 5505TIP3    H116521   1.393   3.951   3.900
 5505TIP3    H216522   1.507   3.877   3.967
 5506TIP3   OH216523   0.190   2.079   4.958
 5506TIP3    H116524   0.152   2.012   4.901
 5506TIP3    H216525   0.240   2.030   5.023
 5507TIP3   OH216526   3.425   2.313   2.771
 5507TIP3    H116527   3.462   2.314   2.859
 5507TIP3    H216528   3.499   2.297   2.713
 5508TIP3   OH216529   6.274   4.061   0.401
 5508TIP3    H116530   6.187   4.044   0.437
 5508TIP3    H216531   6.278   4.008   0.321
 5509TIP3   OH216532   4.392   5.172   4.336
 5509TIP3    H116533   4.382   5.111   4.409
 5509TIP3    H216534   4.450   5.127   4.274
 5510TIP3   OH216535   3.620   4.766   1.438
 5510TIP3    H116536   3.597   4.706   1.367
 5510TIP3    H216537   3.682   4.827   1.398
 5511TIP3   OH216538   1.526   1.286   0.925
 5511TIP3    H116539   1.556   1.271   0.835
 5511TIP3    H216540   1.587   1.350   0.961
 5512TIP3   OH216541   3.312   0.015   4.610
 5512TIP3    H116542   3.405   0.034   4.620
 5512TIP3    H216543   3.291  -0.042   4.685
 5513TIP3   OH216544   1.895   3.248   3.613
 5513TIP3    H116545   1.828   3.212   3.671
 5513TIP3    H216546   1.926   3.173   3.562
 5514TIP3   OH216547   3.826   2.383   1.062
 5514TIP3    H116548   3.792   2.343   0.982
 5514TIP3    H216549   3.920   2.366   1.059
 5515TIP3   OH216550   5.048   1.309   2.048
 5515TIP3    H116551   5.068   1.400   2.023
 5515TIP3    H216552   5.130   1.276   2.085
 5516TIP3   OH216553   5.915   2.003   0.722
 5516TIP3    H116554   5.992   1.949   0.704
 5516TIP3    H216555   5.903   1.999   0.816
 5517TIP3   OH216556   3.767   2.649   1.156
 5517TIP3    H116557   3.788   2.559   1.130
 5517TIP3    H216558   3.758   2.696   1.073
 5518TIP3   OH216559   6.264   5.575   4.514
 5518TIP3    H116560   6.228   5.486   4.521
 5518TIP3    H216561   6.234   5.618   4.595
 5519TIP3   OH216562   5.619   4.621  -0.014
 5519TIP3    H116563   5.707   4.584  -0.017
 5519TIP3    H216564   5.564   4.549   0.018
 5520TIP3   OH216565   5.510   6.016   2.586
 5520TIP3    H116566   5.498   5.927   2.552
 5520TIP3    H216567   5.594   6.013   2.631
 5521TIP3   OH216568   1.573   1.349   2.676
 5521TIP3    H116569   1.633   1.316   2.743
 5521TIP3    H216570   1.491   1.366   2.723
 5522TIP3   OH216571   1.322   5.464   2.321
 5522TIP3    H116572   1.373   5.383   2.321
 5522TIP3    H216573   1.377   5.528   2.366
 5523TIP3   OH216574   3.441   0.818   3.134
 5523TIP3    H116575   3.390   0.899   3.141
 5523TIP3    H216576   3.521   0.844   3.088
 5524TIP3   OH216577   1.673   1.507   0.796
 5524TIP3    H116578   1.700   1.434   0.741
 5524TIP3    H216579   1.727   1.499   0.875
 5525TIP3   OH216580   0.414   5.716   2.992
 5525TIP3    H116581   0.351   5.752   3.054
 5525TIP3    H216582   0.468   5.657   3.045
 5526TIP3   OH216583   4.550   5.374   3.794
 5526TIP3    H116584   4.617   5.324   3.841
 5526TIP3    H216585   4.570   5.360   3.701
 5527TIP3   OH216586   2.113   0.386   3.533
 5527TIP3    H116587   2.153   0.354   3.452
 5527TIP3    H216588   2.028   0.421   3.505
 5528TIP3   OH216589   3.952   3.826   0.177
 5528TIP3    H116590   3.948   3.749   0.120
 5528TIP3    H216591   3.943   3.900   0.117
 5529TIP3   OH216592   6.050   0.289   0.152
 5529TIP3    H116593   5.980   0.353   0.164
 5529TIP3    H216594   6.095   0.317   0.072
 5530TIP3   OH216595   0.448   5.716   2.477
 5530TIP3    H116596   0.499   5.774   2.533
 5530TIP3    H216597   0.377   5.684   2.533
 5531TIP3   OH216598   1.529   0.094   1.661
 5531TIP3    H116599   1.620   0.124   1.667
 5531TIP3    H216600   1.477   0.175   1.668
 5532TIP3   OH216601   4.049   0.495   3.107
 5532TIP3    H116602   4.062   0.445   3.026
 5532TIP3    H216603   4.137   0.511   3.140
 5533TIP3   OH216604   0.629   1.864   3.997
 5533TIP3    H116605   0.596   1.882   4.085
 5533TIP3    H216606   0.607   1.771   3.983
 5534TIP3   OH216607   1.815   3.352   1.902
 5534TIP3    H116608   1.842   3.428   1.953
 5534TIP3    H216609   1.793   3.285   1.967
 5535TIP3   OH216610   3.714   5.852   1.040
 5535TIP3    H116611   3.638   5.803   1.007
 5535TIP3    H216612   3.776   5.852   0.967
 5536TIP3   OH216613   4.481   2.351   0.515
 5536TIP3    H116614   4.545   2.360   0.586
 5536TIP3    H216615   4.468   2.440   0.483
 5537TIP3   OH216616   3.947   5.672   0.453
 5537TIP3    H116617   3.916   5.752   0.411
 5537TIP3    H216618   3.868   5.626   0.480
 5538TIP3   OH216619   6.063   0.544   3.867
 5538TIP3    H116620   6.068   0.591   3.784
 5538TIP3    H216621   6.150   0.555   3.906
 5539TIP3   OH216622   5.919   5.334   4.240
 5539TIP3    H116623   5.961   5.297   4.318
 5539TIP3    H216624   5.976   5.309   4.168
 5540TIP3   OH216625   6.074   4.478   3.679
 5540TIP3    H116626   6.114   4.401   3.639
 5540TIP3    H216627   6.015   4.443   3.746
 5541TIP3   OH216628   4.866   5.884   2.398
 5541TIP3    H116629   4.960   5.899   2.384
 5541TIP3    H216630   4.863   5.824   2.472
 5542TIP3   OH216631   0.532   2.208   0.562
 5542TIP3    H116632   0.598   2.139   0.562
 5542TIP3    H216633   0.449   2.162   0.550
 5543TIP3   OH216634   3.271   0.900   5.081
 5543TIP3    H116635   3.357   0.936   5.102
 5543TIP3    H216636   3.287   0.807   5.068
 5544TIP3   OH216637   4.415   1.033   0.600
 5544TIP3    H116638   4.373   1.021   0.685
 5544TIP3    H216639   4.489   1.091   0.617
 5545TIP3   OH216640   3.044   0.108   4.516
 5545TIP3    H116641   3.021   0.185   4.463
 5545TIP3    H216642   3.139   0.102   4.509
 5546TIP3   OH216643   1.248   1.746   3.880
 5546TIP3    H116644   1.193   1.724   3.956
 5546TIP3    H216645   1.278   1.835   3.898
 5547TIP3   OH216646   5.765   2.398   4.891
 5547TIP3    H116647   5.833   2.391   4.958
 5547TIP3    H216648   5.810   2.384   4.808
 5548TIP3   OH216649   0.048   3.523   1.609
 5548TIP3    H116650   0.140   3.499   1.613
 5548TIP3    H216651   0.044   3.613   1.640
 5549TIP3   OH216652   5.547   4.621   5.036
 5549TIP3    H116653   5.585   4.547   4.988
 5549TIP3    H216654   5.518   4.681   4.967
 5550TIP3   OH216655   1.402   2.100   1.664
 5550TIP3    H116656   1.498   2.097   1.655
 5550TIP3    H216657   1.371   2.027   1.611
 5551TIP3   OH216658   2.257   3.437   4.049
 5551TIP3    H116659   2.287   3.523   4.019
 5551TIP3    H216660   2.300   3.374   3.991
 5552TIP3   OH216661   4.711   1.427   4.777
 5552TIP3    H116662   4.691   1.521   4.776
 5552TIP3    H216663   4.770   1.416   4.851
 5553TIP3   OH216664   4.198   4.914   1.288
 5553TIP3    H116665   4.132   4.844   1.286
 5553TIP3    H216666   4.243   4.906   1.204
 5554TIP3   OH216667   1.503   1.623   3.131
 5554TIP3    H116668   1.415   1.659   3.121
 5554TIP3    H216669   1.488   1.531   3.155
 5555TIP3   OH216670   2.830   5.633   1.579
 5555TIP3    H116671   2.773   5.672   1.514
 5555TIP3    H216672   2.865   5.554   1.536
 5556TIP3   OH216673   6.066   3.986   4.598
 5556TIP3    H116674   5.998   4.013   4.535
 5556TIP3    H216675   6.096   3.901   4.565
 5557TIP3   OH216676   3.219   2.725   2.348
 5557TIP3    H116677   3.153   2.793   2.361
 5557TIP3    H216678   3.188   2.676   2.272
 5558TIP3   OH216679   4.629   4.495   2.120
 5558TIP3    H116680   4.647   4.583   2.085
 5558TIP3    H216681   4.683   4.437   2.066
 5559TIP3   OH216682   2.278   1.107   5.069
 5559TIP3    H116683   2.330   1.135   4.993
 5559TIP3    H216684   2.187   1.125   5.043
 5560TIP3   OH216685   3.732   0.508   4.858
 5560TIP3    H116686   3.760   0.425   4.898
 5560TIP3    H216687   3.810   0.563   4.861
 5561TIP3   OH216688   3.299   1.926   0.486
 5561TIP3    H116689   3.339   1.967   0.563
 5561TIP3    H216690   3.314   1.832   0.499
 5562TIP3   OH216691   2.467   4.974   4.120
 5562TIP3    H116692   2.528   5.044   4.099
 5562TIP3    H216693   2.519   4.893   4.113
 5563TIP3   OH216694   0.290   0.606   0.840
 5563TIP3    H116695   0.250   0.585   0.755
 5563TIP3    H216696   0.276   0.700   0.850
 5564TIP3   OH216697   2.263   3.129   1.771
 5564TIP3    H116698   2.200   3.172   1.712
 5564TIP3    H216699   2.339   3.112   1.716
 5565TIP3   OH216700   3.311   4.852   2.969
 5565TIP3    H116701   3.377   4.804   3.019
 5565TIP3    H216702   3.356   4.881   2.890
 5566TIP3   OH216703   3.048   5.738   3.745
 5566TIP3    H116704   3.079   5.653   3.778
 5566TIP3    H216705   2.969   5.717   3.695
 5567TIP3   OH216706   1.582   4.937   3.073
 5567TIP3    H116707   1.575   4.943   3.168
 5567TIP3    H216708   1.500   4.897   3.045
 5568TIP3   OH216709   0.584   1.605   4.117
 5568TIP3    H116710   0.576   1.623   4.211
 5568TIP3    H216711   0.512   1.545   4.098
 5569TIP3   OH216712   5.395   1.719   0.204
 5569TIP3    H116713   5.314   1.698   0.251
 5569TIP3    H216714   5.381   1.684   0.116
 5570TIP3   OH216715   3.145   3.971   1.905
 5570TIP3    H116716   3.169   3.986   1.814
 5570TIP3    H216717   3.050   3.979   1.907
 5571TIP3   OH216718   2.067   2.048   3.779
 5571TIP3    H116719   2.003   2.098   3.830
 5571TIP3    H216720   2.045   2.067   3.688
 5572TIP3   OH216721   1.528   4.543   0.971
 5572TIP3    H116722   1.474   4.555   0.894
 5572TIP3    H216723   1.477   4.580   1.043
 5573TIP3   OH216724   5.341   1.313   1.102
 5573TIP3    H116725   5.410   1.252   1.126
 5573TIP3    H216726   5.388   1.395   1.085
 5574TIP3   OH216727   1.438   4.545   2.542
 5574TIP3    H116728   1.454   4.493   2.462
 5574TIP3    H216729   1.418   4.633   2.509
 5575TIP3   OH216730   3.469   4.575   0.181
 5575TIP3    H116731   3.501   4.651   0.229
 5575TIP3    H216732   3.525   4.503   0.210
 5576TIP3   OH216733   1.209   1.838   4.807
 5576TIP3    H116734   1.189   1.754   4.766
 5576TIP3    H216735   1.177   1.829   4.897
 5577TIP3   OH216736   0.232   1.374   4.667
 5577TIP3    H116737   0.243   1.452   4.612
 5577TIP3    H216738   0.260   1.301   4.611
 5578TIP3   OH216739   2.588   2.907   1.899
 5578TIP3    H116740   2.526   2.875   1.964
 5578TIP3    H216741   2.558   2.869   1.816
 5579TIP3   OH216742   0.817   3.317   4.320
 5579TIP3    H116743   0.787   3.407   4.331
 5579TIP3    H216744   0.741   3.264   4.344
 5580TIP3   OH216745   1.060   2.842   3.064
 5580TIP3    H116746   1.085   2.754   3.093
 5580TIP3    H216747   1.138   2.875   3.018
 5581TIP3   OH216748   0.315   2.885   2.715
 5581TIP3    H116749   0.405   2.857   2.733
 5581TIP3    H216750   0.272   2.807   2.679
 5582TIP3   OH216751   3.012   1.895   0.414
 5582TIP3    H116752   3.039   1.939   0.334
 5582TIP3    H216753   3.087   1.904   0.473
 5583TIP3   OH216754   4.870   0.422   3.918
 5583TIP3    H116755   4.791   0.431   3.865
 5583TIP3    H216756   4.909   0.340   3.890
 5584TIP3   OH216757   2.591   5.772   0.748
 5584TIP3    H116758   2.652   5.844   0.768
 5584TIP3    H216759   2.569   5.785   0.655
 5585TIP3   OH216760   1.765   3.337   2.495
 5585TIP3    H116761   1.695   3.295   2.545
 5585TIP3    H216762   1.735   3.334   2.404
 5586TIP3   OH216763   2.430   0.379   0.451
 5586TIP3    H116764   2.481   0.302   0.428
 5586TIP3    H216765   2.340   0.357   0.426
 5587TIP3   OH216766   3.658   3.737   1.413
 5587TIP3    H116767   3.668   3.669   1.480
 5587TIP3    H216768   3.718   3.807   1.441
 5588TIP3   OH216769   5.504   2.110   3.757
 5588TIP3    H116770   5.410   2.111   3.740
 5588TIP3    H216771   5.542   2.062   3.683
 5589TIP3   OH216772   2.266   3.524   3.205
 5589TIP3    H116773   2.339   3.584   3.222
 5589TIP3    H216774   2.217   3.521   3.287
 5590TIP3   OH216775   0.782   0.500   5.027
 5590TIP3    H116776   0.710   0.542   4.979
 5590TIP3    H216777   0.744   0.420   5.062
 5591TIP3   OH216778   6.160   3.346   4.368
 5591TIP3    H116779   6.207   3.346   4.284
 5591TIP3    H216780   6.109   3.265   4.367
 5592TIP3   OH216781   2.687   5.146   1.829
 5592TIP3    H116782   2.602   5.186   1.810
 5592TIP3    H216783   2.705   5.170   1.919
 5593TIP3   OH216784   5.324   0.950   4.813
 5593TIP3    H116785   5.325   1.041   4.842
 5593TIP3    H216786   5.318   0.955   4.718
 5594TIP3   OH216787   0.527   1.796   1.048
 5594TIP3    H116788   0.450   1.845   1.077
 5594TIP3    H216789   0.601   1.848   1.077
 5595TIP3   OH216790   0.094   5.641   2.548
 5595TIP3    H116791   0.162   5.669   2.610
 5595TIP3    H216792   0.084   5.714   2.488
 5596TIP3   OH216793   4.936   2.707   3.178
 5596TIP3    H116794   4.909   2.631   3.126
 5596TIP3    H216795   4.904   2.688   3.266
 5597TIP3   OH216796   3.473   3.260   0.565
 5597TIP3    H116797   3.462   3.283   0.657
 5597TIP3    H216798   3.546   3.198   0.564
 5598TIP3   OH216799   4.163   2.767   4.013
 5598TIP3    H116800   4.200   2.767   4.101
 5598TIP3    H216801   4.239   2.774   3.955
 5599TIP3   OH216802   4.609   2.685   3.644
 5599TIP3    H116803   4.624   2.594   3.669
 5599TIP3    H216804   4.556   2.721   3.716
 5600TIP3   OH216805   1.535   2.975   1.464
 5600TIP3    H116806   1.502   3.005   1.549
 5600TIP3    H216807   1.512   3.045   1.403
 5601TIP3   OH216808   4.478   2.549   0.868
 5601TIP3    H116809   4.425   2.622   0.838
 5601TIP3    H216810   4.503   2.572   0.958
 5602TIP3   OH216811   4.010   2.357   4.306
 5602TIP3    H116812   4.102   2.378   4.291
 5602TIP3    H216813   3.962   2.409   4.242
 5603TIP3   OH216814   2.904   4.997   3.256
 5603TIP3    H116815   2.856   4.922   3.294
 5603TIP3    H216816   2.996   4.976   3.269
 5604TIP3   OH216817   3.593   0.179   2.687
 5604TIP3    H116818   3.672   0.223   2.718
 5604TIP3    H216819   3.562   0.233   2.615
 5605TIP3   OH216820   3.797   5.976   1.943
 5605TIP3    H116821   3.857   6.050   1.933
 5605TIP3    H216822   3.851   5.905   1.978
 5606TIP3   OH216823   5.032   4.927   4.218
 5606TIP3    H116824   5.119   4.967   4.225
 5606TIP3    H216825   4.975   4.984   4.270
 5607TIP3   OH216826   4.213   3.029   5.173
 5607TIP3    H116827   4.222   3.030   5.269
 5607TIP3    H216828   4.210   2.937   5.151
 5608TIP3   OH216829   3.417   1.694   3.116
 5608TIP3    H116830   3.393   1.783   3.091
 5608TIP3    H216831   3.445   1.702   3.208
 5609TIP3   OH216832   1.094   4.607   5.149
 5609TIP3    H116833   1.002   4.583   5.152
 5609TIP3    H216834   1.139   4.528   5.119
 5610TIP3   OH216835   6.079   0.738   2.697
 5610TIP3    H116836   5.998   0.687   2.704
 5610TIP3    H216837   6.079   0.795   2.774
 5611TIP3   OH216838   4.436   5.002   2.719
 5611TIP3    H116839   4.530   4.993   2.703
 5611TIP3    H216840   4.428   5.079   2.777
 5612TIP3   OH216841   3.907   0.423   0.364
 5612TIP3    H116842   3.888   0.459   0.277
 5612TIP3    H216843   3.830   0.446   0.416
 5613TIP3   OH216844   5.081   1.929   0.527
 5613TIP3    H116845   5.089   1.891   0.440
 5613TIP3    H216846   5.036   2.013   0.513
 5614TIP3   OH216847   5.636   0.825   1.006
 5614TIP3    H116848   5.548   0.799   0.980
 5614TIP3    H216849   5.666   0.753   1.063
 5615TIP3   OH216850   0.828   4.189   3.775
 5615TIP3    H116851   0.809   4.119   3.838
 5615TIP3    H216852   0.884   4.148   3.709
 5616TIP3   OH216853   5.028   2.415   1.015
 5616TIP3    H116854   5.024   2.429   1.110
 5616TIP3    H216855   4.962   2.347   0.998
 5617TIP3   OH216856   5.178   1.583   2.140
 5617TIP3    H116857   5.141   1.588   2.228
 5617TIP3    H216858   5.273   1.580   2.155
 5618TIP3   OH216859   4.988   2.523   1.337
 5618TIP3    H116860   5.038   2.605   1.338
 5618TIP3    H216861   5.037   2.464   1.393
 5619TIP3   OH216862   4.779   2.609   0.212
 5619TIP3    H116863   4.716   2.574   0.275
 5619TIP3    H216864   4.860   2.617   0.261
 5620TIP3   OH216865   5.958   0.271   1.269
 5620TIP3    H116866   6.007   0.296   1.347
 5620TIP3    H216867   6.005   0.313   1.197
 5621TIP3   OH216868   4.493   3.506   4.217
 5621TIP3    H116869   4.520   3.579   4.273
 5621TIP3    H216870   4.424   3.462   4.266
 5622TIP3   OH216871   1.350   4.723   1.121
 5622TIP3    H116872   1.310   4.809   1.109
 5622TIP3    H216873   1.300   4.684   1.192
 5623TIP3   OH216874   2.001   1.048   2.408
 5623TIP3    H116875   2.032   0.979   2.467
 5623TIP3    H216876   2.081   1.088   2.375
 5624TIP3   OH216877   1.128   4.767   3.734
 5624TIP3    H116878   1.220   4.747   3.719
 5624TIP3    H216879   1.103   4.824   3.662
 5625TIP3   OH216880   5.197   2.367   0.794
 5625TIP3    H116881   5.145   2.377   0.873
 5625TIP3    H216882   5.221   2.274   0.793
 5626TIP3   OH216883   0.964   3.320   0.118
 5626TIP3    H116884   0.988   3.227   0.117
 5626TIP3    H216885   0.952   3.340   0.211
 5627TIP3   OH216886   2.667   0.778   1.652
 5627TIP3    H116887   2.710   0.832   1.717
 5627TIP3    H216888   2.574   0.801   1.658
 5628TIP3   OH216889   1.233   3.436   2.055
 5628TIP3    H116890   1.182   3.359   2.033
 5628TIP3    H216891   1.196   3.507   2.003
 5629TIP3   OH216892   3.431   1.912   1.296
 5629TIP3    H116893   3.348   1.928   1.250
 5629TIP3    H216894   3.488   1.984   1.268
 5630TIP3   OH216895   0.565   3.285   1.617
 5630TIP3    H116896   0.529   3.329   1.693
 5630TIP3    H216897   0.556   3.191   1.636
 5631TIP3   OH216898   3.373   0.931   3.595
 5631TIP3    H116899   3.311   0.858   3.602
 5631TIP3    H216900   3.459   0.891   3.610
 5632TIP3   OH216901   0.434   4.101   0.174
 5632TIP3    H116902   0.483   4.101   0.256
 5632TIP3    H216903   0.444   4.190   0.141
 5633TIP3   OH216904   0.021   0.160   0.135
 5633TIP3    H116905   0.020   0.250   0.103
 5633TIP3    H216906  -0.068   0.144   0.167
 5634TIP3   OH216907   0.835   5.457   0.194
 5634TIP3    H116908   0.817   5.386   0.256
 5634TIP3    H216909   0.902   5.510   0.236
 5635TIP3   OH216910   6.280   4.356   3.078
 5635TIP3    H116911   6.297   4.443   3.042
 5635TIP3    H216912   6.210   4.370   3.142
 5636TIP3   OH216913   5.356   4.126   0.827
 5636TIP3    H116914   5.382   4.099   0.739
 5636TIP3    H216915   5.315   4.048   0.864
 5637TIP3   OH216916   0.416   0.831   3.749
 5637TIP3    H116917   0.442   0.776   3.675
 5637TIP3    H216918   0.497   0.845   3.798
 5638TIP3   OH216919   0.240   4.316   0.694
 5638TIP3    H116920   0.149   4.293   0.677
 5638TIP3    H216921   0.283   4.309   0.609
 5639TIP3   OH216922   3.245   3.381   1.178
 5639TIP3    H116923   3.324   3.411   1.132
 5639TIP3    H216924   3.249   3.424   1.263
 5640TIP3   OH216925   5.037   3.210   1.876
 5640TIP3    H116926   4.985   3.278   1.833
 5640TIP3    H216927   5.020   3.221   1.969
 5641TIP3   OH216928   4.087   0.379   4.998
 5641TIP3    H116929   4.118   0.467   5.020
 5641TIP3    H216930   4.151   0.347   4.935
 5642TIP3   OH216931   1.489   1.270   0.502
 5642TIP3    H116932   1.509   1.238   0.414
 5642TIP3    H216933   1.476   1.364   0.490
 5643TIP3   OH216934   3.777   0.235   1.355
 5643TIP3    H116935   3.839   0.225   1.283
 5643TIP3    H216936   3.695   0.260   1.312
 5644TIP3   OH216937   5.215   5.387   4.219
 5644TIP3    H116938   5.142   5.356   4.273
 5644TIP3    H216939   5.291   5.380   4.277
 5645TIP3   OH216940   2.284   2.967   3.470
 5645TIP3    H116941   2.298   2.963   3.565
 5645TIP3    H216942   2.327   3.048   3.443
 5646TIP3   OH216943   2.690   5.633   2.072
 5646TIP3    H116944   2.712   5.549   2.033
 5646TIP3    H216945   2.721   5.698   2.009
 5647TIP3   OH216946   1.874   3.160   4.568
 5647TIP3    H116947   1.781   3.140   4.560
 5647TIP3    H216948   1.904   3.106   4.640
 5648TIP3   OH216949   5.642   2.311   0.427
 5648TIP3    H116950   5.732   2.294   0.454
 5648TIP3    H216951   5.634   2.406   0.429
 5649TIP3   OH216952   5.203   3.111   2.121
 5649TIP3    H116953   5.262   3.159   2.063
 5649TIP3    H216954   5.260   3.053   2.171
 5650TIP3   OH216955   1.037   1.312   4.313
 5650TIP3    H116956   1.100   1.360   4.258
 5650TIP3    H216957   0.977   1.379   4.345
 5651TIP3   OH216958   1.539   2.989   0.037
 5651TIP3    H116959   1.508   2.970   0.125
 5651TIP3    H216960   1.460   3.016  -0.010
 5652TIP3   OH216961   2.518   2.762   1.674
 5652TIP3    H116962   2.522   2.748   1.580
 5652TIP3    H216963   2.503   2.675   1.711
 5653TIP3   OH216964   1.170   5.951   3.146
 5653TIP3    H116965   1.165   5.922   3.238
 5653TIP3    H216966   1.079   5.954   3.117
 5654TIP3   OH216967   1.037   2.812   1.800
 5654TIP3    H116968   1.036   2.748   1.871
 5654TIP3    H216969   1.129   2.838   1.794
 5655TIP3   OH216970   3.544   0.688   3.375
 5655TIP3    H116971   3.516   0.743   3.302
 5655TIP3    H216972   3.566   0.604   3.335
 5656TIP3   OH216973   5.111   0.200   0.164
 5656TIP3    H116974   5.115   0.292   0.138
 5656TIP3    H216975   5.021   0.174   0.145
 5657TIP3   OH216976   6.007   3.583   4.316
 5657TIP3    H116977   6.043   3.499   4.344
 5657TIP3    H216978   5.996   3.574   4.222
 5658TIP3   OH216979   2.244   5.177   2.809
 5658TIP3    H116980   2.165   5.136   2.775
 5658TIP3    H216981   2.298   5.193   2.731
 5659TIP3   OH216982   3.978   2.974   4.047
 5659TIP3    H116983   3.985   3.008   4.136
 5659TIP3    H216984   4.032   2.895   4.047
 5660TIP3   OH216985   5.328   1.258   2.133
 5660TIP3    H116986   5.404   1.207   2.105
 5660TIP3    H216987   5.358   1.303   2.212
 5661TIP3   OH216988   0.290   0.861   1.777
 5661TIP3    H116989   0.364   0.809   1.807
 5661TIP3    H216990   0.327   0.920   1.710
 5662TIP3   OH216991   1.679   5.206   0.290
 5662TIP3    H116992   1.671   5.203   0.195
 5662TIP3    H216993   1.589   5.197   0.322
 5663TIP3   OH216994   1.907   4.644   4.746
 5663TIP3    H116995   1.961   4.715   4.780
 5663TIP3    H216996   1.889   4.589   4.822
 5664TIP3   OH216997   2.476   3.905   1.593
 5664TIP3    H116998   2.487   3.810   1.585
 5664TIP3    H216999   2.547   3.932   1.650
 5665TIP3   OH217000   0.643   4.348   5.036
 5665TIP3    H117001   0.606   4.278   4.983
 5665TIP3    H217002   0.624   4.428   4.986
 5666TIP3   OH217003   4.233   4.945   0.148
 5666TIP3    H117004   4.178   4.887   0.201
 5666TIP3    H217005   4.197   4.937   0.060
 5667TIP3   OH217006   0.414   0.050   1.098
 5667TIP3    H117007   0.336   0.085   1.142
 5667TIP3    H217008   0.436   0.117   1.034
 5668TIP3   OH217009   0.503   2.916   0.720
 5668TIP3    H117010   0.511   3.001   0.676
 5668TIP3    H217011   0.521   2.852   0.651
 5669TIP3   OH217012   3.534   1.949   3.370
 5669TIP3    H117013   3.501   1.861   3.389
 5669TIP3    H217014   3.520   1.998   3.451
 5670TIP3   OH217015   5.547   0.835   2.018
 5670TIP3    H117016   5.625   0.886   2.038
 5670TIP3    H217017   5.520   0.866   1.931
 5671TIP3   OH217018   3.791   5.335   1.415
 5671TIP3    H117019   3.883   5.314   1.430
 5671TIP3    H217020   3.787   5.360   1.323
 5672TIP3   OH217021   4.487   5.793   1.034
 5672TIP3    H117022   4.546   5.865   1.057
 5672TIP3    H217023   4.480   5.798   0.938
 5673TIP3   OH217024   3.076   0.361   3.219
 5673TIP3    H117025   3.159   0.316   3.201
 5673TIP3    H217026   3.093   0.453   3.196
 5674TIP3   OH217027   1.966   2.543   1.765
 5674TIP3    H117028   1.949   2.626   1.721
 5674TIP3    H217029   2.060   2.529   1.753
 5675TIP3   OH217030   0.749   5.077   3.757
 5675TIP3    H117031   0.824   5.131   3.734
 5675TIP3    H217032   0.752   5.003   3.697
 5676TIP3   OH217033   3.819   1.675   1.696
 5676TIP3    H117034   3.861   1.642   1.616
 5676TIP3    H217035   3.755   1.607   1.719
 5677TIP3   OH217036   4.104   5.722   2.219
 5677TIP3    H117037   4.150   5.801   2.188
 5677TIP3    H217038   4.028   5.755   2.266
 5678TIP3   OH217039   4.895   0.211   4.703
 5678TIP3    H117040   4.817   0.258   4.730
 5678TIP3    H217041   4.968   0.268   4.729
 5679TIP3   OH217042   4.226   2.712   2.181
 5679TIP3    H117043   4.290   2.646   2.156
 5679TIP3    H217044   4.215   2.700   2.275
 5680TIP3   OH217045   0.853   4.737   4.997
 5680TIP3    H117046   0.787   4.749   4.929
 5680TIP3    H217047   0.850   4.818   5.048
 5681TIP3   OH217048   2.725   4.780   3.374
 5681TIP3    H117049   2.750   4.704   3.427
 5681TIP3    H217050   2.698   4.845   3.439
 5682TIP3   OH217051   0.706   3.237   2.653
 5682TIP3    H117052   0.697   3.226   2.747
 5682TIP3    H217053   0.702   3.332   2.640
 5683TIP3   OH217054   1.403   4.339   5.069
 5683TIP3    H117055   1.451   4.261   5.096
 5683TIP3    H217056   1.376   4.321   4.979
 5684TIP3   OH217057   1.360   4.207   0.622
 5684TIP3    H117058   1.265   4.210   0.622
 5684TIP3    H217059   1.387   4.292   0.656
 5685TIP3   OH217060   5.459   3.175   4.409
 5685TIP3    H117061   5.463   3.269   4.389
 5685TIP3    H217062   5.462   3.133   4.323
 5686TIP3   OH217063   0.220   1.438   3.308
 5686TIP3    H117064   0.271   1.484   3.241
 5686TIP3    H217065   0.176   1.368   3.261
 5687TIP3   OH217066   1.536   5.074   0.023
 5687TIP3    H117067   1.588   4.994   0.032
 5687TIP3    H217068   1.506   5.074  -0.067
 5688TIP3   OH217069   0.897   5.983   0.970
 5688TIP3    H117070   0.954   5.991   0.894
 5688TIP3    H217071   0.955   5.950   1.039
 5689TIP3   OH217072   1.487   5.674   4.456
 5689TIP3    H117073   1.541   5.610   4.410
 5689TIP3    H217074   1.548   5.746   4.475
 5690TIP3   OH217075   1.889   0.916   0.299
 5690TIP3    H117076   1.844   0.837   0.331
 5690TIP3    H217077   1.980   0.889   0.291
 5691TIP3   OH217078   3.933   1.374   3.127
 5691TIP3    H117079   3.934   1.328   3.212
 5691TIP3    H217080   4.021   1.412   3.120
 5692TIP3   OH217081   4.394   4.174   4.302
 5692TIP3    H117082   4.319   4.125   4.338
 5692TIP3    H217083   4.471   4.132   4.341
 5693TIP3   OH217084   4.426   1.001   5.014
 5693TIP3    H117085   4.468   1.062   4.954
 5693TIP3    H217086   4.418   1.050   5.096
 5694TIP3   OH217087   2.083   1.776   1.841
 5694TIP3    H117088   2.063   1.696   1.792
 5694TIP3    H217089   2.136   1.828   1.780
 5695TIP3   OH217090   5.539   1.826   1.264
 5695TIP3    H117091   5.448   1.845   1.285
 5695TIP3    H217092   5.584   1.829   1.348
 5696TIP3   OH217093   3.053   0.419   3.716
 5696TIP3    H117094   3.121   0.466   3.764
 5696TIP3    H217095   2.984   0.484   3.703
 5697TIP3   OH217096   5.434   0.001   3.317
 5697TIP3    H117097   5.483   0.072   3.358
 5697TIP3    H217098   5.416  -0.060   3.389
 5698TIP3   OH217099   4.964   2.261   3.880
 5698TIP3    H117100   4.976   2.166   3.879
 5698TIP3    H217101   4.878   2.274   3.919
 5699TIP3   OH217102   3.033   0.437   2.808
 5699TIP3    H117103   3.096   0.410   2.875
 5699TIP3    H217104   3.084   0.439   2.727
 5700TIP3   OH217105   3.021   4.439   4.029
 5700TIP3    H117106   3.008   4.525   4.070
 5700TIP3    H217107   3.116   4.431   4.020
 5701TIP3   OH217108   1.320   1.120   0.640
 5701TIP3    H117109   1.267   1.198   0.654
 5701TIP3    H217110   1.392   1.150   0.584
 5702TIP3   OH217111   1.691   4.371   2.141
 5702TIP3    H117112   1.695   4.431   2.067
 5702TIP3    H217113   1.727   4.289   2.107
 5703TIP3   OH217114   3.998   1.413   3.410
 5703TIP3    H117115   3.973   1.348   3.475
 5703TIP3    H217116   4.089   1.394   3.391
 5704TIP3   OH217117   6.189   2.987   2.307
 5704TIP3    H117118   6.197   3.030   2.222
 5704TIP3    H217119   6.278   2.958   2.328
 5705TIP3   OH217120   5.285   1.628   0.979
 5705TIP3    H117121   5.230   1.608   1.056
 5705TIP3    H217122   5.247   1.575   0.909
 5706TIP3   OH217123   0.063   3.588   2.171
 5706TIP3    H117124   0.065   3.528   2.096
 5706TIP3    H217125   0.097   3.670   2.136
 5707TIP3   OH217126   1.767   5.859   5.144
 5707TIP3    H117127   1.758   5.825   5.233
 5707TIP3    H217128   1.856   5.836   5.119
 5708TIP3   OH217129   3.822   1.972   4.539
 5708TIP3    H117130   3.872   2.008   4.465
 5708TIP3    H217131   3.888   1.944   4.602
 5709TIP3   OH217132   4.701   0.180   4.461
 5709TIP3    H117133   4.773   0.154   4.519
 5709TIP3    H217134   4.731   0.153   4.374
 5710TIP3   OH217135   3.007   4.994   4.459
 5710TIP3    H117136   3.016   4.956   4.546
 5710TIP3    H217137   3.088   5.042   4.445
 5711TIP3   OH217138   2.923   1.614   4.223
 5711TIP3    H117139   2.950   1.676   4.155
 5711TIP3    H217140   2.982   1.539   4.212
 5712TIP3   OH217141   1.101   5.323   1.163
 5712TIP3    H117142   1.151   5.267   1.222
 5712TIP3    H217143   1.121   5.412   1.193
 5713TIP3   OH217144   1.353   0.646   3.654
 5713TIP3    H117145   1.449   0.645   3.660
 5713TIP3    H217146   1.324   0.623   3.742
 5714TIP3   OH217147   2.880   4.724   1.024
 5714TIP3    H117148   2.808   4.732   0.961
 5714TIP3    H217149   2.929   4.805   1.015
 5715TIP3   OH217150   5.937   2.606   2.921
 5715TIP3    H117151   5.886   2.595   2.841
 5715TIP3    H217152   5.986   2.524   2.930
 5716TIP3   OH217153   5.685   5.441   0.218
 5716TIP3    H117154   5.602   5.489   0.207
 5716TIP3    H217155   5.673   5.393   0.300
 5717TIP3   OH217156   2.849   5.888   1.122
 5717TIP3    H117157   2.886   5.899   1.035
 5717TIP3    H217158   2.849   5.976   1.160
 5718TIP3   OH217159   2.458   3.802   5.169
 5718TIP3    H117160   2.447   3.896   5.181
 5718TIP3    H217161   2.378   3.774   5.125
 5719TIP3   OH217162   4.205   1.271   3.315
 5719TIP3    H117163   4.127   1.217   3.321
 5719TIP3    H217164   4.278   1.210   3.316
 5720TIP3   OH217165   6.297   1.108   1.502
 5720TIP3    H117166   6.370   1.116   1.563
 5720TIP3    H217167   6.219   1.105   1.559
 5721TIP3   OH217168   1.390   4.312   2.058
 5721TIP3    H117169   1.423   4.392   2.100
 5721TIP3    H217170   1.437   4.307   1.975
 5722TIP3   OH217171   5.171   2.847   4.046
 5722TIP3    H117172   5.182   2.848   3.951
 5722TIP3    H217173   5.093   2.794   4.062
 5723TIP3   OH217174   3.373   4.842   4.033
 5723TIP3    H117175   3.446   4.792   3.995
 5723TIP3    H217176   3.386   4.835   4.128
 5724TIP3   OH217177   6.212   5.669   2.387
 5724TIP3    H117178   6.243   5.622   2.464
 5724TIP3    H217179   6.126   5.701   2.411
 5725TIP3   OH217180   5.538   3.545   1.695
 5725TIP3    H117181   5.485   3.586   1.764
 5725TIP3    H217182   5.475   3.527   1.625
 5726TIP3   OH217183   3.556   5.235   1.083
 5726TIP3    H117184   3.568   5.194   1.168
 5726TIP3    H217185   3.567   5.328   1.099
 5727TIP3   OH217186   3.648   3.067   3.718
 5727TIP3    H117187   3.698   3.039   3.641
 5727TIP3    H217188   3.688   3.020   3.791
 5728TIP3   OH217189   1.855   4.481   1.228
 5728TIP3    H117190   1.787   4.414   1.228
 5728TIP3    H217191   1.937   4.433   1.239
 5729TIP3   OH217192   3.927   3.475   1.954
 5729TIP3    H117193   3.959   3.425   1.879
 5729TIP3    H217194   4.004   3.488   2.010
 5730TIP3   OH217195   3.716   4.844   0.902
 5730TIP3    H117196   3.740   4.926   0.946
 5730TIP3    H217197   3.702   4.869   0.811
 5731TIP3   OH217198   6.161   2.469   1.363
 5731TIP3    H117199   6.068   2.472   1.386
 5731TIP3    H217200   6.187   2.378   1.377
 5732TIP3   OH217201   0.623   4.361   3.726
 5732TIP3    H117202   0.567   4.352   3.803
 5732TIP3    H217203   0.692   4.296   3.739
 5733TIP3   OH217204   0.340   2.334   3.736
 5733TIP3    H117205   0.252   2.368   3.719
 5733TIP3    H217206   0.352   2.345   3.830
 5734TIP3   OH217207   5.987   5.931   1.248
 5734TIP3    H117208   5.976   6.026   1.243
 5734TIP3    H217209   5.936   5.905   1.325
 5735TIP3   OH217210   5.460   1.278   4.630
 5735TIP3    H117211   5.369   1.261   4.604
 5735TIP3    H217212   5.471   1.372   4.619
 5736TIP3   OH217213   0.111   3.895   1.276
 5736TIP3    H117214   0.177   3.919   1.210
 5736TIP3    H217215   0.122   3.800   1.287
 5737TIP3   OH217216   1.326   4.121   3.832
 5737TIP3    H117217   1.309   4.203   3.878
 5737TIP3    H217218   1.346   4.147   3.742
 5738TIP3   OH217219   4.165   2.643   4.436
 5738TIP3    H117220   4.206   2.566   4.395
 5738TIP3    H217221   4.166   2.624   4.530
 5739TIP3   OH217222   6.006   4.739   4.095
 5739TIP3    H117223   5.957   4.687   4.032
 5739TIP3    H217224   6.057   4.675   4.144
 5740TIP3   OH217225   0.641   5.087   3.350
 5740TIP3    H117226   0.709   5.024   3.374
 5740TIP3    H217227   0.599   5.050   3.273
 5741TIP3   OH217228   2.978   3.420   3.208
 5741TIP3    H117229   2.972   3.336   3.253
 5741TIP3    H217230   3.072   3.435   3.196
 5742TIP3   OH217231   1.791   0.721   1.770
 5742TIP3    H117232   1.741   0.784   1.718
 5742TIP3    H217233   1.826   0.772   1.842
 5743TIP3   OH217234   3.622   3.564   5.133
 5743TIP3    H117235   3.660   3.596   5.052
 5743TIP3    H217236   3.567   3.637   5.163
 5744TIP3   OH217237   6.172   5.468   0.467
 5744TIP3    H117238   6.172   5.546   0.411
 5744TIP3    H217239   6.201   5.499   0.552
 5745TIP3   OH217240   4.909   4.964   2.285
 5745TIP3    H117241   4.921   5.028   2.214
 5745TIP3    H217242   4.840   4.906   2.253
 5746TIP3   OH217243   0.074   4.827   4.658
 5746TIP3    H117244   0.032   4.767   4.721
 5746TIP3    H217245   0.015   4.828   4.583
 5747TIP3   OH217246   5.765   0.014   0.176
 5747TIP3    H117247   5.683   0.043   0.217
 5747TIP3    H217248   5.783   0.082   0.110
 5748TIP3   OH217249   0.976   3.383   2.791
 5748TIP3    H117250   0.974   3.309   2.851
 5748TIP3    H217251   0.907   3.442   2.823
 5749TIP3   OH217252   0.224   1.906   3.435
 5749TIP3    H117253   0.165   1.982   3.430
 5749TIP3    H217254   0.296   1.935   3.491
 5750TIP3   OH217255   0.534   4.800   4.572
 5750TIP3    H117256   0.522   4.859   4.497
 5750TIP3    H217257   0.460   4.819   4.630
 5751TIP3   OH217258  -0.063   0.134   4.343
 5751TIP3    H117259  -0.047   0.151   4.250
 5751TIP3    H217260   0.021   0.105   4.377
 5752TIP3   OH217261   1.510   4.423   4.234
 5752TIP3    H117262   1.536   4.412   4.325
 5752TIP3    H217263   1.425   4.468   4.238
 5753TIP3   OH217264   5.890   1.525   1.378
 5753TIP3    H117265   5.814   1.494   1.328
 5753TIP3    H217266   5.955   1.547   1.311
 5754TIP3   OH217267   0.288   0.578   2.022
 5754TIP3    H117268   0.361   0.631   1.991
 5754TIP3    H217269   0.212   0.614   1.977
 5755TIP3   OH217270   0.762   4.390   4.580
 5755TIP3    H117271   0.669   4.414   4.586
 5755TIP3    H217272   0.802   4.462   4.532
 5756TIP3   OH217273   0.594   2.927   2.773
 5756TIP3    H117274   0.599   2.895   2.863
 5756TIP3    H217275   0.674   2.978   2.760
 5757TIP3   OH217276   5.092   0.520   3.131
 5757TIP3    H117277   5.145   0.450   3.171
 5757TIP3    H217278   5.145   0.599   3.142
 5758TIP3   OH217279   3.344   5.647   4.223
 5758TIP3    H117280   3.418   5.590   4.203
 5758TIP3    H217281   3.313   5.678   4.138
 5759TIP3   OH217282   1.991   5.176   1.836
 5759TIP3    H117283   2.023   5.262   1.863
 5759TIP3    H217284   1.920   5.195   1.775
 5760TIP3   OH217285   4.051   4.089   2.817
 5760TIP3    H117286   4.091   4.023   2.761
 5760TIP3    H217287   4.119   4.155   2.830
 5761TIP3   OH217288   2.291   0.125   2.560
 5761TIP3    H117289   2.207   0.103   2.599
 5761TIP3    H217290   2.269   0.180   2.485
 5762TIP3   OH217291   0.175   4.485   3.344
 5762TIP3    H117292   0.212   4.504   3.429
 5762TIP3    H217293   0.133   4.399   3.355
 5763TIP3   OH217294   6.078   5.234   0.588
 5763TIP3    H117295   5.996   5.189   0.566
 5763TIP3    H217296   6.060   5.326   0.573
 5764TIP3   OH217297   0.441   1.273   4.990
 5764TIP3    H117298   0.405   1.197   4.944
 5764TIP3    H217299   0.533   1.276   4.963
 5765TIP3   OH217300   2.425   1.115   0.482
 5765TIP3    H117301   2.453   1.062   0.407
 5765TIP3    H217302   2.477   1.082   0.555
 5766TIP3   OH217303   4.593   4.264   4.820
 5766TIP3    H117304   4.606   4.334   4.883
 5766TIP3    H217305   4.682   4.236   4.796
 5767TIP3   OH217306   3.757   4.148   3.167
 5767TIP3    H117307   3.767   4.224   3.225
 5767TIP3    H217308   3.783   4.181   3.081
 5768TIP3   OH217309   1.516   3.980   0.714
 5768TIP3    H117310   1.607   4.010   0.723
 5768TIP3    H217311   1.472   4.051   0.667
 5769TIP3   OH217312   5.398   0.561   3.821
 5769TIP3    H117313   5.373   0.604   3.902
 5769TIP3    H217314   5.316   0.526   3.786
 5770TIP3   OH217315   0.169   2.771   4.162
 5770TIP3    H117316   0.117   2.713   4.106
 5770TIP3    H217317   0.147   2.860   4.132
 5771TIP3   OH217318   4.935   0.129   3.973
 5771TIP3    H117319   5.020   0.091   3.955
 5771TIP3    H217320   4.872   0.062   3.947
 5772TIP3   OH217321   4.894   5.820   3.896
 5772TIP3    H117322   4.902   5.742   3.950
 5772TIP3    H217323   4.800   5.839   3.894
 5773TIP3   OH217324   5.803   0.261   1.703
 5773TIP3    H117325   5.755   0.215   1.634
 5773TIP3    H217326   5.752   0.246   1.782
 5774TIP3   OH217327   2.207   2.492   0.854
 5774TIP3    H117328   2.176   2.441   0.929
 5774TIP3    H217329   2.156   2.573   0.857
 5775TIP3   OH217330   5.372   2.339   1.535
 5775TIP3    H117331   5.450   2.378   1.575
 5775TIP3    H217332   5.402   2.253   1.504
 5776TIP3   OH217333   2.223   3.492   4.794
 5776TIP3    H117334   2.311   3.510   4.829
 5776TIP3    H217335   2.222   3.398   4.779
 5777TIP3   OH217336   1.792   5.827   1.030
 5777TIP3    H117337   1.873   5.830   1.080
 5777TIP3    H217338   1.741   5.757   1.070
 5778TIP3   OH217339   2.161   2.811   4.803
 5778TIP3    H117340   2.247   2.844   4.829
 5778TIP3    H217341   2.166   2.804   4.707
 5779TIP3   OH217342   6.026   1.621   2.757
 5779TIP3    H117343   6.064   1.639   2.843
 5779TIP3    H217344   5.980   1.538   2.767
 5780TIP3   OH217345   0.931   5.988   3.360
 5780TIP3    H117346   0.853   5.944   3.325
 5780TIP3    H217347   0.905   6.080   3.366
 5781TIP3   OH217348   3.847   2.411   3.071
 5781TIP3    H117349   3.788   2.424   2.997
 5781TIP3    H217350   3.791   2.380   3.142
 5782TIP3   OH217351   1.743   1.511   3.043
 5782TIP3    H117352   1.762   1.514   2.950
 5782TIP3    H217353   1.664   1.563   3.054
 5783TIP3   OH217354   0.640   5.190   2.390
 5783TIP3    H117355   0.681   5.200   2.304
 5783TIP3    H217356   0.613   5.278   2.414
 5784TIP3   OH217357   3.322   5.054   2.057
 5784TIP3    H117358   3.403   5.050   2.006
 5784TIP3    H217359   3.258   5.007   2.003
 5785TIP3   OH217360   1.807   0.484   2.648
 5785TIP3    H117361   1.774   0.544   2.581
 5785TIP3    H217362   1.817   0.538   2.726
 5786TIP3   OH217363   0.676   0.526   1.404
 5786TIP3    H117364   0.621   0.449   1.390
 5786TIP3    H217365   0.763   0.491   1.423
 5787TIP3   OH217366   2.025   2.393   2.748
 5787TIP3    H117367   1.930   2.393   2.759
 5787TIP3    H217368   2.058   2.434   2.828
 5788TIP3   OH217369   0.247   2.567   0.109
 5788TIP3    H117370   0.228   2.660   0.102
 5788TIP3    H217371   0.275   2.542   0.021
 5789TIP3   OH217372   2.104   4.319   3.012
 5789TIP3    H117373   2.046   4.273   3.072
 5789TIP3    H217374   2.059   4.315   2.927
 5790TIP3   OH217375   2.812   4.247   1.042
 5790TIP3    H117376   2.850   4.319   0.991
 5790TIP3    H217377   2.783   4.184   0.975
 5791TIP3   OH217378   2.811   4.487   3.835
 5791TIP3    H117379   2.832   4.436   3.913
 5791TIP3    H217380   2.718   4.470   3.819
 5792TIP3   OH217381   5.337   1.923   3.211
 5792TIP3    H117382   5.259   1.978   3.205
 5792TIP3    H217383   5.333   1.886   3.299
 5793TIP3   OH217384   4.959   4.286   1.210
 5793TIP3    H117385   4.959   4.380   1.194
 5793TIP3    H217386   4.868   4.265   1.230
 5794TIP3   OH217387   2.033   1.464   0.855
 5794TIP3    H117388   1.984   1.546   0.861
 5794TIP3    H217389   2.042   1.434   0.946
 5795TIP3   OH217390   3.412   2.075   1.709
 5795TIP3    H117391   3.492   2.067   1.760
 5795TIP3    H217392   3.346   2.105   1.772
 5796TIP3   OH217393   3.735   4.483   2.468
 5796TIP3    H117394   3.790   4.405   2.468
 5796TIP3    H217395   3.649   4.451   2.442
 5797TIP3   OH217396   3.039   0.625   3.399
 5797TIP3    H117397   3.044   0.643   3.305
 5797TIP3    H217398   3.130   0.630   3.429
 5798TIP3   OH217399   0.426   5.489   1.968
 5798TIP3    H117400   0.445   5.576   2.005
 5798TIP3    H217401   0.407   5.435   2.045
 5799TIP3   OH217402   4.871   4.588   5.052
 5799TIP3    H117403   4.850   4.681   5.047
 5799TIP3    H217404   4.884   4.572   5.146
 5800TIP3   OH217405   2.109   0.088   3.121
 5800TIP3    H117406   2.073   0.071   3.034
 5800TIP3    H217407   2.155   0.007   3.144
 5801TIP3   OH217408   3.746   3.325   3.754
 5801TIP3    H117409   3.765   3.240   3.714
 5801TIP3    H217410   3.768   3.313   3.846
 5802TIP3   OH217411   3.710   1.749   3.964
 5802TIP3    H117412   3.717   1.812   3.893
 5802TIP3    H217413   3.659   1.677   3.927
 5803TIP3   OH217414   1.885   0.198   0.123
 5803TIP3    H117415   1.834   0.123   0.153
 5803TIP3    H217416   1.935   0.164   0.048
 5804TIP3   OH217417   6.244   0.110   1.246
 5804TIP3    H117418   6.248   0.127   1.152
 5804TIP3    H217419   6.248   0.197   1.286
 5805TIP3   OH217420   4.660   5.131   3.089
 5805TIP3    H117421   4.598   5.163   3.154
 5805TIP3    H217422   4.636   5.039   3.076
 5806TIP3   OH217423   2.455   3.625   1.699
 5806TIP3    H117424   2.390   3.556   1.714
 5806TIP3    H217425   2.511   3.622   1.777
 5807TIP3   OH217426   5.659   5.416   4.837
 5807TIP3    H117427   5.687   5.440   4.925
 5807TIP3    H217428   5.617   5.495   4.802
 5808TIP3   OH217429   3.707   1.079   3.399
 5808TIP3    H117430   3.612   1.071   3.400
 5808TIP3    H217431   3.734   1.067   3.490
 5809TIP3   OH217432   4.844   5.009   4.757
 5809TIP3    H117433   4.901   5.063   4.812
 5809TIP3    H217434   4.903   4.954   4.707
 5810TIP3   OH217435   4.985   4.718   0.589
 5810TIP3    H117436   4.891   4.734   0.584
 5810TIP3    H217437   4.993   4.626   0.613
 5811TIP3   OH217438   1.685   1.599   2.344
 5811TIP3    H117439   1.656   1.585   2.435
 5811TIP3    H217440   1.614   1.649   2.304
 5812TIP3   OH217441   4.255   2.573   1.580
 5812TIP3    H117442   4.218   2.521   1.652
 5812TIP3    H217443   4.288   2.652   1.621
 5813TIP3   OH217444   2.961   2.172   4.636
 5813TIP3    H117445   2.895   2.103   4.634
 5813TIP3    H217446   2.937   2.226   4.712
 5814TIP3   OH217447   0.793   1.523   3.204
 5814TIP3    H117448   0.885   1.524   3.178
 5814TIP3    H217449   0.795   1.516   3.299
 5815TIP3   OH217450   1.933   4.946   1.642
 5815TIP3    H117451   1.904   4.950   1.733
 5815TIP3    H217452   1.890   4.868   1.607
 5816TIP3   OH217453   0.388   1.106   0.608
 5816TIP3    H117454   0.328   1.151   0.549
 5816TIP3    H217455   0.415   1.173   0.670
 5817TIP3   OH217456   4.751   4.154   4.515
 5817TIP3    H117457   4.738   4.247   4.532
 5817TIP3    H217458   4.663   4.118   4.509
 5818TIP3   OH217459   0.431   0.509   0.270
 5818TIP3    H117460   0.472   0.587   0.232
 5818TIP3    H217461   0.399   0.538   0.356
 5819TIP3   OH217462   5.233   4.162   4.846
 5819TIP3    H117463   5.177   4.229   4.885
 5819TIP3    H217464   5.218   4.084   4.900
 5820TIP3   OH217465   4.387   1.956   4.229
 5820TIP3    H117466   4.385   2.044   4.193
 5820TIP3    H217467   4.380   1.899   4.153
 5821TIP3   OH217468   5.186   3.918   2.413
 5821TIP3    H117469   5.260   3.964   2.453
 5821TIP3    H217470   5.109   3.960   2.450
 5822TIP3   OH217471   6.272   2.923   4.814
 5822TIP3    H117472   6.364   2.943   4.803
 5822TIP3    H217473   6.245   2.973   4.891
 5823TIP3   OH217474   4.905   2.937   2.256
 5823TIP3    H117475   4.877   2.984   2.334
 5823TIP3    H217476   5.001   2.946   2.255
 5824TIP3   OH217477   5.767   1.910   0.339
 5824TIP3    H117478   5.699   1.938   0.401
 5824TIP3    H217479   5.777   1.983   0.279
 5825TIP3   OH217480   3.236   5.807   3.510
 5825TIP3    H117481   3.231   5.818   3.605
 5825TIP3    H217482   3.179   5.732   3.492
 5826TIP3   OH217483   4.200   0.457   1.349
 5826TIP3    H117484   4.220   0.379   1.298
 5826TIP3    H217485   4.268   0.520   1.325
 5827TIP3   OH217486   5.194   2.078   0.729
 5827TIP3    H117487   5.279   2.119   0.710
 5827TIP3    H217488   5.183   2.012   0.660
 5828TIP3   OH217489   0.534   4.018   3.697
 5828TIP3    H117490   0.583   4.016   3.615
 5828TIP3    H217491   0.598   3.994   3.764
 5829TIP3   OH217492   2.692   4.016   0.911
 5829TIP3    H117493   2.747   3.939   0.902
 5829TIP3    H217494   2.636   4.014   0.833
 5830TIP3   OH217495   5.080   1.600   1.270
 5830TIP3    H117496   5.048   1.510   1.276
 5830TIP3    H217497   5.166   1.598   1.312
 5831TIP3   OH217498   4.760   1.024   4.004
 5831TIP3    H117499   4.670   1.023   4.037
 5831TIP3    H217500   4.752   1.048   3.912
 5832TIP3   OH217501   3.173   1.746   3.571
 5832TIP3    H117502   3.183   1.704   3.485
 5832TIP3    H217503   3.142   1.834   3.551
 5833TIP3   OH217504   6.162   1.222   4.437
 5833TIP3    H117505   6.103   1.224   4.362
 5833TIP3    H217506   6.210   1.305   4.432
 5834TIP3   OH217507   2.419   3.665   0.170
 5834TIP3    H117508   2.515   3.659   0.174
 5834TIP3    H217509   2.393   3.592   0.114
 5835TIP3   OH217510   1.774   5.120   3.182
 5835TIP3    H117511   1.799   5.028   3.175
 5835TIP3    H217512   1.680   5.122   3.165
 5836TIP3   OH217513   4.714   1.708   0.446
 5836TIP3    H117514   4.787   1.726   0.388
 5836TIP3    H217515   4.648   1.774   0.424
 5837TIP3   OH217516   2.183   0.840   2.483
 5837TIP3    H117517   2.248   0.857   2.415
 5837TIP3    H217518   2.197   0.748   2.506
 5838TIP3   OH217519   0.066   4.182   4.371
 5838TIP3    H117520   0.036   4.269   4.397
 5838TIP3    H217521   0.161   4.191   4.360
 5839TIP3   OH217522   1.214   2.867   0.616
 5839TIP3    H117523   1.162   2.881   0.695
 5839TIP3    H217524   1.229   2.773   0.613
 5840TIP3   OH217525   1.825   3.979   2.335
 5840TIP3    H117526   1.776   3.901   2.310
 5840TIP3    H217527   1.761   4.037   2.376
 5841TIP3   OH217528   6.130   3.156   1.690
 5841TIP3    H117529   6.127   3.073   1.643
 5841TIP3    H217530   6.130   3.223   1.622
 5842TIP3   OH217531   4.198   5.102   2.639
 5842TIP3    H117532   4.281   5.064   2.670
 5842TIP3    H217533   4.131   5.039   2.666
 5843TIP3   OH217534   4.826   5.993   4.643
 5843TIP3    H117535   4.785   5.928   4.701
 5843TIP3    H217536   4.839   5.948   4.560
 5844TIP3   OH217537   2.562   5.627   0.055
 5844TIP3    H117538   2.511   5.548   0.035
 5844TIP3    H217539   2.509   5.674   0.119
 5845TIP3   OH217540   3.580   1.745   1.503
 5845TIP3    H117541   3.499   1.791   1.479
 5845TIP3    H217542   3.565   1.716   1.593
 5846TIP3   OH217543   3.810   1.945   1.704
 5846TIP3    H117544   3.737   1.977   1.756
 5846TIP3    H217545   3.794   1.852   1.693
 5847TIP3   OH217546   5.002   4.980   1.962
 5847TIP3    H117547   5.038   5.028   1.888
 5847TIP3    H217548   5.004   5.042   2.035
 5848TIP3   OH217549   4.847   4.379   3.880
 5848TIP3    H117550   4.917   4.426   3.925
 5848TIP3    H217551   4.843   4.418   3.793
 5849TIP3   OH217552   2.660   4.017   3.843
 5849TIP3    H117553   2.706   3.935   3.862
 5849TIP3    H217554   2.657   4.063   3.927
 5850TIP3   OH217555   2.977   4.051   1.468
 5850TIP3    H117556   2.981   4.104   1.388
 5850TIP3    H217557   2.885   4.057   1.496
 5851TIP3   OH217558   5.538   0.108   0.279
 5851TIP3    H117559   5.520   0.138   0.369
 5851TIP3    H217560   5.518   0.184   0.224
 5852TIP3   OH217561   6.153   0.896   1.363
 5852TIP3    H117562   6.109   0.925   1.443
 5852TIP3    H217563   6.211   0.969   1.339
 5853TIP3   OH217564   2.134   0.630   1.960
 5853TIP3    H117565   2.053   0.579   1.961
 5853TIP3    H217566   2.109   0.714   1.921
 5854TIP3   OH217567   4.756   3.233   3.326
 5854TIP3    H117568   4.700   3.304   3.294
 5854TIP3    H217569   4.816   3.277   3.387
 5855TIP3   OH217570   3.499   2.594   2.629
 5855TIP3    H117571   3.484   2.554   2.715
 5855TIP3    H217572   3.473   2.685   2.640
 5856TIP3   OH217573   3.475   2.280   1.496
 5856TIP3    H117574   3.423   2.215   1.542
 5856TIP3    H217575   3.558   2.282   1.543
 5857TIP3   OH217576   5.638   3.431   0.871
 5857TIP3    H117577   5.553   3.447   0.829
 5857TIP3    H217578   5.634   3.339   0.899
 5858TIP3   OH217579   0.966   2.528   2.924
 5858TIP3    H117580   0.937   2.619   2.916
 5858TIP3    H217581   1.053   2.534   2.962
 5859TIP3   OH217582   4.455   2.589   4.776
 5859TIP3    H117583   4.520   2.523   4.752
 5859TIP3    H217584   4.438   2.572   4.869
 5860TIP3   OH217585   1.484   0.129   0.311
 5860TIP3    H117586   1.508   0.220   0.292
 5860TIP3    H217587   1.396   0.120   0.273
 5861TIP3   OH217588   2.680   5.051   3.972
 5861TIP3    H117589   2.739   4.978   3.954
 5861TIP3    H217590   2.644   5.074   3.887
 5862TIP3   OH217591   5.956   2.628   0.969
 5862TIP3    H117592   6.032   2.674   1.005
 5862TIP3    H217593   5.882   2.685   0.990
 5863TIP3   OH217594  -0.001   3.194   0.555
 5863TIP3    H117595   0.044   3.187   0.639
 5863TIP3    H217596  -0.089   3.159   0.572
 5864TIP3   OH217597   3.460   2.204   0.009
 5864TIP3    H117598   3.405   2.214  -0.069
 5864TIP3    H217599   3.487   2.113   0.008
 5865TIP3   OH217600   1.954   4.109   0.382
 5865TIP3    H117601   1.959   4.199   0.412
 5865TIP3    H217602   1.860   4.091   0.375
 5866TIP3   OH217603   0.330   5.016   0.315
 5866TIP3    H117604   0.241   5.000   0.345
 5866TIP3    H217605   0.341   4.961   0.238
 5867TIP3   OH217606   1.693   0.119   1.992
 5867TIP3    H117607   1.787   0.134   1.978
 5867TIP3    H217608   1.657   0.206   2.008
 5868TIP3   OH217609   2.987   3.809   5.179
 5868TIP3    H117610   2.976   3.902   5.197
 5868TIP3    H217611   2.965   3.800   5.086
 5869TIP3   OH217612   4.910   1.700   2.176
 5869TIP3    H117613   4.968   1.765   2.135
 5869TIP3    H217614   4.841   1.685   2.111
 5870TIP3   OH217615   1.323   1.496   2.732
 5870TIP3    H117616   1.254   1.440   2.695
 5870TIP3    H217617   1.277   1.574   2.763
 5871TIP3   OH217618   0.871   1.571   4.116
 5871TIP3    H117619   0.790   1.613   4.145
 5871TIP3    H217620   0.878   1.594   4.023
 5872TIP3   OH217621   6.309   4.250   0.619
 5872TIP3    H117622   6.322   4.232   0.526
 5872TIP3    H217623   6.220   4.285   0.624
 5873TIP3   OH217624   4.047   5.636   5.040
 5873TIP3    H117625   3.965   5.589   5.055
 5873TIP3    H217626   4.068   5.676   5.125
 5874TIP3   OH217627   3.893   2.445   2.165
 5874TIP3    H117628   3.874   2.506   2.093
 5874TIP3    H217629   3.816   2.450   2.221
 5875TIP3   OH217630   5.321   0.147   1.012
 5875TIP3    H117631   5.402   0.145   0.962
 5875TIP3    H217632   5.347   0.130   1.102
 5876TIP3   OH217633   5.321   0.030   0.132
 5876TIP3    H117634   5.279   0.115   0.117
 5876TIP3    H217635   5.394   0.048   0.190
 5877TIP3   OH217636   3.399   4.267   3.090
 5877TIP3    H117637   3.362   4.218   3.017
 5877TIP3    H217638   3.348   4.348   3.093
 5878TIP3   OH217639   3.147   4.228   4.729
 5878TIP3    H117640   3.142   4.271   4.644
 5878TIP3    H217641   3.232   4.255   4.764
 5879TIP3   OH217642   0.891   4.559   2.003
 5879TIP3    H117643   0.801   4.562   2.034
 5879TIP3    H217644   0.885   4.567   1.908
 5880TIP3   OH217645   3.743   5.720   3.766
 5880TIP3    H117646   3.739   5.625   3.770
 5880TIP3    H217647   3.652   5.748   3.778
 5881TIP3   OH217648   4.394   4.158   3.043
 5881TIP3    H117649   4.464   4.114   3.091
 5881TIP3    H217650   4.313   4.119   3.077
 5882TIP3   OH217651   2.676   1.927   0.079
 5882TIP3    H117652   2.591   1.912   0.121
 5882TIP3    H217653   2.661   1.905  -0.013
 5883TIP3   OH217654   0.890   0.777   4.250
 5883TIP3    H117655   0.815   0.745   4.299
 5883TIP3    H217656   0.915   0.858   4.295
 5884TIP3   OH217657   6.045   3.632   0.985
 5884TIP3    H117658   6.064   3.559   0.924
 5884TIP3    H217659   5.954   3.655   0.966
 5885TIP3   OH217660   1.201   0.042   1.260
 5885TIP3    H117661   1.280   0.095   1.263
 5885TIP3    H217662   1.223  -0.038   1.308
 5886TIP3   OH217663   5.361   3.555   1.477
 5886TIP3    H117664   5.353   3.560   1.382
 5886TIP3    H217665   5.271   3.542   1.507
 5887TIP3   OH217666   5.989   3.149   4.340
 5887TIP3    H117667   6.055   3.089   4.306
 5887TIP3    H217668   5.906   3.111   4.310
 5888TIP3   OH217669   2.659   5.178   3.702
 5888TIP3    H117670   2.574   5.222   3.693
 5888TIP3    H217671   2.710   5.237   3.758
 5889TIP3   OH217672   2.972   3.747   2.645
 5889TIP3    H117673   2.931   3.822   2.602
 5889TIP3    H217674   2.954   3.760   2.738
 5890TIP3   OH217675   1.618   1.272   3.392
 5890TIP3    H117676   1.589   1.319   3.314
 5890TIP3    H217677   1.713   1.264   3.381
 5891TIP3   OH217678   0.099   0.461   3.274
 5891TIP3    H117679   0.069   0.378   3.311
 5891TIP3    H217680   0.172   0.437   3.217
 5892TIP3   OH217681   5.838   2.606   1.720
 5892TIP3    H117682   5.755   2.603   1.767
 5892TIP3    H217683   5.891   2.535   1.759
 5893TIP3   OH217684   1.728   2.982   0.771
 5893TIP3    H117685   1.657   3.027   0.817
 5893TIP3    H217686   1.720   2.891   0.797
 5894TIP3   OH217687   5.097   1.859   2.043
 5894TIP3    H117688   5.098   1.954   2.032
 5894TIP3    H217689   5.105   1.824   1.954
 5895TIP3   OH217690   4.876   1.728   2.743
 5895TIP3    H117691   4.854   1.649   2.694
 5895TIP3    H217692   4.877   1.700   2.835
 5896TIP3   OH217693   2.453   5.435   4.469
 5896TIP3    H117694   2.526   5.425   4.408
 5896TIP3    H217695   2.382   5.384   4.431
 5897TIP3   OH217696   3.711   2.958   3.991
 5897TIP3    H117697   3.806   2.968   4.001
 5897TIP3    H217698   3.674   3.021   4.053
 5898TIP3   OH217699   0.296   4.610   3.887
 5898TIP3    H117700   0.385   4.593   3.920
 5898TIP3    H217701   0.302   4.595   3.793
 5899TIP3   OH217702   5.878   3.326   2.139
 5899TIP3    H117703   5.883   3.254   2.202
 5899TIP3    H217704   5.784   3.341   2.128
 5900TIP3   OH217705   5.319   4.353   1.860
 5900TIP3    H117706   5.243   4.377   1.913
 5900TIP3    H217707   5.369   4.434   1.852
 5901TIP3   OH217708   4.957   5.820   0.622
 5901TIP3    H117709   5.029   5.758   0.633
 5901TIP3    H217710   4.988   5.883   0.557
 5902TIP3   OH217711   1.340   4.966   0.240
 5902TIP3    H117712   1.379   5.042   0.283
 5902TIP3    H217713   1.350   4.984   0.146
 5903TIP3   OH217714   0.698   1.763   3.161
 5903TIP3    H117715   0.727   1.675   3.185
 5903TIP3    H217716   0.776   1.817   3.172
 5904TIP3   OH217717   0.923   0.887   0.879
 5904TIP3    H117718   0.985   0.862   0.948
 5904TIP3    H217719   0.976   0.888   0.799
 5905TIP3   OH217720   6.016   1.935   3.562
 5905TIP3    H117721   5.961   1.857   3.553
 5905TIP3    H217722   6.029   1.944   3.656
 5906TIP3   OH217723   5.154   0.737   4.756
 5906TIP3    H117724   5.161   0.828   4.786
 5906TIP3    H217725   5.074   0.704   4.798
 5907TIP3   OH217726   2.340   4.527   2.967
 5907TIP3    H117727   2.275   4.457   2.962
 5907TIP3    H217728   2.391   4.509   3.046
 5908TIP3   OH217729   4.545   0.427   5.102
 5908TIP3    H117730   4.497   0.421   5.019
 5908TIP3    H217731   4.494   0.488   5.155
 5909TIP3   OH217732   1.321   2.784   3.863
 5909TIP3    H117733   1.370   2.725   3.920
 5909TIP3    H217734   1.387   2.843   3.827
 5910TIP3   OH217735   1.166   2.345   0.217
 5910TIP3    H117736   1.090   2.382   0.172
 5910TIP3    H217737   1.229   2.327   0.148
 5911TIP3   OH217738   0.283   1.599   4.492
 5911TIP3    H117739   0.365   1.641   4.520
 5911TIP3    H217740   0.298   1.577   4.400
 5912TIP3   OH217741   2.438   1.650   0.839
 5912TIP3    H117742   2.466   1.723   0.894
 5912TIP3    H217743   2.520   1.608   0.811
 5913TIP3   OH217744   6.376   1.590   3.474
 5913TIP3    H117745   6.415   1.550   3.396
 5913TIP3    H217746   6.325   1.664   3.440
 5914TIP3   OH217747   3.930   5.828   4.470
 5914TIP3    H117748   3.875   5.750   4.469
 5914TIP3    H217749   4.017   5.796   4.446
 5915TIP3   OH217750   3.824   5.279   0.312
 5915TIP3    H117751   3.793   5.278   0.222
 5915TIP3    H217752   3.874   5.197   0.321
 5916TIP3   OH217753   5.827   4.605   4.903
 5916TIP3    H117754   5.787   4.585   4.819
 5916TIP3    H217755   5.894   4.537   4.915
 5917TIP3   OH217756   1.981   4.120   4.702
 5917TIP3    H117757   1.998   4.176   4.777
 5917TIP3    H217758   1.955   4.036   4.741
 5918TIP3   OH217759   1.940   1.204   5.077
 5918TIP3    H117760   1.953   1.119   5.120
 5918TIP3    H217761   1.968   1.268   5.143
 5919TIP3   OH217762   5.618   2.488   1.181
 5919TIP3    H117763   5.667   2.531   1.251
 5919TIP3    H217764   5.617   2.395   1.206
 5920TIP3   OH217765   3.728   0.771   1.255
 5920TIP3    H117766   3.668   0.705   1.288
 5920TIP3    H217767   3.787   0.790   1.328
 5921TIP3   OH217768   2.492   3.943   0.729
 5921TIP3    H117769   2.503   3.872   0.667
 5921TIP3    H217770   2.407   3.925   0.771
 5922TIP3   OH217771   0.726   5.298   4.507
 5922TIP3    H117772   0.771   5.383   4.515
 5922TIP3    H217773   0.796   5.233   4.510
 5923TIP3   OH217774   5.789   1.525   5.160
 5923TIP3    H117775   5.793   1.433   5.135
 5923TIP3    H217776   5.868   1.540   5.212
 5924TIP3   OH217777   2.428   2.829   0.717
 5924TIP3    H117778   2.363   2.860   0.653
 5924TIP3    H217779   2.420   2.889   0.791
 5925TIP3   OH217780   0.778   4.617   2.870
 5925TIP3    H117781   0.761   4.696   2.922
 5925TIP3    H217782   0.692   4.583   2.848
 5926TIP3   OH217783   6.269   3.322   4.127
 5926TIP3    H117784   6.299   3.407   4.097
 5926TIP3    H217785   6.251   3.273   4.046
 5927TIP3   OH217786   0.102   2.867   1.417
 5927TIP3    H117787   0.060   2.891   1.499
 5927TIP3    H217788   0.034   2.878   1.350
 5928TIP3   OH217789   0.617   4.677   0.299
 5928TIP3    H117790   0.655   4.598   0.338
 5928TIP3    H217791   0.687   4.715   0.246
 5929TIP3   OH217792   0.614   4.454   1.828
 5929TIP3    H117793   0.533   4.498   1.799
 5929TIP3    H217794   0.683   4.517   1.810
 5930TIP3   OH217795   0.295   3.075   1.829
 5930TIP3    H117796   0.238   3.152   1.835
 5930TIP3    H217797   0.364   3.091   1.893
 5931TIP3   OH217798   3.120   3.707   1.654
 5931TIP3    H117799   3.031   3.674   1.660
 5931TIP3    H217800   3.175   3.629   1.666
 5932TIP3   OH217801   2.982   1.076   0.377
 5932TIP3    H117802   2.931   1.132   0.318
 5932TIP3    H217803   3.003   1.133   0.451
 5933TIP3   OH217804   4.651   0.545   0.722
 5933TIP3    H117805   4.616   0.491   0.652
 5933TIP3    H217806   4.624   0.634   0.701
 5934TIP3   OH217807   0.412   5.646   4.276
 5934TIP3    H117808   0.317   5.641   4.265
 5934TIP3    H217809   0.447   5.591   4.206
 5935TIP3   OH217810   1.339   1.237   4.754
 5935TIP3    H117811   1.275   1.267   4.689
 5935TIP3    H217812   1.286   1.205   4.826
 5936TIP3   OH217813   1.124   0.767   3.986
 5936TIP3    H117814   1.044   0.818   3.974
 5936TIP3    H217815   1.167   0.808   4.061
 5937TIP3   OH217816   4.817   1.584   1.043
 5937TIP3    H117817   4.726   1.558   1.028
 5937TIP3    H217818   4.851   1.519   1.105
 5938TIP3   OH217819   0.892   2.215   4.585
 5938TIP3    H117820   0.822   2.152   4.600
 5938TIP3    H217821   0.970   2.162   4.568
 5939TIP3   OH217822   0.140   1.912   1.840
 5939TIP3    H117823   0.180   1.993   1.810
 5939TIP3    H217824   0.192   1.886   1.916
 5940TIP3   OH217825   0.230   5.403   4.338
 5940TIP3    H117826   0.293   5.335   4.359
 5940TIP3    H217827   0.179   5.367   4.265
 5941TIP3   OH217828   4.378   4.326   1.667
 5941TIP3    H117829   4.353   4.283   1.585
 5941TIP3    H217830   4.385   4.419   1.644
 5942TIP3   OH217831   4.623   2.276   2.389
 5942TIP3    H117832   4.586   2.296   2.303
 5942TIP3    H217833   4.621   2.180   2.393
 5943TIP3   OH217834   0.325   3.424   3.159
 5943TIP3    H117835   0.395   3.367   3.126
 5943TIP3    H217836   0.247   3.396   3.111
 5944TIP3   OH217837   1.416   5.323   2.050
 5944TIP3    H117838   1.452   5.409   2.025
 5944TIP3    H217839   1.463   5.300   2.130
 5945TIP3   OH217840   1.851   2.404   1.494
 5945TIP3    H117841   1.935   2.444   1.471
 5945TIP3    H217842   1.821   2.364   1.413
 5946TIP3   OH217843   3.128   3.028   1.805
 5946TIP3    H117844   3.194   3.004   1.870
 5946TIP3    H217845   3.179   3.060   1.731
 5947TIP3   OH217846   3.788   4.934   1.285
 5947TIP3    H117847   3.812   4.977   1.203
 5947TIP3    H217848   3.861   4.875   1.303
 5948TIP3   OH217849   4.241   1.771   2.572
 5948TIP3    H117850   4.191   1.792   2.651
 5948TIP3    H217851   4.304   1.705   2.600
 5949TIP3   OH217852   1.890   5.858  -0.001
 5949TIP3    H117853   1.968   5.901  -0.036
 5949TIP3    H217854   1.888   5.884   0.091
 5950TIP3   OH217855   4.783   2.858   0.560
 5950TIP3    H117856   4.699   2.904   0.562
 5950TIP3    H217857   4.835   2.906   0.495
 5951TIP3   OH217858   5.616   4.225   3.163
 5951TIP3    H117859   5.628   4.200   3.255
 5951TIP3    H217860   5.690   4.283   3.144
 5952TIP3   OH217861   1.015   5.564   1.294
 5952TIP3    H117862   1.035   5.592   1.383
 5952TIP3    H217863   0.965   5.637   1.256
 5953TIP3   OH217864   0.665   3.625   3.074
 5953TIP3    H117865   0.593   3.617   3.012
 5953TIP3    H217866   0.640   3.569   3.148
 5954TIP3   OH217867   4.151   4.872   5.098
 5954TIP3    H117868   4.065   4.829   5.100
 5954TIP3    H217869   4.195   4.841   5.177
 5955TIP3   OH217870   1.918   1.986   4.217
 5955TIP3    H117871   1.990   2.042   4.245
 5955TIP3    H217872   1.946   1.897   4.241
 5956TIP3   OH217873   0.727   5.951   4.646
 5956TIP3    H117874   0.734   5.986   4.735
 5956TIP3    H217875   0.808   5.978   4.603
 5957TIP3   OH217876   0.175   0.291   0.394
 5957TIP3    H117877   0.160   0.200   0.368
 5957TIP3    H217878   0.088   0.324   0.416
 5958TIP3   OH217879   1.294   0.116   5.090
 5958TIP3    H117880   1.247   0.104   5.172
 5958TIP3    H217881   1.226   0.132   5.025
 5959TIP3   OH217882   0.980   2.889   5.073
 5959TIP3    H117883   1.024   2.922   4.994
 5959TIP3    H217884   1.033   2.924   5.146
 5960TIP3   OH217885   4.711   1.729   4.211
 5960TIP3    H117886   4.645   1.661   4.221
 5960TIP3    H217887   4.780   1.706   4.274
 5961TIP3   OH217888   1.708   2.622   2.151
 5961TIP3    H117889   1.721   2.664   2.236
 5961TIP3    H217890   1.796   2.591   2.127
 5962TIP3   OH217891   5.334   4.110   3.319
 5962TIP3    H117892   5.270   4.154   3.375
 5962TIP3    H217893   5.383   4.053   3.378
 5963TIP3   OH217894   1.387   3.882   2.115
 5963TIP3    H117895   1.442   3.825   2.168
 5963TIP3    H217896   1.435   3.894   2.033
 5964TIP3   OH217897   4.960   3.389   2.615
 5964TIP3    H117898   4.996   3.394   2.704
 5964TIP3    H217899   4.881   3.336   2.624
 5965TIP3   OH217900   5.188   2.655   0.876
 5965TIP3    H117901   5.236   2.640   0.957
 5965TIP3    H217902   5.163   2.567   0.847
 5966TIP3   OH217903   3.729   2.255   0.852
 5966TIP3    H117904   3.646   2.296   0.828
 5966TIP3    H217905   3.764   2.221   0.770
 5967TIP3   OH217906   0.961   3.794   3.984
 5967TIP3    H117907   0.911   3.716   4.008
 5967TIP3    H217908   1.047   3.762   3.959
 5968TIP3   OH217909   1.258   4.390   3.949
 5968TIP3    H117910   1.230   4.330   4.018
 5968TIP3    H217911   1.267   4.475   3.993
 5969TIP3   OH217912   4.802   2.668   4.877
 5969TIP3    H117913   4.735   2.620   4.925
 5969TIP3    H217914   4.864   2.600   4.849
 5970TIP3   OH217915   4.761   4.833   1.855
 5970TIP3    H117916   4.811   4.909   1.884
 5970TIP3    H217917   4.679   4.871   1.821
 5971TIP3   OH217918   2.309   4.241   4.843
 5971TIP3    H117919   2.351   4.173   4.789
 5971TIP3    H217920   2.377   4.268   4.904
 5972TIP3   OH217921   4.970   5.157   2.882
 5972TIP3    H117922   4.875   5.153   2.876
 5972TIP3    H217923   5.000   5.091   2.819
 5973TIP3   OH217924   5.998   4.099   3.149
 5973TIP3    H117925   6.060   4.045   3.198
 5973TIP3    H217926   5.982   4.049   3.069
 5974TIP3   OH217927   2.056   1.343   1.130
 5974TIP3    H117928   2.077   1.254   1.104
 5974TIP3    H217929   2.121   1.364   1.197
 5975TIP3   OH217930   2.690   1.217   5.047
 5975TIP3    H117931   2.710   1.217   4.954
 5975TIP3    H217932   2.691   1.309   5.073
 5976TIP3   OH217933   1.769   5.839   1.740
 5976TIP3    H117934   1.797   5.873   1.655
 5976TIP3    H217935   1.685   5.797   1.722
 5977TIP3   OH217936   0.200   3.023   4.813
 5977TIP3    H117937   0.189   3.117   4.795
 5977TIP3    H217938   0.283   3.017   4.860
 5978TIP3   OH217939   3.756   5.927   0.660
 5978TIP3    H117940   3.779   5.899   0.571
 5978TIP3    H217941   3.822   5.992   0.682
 5979TIP3   OH217942   3.590   4.930   4.311
 5979TIP3    H117943   3.636   5.001   4.267
 5979TIP3    H217944   3.534   4.973   4.375
 5980TIP3   OH217945   0.752   3.657   0.714
 5980TIP3    H117946   0.845   3.633   0.711
 5980TIP3    H217947   0.727   3.644   0.805
 5981TIP3   OH217948   0.913   4.190   3.229
 5981TIP3    H117949   0.868   4.274   3.214
 5981TIP3    H217950   0.980   4.186   3.161
 5982TIP3   OH217951   3.887   4.260   2.946
 5982TIP3    H117952   3.974   4.297   2.960
 5982TIP3    H217953   3.895   4.210   2.865
 5983TIP3   OH217954   4.165   1.636   0.346
 5983TIP3    H117955   4.181   1.640   0.440
 5983TIP3    H217956   4.099   1.703   0.329
 5984TIP3   OH217957   5.495   2.626   3.998
 5984TIP3    H117958   5.571   2.594   3.949
 5984TIP3    H217959   5.481   2.560   4.066
 5985TIP3   OH217960   0.343   3.754   3.403
 5985TIP3    H117961   0.263   3.793   3.437
 5985TIP3    H217962   0.414   3.808   3.440
 5986TIP3   OH217963   2.340   0.574   0.204
 5986TIP3    H117964   2.410   0.617   0.252
 5986TIP3    H217965   2.286   0.533   0.272
 5987TIP3   OH217966   1.224   4.905   3.205
 5987TIP3    H117967   1.262   4.991   3.225
 5987TIP3    H217968   1.222   4.901   3.110
 5988TIP3   OH217969   2.242   0.227   4.558
 5988TIP3    H117970   2.315   0.242   4.618
 5988TIP3    H217971   2.255   0.289   4.487
 5989TIP3   OH217972   5.040   4.515   3.003
 5989TIP3    H117973   5.068   4.426   3.028
 5989TIP3    H217974   4.951   4.522   3.035
 5990TIP3   OH217975   2.489   4.308   5.031
 5990TIP3    H117976   2.564   4.332   5.085
 5990TIP3    H217977   2.462   4.223   5.064
 5991TIP3   OH217978   2.430   1.230   0.807
 5991TIP3    H117979   2.485   1.265   0.877
 5991TIP3    H217980   2.398   1.308   0.761
 5992TIP3   OH217981   2.842   5.781   3.243
 5992TIP3    H117982   2.783   5.722   3.289
 5992TIP3    H217983   2.790   5.816   3.171
 5993TIP3   OH217984   0.477   5.684   2.157
 5993TIP3    H117985   0.568   5.710   2.172
 5993TIP3    H217986   0.425   5.743   2.212
 5994TIP3   OH217987   1.588   5.097   2.060
 5994TIP3    H117988   1.640   5.177   2.052
 5994TIP3    H217989   1.628   5.049   2.132
 5995TIP3   OH217990   4.764   5.506   0.806
 5995TIP3    H117991   4.741   5.507   0.713
 5995TIP3    H217992   4.772   5.598   0.830
 5996TIP3   OH217993   5.729   5.860   1.832
 5996TIP3    H117994   5.743   5.950   1.804
 5996TIP3    H217995   5.808   5.837   1.881
 5997TIP3   OH217996   3.407   1.108   3.370
 5997TIP3    H117997   3.375   1.097   3.281
 5997TIP3    H217998   3.377   1.029   3.416
 5998TIP3   OH217999   5.552   0.324   1.135
 5998TIP3    H118000   5.539   0.318   1.040
 5998TIP3    H218001   5.611   0.251   1.156
 5999TIP3   OH218002   2.135   4.119   4.470
 5999TIP3    H118003   2.067   4.139   4.535
 5999TIP3    H218004   2.187   4.050   4.511
 6000TIP3   OH218005   0.442   4.159   1.182
 6000TIP3    H118006   0.378   4.223   1.154
 6000TIP3    H218007   0.505   4.209   1.235
 6001TIP3   OH218008   2.505   2.528   1.505
 6001TIP3    H118009   2.561   2.508   1.580
 6001TIP3    H218010   2.520   2.455   1.444
 6002TIP3   OH218011   4.824   0.500   1.934
 6002TIP3    H118012   4.735   0.490   1.899
 6002TIP3    H218013   4.841   0.418   1.980
 6003TIP3   OH218014   1.062   3.483   3.142
 6003TIP3    H118015   1.043   3.497   3.235
 6003TIP3    H218016   1.087   3.570   3.110
 6004TIP3   OH218017   3.497   5.773   3.864
 6004TIP3    H118018   3.444   5.813   3.796
 6004TIP3    H218019   3.436   5.754   3.935
 6005TIP3   OH218020   0.404   0.846   4.532
 6005TIP3    H118021   0.451   0.895   4.599
 6005TIP3    H218022   0.315   0.839   4.567
 6006TIP3   OH218023   2.277   4.376   0.966
 6006TIP3    H118024   2.267   4.468   0.989
 6006TIP3    H218025   2.372   4.361   0.965
 6007TIP3   OH218026   4.870   1.954   3.357
 6007TIP3    H118027   4.931   1.888   3.326
 6007TIP3    H218028   4.920   2.005   3.420
 6008TIP3   OH218029   5.513   3.556   2.630
 6008TIP3    H118030   5.463   3.611   2.691
 6008TIP3    H218031   5.595   3.605   2.616
 6009TIP3   OH218032   0.789   5.263   3.049
 6009TIP3    H118033   0.713   5.279   2.993
 6009TIP3    H218034   0.764   5.298   3.134
 6010TIP3   OH218035   3.330   2.814   1.253
 6010TIP3    H118036   3.345   2.805   1.158
 6010TIP3    H218037   3.413   2.789   1.293
 6011TIP3   OH218038   3.387   5.602   5.108
 6011TIP3    H118039   3.356   5.631   5.194
 6011TIP3    H218040   3.447   5.530   5.126
 6012TIP3   OH218041   3.532   4.547   4.901
 6012TIP3    H118042   3.610   4.535   4.955
 6012TIP3    H218043   3.560   4.608   4.832
 6013TIP3   OH218044   3.900   1.613   1.940
 6013TIP3    H118045   3.866   1.625   1.851
 6013TIP3    H218046   3.898   1.701   1.978
 6014TIP3   OH218047   1.697   5.477   1.836
 6014TIP3    H118048   1.780   5.497   1.880
 6014TIP3    H218049   1.719   5.404   1.777
 6015TIP3   OH218050   4.379   4.624   2.398
 6015TIP3    H118051   4.448   4.678   2.359
 6015TIP3    H218052   4.315   4.687   2.432
 6016TIP3   OH218053   5.237   1.907   1.800
 6016TIP3    H118054   5.329   1.934   1.795
 6016TIP3    H218055   5.198   1.970   1.861
 6017TIP3   OH218056   1.193   2.510   2.740
 6017TIP3    H118057   1.271   2.459   2.762
 6017TIP3    H218058   1.122   2.445   2.739
 6018TIP3   OH218059   5.035   4.926   4.604
 6018TIP3    H118060   5.049   5.015   4.572
 6018TIP3    H218061   5.100   4.873   4.559
 6019TIP3   OH218062   1.547   5.552   2.043
 6019TIP3    H118063   1.564   5.642   2.072
 6019TIP3    H218064   1.575   5.551   1.951
 6020TIP3   OH218065   2.825   2.145   5.088
 6020TIP3    H118066   2.756   2.084   5.063
 6020TIP3    H218067   2.806   2.225   5.038
 6021TIP3   OH218068   2.963   4.480   1.280
 6021TIP3    H118069   2.910   4.501   1.357
 6021TIP3    H218070   2.945   4.388   1.262
 6022TIP3   OH218071   5.007   4.044   4.490
 6022TIP3    H118072   5.023   4.051   4.396
 6022TIP3    H218073   4.917   4.077   4.500
 6023TIP3   OH218074   6.133   4.915   0.315
 6023TIP3    H118075   6.221   4.951   0.303
 6023TIP3    H218076   6.079   4.992   0.337
 6024TIP3   OH218077   1.383   0.642   3.920
 6024TIP3    H118078   1.305   0.655   3.975
 6024TIP3    H218079   1.447   0.602   3.978
 6025TIP3   OH218080   3.829   5.429   3.780
 6025TIP3    H118081   3.892   5.468   3.840
 6025TIP3    H218082   3.876   5.355   3.741
 6026TIP3   OH218083   0.276   2.105   0.608
 6026TIP3    H118084   0.265   2.038   0.675
 6026TIP3    H218085   0.254   2.187   0.652
 6027TIP3   OH218086   2.195   5.242   4.692
 6027TIP3    H118087   2.159   5.154   4.687
 6027TIP3    H218088   2.272   5.233   4.748
 6028TIP3   OH218089   5.550   1.114   5.090
 6028TIP3    H118090   5.557   1.052   5.162
 6028TIP3    H218091   5.556   1.061   5.010
 6029TIP3   OH218092   0.907   0.212   2.911
 6029TIP3    H118093   0.919   0.127   2.954
 6029TIP3    H218094   0.931   0.276   2.978
 6030TIP3   OH218095   5.858   1.637   0.529
 6030TIP3    H118096   5.831   1.726   0.555
 6030TIP3    H218097   5.823   1.581   0.598
 6031TIP3   OH218098   0.854   5.771   4.307
 6031TIP3    H118099   0.844   5.863   4.283
 6031TIP3    H218100   0.903   5.773   4.390
 6032TIP3   OH218101   3.846   3.201   3.423
 6032TIP3    H118102   3.755   3.182   3.399
 6032TIP3    H218103   3.889   3.115   3.425
 6033TIP3   OH218104   0.293   1.269   1.582
 6033TIP3    H118105   0.356   1.289   1.513
 6033TIP3    H218106   0.301   1.175   1.596
 6034TIP3   OH218107  -0.013   0.611   3.976
 6034TIP3    H118108  -0.013   0.591   4.069
 6034TIP3    H218109   0.079   0.616   3.951
 6035TIP3   OH218110   0.994   2.449   4.030
 6035TIP3    H118111   1.024   2.522   3.976
 6035TIP3    H218112   0.919   2.485   4.079
 6036TIP3   OH218113   3.971   1.401   0.845
 6036TIP3    H118114   4.031   1.462   0.887
 6036TIP3    H218115   3.972   1.324   0.902
 6037TIP3   OH218116   3.330   1.614   4.149
 6037TIP3    H118117   3.359   1.703   4.131
 6037TIP3    H218118   3.405   1.559   4.126
 6038TIP3   OH218119   0.861   3.596   2.895
 6038TIP3    H118120   0.793   3.586   2.962
 6038TIP3    H218121   0.930   3.647   2.939
 6039TIP3   OH218122   3.202   4.775   0.840
 6039TIP3    H118123   3.106   4.777   0.833
 6039TIP3    H218124   3.219   4.765   0.934
 6040TIP3   OH218125   1.697   0.636   4.832
 6040TIP3    H118126   1.643   0.673   4.762
 6040TIP3    H218127   1.784   0.630   4.794
 6041TIP3   OH218128   1.804   4.341   3.525
 6041TIP3    H118129   1.853   4.407   3.476
 6041TIP3    H218130   1.866   4.270   3.539
 6042TIP3   OH218131   4.686   0.347   4.802
 6042TIP3    H118132   4.642   0.293   4.869
 6042TIP3    H218133   4.719   0.422   4.851
 6043TIP3   OH218134   0.415   3.686   0.640
 6043TIP3    H118135   0.473   3.707   0.713
 6043TIP3    H218136   0.349   3.629   0.678
 6044TIP3   OH218137   1.783   4.957   1.872
 6044TIP3    H118138   1.841   4.965   1.947
 6044TIP3    H218139   1.748   5.045   1.859
 6045TIP3   OH218140   2.379   5.539   0.485
 6045TIP3    H118141   2.456   5.485   0.464
 6045TIP3    H218142   2.407   5.591   0.560
 6046TIP3   OH218143  -0.019   1.874   0.005
 6046TIP3    H118144   0.007   1.793   0.048
 6046TIP3    H218145   0.044   1.939   0.036
 6047TIP3   OH218146   2.301   2.132   2.421
 6047TIP3    H118147   2.258   2.046   2.413
 6047TIP3    H218148   2.302   2.150   2.515
 6048TIP3   OH218149   3.045   2.976   2.603
 6048TIP3    H118150   3.090   3.060   2.595
 6048TIP3    H218151   3.038   2.944   2.513
 6049TIP3   OH218152   5.899   2.759   3.363
 6049TIP3    H118153   5.913   2.808   3.444
 6049TIP3    H218154   5.834   2.692   3.386
 6050TIP3   OH218155   2.276   3.212   4.243
 6050TIP3    H118156   2.247   3.274   4.176
 6050TIP3    H218157   2.233   3.129   4.220
 6051TIP3   OH218158   2.978   1.925   1.902
 6051TIP3    H118159   3.014   1.836   1.909
 6051TIP3    H218160   2.960   1.936   1.809
 6052TIP3   OH218161   3.423   4.864   0.701
 6052TIP3    H118162   3.442   4.942   0.753
 6052TIP3    H218163   3.337   4.836   0.730
 6053TIP3   OH218164   5.476   2.761   4.912
 6053TIP3    H118165   5.489   2.854   4.892
 6053TIP3    H218166   5.537   2.716   4.853
 6054TIP3   OH218167   1.388   4.105   2.272
 6054TIP3    H118168   1.399   4.167   2.200
 6054TIP3    H218169   1.359   4.024   2.230
 6055TIP3   OH218170   1.645   0.976   4.197
 6055TIP3    H118171   1.567   1.032   4.203
 6055TIP3    H218172   1.613   0.896   4.155
 6056TIP3   OH218173   3.133   3.638   4.937
 6056TIP3    H118174   3.172   3.644   5.024
 6056TIP3    H218175   3.155   3.549   4.907
 6057TIP3   OH218176   5.694   2.620   3.057
 6057TIP3    H118177   5.708   2.528   3.078
 6057TIP3    H218178   5.767   2.643   2.999
 6058TIP3   OH218179   4.135   1.684   3.552
 6058TIP3    H118180   4.046   1.683   3.587
 6058TIP3    H218181   4.152   1.594   3.524
 6059TIP3   OH218182   5.009   3.557   1.664
 6059TIP3    H118183   4.992   3.630   1.723
 6059TIP3    H218184   4.928   3.547   1.614
 6060TIP3   OH218185   0.603   5.574   3.159
 6060TIP3    H118186   0.693   5.589   3.129
 6060TIP3    H218187   0.610   5.498   3.217
 6061TIP3   OH218188   1.697   5.837   0.749
 6061TIP3    H118189   1.785   5.828   0.713
 6061TIP3    H218190   1.709   5.827   0.843
 6062TIP3   OH218191   0.282   0.637   2.522
 6062TIP3    H118192   0.313   0.687   2.447
 6062TIP3    H218193   0.262   0.550   2.486
 6063TIP3   OH218194   0.451   5.704   4.933
 6063TIP3    H118195   0.401   5.639   4.884
 6063TIP3    H218196   0.536   5.663   4.948
 6064TIP3   OH218197   5.291   5.925   4.993
 6064TIP3    H118198   5.256   5.939   5.081
 6064TIP3    H218199   5.363   5.863   5.005
 6065TIP3   OH218200   2.292   3.168   2.224
 6065TIP3    H118201   2.356   3.136   2.160
 6065TIP3    H218202   2.208   3.160   2.180
 6066TIP3   OH218203   3.304   2.436   3.470
 6066TIP3    H118204   3.226   2.397   3.508
 6066TIP3    H218205   3.324   2.511   3.527
 6067TIP3   OH218206   0.045   5.005   0.359
 6067TIP3    H118207   0.016   4.975   0.446
 6067TIP3    H218208   0.034   5.100   0.362
 6068TIP3   OH218209   6.042   2.882   4.654
 6068TIP3    H118210   6.113   2.890   4.718
 6068TIP3    H218211   6.018   2.790   4.656
 6069TIP3   OH218212   5.714   3.621   3.694
 6069TIP3    H118213   5.783   3.658   3.638
 6069TIP3    H218214   5.679   3.548   3.644
 6070TIP3   OH218215   4.333   4.424   5.031
 6070TIP3    H118216   4.322   4.336   4.993
 6070TIP3    H218217   4.411   4.459   4.987
 6071TIP3   OH218218   3.717   4.066   4.623
 6071TIP3    H118219   3.697   4.013   4.699
 6071TIP3    H218220   3.639   4.121   4.610
 6072TIP3   OH218221   2.599   2.286   3.970
 6072TIP3    H118222   2.520   2.315   3.922
 6072TIP3    H218223   2.595   2.333   4.053
 6073TIP3   OH218224   4.458   3.537   0.292
 6073TIP3    H118225   4.419   3.559   0.377
 6073TIP3    H218226   4.545   3.504   0.314
 6074TIP3   OH218227   3.176   3.968   1.645
 6074TIP3    H118228   3.152   3.875   1.639
 6074TIP3    H218229   3.109   4.013   1.594
 6075TIP3   OH218230   3.152   3.516   2.704
 6075TIP3    H118231   3.179   3.561   2.624
 6075TIP3    H218232   3.081   3.571   2.739
 6076TIP3   OH218233   6.062   0.969   4.268
 6076TIP3    H118234   6.028   1.057   4.253
 6076TIP3    H218235   6.102   0.944   4.184
 6077TIP3   OH218236   3.751   5.123   0.697
 6077TIP3    H118237   3.664   5.139   0.732
 6077TIP3    H218238   3.783   5.209   0.669
 6078TIP3   OH218239   4.639   2.583   1.833
 6078TIP3    H118240   4.724   2.548   1.806
 6078TIP3    H218241   4.586   2.506   1.852
 6079TIP3   OH218242   4.457   2.361   1.852
 6079TIP3    H118243   4.426   2.271   1.846
 6079TIP3    H218244   4.379   2.414   1.840
 6080TIP3   OH218245   5.328   2.248   0.118
 6080TIP3    H118246   5.233   2.251   0.106
 6080TIP3    H218247   5.348   2.155   0.125
 6081TIP3   OH218248   0.627   4.318   2.947
 6081TIP3    H118249   0.704   4.357   2.989
 6081TIP3    H218250   0.597   4.252   3.009
 6082TIP3   OH218251   6.014   5.007   5.101
 6082TIP3    H118252   6.029   5.093   5.062
 6082TIP3    H218253   6.044   4.945   5.035
 6083TIP3   OH218254   0.996   4.143   0.098
 6083TIP3    H118255   1.029   4.220   0.051
 6083TIP3    H218256   1.009   4.070   0.037
 6084TIP3   OH218257   3.500   3.807   5.129
 6084TIP3    H118258   3.556   3.877   5.094
 6084TIP3    H218259   3.430   3.798   5.065
 6085TIP3   OH218260   1.540   0.856   3.811
 6085TIP3    H118261   1.482   0.792   3.854
 6085TIP3    H218262   1.627   0.834   3.844
 6086TIP3   OH218263   4.146   4.627   3.088
 6086TIP3    H118264   4.217   4.681   3.053
 6086TIP3    H218265   4.142   4.649   3.181
 6087TIP3   OH218266   1.681   3.554   2.764
 6087TIP3    H118267   1.609   3.505   2.804
 6087TIP3    H218268   1.639   3.627   2.719
 6088TIP3   OH218269   2.592   2.519   0.896
 6088TIP3    H118270   2.687   2.527   0.885
 6088TIP3    H218271   2.568   2.444   0.842
 6089TIP3   OH218272   5.067   5.664   4.612
 6089TIP3    H118273   5.107   5.657   4.525
 6089TIP3    H218274   5.077   5.756   4.636
 6090TIP3   OH218275   2.517   5.738   3.303
 6090TIP3    H118276   2.525   5.816   3.248
 6090TIP3    H218277   2.432   5.701   3.281
 6091TIP3   OH218278   2.946   5.416   4.129
 6091TIP3    H118279   2.953   5.457   4.215
 6091TIP3    H218280   2.921   5.326   4.147
 6092TIP3   OH218281   3.110   0.576   2.254
 6092TIP3    H118282   3.106   0.542   2.343
 6092TIP3    H218283   3.019   0.573   2.223
 6093TIP3   OH218284   5.339   1.905   2.665
 6093TIP3    H118285   5.411   1.842   2.669
 6093TIP3    H218286   5.358   1.957   2.587
 6094TIP3   OH218287   5.823   3.716   4.545
 6094TIP3    H118288   5.850   3.636   4.591
 6094TIP3    H218289   5.832   3.693   4.452
 6095TIP3   OH218290   3.960  -0.004   4.081
 6095TIP3    H118291   3.962   0.083   4.121
 6095TIP3    H218292   4.046  -0.042   4.100
 6096TIP3   OH218293   5.627   1.622   1.915
 6096TIP3    H118294   5.540   1.626   1.876
 6096TIP3    H218295   5.683   1.670   1.854
 6097TIP3   OH218296   1.830   2.232   4.990
 6097TIP3    H118297   1.820   2.194   4.903
 6097TIP3    H218298   1.842   2.326   4.973
 6098TIP3   OH218299   0.831   0.457   1.153
 6098TIP3    H118300   0.907   0.420   1.108
 6098TIP3    H218301   0.840   0.426   1.244
 6099TIP3   OH218302   5.064   4.196   3.994
 6099TIP3    H118303   4.994   4.231   3.938
 6099TIP3    H218304   5.045   4.233   4.080
 6100TIP3   OH218305   1.512   0.913   1.065
 6100TIP3    H118306   1.528   0.884   0.975
 6100TIP3    H218307   1.447   0.983   1.057
 6101TIP3   OH218308   4.465   0.392   2.701
 6101TIP3    H118309   4.374   0.414   2.720
 6101TIP3    H218310   4.501   0.471   2.661
 6102TIP3   OH218311   2.346   1.129   1.849
 6102TIP3    H118312   2.266   1.166   1.886
 6102TIP3    H218313   2.381   1.074   1.920
 6103TIP3   OH218314   3.718   0.477   4.048
 6103TIP3    H118315   3.711   0.530   4.128
 6103TIP3    H218316   3.769   0.401   4.074
 6104TIP3   OH218317   0.845   4.052   1.303
 6104TIP3    H118318   0.926   4.055   1.355
 6104TIP3    H218319   0.775   4.062   1.367
 6105TIP3   OH218320   3.428   1.572   2.844
 6105TIP3    H118321   3.404   1.579   2.937
 6105TIP3    H218322   3.354   1.611   2.797
 6106TIP3   OH218323   0.722   3.435   1.460
 6106TIP3    H118324   0.656   3.399   1.520
 6106TIP3    H218325   0.695   3.404   1.373
 6107TIP3   OH218326   4.840   2.857   5.078
 6107TIP3    H118327   4.830   2.797   5.004
 6107TIP3    H218328   4.844   2.944   5.038
 6108TIP3   OH218329   0.146   2.021   2.843
 6108TIP3    H118330   0.202   2.011   2.920
 6108TIP3    H218331   0.187   2.091   2.793
 6109TIP3   OH218332   6.314   5.106   2.975
 6109TIP3    H118333   6.315   5.200   2.992
 6109TIP3    H218334   6.395   5.090   2.926
 6110TIP3   OH218335   3.810   1.725   4.838
 6110TIP3    H118336   3.718   1.733   4.861
 6110TIP3    H218337   3.833   1.635   4.862
 6111TIP3   OH218338   4.266   5.519   4.128
 6111TIP3    H118339   4.180   5.549   4.099
 6111TIP3    H218340   4.249   5.441   4.180
 6112TIP3   OH218341   1.262   4.273   4.834
 6112TIP3    H118342   1.190   4.335   4.839
 6112TIP3    H218343   1.223   4.191   4.803
 6113TIP3   OH218344   1.655   1.792   0.764
 6113TIP3    H118345   1.642   1.702   0.735
 6113TIP3    H218346   1.742   1.792   0.805
 6114TIP3   OH218347   0.888   2.929   2.868
 6114TIP3    H118348   0.942   2.898   2.941
 6114TIP3    H218349   0.880   3.023   2.882
 6115TIP3   OH218350   0.865   2.737   3.735
 6115TIP3    H118351   0.853   2.830   3.716
 6115TIP3    H218352   0.937   2.735   3.798
 6116TIP3   OH218353   0.675   0.633   3.890
 6116TIP3    H118354   0.666   0.560   3.951
 6116TIP3    H218355   0.634   0.602   3.809
 6117TIP3   OH218356   0.713   2.379   4.436
 6117TIP3    H118357   0.783   2.358   4.498
 6117TIP3    H218358   0.634   2.381   4.490
 6118TIP3   OH218359   2.072   2.965   5.122
 6118TIP3    H118360   2.138   3.008   5.177
 6118TIP3    H218361   2.108   2.879   5.104
 6119TIP3   OH218362   1.658   3.997   3.864
 6119TIP3    H118363   1.652   4.035   3.776
 6119TIP3    H218364   1.687   4.070   3.919
 6120TIP3   OH218365   5.195   3.725   4.227
 6120TIP3    H118366   5.131   3.685   4.286
 6120TIP3    H218367   5.215   3.810   4.267
 6121TIP3   OH218368   2.620   3.095   4.042
 6121TIP3    H118369   2.655   3.041   4.113
 6121TIP3    H218370   2.579   3.032   3.983
 6122TIP3   OH218371   3.139   5.206   4.387
 6122TIP3    H118372   3.121   5.267   4.459
 6122TIP3    H218373   3.230   5.222   4.364
 6123TIP3   OH218374   2.913   2.575   3.029
 6123TIP3    H118375   2.997   2.598   2.988
 6123TIP3    H218376   2.937   2.520   3.103
 6124TIP3   OH218377   1.579   0.071   4.825
 6124TIP3    H118378   1.657   0.016   4.828
 6124TIP3    H218379   1.522   0.036   4.893
 6125TIP3   OH218380   1.396   1.494   2.450
 6125TIP3    H118381   1.461   1.428   2.428
 6125TIP3    H218382   1.349   1.457   2.525
 6126TIP3   OH218383   5.275   2.723   3.822
 6126TIP3    H118384   5.340   2.688   3.883
 6126TIP3    H218385   5.298   2.685   3.737
 6127TIP3   OH218386   5.384   0.758   0.530
 6127TIP3    H118387   5.356   0.745   0.440
 6127TIP3    H218388   5.355   0.846   0.552
 6128TIP3   OH218389   4.445   4.031   0.163
 6128TIP3    H118390   4.503   4.056   0.091
 6128TIP3    H218391   4.358   4.056   0.133
 6129TIP3   OH218392   3.595   0.727   3.650
 6129TIP3    H118393   3.612   0.708   3.558
 6129TIP3    H218394   3.621   0.647   3.696
 6130TIP3   OH218395   2.241   3.884   0.833
 6130TIP3    H118396   2.206   3.954   0.889
 6130TIP3    H218397   2.166   3.826   0.819
 6131TIP3   OH218398   0.721   3.138   2.360
 6131TIP3    H118399   0.705   3.101   2.448
 6131TIP3    H218400   0.642   3.189   2.342
 6132TIP3   OH218401   4.346   1.364   2.318
 6132TIP3    H118402   4.434   1.400   2.307
 6132TIP3    H218403   4.325   1.326   2.233
 6133TIP3   OH218404   6.043   4.351   1.438
 6133TIP3    H118405   6.016   4.388   1.354
 6133TIP3    H218406   6.133   4.322   1.424
 6134TIP3   OH218407   2.063   1.972   2.686
 6134TIP3    H118408   1.985   2.023   2.710
 6134TIP3    H218409   2.053   1.958   2.592
 6135TIP3   OH218410   1.008   2.267   1.332
 6135TIP3    H118411   0.991   2.277   1.426
 6135TIP3    H218412   1.043   2.178   1.324
 6136TIP3   OH218413   5.529   0.713   4.601
 6136TIP3    H118414   5.575   0.796   4.583
 6136TIP3    H218415   5.599   0.650   4.615
 6137TIP3   OH218416   3.182   0.572   1.142
 6137TIP3    H118417   3.122   0.559   1.216
 6137TIP3    H218418   3.165   0.661   1.113
 6138TIP3   OH218419   2.472   4.888   0.999
 6138TIP3    H118420   2.557   4.851   0.974
 6138TIP3    H218421   2.420   4.886   0.919
 6139TIP3   OH218422   6.113   5.851   0.986
 6139TIP3    H118423   6.052   5.778   0.971
 6139TIP3    H218424   6.089   5.885   1.072
 6140TIP3   OH218425   5.906   4.303   2.693
 6140TIP3    H118426   5.897   4.358   2.770
 6140TIP3    H218427   5.818   4.302   2.654
 6141TIP3   OH218428   3.385   2.901   3.279
 6141TIP3    H118429   3.292   2.919   3.291
 6141TIP3    H218430   3.390   2.857   3.193
 6142TIP3   OH218431   5.491   0.512   1.609
 6142TIP3    H118432   5.409   0.561   1.614
 6142TIP3    H218433   5.544   0.547   1.680
 6143TIP3   OH218434   2.660   4.222   3.229
 6143TIP3    H118435   2.724   4.292   3.239
 6143TIP3    H218436   2.634   4.225   3.137
 6144TIP3   OH218437   6.090   2.017   0.072
 6144TIP3    H118438   6.073   2.110   0.052
 6144TIP3    H218439   6.182   2.004   0.050
 6145TIP3   OH218440   5.583   0.381   3.618
 6145TIP3    H118441   5.664   0.433   3.619
 6145TIP3    H218442   5.541   0.400   3.702
 6146TIP3   OH218443   5.209   2.930   0.314
 6146TIP3    H118444   5.204   2.835   0.320
 6146TIP3    H218445   5.302   2.950   0.329
 6147TIP3   OH218446   2.977   4.225   3.876
 6147TIP3    H118447   2.977   4.159   3.945
 6147TIP3    H218448   3.001   4.307   3.921
 6148TIP3   OH218449   5.780   4.504   4.246
 6148TIP3    H118450   5.812   4.556   4.319
 6148TIP3    H218451   5.687   4.492   4.264
 6149TIP3   OH218452   4.561   4.857   1.625
 6149TIP3    H118453   4.495   4.828   1.562
 6149TIP3    H218454   4.511   4.878   1.704
 6150TIP3   OH218455   6.147   2.988   4.115
 6150TIP3    H118456   6.177   3.073   4.083
 6150TIP3    H218457   6.204   2.925   4.072
 6151TIP3   OH218458   5.643   0.366   3.157
 6151TIP3    H118459   5.687   0.356   3.072
 6151TIP3    H218460   5.696   0.314   3.217
 6152TIP3   OH218461   2.985   2.241   1.782
 6152TIP3    H118462   2.939   2.174   1.731
 6152TIP3    H218463   3.024   2.298   1.716
 6153TIP3   OH218464   2.019   1.420   2.492
 6153TIP3    H118465   2.115   1.413   2.495
 6153TIP3    H218466   2.001   1.510   2.519
 6154TIP3   OH218467   3.905   4.282   0.242
 6154TIP3    H118468   3.830   4.336   0.218
 6154TIP3    H218469   3.910   4.216   0.173
 6155TIP3   OH218470   2.291   2.878   0.217
 6155TIP3    H118471   2.254   2.826   0.288
 6155TIP3    H218472   2.261   2.967   0.234
 6156TIP3   OH218473   3.694   2.621   1.656
 6156TIP3    H118474   3.701   2.623   1.751
 6156TIP3    H218475   3.780   2.651   1.626
 6157TIP3   OH218476   3.647   1.893   2.346
 6157TIP3    H118477   3.563   1.938   2.347
 6157TIP3    H218478   3.679   1.900   2.436
 6158TIP3   OH218479   4.383   3.097   4.015
 6158TIP3    H118480   4.396   3.080   4.108
 6158TIP3    H218481   4.402   3.014   3.972
 6159TIP3   OH218482   5.048   3.246   0.873
 6159TIP3    H118483   4.978   3.187   0.899
 6159TIP3    H218484   5.034   3.260   0.779
 6160TIP3   OH218485   1.694   2.684   0.389
 6160TIP3    H118486   1.630   2.638   0.335
 6160TIP3    H218487   1.749   2.615   0.426
 6161TIP3   OH218488   6.286   1.438   3.087
 6161TIP3    H118489   6.236   1.452   3.168
 6161TIP3    H218490   6.343   1.364   3.107
 6162TIP3   OH218491   3.084   5.479   2.759
 6162TIP3    H118492   3.157   5.471   2.698
 6162TIP3    H218493   3.115   5.541   2.825
 6163TIP3   OH218494   4.668   1.691   4.915
 6163TIP3    H118495   4.608   1.754   4.955
 6163TIP3    H218496   4.656   1.702   4.821
 6164TIP3   OH218497   0.660   5.759   2.838
 6164TIP3    H118498   0.582   5.747   2.892
 6164TIP3    H218499   0.669   5.677   2.790
 6165TIP3   OH218500   0.974   3.378   4.107
 6165TIP3    H118501   0.896   3.352   4.156
 6165TIP3    H218502   0.942   3.398   4.019
 6166TIP3   OH218503   2.732   5.931   2.313
 6166TIP3    H118504   2.717   5.911   2.406
 6166TIP3    H218505   2.647   5.919   2.271
 6167TIP3   OH218506   4.765   3.860   3.447
 6167TIP3    H118507   4.771   3.946   3.407
 6167TIP3    H218508   4.701   3.813   3.394
 6168TIP3   OH218509   4.341   2.714   0.723
 6168TIP3    H118510   4.405   2.775   0.687
 6168TIP3    H218511   4.256   2.756   0.707
 6169TIP3   OH218512   2.229   0.597   4.664
 6169TIP3    H118513   2.155   0.559   4.711
 6169TIP3    H218514   2.265   0.662   4.724
 6170TIP3   OH218515   4.480   0.156   1.508
 6170TIP3    H118516   4.534   0.216   1.456
 6170TIP3    H218517   4.520   0.159   1.595
 6171TIP3   OH218518   3.643   5.661   3.374
 6171TIP3    H118519   3.584   5.700   3.309
 6171TIP3    H218520   3.664   5.734   3.433
 6172TIP3   OH218521   3.964   5.870   2.867
 6172TIP3    H118522   3.914   5.948   2.892
 6172TIP3    H218523   4.023   5.856   2.941
 6173TIP3   OH218524   5.976   1.983   2.001
 6173TIP3    H118525   5.908   2.045   2.028
 6173TIP3    H218526   5.941   1.897   2.026
 6174TIP3   OH218527   4.386   0.631   3.555
 6174TIP3    H118528   4.370   0.621   3.649
 6174TIP3    H218529   4.371   0.544   3.519
 6175TIP3   OH218530   2.995   1.220   2.401
 6175TIP3    H118531   3.082   1.229   2.363
 6175TIP3    H218532   2.936   1.212   2.326
 6176TIP3   OH218533   2.861   0.055   4.209
 6176TIP3    H118534   2.821   0.139   4.232
 6176TIP3    H218535   2.943   0.079   4.165
 6177TIP3   OH218536   5.021   4.698   0.197
 6177TIP3    H118537   5.054   4.614   0.229
 6177TIP3    H218538   4.996   4.680   0.106
 6178TIP3   OH218539   6.091   1.535   4.631
 6178TIP3    H118540   6.031   1.466   4.658
 6178TIP3    H218541   6.088   1.534   4.535
 6179TIP3   OH218542   3.999   1.903   4.739
 6179TIP3    H118543   3.960   1.827   4.782
 6179TIP3    H218544   3.965   1.979   4.787
 6180TIP3   OH218545   3.848   2.030   5.108
 6180TIP3    H118546   3.875   2.062   5.022
 6180TIP3    H218547   3.758   1.999   5.094
 6181TIP3   OH218548   2.336   1.851   4.825
 6181TIP3    H118549   2.330   1.946   4.819
 6181TIP3    H218550   2.322   1.820   4.736
 6182TIP3   OH218551   1.730   3.817   1.492
 6182TIP3    H118552   1.674   3.890   1.464
 6182TIP3    H218553   1.814   3.835   1.451
 6183TIP3   OH218554   1.988   4.416   4.586
 6183TIP3    H118555   1.957   4.472   4.658
 6183TIP3    H218556   2.018   4.336   4.630
 6184TIP3   OH218557   3.721   3.650   3.780
 6184TIP3    H118558   3.781   3.686   3.845
 6184TIP3    H218559   3.764   3.570   3.750
 6185TIP3   OH218560   3.761   2.126   2.156
 6185TIP3    H118561   3.772   2.219   2.173
 6185TIP3    H218562   3.724   2.091   2.237
 6186TIP3   OH218563   5.721   4.983   1.111
 6186TIP3    H118564   5.680   4.898   1.093
 6186TIP3    H218565   5.791   4.963   1.174
 6187TIP3   OH218566   2.400   2.548   0.650
 6187TIP3    H118567   2.442   2.625   0.688
 6187TIP3    H218568   2.318   2.539   0.699
 6188TIP3   OH218569   0.254   5.918   2.820
 6188TIP3    H118570   0.199   5.929   2.742
 6188TIP3    H218571   0.194   5.884   2.886
 6189TIP3   OH218572   3.398   1.335   0.607
 6189TIP3    H118573   3.390   1.388   0.687
 6189TIP3    H218574   3.474   1.279   0.623
 6190TIP3   OH218575   2.160   5.943   3.143
 6190TIP3    H118576   2.151   5.849   3.129
 6190TIP3    H218577   2.099   5.983   3.081
 6191TIP3   OH218578   1.660   1.603   3.785
 6191TIP3    H118579   1.704   1.594   3.870
 6191TIP3    H218580   1.671   1.518   3.743
 6192TIP3   OH218581   2.858   5.742   4.786
 6192TIP3    H118582   2.899   5.827   4.797
 6192TIP3    H218583   2.833   5.739   4.693
 6193TIP3   OH218584   5.956   1.793   4.774
 6193TIP3    H118585   5.993   1.740   4.703
 6193TIP3    H218586   5.916   1.729   4.833
 6194TIP3   OH218587   1.805   1.907   0.154
 6194TIP3    H118588   1.714   1.923   0.179
 6194TIP3    H218589   1.803   1.821   0.112
 6195TIP3   OH218590   2.661   4.913   0.159
 6195TIP3    H118591   2.717   4.839   0.183
 6195TIP3    H218592   2.584   4.904   0.216
 6196TIP3   OH218593   1.559   0.601   1.180
 6196TIP3    H118594   1.650   0.625   1.200
 6196TIP3    H218595   1.548   0.624   1.088
 6197TIP3   OH218596   0.744   5.451   3.749
 6197TIP3    H118597   0.763   5.419   3.837
 6197TIP3    H218598   0.829   5.457   3.706
 6198TIP3   OH218599   4.617   1.391   2.277
 6198TIP3    H118600   4.642   1.387   2.185
 6198TIP3    H218601   4.678   1.453   2.316
 6199TIP3   OH218602   4.260   3.874   4.407
 6199TIP3    H118603   4.203   3.928   4.461
 6199TIP3    H218604   4.240   3.900   4.317
 6200TIP3   OH218605   0.438   0.055   4.345
 6200TIP3    H118606   0.351   0.031   4.378
 6200TIP3    H218607   0.448   0.147   4.370
 6201TIP3   OH218608   0.606   4.259   2.667
 6201TIP3    H118609   0.632   4.342   2.626
 6201TIP3    H218610   0.599   4.279   2.760
 6202TIP3   OH218611   3.422   0.496   3.981
 6202TIP3    H118612   3.394   0.407   4.004
 6202TIP3    H218613   3.500   0.511   4.035
 6203TIP3   OH218614   5.483   2.112   0.959
 6203TIP3    H118615   5.424   2.157   1.020
 6203TIP3    H218616   5.432   2.036   0.929
 6204TIP3   OH218617   4.711   4.515   2.369
 6204TIP3    H118618   4.659   4.481   2.296
 6204TIP3    H218619   4.802   4.499   2.344
 6205TIP3   OH218620   1.702   5.029   2.829
 6205TIP3    H118621   1.677   4.984   2.910
 6205TIP3    H218622   1.739   4.960   2.774
 6206TIP3   OH218623   2.219   2.467   1.970
 6206TIP3    H118624   2.231   2.483   2.063
 6206TIP3    H218625   2.164   2.389   1.966
 6207TIP3   OH218626   4.645   4.094   1.553
 6207TIP3    H118627   4.625   4.186   1.565
 6207TIP3    H218628   4.571   4.059   1.504
 6208TIP3   OH218629   5.587   1.414   0.221
 6208TIP3    H118630   5.596   1.509   0.222
 6208TIP3    H218631   5.513   1.397   0.163
 6209TIP3   OH218632   3.689   3.010   0.071
 6209TIP3    H118633   3.641   3.064   0.134
 6209TIP3    H218634   3.753   3.070   0.033
 6210TIP3   OH218635   6.064   0.893   0.058
 6210TIP3    H118636   6.004   0.919   0.127
 6210TIP3    H218637   6.056   0.961  -0.008
 6211TIP3   OH218638   0.504   0.476  -0.041
 6211TIP3    H118639   0.566   0.517   0.019
 6211TIP3    H218640   0.532   0.385  -0.045
 6212TIP3   OH218641   5.651   5.693   4.819
 6212TIP3    H118642   5.683   5.743   4.894
 6212TIP3    H218643   5.569   5.736   4.794
 6213TIP3   OH218644   2.641   3.813   0.542
 6213TIP3    H118645   2.559   3.785   0.500
 6213TIP3    H218646   2.695   3.734   0.541
 6214TIP3   OH218647   1.460   1.562   0.574
 6214TIP3    H118648   1.524   1.576   0.645
 6214TIP3    H218649   1.507   1.589   0.495
 6215TIP3   OH218650   4.030   1.918   3.322
 6215TIP3    H118651   3.937   1.933   3.309
 6215TIP3    H218652   4.038   1.897   3.415
 6216TIP3   OH218653   1.023   4.575   3.464
 6216TIP3    H118654   1.020   4.600   3.371
 6216TIP3    H218655   1.116   4.560   3.481
 6217TIP3   OH218656   1.756   4.364   1.677
 6217TIP3    H118657   1.786   4.280   1.712
 6217TIP3    H218658   1.836   4.411   1.654
 6218TIP3   OH218659   4.688   1.411   1.341
 6218TIP3    H118660   4.626   1.377   1.406
 6218TIP3    H218661   4.646   1.491   1.307
 6219TIP3   OH218662   4.387   3.144   1.987
 6219TIP3    H118663   4.388   3.165   2.080
 6219TIP3    H218664   4.352   3.055   1.983
 6220TIP3   OH218665   0.248   3.984   1.038
 6220TIP3    H118666   0.293   4.064   1.064
 6220TIP3    H218667   0.248   3.986   0.943
 6221TIP3   OH218668   5.614   2.341   4.462
 6221TIP3    H118669   5.637   2.311   4.550
 6221TIP3    H218670   5.536   2.290   4.440
 6222TIP3   OH218671   2.191   3.986   3.627
 6222TIP3    H118672   2.278   3.991   3.666
 6222TIP3    H218673   2.131   4.000   3.701
 6223TIP3   OH218674   5.322   4.340   1.101
 6223TIP3    H118675   5.316   4.259   1.151
 6223TIP3    H218676   5.240   4.385   1.118
 6224TIP3   OH218677   1.010   1.910   1.141
 6224TIP3    H118678   0.989   1.820   1.169
 6224TIP3    H218679   1.054   1.948   1.216
 6225TIP3   OH218680   2.835   4.032   4.792
 6225TIP3    H118681   2.926   4.010   4.769
 6225TIP3    H218682   2.824   3.997   4.880
 6226TIP3   OH218683   3.547   5.374   4.414
 6226TIP3    H118684   3.499   5.447   4.454
 6226TIP3    H218685   3.491   5.346   4.341
 6227TIP3   OH218686   5.295   0.199   3.803
 6227TIP3    H118687   5.255   0.119   3.837
 6227TIP3    H218688   5.263   0.268   3.861
 6228TIP3   OH218689   5.088   4.402   2.062
 6228TIP3    H118690   5.048   4.483   2.031
 6228TIP3    H218691   5.160   4.430   2.118
 6229TIP3   OH218692   5.105   2.936   1.884
 6229TIP3    H118693   5.085   3.027   1.906
 6229TIP3    H218694   5.025   2.888   1.907
 6230TIP3   OH218695   4.839   2.503   3.364
 6230TIP3    H118696   4.802   2.420   3.331
 6230TIP3    H218697   4.763   2.560   3.375
 6231TIP3   OH218698   5.966   3.635   0.650
 6231TIP3    H118699   5.898   3.658   0.714
 6231TIP3    H218700   5.923   3.574   0.590
 6232TIP3   OH218701   2.587   5.569   1.118
 6232TIP3    H118702   2.616   5.572   1.027
 6232TIP3    H218703   2.661   5.603   1.168
 6233TIP3   OH218704   0.789   1.186   2.377
 6233TIP3    H118705   0.836   1.266   2.352
 6233TIP3    H218706   0.827   1.118   2.321
 6234TIP3   OH218707   0.917   2.993   3.265
 6234TIP3    H118708   0.991   3.050   3.242
 6234TIP3    H218709   0.912   2.930   3.193
 6235TIP3   OH218710   0.219   3.306   2.096
 6235TIP3    H118711   0.187   3.263   2.175
 6235TIP3    H218712   0.141   3.346   2.057
 6236TIP3   OH218713   2.003   2.716   0.554
 6236TIP3    H118714   2.011   2.706   0.649
 6236TIP3    H218715   1.934   2.654   0.530
 6237TIP3   OH218716   2.561   1.470   1.701
 6237TIP3    H118717   2.476   1.513   1.706
 6237TIP3    H218718   2.594   1.472   1.791
 6238TIP3   OH218719   6.213   1.996   4.019
 6238TIP3    H118720   6.206   1.979   4.112
 6238TIP3    H218721   6.260   2.079   4.013
 6239TIP3   OH218722   3.318   4.446   2.427
 6239TIP3    H118723   3.297   4.538   2.407
 6239TIP3    H218724   3.256   4.422   2.496
 6240TIP3   OH218725   4.630   2.175   0.345
 6240TIP3    H118726   4.592   2.253   0.386
 6240TIP3    H218727   4.699   2.147   0.405
 6241TIP3   OH218728   5.684   0.997   3.865
 6241TIP3    H118729   5.753   1.047   3.909
 6241TIP3    H218730   5.635   0.956   3.936
 6242TIP3   OH218731   1.083   3.576   1.278
 6242TIP3    H118732   1.021   3.648   1.264
 6242TIP3    H218733   1.040   3.520   1.343
 6243TIP3   OH218734   3.363   0.268   2.409
 6243TIP3    H118735   3.447   0.285   2.453
 6243TIP3    H218736   3.362   0.329   2.335
 6244TIP3   OH218737   2.709   5.543   0.879
 6244TIP3    H118738   2.671   5.617   0.832
 6244TIP3    H218739   2.804   5.555   0.869
 6245TIP3   OH218740   4.299   0.218   0.458
 6245TIP3    H118741   4.263   0.134   0.484
 6245TIP3    H218742   4.242   0.248   0.388
 6246TIP3   OH218743   4.004   3.576   0.727
 6246TIP3    H118744   3.986   3.659   0.682
 6246TIP3    H218745   4.092   3.587   0.764
 6247TIP3   OH218746   1.006   1.022   4.354
 6247TIP3    H118747   1.013   1.117   4.346
 6247TIP3    H218748   1.000   1.006   4.448
 6248TIP3   OH218749   2.192   2.175   2.932
 6248TIP3    H118750   2.097   2.158   2.931
 6248TIP3    H218751   2.220   2.155   3.021
 6249TIP3   OH218752   2.549   2.081   3.583
 6249TIP3    H118753   2.470   2.077   3.638
 6249TIP3    H218754   2.621   2.077   3.645
 6250TIP3   OH218755   1.351   3.560   5.050
 6250TIP3    H118756   1.388   3.473   5.035
 6250TIP3    H218757   1.419   3.607   5.099
 6251TIP3   OH218758   0.015   0.450   3.570
 6251TIP3    H118759  -0.051   0.400   3.618
 6251TIP3    H218760   0.089   0.389   3.561
 6252TIP3   OH218761   0.282   0.360   1.045
 6252TIP3    H118762   0.368   0.381   1.081
 6252TIP3    H218763   0.288   0.383   0.952
 6253TIP3   OH218764   5.858   0.547   1.036
 6253TIP3    H118765   5.800   0.585   1.102
 6253TIP3    H218766   5.808   0.552   0.955
 6254TIP3   OH218767   1.313  -0.032   3.985
 6254TIP3    H118768   1.401  -0.026   3.948
 6254TIP3    H218769   1.287   0.059   3.999
 6255TIP3   OH218770   4.705   3.243   0.396
 6255TIP3    H118771   4.763   3.309   0.434
 6255TIP3    H218772   4.731   3.237   0.304
 6256TIP3   OH218773   5.533   0.993   3.556
 6256TIP3    H118774   5.564   1.078   3.588
 6256TIP3    H218775   5.484   0.956   3.630
 6257TIP3   OH218776   2.121   5.377   2.233
 6257TIP3    H118777   2.093   5.381   2.142
 6257TIP3    H218778   2.055   5.427   2.281
 6258TIP3   OH218779   1.161   0.650   4.362
 6258TIP3    H118780   1.094   0.710   4.329
 6258TIP3    H218781   1.237   0.706   4.378
 6259TIP3   OH218782   2.810   2.986   4.904
 6259TIP3    H118783   2.788   2.895   4.923
 6259TIP3    H218784   2.739   3.017   4.847
 6260TIP3   OH218785   5.441   5.451   0.606
 6260TIP3    H118786   5.412   5.467   0.696
 6260TIP3    H218787   5.534   5.430   0.614
 6261TIP3   OH218788   4.414   3.314   4.566
 6261TIP3    H118789   4.358   3.375   4.518
 6261TIP3    H218790   4.407   3.342   4.657
 6262TIP3   OH218791   2.095   2.776   2.125
 6262TIP3    H118792   2.051   2.691   2.127
 6262TIP3    H218793   2.129   2.784   2.036
 6263TIP3   OH218794   1.397   1.508   4.856
 6263TIP3    H118795   1.324   1.446   4.855
 6263TIP3    H218796   1.370   1.575   4.919
 6264TIP3   OH218797   0.334   0.134   4.892
 6264TIP3    H118798   0.343   0.223   4.928
 6264TIP3    H218799   0.340   0.146   4.797
 6265TIP3   OH218800   2.663   1.384   3.287
 6265TIP3    H118801   2.571   1.384   3.259
 6265TIP3    H218802   2.675   1.299   3.329
 6266TIP3   OH218803   3.359   3.026   0.847
 6266TIP3    H118804   3.399   3.104   0.808
 6266TIP3    H218805   3.336   3.053   0.936
 6267TIP3   OH218806   4.915   1.006   5.078
 6267TIP3    H118807   4.890   1.077   5.137
 6267TIP3    H218808   4.853   0.936   5.098
 6268TIP3   OH218809   5.892   1.260   2.984
 6268TIP3    H118810   5.960   1.213   2.935
 6268TIP3    H218811   5.827   1.193   3.005
 6269TIP3   OH218812   0.283   0.425   4.898
 6269TIP3    H118813   0.194   0.457   4.889
 6269TIP3    H218814   0.334   0.477   4.836
 6270TIP3   OH218815   1.992   0.178   1.503
 6270TIP3    H118816   1.953   0.135   1.579
 6270TIP3    H218817   1.930   0.163   1.432
 6271TIP3   OH218818   2.837   5.317   4.811
 6271TIP3    H118819   2.889   5.390   4.847
 6271TIP3    H218820   2.805   5.270   4.888
 6272TIP3   OH218821   5.157   3.103   2.700
 6272TIP3    H118822   5.218   3.032   2.686
 6272TIP3    H218823   5.197   3.179   2.657
 6273TIP3   OH218824   1.064   2.988   0.367
 6273TIP3    H118825   1.091   3.040   0.443
 6273TIP3    H218826   1.031   2.906   0.403
 6274TIP3   OH218827   0.482   3.916   2.695
 6274TIP3    H118828   0.491   3.995   2.642
 6274TIP3    H218829   0.567   3.872   2.687
 6275TIP3   OH218830   0.265   0.846   1.171
 6275TIP3    H118831   0.195   0.837   1.236
 6275TIP3    H218832   0.309   0.928   1.194
 6276TIP3   OH218833   5.960   4.352   4.110
 6276TIP3    H118834   5.896   4.390   4.169
 6276TIP3    H218835   6.043   4.391   4.137
 6277TIP3   OH218836   2.368   0.079   3.770
 6277TIP3    H118837   2.355   0.059   3.863
 6277TIP3    H218838   2.444   0.136   3.767
 6278TIP3   OH218839   5.396   5.261   2.397
 6278TIP3    H118840   5.477   5.295   2.435
 6278TIP3    H218841   5.379   5.318   2.321
 6279TIP3   OH218842   5.014   5.141   0.695
 6279TIP3    H118843   5.042   5.096   0.615
 6279TIP3    H218844   4.925   5.110   0.710
 6280TIP3   OH218845   3.243   4.605   3.999
 6280TIP3    H118846   3.279   4.694   4.000
 6280TIP3    H218847   3.317   4.549   4.023
 6281TIP3   OH218848   5.435   5.658   0.124
 6281TIP3    H118849   5.413   5.578   0.171
 6281TIP3    H218850   5.391   5.650   0.039
 6282TIP3   OH218851   0.714   4.370   0.371
 6282TIP3    H118852   0.783   4.433   0.390
 6282TIP3    H218853   0.759   4.286   0.360
 6283TIP3   OH218854   4.067   1.923   1.401
 6283TIP3    H118855   4.009   1.981   1.450
 6283TIP3    H218856   4.138   1.902   1.461
 6284TIP3   OH218857   2.889   3.087   4.547
 6284TIP3    H118858   2.966   3.045   4.586
 6284TIP3    H218859   2.908   3.090   4.453
 6285TIP3   OH218860   3.490   2.037   0.668
 6285TIP3    H118861   3.488   2.133   0.667
 6285TIP3    H218862   3.483   2.014   0.761
 6286TIP3   OH218863   5.612   3.271   0.414
 6286TIP3    H118864   5.601   3.363   0.435
 6286TIP3    H218865   5.552   3.255   0.342
 6287TIP3   OH218866   0.311   5.646   0.900
 6287TIP3    H118867   0.359   5.624   0.820
 6287TIP3    H218868   0.337   5.579   0.962
 6288TIP3   OH218869   0.127   2.251   2.345
 6288TIP3    H118870   0.112   2.179   2.284
 6288TIP3    H218871   0.138   2.328   2.289
 6289TIP3   OH218872   3.976   2.034   2.731
 6289TIP3    H118873   3.980   2.096   2.804
 6289TIP3    H218874   4.035   1.964   2.756
 6290TIP3   OH218875   5.579   0.204   5.144
 6290TIP3    H118876   5.534   0.156   5.213
 6290TIP3    H218877   5.532   0.287   5.137
 6291TIP3   OH218878   5.566   1.655   0.481
 6291TIP3    H118879   5.656   1.659   0.449
 6291TIP3    H218880   5.552   1.738   0.526
 6292TIP3   OH218881   1.707   0.096   0.530
 6292TIP3    H118882   1.730   0.048   0.609
 6292TIP3    H218883   1.759   0.056   0.461
 6293TIP3   OH218884   4.590   4.387   3.428
 6293TIP3    H118885   4.616   4.468   3.383
 6293TIP3    H218886   4.504   4.407   3.464
 6294TIP3   OH218887   3.137   4.734   3.468
 6294TIP3    H118888   3.088   4.758   3.547
 6294TIP3    H218889   3.132   4.638   3.465
 6295TIP3   OH218890   5.802   2.571   0.375
 6295TIP3    H118891   5.752   2.652   0.383
 6295TIP3    H218892   5.821   2.545   0.465
 6296TIP3   OH218893   4.899   2.220   2.653
 6296TIP3    H118894   4.978   2.240   2.704
 6296TIP3    H218895   4.840   2.178   2.716
 6297TIP3   OH218896   4.580   2.710   1.582
 6297TIP3    H118897   4.588   2.676   1.672
 6297TIP3    H218898   4.638   2.786   1.580
 6298TIP3   OH218899   2.141   2.358   2.487
 6298TIP3    H118900   2.197   2.282   2.470
 6298TIP3    H218901   2.128   2.358   2.581
 6299TIP3   OH218902   3.784   1.589   1.090
 6299TIP3    H118903   3.730   1.596   1.168
 6299TIP3    H218904   3.849   1.523   1.111
 6300TIP3   OH218905   4.525   3.603   4.582
 6300TIP3    H118906   4.594   3.572   4.640
 6300TIP3    H218907   4.452   3.625   4.641
 6301TIP3   OH218908   0.282   0.080   1.447
 6301TIP3    H118909   0.216   0.099   1.380
 6301TIP3    H218910   0.339   0.014   1.405
 6302TIP3   OH218911   2.936   4.001   0.149
 6302TIP3    H118912   2.843   3.984   0.135
 6302TIP3    H218913   2.978   3.916   0.138
 6303TIP3   OH218914   1.549   0.986   3.494
 6303TIP3    H118915   1.471   1.005   3.547
 6303TIP3    H218916   1.623   1.009   3.551
 6304TIP3   OH218917   5.595   5.402   3.849
 6304TIP3    H118918   5.517   5.353   3.875
 6304TIP3    H218919   5.579   5.491   3.878
 6305TIP3   OH218920   6.292   0.024   2.487
 6305TIP3    H118921   6.332   0.057   2.407
 6305TIP3    H218922   6.356  -0.038   2.522
 6306TIP3   OH218923   5.417   3.900   1.601
 6306TIP3    H118924   5.396   3.990   1.625
 6306TIP3    H218925   5.491   3.876   1.658
 6307TIP3   OH218926   1.067   4.219   2.959
 6307TIP3    H118927   1.039   4.183   2.875
 6307TIP3    H218928   1.050   4.313   2.952
 6308TIP3   OH218929   3.657   4.733   0.361
 6308TIP3    H118930   3.713   4.658   0.384
 6308TIP3    H218931   3.637   4.774   0.445
 6309TIP3   OH218932   3.903   6.010   1.626
 6309TIP3    H118933   3.873   6.008   1.717
 6309TIP3    H218934   3.833   5.966   1.577
 6310TIP3   OH218935   3.489   2.174   0.430
 6310TIP3    H118936   3.487   2.252   0.374
 6310TIP3    H218937   3.397   2.146   0.435
 6311TIP3   OH218938   1.331   5.623   0.580
 6311TIP3    H118939   1.380   5.564   0.524
 6311TIP3    H218940   1.356   5.711   0.552
 6312TIP3   OH218941   3.644   4.370   2.942
 6312TIP3    H118942   3.602   4.323   3.015
 6312TIP3    H218943   3.734   4.339   2.943
 6313TIP3   OH218944   3.565   0.054   4.669
 6313TIP3    H118945   3.575   0.149   4.658
 6313TIP3    H218946   3.654   0.022   4.682
 6314TIP3   OH218947   2.012   0.515   4.835
 6314TIP3    H118948   1.962   0.442   4.796
 6314TIP3    H218949   2.083   0.472   4.882
 6315TIP3   OH218950   3.456   3.555   3.812
 6315TIP3    H118951   3.453   3.522   3.902
 6315TIP3    H218952   3.538   3.603   3.807
 6316TIP3   OH218953   2.693   0.535   5.107
 6316TIP3    H118954   2.605   0.517   5.140
 6316TIP3    H218955   2.693   0.500   5.018
 6317TIP3   OH218956   5.268   0.968   4.159
 6317TIP3    H118957   5.196   0.987   4.219
 6317TIP3    H218958   5.339   1.026   4.188
 6318TIP3   OH218959   6.102   5.127   2.114
 6318TIP3    H118960   6.013   5.156   2.097
 6318TIP3    H218961   6.117   5.058   2.050
 6319TIP3   OH218962   5.134   0.162   3.262
 6319TIP3    H118963   5.101   0.126   3.180
 6319TIP3    H218964   5.206   0.219   3.236
 6320TIP3   OH218965   4.814   3.761   2.667
 6320TIP3    H118966   4.786   3.693   2.729
 6320TIP3    H218967   4.758   3.748   2.591
 6321TIP3   OH218968   0.454   0.403   3.720
 6321TIP3    H118969   0.360   0.388   3.709
 6321TIP3    H218970   0.492   0.316   3.721
 6322TIP3   OH218971   2.895   4.335   2.268
 6322TIP3    H118972   2.834   4.400   2.303
 6322TIP3    H218973   2.982   4.371   2.289
 6323TIP3   OH218974   3.058   0.302   1.555
 6323TIP3    H118975   3.136   0.349   1.587
 6323TIP3    H218976   2.984   0.357   1.581
 6324TIP3   OH218977   2.978   4.998   1.049
 6324TIP3    H118978   2.965   4.972   1.141
 6324TIP3    H218979   2.892   5.025   1.019
 6325TIP3   OH218980   3.412   5.714   4.816
 6325TIP3    H118981   3.374   5.733   4.902
 6325TIP3    H218982   3.392   5.622   4.801
 6326TIP3   OH218983   0.865   0.971   3.346
 6326TIP3    H118984   0.957   0.996   3.341
 6326TIP3    H218985   0.822   1.025   3.279
 6327TIP3   OH218986   5.895   5.444   3.212
 6327TIP3    H118987   5.947   5.522   3.230
 6327TIP3    H218988   5.931   5.377   3.269
 6328TIP3   OH218989   6.172   3.321   2.432
 6328TIP3    H118990   6.151   3.372   2.510
 6328TIP3    H218991   6.098   3.263   2.419
 6329TIP3   OH218992   5.335   1.883   2.201
 6329TIP3    H118993   5.369   1.797   2.177
 6329TIP3    H218994   5.243   1.881   2.173
 6330TIP3   OH218995   2.731   4.060   5.043
 6330TIP3    H118996   2.766   4.058   5.132
 6330TIP3    H218997   2.690   4.147   5.037
 6331TIP3   OH218998   1.408   3.400   0.313
 6331TIP3    H118999   1.357   3.329   0.352
 6331TIP3    H219000   1.356   3.479   0.328
 6332TIP3   OH219001   5.635   5.801   0.301
 6332TIP3    H119002   5.717   5.759   0.278
 6332TIP3    H219003   5.570   5.761   0.242
 6333TIP3   OH219004   2.086   2.388   0.614
 6333TIP3    H119005   2.126   2.411   0.698
 6333TIP3    H219006   2.154   2.407   0.549
 6334TIP3   OH219007   0.645   1.818   2.506
 6334TIP3    H119008   0.735   1.803   2.534
 6334TIP3    H219009   0.653   1.874   2.429
 6335TIP3   OH219010   5.655   2.354   0.891
 6335TIP3    H119011   5.667   2.397   0.975
 6335TIP3    H219012   5.635   2.263   0.913
 6336TIP3   OH219013   5.364   2.819   3.350
 6336TIP3    H119014   5.386   2.812   3.257
 6336TIP3    H219015   5.286   2.765   3.361
 6337TIP3   OH219016   6.011   3.673   2.966
 6337TIP3    H119017   6.069   3.600   2.989
 6337TIP3    H219018   5.939   3.633   2.918
 6338TIP3   OH219019   0.331   2.147   0.928
 6338TIP3    H119020   0.308   2.230   0.886
 6338TIP3    H219021   0.425   2.138   0.914
 6339TIP3   OH219022   4.055   1.079   0.144
 6339TIP3    H119023   4.055   1.175   0.154
 6339TIP3    H219024   4.023   1.047   0.229
 6340TIP3   OH219025   4.154   5.354   2.353
 6340TIP3    H119026   4.182   5.305   2.276
 6340TIP3    H219027   4.060   5.336   2.360
 6341TIP3   OH219028   4.783   3.853   0.221
 6341TIP3    H119029   4.757   3.883   0.133
 6341TIP3    H219030   4.725   3.901   0.280
 6342TIP3   OH219031   3.712   2.389   4.598
 6342TIP3    H119032   3.728   2.450   4.526
 6342TIP3    H219033   3.796   2.384   4.644
 6343TIP3   OH219034   4.458   2.698   5.149
 6343TIP3    H119035   4.538   2.729   5.191
 6343TIP3    H219036   4.487   2.626   5.092
 6344TIP3   OH219037   3.222   4.639   4.733
 6344TIP3    H119038   3.243   4.594   4.815
 6344TIP3    H219039   3.133   4.610   4.712
 6345TIP3   OH219040   4.011   3.808   1.006
 6345TIP3    H119041   3.922   3.773   0.997
 6345TIP3    H219042   4.060   3.738   1.049
 6346TIP3   OH219043   4.946   3.967   1.253
 6346TIP3    H119044   4.956   4.061   1.243
 6346TIP3    H219045   5.005   3.943   1.325
 6347TIP3   OH219046   3.415   1.636   1.258
 6347TIP3    H119047   3.469   1.698   1.307
 6347TIP3    H219048   3.469   1.559   1.247
 6348TIP3   OH219049   0.418   5.625   0.644
 6348TIP3    H119050   0.432   5.698   0.584
 6348TIP3    H219051   0.473   5.554   0.610
 6349TIP3   OH219052   6.245   2.143   4.326
 6349TIP3    H119053   6.218   2.074   4.386
 6349TIP3    H219054   6.182   2.213   4.339
 6350TIP3   OH219055   0.644   0.254   2.821
 6350TIP3    H119056   0.632   0.241   2.727
 6350TIP3    H219057   0.738   0.249   2.834
 6351TIP3   OH219058   2.414   0.165   2.995
 6351TIP3    H119059   2.460   0.211   2.925
 6351TIP3    H219060   2.341   0.122   2.951
 6352TIP3   OH219061   1.476   1.743   0.970
 6352TIP3    H119062   1.533   1.780   0.903
 6352TIP3    H219063   1.419   1.816   0.996
 6353TIP3   OH219064   1.063   3.790   2.371
 6353TIP3    H119065   1.082   3.813   2.462
 6353TIP3    H219066   1.038   3.698   2.374
 6354TIP3   OH219067   1.676   5.839   3.497
 6354TIP3    H119068   1.629   5.795   3.426
 6354TIP3    H219069   1.745   5.889   3.452
 6355TIP3   OH219070   3.051   3.205   0.951
 6355TIP3    H119071   2.985   3.181   1.016
 6355TIP3    H219072   3.035   3.297   0.932
 6356TIP3   OH219073   4.667   5.626   0.293
 6356TIP3    H119074   4.577   5.595   0.289
 6356TIP3    H219075   4.660   5.720   0.309
 6357TIP3   OH219076   5.227   5.006   3.909
 6357TIP3    H119077   5.159   5.070   3.887
 6357TIP3    H219078   5.302   5.032   3.857
 6358TIP3   OH219079   0.456   2.756   4.148
 6358TIP3    H119080   0.362   2.750   4.164
 6358TIP3    H219081   0.480   2.843   4.181
 6359TIP3   OH219082   1.576   2.572   4.849
 6359TIP3    H119083   1.484   2.591   4.870
 6359TIP3    H219084   1.571   2.501   4.785
 6360TIP3   OH219085   5.084   4.526   1.778
 6360TIP3    H119086   5.037   4.559   1.701
 6360TIP3    H219087   5.100   4.603   1.832
 6361TIP3   OH219088   3.886   5.093   1.620
 6361TIP3    H119089   3.793   5.072   1.629
 6361TIP3    H219090   3.906   5.072   1.528
 6362TIP3   OH219091   2.384   4.646   4.385
 6362TIP3    H119092   2.351   4.604   4.465
 6362TIP3    H219093   2.351   4.591   4.314
 6363TIP3   OH219094   4.255   4.808   2.628
 6363TIP3    H119095   4.328   4.865   2.654
 6363TIP3    H219096   4.254   4.740   2.695
 6364TIP3   OH219097   3.636   5.657   2.636
 6364TIP3    H119098   3.728   5.642   2.654
 6364TIP3    H219099   3.629   5.750   2.619
 6365TIP3   OH219100   2.991   4.126   2.931
 6365TIP3    H119101   2.903   4.090   2.944
 6365TIP3    H219102   3.041   4.098   3.007
 6366TIP3   OH219103   0.901   3.743   0.272
 6366TIP3    H119104   0.940   3.738   0.185
 6366TIP3    H219105   0.891   3.651   0.299
 6367TIP3   OH219106   2.317   5.403   1.979
 6367TIP3    H119107   2.225   5.428   1.979
 6367TIP3    H219108   2.337   5.382   2.070
 6368TIP3   OH219109   3.034   0.518   0.824
 6368TIP3    H119110   2.976   0.532   0.899
 6368TIP3    H219111   3.108   0.577   0.840
 6369TIP3   OH219112   2.169   5.404   3.430
 6369TIP3    H119113   2.126   5.412   3.515
 6369TIP3    H219114   2.177   5.310   3.416
 6370TIP3   OH219115   3.969   5.180   1.887
 6370TIP3    H119116   3.993   5.273   1.880
 6370TIP3    H219117   3.947   5.155   1.797
 6371TIP3   OH219118   3.694   3.723   0.596
 6371TIP3    H119119   3.706   3.732   0.501
 6371TIP3    H219120   3.615   3.774   0.615
 6372TIP3   OH219121   5.871   2.328   2.722
 6372TIP3    H119122   5.819   2.274   2.782
 6372TIP3    H219123   5.952   2.279   2.708
 6373TIP3   OH219124   0.377   5.521   4.584
 6373TIP3    H119125   0.336   5.592   4.535
 6373TIP3    H219126   0.400   5.456   4.518
 6374TIP3   OH219127   3.602   4.358   0.258
 6374TIP3    H119128   3.594   4.263   0.247
 6374TIP3    H219129   3.610   4.371   0.352
 6375TIP3   OH219130   1.135   3.017   4.865
 6375TIP3    H119131   1.145   2.999   4.771
 6375TIP3    H219132   1.088   3.100   4.868
 6376TIP3   OH219133   0.238   3.932   1.592
 6376TIP3    H119134   0.297   3.898   1.525
 6376TIP3    H219135   0.150   3.914   1.559
 6377TIP3   OH219136   0.297   2.573   2.422
 6377TIP3    H119137   0.376   2.520   2.432
 6377TIP3    H219138   0.247   2.559   2.503
 6378TIP3   OH219139   1.828   3.663   4.218
 6378TIP3    H119140   1.807   3.710   4.137
 6378TIP3    H219141   1.923   3.648   4.213
 6379TIP3   OH219142   5.341   0.822   0.934
 6379TIP3    H119143   5.285   0.755   0.974
 6379TIP3    H219144   5.280   0.885   0.897
 6380TIP3   OH219145   2.509   0.938   3.979
 6380TIP3    H119146   2.492   0.848   4.005
 6380TIP3    H219147   2.581   0.967   4.036
 6381TIP3   OH219148   0.915   5.659   2.775
 6381TIP3    H119149   0.983   5.724   2.761
 6381TIP3    H219150   0.849   5.704   2.827
 6382TIP3   OH219151   1.634   2.948   0.479
 6382TIP3    H119152   1.652   2.957   0.572
 6382TIP3    H219153   1.647   2.855   0.461
 6383TIP3   OH219154   3.324   0.007   3.765
 6383TIP3    H119155   3.377   0.039   3.838
 6383TIP3    H219156   3.243   0.057   3.770
 6384TIP3   OH219157   0.174   1.020   2.545
 6384TIP3    H119158   0.182   1.010   2.640
 6384TIP3    H219159   0.116   0.949   2.519
 6385TIP3   OH219160   3.774   1.645   3.345
 6385TIP3    H119161   3.841   1.582   3.370
 6385TIP3    H219162   3.780   1.714   3.411
 6386TIP3   OH219163   5.433   3.683   4.065
 6386TIP3    H119164   5.356   3.708   4.116
 6386TIP3    H219165   5.494   3.756   4.075
 6387TIP3   OH219166   4.046   1.873   1.827
 6387TIP3    H119167   4.006   1.840   1.908
 6387TIP3    H219168   3.975   1.917   1.782
 6388TIP3   OH219169   3.725   3.418   4.328
 6388TIP3    H119170   3.806   3.433   4.377
 6388TIP3    H219171   3.720   3.322   4.320
 6389TIP3   OH219172   4.444   5.731   2.211
 6389TIP3    H119173   4.501   5.693   2.277
 6389TIP3    H219174   4.422   5.658   2.153
 6390TIP3   OH219175   1.973   3.229   1.388
 6390TIP3    H119176   1.884   3.218   1.353
 6390TIP3    H219177   1.981   3.158   1.453
 6391TIP3   OH219178   2.722   2.206   0.090
 6391TIP3    H119179   2.705   2.112   0.100
 6391TIP3    H219180   2.807   2.220   0.132
 6392TIP3   OH219181   2.394   1.705   1.715
 6392TIP3    H119182   2.327   1.718   1.647
 6392TIP3    H219183   2.377   1.774   1.779
 6393TIP3   OH219184   5.192   1.027   0.815
 6393TIP3    H119185   5.123   1.082   0.852
 6393TIP3    H219186   5.246   1.088   0.765
 6394TIP3   OH219187   3.140   2.267   2.278
 6394TIP3    H119188   3.054   2.229   2.260
 6394TIP3    H219189   3.157   2.246   2.370
 6395TIP3   OH219190   2.105   5.950   3.438
 6395TIP3    H119191   2.018   5.940   3.399
 6395TIP3    H219192   2.164   5.963   3.363
 6396TIP3   OH219193   5.230   0.821   3.447
 6396TIP3    H119194   5.245   0.825   3.353
 6396TIP3    H219195   5.316   0.833   3.486
 6397TIP3   OH219196   3.891   1.473   4.897
 6397TIP3    H119197   3.890   1.413   4.823
 6397TIP3    H219198   3.962   1.440   4.953
 6398TIP3   OH219199   4.672   5.626   3.922
 6398TIP3    H119200   4.599   5.674   3.961
 6398TIP3    H219201   4.636   5.590   3.841
 6399TIP3   OH219202   1.335   1.122   1.068
 6399TIP3    H119203   1.390   1.168   1.005
 6399TIP3    H219204   1.316   1.187   1.135
 6400TIP3   OH219205   0.254   5.067   1.137
 6400TIP3    H119206   0.215   5.091   1.053
 6400TIP3    H219207   0.337   5.115   1.140
 6401TIP3   OH219208   0.453   1.689   3.779
 6401TIP3    H119209   0.490   1.601   3.786
 6401TIP3    H219210   0.404   1.688   3.697
 6402TIP3   OH219211   0.967   0.180   4.189
 6402TIP3    H119212   0.913   0.242   4.240
 6402TIP3    H219213   0.906   0.110   4.166
 6403TIP3   OH219214   2.097   3.613   3.455
 6403TIP3    H119215   2.050   3.640   3.533
 6403TIP3    H219216   2.105   3.518   3.463
 6404TIP3   OH219217   2.961   4.460   0.046
 6404TIP3    H119218   2.933   4.369   0.034
 6404TIP3    H219219   3.026   4.456   0.116
 6405TIP3   OH219220   4.082   3.055   4.295
 6405TIP3    H119221   4.028   3.093   4.365
 6405TIP3    H219222   4.132   3.129   4.261
 6406TIP3   OH219223   1.965   2.827   3.265
 6406TIP3    H119224   1.907   2.786   3.200
 6406TIP3    H219225   2.053   2.814   3.229
 6407TIP3   OH219226   4.101   3.451   5.128
 6407TIP3    H119227   4.040   3.426   5.197
 6407TIP3    H219228   4.188   3.434   5.166
 6408TIP3   OH219229   3.889   3.458   0.434
 6408TIP3    H119230   3.902   3.508   0.515
 6408TIP3    H219231   3.797   3.475   0.411
 6409TIP3   OH219232   1.818   0.294   4.770
 6409TIP3    H119233   1.749   0.233   4.795
 6409TIP3    H219234   1.891   0.238   4.744
 6410TIP3   OH219235   4.725   5.696   3.483
 6410TIP3    H119236   4.801   5.652   3.521
 6410TIP3    H219237   4.761   5.774   3.440
 6411TIP3   OH219238   3.174   0.854   4.234
 6411TIP3    H119239   3.177   0.767   4.196
 6411TIP3    H219240   3.239   0.904   4.185
 6412TIP3   OH219241   3.692   2.681   4.904
 6412TIP3    H119242   3.738   2.697   4.822
 6412TIP3    H219243   3.731   2.601   4.939
 6413TIP3   OH219244   4.894   1.935   1.532
 6413TIP3    H119245   4.956   1.863   1.539
 6413TIP3    H219246   4.933   1.995   1.469
 6414TIP3   OH219247   1.177   1.856   0.738
 6414TIP3    H119248   1.217   1.925   0.685
 6414TIP3    H219249   1.169   1.781   0.679
 6415TIP3   OH219250   2.034   2.508   4.472
 6415TIP3    H119251   2.015   2.488   4.563
 6415TIP3    H219252   2.079   2.430   4.439
 6416TIP3   OH219253   0.371   2.402   1.879
 6416TIP3    H119254   0.299   2.355   1.836
 6416TIP3    H219255   0.341   2.493   1.883
 6417TIP3   OH219256   0.404   0.454   2.230
 6417TIP3    H119257   0.357   0.486   2.153
 6417TIP3    H219258   0.460   0.527   2.256
 6418TIP3   OH219259   4.696   3.894   1.834
 6418TIP3    H119260   4.768   3.840   1.802
 6418TIP3    H219261   4.739   3.973   1.868
 6419TIP3   OH219262   1.713   5.515   0.599
 6419TIP3    H119263   1.784   5.489   0.657
 6419TIP3    H219264   1.755   5.528   0.514
 6420TIP3   OH219265   3.628   0.051   1.719
 6420TIP3    H119266   3.668   0.026   1.636
 6420TIP3    H219267   3.534   0.049   1.702
 6421TIP3   OH219268   1.551   3.269   2.655
 6421TIP3    H119269   1.505   3.192   2.625
 6421TIP3    H219270   1.509   3.292   2.738
 6422TIP3   OH219271   4.866   2.461   3.004
 6422TIP3    H119272   4.933   2.452   2.936
 6422TIP3    H219273   4.894   2.400   3.072
 6423TIP3   OH219274   3.799   3.268   2.198
 6423TIP3    H119275   3.805   3.180   2.161
 6423TIP3    H219276   3.874   3.314   2.161
 6424TIP3   OH219277   0.192   3.000   2.139
 6424TIP3    H119278   0.282   2.979   2.164
 6424TIP3    H219279   0.139   2.971   2.213
 6425TIP3   OH219280   5.723   1.827   4.586
 6425TIP3    H119281   5.754   1.874   4.509
 6425TIP3    H219282   5.801   1.781   4.619
 6426TIP3   OH219283   0.753   3.986   2.242
 6426TIP3    H119284   0.718   4.060   2.293
 6426TIP3    H219285   0.747   4.016   2.151
 6427TIP3   OH219286   2.488   2.302   0.726
 6427TIP3    H119287   2.421   2.238   0.703
 6427TIP3    H219288   2.459   2.383   0.684
 6428TIP3   OH219289   1.243   4.516   4.232
 6428TIP3    H119290   1.301   4.590   4.251
 6428TIP3    H219291   1.181   4.551   4.167
 6429TIP3   OH219292   1.997   1.990   2.013
 6429TIP3    H119293   2.011   1.927   1.942
 6429TIP3    H219294   2.052   1.958   2.084
 6430TIP3   OH219295   0.053   3.804   0.586
 6430TIP3    H119296   0.035   3.814   0.679
 6430TIP3    H219297   0.110   3.877   0.563
 6431TIP3   OH219298   1.060   5.925   0.448
 6431TIP3    H119299   1.034   5.980   0.522
 6431TIP3    H219300   1.058   5.984   0.373
 6432TIP3   OH219301   2.740   4.303   1.319
 6432TIP3    H119302   2.688   4.229   1.352
 6432TIP3    H219303   2.749   4.287   1.226
 6433TIP3   OH219304   5.807   0.679   4.455
 6433TIP3    H119305   5.800   0.603   4.511
 6433TIP3    H219306   5.890   0.720   4.479
 6434TIP3   OH219307   5.682   2.777   1.288
 6434TIP3    H119308   5.591   2.759   1.313
 6434TIP3    H219309   5.735   2.725   1.348
 6435TIP3   OH219310   4.662   1.841   0.881
 6435TIP3    H119311   4.633   1.932   0.878
 6435TIP3    H219312   4.743   1.842   0.931
 6436TIP3   OH219313   2.001   0.056   1.995
 6436TIP3    H119314   2.046   0.123   1.944
 6436TIP3    H219315   2.065   0.027   2.060
 6437TIP3   OH219316   5.959   4.404   2.386
 6437TIP3    H119317   6.047   4.442   2.395
 6437TIP3    H219318   5.968   4.339   2.316
 6438TIP3   OH219319   1.524   1.050   1.831
 6438TIP3    H119320   1.433   1.069   1.806
 6438TIP3    H219321   1.554   0.985   1.767
 6439TIP3   OH219322   5.560   4.007   2.623
 6439TIP3    H119323   5.549   3.960   2.541
 6439TIP3    H219324   5.593   3.942   2.685
 6440TIP3   OH219325   4.548   2.519   2.785
 6440TIP3    H119326   4.618   2.563   2.736
 6440TIP3    H219327   4.554   2.427   2.759
 6441TIP3   OH219328   4.450   4.693   4.823
 6441TIP3    H119329   4.502   4.760   4.780
 6441TIP3    H219330   4.437   4.625   4.757
 6442TIP3   OH219331   3.671   0.766   0.763
 6442TIP3    H119332   3.586   0.755   0.720
 6442TIP3    H219333   3.696   0.677   0.788
 6443TIP3   OH219334   3.035   3.059   0.484
 6443TIP3    H119335   2.945   3.076   0.509
 6443TIP3    H219336   3.039   2.964   0.472
 6444TIP3   OH219337   3.602   5.113   2.837
 6444TIP3    H119338   3.615   5.148   2.925
 6444TIP3    H219339   3.518   5.150   2.809
 6445TIP3   OH219340   2.359   4.504   4.635
 6445TIP3    H119341   2.291   4.463   4.687
 6445TIP3    H219342   2.400   4.568   4.694
 6446TIP3   OH219343   2.194   3.895   2.616
 6446TIP3    H119344   2.127   3.924   2.554
 6446TIP3    H219345   2.196   3.964   2.683
 6447TIP3   OH219346   1.606   0.536   1.872
 6447TIP3    H119347   1.672   0.598   1.842
 6447TIP3    H219348   1.585   0.485   1.793
 6448TIP3   OH219349   4.233   0.500   2.746
 6448TIP3    H119350   4.219   0.564   2.816
 6448TIP3    H219351   4.222   0.551   2.665
 6449TIP3   OH219352  -0.004   4.018   1.840
 6449TIP3    H119353   0.051   4.084   1.883
 6449TIP3    H219354  -0.002   4.042   1.747
 6450TIP3   OH219355   3.403   1.330   0.316
 6450TIP3    H119356   3.381   1.319   0.408
 6450TIP3    H219357   3.358   1.257   0.272
 6451TIP3   OH219358   2.724   4.462   2.731
 6451TIP3    H119359   2.690   4.374   2.718
 6451TIP3    H219360   2.795   4.470   2.667
 6452TIP3   OH219361   3.024   2.840   4.502
 6452TIP3    H119362   3.028   2.748   4.528
 6452TIP3    H219363   2.931   2.862   4.506
 6453TIP3   OH219364   5.691   0.951   1.479
 6453TIP3    H119365   5.764   0.949   1.540
 6453TIP3    H219366   5.728   0.921   1.396
 6454TIP3   OH219367   0.637   1.049   3.663
 6454TIP3    H119368   0.556   1.044   3.611
 6454TIP3    H219369   0.689   1.117   3.620
 6455TIP3   OH219370   6.131   3.834   1.895
 6455TIP3    H119371   6.198   3.772   1.869
 6455TIP3    H219372   6.178   3.916   1.909
 6456TIP3   OH219373   5.248   1.686   4.874
 6456TIP3    H119374   5.323   1.637   4.839
 6456TIP3    H219375   5.238   1.760   4.814
 6457TIP3   OH219376   5.802   1.736   3.519
 6457TIP3    H119377   5.851   1.689   3.451
 6457TIP3    H219378   5.756   1.667   3.566
 6458TIP3   OH219379   5.552   3.639   5.126
 6458TIP3    H119380   5.613   3.602   5.062
 6458TIP3    H219381   5.521   3.563   5.176
 6459TIP3   OH219382   2.040   1.101   4.510
 6459TIP3    H119383   1.996   1.072   4.430
 6459TIP3    H219384   2.043   1.023   4.566
 6460TIP3   OH219385   3.598   0.636   2.559
 6460TIP3    H119386   3.632   0.659   2.473
 6460TIP3    H219387   3.624   0.710   2.615
 6461TIP3   OH219388   1.591   3.208   3.248
 6461TIP3    H119389   1.530   3.272   3.211
 6461TIP3    H219390   1.672   3.258   3.264
 6462TIP3   OH219391   1.054   0.596   2.880
 6462TIP3    H119392   1.124   0.533   2.864
 6462TIP3    H219393   1.080   0.675   2.832
 6463TIP3   OH219394   5.745   4.626   2.901
 6463TIP3    H119395   5.714   4.612   2.811
 6463TIP3    H219396   5.683   4.578   2.955
 6464TIP3   OH219397   2.486   0.621   4.029
 6464TIP3    H119398   2.578   0.607   4.009
 6464TIP3    H219399   2.440   0.589   3.951
 6465TIP3   OH219400   1.614   1.640   2.628
 6465TIP3    H119401   1.526   1.678   2.630
 6465TIP3    H219402   1.603   1.552   2.663
 6466TIP3   OH219403   0.854   3.939   2.871
 6466TIP3    H119404   0.937   3.904   2.902
 6466TIP3    H219405   0.878   4.012   2.814
 6467TIP3   OH219406   1.151   4.477   0.795
 6467TIP3    H119407   1.226   4.460   0.739
 6467TIP3    H219408   1.076   4.477   0.735
 6468TIP3   OH219409   3.933   1.484   0.570
 6468TIP3    H119410   3.961   1.465   0.660
 6468TIP3    H219411   3.879   1.410   0.545
 6469TIP3   OH219412   2.868   2.145   2.254
 6469TIP3    H119413   2.909   2.077   2.201
 6469TIP3    H219414   2.799   2.099   2.303
 6470TIP3   OH219415   2.637   3.905   3.584
 6470TIP3    H119416   2.682   3.963   3.523
 6470TIP3    H219417   2.639   3.951   3.668
 6471TIP3   OH219418   4.063   4.934   1.977
 6471TIP3    H119419   4.052   5.028   1.960
 6471TIP3    H219420   4.153   4.915   1.948
 6472TIP3   OH219421   2.960   0.735   0.107
 6472TIP3    H119422   2.957   0.816   0.057
 6472TIP3    H219423   3.028   0.750   0.174
 6473TIP3   OH219424   5.076   1.274   0.296
 6473TIP3    H119425   5.170   1.258   0.304
 6473TIP3    H219426   5.055   1.250   0.205
 6474TIP3   OH219427   4.484   5.329   1.847
 6474TIP3    H119428   4.441   5.251   1.881
 6474TIP3    H219429   4.576   5.318   1.871
 6475TIP3   OH219430   2.071   1.336   3.426
 6475TIP3    H119431   2.053   1.284   3.505
 6475TIP3    H219432   1.997   1.318   3.369
 6476TIP3   OH219433   5.753   1.802   2.362
 6476TIP3    H119434   5.742   1.759   2.447
 6476TIP3    H219435   5.749   1.896   2.383
 6477TIP3   OH219436   5.982   5.022   3.313
 6477TIP3    H119437   5.977   4.946   3.256
 6477TIP3    H219438   5.961   4.988   3.400
 6478TIP3   OH219439   1.432   3.833   1.803
 6478TIP3    H119440   1.370   3.906   1.809
 6478TIP3    H219441   1.400   3.780   1.730
 6479TIP3   OH219442   1.368   3.680   1.587
 6479TIP3    H119443   1.388   3.610   1.525
 6479TIP3    H219444   1.289   3.721   1.552
 6480TIP3   OH219445   4.609   3.556   2.712
 6480TIP3    H119446   4.535   3.600   2.671
 6480TIP3    H219447   4.606   3.466   2.679
 6481TIP3   OH219448   2.302   5.011   3.077
 6481TIP3    H119449   2.346   4.951   3.017
 6481TIP3    H219450   2.284   5.089   3.024
 6482TIP3   OH219451   1.261   3.926   3.501
 6482TIP3    H119452   1.328   3.863   3.527
 6482TIP3    H219453   1.193   3.919   3.568
 6483TIP3   OH219454   4.699   1.030   3.721
 6483TIP3    H119455   4.752   0.950   3.713
 6483TIP3    H219456   4.682   1.057   3.630
 6484TIP3   OH219457   3.974   0.964   0.380
 6484TIP3    H119458   3.889   0.993   0.413
 6484TIP3    H219459   4.018   0.928   0.457
 6485TIP3   OH219460   2.407   1.597   4.155
 6485TIP3    H119461   2.341   1.567   4.092
 6485TIP3    H219462   2.356   1.629   4.230
 6486TIP3   OH219463   4.558   1.915   0.324
 6486TIP3    H119464   4.587   2.007   0.324
 6486TIP3    H219465   4.563   1.888   0.232
 6487TIP3   OH219466   5.004   1.969   2.895
 6487TIP3    H119467   5.003   1.964   2.799
 6487TIP3    H219468   4.913   1.960   2.921
 6488TIP3   OH219469   4.026   4.262   0.945
 6488TIP3    H119470   4.058   4.173   0.937
 6488TIP3    H219471   3.930   4.252   0.950
 6489TIP3   OH219472   5.004   2.330   2.019
 6489TIP3    H119473   5.012   2.368   1.932
 6489TIP3    H219474   5.024   2.402   2.079
 6490TIP3   OH219475   2.830   4.325   1.992
 6490TIP3    H119476   2.870   4.323   2.079
 6490TIP3    H219477   2.856   4.409   1.955
 6491TIP3   OH219478   5.198   1.246   4.586
 6491TIP3    H119479   5.179   1.160   4.548
 6491TIP3    H219480   5.124   1.263   4.645
 6492TIP3   OH219481   1.010   0.377   0.716
 6492TIP3    H119482   1.015   0.419   0.630
 6492TIP3    H219483   0.962   0.439   0.770
 6493TIP3   OH219484   5.028   0.146   0.659
 6493TIP3    H119485   4.933   0.144   0.650
 6493TIP3    H219486   5.047   0.235   0.688
 6494TIP3   OH219487   4.718   5.119   1.758
 6494TIP3    H119488   4.644   5.145   1.703
 6494TIP3    H219489   4.795   5.152   1.712
 6495TIP3   OH219490   5.553   1.665   1.035
 6495TIP3    H119491   5.463   1.661   1.001
 6495TIP3    H219492   5.547   1.721   1.112
 6496TIP3   OH219493   2.941   4.467   0.909
 6496TIP3    H119494   3.005   4.490   0.842
 6496TIP3    H219495   2.943   4.541   0.970
 6497TIP3   OH219496   0.605   1.908   2.954
 6497TIP3    H119497   0.626   1.997   2.983
 6497TIP3    H219498   0.629   1.853   3.029
 6498TIP3   OH219499   3.847   5.779   2.356
 6498TIP3    H119500   3.846   5.773   2.451
 6498TIP3    H219501   3.770   5.730   2.328
 6499TIP3   OH219502   1.785   1.754   1.277
 6499TIP3    H119503   1.800   1.665   1.307
 6499TIP3    H219504   1.798   1.808   1.355
 6500TIP3   OH219505   5.601   2.375   3.823
 6500TIP3    H119506   5.551   2.319   3.764
 6500TIP3    H219507   5.621   2.453   3.772
 6501TIP3   OH219508   4.132   4.557   4.078
 6501TIP3    H119509   4.111   4.650   4.090
 6501TIP3    H219510   4.226   4.556   4.060
 6502TIP3   OH219511   1.325   3.937   5.043
 6502TIP3    H119512   1.406   3.984   5.061
 6502TIP3    H219513   1.281   3.932   5.128
 6503TIP3   OH219514   1.267   1.864   2.349
 6503TIP3    H119515   1.221   1.911   2.279
 6503TIP3    H219516   1.328   1.807   2.303
 6504TIP3   OH219517   1.798   5.274   2.081
 6504TIP3    H119518   1.766   5.325   2.155
 6504TIP3    H219519   1.849   5.336   2.029
 6505TIP3   OH219520   6.206   2.164   2.461
 6505TIP3    H119521   6.167   2.111   2.390
 6505TIP3    H219522   6.300   2.148   2.453
 6506TIP3   OH219523   2.749   0.654   3.964
 6506TIP3    H119524   2.830   0.672   3.917
 6506TIP3    H219525   2.753   0.708   4.043
 6507TIP3   OH219526   1.598   0.494   3.671
 6507TIP3    H119527   1.671   0.444   3.632
 6507TIP3    H219528   1.641   0.567   3.715
 6508TIP3   OH219529   3.267   2.734   3.828
 6508TIP3    H119530   3.335   2.740   3.895
 6508TIP3    H219531   3.240   2.825   3.813
 6509TIP3   OH219532   1.008   1.903   3.263
 6509TIP3    H119533   1.094   1.930   3.295
 6509TIP3    H219534   0.988   1.966   3.193
 6510TIP3   OH219535   4.335   0.508   0.278
 6510TIP3    H119536   4.269   0.439   0.268
 6510TIP3    H219537   4.284   0.587   0.296
 6511TIP3   OH219538   1.721   3.358   3.040
 6511TIP3    H119539   1.782   3.296   3.081
 6511TIP3    H219540   1.741   3.442   3.082
 6512TIP3   OH219541   1.246   3.961   1.269
 6512TIP3    H119542   1.181   3.993   1.331
 6512TIP3    H219543   1.204   3.971   1.184
 6513TIP3   OH219544   3.388   5.022   2.330
 6513TIP3    H119545   3.404   5.069   2.248
 6513TIP3    H219546   3.446   5.065   2.393
 6514TIP3   OH219547   0.687   2.942   3.989
 6514TIP3    H119548   0.690   2.880   4.063
 6514TIP3    H219549   0.608   2.917   3.941
 6515TIP3   OH219550   3.153   3.033   1.375
 6515TIP3    H119551   3.115   3.081   1.301
 6515TIP3    H219552   3.234   2.996   1.340
 6516TIP3   OH219553   3.505   4.235   3.395
 6516TIP3    H119554   3.506   4.261   3.303
 6516TIP3    H219555   3.594   4.204   3.412
 6517TIP3   OH219556   3.084   4.554   2.210
 6517TIP3    H119557   3.085   4.608   2.290
 6517TIP3    H219558   3.143   4.600   2.150
 6518TIP3   OH219559   5.903   0.362   0.551
 6518TIP3    H119560   5.827   0.319   0.591
 6518TIP3    H219561   5.925   0.433   0.611
 6519TIP3   OH219562   6.237   3.137   0.849
 6519TIP3    H119563   6.277   3.053   0.871
 6519TIP3    H219564   6.145   3.127   0.873
 6520TIP3   OH219565   3.643   2.403   4.048
 6520TIP3    H119566   3.662   2.343   4.120
 6520TIP3    H219567   3.560   2.444   4.072
 6521TIP3   OH219568   3.813   1.579   2.532
 6521TIP3    H119569   3.837   1.631   2.455
 6521TIP3    H219570   3.719   1.567   2.524
 6522TIP3   OH219571   5.846   5.790   4.134
 6522TIP3    H119572   5.917   5.811   4.073
 6522TIP3    H219573   5.885   5.727   4.195
 6523TIP3   OH219574   0.102   1.007   3.552
 6523TIP3    H119575   0.027   1.004   3.493
 6523TIP3    H219576   0.131   0.916   3.557
 6524TIP3   OH219577   2.902   0.052   2.520
 6524TIP3    H119578   2.887   0.130   2.574
 6524TIP3    H219579   2.888   0.081   2.431
 6525TIP3   OH219580   2.154   5.548   0.935
 6525TIP3    H119581   2.203   5.630   0.946
 6525TIP3    H219582   2.219   5.484   0.906
 6526TIP3   OH219583   4.597   1.018   3.013
 6526TIP3    H119584   4.509   0.983   3.025
 6526TIP3    H219585   4.598   1.049   2.922
 6527TIP3   OH219586   2.218   3.866   5.008
 6527TIP3    H119587   2.260   3.850   4.923
 6527TIP3    H219588   2.125   3.859   4.990
 6528TIP3   OH219589   6.106   0.094   4.572
 6528TIP3    H119590   6.162   0.104   4.495
 6528TIP3    H219591   6.059   0.012   4.558
 6529TIP3   OH219592   5.648   1.456   1.233
 6529TIP3    H119593   5.638   1.493   1.145
 6529TIP3    H219594   5.699   1.377   1.220
 6530TIP3   OH219595   1.165   2.211   4.088
 6530TIP3    H119596   1.188   2.261   4.166
 6530TIP3    H219597   1.127   2.276   4.028
 6531TIP3   OH219598   4.667   0.794   4.216
 6531TIP3    H119599   4.656   0.762   4.126
 6531TIP3    H219600   4.742   0.746   4.249
 6532TIP3   OH219601   3.206   5.928   4.991
 6532TIP3    H119602   3.116   5.953   4.971
 6532TIP3    H219603   3.198   5.849   5.045
 6533TIP3   OH219604   0.081   5.941   1.762
 6533TIP3    H119605  -0.005   5.918   1.726
 6533TIP3    H219606   0.108   5.864   1.813
 6534TIP3   OH219607   0.724   1.972   1.132
 6534TIP3    H119608   0.743   2.051   1.082
 6534TIP3    H219609   0.805   1.921   1.127
 6535TIP3   OH219610   1.414   0.328   4.378
 6535TIP3    H119611   1.470   0.315   4.455
 6535TIP3    H219612   1.332   0.285   4.400
 6536TIP3   OH219613   0.703   4.726   4.774
 6536TIP3    H119614   0.647   4.748   4.700
 6536TIP3    H219615   0.658   4.653   4.818
 6537TIP3   OH219616   1.110   2.228   2.537
 6537TIP3    H119617   1.086   2.135   2.536
 6537TIP3    H219618   1.205   2.229   2.540
 6538TIP3   OH219619   0.602   2.783   0.418
 6538TIP3    H119620   0.670   2.716   0.422
 6538TIP3    H219621   0.522   2.736   0.393
 6539TIP3   OH219622   2.976   4.087   1.182
 6539TIP3    H119623   3.046   4.042   1.134
 6539TIP3    H219624   2.928   4.136   1.116
 6540TIP3   OH219625   5.035   2.031   1.293
 6540TIP3    H119626   4.968   1.974   1.253
 6540TIP3    H219627   5.016   2.118   1.258
 6541TIP3   OH219628   4.170   3.690   3.852
 6541TIP3    H119629   4.156   3.623   3.785
 6541TIP3    H219630   4.261   3.678   3.879
 6542TIP3   OH219631   0.477   4.888   4.047
 6542TIP3    H119632   0.396   4.937   4.042
 6542TIP3    H219633   0.478   4.833   3.969
 6543TIP3   OH219634   4.651   3.037   0.803
 6543TIP3    H119635   4.585   2.984   0.848
 6543TIP3    H219636   4.734   3.007   0.839
 6544TIP3   OH219637   0.735   1.474   1.588
 6544TIP3    H119638   0.785   1.420   1.650
 6544TIP3    H219639   0.729   1.559   1.629
 6545TIP3   OH219640   4.365   4.057   2.280
 6545TIP3    H119641   4.343   3.988   2.343
 6545TIP3    H219642   4.311   4.131   2.305
 6546TIP3   OH219643   4.860   3.474   3.844
 6546TIP3    H119644   4.815   3.503   3.765
 6546TIP3    H219645   4.952   3.496   3.829
 6547TIP3   OH219646   5.511   2.538   0.471
 6547TIP3    H119647   5.497   2.543   0.565
 6547TIP3    H219648   5.573   2.609   0.452
 6548TIP3   OH219649   3.943   4.682   5.165
 6548TIP3    H119650   3.919   4.639   5.083
 6548TIP3    H219651   4.033   4.652   5.182
 6549TIP3   OH219652   5.440   0.590   2.095
 6549TIP3    H119653   5.490   0.661   2.056
 6549TIP3    H219654   5.363   0.581   2.039
 6550TIP3   OH219655   2.373   3.512   2.035
 6550TIP3    H119656   2.346   3.476   2.120
 6550TIP3    H219657   2.383   3.606   2.051
 6551TIP3   OH219658   1.356   4.243   2.584
 6551TIP3    H119659   1.265   4.268   2.573
 6551TIP3    H219660   1.400   4.275   2.505
 6552TIP3   OH219661   4.200   5.847   0.299
 6552TIP3    H119662   4.211   5.762   0.257
 6552TIP3    H219663   4.105   5.856   0.309
 6553TIP3   OH219664   4.373   1.915   0.761
 6553TIP3    H119665   4.300   1.945   0.814
 6553TIP3    H219666   4.431   1.992   0.756
 6554TIP3   OH219667   3.207   2.703   5.084
 6554TIP3    H119668   3.254   2.776   5.044
 6554TIP3    H219669   3.116   2.733   5.089
 6555TIP3   OH219670   3.251   4.735   2.427
 6555TIP3    H119671   3.332   4.781   2.404
 6555TIP3    H219672   3.213   4.786   2.498
 6556TIP3   OH219673   3.676   1.643   2.216
 6556TIP3    H119674   3.664   1.730   2.254
 6556TIP3    H219675   3.762   1.615   2.248
 6557TIP3   OH219676   6.077   1.987   2.289
 6557TIP3    H119677   6.004   1.927   2.302
 6557TIP3    H219678   6.130   1.946   2.221
 6558TIP3   OH219679   4.941   5.547   3.545
 6558TIP3    H119680   5.000   5.498   3.487
 6558TIP3    H219681   4.997   5.578   3.616
 6559TIP3   OH219682   5.952   1.033   2.828
 6559TIP3    H119683   5.975   0.963   2.889
 6559TIP3    H219684   5.866   1.063   2.858
 6560TIP3   OH219685   5.951   0.715   3.224
 6560TIP3    H119686   6.027   0.657   3.227
 6560TIP3    H219687   5.967   0.779   3.293
 6561TIP3   OH219688   5.062   3.789   0.157
 6561TIP3    H119689   4.975   3.825   0.176
 6561TIP3    H219690   5.068   3.711   0.213
 6562TIP3   OH219691  -0.011   5.136   0.697
 6562TIP3    H119692   0.038   5.156   0.617
 6562TIP3    H219693  -0.096   5.177   0.683
 6563TIP3   OH219694   5.250   4.388   3.754
 6563TIP3    H119695   5.168   4.433   3.776
 6563TIP3    H219696   5.312   4.459   3.735
 6564TIP3   OH219697   0.536   5.778   3.588
 6564TIP3    H119698   0.472   5.727   3.537
 6564TIP3    H219699   0.499   5.866   3.592
 6565TIP3   OH219700   4.758   1.996   3.049
 6565TIP3    H119701   4.798   1.918   3.086
 6565TIP3    H219702   4.687   2.018   3.110
 6566TIP3   OH219703   5.693   4.713   3.692
 6566TIP3    H119704   5.699   4.631   3.740
 6566TIP3    H219705   5.766   4.710   3.631
 6567TIP3   OH219706   4.068   0.495   4.086
 6567TIP3    H119707   4.160   0.483   4.111
 6567TIP3    H219708   4.055   0.590   4.090
 6568TIP3   OH219709   6.091   0.692   1.571
 6568TIP3    H119710   6.033   0.638   1.517
 6568TIP3    H219711   6.041   0.707   1.652
 6569TIP3   OH219712   2.764   3.516   4.840
 6569TIP3    H119713   2.772   3.429   4.802
 6569TIP3    H219714   2.715   3.503   4.921
 6570TIP3   OH219715   2.213   0.221   1.830
 6570TIP3    H119716   2.188   0.136   1.793
 6570TIP3    H219717   2.165   0.285   1.777
 6571TIP3   OH219718   2.414   4.864   0.279
 6571TIP3    H119719   2.340   4.804   0.278
 6571TIP3    H219720   2.435   4.876   0.372
 6572TIP3   OH219721   0.882   2.250   2.802
 6572TIP3    H119722   0.926   2.218   2.724
 6572TIP3    H219723   0.816   2.312   2.769
 6573TIP3   OH219724   5.647   1.358   3.976
 6573TIP3    H119725   5.687   1.403   4.051
 6573TIP3    H219726   5.601   1.427   3.928
 6574TIP3   OH219727   1.982   3.395   2.724
 6574TIP3    H119728   1.908   3.421   2.779
 6574TIP3    H219729   2.038   3.472   2.721
 6575TIP3   OH219730   2.589   3.360   4.004
 6575TIP3    H119731   2.598   3.410   4.085
 6575TIP3    H219732   2.607   3.269   4.029
 6576TIP3   OH219733   3.591   1.170   0.714
 6576TIP3    H119734   3.598   1.224   0.792
 6576TIP3    H219735   3.584   1.080   0.748
 6577TIP3   OH219736   0.329   4.306   0.961
 6577TIP3    H119737   0.311   4.299   0.867
 6577TIP3    H219738   0.396   4.374   0.968
 6578TIP3   OH219739   0.460   4.374   0.190
 6578TIP3    H119740   0.470   4.429   0.112
 6578TIP3    H219741   0.518   4.414   0.255
 6579TIP3   OH219742   6.161   2.624   5.030
 6579TIP3    H119743   6.085   2.586   5.074
 6579TIP3    H219744   6.148   2.718   5.036
 6580TIP3   OH219745   2.747   0.529   0.736
 6580TIP3    H119746   2.830   0.508   0.693
 6580TIP3    H219747   2.725   0.617   0.705
 6581TIP3   OH219748   6.281   4.352   0.336
 6581TIP3    H119749   6.362   4.365   0.286
 6581TIP3    H219750   6.245   4.440   0.348
 6582TIP3   OH219751   1.233   3.101   3.921
 6582TIP3    H119752   1.223   3.109   3.827
 6582TIP3    H219753   1.148   3.066   3.951
 6583TIP3   OH219754   0.608   0.873   2.867
 6583TIP3    H119755   0.701   0.855   2.885
 6583TIP3    H219756   0.596   0.846   2.776
 6584TIP3   OH219757   6.038   2.809   3.097
 6584TIP3    H119758   6.012   2.792   3.187
 6584TIP3    H219759   5.998   2.738   3.046
 6585TIP3   OH219760   4.746   4.480   3.656
 6585TIP3    H119761   4.744   4.574   3.636
 6585TIP3    H219762   4.677   4.442   3.602
 6586TIP3   OH219763   4.840   5.288   4.602
 6586TIP3    H119764   4.801   5.227   4.665
 6586TIP3    H219765   4.867   5.363   4.655
 6587TIP3   OH219766   0.221   2.559   4.585
 6587TIP3    H119767   0.193   2.526   4.500
 6587TIP3    H219768   0.145   2.547   4.642
 6588TIP3   OH219769   6.293   2.311   0.267
 6588TIP3    H119770   6.227   2.369   0.230
 6588TIP3    H219771   6.362   2.369   0.300
 6589TIP3   OH219772   5.386   0.366   0.200
 6589TIP3    H119773   5.373   0.429   0.128
 6589TIP3    H219774   5.329   0.398   0.269
 6590TIP3   OH219775   5.563   2.693   2.768
 6590TIP3    H119776   5.587   2.693   2.676
 6590TIP3    H219777   5.559   2.601   2.793
 6591TIP3   OH219778   1.638   2.884   5.030
 6591TIP3    H119779   1.705   2.951   5.017
 6591TIP3    H219780   1.657   2.849   5.118
 6592TIP3   OH219781   4.403   0.234   3.830
 6592TIP3    H119782   4.362   0.185   3.759
 6592TIP3    H219783   4.348   0.215   3.906
 6593TIP3   OH219784   5.785   0.773   1.740
 6593TIP3    H119785   5.739   0.697   1.775
 6593TIP3    H219786   5.717   0.840   1.733
 6594TIP3   OH219787   3.499   0.592   1.936
 6594TIP3    H119788   3.550   0.661   1.893
 6594TIP3    H219789   3.550   0.513   1.922
 6595TIP3   OH219790   3.022   1.769   3.990
 6595TIP3    H119791   3.086   1.706   3.957
 6595TIP3    H219792   3.041   1.850   3.942
 6596TIP3   OH219793   0.979   1.099   4.014
 6596TIP3    H119794   1.066   1.103   4.053
 6596TIP3    H219795   0.927   1.161   4.065
 6597TIP3   OH219796   5.014   1.368   0.784
 6597TIP3    H119797   4.965   1.290   0.759
 6597TIP3    H219798   4.958   1.441   0.757
 6598TIP3   OH219799   0.937   1.807   4.662
 6598TIP3    H119800   0.991   1.735   4.696
 6598TIP3    H219801   0.875   1.826   4.732
 6599TIP3   OH219802   2.349   3.204   3.942
 6599TIP3    H119803   2.428   3.230   3.894
 6599TIP3    H219804   2.378   3.130   3.997
 6600TIP3   OH219805   4.473   2.668   0.105
 6600TIP3    H119806   4.423   2.706   0.178
 6600TIP3    H219807   4.550   2.724   0.098
 6601TIP3   OH219808   3.619   3.599   4.127
 6601TIP3    H119809   3.628   3.529   4.192
 6601TIP3    H219810   3.528   3.629   4.137
 6602TIP3   OH219811   5.586   2.608   3.416
 6602TIP3    H119812   5.518   2.557   3.372
 6602TIP3    H219813   5.575   2.697   3.382
 6603TIP3   OH219814   4.346   1.247   5.189
 6603TIP3    H119815   4.345   1.320   5.127
 6603TIP3    H219816   4.366   1.288   5.273
 6604TIP3   OH219817   3.191   3.553   1.388
 6604TIP3    H119818   3.147   3.515   1.464
 6604TIP3    H219819   3.147   3.636   1.373
 6605TIP3   OH219820   2.929   1.737   3.003
 6605TIP3    H119821   2.877   1.711   2.927
 6605TIP3    H219822   2.997   1.794   2.967
 6606TIP3   OH219823   2.755   2.460   4.650
 6606TIP3    H119824   2.691   2.516   4.695
 6606TIP3    H219825   2.818   2.437   4.717
 6607TIP3   OH219826   0.878   1.366   1.332
 6607TIP3    H119827   0.804   1.421   1.357
 6607TIP3    H219828   0.847   1.317   1.255
 6608TIP3   OH219829   4.658   3.738   2.445
 6608TIP3    H119830   4.672   3.787   2.364
 6608TIP3    H219831   4.705   3.655   2.431
 6609TIP3   OH219832   1.807   0.939   4.722
 6609TIP3    H119833   1.768   1.021   4.751
 6609TIP3    H219834   1.733   0.889   4.687
 6610TIP3   OH219835   5.503   3.986   3.567
 6610TIP3    H119836   5.496   3.941   3.651
 6610TIP3    H219837   5.508   3.916   3.502
 6611TIP3   OH219838   2.126   1.789   2.925
 6611TIP3    H119839   2.050   1.821   2.876
 6611TIP3    H219840   2.089   1.747   3.003
 6612TIP3   OH219841   4.562   0.729   2.205
 6612TIP3    H119842   4.590   0.788   2.275
 6612TIP3    H219843   4.602   0.645   2.226
 6613TIP3   OH219844   0.977   5.736   4.534
 6613TIP3    H119845   1.054   5.678   4.540
 6613TIP3    H219846   1.002   5.813   4.585
 6614TIP3   OH219847   1.160   1.402   4.981
 6614TIP3    H119848   1.176   1.415   5.074
 6614TIP3    H219849   1.110   1.479   4.954
 6615TIP3   OH219850   1.468   0.031   2.129
 6615TIP3    H119851   1.386   0.074   2.105
 6615TIP3    H219852   1.536   0.088   2.094
 6616TIP3   OH219853   3.384   0.958   2.219
 6616TIP3    H119854   3.369   0.869   2.186
 6616TIP3    H219855   3.449   0.995   2.158
 6617TIP3   OH219856   2.114   1.001  -0.006
 6617TIP3    H119857   2.180   0.983   0.061
 6617TIP3    H219858   2.066   0.918  -0.015
 6618TIP3   OH219859   5.795   0.155   3.753
 6618TIP3    H119860   5.839   0.197   3.828
 6618TIP3    H219861   5.704   0.184   3.760
 6619TIP3   OH219862   2.178   3.816   2.941
 6619TIP3    H119863   2.169   3.873   2.864
 6619TIP3    H219864   2.272   3.800   2.949
 6620TIP3   OH219865   5.946   5.920   3.631
 6620TIP3    H119866   5.852   5.915   3.615
 6620TIP3    H219867   5.954   5.955   3.720
 6621TIP3   OH219868   6.327   0.107   4.077
 6621TIP3    H119869   6.274   0.033   4.046
 6621TIP3    H219870   6.311   0.177   4.014
 6622TIP3   OH219871   2.177   0.072   4.230
 6622TIP3    H119872   2.107   0.020   4.271
 6622TIP3    H219873   2.252   0.060   4.287
 6623TIP3   OH219874   0.989   5.208  -0.024
 6623TIP3    H119875   1.064   5.250   0.018
 6623TIP3    H219876   0.939   5.169   0.049
 6624TIP3   OH219877   6.294   3.393   0.930
 6624TIP3    H119878   6.256   3.315   0.890
 6624TIP3    H219879   6.352   3.359   0.998
 6625TIP3   OH219880   0.519   3.895   1.263
 6625TIP3    H119881   0.495   3.975   1.215
 6625TIP3    H219882   0.541   3.926   1.351
 6626TIP3   OH219883   1.100   4.364   3.689
 6626TIP3    H119884   1.013   4.383   3.725
 6626TIP3    H219885   1.160   4.380   3.762
 6627TIP3   OH219886   2.828   0.929   2.919
 6627TIP3    H119887   2.742   0.907   2.883
 6627TIP3    H219888   2.838   0.871   2.994
 6628TIP3   OH219889   1.611   3.259   4.862
 6628TIP3    H119890   1.580   3.292   4.778
 6628TIP3    H219891   1.672   3.189   4.840
 6629TIP3   OH219892   3.053   5.384   4.583
 6629TIP3    H119893   3.126   5.390   4.645
 6629TIP3    H219894   2.989   5.446   4.617
 6630TIP3   OH219895   5.677   0.464   0.161
 6630TIP3    H119896   5.584   0.463   0.186
 6630TIP3    H219897   5.680   0.417   0.078
 6631TIP3   OH219898   1.754   2.760   4.169
 6631TIP3    H119899   1.787   2.709   4.243
 6631TIP3    H219900   1.709   2.834   4.209
 6632TIP3   OH219901   1.236   5.592   4.963
 6632TIP3    H119902   1.312   5.542   4.932
 6632TIP3    H219903   1.260   5.620   5.052
 6633TIP3   OH219904   3.112   1.209   0.593
 6633TIP3    H119905   3.141   1.232   0.681
 6633TIP3    H219906   3.190   1.176   0.550
 6634TIP3   OH219907   0.108   5.251   3.315
 6634TIP3    H119908   0.148   5.165   3.329
 6634TIP3    H219909   0.025   5.232   3.271
 6635TIP3   OH219910   3.732   0.246   5.035
 6635TIP3    H119911   3.636   0.251   5.028
 6635TIP3    H219912   3.747   0.192   5.113
 6636TIP3   OH219913   1.991   4.582   4.161
 6636TIP3    H119914   1.936   4.516   4.203
 6636TIP3    H219915   2.001   4.651   4.227
 6637TIP3   OH219916   3.517   5.593   0.248
 6637TIP3    H119917   3.467   5.648   0.187
 6637TIP3    H219918   3.538   5.514   0.198
 6638TIP3   OH219919   2.051   4.306   4.927
 6638TIP3    H119920   2.043   4.384   4.982
 6638TIP3    H219921   2.142   4.305   4.898
 6639TIP3   OH219922   6.099   0.430   1.127
 6639TIP3    H119923   6.064   0.490   1.060
 6639TIP3    H219924   6.193   0.450   1.129
 6640TIP3   OH219925   6.014   4.317   2.075
 6640TIP3    H119926   5.955   4.251   2.036
 6640TIP3    H219927   6.077   4.265   2.125
 6641TIP3   OH219928   5.976   5.653   3.399
 6641TIP3    H119929   5.882   5.633   3.399
 6641TIP3    H219930   5.985   5.728   3.341
 6642TIP3   OH219931   2.818   1.312   1.453
 6642TIP3    H119932   2.856   1.400   1.464
 6642TIP3    H219933   2.852   1.261   1.526
 6643TIP3   OH219934   3.082   2.016   3.877
 6643TIP3    H119935   3.146   2.038   3.944
 6643TIP3    H219936   3.004   2.067   3.900
 6644TIP3   OH219937   4.145   3.737   5.119
 6644TIP3    H119938   4.211   3.751   5.051
 6644TIP3    H219939   4.119   3.646   5.109
 6645TIP3   OH219940   2.898   0.672   1.257
 6645TIP3    H119941   2.947   0.729   1.197
 6645TIP3    H219942   2.875   0.596   1.204
   6.34496   5.98209   5.18064   0.00000   0.00000  -2.11499   0.00000  -2.11499  -2.99104
