Title
19942
    1ASP      N    1   2.193   0.774   3.135  0.0046  0.1873  0.5328
    1ASP    HT1    2   2.256   0.775   3.053  0.9152 -0.0888  1.2106
    1ASP    HT2    3   2.169   0.673   3.144  0.6163 -0.1581 -1.4025
    1ASP    HT3    4   2.237   0.795   3.227  1.6200 -0.8663  0.0490
    1ASP     CA    5   2.073   0.860   3.107 -0.5453  0.5024 -0.4603
    1ASP     HA    6   2.014   0.867   3.197 -0.5671  0.8060 -0.4947
    1ASP     CB    7   2.121   1.009   3.077 -0.7664 -1.2309  0.1622
    1ASP    HB1    8   2.182   0.998   2.985 -0.5723  1.3980 -0.0795
    1ASP    HB2    9   2.186   1.047   3.159  1.4078 -0.7259 -1.7039
    1ASP     CG   10   2.011   1.112   3.067  0.0070  0.0590 -0.1676
    1ASP    OD1   11   1.899   1.076   3.111  0.0009  0.3582 -0.3888
    1ASP    OD2   12   2.033   1.232   3.034  0.1113 -0.1912  0.3813
    1ASP      C   13   1.987   0.793   3.006 -0.4148 -0.3226 -0.2389
    1ASP      O   14   2.023   0.690   2.949 -0.0933  0.4235 -0.1659
    2ALA      N   15   1.873   0.851   2.967  0.6911 -0.6516 -0.0120
    2ALA     HN   16   1.842   0.935   3.011 -0.8666 -0.5973 -1.1412
    2ALA     CA   17   1.793   0.798   2.868 -0.2296 -0.3125  0.1703
    2ALA     HA   18   1.791   0.690   2.874  0.9998 -0.5746 -2.5225
    2ALA     CB   19   1.648   0.846   2.890 -0.7091 -0.3829 -0.0315
    2ALA    HB1   20   1.610   0.835   2.994  1.9109  0.5448  1.1204
    2ALA    HB2   21   1.582   0.786   2.823 -0.8741 -0.9201  0.6017
    2ALA    HB3   22   1.643   0.955   2.870 -0.7984  0.0921  2.2604
    2ALA      C   23   1.844   0.845   2.726 -1.1042 -0.0773  0.9787
    2ALA      O   24   1.866   0.964   2.697 -0.1141 -0.0980  0.3687
    3ASP      N   25   1.849   0.747   2.625 -0.8401 -0.5583 -0.3531
    3ASP     HN   26   1.831   0.652   2.646  1.0639 -0.7061  0.8708
    3ASP     CA   27   1.887   0.771   2.486 -0.0371  0.4303 -0.4759
    3ASP     HA   28   1.992   0.796   2.481 -0.6661  3.2829 -1.6736
    3ASP     CB   29   1.859   0.628   2.402  0.0750 -0.5495 -0.0568
    3ASP    HB1   30   1.841   0.645   2.294 -0.7483 -2.9091 -0.3604
    3ASP    HB2   31   1.782   0.568   2.455 -0.8473  0.5456 -0.1226
    3ASP     CG   32   1.970   0.533   2.411 -0.6372  0.0021  0.4631
    3ASP    OD1   33   1.946   0.412   2.400 -0.1313  0.7557 -0.5006
    3ASP    OD2   34   2.090   0.567   2.408 -0.3012 -0.6990  0.0147
    3ASP      C   35   1.814   0.883   2.413  0.0476 -0.4035 -0.2159
    3ASP      O   36   1.700   0.914   2.455 -0.1719 -0.6128 -0.2359
    4GLY      N   37   1.872   0.953   2.311 -0.4913 -0.4583  0.1132
    4GLY     HN   38   1.956   0.918   2.273  0.5270  0.5654  1.3287
    4GLY     CA   39   1.819   1.076   2.258  0.6131 -0.6117 -0.0651
    4GLY    HA1   40   1.893   1.113   2.189 -0.6556  0.1474 -1.0737
    4GLY    HA2   41   1.799   1.139   2.343  0.8838 -1.1666  0.4100
    4GLY      C   42   1.688   1.069   2.180 -0.0767 -0.1872 -0.0926
    4GLY      O   43   1.622   0.965   2.173  0.0703  0.1807 -0.5054
    5PRO      N   44   1.650   1.186   2.126  0.2504  0.1115  0.3102
    5PRO     CD   45   1.699   1.323   2.161 -0.8048 -0.3749 -0.1878
    5PRO    HD1   46   1.802   1.333   2.121 -1.6757  0.9106 -2.2337
    5PRO    HD2   47   1.692   1.343   2.270 -1.9210  0.2178 -0.3602
    5PRO     CA   48   1.549   1.202   2.013 -0.0501  0.6243 -0.1203
    5PRO     HA   49   1.449   1.179   2.047  0.7268 -1.5951  0.8919
    5PRO     CB   50   1.572   1.343   1.958  0.1771 -0.4758 -0.5301
    5PRO    HB1   51   1.481   1.389   1.913 -0.7250 -0.4100  1.2625
    5PRO    HB2   52   1.652   1.348   1.881 -0.7313 -0.1987 -1.4898
    5PRO     CG   53   1.616   1.423   2.085  0.2355  0.1256 -0.4184
    5PRO    HG1   54   1.677   1.511   2.057 -0.3976  0.8401  0.3908
    5PRO    HG2   55   1.529   1.455   2.146  1.8897 -0.4650  2.3945
    5PRO      C   56   1.561   1.095   1.912  0.2950  0.6214 -0.1365
    5PRO      O   57   1.666   1.094   1.845  0.0383 -0.4254 -0.1289
    6GLY      N   58   1.459   1.008   1.892  0.2441  0.6952  0.1133
    6GLY     HN   59   1.374   1.016   1.942 -0.7225 -0.4673 -1.2630
    6GLY     CA   60   1.470   0.892   1.801 -0.1530 -0.3174 -0.4621
    6GLY    HA1   61   1.398   0.815   1.825  0.4786 -0.8739 -0.3018
    6GLY    HA2   62   1.572   0.857   1.794 -0.6531 -1.7878 -0.7945
    6GLY      C   63   1.432   0.927   1.658 -0.1959 -0.4008  0.2587
    6GLY      O   64   1.425   1.047   1.623 -0.1779 -0.5414 -0.4479
    7ASP      N   65   1.412   0.827   1.567 -0.6812  0.0402 -0.6765
    7ASP     HN   66   1.428   0.731   1.588  0.4199 -0.1202 -2.0776
    7ASP     CA   67   1.372   0.855   1.428 -0.8140  0.6013  0.6289
    7ASP     HA   68   1.460   0.908   1.394 -0.2289  0.0505  1.2770
    7ASP     CB   69   1.377   0.720   1.352 -0.8078  0.5911  0.1923
    7ASP    HB1   70   1.336   0.728   1.249 -0.6244 -2.7301 -0.2347
    7ASP    HB2   71   1.315   0.642   1.400  0.7876 -0.0268  1.3565
    7ASP     CG   72   1.511   0.660   1.332 -0.8795  0.0627 -0.5258
    7ASP    OD1   73   1.521   0.554   1.264  0.2576  0.4968  0.1878
    7ASP    OD2   74   1.613   0.722   1.370 -0.1290 -0.1426  0.4891
    7ASP      C   75   1.251   0.939   1.409  0.4859 -0.2750 -0.8615
    7ASP      O   76   1.160   0.922   1.488  0.3909 -0.3165  0.0023
    8PRO      N   77   1.240   1.039   1.320  0.3634 -0.2261 -0.2291
    8PRO     CD   78   1.356   1.085   1.241  0.0563  0.6304  0.8799
    8PRO    HD1   79   1.402   0.999   1.186  1.8164  0.6047  2.2732
    8PRO    HD2   80   1.431   1.125   1.313  0.3112  1.7470  0.0199
    8PRO     CA   81   1.134   1.140   1.336  0.1691 -0.0820 -0.5410
    8PRO     HA   82   1.114   1.169   1.439  1.9587 -1.5226  0.2592
    8PRO     CB   83   1.204   1.258   1.272 -0.2391 -0.5626 -0.1934
    8PRO    HB1   84   1.255   1.319   1.351  1.8344 -0.2385 -1.6940
    8PRO    HB2   85   1.128   1.324   1.225 -1.3214 -1.4039  0.3304
    8PRO     CG   86   1.300   1.202   1.169 -0.0276 -0.4092  0.5280
    8PRO    HG1   87   1.244   1.158   1.084 -2.3866 -1.7229  2.5935
    8PRO    HG2   88   1.367   1.279   1.126 -1.8843  0.1570 -1.5106
    8PRO      C   89   0.993   1.099   1.277  0.6163  0.2781  0.0416
    8PRO      O   90   0.891   1.166   1.311  0.3728 -0.1812  0.1787
    9ASP      N   91   0.984   0.997   1.187 -0.1189 -0.0838  0.1077
    9ASP     HN   92   1.059   0.934   1.168 -0.2716 -0.9937  2.2079
    9ASP     CA   93   0.855   0.951   1.133  0.2786 -0.4992 -0.2204
    9ASP     HA   94   0.789   1.037   1.135 -0.0386 -0.7315 -0.5420
    9ASP     CB   95   0.862   0.902   0.981  0.2586  0.1464 -0.2251
    9ASP    HB1   96   0.769   0.847   0.956  0.4140 -0.8707  1.2856
    9ASP    HB2   97   0.944   0.826   0.980  1.1046  1.0268 -1.4204
    9ASP     CG   98   0.900   1.015   0.894  0.5992  0.8325  0.1623
    9ASP    OD1   99   0.952   0.977   0.785  0.1015  0.5598  0.0540
    9ASP    OD2  100   0.871   1.134   0.918  0.2041 -0.2001  0.3160
    9ASP      C  101   0.798   0.838   1.220  0.6358 -0.4576  0.0602
    9ASP      O  102   0.676   0.810   1.205 -0.4903  0.2543  0.7236
   10ALA      N  103   0.883   0.773   1.309  0.5132  0.5308  0.4528
   10ALA     HN  104   0.975   0.800   1.336 -0.1754  0.4070  3.2115
   10ALA     CA  105   0.817   0.686   1.402 -0.6400  0.5829 -0.2301
   10ALA     HA  106   0.779   0.598   1.352 -0.8211  1.5066 -1.7977
   10ALA     CB  107   0.920   0.633   1.506 -0.1545 -0.0237 -0.2563
   10ALA    HB1  108   0.860   0.575   1.580 -0.9208  0.4408 -0.5044
   10ALA    HB2  109   0.959   0.714   1.571  0.4175  0.3343 -1.0306
   10ALA    HB3  110   1.010   0.588   1.460  0.9863 -1.2096  2.8841
   10ALA      C  111   0.721   0.770   1.487  0.3900  0.1294 -0.1272
   10ALA      O  112   0.746   0.889   1.515 -0.3297  0.1550 -0.3025
   11GLY      N  113   0.602   0.726   1.527 -0.6641 -0.2419 -0.1490
   11GLY     HN  114   0.577   0.634   1.498 -4.3285  0.5997 -0.1380
   11GLY     CA  115   0.511   0.789   1.615  0.2602 -0.2487  0.4374
   11GLY    HA1  116   0.426   0.837   1.568  1.1246  1.5508  0.6594
   11GLY    HA2  117   0.555   0.865   1.677 -0.7965 -0.2973  1.2704
   11GLY      C  118   0.466   0.674   1.707  0.7761  0.6433 -0.0402
   11GLY    OT1  119   0.542   0.577   1.733  0.6792  0.1901  0.1712
   11GLY    OT2  120   0.351   0.675   1.759 -0.0067  0.1272  0.4769
   12LIT    LIT  121   0.379   0.494   1.803 -0.6543  0.5413  0.2690
   13LIT    LIT  122   0.720   4.639   4.842 -0.4262 -0.1611  0.5490
   14LIT    LIT  123   0.760   0.203   2.646  1.2148 -0.2323 -0.0348
   15LIT    LIT  124   2.626   0.552   3.041  0.5709 -1.1700 -1.4804
   16LIT    LIT  125   4.460   3.608   1.162 -0.4347  0.0386  0.1563
   17LIT    LIT  126   3.802   5.936   4.090  0.9287  0.2838 -0.5288
   18LIT    LIT  127   6.234   5.165   1.920 -0.6411 -1.1384 -0.7689
   19LIT    LIT  128   0.787   0.788   0.471 -0.1210  0.3519  0.6867
   20LIT    LIT  129   3.908   0.482   1.798 -0.0206 -0.5178 -0.8787
   21LIT    LIT  130   3.309   3.103   1.284  0.7438  0.1976 -0.3713
   22LIT    LIT  131   6.284   5.543   2.628  1.2308 -0.2460  0.5435
   23LIT    LIT  132   4.193   5.226   2.185 -0.3705 -0.0848 -0.1768
   24LIT    LIT  133   5.343   2.161   0.073 -0.0874  0.0346  0.0085
   25LIT    LIT  134   4.973   1.132   4.178 -0.0756 -0.2073  0.1254
   26LIT    LIT  135   2.396   1.403   2.947 -0.2280 -0.2751  0.1061
   27LIT    LIT  136   3.060   3.728   1.991 -0.7864 -0.2597 -0.3180
   28LIT    LIT  137   1.831   1.243   3.107 -0.2885 -0.0000 -0.7432
   29LIT    LIT  138   2.341   5.655   3.556  0.9503  0.9957  0.8248
   30LIT    LIT  139   6.122   3.593   5.066 -0.1497  0.3651  0.0598
   31LIT    LIT  140   5.014   5.707   4.950 -0.4023 -0.5378 -0.0447
   32LIT    LIT  141   0.522   1.221   1.109  0.4009  0.3230 -0.3284
   33LIT    LIT  142   0.145   5.405   0.352  1.1146  0.8508  0.7462
   34CLA    CLA  143   4.327   0.602   1.987  0.0970 -0.1712  0.3373
   35CLA    CLA  144   3.126   0.314   3.366 -0.0037 -0.1445  0.1072
   36CLA    CLA  145   4.939   2.095   4.041 -0.0679 -0.4994  0.3505
   37CLA    CLA  146   3.571   1.704   4.716 -0.1647  0.1587 -0.0134
   38CLA    CLA  147   4.330   3.464   3.093  0.0092  0.0198  0.3061
   39CLA    CLA  148   0.433   5.907   5.189  0.2645  0.3496  0.2175
   40CLA    CLA  149   2.845   4.467   3.573 -0.0440  0.0238 -0.0622
   41CLA    CLA  150   0.924   1.333   2.623  0.3202  0.1074  0.3192
   42CLA    CLA  151   1.969   2.179   5.153 -0.1496 -0.3390 -0.0495
   43CLA    CLA  152   2.243   2.522   4.725  0.5418  0.1959 -0.2967
   44CLA    CLA  153   0.772   3.097   0.581  0.1712  0.1455 -0.0214
   45CLA    CLA  154   4.629   1.121   0.559  0.4678  0.2925  0.2561
   46CLA    CLA  155   5.962   4.227   0.957 -0.0027  0.4323 -0.2367
   47CLA    CLA  156   0.102   0.363   3.634  0.0115  0.0143  0.1192
   48CLA    CLA  157   4.626   5.506   1.003 -0.0288  0.3246  0.2653
   49CLA    CLA  158   1.663   4.313   2.854 -0.4003  0.0131 -0.2683
   50CLA    CLA  159   1.906   3.429   0.797  0.0677  0.3222 -0.0475
   51CLA    CLA  160   0.372   0.390   3.226 -0.7138  0.1458 -0.0918
   52TIP3   OH2  161   4.450   4.247   1.235  0.4879 -0.2815  0.0996
   52TIP3    H1  162   4.464   4.263   1.328  0.8338  1.9209 -0.2812
   52TIP3    H2  163   4.440   4.334   1.196 -1.2885 -1.1907 -1.6883
   53TIP3   OH2  164   1.388   5.767   1.390  0.4551 -0.2368 -0.1457
   53TIP3    H1  165   1.311   5.722   1.354  2.0103 -0.1042 -4.1913
   53TIP3    H2  166   1.440   5.790   1.313  5.0843 -1.1854  2.3623
   54TIP3   OH2  167   5.954   0.820   3.644 -0.1613  0.4303  0.0334
   54TIP3    H1  168   6.036   0.793   3.604 -0.1112  0.3339  0.2008
   54TIP3    H2  169   5.921   0.741   3.686 -0.6890  0.2854 -0.6243
   55TIP3   OH2  170   0.570   5.711   3.479 -0.6275  0.1679  0.0162
   55TIP3    H1  171   0.493   5.696   3.534  0.5382 -0.2378  1.6314
   55TIP3    H2  172   0.585   5.626   3.436  0.4227 -0.5836  1.7683
   56TIP3   OH2  173   4.877   0.839   1.491 -0.0024 -0.0542  0.3361
   56TIP3    H1  174   4.882   0.923   1.536  2.1566  0.4621 -0.6966
   56TIP3    H2  175   4.947   0.787   1.530 -0.4953 -0.9175  0.0927
   57TIP3   OH2  176   2.662   0.356   1.889 -0.1001 -0.4392  0.0399
   57TIP3    H1  177   2.678   0.423   1.956  1.8049 -0.1874 -0.5904
   57TIP3    H2  178   2.677   0.402   1.806 -0.9573 -1.1122 -0.4975
   58TIP3   OH2  179   3.940   2.277   3.358 -0.4317  0.1487  0.4909
   58TIP3    H1  180   3.978   2.361   3.332  0.2661 -0.2897  0.0299
   58TIP3    H2  181   3.994   2.248   3.431  3.4414 -2.6777 -2.9738
   59TIP3   OH2  182   0.085   5.593   1.402  0.1226  0.1178 -0.4316
   59TIP3    H1  183   0.167   5.608   1.356  0.7375  0.3394  0.7128
   59TIP3    H2  184   0.027   5.556   1.335  1.7312 -1.8910 -0.8032
   60TIP3   OH2  185   4.835   4.104   1.160 -0.9474  0.2498 -0.2522
   60TIP3    H1  186   4.802   4.040   1.223 -1.8488 -1.1358 -2.0059
   60TIP3    H2  187   4.888   4.164   1.211 -1.8570 -0.6346  1.8416
   61TIP3   OH2  188   1.413   0.315   0.462 -0.1707 -0.0541 -0.5680
   61TIP3    H1  189   1.452   0.238   0.503 -1.6696 -1.0456 -0.9082
   61TIP3    H2  190   1.397   0.289   0.371 -2.1311  0.0456 -0.3092
   62TIP3   OH2  191   0.189   2.441   3.375  0.6964 -0.1226 -0.0221
   62TIP3    H1  192   0.255   2.400   3.319  1.9890 -0.8063  1.8627
   62TIP3    H2  193   0.201   2.399   3.460 -3.0287 -1.1774  0.1696
   63TIP3   OH2  194   5.234   0.311   1.937 -0.1779 -0.1000  0.1814
   63TIP3    H1  195   5.276   0.262   1.866 -0.0318  0.1426  0.0970
   63TIP3    H2  196   5.286   0.391   1.945 -1.2884  0.7527 -0.7064
   64TIP3   OH2  197   4.528   2.449   4.182 -0.2052 -0.1662  0.2823
   64TIP3    H1  198   4.623   2.459   4.185 -0.3749  1.5375  1.4015
   64TIP3    H2  199   4.511   2.371   4.236  0.5670 -0.7205 -0.2502
   65TIP3   OH2  200   6.269   3.338   2.914 -0.4500  0.2687 -0.7787
   65TIP3    H1  201   6.352   3.299   2.942  0.0785  2.9966  2.1149
   65TIP3    H2  202   6.205   3.267   2.920  1.2476 -1.3142 -0.6966
   66TIP3   OH2  203   2.674   0.910   3.152 -0.9027 -0.6987 -0.8629
   66TIP3    H1  204   2.688   0.972   3.080  0.3424 -0.4268 -0.4145
   66TIP3    H2  205   2.758   0.909   3.199 -1.6756 -0.9267  0.5494
   67TIP3   OH2  206   4.004   1.461   2.366 -0.2819  0.6263 -0.2694
   67TIP3    H1  207   3.984   1.403   2.440 -2.2780  0.2856 -1.0231
   67TIP3    H2  208   4.089   1.429   2.335 -0.4613 -0.7009  0.4812
   68TIP3   OH2  209   3.751   1.351   4.193 -0.0753 -0.3834  0.1278
   68TIP3    H1  210   3.699   1.300   4.255 -1.3400  0.3397 -0.3008
   68TIP3    H2  211   3.694   1.424   4.168  0.2673 -0.8327 -2.1516
   69TIP3   OH2  212   1.077   0.939   3.289 -0.0856 -0.2419  0.1805
   69TIP3    H1  213   1.098   1.030   3.268  1.7361 -0.8766 -1.0437
   69TIP3    H2  214   1.153   0.889   3.257 -1.1392 -2.2212  0.5995
   70TIP3   OH2  215   4.310   0.568   2.524  0.2071 -0.1645 -0.2201
   70TIP3    H1  216   4.388   0.624   2.532 -0.4453  0.5646  1.6027
   70TIP3    H2  217   4.245   0.624   2.481  0.3034 -0.3664 -0.6338
   71TIP3   OH2  218   0.169   3.017   1.719  0.0555 -0.7664  0.1312
   71TIP3    H1  219   0.115   2.994   1.643  0.8466  0.3207 -0.8020
   71TIP3    H2  220   0.255   3.036   1.681  0.3300  0.2982  1.2429
   72TIP3   OH2  221   3.856   3.320   1.624  0.0321  1.1209 -0.0967
   72TIP3    H1  222   3.886   3.251   1.684 -0.6867 -0.2091 -1.2230
   72TIP3    H2  223   3.937   3.353   1.585  0.2779 -2.4330 -3.1076
   73TIP3   OH2  224   2.650   4.958   1.656  0.7122 -1.0027  0.3678
   73TIP3    H1  225   2.707   4.997   1.589 -0.5734 -0.2998 -0.3650
   73TIP3    H2  226   2.569   5.009   1.650  0.1831 -1.6563  1.7169
   74TIP3   OH2  227   5.005   1.318   4.197  0.8398  0.5930 -0.2172
   74TIP3    H1  228   5.040   1.368   4.271 -0.9775  1.4779  0.0926
   74TIP3    H2  229   5.001   1.382   4.126 -1.5512  1.0126  0.1968
   75TIP3   OH2  230   5.495   2.730   0.406 -0.7671  0.3064 -0.0873
   75TIP3    H1  231   5.462   2.681   0.480 -0.1825  1.0741  0.7010
   75TIP3    H2  232   5.449   2.814   0.409 -1.0970  0.1691 -0.8893
   76TIP3   OH2  233   3.198   5.409   2.367  0.1263  0.0089 -0.1032
   76TIP3    H1  234   3.144   5.371   2.298  0.6571  0.8427 -1.0181
   76TIP3    H2  235   3.271   5.451   2.320  1.0980 -0.3415  1.0411
   77TIP3   OH2  236   5.329   4.577   5.155 -0.1911 -0.4270  0.1979
   77TIP3    H1  237   5.254   4.575   5.094 -0.2235 -0.2479  0.2329
   77TIP3    H2  238   5.320   4.660   5.201  0.5658  0.0405 -0.4703
   78TIP3   OH2  239   0.426   2.477   0.650  0.1145 -0.0857  0.2208
   78TIP3    H1  240   0.411   2.517   0.736  2.5316  1.1668  0.1447
   78TIP3    H2  241   0.520   2.485   0.636 -0.0516 -1.3535 -2.0477
   79TIP3   OH2  242   4.749   5.861   0.783  0.6118 -1.3061  0.2598
   79TIP3    H1  243   4.821   5.875   0.844  0.0303 -1.2559  0.9494
   79TIP3    H2  244   4.789   5.864   0.697  1.0254  1.6377  0.4512
   80TIP3   OH2  245   4.605   1.630   5.128 -0.1170 -0.1398 -0.6603
   80TIP3    H1  246   4.626   1.544   5.163  0.0343 -0.5121 -1.6326
   80TIP3    H2  247   4.510   1.636   5.133 -0.1094 -0.2570 -0.3601
   81TIP3   OH2  248   1.169   2.928   3.315  0.1833 -0.7194  0.4546
   81TIP3    H1  249   1.188   2.991   3.245  0.2459 -0.6017  0.5793
   81TIP3    H2  250   1.154   2.845   3.268 -0.0027 -0.5911  0.2852
   82TIP3   OH2  251   3.137   0.366   3.901  0.1958 -0.2327 -1.0393
   82TIP3    H1  252   3.107   0.365   3.810 -0.4492 -0.5815 -0.8258
   82TIP3    H2  253   3.094   0.291   3.941 -2.8946  2.1750  0.6177
   83TIP3   OH2  254   0.840   0.917   4.400 -0.3419 -0.2974 -0.1342
   83TIP3    H1  255   0.783   0.843   4.379 -2.4238  0.5904  1.9074
   83TIP3    H2  256   0.781   0.992   4.403  1.2425  0.9779  0.5617
   84TIP3   OH2  257   2.956   3.227   3.104 -0.3137  0.0797  0.1680
   84TIP3    H1  258   2.924   3.215   3.015 -0.9690  0.2402  0.3809
   84TIP3    H2  259   3.022   3.158   3.115 -1.0413 -0.6639 -0.0506
   85TIP3   OH2  260   4.334   3.259   3.758 -0.4359 -0.1687  0.2841
   85TIP3    H1  261   4.348   3.219   3.672  0.3061 -0.2105  0.4212
   85TIP3    H2  262   4.327   3.353   3.740 -3.6553 -0.3944 -0.2283
   86TIP3   OH2  263   0.042   0.201   1.956 -0.0452 -0.1093 -0.4079
   86TIP3    H1  264   0.040   0.210   1.861 -1.5579 -1.3146 -0.5224
   86TIP3    H2  265  -0.034   0.250   1.986  0.8118  0.8426  0.2631
   87TIP3   OH2  266   1.971   0.941   4.743 -0.5733  0.6268 -0.3048
   87TIP3    H1  267   1.979   1.027   4.701 -1.2105  0.6903 -0.3068
   87TIP3    H2  268   1.898   0.899   4.698 -1.4172  0.7758  0.8547
   88TIP3   OH2  269   3.155   1.023   2.517 -0.4453  0.3017 -0.3189
   88TIP3    H1  270   3.173   0.991   2.428  1.3019 -0.6802  0.3380
   88TIP3    H2  271   3.210   1.101   2.526  1.1971 -0.9036  0.6297
   89TIP3   OH2  272   1.176   1.742   1.475 -0.2523  0.0342  0.2938
   89TIP3    H1  273   1.251   1.690   1.503 -1.7914 -2.0154  0.8610
   89TIP3    H2  274   1.164   1.808   1.544  0.3135 -0.3922  0.8050
   90TIP3   OH2  275   0.543   3.074   2.855 -0.4876  0.0414 -0.2672
   90TIP3    H1  276   0.528   3.167   2.870  1.0743  0.3234 -0.2767
   90TIP3    H2  277   0.563   3.039   2.942  1.5795  0.2810 -0.5969
   91TIP3   OH2  278   4.009   3.387   3.521 -0.0505  0.2830  0.0640
   91TIP3    H1  279   4.028   3.374   3.614 -2.0942 -0.8873  0.3731
   91TIP3    H2  280   3.988   3.300   3.488 -1.7556  1.0021 -0.8888
   92TIP3   OH2  281   0.846   2.535   2.021  0.5787 -0.1834  0.2554
   92TIP3    H1  282   0.870   2.566   2.108  0.7013  0.2178  0.0800
   92TIP3    H2  283   0.905   2.460   2.006 -0.3224 -1.0762  1.0375
   93TIP3   OH2  284   3.657   5.513   4.197  0.4299 -0.4354  0.0699
   93TIP3    H1  285   3.587   5.505   4.261  0.9242 -1.4042  0.5142
   93TIP3    H2  286   3.627   5.461   4.122 -0.4090  1.1678 -0.7626
   94TIP3   OH2  287   1.866   3.529   4.575  0.6000  0.3982  0.5146
   94TIP3    H1  288   1.792   3.474   4.548  0.4031  0.5762  0.6823
   94TIP3    H2  289   1.943   3.484   4.541  0.5403 -0.6148  1.6474
   95TIP3   OH2  290   1.985   4.533   2.414 -0.3884  0.2007 -0.0770
   95TIP3    H1  291   1.973   4.628   2.407 -0.5021  0.2417  0.6408
   95TIP3    H2  292   1.938   4.508   2.493  1.1612 -0.1774  0.7720
   96TIP3   OH2  293   2.063   1.685   1.665  0.0269  0.3339  0.1892
   96TIP3    H1  294   2.111   1.656   1.742  0.5550  1.7277  0.4109
   96TIP3    H2  295   2.065   1.610   1.606 -1.9212 -1.4463  2.1759
   97TIP3   OH2  296   1.945   3.771   4.516 -0.5967 -0.3351 -0.1285
   97TIP3    H1  297   2.010   3.742   4.451 -0.2406 -2.2480  0.9822
   97TIP3    H2  298   1.896   3.691   4.537 -1.1747  0.3993  1.4078
   98TIP3   OH2  299   3.413   4.076   2.918  0.4363  0.4216 -0.1328
   98TIP3    H1  300   3.402   4.171   2.925 -0.7286  0.3276 -0.5581
   98TIP3    H2  301   3.325   4.040   2.930  0.7983 -0.5849 -0.3779
   99TIP3   OH2  302   2.845   5.859   4.234  0.1522 -0.2607  0.2118
   99TIP3    H1  303   2.878   5.861   4.324 -2.2475  0.3479  1.1476
   99TIP3    H2  304   2.873   5.942   4.196 -0.4072  0.3177  1.0295
  100TIP3   OH2  305   4.557   5.700   3.177 -0.5019 -0.3076  0.2121
  100TIP3    H1  306   4.474   5.671   3.141 -1.2721  2.4736 -0.5284
  100TIP3    H2  307   4.545   5.699   3.272 -1.3579 -0.0576  0.1111
  101TIP3   OH2  308   5.286   0.190   1.554 -0.1575  0.2576 -0.0659
  101TIP3    H1  309   5.382   0.193   1.548  0.0740 -1.3721  1.7783
  101TIP3    H2  310   5.263   0.100   1.529 -1.2201  0.6598 -0.5806
  102TIP3   OH2  311   6.314   3.850   3.517 -0.3175  0.1605  0.0325
  102TIP3    H1  312   6.393   3.877   3.469  0.6199 -0.2768  1.2812
  102TIP3    H2  313   6.266   3.932   3.529  0.5011  0.6298  0.2400
  103TIP3   OH2  314   3.809   1.058   4.986  0.0420  0.1359  0.4206
  103TIP3    H1  315   3.888   1.108   4.966  0.8500 -1.3680 -0.2440
  103TIP3    H2  316   3.839   0.986   5.041 -1.0822  0.2507  1.2301
  104TIP3   OH2  317   5.090   1.562   4.360  0.1512 -0.7479 -0.5607
  104TIP3    H1  318   5.039   1.624   4.412 -0.9219 -1.1711 -1.0551
  104TIP3    H2  319   5.128   1.502   4.424  0.1929 -0.2973 -0.1623
  105TIP3   OH2  320   4.312   3.810   4.588 -0.3030  0.0986  0.4774
  105TIP3    H1  321   4.315   3.735   4.648  0.0062 -1.0579 -0.9496
  105TIP3    H2  322   4.220   3.837   4.590 -0.4827 -0.5005  0.7813
  106TIP3   OH2  323   2.014   3.709   0.959 -0.1418 -0.2477 -0.2233
  106TIP3    H1  324   2.100   3.668   0.966 -0.7581 -1.3465  2.3135
  106TIP3    H2  325   1.955   3.637   0.936 -0.4997  0.3744 -1.3194
  107TIP3   OH2  326   0.182   1.351   2.818 -0.1524 -0.4469  0.2534
  107TIP3    H1  327   0.146   1.326   2.903  0.1023  0.0379  0.5060
  107TIP3    H2  328   0.257   1.293   2.805  0.7650  0.5161  1.0861
  108TIP3   OH2  329   3.775   5.563   1.470  0.4587 -0.0427  0.1063
  108TIP3    H1  330   3.781   5.499   1.398  0.2891 -1.3518  1.2064
  108TIP3    H2  331   3.719   5.520   1.535  0.4940  1.1664  0.9690
  109TIP3   OH2  332   3.603   2.114   1.424  0.3860 -0.1969  0.1172
  109TIP3    H1  333   3.632   2.104   1.515 -0.8911 -1.6271  0.4101
  109TIP3    H2  334   3.517   2.157   1.431  0.9009  0.9839 -0.5233
  110TIP3   OH2  335   2.711   2.475   2.811 -0.2176  0.4571 -0.5875
  110TIP3    H1  336   2.662   2.553   2.839  1.7010  1.6026 -0.2977
  110TIP3    H2  337   2.646   2.423   2.763 -2.3424  0.7628  1.7213
  111TIP3   OH2  338   0.274   5.065   3.611 -0.2113  0.2103 -0.2230
  111TIP3    H1  339   0.362   5.085   3.644 -0.0419 -2.1500  0.9815
  111TIP3    H2  340   0.271   5.106   3.525  1.4202  1.8289  0.4307
  112TIP3   OH2  341   4.096   3.731   4.826  0.4123 -0.5624 -0.4400
  112TIP3    H1  342   4.155   3.659   4.852  1.9722  1.3690  1.7927
  112TIP3    H2  343   4.009   3.702   4.854  1.3036 -0.8131  2.4366
  113TIP3   OH2  344   3.443   2.406   2.021  0.3701 -0.2696  0.2817
  113TIP3    H1  345   3.487   2.466   2.080 -1.1946  1.2800 -0.0319
  113TIP3    H2  346   3.376   2.364   2.075  2.9210 -3.7175  1.1470
  114TIP3   OH2  347   2.358   0.005   1.434  0.0114  0.6653 -0.0093
  114TIP3    H1  348   2.385   0.080   1.487  0.2037  0.0132  0.8367
  114TIP3    H2  349   2.439  -0.039   1.412 -0.1356  0.4270 -0.0769
  115TIP3   OH2  350   4.045   1.309   2.891  0.2660  0.0174  0.2626
  115TIP3    H1  351   3.984   1.324   2.964 -2.3914 -0.8255 -1.6248
  115TIP3    H2  352   4.054   1.394   2.849 -0.6924 -0.1010 -0.2015
  116TIP3   OH2  353   5.735   2.151   2.524  0.1783 -0.2261 -0.1329
  116TIP3    H1  354   5.766   2.165   2.613 -0.1747 -1.0092  0.1292
  116TIP3    H2  355   5.644   2.181   2.525  0.4052  0.5126 -0.4554
  117TIP3   OH2  356   3.961   0.409   4.969  0.0180  0.2419  0.4046
  117TIP3    H1  357   3.871   0.394   4.940  0.6275 -1.0197 -0.9036
  117TIP3    H2  358   3.979   0.337   5.030  0.4930 -0.1415 -0.1790
  118TIP3   OH2  359   2.474   3.255   2.551  0.1052 -0.5179  0.1952
  118TIP3    H1  360   2.543   3.319   2.571 -0.3491 -0.0420  0.2692
  118TIP3    H2  361   2.499   3.219   2.465  0.8232 -0.8777  0.5452
  119TIP3   OH2  362   5.749   1.916   5.104 -0.1643 -0.5812 -0.5238
  119TIP3    H1  363   5.716   1.972   5.034  0.7429 -0.6652 -1.0316
  119TIP3    H2  364   5.843   1.935   5.108 -0.2308 -0.4142  0.8212
  120TIP3   OH2  365   5.798   1.015   3.748  0.3496  0.4091  0.4726
  120TIP3    H1  366   5.835   1.102   3.731 -0.7753  0.5085 -1.8570
  120TIP3    H2  367   5.861   0.954   3.710 -0.4642  0.4282 -0.9646
  121TIP3   OH2  368   5.580   3.989   1.302 -0.2007  0.3039  0.3858
  121TIP3    H1  369   5.488   4.016   1.304  0.4218  2.6376  0.6539
  121TIP3    H2  370   5.612   4.018   1.216  0.5775  0.6624  0.7825
  122TIP3   OH2  371   5.178   3.411   4.350  0.0347  0.3337  0.0653
  122TIP3    H1  372   5.116   3.401   4.278 -0.1311 -0.2840  0.2858
  122TIP3    H2  373   5.177   3.504   4.371 -0.2257  0.4504 -0.4540
  123TIP3   OH2  374   3.639   5.759   0.484  0.4196  0.3016 -0.2810
  123TIP3    H1  375   3.595   5.730   0.404 -0.7398  1.5021 -0.1190
  123TIP3    H2  376   3.728   5.727   0.475  0.0796 -0.3531 -1.6420
  124TIP3   OH2  377   5.698   0.730   1.151 -0.0216  0.5436  0.2020
  124TIP3    H1  378   5.766   0.687   1.100  0.7502  1.9007  0.0366
  124TIP3    H2  379   5.622   0.672   1.145  1.7211 -2.1638  2.2304
  125TIP3   OH2  380   4.272   4.357   2.070  0.1405 -0.4453 -0.0918
  125TIP3    H1  381   4.226   4.276   2.090  0.2277 -0.3210  0.6329
  125TIP3    H2  382   4.301   4.346   1.979 -0.8772 -0.7269 -0.3921
  126TIP3   OH2  383   5.152   5.220   4.281 -0.2247  0.3706 -0.8385
  126TIP3    H1  384   5.074   5.271   4.303  0.1973  1.3048 -1.4509
  126TIP3    H2  385   5.129   5.129   4.303 -1.3897  0.6686 -0.7921
  127TIP3   OH2  386   2.713   3.626   3.225 -0.4769  0.4136  0.4907
  127TIP3    H1  387   2.777   3.633   3.296  0.7651 -0.9811 -0.4107
  127TIP3    H2  388   2.731   3.701   3.169  1.3508 -0.6415 -0.4427
  128TIP3   OH2  389   6.274   4.481   2.437  0.4166  1.1510  0.0846
  128TIP3    H1  390   6.300   4.492   2.528 -2.5387  0.6819  1.0784
  128TIP3    H2  391   6.219   4.558   2.418 -1.5910 -0.2861 -0.2277
  129TIP3   OH2  392   6.047   1.935   3.667 -0.5763 -0.2711  0.3809
  129TIP3    H1  393   6.096   1.920   3.748 -0.4925  2.8225  1.0208
  129TIP3    H2  394   6.080   2.018   3.634 -1.3580 -0.9389 -2.3246
  130TIP3   OH2  395   1.540   0.257   1.871 -0.4645  0.0790  0.5508
  130TIP3    H1  396   1.592   0.327   1.911  0.9783  0.6701 -2.0961
  130TIP3    H2  397   1.463   0.249   1.927  1.8864 -0.0838  4.0636
  131TIP3   OH2  398   0.952   0.601   4.075  0.2078 -0.1943 -0.0724
  131TIP3    H1  399   0.906   0.520   4.053  0.3323 -0.4407  0.5386
  131TIP3    H2  400   0.980   0.588   4.166  1.9223 -0.2675 -0.5840
  132TIP3   OH2  401   4.791   0.783   1.770 -0.2788 -0.1471  0.1687
  132TIP3    H1  402   4.852   0.820   1.834  0.5501 -0.3720 -0.4648
  132TIP3    H2  403   4.732   0.728   1.822  1.1597 -1.3312  0.6297
  133TIP3   OH2  404   2.390   2.556   3.494  0.1932  0.2000 -0.0549
  133TIP3    H1  405   2.414   2.546   3.586  0.9679 -1.9953 -0.4438
  133TIP3    H2  406   2.408   2.648   3.475  1.9119  0.2513  1.4832
  134TIP3   OH2  407   1.656   0.322   3.222 -0.0680 -0.0065  0.4291
  134TIP3    H1  408   1.633   0.353   3.309  2.7150  0.5982  1.0351
  134TIP3    H2  409   1.626   0.231   3.221  0.2835 -0.1817  2.2160
  135TIP3   OH2  410   1.121   3.176   4.957 -0.2532  0.1017 -0.2819
  135TIP3    H1  411   1.195   3.210   5.008  0.4677  1.0541 -1.8854
  135TIP3    H2  412   1.142   3.084   4.944  0.3424  0.2186 -0.1969
  136TIP3   OH2  413   5.473   0.759   3.142  0.0379 -0.0176 -0.0829
  136TIP3    H1  414   5.487   0.852   3.163  0.1760  0.0043 -0.2674
  136TIP3    H2  415   5.522   0.712   3.209 -0.6216  0.0300  0.4444
  137TIP3   OH2  416   5.946   0.061   3.231  0.5118  0.0810  0.2533
  137TIP3    H1  417   6.033   0.050   3.270  1.3813  1.5933 -1.0889
  137TIP3    H2  418   5.895   0.105   3.298  1.3045  0.6618  0.4974
  138TIP3   OH2  419   3.443   1.351   1.014  0.4622 -0.3503  0.0908
  138TIP3    H1  420   3.526   1.398   1.005  0.2714 -0.0370 -0.0467
  138TIP3    H2  421   3.424   1.320   0.925 -1.4535  2.7926 -0.7160
  139TIP3   OH2  422   5.606   4.217   2.818 -0.1478  0.2199 -0.3331
  139TIP3    H1  423   5.517   4.189   2.798  0.1176 -0.9951  0.0868
  139TIP3    H2  424   5.653   4.135   2.837  0.7776  0.9360  0.5596
  140TIP3   OH2  425   4.128   3.043   1.482 -0.6960  0.4459 -0.3626
  140TIP3    H1  426   4.115   3.110   1.415  0.4852  1.9076  0.7952
  140TIP3    H2  427   4.221   3.049   1.503 -0.4485 -1.9181 -0.5401
  141TIP3   OH2  428   4.305   4.034   3.644 -0.0410  0.5237  0.1703
  141TIP3    H1  429   4.345   3.963   3.592 -0.9918 -0.4568  0.7404
  141TIP3    H2  430   4.233   3.992   3.691  1.4800  1.0874  3.2532
  142TIP3   OH2  431   3.313   0.632   5.069  0.0570 -0.2784  0.4158
  142TIP3    H1  432   3.365   0.562   5.031  0.6149 -0.2130  1.0251
  142TIP3    H2  433   3.263   0.590   5.139 -0.6970 -0.3364 -0.1541
  143TIP3   OH2  434   1.359   2.127   4.074  0.0414  0.3476 -0.8232
  143TIP3    H1  435   1.352   2.209   4.026 -0.6198  0.9141  0.1895
  143TIP3    H2  436   1.279   2.124   4.127  0.8296 -0.1332  0.3892
  144TIP3   OH2  437   1.049   2.353   3.703 -0.0335 -0.2588  0.0659
  144TIP3    H1  438   1.129   2.302   3.718 -0.3664 -1.3385 -1.5153
  144TIP3    H2  439   0.978   2.289   3.716 -0.4823 -0.1085 -1.4883
  145TIP3   OH2  440   1.889   5.133   1.705 -0.9918  0.1175 -0.5583
  145TIP3    H1  441   1.964   5.159   1.651 -0.4917  1.3174  0.6625
  145TIP3    H2  442   1.924   5.129   1.794 -2.1355 -0.4120 -0.1097
  146TIP3   OH2  443   3.524   5.277   2.485  0.2377 -0.4774 -0.3775
  146TIP3    H1  444   3.559   5.221   2.415  0.1847 -0.8898 -0.0763
  146TIP3    H2  445   3.493   5.216   2.551 -0.7837 -0.1116 -0.5019
  147TIP3   OH2  446   4.570   5.212   1.345  0.6350 -0.3467 -0.2903
  147TIP3    H1  447   4.648   5.251   1.384  1.1885 -1.8924  0.2353
  147TIP3    H2  448   4.586   5.213   1.251 -0.2785  2.5216 -0.4980
  148TIP3   OH2  449   5.138   4.396   1.185 -0.8344  0.6982 -0.3433
  148TIP3    H1  450   5.207   4.390   1.119 -0.2117  0.7355  0.2908
  148TIP3    H2  451   5.174   4.454   1.252 -1.4785  0.7072 -0.0014
  149TIP3   OH2  452   5.181   3.040   0.224  0.4244  0.3618  0.6431
  149TIP3    H1  453   5.211   2.963   0.272 -0.4426  0.2758  1.0763
  149TIP3    H2  454   5.131   3.004   0.151 -1.9092  0.4570  2.0861
  150TIP3   OH2  455   0.195   4.312   2.909  0.0353  0.2074 -0.2362
  150TIP3    H1  456   0.172   4.235   2.961  2.2053 -0.0616  0.4477
  150TIP3    H2  457   0.207   4.382   2.973  1.1547  0.2901 -0.5152
  151TIP3   OH2  458   0.006   0.181   5.070 -0.2532  0.0155  0.5079
  151TIP3    H1  459   0.067   0.252   5.091  0.3297 -0.5548  0.7485
  151TIP3    H2  460  -0.031   0.155   5.154 -3.3043  2.5029  0.1211
  152TIP3   OH2  461   2.670   5.842   0.831  0.3317  0.0543  0.4619
  152TIP3    H1  462   2.706   5.905   0.892 -4.0038  2.1342  1.2766
  152TIP3    H2  463   2.648   5.766   0.885 -2.8348  1.6143  1.6271
  153TIP3   OH2  464   2.684   3.222   0.306 -0.0226 -0.0304 -0.0613
  153TIP3    H1  465   2.626   3.264   0.370 -0.8237  1.6929 -1.7946
  153TIP3    H2  466   2.761   3.278   0.304  0.7026 -0.9770  0.5006
  154TIP3   OH2  467   3.077   1.163   0.464  0.3765 -0.2367 -0.3080
  154TIP3    H1  468   3.139   1.193   0.530  0.1505  1.2965 -0.7565
  154TIP3    H2  469   2.991   1.192   0.497  0.3318  1.1832 -1.5764
  155TIP3   OH2  470   2.040   1.204   0.975  0.4858 -0.3045 -0.1417
  155TIP3    H1  471   2.068   1.126   1.023 -0.5203 -0.0162  0.9397
  155TIP3    H2  472   1.946   1.209   0.989  0.5729  1.2714  0.0402
  156TIP3   OH2  473   2.952   4.287   1.305  0.1806 -0.3504 -0.3245
  156TIP3    H1  474   2.938   4.216   1.243 -3.1713 -0.9035  0.8432
  156TIP3    H2  475   2.959   4.366   1.250 -0.7348 -1.0590 -1.5151
  157TIP3   OH2  476   0.028   5.004   0.640 -0.2285  0.0577 -0.4324
  157TIP3    H1  477   0.031   5.099   0.632 -0.8865  0.1775  0.6432
  157TIP3    H2  478   0.113   4.975   0.606  0.8294  1.1730  1.1149
  158TIP3   OH2  479   4.658   0.214   2.757 -0.5397 -0.0933 -0.2631
  158TIP3    H1  480   4.605   0.234   2.681 -0.4668  0.6021 -0.1328
  158TIP3    H2  481   4.707   0.294   2.775 -0.6777 -0.1945  0.6138
  159TIP3   OH2  482   0.825   0.239   4.215 -0.1912 -0.3730  0.1869
  159TIP3    H1  483   0.742   0.276   4.242  0.9290  0.8685  2.1328
  159TIP3    H2  484   0.817   0.145   4.232 -0.5499 -0.0111  2.2213
  160TIP3   OH2  485   2.427   2.113   4.569  0.0247 -0.1146 -0.1371
  160TIP3    H1  486   2.438   2.195   4.617 -0.3541  0.6562 -1.3231
  160TIP3    H2  487   2.356   2.068   4.615 -1.0387  1.0747 -0.5451
  161TIP3   OH2  488   4.031   1.226   4.123  0.5680 -0.2262 -0.2134
  161TIP3    H1  489   4.092   1.299   4.138  2.6108 -2.1161  1.5359
  161TIP3    H2  490   3.988   1.214   4.208 -0.5871 -0.3743 -0.8070
  162TIP3   OH2  491   4.498   5.988   4.004  1.2233 -0.4005 -0.0077
  162TIP3    H1  492   4.482   5.898   3.974  0.7891  0.4476 -2.5477
  162TIP3    H2  493   4.519   6.037   3.924 -2.5132  2.6340  0.5536
  163TIP3   OH2  494   3.609   0.955   4.484  0.0343 -0.3085  0.0100
  163TIP3    H1  495   3.611   0.894   4.410 -1.7028 -1.7089  1.0157
  163TIP3    H2  496   3.577   0.902   4.557  2.4021  0.8157  2.0055
  164TIP3   OH2  497   6.070   5.867   4.793 -0.0038  0.0021  0.7252
  164TIP3    H1  498   6.020   5.822   4.725  1.8833  1.4886 -1.8369
  164TIP3    H2  499   6.156   5.824   4.790  1.6753  3.1102 -1.4111
  165TIP3   OH2  500   2.767   5.025   2.083  0.5804  0.5014 -0.3600
  165TIP3    H1  501   2.847   5.069   2.054  0.4562  1.2855  0.4415
  165TIP3    H2  502   2.696   5.082   2.053  0.4400  1.1522  1.1374
  166TIP3   OH2  503   3.879   1.814   4.859 -0.1559 -0.2995 -0.1218
  166TIP3    H1  504   3.806   1.754   4.839  0.8950 -1.7265  0.1639
  166TIP3    H2  505   3.904   1.850   4.774 -1.6723  0.8472 -0.1412
  167TIP3   OH2  506   4.989   0.685   4.645 -0.1563  0.1730 -0.0568
  167TIP3    H1  507   5.035   0.752   4.594 -0.0144  1.1254  1.2510
  167TIP3    H2  508   4.910   0.728   4.676 -0.9304 -0.8252 -0.6035
  168TIP3   OH2  509   1.365   4.631   0.360  0.9010 -0.2356  0.9748
  168TIP3    H1  510   1.428   4.659   0.427  2.8691 -0.9104 -0.5118
  168TIP3    H2  511   1.358   4.706   0.301  3.2081 -1.3366 -0.8646
  169TIP3   OH2  512   4.859   2.809   1.433 -0.1675  0.5148  0.4353
  169TIP3    H1  513   4.952   2.830   1.438  0.3410 -0.8769 -1.6283
  169TIP3    H2  514   4.845   2.742   1.500  1.5349 -2.7822 -2.1727
  170TIP3   OH2  515   3.603   3.807   4.496 -0.1442  0.2654  0.4020
  170TIP3    H1  516   3.511   3.795   4.518 -0.6773 -0.0210 -1.7093
  170TIP3    H2  517   3.620   3.901   4.511 -0.8811  0.3884  0.4634
  171TIP3   OH2  518   6.326   3.685   3.245  0.5679  0.1966  0.1096
  171TIP3    H1  519   6.317   3.640   3.328 -0.5149 -0.6987 -0.4659
  171TIP3    H2  520   6.260   3.645   3.188  0.0102  2.0324 -0.6392
  172TIP3   OH2  521   1.689   2.459   0.557 -0.1790 -0.5449  0.4908
  172TIP3    H1  522   1.632   2.523   0.600  0.8436  0.3869  0.4890
  172TIP3    H2  523   1.670   2.376   0.601  0.2946  0.2310  2.2129
  173TIP3   OH2  524   4.187   4.183   4.171 -0.0194 -0.4832 -0.0496
  173TIP3    H1  525   4.113   4.176   4.112 -0.6970 -0.4989  0.7871
  173TIP3    H2  526   4.214   4.092   4.187 -0.1460 -0.5025  0.0516
  174TIP3   OH2  527   1.575   4.476   3.105  0.4181  0.5440 -0.3412
  174TIP3    H1  528   1.516   4.420   3.156  3.4036 -1.1642  1.5687
  174TIP3    H2  529   1.579   4.434   3.019 -0.4109  0.1342 -0.1916
  175TIP3   OH2  530   3.928   5.364   0.613  0.3891 -0.1980  0.1601
  175TIP3    H1  531   3.996   5.326   0.669 -0.7914 -1.7577  0.5903
  175TIP3    H2  532   3.947   5.331   0.525  0.5146 -0.1662  0.1753
  176TIP3   OH2  533   2.588   4.523   3.872 -0.3141  0.0126 -0.2221
  176TIP3    H1  534   2.670   4.492   3.835  0.8291  0.7466  1.5495
  176TIP3    H2  535   2.595   4.619   3.870 -1.4556  0.1050 -0.7070
  177TIP3   OH2  536   5.205   4.219   0.904  0.6833  0.1768  0.1636
  177TIP3    H1  537   5.236   4.189   0.819 -1.9321 -0.0484 -0.7859
  177TIP3    H2  538   5.230   4.312   0.907  1.9021 -0.1177 -0.2651
  178TIP3   OH2  539   4.674   2.820   4.034 -0.3559 -0.3624  0.3068
  178TIP3    H1  540   4.700   2.777   4.115  2.5926  0.9350  0.1749
  178TIP3    H2  541   4.720   2.772   3.965 -1.0540 -0.0754 -0.3827
  179TIP3   OH2  542   6.083   3.522   0.107 -0.5239 -0.4213 -0.2868
  179TIP3    H1  543   6.107   3.431   0.091 -0.3671 -0.1129 -2.0682
  179TIP3    H2  544   6.164   3.571   0.091 -0.8299  0.1042 -0.2664
  180TIP3   OH2  545   5.495   0.470   1.362 -0.1158  0.6554 -0.0405
  180TIP3    H1  546   5.471   0.520   1.284  0.1103 -0.1216 -0.6167
  180TIP3    H2  547   5.591   0.473   1.363 -0.1285  1.1020  0.5070
  181TIP3   OH2  548   3.737   5.180   3.103  0.3382  0.5214 -0.1309
  181TIP3    H1  549   3.671   5.116   3.077  1.7909 -1.0579 -0.1595
  181TIP3    H2  550   3.702   5.264   3.074 -0.5820 -0.5317 -2.3296
  182TIP3   OH2  551   2.080   4.821   4.182  0.1586  0.4091  0.4651
  182TIP3    H1  552   2.172   4.806   4.160  0.0286  0.2515  0.0208
  182TIP3    H2  553   2.066   4.772   4.263 -0.0272 -1.2098 -0.4876
  183TIP3   OH2  554   4.935   3.230   2.858 -0.2531  0.4446  0.4856
  183TIP3    H1  555   4.925   3.317   2.897  1.5268  1.2889 -0.8146
  183TIP3    H2  556   4.873   3.229   2.785 -0.0731  0.7406  0.3257
  184TIP3   OH2  557   2.941   5.892   2.352  0.4126 -0.1700  0.1714
  184TIP3    H1  558   2.947   5.976   2.398  1.9308  0.2807 -0.7664
  184TIP3    H2  559   2.853   5.892   2.315  0.6114  1.3732 -0.4121
  185TIP3   OH2  560   0.864   3.252   1.756 -0.0088  0.5800  0.1251
  185TIP3    H1  561   0.817   3.270   1.675 -0.0577  1.5887  0.3679
  185TIP3    H2  562   0.801   3.203   1.809 -0.1947  0.4646 -0.1993
  186TIP3   OH2  563   2.462   0.740   1.703 -0.4540  0.3423  0.5619
  186TIP3    H1  564   2.508   0.820   1.730 -0.3566  0.0569  1.2486
  186TIP3    H2  565   2.417   0.711   1.782  0.6331 -1.0575  0.7027
  187TIP3   OH2  566   2.313   4.062   0.522 -0.2668 -0.1193 -0.2131
  187TIP3    H1  567   2.374   4.013   0.467  0.7675 -0.3791  1.0875
  187TIP3    H2  568   2.255   3.995   0.559 -0.0049 -0.1415  0.1636
  188TIP3   OH2  569   5.791   0.216   0.795  0.0616  0.5271 -0.2804
  188TIP3    H1  570   5.765   0.128   0.766  1.9177 -0.2958  0.4168
  188TIP3    H2  571   5.850   0.200   0.868 -0.1635  2.4047  0.3491
  189TIP3   OH2  572   4.477   2.702   1.532 -0.4652 -0.3859 -0.5654
  189TIP3    H1  573   4.398   2.665   1.492 -1.2142  0.3395  0.2293
  189TIP3    H2  574   4.546   2.639   1.511 -1.4848 -1.6365 -0.2442
  190TIP3   OH2  575   5.305   1.786   0.402  0.1170  0.0954  0.4698
  190TIP3    H1  576   5.221   1.739   0.407  1.5301 -2.6789  0.0017
  190TIP3    H2  577   5.340   1.763   0.316  0.3004  3.3158 -0.4462
  191TIP3   OH2  578   3.543   3.150   1.693 -0.6686  0.3509 -0.1837
  191TIP3    H1  579   3.550   3.225   1.636  0.1468  0.1264 -0.3948
  191TIP3    H2  580   3.567   3.183   1.780 -1.5939  0.6186 -0.0198
  192TIP3   OH2  581   1.662   1.232   2.602  0.4572 -0.3651  0.3639
  192TIP3    H1  582   1.604   1.196   2.669  0.7054 -0.0625  0.7491
  192TIP3    H2  583   1.746   1.188   2.616  0.4352 -0.5018  0.0737
  193TIP3   OH2  584   1.943   5.687   0.168  0.4912 -0.4605 -0.0628
  193TIP3    H1  585   1.872   5.706   0.107  1.5856  0.6581 -1.0658
  193TIP3    H2  586   1.908   5.621   0.227 -1.8282  1.0393  0.3415
  194TIP3   OH2  587   4.380   2.870   4.678 -0.0826 -0.0575 -0.4075
  194TIP3    H1  588   4.288   2.894   4.690 -0.2350  0.2436 -1.9528
  194TIP3    H2  589   4.427   2.922   4.744 -0.8800  0.9580 -0.6064
  195TIP3   OH2  590   0.486   1.417   1.132  0.5158  0.5337 -0.2813
  195TIP3    H1  591   0.542   1.483   1.174  2.0243 -0.2306 -1.0301
  195TIP3    H2  592   0.455   1.460   1.052  0.4266  0.7941 -0.1090
  196TIP3   OH2  593   3.977   3.488   1.160  0.1526 -0.4717  0.4178
  196TIP3    H1  594   3.985   3.559   1.223  1.0209  1.6543 -1.9456
  196TIP3    H2  595   3.899   3.510   1.109  1.4876 -0.1426 -1.5645
  197TIP3   OH2  596   4.332   3.978   2.889  0.4632 -0.1041 -0.4986
  197TIP3    H1  597   4.306   3.927   2.965  1.2342 -1.4483 -1.1002
  197TIP3    H2  598   4.330   3.916   2.816 -1.5253  1.4252 -1.8683
  198TIP3   OH2  599   3.412   5.398   0.021  0.3523  0.1623  0.0056
  198TIP3    H1  600   3.351   5.454   0.068  0.5049  0.8795 -0.6379
  198TIP3    H2  601   3.478   5.375   0.086  0.6438  1.2643  0.1112
  199TIP3   OH2  602   2.227   1.894   1.956 -0.0629 -0.2852  0.4048
  199TIP3    H1  603   2.232   1.799   1.956  1.2059 -0.2628 -1.8363
  199TIP3    H2  604   2.151   1.914   1.901 -1.0725  0.0395  1.8409
  200TIP3   OH2  605   1.049   4.991   2.677  0.3189  0.6911 -0.3586
  200TIP3    H1  606   1.120   5.046   2.644  1.2233 -0.4128 -0.3182
  200TIP3    H2  607   1.020   4.941   2.600 -0.7956  1.5068 -0.4950
  201TIP3   OH2  608   5.727   5.524   0.133 -0.0292 -0.4171 -0.1853
  201TIP3    H1  609   5.671   5.601   0.125 -0.8045 -0.7325  1.5748
  201TIP3    H2  610   5.809   5.549   0.092 -0.3944  1.2300  0.0312
  202TIP3   OH2  611   3.687   2.732   3.010 -0.0102  0.0448  0.3631
  202TIP3    H1  612   3.661   2.640   3.009  1.1040 -0.3006  0.9870
  202TIP3    H2  613   3.736   2.742   3.092 -0.6857  1.3636  0.6387
  203TIP3   OH2  614   4.117   4.347   0.491 -0.1663 -0.0408  0.0342
  203TIP3    H1  615   4.150   4.278   0.550 -1.2155  1.0067  1.9386
  203TIP3    H2  616   4.195   4.396   0.465  0.1208  1.5249  3.3300
  204TIP3   OH2  617   3.086   1.331   2.688 -0.1683  0.5649 -0.7743
  204TIP3    H1  618   3.177   1.315   2.710 -0.0657  0.0855 -1.5524
  204TIP3    H2  619   3.088   1.374   2.603 -0.7117 -0.6612 -1.4373
  205TIP3   OH2  620   4.709   5.583   4.679  0.2692  0.6554  1.1691
  205TIP3    H1  621   4.685   5.671   4.648 -0.7113  1.0621  2.9266
  205TIP3    H2  622   4.625   5.540   4.696  0.7407 -0.6476  0.3414
  206TIP3   OH2  623   1.470   3.934   3.596  0.2019  0.9600 -0.0258
  206TIP3    H1  624   1.540   3.981   3.551  0.8751  0.1110  0.0984
  206TIP3    H2  625   1.416   4.003   3.635  1.7832  1.6366  1.0955
  207TIP3   OH2  626   3.207   1.378   5.146  0.2953 -0.0048  0.0353
  207TIP3    H1  627   3.170   1.368   5.058 -0.7581  0.9080  0.3459
  207TIP3    H2  628   3.248   1.464   5.144  0.2499  0.0253  0.4344
  208TIP3   OH2  629   5.846   2.549   1.773 -0.0896  0.3559 -0.3135
  208TIP3    H1  630   5.891   2.631   1.753 -0.2003  1.3548  2.9751
  208TIP3    H2  631   5.759   2.576   1.804  0.3598 -0.7715  2.1952
  209TIP3   OH2  632   1.799   0.779   4.164  0.3964  0.3377  0.9278
  209TIP3    H1  633   1.869   0.738   4.113 -0.4957 -0.9025  0.6562
  209TIP3    H2  634   1.819   0.872   4.162  1.7650  0.0533  0.4483
  210TIP3   OH2  635   2.453   1.556   4.220 -0.0685 -0.0870  0.5934
  210TIP3    H1  636   2.448   1.550   4.125  2.1055 -1.0078  0.4836
  210TIP3    H2  637   2.429   1.646   4.240 -0.6481  0.0895 -0.7958
  211TIP3   OH2  638   5.726   3.128   2.220 -0.1822 -0.3475 -0.1485
  211TIP3    H1  639   5.664   3.198   2.242 -0.8257 -1.5199  2.0509
  211TIP3    H2  640   5.692   3.091   2.138 -2.3622 -0.8406  0.8954
  212TIP3   OH2  641   2.134   2.988   3.000  0.6041 -0.3716 -0.3647
  212TIP3    H1  642   2.211   3.016   2.951  0.4478 -1.1272 -1.0727
  212TIP3    H2  643   2.067   2.975   2.933  0.6818 -2.4629 -0.1138
  213TIP3   OH2  644   1.538   1.195   3.700  0.1098  0.2647  0.2683
  213TIP3    H1  645   1.572   1.229   3.617  1.1197 -0.3111  0.4279
  213TIP3    H2  646   1.462   1.142   3.675  0.2556  0.3036 -0.2612
  214TIP3   OH2  647   6.143   0.352   3.596 -0.1557 -0.0792 -0.9683
  214TIP3    H1  648   6.235   0.372   3.607 -0.3322  2.0888 -2.7235
  214TIP3    H2  649   6.142   0.276   3.538  0.5256  0.0418 -1.1421
  215TIP3   OH2  650   5.264   0.670   2.723  0.3571  0.0158 -0.5641
  215TIP3    H1  651   5.346   0.713   2.697  0.3645  0.4809  0.2137
  215TIP3    H2  652   5.256   0.687   2.816 -1.6260  1.6749 -0.9603
  216TIP3   OH2  653   2.209   2.122   3.012  0.1588 -0.9269 -0.0267
  216TIP3    H1  654   2.194   2.072   2.932 -0.7673  0.4202 -0.7439
  216TIP3    H2  655   2.267   2.193   2.985 -1.3004  0.3757  0.1182
  217TIP3   OH2  656   0.427   5.792   1.086 -0.4414 -0.8816 -0.0910
  217TIP3    H1  657   0.386   5.718   1.130 -0.6998 -0.5540  0.2198
  217TIP3    H2  658   0.379   5.800   1.003 -2.2996  0.6613  1.0507
  218TIP3   OH2  659   1.171   2.328   0.907 -0.3244  0.4388  0.0352
  218TIP3    H1  660   1.140   2.389   0.975  3.0065 -0.2709  2.4429
  218TIP3    H2  661   1.120   2.249   0.922 -0.6876  0.7830  0.7080
  219TIP3   OH2  662   6.152   4.089   0.749  0.4309 -0.3108 -0.2074
  219TIP3    H1  663   6.082   4.114   0.809  0.6795 -0.1132  0.0033
  219TIP3    H2  664   6.115   4.100   0.662  0.4145  0.4298 -0.1110
  220TIP3   OH2  665   4.635   2.666   4.722  0.1665 -0.2325  0.5018
  220TIP3    H1  666   4.619   2.576   4.747 -1.6664  0.7603  3.4085
  220TIP3    H2  667   4.590   2.677   4.639 -0.7673 -1.6625  0.7942
  221TIP3   OH2  668   0.705   0.892   2.563  0.2665  0.0688  0.0213
  221TIP3    H1  669   0.782   0.914   2.510 -0.6230 -0.5752 -1.6005
  221TIP3    H2  670   0.631   0.924   2.512 -0.6751 -1.3587  0.4495
  222TIP3   OH2  671   0.698   4.803   4.956  0.1689 -0.0526  0.5868
  222TIP3    H1  672   0.770   4.854   4.919  0.5461 -0.4131  0.8139
  222TIP3    H2  673   0.716   4.802   5.051  0.2317 -0.6938  0.5719
  223TIP3   OH2  674   5.281   4.677   4.853  0.3927  0.2197 -0.1528
  223TIP3    H1  675   5.311   4.652   4.765  2.1051 -0.1972  0.4986
  223TIP3    H2  676   5.214   4.744   4.838 -1.8375 -2.2013 -1.8591
  224TIP3   OH2  677   1.107   0.546   5.206  0.8528  0.4658 -0.0757
  224TIP3    H1  678   1.026   0.580   5.244  0.5074 -0.1057 -0.2727
  224TIP3    H2  679   1.092   0.551   5.111  0.6868 -0.4425 -0.1123
  225TIP3   OH2  680   4.673   2.745   0.810  0.1521  0.1052 -0.1734
  225TIP3    H1  681   4.748   2.697   0.847  0.4483 -0.2280 -1.1575
  225TIP3    H2  682   4.596   2.702   0.848  0.4490  0.6634  1.1044
  226TIP3   OH2  683   5.769   0.098   2.165 -0.2264 -0.2002 -0.1241
  226TIP3    H1  684   5.849   0.143   2.194 -1.5451  3.4393 -1.5409
  226TIP3    H2  685   5.791   0.061   2.080  0.0252  0.7047 -0.4643
  227TIP3   OH2  686   5.092   1.990   3.631  0.1939 -0.2835 -0.3211
  227TIP3    H1  687   5.066   2.061   3.689  0.6411 -0.5391  0.1938
  227TIP3    H2  688   5.025   1.923   3.643 -0.7759  0.4283 -1.5349
  228TIP3   OH2  689   2.674   4.772   2.093 -0.0996 -0.1814 -0.0725
  228TIP3    H1  690   2.741   4.725   2.044  0.1769  0.5802 -0.4416
  228TIP3    H2  691   2.703   4.864   2.091 -0.0012 -0.1490  1.6453
  229TIP3   OH2  692   2.382   5.329   0.343 -0.7999 -0.3737  0.2719
  229TIP3    H1  693   2.369   5.240   0.310 -0.3578 -0.9039  1.4772
  229TIP3    H2  694   2.351   5.386   0.271 -0.7047 -1.4777 -0.6728
  230TIP3   OH2  695   4.426   4.308   4.172  0.3732 -0.1720  0.5408
  230TIP3    H1  696   4.447   4.301   4.266  0.7628 -0.1837  0.4561
  230TIP3    H2  697   4.338   4.273   4.164  1.0980 -2.1514  0.5866
  231TIP3   OH2  698   5.359   5.947   1.114 -0.4877  0.3012 -0.4629
  231TIP3    H1  699   5.361   5.967   1.208  1.7080 -1.2374 -0.1250
  231TIP3    H2  700   5.305   5.868   1.108 -1.2148  0.7945 -0.6225
  232TIP3   OH2  701   1.953   5.074   2.803  0.0023  0.1116 -0.1835
  232TIP3    H1  702   1.899   5.078   2.881  1.1910 -1.3750  0.7913
  232TIP3    H2  703   1.901   5.023   2.741 -0.1016 -0.5187  0.4087
  233TIP3   OH2  704   5.108   4.896   1.953 -0.1607 -0.5781  0.3099
  233TIP3    H1  705   5.067   4.855   1.877 -1.4499 -0.8027  1.1026
  233TIP3    H2  706   5.202   4.882   1.940 -0.3905 -1.0404 -0.9839
  234TIP3   OH2  707   5.545   0.313   4.529  0.2318  0.1748 -0.3722
  234TIP3    H1  708   5.603   0.382   4.496  0.1061  1.2010  1.3966
  234TIP3    H2  709   5.565   0.237   4.475  1.9045  1.0093 -1.0168
  235TIP3   OH2  710   1.892   4.227   0.161 -0.0258 -0.0349 -0.0147
  235TIP3    H1  711   1.898   4.310   0.207  2.6233  0.1556 -0.5500
  235TIP3    H2  712   1.926   4.246   0.073  0.0912 -1.5546 -0.3281
  236TIP3   OH2  713   0.481   5.839   3.817  0.1550  0.1218  0.1813
  236TIP3    H1  714   0.537   5.763   3.799 -0.0186 -0.0917  0.5445
  236TIP3    H2  715   0.456   5.871   3.730 -0.1082 -0.4813  0.0324
  237TIP3   OH2  716   3.356   4.881   1.759 -0.1999  0.2869  0.4797
  237TIP3    H1  717   3.360   4.964   1.807 -0.2018  1.0588 -0.8070
  237TIP3    H2  718   3.327   4.817   1.824  0.4481  1.1550  1.6715
  238TIP3   OH2  719   5.757   0.067   1.612  0.2635 -0.3114  0.0283
  238TIP3    H1  720   5.802  -0.013   1.587 -0.8303 -0.7058 -0.7692
  238TIP3    H2  721   5.813   0.138   1.579  0.4094 -0.7830 -0.7590
  239TIP3   OH2  722   2.832   4.060   0.064 -0.1453 -0.1979  0.3797
  239TIP3    H1  723   2.910   4.055   0.118  0.5134 -1.8505 -0.6378
  239TIP3    H2  724   2.781   3.982   0.087 -0.8604  0.1796  0.1182
  240TIP3   OH2  725   1.730   0.655   0.071  0.0293  0.2092  0.4928
  240TIP3    H1  726   1.679   0.617   0.143  0.0223  0.6727  0.7400
  240TIP3    H2  727   1.748   0.745   0.100  0.1240  0.3624 -0.0373
  241TIP3   OH2  728   3.317   4.190   3.771  0.0819 -0.3430  0.5854
  241TIP3    H1  729   3.341   4.199   3.679  2.1791  0.6247  1.1629
  241TIP3    H2  730   3.319   4.095   3.787  3.5444 -0.4066  0.4797
  242TIP3   OH2  731   4.370   1.425   2.795 -0.0504  0.2527  0.3640
  242TIP3    H1  732   4.380   1.341   2.750 -0.9359 -0.7113  1.8524
  242TIP3    H2  733   4.435   1.482   2.754 -0.1955 -0.8122 -1.4570
  243TIP3   OH2  734   4.297   1.795   2.223 -0.1047 -1.2881 -0.3472
  243TIP3    H1  735   4.212   1.806   2.180  0.4956  0.2194 -1.2323
  243TIP3    H2  736   4.360   1.796   2.152  0.8933  0.8049  0.4900
  244TIP3   OH2  737   2.088   3.311   4.788 -1.0292  0.3438 -0.1528
  244TIP3    H1  738   2.113   3.397   4.752  0.7575 -0.2505 -0.4152
  244TIP3    H2  739   2.075   3.256   4.711 -0.4199 -0.0782  0.0446
  245TIP3   OH2  740   3.859   0.731   3.770 -0.6139  0.0050 -0.0131
  245TIP3    H1  741   3.889   0.691   3.689 -1.3078 -0.6865  0.0633
  245TIP3    H2  742   3.802   0.802   3.742  1.5621  1.7821 -0.1778
  246TIP3   OH2  743   3.885   2.934   0.983  0.2725  0.5786 -0.1653
  246TIP3    H1  744   3.917   2.962   0.897  0.6670  0.7665  0.0335
  246TIP3    H2  745   3.963   2.940   1.039  0.1786 -0.1886  0.0574
  247TIP3   OH2  746   1.944   2.533   4.836 -0.2575 -0.5944 -0.7726
  247TIP3    H1  747   2.034   2.538   4.804  0.2025  0.5079  0.5840
  247TIP3    H2  748   1.904   2.616   4.810 -0.9207 -1.1027 -1.4192
  248TIP3   OH2  749   3.076   0.606   4.098  0.4271  0.1674 -0.1463
  248TIP3    H1  750   3.035   0.549   4.032 -0.4239 -0.2564  0.7159
  248TIP3    H2  751   3.119   0.545   4.159  1.9077  0.5887 -0.7348
  249TIP3   OH2  752   0.417   0.359   2.436  0.1521  0.5762  0.1316
  249TIP3    H1  753   0.332   0.398   2.458  0.5331  1.0852  0.7513
  249TIP3    H2  754   0.399   0.302   2.361 -0.9855 -0.2979  1.0151
  250TIP3   OH2  755   4.674   4.960   4.461  0.1261 -0.0528  0.1825
  250TIP3    H1  756   4.742   4.897   4.487 -0.1212 -0.4128 -0.0401
  250TIP3    H2  757   4.599   4.940   4.516 -0.0127 -0.0665 -0.0096
  251TIP3   OH2  758   4.065   5.108   2.579  0.4792  0.4518  0.8577
  251TIP3    H1  759   4.121   5.121   2.655  0.7404  1.1890  0.5453
  251TIP3    H2  760   3.996   5.050   2.610  0.9109  0.2703  1.4944
  252TIP3   OH2  761   3.155   5.315   1.801 -0.2548 -0.8358  0.4726
  252TIP3    H1  762   3.157   5.278   1.712  0.0360  1.9154 -0.7527
  252TIP3    H2  763   3.210   5.256   1.852  1.1923 -1.4397 -1.6311
  253TIP3   OH2  764   0.109   4.083   3.718 -0.7422  0.4662 -0.4205
  253TIP3    H1  765   0.196   4.092   3.756 -0.5330 -1.3880 -0.3695
  253TIP3    H2  766   0.049   4.112   3.787 -0.2667 -0.8422  0.5821
  254TIP3   OH2  767   1.740   0.100   1.945 -0.1803 -0.9338  0.4870
  254TIP3    H1  768   1.668   0.163   1.941  0.4530 -0.2204 -0.0491
  254TIP3    H2  769   1.747   0.066   1.856  0.5863 -0.4787  0.3619
  255TIP3   OH2  770   0.248   0.296   2.765  0.1301  0.8077  0.0090
  255TIP3    H1  771   0.304   0.220   2.745  0.2533  1.3250 -1.7658
  255TIP3    H2  772   0.231   0.336   2.680 -2.8666  0.7494  0.4763
  256TIP3   OH2  773   3.770  -0.004   3.813  0.3063  0.4601 -0.3755
  256TIP3    H1  774   3.819   0.076   3.834 -2.9327  2.3840  0.4936
  256TIP3    H2  775   3.728  -0.029   3.895 -1.6061  0.0120 -1.4341
  257TIP3   OH2  776   0.592   0.491   1.274  0.2341  0.3002  0.8172
  257TIP3    H1  777   0.515   0.500   1.219  0.3580  1.2138  0.7644
  257TIP3    H2  778   0.563   0.436   1.347 -0.0609 -0.5211  0.0943
  258TIP3   OH2  779   2.168   2.597   3.039  0.5645  0.0330  0.3734
  258TIP3    H1  780   2.074   2.582   3.040  0.5912 -0.4361 -1.3781
  258TIP3    H2  781   2.202   2.531   2.978  1.7031  1.8502 -1.0488
  259TIP3   OH2  782   1.765   0.319   5.036 -0.2575  0.2318  0.4987
  259TIP3    H1  783   1.858   0.320   5.056  0.0323  0.7682 -0.8083
  259TIP3    H2  784   1.747   0.404   4.996 -0.9630 -0.4470 -0.7009
  260TIP3   OH2  785   0.081   3.674   0.912  0.4436  0.0617 -0.1790
  260TIP3    H1  786  -0.004   3.631   0.899  1.4599 -1.9697 -0.5749
  260TIP3    H2  787   0.062   3.748   0.969 -1.4665 -0.8534  0.4600
  261TIP3   OH2  788   4.094   1.330   3.750  0.3269  0.1984 -0.4470
  261TIP3    H1  789   4.121   1.243   3.722  0.2805 -0.4563  1.3678
  261TIP3    H2  790   4.174   1.383   3.746  1.1373 -0.7935  1.4770
  262TIP3   OH2  791   3.656   4.363   0.386  0.0774 -0.6619  0.4915
  262TIP3    H1  792   3.731   4.417   0.360  0.1212 -1.5413 -1.3826
  262TIP3    H2  793   3.695   4.279   0.410 -0.2324 -0.8337  0.3913
  263TIP3   OH2  794   4.229   1.212   0.728  0.0868  0.4219  0.4078
  263TIP3    H1  795   4.287   1.136   0.722  1.3885  1.4027  0.2148
  263TIP3    H2  796   4.279   1.277   0.776 -0.6366  1.5078 -0.2670
  264TIP3   OH2  797   1.603   5.528   1.518  0.2761  0.0774 -0.0254
  264TIP3    H1  798   1.656   5.458   1.556 -1.2649 -1.3389 -0.3385
  264TIP3    H2  799   1.616   5.519   1.424 -0.6828 -0.4747 -0.1236
  265TIP3   OH2  800   2.779   0.272   3.453 -0.4011 -0.0501 -0.0965
  265TIP3    H1  801   2.856   0.245   3.403 -1.0171  1.2323 -1.8410
  265TIP3    H2  802   2.777   0.212   3.527  0.9938 -1.5751 -1.2069
  266TIP3   OH2  803   5.551   4.291   1.994  0.3630 -0.0971 -0.0710
  266TIP3    H1  804   5.646   4.285   1.988  0.4783  0.5310  0.9753
  266TIP3    H2  805   5.535   4.372   2.042 -0.7386  0.5337 -1.4197
  267TIP3   OH2  806   6.069   2.033   0.911 -0.1472  0.1223  0.3519
  267TIP3    H1  807   6.004   1.978   0.867  0.6420  0.7808 -1.7694
  267TIP3    H2  808   6.018   2.097   0.960 -1.0726 -0.8250  0.6612
  268TIP3   OH2  809   2.818   3.411   2.368  0.1132  0.1846  0.2359
  268TIP3    H1  810   2.762   3.440   2.439 -1.3956 -0.7860 -0.5011
  268TIP3    H2  811   2.759   3.366   2.308  1.6322 -0.5406 -0.7772
  269TIP3   OH2  812   5.496   3.090   0.320 -0.0194 -0.0172  0.3093
  269TIP3    H1  813   5.428   3.071   0.255 -0.4647  2.0019  0.1206
  269TIP3    H2  814   5.567   3.129   0.269 -0.2444  1.2844  0.9648
  270TIP3   OH2  815   1.794   1.731   2.036  0.2386  0.5670  0.2812
  270TIP3    H1  816   1.812   1.824   2.047  0.0557  0.7352 -0.6868
  270TIP3    H2  817   1.782   1.697   2.124 -0.5689  1.6419  0.6023
  271TIP3   OH2  818   6.298   1.106   1.448  0.1827  0.0636  0.2350
  271TIP3    H1  819   6.358   1.151   1.507  3.1631 -1.8150 -1.1064
  271TIP3    H2  820   6.346   1.101   1.365 -0.9215 -3.3120 -0.3600
  272TIP3   OH2  821   4.992   4.864   1.350 -0.5410 -0.0606  0.1377
  272TIP3    H1  822   4.958   4.794   1.294 -0.5941  0.4780 -0.5137
  272TIP3    H2  823   4.964   4.944   1.307 -0.3113  0.3665  0.7760
  273TIP3   OH2  824   2.138   1.846   2.885  0.0806 -0.1657  0.2009
  273TIP3    H1  825   2.201   1.787   2.843  0.5276 -0.8630  1.8060
  273TIP3    H2  826   2.075   1.866   2.816  0.7251 -1.3642 -0.7749
  274TIP3   OH2  827   0.388   1.175   3.249 -0.5661 -0.4990  0.3120
  274TIP3    H1  828   0.466   1.133   3.285 -0.6562  0.6190  1.9103
  274TIP3    H2  829   0.399   1.268   3.268 -1.7772 -0.1781 -0.4145
  275TIP3   OH2  830   1.843   4.157   3.965  0.2611  0.0288 -0.4018
  275TIP3    H1  831   1.871   4.101   4.037 -1.1789  0.2316  0.3336
  275TIP3    H2  832   1.748   4.146   3.961  0.1940  0.8898 -1.5368
  276TIP3   OH2  833   4.730   3.115   0.696  0.1239 -0.3343  0.3811
  276TIP3    H1  834   4.810   3.165   0.706  1.2487 -1.9509 -0.1026
  276TIP3    H2  835   4.723   3.064   0.777 -0.1123 -0.6021  0.1960
  277TIP3   OH2  836   6.384   5.358   0.500  0.2038  0.5375 -0.3731
  277TIP3    H1  837   6.394   5.385   0.591  0.6077  0.4081 -0.3780
  277TIP3    H2  838   6.291   5.337   0.491  0.4976 -1.2756  0.5127
  278TIP3   OH2  839   0.101   3.494   1.126  0.1407  0.1298 -0.0169
  278TIP3    H1  840   0.102   3.560   1.057 -0.1295  1.2760  1.0543
  278TIP3    H2  841   0.009   3.478   1.143  0.2000 -0.6345 -0.3427
  279TIP3   OH2  842   1.942   1.472   1.016 -0.5073 -0.2561 -0.0197
  279TIP3    H1  843   1.991   1.390   1.008  0.4201  0.3568 -0.8822
  279TIP3    H2  844   1.901   1.484   0.931 -0.2131  0.4333 -0.0707
  280TIP3   OH2  845   2.958   0.767   4.532 -0.8401 -0.8653  0.1145
  280TIP3    H1  846   3.009   0.697   4.572 -1.5692 -0.4434  1.8758
  280TIP3    H2  847   3.005   0.847   4.555 -1.2531 -0.6159  0.1017
  281TIP3   OH2  848   1.265   0.844   0.408 -0.1181  0.4061  0.2598
  281TIP3    H1  849   1.188   0.898   0.391 -0.0361  1.0030  1.6337
  281TIP3    H2  850   1.234   0.773   0.463  0.1965  0.2920  0.2942
  282TIP3   OH2  851   2.337   1.252   0.071  0.4916  0.1887 -0.5949
  282TIP3    H1  852   2.359   1.165   0.037 -0.1279 -0.3176  0.2616
  282TIP3    H2  853   2.385   1.258   0.153 -0.2825  0.2294 -0.1363
  283TIP3   OH2  854   4.556   4.597   0.070  0.2429 -0.4322  0.0096
  283TIP3    H1  855   4.640   4.607   0.115  0.8456 -0.3293 -1.0934
  283TIP3    H2  856   4.555   4.505   0.041 -0.2477 -0.5664  0.4394
  284TIP3   OH2  857   5.443   4.766   1.411 -0.1022  0.2475  0.2226
  284TIP3    H1  858   5.472   4.853   1.439 -0.9808  0.4670  0.4690
  284TIP3    H2  859   5.350   4.764   1.431 -0.4213 -0.1936 -1.1853
  285TIP3   OH2  860   4.169   4.311   5.135 -0.0196 -0.0607 -0.0944
  285TIP3    H1  861   4.262   4.327   5.123  0.2216 -2.2333 -1.5839
  285TIP3    H2  862   4.156   4.313   5.230  1.4504  0.6093  0.1168
  286TIP3   OH2  863   5.732   4.486   3.812 -0.0140  0.3614  0.7512
  286TIP3    H1  864   5.646   4.487   3.855  0.5387 -0.0131  1.9225
  286TIP3    H2  865   5.765   4.397   3.827  0.2712  0.2797 -0.3290
  287TIP3   OH2  866   4.800   1.553   4.258  0.7341 -0.2188 -0.6557
  287TIP3    H1  867   4.818   1.586   4.347  1.8891  1.5992 -1.4968
  287TIP3    H2  868   4.838   1.619   4.200 -0.9754 -0.7959 -2.5443
  288TIP3   OH2  869   1.517   1.534   0.783 -0.4320 -0.1262  0.6051
  288TIP3    H1  870   1.553   1.563   0.866 -2.8352 -0.2577  1.7852
  288TIP3    H2  871   1.522   1.438   0.787  0.8755 -0.1012 -0.1116
  289TIP3   OH2  872   3.107   5.157   0.982  0.0577 -0.1559 -0.3275
  289TIP3    H1  873   3.024   5.144   0.935 -0.0011 -0.3014 -0.1844
  289TIP3    H2  874   3.163   5.087   0.950 -0.6796 -1.6180  1.4098
  290TIP3   OH2  875   2.450   0.534   0.610  0.4214  0.0459  0.2427
  290TIP3    H1  876   2.544   0.548   0.603  0.5605 -0.7933  0.3046
  290TIP3    H2  877   2.433   0.530   0.704  0.5175 -0.9456  0.2297
  291TIP3   OH2  878   1.298   3.178   3.427  0.2915 -0.0827 -0.0294
  291TIP3    H1  879   1.283   3.087   3.402 -0.5750 -0.2643  1.0660
  291TIP3    H2  880   1.212   3.210   3.457  0.7689  0.8173  0.4403
  292TIP3   OH2  881   1.292   2.256   1.819 -0.0478  0.7163  0.6265
  292TIP3    H1  882   1.323   2.327   1.874  0.9081 -1.1637  2.6735
  292TIP3    H2  883   1.342   2.179   1.848 -1.0224 -0.8074 -1.4597
  293TIP3   OH2  884   3.827   2.000   0.456  0.5171 -0.1122 -0.0959
  293TIP3    H1  885   3.844   1.935   0.388  0.2446 -1.2373  0.8780
  293TIP3    H2  886   3.879   2.076   0.430  0.9905 -0.7775 -1.1622
  294TIP3   OH2  887   4.318   3.720   1.187  0.0213  0.6408  0.2914
  294TIP3    H1  888   4.223   3.728   1.178 -0.1001  0.6975  1.4106
  294TIP3    H2  889   4.348   3.808   1.209  0.4487  0.7963 -0.8414
  295TIP3   OH2  890   3.339   4.691   1.951 -0.2371  0.1979 -0.0610
  295TIP3    H1  891   3.291   4.609   1.939 -1.4916  0.8119  0.5704
  295TIP3    H2  892   3.413   4.668   2.007 -0.3226 -0.5955 -0.2702
  296TIP3   OH2  893   5.615   0.641   2.826  0.2593  0.3068  0.0160
  296TIP3    H1  894   5.704   0.620   2.798  0.1458  2.3507 -2.1987
  296TIP3    H2  895   5.626   0.702   2.899  0.6726  0.4776 -0.1892
  297TIP3   OH2  896   2.055   5.506   2.058 -0.3030  0.5457 -0.4883
  297TIP3    H1  897   1.983   5.520   1.996 -0.4107  0.7425 -0.3212
  297TIP3    H2  898   2.096   5.425   2.029 -2.4400 -1.2501  1.1883
  298TIP3   OH2  899   2.987   1.815   0.918  0.2542 -0.6518 -0.8819
  298TIP3    H1  900   2.921   1.883   0.928  2.0713  0.9136  1.6219
  298TIP3    H2  901   3.005   1.813   0.824 -0.1759  2.0900 -1.0998
  299TIP3   OH2  902   0.265   2.136   2.027  0.2935  0.4624 -0.1501
  299TIP3    H1  903   0.350   2.100   2.051  0.9028  1.4306 -0.7402
  299TIP3    H2  904   0.287   2.208   1.966 -0.9438  0.7125 -0.3165
  300TIP3   OH2  905   2.270   5.697   4.855 -0.8229  0.6211 -0.4032
  300TIP3    H1  906   2.329   5.770   4.875 -0.6127  0.6143 -0.9908
  300TIP3    H2  907   2.182   5.733   4.867 -0.7181  0.4293  1.2081
  301TIP3   OH2  908   2.437   0.609   4.341 -0.2027 -0.0663  0.3032
  301TIP3    H1  909   2.380   0.686   4.348  1.6070  1.4411 -0.5572
  301TIP3    H2  910   2.514   0.631   4.394  0.3988 -1.2339 -0.0487
  302TIP3   OH2  911   2.899   3.716   3.426  0.5954  0.6223  0.2868
  302TIP3    H1  912   2.901   3.808   3.400 -0.5558  0.7571  0.6207
  302TIP3    H2  913   2.873   3.717   3.518  1.5169 -0.0030  0.5764
  303TIP3   OH2  914   5.797   3.166   3.610  0.6533 -0.6437  0.2650
  303TIP3    H1  915   5.723   3.113   3.579  1.8143 -3.3903  1.8172
  303TIP3    H2  916   5.761   3.254   3.619 -1.8516 -1.4394 -1.0002
  304TIP3   OH2  917   1.054   2.049   3.608 -0.1644  0.0776  0.3002
  304TIP3    H1  918   0.993   2.075   3.539  0.8349 -0.2563 -0.7389
  304TIP3    H2  919   1.008   2.070   3.690 -0.1915  3.3389 -0.4263
  305TIP3   OH2  920   4.434   3.531   4.393  0.6002 -0.4385  0.0270
  305TIP3    H1  921   4.479   3.615   4.386 -0.6263  0.2094 -0.3207
  305TIP3    H2  922   4.499   3.467   4.365  2.3780  0.0886  2.6440
  306TIP3   OH2  923   1.041   4.775   4.003 -0.3539  0.1755  0.1304
  306TIP3    H1  924   1.117   4.776   3.944 -0.0292  1.8274  0.5333
  306TIP3    H2  925   0.974   4.728   3.954 -0.0655  1.4169 -1.5549
  307TIP3   OH2  926   3.506   4.318   2.578  0.0365 -0.1657  0.6188
  307TIP3    H1  927   3.455   4.380   2.526  0.9189  1.1000  1.2159
  307TIP3    H2  928   3.511   4.358   2.665  2.4940  0.0523  0.4553
  308TIP3   OH2  929   0.805   5.068   0.130 -0.0505  0.3631  0.0350
  308TIP3    H1  930   0.730   5.009   0.141 -0.9291  1.1592 -1.3805
  308TIP3    H2  931   0.770   5.155   0.148 -0.1040  1.0215 -2.7564
  309TIP3   OH2  932   6.132   1.743   0.477 -0.4089 -0.3300  0.0598
  309TIP3    H1  933   6.185   1.801   0.532 -2.1707  0.5959  0.8406
  309TIP3    H2  934   6.041   1.765   0.498 -1.1583 -0.8011 -2.3414
  310TIP3   OH2  935   1.450   5.122   3.611 -0.2784  0.5200  0.6690
  310TIP3    H1  936   1.484   5.074   3.536 -0.7563  1.2905 -0.0660
  310TIP3    H2  937   1.379   5.175   3.575 -0.9579  0.4054  1.8017
  311TIP3   OH2  938   3.398   5.160   4.868 -0.1431  0.3099 -1.0460
  311TIP3    H1  939   3.469   5.216   4.899 -0.8747  1.2099 -0.9447
  311TIP3    H2  940   3.439   5.075   4.854  0.6994  0.5003  0.1416
  312TIP3   OH2  941   5.562   1.980   1.670  0.1914  0.3094  0.5786
  312TIP3    H1  942   5.599   1.907   1.720 -0.4213  0.4737  1.2881
  312TIP3    H2  943   5.590   1.964   1.580 -0.7679 -1.3510  0.5497
  313TIP3   OH2  944   4.904   2.391   2.079 -0.2332 -0.1844 -0.5473
  313TIP3    H1  945   4.848   2.418   2.006 -1.8622 -0.1918  0.6373
  313TIP3    H2  946   4.947   2.472   2.107 -1.8106  0.4270  0.2587
  314TIP3   OH2  947   3.934   3.880   4.325  0.3813  0.6602  0.5768
  314TIP3    H1  948   3.992   3.912   4.394 -1.2704  1.4743  1.6546
  314TIP3    H2  949   3.923   3.955   4.266  1.0970  0.2342 -0.1182
  315TIP3   OH2  950   5.798   0.442   2.165  0.2681  0.0763 -0.2518
  315TIP3    H1  951   5.736   0.451   2.238  1.0140  0.8737  0.3089
  315TIP3    H2  952   5.860   0.376   2.195  1.7449  1.8033  0.7486
  316TIP3   OH2  953   3.221   2.799   4.433 -0.0545  0.1277  0.0800
  316TIP3    H1  954   3.153   2.733   4.444  0.0542 -0.1481 -0.7937
  316TIP3    H2  955   3.210   2.830   4.343  0.5510  0.5567  0.1463
  317TIP3   OH2  956   6.035   1.969   4.728  0.2942 -0.0751  0.6716
  317TIP3    H1  957   6.019   2.035   4.661  0.9957  0.2366  0.7957
  317TIP3    H2  958   5.949   1.933   4.749 -0.2038  1.3184  1.1350
  318TIP3   OH2  959   5.706   3.403   1.959  0.0509  0.1309  0.2509
  318TIP3    H1  960   5.753   3.404   1.876  2.0547 -1.2367  1.2983
  318TIP3    H2  961   5.766   3.361   2.021 -2.1676 -0.7788  1.9304
  319TIP3   OH2  962   1.307   2.647   5.039 -0.4712 -0.2032  0.2521
  319TIP3    H1  963   1.214   2.624   5.035  0.1085 -3.1218  0.6879
  319TIP3    H2  964   1.351   2.562   5.043  2.1788  1.1260  0.9511
  320TIP3   OH2  965   4.685   4.033   4.255 -0.1658 -0.6794 -0.5442
  320TIP3    H1  966   4.606   4.020   4.203 -0.2446 -1.5133 -0.2177
  320TIP3    H2  967   4.706   4.126   4.243 -0.6482 -0.6733 -1.4012
  321TIP3   OH2  968   2.907   4.959   2.354  0.4460  0.0888  0.6725
  321TIP3    H1  969   2.813   4.942   2.350  0.3048  0.4581  1.9879
  321TIP3    H2  970   2.923   5.021   2.283 -0.8535  2.3699  2.2672
  322TIP3   OH2  971   0.260   2.511   1.236  0.3166  0.1629 -0.1736
  322TIP3    H1  972   0.220   2.598   1.225  0.1333  0.8945  4.4497
  322TIP3    H2  973   0.347   2.530   1.272 -0.0064 -1.5166  1.6154
  323TIP3   OH2  974   6.332   3.512   1.501  0.9657 -0.0196 -0.1033
  323TIP3    H1  975   6.314   3.579   1.567  1.6363 -0.7984  0.9006
  323TIP3    H2  976   6.424   3.526   1.477  0.8207  0.0449 -0.6434
  324TIP3   OH2  977   6.195   4.618   3.806 -0.1305 -0.0390 -0.4639
  324TIP3    H1  978   6.255   4.693   3.800 -0.5942  0.5296  1.4064
  324TIP3    H2  979   6.196   4.594   3.898 -2.1346 -0.5732 -0.5458
  325TIP3   OH2  980   5.663   2.423   2.867  0.1139  0.6894 -0.2014
  325TIP3    H1  981   5.695   2.458   2.784 -1.9169  0.2734 -1.2246
  325TIP3    H2  982   5.688   2.330   2.866 -1.0420  0.3563 -1.0166
  326TIP3   OH2  983   2.214   1.487   4.595  0.0933  0.0771 -0.3569
  326TIP3    H1  984   2.276   1.553   4.626 -0.6293  0.3269  0.6024
  326TIP3    H2  985   2.128   1.519   4.623 -0.2993 -1.1501 -0.0698
  327TIP3   OH2  986   5.165   2.748   0.164  0.3174 -0.5114 -0.3822
  327TIP3    H1  987   5.231   2.715   0.225  0.0239 -0.4768 -0.0430
  327TIP3    H2  988   5.083   2.743   0.213  0.3547  1.3707 -0.0672
  328TIP3   OH2  989   1.659   4.049   3.394 -0.4791 -0.2344 -0.2020
  328TIP3    H1  990   1.699   4.077   3.312  0.9405 -3.5621 -0.7845
  328TIP3    H2  991   1.712   4.091   3.462  0.0868  0.3162 -0.9711
  329TIP3   OH2  992   3.913   3.428   2.398  0.0219  0.4690  0.4699
  329TIP3    H1  993   3.891   3.336   2.388  0.3279  0.2963  1.3254
  329TIP3    H2  994   3.850   3.474   2.343  0.8234 -0.3319 -1.2148
  330TIP3   OH2  995   3.137   3.016   4.111 -0.4634  0.8282  0.3478
  330TIP3    H1  996   3.180   2.968   4.040  1.7220 -1.1242  2.7449
  330TIP3    H2  997   3.070   2.956   4.143  0.0570  0.7211  1.2790
  331TIP3   OH2  998   5.156   5.111   1.082 -0.1418 -0.0931 -0.4967
  331TIP3    H1  999   5.170   5.184   1.142  0.7615 -0.1911 -0.5811
  331TIP3    H2 1000   5.108   5.149   1.009 -0.1121  0.3062 -0.3119
  332TIP3   OH2 1001   3.404   2.223   3.094  1.1194  0.2078  0.6465
  332TIP3    H1 1002   3.450   2.140   3.109 -1.3158 -1.5355 -0.6191
  332TIP3    H2 1003   3.414   2.238   3.000  2.5715  2.1045  1.0510
  333TIP3   OH2 1004   2.763   0.880   2.117 -0.6535 -0.1749  0.1072
  333TIP3    H1 1005   2.743   0.973   2.106  1.4376  0.2456 -0.5836
  333TIP3    H2 1006   2.788   0.871   2.209  1.5638  0.5111 -0.3753
  334TIP3   OH2 1007   1.738   5.799   1.002 -0.2785  0.2592  0.2596
  334TIP3    H1 1008   1.708   5.837   0.920 -1.6395  1.1935  1.1398
  334TIP3    H2 1009   1.795   5.866   1.040 -0.5526  0.3076  0.5892
  335TIP3   OH2 1010   3.802   1.521   4.732 -0.4799 -0.1313  0.0157
  335TIP3    H1 1011   3.877   1.570   4.697  0.2279 -0.6050  0.8333
  335TIP3    H2 1012   3.730   1.583   4.730 -0.1980  0.1946 -1.2403
  336TIP3   OH2 1013   1.894   4.678   3.885  0.0110 -0.6254 -0.1826
  336TIP3    H1 1014   1.857   4.684   3.973 -0.5404  0.9672 -0.4907
  336TIP3    H2 1015   1.818   4.669   3.828  0.3558 -1.3922 -0.5348
  337TIP3   OH2 1016   0.456   0.050   1.259 -0.2187 -0.3166 -0.1440
  337TIP3    H1 1017   0.545   0.035   1.291 -0.3789 -0.1617  0.3875
  337TIP3    H2 1018   0.431  -0.032   1.217  0.0652 -0.4613 -0.0333
  338TIP3   OH2 1019   3.926   2.837   3.981 -0.1396  0.0865  0.6200
  338TIP3    H1 1020   3.896   2.926   3.962 -1.1399 -0.3874 -0.1033
  338TIP3    H2 1021   3.934   2.795   3.895 -1.1905 -0.9836  1.0217
  339TIP3   OH2 1022   3.490   3.203   3.676 -0.0201  0.3326  0.2458
  339TIP3    H1 1023   3.553   3.274   3.666 -1.0480  1.2579  0.1605
  339TIP3    H2 1024   3.405   3.243   3.656 -0.3705 -1.5815 -2.6128
  340TIP3   OH2 1025   3.434   5.669   0.651  0.4748 -0.2387  0.2871
  340TIP3    H1 1026   3.504   5.713   0.603  0.3365  0.9593  1.1552
  340TIP3    H2 1027   3.474   5.644   0.734 -0.5943  2.3221  1.6865
  341TIP3   OH2 1028   1.174   3.404   4.724 -0.6137  0.4029 -0.1145
  341TIP3    H1 1029   1.256   3.396   4.774 -1.2499  1.1871  1.0966
  341TIP3    H2 1030   1.199   3.383   4.634  0.6486 -0.6929  0.4539
  342TIP3   OH2 1031   3.237   0.743   2.503 -0.0081 -0.6314  0.3771
  342TIP3    H1 1032   3.276   0.693   2.575  0.3101 -1.7606 -0.5381
  342TIP3    H2 1033   3.210   0.826   2.542  2.2337 -0.2751  1.3200
  343TIP3   OH2 1034   0.850   4.359   4.098 -0.0180 -0.3984  0.9523
  343TIP3    H1 1035   0.919   4.359   4.032 -1.6513 -2.3728 -0.9200
  343TIP3    H2 1036   0.804   4.442   4.086 -2.1850 -1.8938 -2.7348
  344TIP3   OH2 1037   5.775   1.474   1.520  0.1364 -0.0950  0.0835
  344TIP3    H1 1038   5.727   1.392   1.513 -0.2197  0.2506 -3.9914
  344TIP3    H2 1039   5.854   1.460   1.467 -0.5339  2.4515 -1.8100
  345TIP3   OH2 1040   0.221   5.489   3.262 -0.1428 -0.0920  0.2773
  345TIP3    H1 1041   0.255   5.478   3.173  1.8935  1.7434  0.7660
  345TIP3    H2 1042   0.224   5.583   3.279 -2.1727 -0.2003  1.7063
  346TIP3   OH2 1043   4.569   2.188   0.438 -0.1952  0.6356  0.8277
  346TIP3    H1 1044   4.640   2.243   0.470 -0.9769  0.0283  3.9745
  346TIP3    H2 1045   4.571   2.111   0.494 -2.4804 -0.0417  0.1144
  347TIP3   OH2 1046   4.003   4.506   4.778  0.0220  0.4753 -0.2754
  347TIP3    H1 1047   4.011   4.523   4.872 -2.2233 -1.3279  0.3348
  347TIP3    H2 1048   4.084   4.540   4.741  1.0234  1.1855  2.2993
  348TIP3   OH2 1049   0.981   3.746   2.276 -0.1482  0.4627 -0.1612
  348TIP3    H1 1050   0.940   3.782   2.197 -0.8379  1.4700  0.6359
  348TIP3    H2 1051   1.056   3.697   2.243 -1.4891 -0.7367 -1.5891
  349TIP3   OH2 1052   5.334   0.844   3.759 -0.8336 -0.0471  0.2915
  349TIP3    H1 1053   5.307   0.812   3.673  0.0449  0.4673 -0.1856
  349TIP3    H2 1054   5.428   0.862   3.750 -0.6910 -0.1365  1.4052
  350TIP3   OH2 1055   4.520   2.721   0.253  0.0585 -0.0434 -0.0895
  350TIP3    H1 1056   4.459   2.777   0.300  2.1894  1.4392  1.0608
  350TIP3    H2 1057   4.555   2.776   0.183  0.4847 -0.6828 -0.3916
  351TIP3   OH2 1058   4.686   4.318   3.903  0.2593  0.1984  0.4235
  351TIP3    H1 1059   4.608   4.284   3.946 -0.5242  0.7720 -0.5183
  351TIP3    H2 1060   4.725   4.241   3.861 -0.6707  0.1680 -0.4182
  352TIP3   OH2 1061   5.808   5.250   2.323  0.3901  0.1098  0.5208
  352TIP3    H1 1062   5.785   5.309   2.251  0.4167 -1.3564 -0.7367
  352TIP3    H2 1063   5.734   5.190   2.330  0.0760  0.6288  2.2059
  353TIP3   OH2 1064   1.127   5.765   0.346 -0.0078 -0.0471  0.0868
  353TIP3    H1 1065   1.035   5.740   0.350 -0.4997  1.6371 -0.0514
  353TIP3    H2 1066   1.133   5.845   0.398  1.2987  0.1126 -0.2578
  354TIP3   OH2 1067   2.631   0.191   2.868 -0.0959 -0.3925 -0.2180
  354TIP3    H1 1068   2.713   0.238   2.853  0.6694 -1.9792 -1.2327
  354TIP3    H2 1069   2.654   0.121   2.929 -0.4460 -1.4699 -1.2839
  355TIP3   OH2 1070   1.852   2.282   4.882 -0.1522 -0.2468  0.2617
  355TIP3    H1 1071   1.891   2.369   4.876 -1.4204  0.3258  0.0109
  355TIP3    H2 1072   1.867   2.256   4.973 -2.0806  1.3932  1.1153
  356TIP3   OH2 1073   4.682   4.646   1.078  0.2887  0.0174  0.5332
  356TIP3    H1 1074   4.720   4.640   0.990 -0.1001 -1.1694  0.4344
  356TIP3    H2 1075   4.589   4.663   1.064  0.1399 -0.6492  0.7066
  357TIP3   OH2 1076   2.552   2.151   0.073  0.5820 -0.0227 -0.3829
  357TIP3    H1 1077   2.595   2.229   0.109  1.6302 -0.2027 -1.2116
  357TIP3    H2 1078   2.569   2.083   0.138  1.0642  0.0506 -0.4276
  358TIP3   OH2 1079   3.812   2.572   4.833  0.0058 -0.3949  0.1826
  358TIP3    H1 1080   3.854   2.623   4.902 -0.4828 -1.2881  1.1776
  358TIP3    H2 1081   3.719   2.592   4.841 -0.0211 -0.2580 -0.4318
  359TIP3   OH2 1082   3.247   4.682   1.537 -0.2600  0.8694 -0.3990
  359TIP3    H1 1083   3.255   4.695   1.442 -1.7318  0.6664 -0.5804
  359TIP3    H2 1084   3.241   4.771   1.573  1.7047  1.0001 -0.3219
  360TIP3   OH2 1085   1.178   1.983   2.377 -0.1474 -0.0266  0.2278
  360TIP3    H1 1086   1.098   2.036   2.369 -1.1174 -1.6446 -1.5504
  360TIP3    H2 1087   1.148   1.893   2.366  1.6142 -0.9040  2.0895
  361TIP3   OH2 1088   2.627   3.592   5.065  0.2668 -0.0156  0.8379
  361TIP3    H1 1089   2.688   3.665   5.061 -2.2868  2.2747  0.6752
  361TIP3    H2 1090   2.679   3.518   5.096  3.1793  1.6169  0.1624
  362TIP3   OH2 1091   4.538   0.553   1.287  0.2672  0.1895  0.1320
  362TIP3    H1 1092   4.490   0.503   1.353  1.5899  0.1705  1.1287
  362TIP3    H2 1093   4.574   0.627   1.336 -0.0135  1.0436 -0.9183
  363TIP3   OH2 1094   4.067   3.641   2.962 -0.3120 -0.7653  0.4788
  363TIP3    H1 1095   4.131   3.570   2.969 -1.1342 -1.4118  1.8060
  363TIP3    H2 1096   3.985   3.604   2.993 -1.4055  0.0230 -1.3089
  364TIP3   OH2 1097   0.810   5.637   1.753  0.3377  0.4801  0.0180
  364TIP3    H1 1098   0.903   5.660   1.758  0.2696  0.7988 -0.1499
  364TIP3    H2 1099   0.800   5.564   1.813  0.5491  0.9255  0.6071
  365TIP3   OH2 1100   1.484   0.880   3.374  0.5556  0.0815  1.0686
  365TIP3    H1 1101   1.569   0.924   3.363  0.1240  0.7541  0.3003
  365TIP3    H2 1102   1.438   0.933   3.440 -0.1356  1.1054 -0.1733
  366TIP3   OH2 1103   3.344   2.140  -0.011  0.5517 -0.0755  0.5025
  366TIP3    H1 1104   3.369   2.228  -0.036  0.3744 -1.0420 -3.6969
  366TIP3    H2 1105   3.268   2.152   0.047  0.0660  2.5115 -0.5378
  367TIP3   OH2 1106   5.888   3.429   3.428 -0.4373  0.2395  1.1039
  367TIP3    H1 1107   5.797   3.397   3.428  0.1526 -1.5393  0.8510
  367TIP3    H2 1108   5.880   3.521   3.451 -2.7043  1.3143 -2.8487
  368TIP3   OH2 1109   4.109   4.574   4.082 -0.2882  0.3721 -0.7892
  368TIP3    H1 1110   4.167   4.554   4.009  0.4778 -1.0398  0.1656
  368TIP3    H2 1111   4.032   4.518   4.068  0.1043 -0.3184 -0.2358
  369TIP3   OH2 1112   5.411   0.021   1.269  0.2318 -0.0133 -0.4318
  369TIP3    H1 1113   5.439   0.083   1.335 -0.7060  1.4373 -1.3510
  369TIP3    H2 1114   5.356  -0.042   1.317 -1.4160  1.6880  0.0134
  370TIP3   OH2 1115   3.191   1.547   3.571  0.2431 -0.4158 -0.3135
  370TIP3    H1 1116   3.251   1.599   3.626 -0.4065 -0.7607  0.7509
  370TIP3    H2 1117   3.107   1.553   3.616 -0.3335 -0.6173 -1.3535
  371TIP3   OH2 1118   2.186   1.707   0.386 -0.2500 -0.3962 -0.1553
  371TIP3    H1 1119   2.096   1.725   0.360  0.0690  1.2491 -0.2700
  371TIP3    H2 1120   2.239   1.731   0.310  0.3904  0.4653  0.5265
  372TIP3   OH2 1121   2.754   5.709   0.451  0.0030  0.1741  0.0656
  372TIP3    H1 1122   2.815   5.649   0.407 -0.7267 -0.3503 -0.2421
  372TIP3    H2 1123   2.809   5.758   0.512  0.5681 -1.0542  0.5747
  373TIP3   OH2 1124   3.924   5.008   4.535 -0.4911 -0.0700  0.1904
  373TIP3    H1 1125   3.878   5.007   4.451 -2.1008 -1.7338  1.0033
  373TIP3    H2 1126   4.016   5.002   4.513 -0.8880 -0.5191 -1.4495
  374TIP3   OH2 1127   3.894   3.041   4.259 -0.5741 -0.1456 -0.4711
  374TIP3    H1 1128   3.873   3.007   4.171 -1.7922 -0.4064 -0.1022
  374TIP3    H2 1129   3.978   3.001   4.280  1.0926  1.9861 -2.5822
  375TIP3   OH2 1130   1.052   1.602   1.068 -0.0650 -0.3574  0.0136
  375TIP3    H1 1131   0.964   1.628   1.097  0.3724  2.4925 -0.8428
  375TIP3    H2 1132   1.045   1.509   1.047 -1.8500 -1.1976  3.6095
  376TIP3   OH2 1133   6.353   2.962   1.525 -0.4465 -0.0695 -0.5022
  376TIP3    H1 1134   6.275   3.010   1.552  0.0774  0.4917  0.0620
  376TIP3    H2 1135   6.368   2.990   1.435 -0.7964 -0.0414 -0.5523
  377TIP3   OH2 1136   3.470   2.642   4.461  0.2020 -0.0656  0.0757
  377TIP3    H1 1137   3.505   2.638   4.372 -1.5202 -0.5574 -0.6191
  377TIP3    H2 1138   3.384   2.683   4.451 -0.3409 -0.8202  1.4040
  378TIP3   OH2 1139   3.423   4.854   4.342  0.2731  0.0943 -0.5256
  378TIP3    H1 1140   3.392   4.917   4.408  1.3486 -1.7070  1.8339
  378TIP3    H2 1141   3.515   4.877   4.328  0.0942  0.3591 -1.3015
  379TIP3   OH2 1142   1.755   4.446   1.857  0.0264  0.2650  0.4563
  379TIP3    H1 1143   1.705   4.421   1.780 -2.9811 -0.5889  2.4969
  379TIP3    H2 1144   1.725   4.535   1.877 -0.9489 -0.3321  1.8222
  380TIP3   OH2 1145   3.122   5.235   3.463 -0.4741 -0.9008 -0.7545
  380TIP3    H1 1146   3.117   5.207   3.555 -1.0014 -1.3457 -0.9062
  380TIP3    H2 1147   3.090   5.159   3.414 -1.5526 -0.1759 -1.2187
  381TIP3   OH2 1148   2.991   3.920   0.276 -0.4649 -0.6217 -0.1190
  381TIP3    H1 1149   3.054   3.963   0.333 -0.6843  0.1914 -0.4651
  381TIP3    H2 1150   2.906   3.935   0.318 -0.6522  0.1719 -0.7449
  382TIP3   OH2 1151   5.065   0.675   2.511 -0.0351  0.3329 -0.2733
  382TIP3    H1 1152   5.117   0.654   2.589  0.1547  0.8326 -0.2621
  382TIP3    H2 1153   5.129   0.688   2.442 -0.1644  0.5624 -0.3524
  383TIP3   OH2 1154   2.902   1.106   4.599  0.3345 -0.8292 -0.2034
  383TIP3    H1 1155   2.840   1.115   4.672  1.2694  1.6139  0.3776
  383TIP3    H2 1156   2.979   1.065   4.638  0.3767 -0.6503 -0.0973
  384TIP3   OH2 1157   5.243   2.686   2.331  0.2432 -0.8202  0.6774
  384TIP3    H1 1158   5.172   2.677   2.268  0.4472  0.1710  0.2743
  384TIP3    H2 1159   5.236   2.609   2.388 -1.8380 -0.2013  1.3522
  385TIP3   OH2 1160   1.333   4.099   3.840 -0.0177 -0.0679  0.4888
  385TIP3    H1 1161   1.300   4.098   3.930 -0.1584 -1.5608  0.4543
  385TIP3    H2 1162   1.256   4.120   3.787 -0.1029  0.0544  0.6590
  386TIP3   OH2 1163   4.519   5.525   1.318  0.3052  0.3137  0.0874
  386TIP3    H1 1164   4.563   5.508   1.235  1.9836  1.0865  0.7697
  386TIP3    H2 1165   4.538   5.448   1.372  2.2388  1.2946  0.9084
  387TIP3   OH2 1166   5.706   4.631   2.114  0.0178 -0.1502 -0.3346
  387TIP3    H1 1167   5.656   4.556   2.145 -0.3104  0.5978  1.0375
  387TIP3    H2 1168   5.797   4.609   2.133  0.0758 -0.7595 -1.2158
  388TIP3   OH2 1169   0.410   2.301   3.860 -0.2015 -0.4387  0.0688
  388TIP3    H1 1170   0.502   2.325   3.847  0.4514 -2.2166  1.0551
  388TIP3    H2 1171   0.362   2.360   3.802  1.3613  1.9818  1.0900
  389TIP3   OH2 1172   1.395   3.057   1.669 -0.2175 -0.0141 -0.9254
  389TIP3    H1 1173   1.402   3.150   1.690  3.0951 -0.4948  0.6904
  389TIP3    H2 1174   1.375   3.015   1.753  1.8956 -1.0060 -0.8584
  390TIP3   OH2 1175   5.665   2.539   0.694 -0.3104 -0.2264  0.0125
  390TIP3    H1 1176   5.737   2.595   0.665 -0.6710 -0.0142 -0.4889
  390TIP3    H2 1177   5.642   2.572   0.780 -1.5344  1.4229 -0.8954
  391TIP3   OH2 1178   4.575   2.326   2.383 -0.5040  0.7595 -0.2907
  391TIP3    H1 1179   4.601   2.347   2.293 -1.1069  1.0300 -0.4024
  391TIP3    H2 1180   4.585   2.231   2.390  0.2302  0.8176 -0.4200
  392TIP3   OH2 1181   4.165   2.683   3.640  0.8138 -0.4093 -0.0746
  392TIP3    H1 1182   4.103   2.639   3.699  0.4867  0.4612  0.2435
  392TIP3    H2 1183   4.206   2.751   3.694  2.0036 -0.9156 -0.3065
  393TIP3   OH2 1184   1.716   2.828   2.147 -0.3975  0.3444  0.0694
  393TIP3    H1 1185   1.688   2.880   2.222  0.1229 -0.4784  0.8519
  393TIP3    H2 1186   1.703   2.886   2.071 -1.4010  1.0045  0.7299
  394TIP3   OH2 1187   6.111   4.084   2.792 -0.2327 -0.2159  0.1844
  394TIP3    H1 1188   6.133   4.140   2.867  1.0121 -0.5896  0.1201
  394TIP3    H2 1189   6.165   4.006   2.804  0.0846 -0.2169 -1.1739
  395TIP3   OH2 1190   4.464   1.804   4.805 -0.4021 -0.4418  0.0287
  395TIP3    H1 1191   4.376   1.772   4.828 -1.1397  0.5844 -1.2361
  395TIP3    H2 1192   4.514   1.724   4.789 -2.0523 -1.0782 -2.5628
  396TIP3   OH2 1193   6.206   0.785   3.904 -0.3114 -0.4519  0.3577
  396TIP3    H1 1194   6.248   0.707   3.868 -0.3091 -0.6926  0.8746
  396TIP3    H2 1195   6.114   0.761   3.915 -0.1607 -0.6626  1.2698
  397TIP3   OH2 1196   5.928   0.852   0.677  0.5585 -0.2535  0.8776
  397TIP3    H1 1197   6.014   0.882   0.706  0.2238  1.6537  0.0924
  397TIP3    H2 1198   5.870   0.872   0.751  0.4267  0.6821  0.5460
  398TIP3   OH2 1199   6.153   3.692   1.331 -0.1288 -0.4320  0.3025
  398TIP3    H1 1200   6.195   3.650   1.406  0.6364  1.2986  0.8970
  398TIP3    H2 1201   6.075   3.735   1.367  1.3096  2.1483  0.6352
  399TIP3   OH2 1202   4.976   3.852   3.676  0.3881 -0.6600  0.0064
  399TIP3    H1 1203   4.905   3.813   3.727  0.3609  1.0489  1.3677
  399TIP3    H2 1204   4.933   3.915   3.619  0.8350  1.2196  1.6508
  400TIP3   OH2 1205   3.122   4.453   3.417 -0.2624  0.6227 -0.2815
  400TIP3    H1 1206   3.142   4.536   3.375  0.5786  0.6178  0.0973
  400TIP3    H2 1207   3.031   4.462   3.446 -0.9166  0.5671 -2.2160
  401TIP3   OH2 1208   2.586   3.859   0.668  0.6978 -0.0247 -0.5286
  401TIP3    H1 1209   2.510   3.801   0.674  1.1679 -0.5289  1.2281
  401TIP3    H2 1210   2.557   3.941   0.709  1.4960 -0.7259  1.5809
  402TIP3   OH2 1211   1.995   5.824   1.357  0.0036 -0.0451 -0.0526
  402TIP3    H1 1212   2.036   5.884   1.419 -0.0778 -0.3837  0.3358
  402TIP3    H2 1213   1.941   5.880   1.301  1.4126  0.4800 -0.9407
  403TIP3   OH2 1214   0.474   5.736   2.356  0.3634 -0.3293 -0.2814
  403TIP3    H1 1215   0.526   5.790   2.297  0.2374  0.9095  0.6995
  403TIP3    H2 1216   0.484   5.777   2.442 -2.8063  0.4378 -0.1481
  404TIP3   OH2 1217   5.013   4.125   3.965 -0.1469 -0.0659  0.0927
  404TIP3    H1 1218   5.040   4.216   3.955  0.3894 -0.3952 -1.8657
  404TIP3    H2 1219   4.944   4.113   3.900  1.1570 -1.5412 -1.1000
  405TIP3   OH2 1220   0.377   1.367   3.620  0.2219 -0.1332  0.0187
  405TIP3    H1 1221   0.463   1.338   3.589  0.3375 -0.1389  0.3402
  405TIP3    H2 1222   0.394   1.404   3.707  0.0330  0.6737 -0.2880
  406TIP3   OH2 1223   3.732   0.602   1.087 -0.0349  0.0466 -0.2054
  406TIP3    H1 1224   3.653   0.646   1.055  0.5678  0.2958 -1.4243
  406TIP3    H2 1225   3.802   0.666   1.075  0.5462 -0.5752 -0.2305
  407TIP3   OH2 1226   1.806   1.890   3.544 -0.6522  0.2974 -0.0902
  407TIP3    H1 1227   1.821   1.946   3.469 -2.8374  0.7203 -0.2856
  407TIP3    H2 1228   1.884   1.900   3.598 -0.3331  2.3478 -0.8474
  408TIP3   OH2 1229   0.925   0.887   4.651 -0.9099  0.0329  0.6733
  408TIP3    H1 1230   0.889   0.875   4.563 -0.8862  0.0467  0.6618
  408TIP3    H2 1231   1.007   0.934   4.638 -1.2623  0.6767  0.7621
  409TIP3   OH2 1232   0.549   1.173   4.958  0.8253 -0.7288  0.0123
  409TIP3    H1 1233   0.632   1.217   4.943 -0.1628  0.6499 -1.6782
  409TIP3    H2 1234   0.523   1.200   5.046  1.5414 -0.1091  0.0386
  410TIP3   OH2 1235   1.188   3.274   2.456 -0.2200 -0.5299 -0.3540
  410TIP3    H1 1236   1.125   3.245   2.522  0.5890 -0.0858  0.6318
  410TIP3    H2 1237   1.267   3.224   2.475  0.0813 -0.2504 -0.8701
  411TIP3   OH2 1238   5.088   0.655   1.607 -0.3503  0.0566  0.2497
  411TIP3    H1 1239   5.052   0.612   1.684  0.5531  2.0445  1.8762
  411TIP3    H2 1240   5.157   0.597   1.576  0.2813 -0.1012  1.8712
  412TIP3   OH2 1241   6.117   3.980   3.796  0.6663 -0.0100 -0.3097
  412TIP3    H1 1242   6.159   3.934   3.868  1.6003 -0.0281 -0.8563
  412TIP3    H2 1243   6.186   4.034   3.758 -0.1985  1.2062 -0.2138
  413TIP3   OH2 1244   1.671   2.452   4.715 -0.3773  0.6286 -0.5476
  413TIP3    H1 1245   1.581   2.424   4.731  0.4047 -1.5301  0.5404
  413TIP3    H2 1246   1.715   2.439   4.799  1.3109 -0.0212 -1.4764
  414TIP3   OH2 1247   1.427   2.613   4.527 -0.1331  0.0741  0.0806
  414TIP3    H1 1248   1.446   2.538   4.472  0.6076 -0.5371  1.1323
  414TIP3    H2 1249   1.423   2.578   4.616 -3.2238  0.6738  0.3149
  415TIP3   OH2 1250   0.985   2.115   1.916 -0.0092  0.4688 -0.2225
  415TIP3    H1 1251   0.922   2.062   1.867  0.3157  0.0101 -0.1590
  415TIP3    H2 1252   1.067   2.066   1.909  0.7728  1.9224 -1.7888
  416TIP3   OH2 1253   0.619   2.677   0.821  0.1654  0.3931  0.0327
  416TIP3    H1 1254   0.526   2.656   0.835  0.0257 -0.0272 -1.2997
  416TIP3    H2 1255   0.658   2.593   0.794  1.4686  0.0172  2.7614
  417TIP3   OH2 1256   4.550   0.263   1.414 -0.8879  0.0849  0.1522
  417TIP3    H1 1257   4.625   0.316   1.442  0.6621 -1.2738 -1.1997
  417TIP3    H2 1258   4.547   0.274   1.319 -2.1436 -0.2603  0.1324
  418TIP3   OH2 1259   0.915   3.055   4.207 -0.1669  0.5841 -0.2436
  418TIP3    H1 1260   0.931   2.962   4.219  1.2723  0.8786  0.3527
  418TIP3    H2 1261   0.998   3.097   4.231 -0.6710  1.9919 -0.8495
  419TIP3   OH2 1262   6.335   4.760   0.275 -0.0135  0.1589  0.1247
  419TIP3    H1 1263   6.250   4.802   0.263 -1.1830 -2.3023 -0.8497
  419TIP3    H2 1264   6.392   4.803   0.210 -0.9469  0.7512 -0.3198
  420TIP3   OH2 1265   1.742   2.659   3.622  0.0811 -0.0896  0.0472
  420TIP3    H1 1266   1.765   2.571   3.652  0.4768 -0.0124 -0.0348
  420TIP3    H2 1267   1.658   2.647   3.577 -1.5458  0.1141  2.8379
  421TIP3   OH2 1268   4.280   0.483   1.671 -0.1574 -0.0840 -0.4899
  421TIP3    H1 1269   4.309   0.508   1.759 -0.4938  2.7903 -1.0994
  421TIP3    H2 1270   4.335   0.408   1.649  0.7307 -0.1892  1.7188
  422TIP3   OH2 1271   2.379   5.158   1.032  0.1045  0.2801 -0.3329
  422TIP3    H1 1272   2.365   5.242   1.076 -0.5659  0.2784 -0.5375
  422TIP3    H2 1273   2.469   5.134   1.055  0.8759  1.7975 -1.4888
  423TIP3   OH2 1274   3.950   3.238   0.357 -0.4174 -0.5948 -0.1161
  423TIP3    H1 1275   4.012   3.188   0.305  0.4886 -1.1275  1.3896
  423TIP3    H2 1276   3.889   3.172   0.390 -0.8931 -0.2896 -0.3858
  424TIP3   OH2 1277   2.261   2.344   1.290 -0.2730  0.5450  0.2089
  424TIP3    H1 1278   2.219   2.293   1.221  0.9148 -0.0319 -0.1235
  424TIP3    H2 1279   2.197   2.347   1.361 -1.7820  1.7147 -1.1434
  425TIP3   OH2 1280   0.606   4.965   0.883 -0.2113  0.1497  0.1765
  425TIP3    H1 1281   0.608   5.018   0.963  1.1427  1.6124 -0.7646
  425TIP3    H2 1282   0.658   4.887   0.905  0.8301  0.9099  0.5228
  426TIP3   OH2 1283   5.038   2.093   0.281  0.0058 -0.0952  0.2461
  426TIP3    H1 1284   5.101   2.156   0.245  0.9666 -2.1590 -1.9634
  426TIP3    H2 1285   5.063   2.085   0.373  1.6831  0.6545 -0.1020
  427TIP3   OH2 1286   1.963   2.458   0.590 -0.3637  0.1023 -0.0180
  427TIP3    H1 1287   1.988   2.372   0.625 -0.3486  0.2425  0.3180
  427TIP3    H2 1288   1.868   2.452   0.580 -0.5459  0.5174  1.3159
  428TIP3   OH2 1289   6.273   4.209   3.868  0.6643 -0.0520  0.3958
  428TIP3    H1 1290   6.189   4.248   3.845  0.8226 -0.2488 -0.5808
  428TIP3    H2 1291   6.269   4.195   3.962 -0.7889 -1.0057  0.2162
  429TIP3   OH2 1292   3.215   0.936   0.698  0.0671  0.0176  0.4603
  429TIP3    H1 1293   3.150   1.005   0.709 -1.1823 -1.2724  1.4813
  429TIP3    H2 1294   3.298   0.983   0.691 -0.7108  1.6198  1.4140
  430TIP3   OH2 1295   1.007   2.077   0.283 -0.1309 -0.4091 -0.1216
  430TIP3    H1 1296   0.984   2.146   0.346 -0.7101 -0.0420 -0.7294
  430TIP3    H2 1297   0.975   2.110   0.199  0.1744 -1.1331 -0.5237
  431TIP3   OH2 1298   3.591   3.170   0.584  0.2614 -0.0965 -0.2981
  431TIP3    H1 1299   3.565   3.258   0.611 -0.1021 -0.7516  1.6711
  431TIP3    H2 1300   3.620   3.180   0.494  0.5763  2.1040 -0.0083
  432TIP3   OH2 1301   3.524   0.318   2.923  0.3115  0.5741 -0.3887
  432TIP3    H1 1302   3.528   0.222   2.927 -0.1401  0.5604 -0.1393
  432TIP3    H2 1303   3.443   0.340   2.970  0.8225  1.1217  0.2601
  433TIP3   OH2 1304   1.671   4.776   0.171 -0.8335  0.0908 -0.8400
  433TIP3    H1 1305   1.685   4.768   0.265  1.5035  2.8249 -0.8367
  433TIP3    H2 1306   1.581   4.808   0.162 -1.3662 -0.9896  0.3485
  434TIP3   OH2 1307   0.779   3.347   2.102  0.1513 -0.4188 -0.4654
  434TIP3    H1 1308   0.834   3.269   2.115  0.1877 -0.4814 -0.9758
  434TIP3    H2 1309   0.800   3.403   2.177 -0.3400 -1.1649  0.2465
  435TIP3   OH2 1310   3.083   2.852   3.555  0.6799  0.1638  0.2073
  435TIP3    H1 1311   3.126   2.920   3.503 -0.2658  0.5886 -0.0430
  435TIP3    H2 1312   3.066   2.895   3.639  1.2683 -0.1903  0.5113
  436TIP3   OH2 1313   5.375   3.657   1.452 -0.6917 -0.5313 -0.5911
  436TIP3    H1 1314   5.403   3.734   1.404 -1.0785  0.1627  0.2567
  436TIP3    H2 1315   5.283   3.646   1.429 -1.4886  1.0421  1.4742
  437TIP3   OH2 1316   1.100   0.857   0.082 -0.6527  0.1698  0.4078
  437TIP3    H1 1317   1.155   0.919   0.130 -1.0326  0.6354  0.2361
  437TIP3    H2 1318   1.061   0.907   0.012 -0.3862 -0.4344 -0.1892
  438TIP3   OH2 1319   2.932   2.801   4.132  0.3221  0.1362 -0.4960
  438TIP3    H1 1320   2.858   2.747   4.105  0.7229 -0.6590 -0.0301
  438TIP3    H2 1321   3.010   2.749   4.109  0.7107  0.4357  0.1113
  439TIP3   OH2 1322   0.681   1.758   0.422 -0.1508  0.7233 -0.5622
  439TIP3    H1 1323   0.740   1.745   0.496 -0.9121 -1.3571 -0.2409
  439TIP3    H2 1324   0.594   1.744   0.458 -0.8502  3.0557 -1.1724
  440TIP3   OH2 1325   4.876   4.882   0.692 -0.3696 -0.0874 -0.0477
  440TIP3    H1 1326   4.826   4.813   0.649 -1.9053  1.3554 -0.7043
  440TIP3    H2 1327   4.893   4.849   0.780  0.7058 -2.0900 -0.9498
  441TIP3   OH2 1328   4.688   1.555   0.899 -0.5328 -0.4774  0.2138
  441TIP3    H1 1329   4.750   1.498   0.944 -0.3520 -0.9754 -0.6372
  441TIP3    H2 1330   4.629   1.586   0.967 -1.5350 -2.8323  0.4805
  442TIP3   OH2 1331   5.948   1.735   2.938 -0.8769  0.6112  0.4097
  442TIP3    H1 1332   6.010   1.767   2.872 -0.7233 -0.8394 -0.1716
  442TIP3    H2 1333   5.869   1.788   2.924 -0.0848  1.9030  0.6104
  443TIP3   OH2 1334   1.695   2.014   1.268  0.0481 -0.1608  0.0777
  443TIP3    H1 1335   1.784   2.040   1.290 -0.7037  1.6327  1.1879
  443TIP3    H2 1336   1.682   2.046   1.179 -0.4661  2.4831  1.0059
  444TIP3   OH2 1337   4.333   0.504   3.904 -0.1216 -0.4402 -0.1300
  444TIP3    H1 1338   4.375   0.470   3.983  0.5839  1.4174  0.3769
  444TIP3    H2 1339   4.360   0.596   3.902 -1.3276 -0.0864 -1.7543
  445TIP3   OH2 1340   4.805   0.168   3.419  0.2755 -0.3571 -0.3549
  445TIP3    H1 1341   4.800   0.114   3.498 -3.0044 -0.7348 -0.6566
  445TIP3    H2 1342   4.733   0.230   3.427  2.0383  2.0071 -1.4798
  446TIP3   OH2 1343   4.674   1.224   1.624 -0.5169  0.2987  0.3207
  446TIP3    H1 1344   4.618   1.167   1.677 -0.8775  1.2451  0.9629
  446TIP3    H2 1345   4.686   1.303   1.676  0.5253  0.5623 -0.2771
  447TIP3   OH2 1346   1.115   5.656   2.721 -0.8584  0.1502 -0.5462
  447TIP3    H1 1347   1.112   5.752   2.713  0.5378  0.2834  0.1932
  447TIP3    H2 1348   1.142   5.640   2.812  0.7457 -0.8765 -1.1561
  448TIP3   OH2 1349   2.444   4.840   4.491  0.3480  0.5035 -0.0616
  448TIP3    H1 1350   2.452   4.833   4.586 -3.5898  1.4388  0.5128
  448TIP3    H2 1351   2.415   4.754   4.462 -2.0602  1.1507  0.2183
  449TIP3   OH2 1352   4.550   3.670   0.991  0.3351  0.7900 -0.1663
  449TIP3    H1 1353   4.603   3.750   0.996  3.4037 -1.0962  0.3039
  449TIP3    H2 1354   4.568   3.636   0.903 -0.1030  0.0874  0.0140
  450TIP3   OH2 1355   2.316   2.115   2.433  0.4286 -0.0655 -0.3880
  450TIP3    H1 1356   2.308   2.204   2.467  0.5963 -0.8259  1.8459
  450TIP3    H2 1357   2.345   2.126   2.343  2.5395  2.1121  0.4531
  451TIP3   OH2 1358   6.187   5.600   2.467  0.3982 -0.8726 -0.5232
  451TIP3    H1 1359   6.143   5.527   2.424 -1.3857 -0.2629  0.1799
  451TIP3    H2 1360   6.183   5.671   2.403  0.4189 -0.8271 -0.4738
  452TIP3   OH2 1361   4.346   4.702   5.125 -0.3643  0.2283  0.4611
  452TIP3    H1 1362   4.251   4.712   5.133 -0.3731 -0.5831  1.9140
  452TIP3    H2 1363   4.359   4.607   5.124  0.5067  0.3008  1.9092
  453TIP3   OH2 1364   5.467   4.560   0.754  0.0555  0.2434  0.8032
  453TIP3    H1 1365   5.379   4.535   0.728  0.4525  1.6184 -2.2855
  453TIP3    H2 1366   5.518   4.479   0.747 -0.2804  0.1564 -0.9671
  454TIP3   OH2 1367   2.980   4.385   5.012  0.2635 -0.0392 -0.3713
  454TIP3    H1 1368   3.015   4.356   5.096 -0.4855 -0.6641 -0.2649
  454TIP3    H2 1369   3.057   4.388   4.954  0.9028  1.0626  0.4870
  455TIP3   OH2 1370   0.476   0.380   1.937 -0.0925  0.0845  0.3129
  455TIP3    H1 1371   0.542   0.416   1.996  0.4607 -0.9102  0.3231
  455TIP3    H2 1372   0.507   0.292   1.916 -1.1563 -0.2198 -0.0960
  456TIP3   OH2 1373   2.375   2.262   0.683 -0.2203  0.1547 -0.4641
  456TIP3    H1 1374   2.316   2.255   0.608 -0.0122 -1.1137 -0.5286
  456TIP3    H2 1375   2.356   2.184   0.736  1.6416 -0.4939 -0.6795
  457TIP3   OH2 1376   2.194   5.121   0.026  0.0475 -0.4572  0.8947
  457TIP3    H1 1377   2.289   5.133   0.022 -0.0278 -0.1555 -1.7016
  457TIP3    H2 1378   2.182   5.033   0.060  1.2638 -0.6207  0.9469
  458TIP3   OH2 1379   1.121   2.567   4.288 -0.6012 -0.6046 -0.1595
  458TIP3    H1 1380   1.195   2.622   4.315 -0.6491 -0.1990 -0.8514
  458TIP3    H2 1381   1.150   2.526   4.207 -0.3779 -1.9888  0.5788
  459TIP3   OH2 1382   6.214   4.123   4.597 -0.3824  0.6412 -0.2547
  459TIP3    H1 1383   6.197   4.212   4.567 -0.1140  1.2055  1.1588
  459TIP3    H2 1384   6.129   4.091   4.627 -0.6499  0.0799 -1.5502
  460TIP3   OH2 1385   4.982   4.570   1.450 -0.1521 -0.2527 -0.5726
  460TIP3    H1 1386   4.906   4.627   1.445 -0.9808 -1.4192 -2.6757
  460TIP3    H2 1387   5.004   4.551   1.359  0.3871 -2.8756  0.0221
  461TIP3   OH2 1388   3.354   5.527   0.427 -0.0844  0.1312 -0.0078
  461TIP3    H1 1389   3.373   5.571   0.510  1.9134 -0.3340 -0.1619
  461TIP3    H2 1390   3.280   5.470   0.446 -2.2260  2.8362  0.4124
  462TIP3   OH2 1391   3.064   3.612   0.378  0.1855  0.1581  0.4480
  462TIP3    H1 1392   3.017   3.684   0.336 -1.1897 -0.7388  0.3663
  462TIP3    H2 1393   3.120   3.654   0.443 -0.4637  1.3136  0.2866
  463TIP3   OH2 1394   0.070   1.433   2.604 -0.0700  0.9367  0.0355
  463TIP3    H1 1395   0.122   1.398   2.677  0.7283  0.9575 -0.5095
  463TIP3    H2 1396   0.048   1.356   2.552 -1.3455  0.8138  0.7212
  464TIP3   OH2 1397   6.148   5.793   3.469 -0.2146 -0.2685  0.2703
  464TIP3    H1 1398   6.086   5.757   3.532 -0.1179  1.6764  1.5833
  464TIP3    H2 1399   6.157   5.725   3.402 -0.1761 -2.5513  2.4367
  465TIP3   OH2 1400   0.716   3.925   4.106  0.3490 -0.2089 -0.3569
  465TIP3    H1 1401   0.712   3.846   4.159 -0.0515 -0.5888 -0.9459
  465TIP3    H2 1402   0.800   3.966   4.130 -1.7559  2.2249  4.1984
  466TIP3   OH2 1403   2.457   2.652   4.022 -0.5566 -0.1189  0.4896
  466TIP3    H1 1404   2.462   2.584   4.089 -0.5674 -0.3981  0.2136
  466TIP3    H2 1405   2.397   2.717   4.058  0.6872  0.5292  1.4335
  467TIP3   OH2 1406   2.430   3.920   4.957 -0.1620  0.9153  0.4788
  467TIP3    H1 1407   2.518   3.889   4.980  0.4281  1.8621 -0.4395
  467TIP3    H2 1408   2.372   3.851   4.990  1.0233 -0.5447 -0.3081
  468TIP3   OH2 1409   5.631   3.914   0.427 -0.0954  0.7077 -0.3438
  468TIP3    H1 1410   5.605   3.886   0.339  0.5041  0.2212 -0.3713
  468TIP3    H2 1411   5.711   3.963   0.414  1.4692 -1.5593  0.1509
  469TIP3   OH2 1412   1.350   0.133   1.136 -0.4851 -0.1945 -0.1688
  469TIP3    H1 1413   1.277   0.081   1.168 -1.2233  0.3419 -0.9377
  469TIP3    H2 1414   1.361   0.107   1.045 -0.4151  0.4892 -0.3640
  470TIP3   OH2 1415   1.254   1.634   4.811 -0.3809  0.8332  0.0495
  470TIP3    H1 1416   1.164   1.656   4.785 -1.1040 -0.6949  1.1069
  470TIP3    H2 1417   1.285   1.577   4.741 -0.2440  1.2975 -0.2761
  471TIP3   OH2 1418   3.109   0.221   0.355  0.4064  0.0555  0.8326
  471TIP3    H1 1419   3.078   0.234   0.265  1.7157  3.5321  0.7344
  471TIP3    H2 1420   3.037   0.252   0.410  1.2583  2.3833  0.7559
  472TIP3   OH2 1421   3.604   5.978   0.646  0.2633  0.2068 -0.3505
  472TIP3    H1 1422   3.531   6.037   0.626  0.5597  0.6172 -0.2482
  472TIP3    H2 1423   3.604   5.915   0.575 -1.2438 -0.8363  0.5151
  473TIP3   OH2 1424   0.052   4.954   3.473  0.0309  0.0264  0.1641
  473TIP3    H1 1425   0.119   4.975   3.539 -1.1377  0.3407  1.2910
  473TIP3    H2 1426   0.058   4.860   3.462 -0.1508 -0.1145  1.1769
  474TIP3   OH2 1427   2.636   4.438   3.341 -0.4388 -0.2487 -0.3267
  474TIP3    H1 1428   2.706   4.437   3.406  0.0491 -0.6572 -0.8477
  474TIP3    H2 1429   2.666   4.378   3.273 -0.7682  0.4534 -1.1065
  475TIP3   OH2 1430   0.994   2.135   1.032 -0.4352 -0.2085 -0.5749
  475TIP3    H1 1431   0.987   2.040   1.042  0.2609 -0.1359  0.8914
  475TIP3    H2 1432   0.912   2.168   1.069  0.6463 -0.1261  1.9557
  476TIP3   OH2 1433   2.792   3.058   2.416 -0.3927  0.3312 -0.4677
  476TIP3    H1 1434   2.711   3.084   2.373 -1.1369 -1.4575 -0.2540
  476TIP3    H2 1435   2.849   3.028   2.346 -0.2329  0.8151 -0.5432
  477TIP3   OH2 1436   5.719   0.658   1.607 -0.4968  0.4386 -0.3463
  477TIP3    H1 1437   5.771   0.682   1.684 -1.7882  0.2406  0.6171
  477TIP3    H2 1438   5.677   0.740   1.580  0.8470  0.7535 -1.5673
  478TIP3   OH2 1439   3.428   1.926   1.695  0.4052  0.1101  0.1157
  478TIP3    H1 1440   3.515   1.947   1.662  0.7666  0.8425  1.4752
  478TIP3    H2 1441   3.441   1.846   1.747  0.9206  1.7620  2.7452
  479TIP3   OH2 1442   1.847   4.408   3.481 -0.0038 -0.1994  0.1288
  479TIP3    H1 1443   1.752   4.403   3.474 -0.0790  1.6434 -1.2768
  479TIP3    H2 1444   1.867   4.382   3.571 -1.7043 -1.6898  0.1284
  480TIP3   OH2 1445   2.334   5.677   0.137  0.3127  0.2623  0.1761
  480TIP3    H1 1446   2.387   5.664   0.216  0.7512  0.0033 -0.1570
  480TIP3    H2 1447   2.274   5.603   0.136 -0.0574  0.5499  0.5485
  481TIP3   OH2 1448   5.036   4.682   0.543  0.7308  0.1118 -0.4234
  481TIP3    H1 1449   4.968   4.614   0.544  0.6214  0.2221 -0.3967
  481TIP3    H2 1450   4.994   4.759   0.582  0.4550  0.5736 -1.5797
  482TIP3   OH2 1451   2.653   5.828   2.664 -0.4689  0.1762  0.1073
  482TIP3    H1 1452   2.636   5.760   2.729 -2.7378 -0.7726 -1.3881
  482TIP3    H2 1453   2.739   5.864   2.689  1.0654 -3.5011  0.6921
  483TIP3   OH2 1454   4.685   1.030   0.871 -0.3372  0.1875 -0.0008
  483TIP3    H1 1455   4.638   1.036   0.788  1.3227 -1.0904 -1.0902
  483TIP3    H2 1456   4.765   0.982   0.850  0.0730 -0.2830  2.3733
  484TIP3   OH2 1457   3.198   0.504   0.479 -0.3023 -0.2979 -0.1301
  484TIP3    H1 1458   3.180   0.432   0.539  0.4754 -0.7240 -0.3873
  484TIP3    H2 1459   3.286   0.486   0.446 -0.4172  0.3386 -0.8179
  485TIP3   OH2 1460   4.866   4.988   3.964  0.1427  0.7081 -0.1348
  485TIP3    H1 1461   4.961   4.990   3.948  0.3263  1.8868  0.8686
  485TIP3    H2 1462   4.855   5.037   4.046 -1.4131  1.3110 -0.6591
  486TIP3   OH2 1463   2.118   2.434   4.342  0.0934  0.2319  0.6737
  486TIP3    H1 1464   2.057   2.445   4.415 -0.8038 -0.7872  0.1019
  486TIP3    H2 1465   2.156   2.521   4.329 -1.6503  1.0220  0.6858
  487TIP3   OH2 1466   5.324   1.600   1.190  0.7341  0.7127 -0.1557
  487TIP3    H1 1467   5.333   1.517   1.143 -0.3633 -0.7444  2.0225
  487TIP3    H2 1468   5.394   1.597   1.256  1.5827  2.2236 -0.9341
  488TIP3   OH2 1469   5.923   2.818   2.093 -0.2937 -0.1029  0.2984
  488TIP3    H1 1470   6.018   2.818   2.091 -0.2834 -1.0936 -1.6064
  488TIP3    H2 1471   5.897   2.812   2.001 -2.2329  2.1373  0.6149
  489TIP3   OH2 1472   2.857   1.556   3.708  0.1796  0.4460 -0.3461
  489TIP3    H1 1473   2.891   1.482   3.657 -0.2569  0.4979 -0.7143
  489TIP3    H2 1474   2.846   1.520   3.797  2.7140  0.8599  0.1985
  490TIP3   OH2 1475   6.367   5.218   3.086 -0.3061 -0.1907  0.0306
  490TIP3    H1 1476   6.314   5.192   3.011 -0.0789 -1.4402  0.2790
  490TIP3    H2 1477   6.389   5.309   3.070  0.1859 -0.5813 -1.6795
  491TIP3   OH2 1478   4.774   3.680   3.873  0.1856  0.1132  0.4327
  491TIP3    H1 1479   4.810   3.596   3.843  0.0157  0.1553  0.1082
  491TIP3    H2 1480   4.788   3.679   3.967  1.1534  0.1814  0.3056
  492TIP3   OH2 1481   1.911   4.132   1.259  0.3526 -0.2367  0.4418
  492TIP3    H1 1482   1.943   4.048   1.228  0.4418 -0.0176 -0.0712
  492TIP3    H2 1483   1.869   4.172   1.182  1.7669  0.8956  0.2107
  493TIP3   OH2 1484   1.865   2.506   2.589  0.1642  0.0351 -0.2071
  493TIP3    H1 1485   1.846   2.460   2.508  0.1184 -0.2859 -0.0158
  493TIP3    H2 1486   1.944   2.465   2.623  0.7628  0.8313 -0.5899
  494TIP3   OH2 1487   0.881   3.889   5.064 -0.1079  0.0084 -0.3897
  494TIP3    H1 1488   0.956   3.833   5.084 -1.0668 -0.1970  3.2504
  494TIP3    H2 1489   0.841   3.848   4.987  2.6157 -0.6534 -1.6137
  495TIP3   OH2 1490   1.200   1.069   0.247  0.1248 -0.3739 -0.1749
  495TIP3    H1 1491   1.200   1.146   0.303 -0.3600 -0.5559  0.0861
  495TIP3    H2 1492   1.289   1.035   0.251  0.0333 -0.5261  0.6862
  496TIP3   OH2 1493   5.638   5.737   0.835  0.6113 -0.2066  0.1390
  496TIP3    H1 1494   5.725   5.752   0.872  0.0943 -1.7347  2.1448
  496TIP3    H2 1495   5.594   5.821   0.843  1.3020  0.1062  0.8176
  497TIP3   OH2 1496   1.338   3.115   2.163 -0.2865  0.0043 -0.3389
  497TIP3    H1 1497   1.385   3.185   2.209 -1.3917 -0.0434  0.9198
  497TIP3    H2 1498   1.329   3.045   2.227 -0.6522 -0.6376 -1.0682
  498TIP3   OH2 1499   6.064   4.676   0.823 -0.5481  0.3340 -0.0343
  498TIP3    H1 1500   6.102   4.741   0.764  0.7904  1.1209  1.5991
  498TIP3    H2 1501   6.109   4.594   0.800  0.0225  0.6463 -0.0601
  499TIP3   OH2 1502   0.505   5.071   1.657  0.6461  0.4669 -0.0688
  499TIP3    H1 1503   0.583   5.043   1.704  0.4064  0.3123  0.2396
  499TIP3    H2 1504   0.526   5.056   1.564  0.1878 -1.5937  0.1237
  500TIP3   OH2 1505   4.544   4.946   2.221 -0.4095 -0.2251  0.9916
  500TIP3    H1 1506   4.565   4.871   2.277 -1.4692 -1.7526 -0.5615
  500TIP3    H2 1507   4.626   4.963   2.174 -0.9287 -2.4967 -0.9182
  501TIP3   OH2 1508   6.326   1.696   2.647  0.1533 -0.5069  0.3113
  501TIP3    H1 1509   6.341   1.602   2.659 -2.7350 -1.1121 -0.1458
  501TIP3    H2 1510   6.242   1.712   2.689 -0.6097  1.3389 -1.7419
  502TIP3   OH2 1511   4.516   3.625   1.574  0.3040  0.2545  0.3414
  502TIP3    H1 1512   4.550   3.712   1.593 -0.5894  0.6352  0.2538
  502TIP3    H2 1513   4.505   3.584   1.660  0.0352  0.5049  0.4300
  503TIP3   OH2 1514   4.011   1.488   1.370  0.3270  0.4755 -0.7201
  503TIP3    H1 1515   3.977   1.420   1.430  0.6715  0.2619 -0.7661
  503TIP3    H2 1516   3.941   1.498   1.305  0.4969 -0.2262 -1.0221
  504TIP3   OH2 1517   5.940   2.996   0.895  0.4968  0.1720  0.2242
  504TIP3    H1 1518   5.938   2.992   0.799  0.4916  1.7918  0.1270
  504TIP3    H2 1519   5.984   3.079   0.915  2.2225 -1.0139  1.6672
  505TIP3   OH2 1520   1.716   3.522   2.936 -0.0750 -0.4607  0.7272
  505TIP3    H1 1521   1.658   3.597   2.949 -3.5267 -2.8889  0.6733
  505TIP3    H2 1522   1.712   3.474   3.019  1.2305 -1.1498  0.4235
  506TIP3   OH2 1523   2.107   4.151   2.877  0.0612  0.6358  0.6755
  506TIP3    H1 1524   2.118   4.057   2.893  0.7084  0.6972  0.6317
  506TIP3    H2 1525   2.016   4.160   2.848  0.4425 -0.2031 -0.9337
  507TIP3   OH2 1526   3.598   2.284   4.487 -0.1724 -0.5769 -0.1433
  507TIP3    H1 1527   3.661   2.236   4.434  2.9500  0.4599  2.2788
  507TIP3    H2 1528   3.580   2.227   4.562 -0.6542 -0.1046  0.1166
  508TIP3   OH2 1529   2.821   2.479   0.127  0.0936 -0.1189 -0.1369
  508TIP3    H1 1530   2.804   2.431   0.208  2.8899 -1.0889 -0.0274
  508TIP3    H2 1531   2.794   2.569   0.145  0.0066 -0.4780  1.6293
  509TIP3   OH2 1532   0.969   0.255   3.100 -0.7662 -0.4451  0.2708
  509TIP3    H1 1533   0.928   0.249   3.187 -0.4587  1.3806  0.5891
  509TIP3    H2 1534   1.000   0.345   3.095 -1.5089 -0.2629 -2.0836
  510TIP3   OH2 1535   1.168   4.785   0.032 -0.5577  0.3395 -0.3092
  510TIP3    H1 1536   1.197   4.822   0.116 -2.0161 -0.4101  0.5788
  510TIP3    H2 1537   1.073   4.783   0.039 -0.6372 -3.4894 -0.2260
  511TIP3   OH2 1538   1.201   5.338   0.202 -1.1785 -0.6315  0.0422
  511TIP3    H1 1539   1.154   5.265   0.163 -1.0247 -0.1181 -1.1435
  511TIP3    H2 1540   1.287   5.337   0.161 -1.5922  0.9539 -0.9816
  512TIP3   OH2 1541   3.359   2.396   1.703 -0.1612 -0.1890  0.1103
  512TIP3    H1 1542   3.375   2.485   1.734 -0.6222 -0.4022  0.9951
  512TIP3    H2 1543   3.398   2.340   1.771  0.5928 -0.6714 -0.6962
  513TIP3   OH2 1544   0.986   3.462   1.112 -0.0478  0.7974  0.3949
  513TIP3    H1 1545   1.044   3.509   1.053  1.1358 -0.1638  0.7630
  513TIP3    H2 1546   1.042   3.436   1.185 -1.0588  0.3018  1.0105
  514TIP3   OH2 1547   4.236   4.464   3.799 -0.2604 -0.0677 -0.2551
  514TIP3    H1 1548   4.296   4.534   3.825  0.0536  0.8148 -2.9590
  514TIP3    H2 1549   4.288   4.384   3.806  1.1331  0.6038 -1.8869
  515TIP3   OH2 1550   3.751   2.452   0.686  0.1552 -0.6480 -0.5322
  515TIP3    H1 1551   3.665   2.433   0.725 -0.2921  0.6786 -0.8391
  515TIP3    H2 1552   3.811   2.452   0.761 -0.4864  0.6145  0.0043
  516TIP3   OH2 1553   2.266   0.265   3.997 -0.2035 -0.2229 -0.2533
  516TIP3    H1 1554   2.327   0.244   4.067  2.1509 -1.3201 -2.4771
  516TIP3    H2 1555   2.235   0.353   4.017  1.7816  0.1918  1.2219
  517TIP3   OH2 1556   2.575   0.485   5.037  0.0244  0.1786 -0.4734
  517TIP3    H1 1557   2.585   0.430   5.115 -1.9435 -0.0327 -0.3080
  517TIP3    H2 1558   2.502   0.543   5.059  0.2213  0.9411 -1.7254
  518TIP3   OH2 1559   1.675   2.414   0.027  0.1614 -0.0744  0.1269
  518TIP3    H1 1560   1.746   2.477   0.020  0.7121 -0.6237  0.5983
  518TIP3    H2 1561   1.646   2.420   0.118 -0.0057 -0.2606  0.0877
  519TIP3   OH2 1562   6.226   3.050   1.253 -0.6633 -0.0543 -0.3342
  519TIP3    H1 1563   6.142   3.043   1.209 -0.4609 -0.4651 -0.6629
  519TIP3    H2 1564   6.260   3.136   1.225 -0.7297 -0.1251 -0.6392
  520TIP3   OH2 1565   1.195   2.663   3.484  0.0378 -0.4553 -0.1848
  520TIP3    H1 1566   1.147   2.653   3.401 -0.3216  1.9547 -0.3213
  520TIP3    H2 1567   1.276   2.708   3.460 -0.7225  1.6131  0.8954
  521TIP3   OH2 1568   2.430   4.198   3.489 -0.0402 -0.4990  0.2104
  521TIP3    H1 1569   2.448   4.188   3.396 -5.6314  1.7251 -1.5025
  521TIP3    H2 1570   2.393   4.114   3.515  0.4542 -0.7386  0.1612
  522TIP3   OH2 1571   6.103   1.598   4.730 -0.4126 -0.4376  0.1993
  522TIP3    H1 1572   6.046   1.651   4.674  0.4604 -1.2556 -1.5361
  522TIP3    H2 1573   6.055   1.591   4.813 -1.3802  1.4957 -0.1457
  523TIP3   OH2 1574   5.946   4.842   4.648  0.5465  0.2989  0.6589
  523TIP3    H1 1575   5.888   4.799   4.585  0.8070  0.1459  0.5223
  523TIP3    H2 1576   6.023   4.867   4.597  0.4672  0.7917  0.7696
  524TIP3   OH2 1577   3.937   3.493   2.654 -0.8154 -0.5708  0.0462
  524TIP3    H1 1578   3.903   3.467   2.569 -1.9970  0.5784  0.1485
  524TIP3    H2 1579   3.929   3.588   2.656  0.4039 -0.4608  0.9472
  525TIP3   OH2 1580   5.520   2.788   4.022 -0.0906 -0.4282  0.1396
  525TIP3    H1 1581   5.558   2.781   4.110 -1.7413  0.0627  0.9439
  525TIP3    H2 1582   5.570   2.858   3.980  0.1744 -0.0792  1.0078
  526TIP3   OH2 1583   1.551   2.363   4.391  0.3847 -0.4347 -0.0457
  526TIP3    H1 1584   1.618   2.321   4.446  1.2941 -0.2362 -0.9742
  526TIP3    H2 1585   1.549   2.311   4.311 -1.3256 -1.0500  0.3460
  527TIP3   OH2 1586   1.084   4.255   2.877 -0.5185 -0.0284  0.6929
  527TIP3    H1 1587   1.151   4.283   2.938 -0.7626 -0.1919  1.0380
  527TIP3    H2 1588   1.019   4.325   2.878  0.5045  1.0258 -1.0209
  528TIP3   OH2 1589   0.475   2.351   2.742 -0.1804 -0.0803  0.0934
  528TIP3    H1 1590   0.400   2.393   2.700  1.5641  1.0964 -2.0606
  528TIP3    H2 1591   0.528   2.319   2.669  1.4694 -0.7783  1.5413
  529TIP3   OH2 1592   5.394   3.618   3.562 -0.1724  0.2135  0.0518
  529TIP3    H1 1593   5.416   3.710   3.579 -0.6422  0.5762 -1.2356
  529TIP3    H2 1594   5.369   3.583   3.648 -0.5713  1.4481  0.4565
  530TIP3   OH2 1595   1.040   2.161   1.429  0.0083 -0.1744 -0.3345
  530TIP3    H1 1596   1.128   2.149   1.467 -1.0026 -0.7506  2.0199
  530TIP3    H2 1597   1.033   2.255   1.414  0.0954  0.2755  2.0572
  531TIP3   OH2 1598   6.031   1.183  -0.012 -0.4618 -0.2949  0.5088
  531TIP3    H1 1599   6.053   1.094  -0.039 -0.9109 -0.4549  0.6499
  531TIP3    H2 1600   6.058   1.188   0.080  2.4099  0.7138 -0.2835
  532TIP3   OH2 1601   2.687   3.529   1.888 -0.6755  0.3497  0.5101
  532TIP3    H1 1602   2.723   3.497   1.805 -1.5477 -0.1919  0.3344
  532TIP3    H2 1603   2.633   3.604   1.864 -0.2521  0.7271  0.7003
  533TIP3   OH2 1604   5.153   5.527   2.292  0.3833  0.2962  0.1734
  533TIP3    H1 1605   5.239   5.523   2.251  0.0523 -0.1276 -0.4932
  533TIP3    H2 1606   5.158   5.466   2.365 -0.2768 -2.1150 -1.6667
  534TIP3   OH2 1607   6.129   2.210   0.271 -0.3560  0.1736  0.8134
  534TIP3    H1 1608   6.087   2.272   0.211 -0.1297  0.3616  0.8509
  534TIP3    H2 1609   6.214   2.249   0.291  0.5146 -0.9561 -0.4875
  535TIP3   OH2 1610   5.291   5.844   4.435 -0.2286 -0.1756  0.4351
  535TIP3    H1 1611   5.253   5.834   4.348 -0.5507  0.3633  0.5082
  535TIP3    H2 1612   5.233   5.906   4.480 -1.0567 -1.7162  1.6193
  536TIP3   OH2 1613   6.082   2.473   2.605  0.5857 -0.3859  0.6407
  536TIP3    H1 1614   6.114   2.525   2.679 -0.1959  2.1657 -0.6918
  536TIP3    H2 1615   6.160   2.453   2.554  0.9297 -0.7707  1.3011
  537TIP3   OH2 1616   2.712   3.363   3.146 -0.1539 -0.4896 -0.3183
  537TIP3    H1 1617   2.802   3.343   3.171  0.3165  1.9627  0.2462
  537TIP3    H2 1618   2.695   3.449   3.184 -2.3462 -0.3515 -1.4247
  538TIP3   OH2 1619   5.499   5.610   4.406 -0.4899 -0.4835 -0.0917
  538TIP3    H1 1620   5.421   5.665   4.419 -0.0057  0.4570 -0.9755
  538TIP3    H2 1621   5.483   5.533   4.460 -1.2096  0.5033  1.1730
  539TIP3   OH2 1622   4.618   5.637   4.992 -0.0663 -0.0985 -0.0511
  539TIP3    H1 1623   4.618   5.705   4.925 -0.8647 -0.5407 -0.5255
  539TIP3    H2 1624   4.562   5.671   5.062 -0.2039 -0.1288 -0.1456
  540TIP3   OH2 1625   2.772   2.191   3.503  0.3576  0.1186  0.1832
  540TIP3    H1 1626   2.831   2.229   3.568 -0.2356  1.9241 -0.2752
  540TIP3    H2 1627   2.778   2.250   3.428 -1.4813 -0.0529 -0.1316
  541TIP3   OH2 1628   1.035   3.780   2.974 -0.0116  0.6688 -0.4178
  541TIP3    H1 1629   1.031   3.711   3.041  0.4270  1.5072  0.5000
  541TIP3    H2 1630   1.079   3.738   2.900  1.5423  0.3186  0.6362
  542TIP3   OH2 1631   1.775   1.550   4.942 -0.2248  0.4417 -0.3019
  542TIP3    H1 1632   1.680   1.557   4.939 -0.1421  2.2862  0.2175
  542TIP3    H2 1633   1.791   1.474   4.999 -1.3578 -0.2754 -0.8982
  543TIP3   OH2 1634   6.176   3.469   1.149 -0.2929  0.0790 -0.3103
  543TIP3    H1 1635   6.190   3.555   1.191  1.0042  0.5653 -1.6677
  543TIP3    H2 1636   6.110   3.486   1.082 -0.4656 -0.1278 -0.1940
  544TIP3   OH2 1637   6.035   5.020   2.293  0.5210 -0.4486  0.5742
  544TIP3    H1 1638   6.012   4.930   2.314 -3.1887 -0.1876 -1.5042
  544TIP3    H2 1639   5.986   5.073   2.356 -1.2656  0.0717 -1.1327
  545TIP3   OH2 1640   4.289   5.024   1.021 -0.0837 -0.2440  0.3534
  545TIP3    H1 1641   4.344   5.102   1.020  0.5431 -0.6588  1.0976
  545TIP3    H2 1642   4.216   5.045   0.962  0.1363  0.8444  0.4447
  546TIP3   OH2 1643   6.284   0.682   4.253 -0.5300 -0.5745  0.2781
  546TIP3    H1 1644   6.336   0.655   4.178 -0.4277 -0.0656  0.1636
  546TIP3    H2 1645   6.197   0.699   4.218 -0.4317 -0.1446  0.2362
  547TIP3   OH2 1646   1.886   0.109   4.653 -0.1239 -0.1840  0.6700
  547TIP3    H1 1647   1.874   0.035   4.713 -0.8230  0.2590  1.0953
  547TIP3    H2 1648   1.945   0.168   4.700 -0.4713  0.0462  0.8251
  548TIP3   OH2 1649   4.815   4.533   4.708  0.0481 -0.6115  0.2994
  548TIP3    H1 1650   4.867   4.455   4.689 -0.7397 -1.0938  0.0311
  548TIP3    H2 1651   4.726   4.509   4.681  0.1361  1.1280 -1.8763
  549TIP3   OH2 1652   1.412   5.667   0.359  0.4315  0.0175 -0.0483
  549TIP3    H1 1653   1.318   5.684   0.361  0.7454  2.0423  0.4918
  549TIP3    H2 1654   1.431   5.643   0.269 -0.7751 -1.7347  0.1319
  550TIP3   OH2 1655   5.525   5.741   2.989  0.6794 -0.0111  0.1202
  550TIP3    H1 1656   5.579   5.812   3.022  0.1352 -0.1527  1.3525
  550TIP3    H2 1657   5.447   5.784   2.954  1.1154  0.1142 -0.7202
  551TIP3   OH2 1658   1.825   5.922   0.293  0.4814 -0.0421  0.6312
  551TIP3    H1 1659   1.855   5.914   0.203 -0.5379  0.6194  0.2167
  551TIP3    H2 1660   1.902   5.900   0.346  1.4505  0.7646 -0.3917
  552TIP3   OH2 1661   6.096   2.759   3.558  0.0859 -0.5752  0.4236
  552TIP3    H1 1662   6.175   2.773   3.506 -1.9673  1.5062 -2.4084
  552TIP3    H2 1663   6.063   2.674   3.528 -1.1368  0.6496 -2.0044
  553TIP3   OH2 1664   3.659   2.322   2.641 -0.1057  0.1647 -0.2397
  553TIP3    H1 1665   3.663   2.383   2.714  1.2709  0.5005 -0.5738
  553TIP3    H2 1666   3.718   2.251   2.664  1.6196  1.0471 -1.6642
  554TIP3   OH2 1667   5.491   5.830   2.321  0.0475  0.3958 -0.5438
  554TIP3    H1 1668   5.408   5.847   2.366 -1.3701 -0.0477 -2.8608
  554TIP3    H2 1669   5.548   5.902   2.349 -0.7443  0.2025  1.8287
  555TIP3   OH2 1670   5.248   5.414   3.168 -0.1670 -0.0493 -0.3315
  555TIP3    H1 1671   5.226   5.502   3.197 -0.0878  0.0057 -0.4422
  555TIP3    H2 1672   5.342   5.416   3.153 -0.3219  0.1176 -1.2953
  556TIP3   OH2 1673   0.551   0.215   0.791 -0.5483 -0.0972  0.3112
  556TIP3    H1 1674   0.476   0.162   0.761  0.7837 -3.3754  2.1585
  556TIP3    H2 1675   0.542   0.215   0.886  2.1657 -1.3305  0.6451
  557TIP3   OH2 1676   0.698   5.746   1.085 -0.0774  0.3792  0.3076
  557TIP3    H1 1677   0.717   5.836   1.111  0.5104  0.4482 -0.3427
  557TIP3    H2 1678   0.605   5.746   1.064  0.1269  1.0862 -0.6570
  558TIP3   OH2 1679   1.952   3.000   4.820 -0.0962  0.2876 -0.5895
  558TIP3    H1 1680   1.991   3.074   4.773 -0.5700  1.1525  0.3298
  558TIP3    H2 1681   2.011   2.986   4.895 -0.0120 -0.2641 -0.7574
  559TIP3   OH2 1682   5.569   1.360   0.124  0.4034  0.3120 -0.6294
  559TIP3    H1 1683   5.509   1.345   0.197  2.0625 -4.6338  0.0610
  559TIP3    H2 1684   5.656   1.367   0.165  0.9902  1.4869 -1.9605
  560TIP3   OH2 1685   1.538   3.259   0.365  0.0483  0.2908  0.0734
  560TIP3    H1 1686   1.616   3.284   0.416  0.9814  0.6427 -1.4491
  560TIP3    H2 1687   1.465   3.268   0.426  0.9868  1.7551  1.0449
  561TIP3   OH2 1688   3.549   4.982   3.175  0.8594 -0.1092 -0.7200
  561TIP3    H1 1689   3.492   4.927   3.120 -0.3996  0.8348 -0.4041
  561TIP3    H2 1690   3.609   4.920   3.216  0.1148 -1.1393 -1.1303
  562TIP3   OH2 1691   0.042   2.963   4.152 -0.1997  0.1984 -0.1153
  562TIP3    H1 1692   0.067   2.880   4.112  0.8022  0.2158  0.4313
  562TIP3    H2 1693  -0.049   2.949   4.181  0.8631 -1.8314  2.7051
  563TIP3   OH2 1694   4.949   5.744   4.129 -0.3252 -0.4088  0.0360
  563TIP3    H1 1695   4.935   5.831   4.165 -1.5648 -0.4984 -0.1725
  563TIP3    H2 1696   4.950   5.686   4.205 -1.1628 -0.3954  0.0633
  564TIP3   OH2 1697   2.019   1.698   4.972  0.1609 -0.1397  0.1405
  564TIP3    H1 1698   1.982   1.757   5.037 -2.6612  0.7532 -2.0605
  564TIP3    H2 1699   1.971   1.615   4.984  0.7479 -0.4712  0.2169
  565TIP3   OH2 1700   0.038   0.606   2.886 -0.3527  0.0222 -0.6909
  565TIP3    H1 1701   0.092   0.661   2.943 -1.3975  0.6777 -0.3010
  565TIP3    H2 1702   0.048   0.518   2.922  0.7337  0.0576 -0.8568
  566TIP3   OH2 1703   3.227   5.535   0.179  0.8624 -0.5423 -0.0804
  566TIP3    H1 1704   3.215   5.629   0.193  0.1657 -0.5460 -0.6075
  566TIP3    H2 1705   3.256   5.502   0.264  2.5428  0.3638 -0.2703
  567TIP3   OH2 1706   3.249   2.915   1.355 -0.8825 -0.1386  0.4204
  567TIP3    H1 1707   3.228   2.829   1.317 -1.3042  0.2339 -0.1972
  567TIP3    H2 1708   3.294   2.894   1.437  1.5427 -0.9998 -1.0257
  568TIP3   OH2 1709   1.591   3.689   2.135 -0.1153 -0.9259 -0.9377
  568TIP3    H1 1710   1.591   3.597   2.109 -0.4629 -0.9944 -0.7077
  568TIP3    H2 1711   1.574   3.737   2.054 -0.5442 -1.0993 -0.9549
  569TIP3   OH2 1712   0.774   5.025   4.598  0.4501 -0.2267  0.4271
  569TIP3    H1 1713   0.814   5.043   4.513  1.1592  1.4436  1.0711
  569TIP3    H2 1714   0.688   5.066   4.594  1.0643  1.1885  0.9963
  570TIP3   OH2 1715   2.386   3.129   1.405 -0.0310  0.2976 -0.7681
  570TIP3    H1 1716   2.469   3.102   1.443  0.4814  0.5644 -1.6622
  570TIP3    H2 1717   2.400   3.125   1.311 -0.9338  0.6592 -0.9333
  571TIP3   OH2 1718   2.474   2.592   1.260 -0.1724 -0.1039 -0.0826
  571TIP3    H1 1719   2.412   2.518   1.254 -0.5012  0.0736  0.9236
  571TIP3    H2 1720   2.453   2.633   1.344  0.3120  0.8712 -0.4310
  572TIP3   OH2 1721   6.322   1.490   4.898 -0.2183 -0.7256  0.0058
  572TIP3    H1 1722   6.307   1.571   4.947  2.0529 -0.3995  0.2629
  572TIP3    H2 1723   6.249   1.485   4.837  0.9472  2.9869 -1.9489
  573TIP3   OH2 1724   6.274   0.441   1.699 -0.1258  0.0532 -0.4979
  573TIP3    H1 1725   6.305   0.527   1.669 -1.2057 -0.1585 -2.3539
  573TIP3    H2 1726   6.180   0.441   1.681 -0.5264 -0.8124  1.3291
  574TIP3   OH2 1727   3.337   0.498   2.398  0.1185 -0.0126 -0.2524
  574TIP3    H1 1728   3.287   0.573   2.431 -0.6354  0.1963 -1.7634
  574TIP3    H2 1729   3.270   0.439   2.362  0.6229 -1.7821  1.5061
  575TIP3   OH2 1730   2.242   2.755   4.969 -0.2931  0.0964  0.1161
  575TIP3    H1 1731   2.221   2.697   4.896  2.5682  0.3276 -1.0284
  575TIP3    H2 1732   2.249   2.697   5.045  1.6544 -0.9889 -0.8372
  576TIP3   OH2 1733   4.257   5.795   4.341 -0.5995  0.2385  0.4479
  576TIP3    H1 1734   4.246   5.713   4.390  0.8718  0.1899  0.7698
  576TIP3    H2 1735   4.342   5.786   4.298 -1.2775  0.8264 -1.0956
  577TIP3   OH2 1736   4.593   2.110   2.050 -0.1530  0.1178  0.2961
  577TIP3    H1 1737   4.576   2.139   1.961 -0.7918  2.5830  1.1367
  577TIP3    H2 1738   4.602   2.191   2.101  1.0221 -1.1883  2.3394
  578TIP3   OH2 1739   4.684   0.947   4.333 -0.0043 -0.3314  0.3979
  578TIP3    H1 1740   4.598   0.989   4.330  0.4080  0.5138 -0.2239
  578TIP3    H2 1741   4.744   1.017   4.359  0.6019 -0.7214  0.0758
  579TIP3   OH2 1742   2.682   2.170   0.669  0.5606  0.1872 -0.1053
  579TIP3    H1 1743   2.691   2.265   0.668  0.1321  0.2410 -1.4688
  579TIP3    H2 1744   2.613   2.152   0.605 -0.0959 -0.9756  0.8932
  580TIP3   OH2 1745   1.184   3.536   2.016  0.1952  0.3830  0.3166
  580TIP3    H1 1746   1.158   3.468   2.078 -1.2209  1.3374  0.8183
  580TIP3    H2 1747   1.125   3.524   1.941  1.8646 -0.7327 -0.8827
  581TIP3   OH2 1748   2.275   5.717   2.721 -0.9763  0.1880  0.5447
  581TIP3    H1 1749   2.254   5.654   2.653  0.2288 -0.8725  1.1083
  581TIP3    H2 1750   2.265   5.669   2.803  0.9497  0.3810  0.9387
  582TIP3   OH2 1751   6.010   3.448   2.624 -0.0672  0.5092  0.7122
  582TIP3    H1 1752   5.955   3.461   2.547 -0.4178 -3.2763  0.1329
  582TIP3    H2 1753   5.950   3.456   2.698 -1.3191 -2.4336  0.1417
  583TIP3   OH2 1754   2.042   1.164   3.405  0.3068 -0.1078 -0.1969
  583TIP3    H1 1755   2.121   1.214   3.385  0.2699 -0.2338 -0.6856
  583TIP3    H2 1756   2.069   1.072   3.398 -0.2744 -0.1909 -2.1776
  584TIP3   OH2 1757   5.793   2.780   0.631  0.0631 -0.2490 -0.0605
  584TIP3    H1 1758   5.819   2.863   0.591  1.6404 -1.6816 -2.2384
  584TIP3    H2 1759   5.846   2.773   0.710 -1.6224  1.7013  1.3681
  585TIP3   OH2 1760   0.242   3.100   4.918 -0.0850  0.2916  0.1799
  585TIP3    H1 1761   0.323   3.057   4.892 -0.2643  0.2686 -0.3469
  585TIP3    H2 1762   0.226   3.166   4.851  0.3961  1.4821  1.1970
  586TIP3   OH2 1763   0.914   1.834   1.812  0.2967 -0.2104  0.2683
  586TIP3    H1 1764   0.827   1.826   1.773  0.0939  0.4196  0.5862
  586TIP3    H2 1765   0.971   1.861   1.740  0.3366 -1.1195 -0.0560
  587TIP3   OH2 1766   2.939   5.910   3.832 -0.0502 -0.1732  0.2014
  587TIP3    H1 1767   2.958   5.955   3.914 -1.1202 -0.2907  0.5324
  587TIP3    H2 1768   2.904   5.825   3.858  2.5287 -1.5339 -0.4126
  588TIP3   OH2 1769   2.453   2.164   2.865  0.7228 -0.1925  0.0439
  588TIP3    H1 1770   2.493   2.160   2.951 -0.7250 -0.4260  0.7481
  588TIP3    H2 1771   2.466   2.076   2.828  0.2838 -0.4734  0.5439
  589TIP3   OH2 1772   4.650   3.290   1.586 -0.0533  0.4368  0.1761
  589TIP3    H1 1773   4.671   3.348   1.512  0.1918  0.9105  0.6063
  589TIP3    H2 1774   4.687   3.335   1.662  0.0012 -0.2138  0.5426
  590TIP3   OH2 1775   3.238   0.814   4.406 -0.7219 -0.1798 -0.0393
  590TIP3    H1 1776   3.225   0.724   4.374 -0.3455 -0.5894  0.9123
  590TIP3    H2 1777   3.299   0.804   4.479  1.3375  1.1327 -1.4864
  591TIP3   OH2 1778   5.256   1.254   0.047 -0.0339  0.3249 -0.2822
  591TIP3    H1 1779   5.192   1.193   0.081  0.3279  0.2029  0.1860
  591TIP3    H2 1780   5.339   1.207   0.052  0.1494  0.6142 -0.5400
  592TIP3   OH2 1781   3.823   2.343   4.659  0.1991  0.4586  0.0805
  592TIP3    H1 1782   3.758   2.309   4.598  0.1338  0.5033  0.1242
  592TIP3    H2 1783   3.803   2.437   4.666  2.1690  1.1588 -2.2909
  593TIP3   OH2 1784   5.421   4.126   1.080  0.0645 -0.5691 -0.3190
  593TIP3    H1 1785   5.371   4.171   1.012 -0.9509 -0.6565  0.3514
  593TIP3    H2 1786   5.512   4.137   1.054 -0.2954 -0.3351 -1.5217
  594TIP3   OH2 1787   3.869   5.917   3.591 -0.3584  0.1036  0.5271
  594TIP3    H1 1788   3.851   5.856   3.520 -2.0841  1.2353 -0.0918
  594TIP3    H2 1789   3.824   5.880   3.667 -0.4551  0.0424  0.4395
  595TIP3   OH2 1790   1.640   0.120   3.601  0.4219  0.2925  0.5445
  595TIP3    H1 1791   1.562   0.082   3.643 -0.0982  1.3022  0.5248
  595TIP3    H2 1792   1.709   0.111   3.666  0.2396 -0.4107  0.6517
  596TIP3   OH2 1793   2.111   4.048   0.109 -0.3396  0.3720  0.3145
  596TIP3    H1 1794   2.030   4.073   0.155  0.0597  0.1431  1.1754
  596TIP3    H2 1795   2.081   3.996   0.035 -1.0092  0.7365  0.3143
  597TIP3   OH2 1796   5.048   3.918   2.118  0.2209 -0.0268  0.3715
  597TIP3    H1 1797   5.110   3.967   2.063  0.2922 -0.4363  0.0765
  597TIP3    H2 1798   5.013   3.982   2.179 -1.0447  0.8185 -1.1737
  598TIP3   OH2 1799   0.316   5.117   4.770  0.1191 -0.1785  0.6575
  598TIP3    H1 1800   0.284   5.195   4.815  1.3364  0.5540  0.2764
  598TIP3    H2 1801   0.325   5.052   4.839 -2.0338 -0.4001  0.8075
  599TIP3   OH2 1802   6.337   1.034   0.706 -0.3504 -0.5464 -0.2171
  599TIP3    H1 1803   6.420   1.009   0.666  0.7702 -0.5215  1.9179
  599TIP3    H2 1804   6.289   1.079   0.637  2.1612  1.0267 -1.0900
  600TIP3   OH2 1805   2.076   5.103   1.476  0.5469  0.2123  0.3464
  600TIP3    H1 1806   2.043   5.191   1.458 -0.5047 -0.1962  0.2211
  600TIP3    H2 1807   2.096   5.066   1.390  0.9791  0.3187  0.3980
  601TIP3   OH2 1808   1.914   0.672   5.068  0.2826  0.2661  0.5519
  601TIP3    H1 1809   1.922   0.768   5.070  2.1059  0.1837 -0.6137
  601TIP3    H2 1810   1.825   0.655   5.101 -0.8566  2.4627 -1.0803
  602TIP3   OH2 1811   3.101   1.160   3.712 -0.3368 -0.3159 -0.2462
  602TIP3    H1 1812   3.044   1.220   3.665  0.3816 -0.7021 -1.6799
  602TIP3    H2 1813   3.111   1.085   3.653  0.9312 -0.6347  0.3318
  603TIP3   OH2 1814   1.937   1.640   2.936  0.2308  0.5408 -0.1223
  603TIP3    H1 1815   2.019   1.690   2.932  0.7150 -0.2859 -1.2543
  603TIP3    H2 1816   1.889   1.668   2.857  0.6383 -0.9518 -0.9321
  604TIP3   OH2 1817   6.108   5.449   0.596  0.1899 -0.3473  0.0441
  604TIP3    H1 1818   6.079   5.405   0.676 -1.4088 -0.9167 -0.7950
  604TIP3    H2 1819   6.038   5.511   0.576  0.8620  0.2275 -0.5831
  605TIP3   OH2 1820   0.932   5.509   0.586 -0.2048  0.1641 -0.2790
  605TIP3    H1 1821   1.015   5.500   0.632 -0.2175 -0.2725 -0.3314
  605TIP3    H2 1822   0.919   5.424   0.544 -2.0352 -0.8114  2.0117
  606TIP3   OH2 1823   3.051   2.663   3.167 -0.0098 -0.3113  0.4595
  606TIP3    H1 1824   3.091   2.576   3.172  0.6783 -0.1077 -0.9008
  606TIP3    H2 1825   2.961   2.647   3.138  0.3586 -0.5458 -0.6043
  607TIP3   OH2 1826   0.897   0.167   2.358  1.0507 -0.2531  0.4753
  607TIP3    H1 1827   0.983   0.208   2.348  1.3251 -1.0176 -0.4663
  607TIP3    H2 1828   0.845   0.204   2.286  0.6356  0.0856  0.9440
  608TIP3   OH2 1829   5.406   3.258   2.993 -0.4929  0.0059 -0.8949
  608TIP3    H1 1830   5.479   3.213   3.036 -0.4727 -0.6293 -1.5840
  608TIP3    H2 1831   5.335   3.195   2.993 -1.2947  0.8541  0.3875
  609TIP3   OH2 1832   4.977   0.416   4.482  0.2939 -0.1359  0.3348
  609TIP3    H1 1833   5.003   0.506   4.502 -1.3603  0.5048 -0.2014
  609TIP3    H2 1834   5.033   0.391   4.409  0.6748  0.5111  0.3934
  610TIP3   OH2 1835   3.169   5.963   2.136  0.1621  0.2211 -0.4567
  610TIP3    H1 1836   3.166   6.045   2.087 -0.4934  0.3650 -0.1939
  610TIP3    H2 1837   3.105   5.975   2.206  1.0759  0.0120  0.4277
  611TIP3   OH2 1838   5.042   0.024   1.714  0.2146 -0.1978 -0.5429
  611TIP3    H1 1839   4.996   0.089   1.767  0.7527  0.9551 -1.4345
  611TIP3    H2 1840   5.129   0.018   1.755  0.1526 -0.3829 -0.4390
  612TIP3   OH2 1841   3.239   0.604   3.308  0.1038  0.4371 -0.6308
  612TIP3    H1 1842   3.181   0.529   3.322 -0.2439  0.9585  0.9459
  612TIP3    H2 1843   3.320   0.581   3.355  0.8915  0.0931 -2.0828
  613TIP3   OH2 1844   1.092   4.946   0.752 -0.5753  0.0696 -0.2187
  613TIP3    H1 1845   1.135   4.987   0.827 -0.7778 -0.6964  0.3247
  613TIP3    H2 1846   1.163   4.919   0.694 -0.2817 -1.4666  0.8152
  614TIP3   OH2 1847   2.729   4.777   3.897  0.2116 -0.6773 -0.2534
  614TIP3    H1 1848   2.666   4.849   3.897  2.4054  1.4205  1.2473
  614TIP3    H2 1849   2.803   4.809   3.846  0.9046 -2.2333 -0.2951
  615TIP3   OH2 1850   2.842   2.968   4.736 -0.6461 -0.4176 -0.2208
  615TIP3    H1 1851   2.875   2.986   4.824 -1.3096  0.8509 -0.2115
  615TIP3    H2 1852   2.880   2.883   4.713 -1.0538 -1.1346  1.5869
  616TIP3   OH2 1853   2.110   0.137   2.375  0.5675 -0.1038 -0.2831
  616TIP3    H1 1854   2.130   0.084   2.298 -2.7679 -1.0213 -0.6680
  616TIP3    H2 1855   2.080   0.221   2.339 -1.8045 -0.8191 -0.1367
  617TIP3   OH2 1856   4.185   5.897   2.843  0.3066  0.2919  0.3075
  617TIP3    H1 1857   4.143   5.966   2.894  0.7835  0.9610 -0.1743
  617TIP3    H2 1858   4.132   5.890   2.764  1.1712  1.2777 -0.3925
  618TIP3   OH2 1859   1.040   5.211   3.626  0.4199 -0.3802  0.1271
  618TIP3    H1 1860   1.090   5.220   3.545 -0.3062 -1.5933 -0.4915
  618TIP3    H2 1861   1.061   5.122   3.656 -1.9148 -1.2560 -0.5826
  619TIP3   OH2 1862   0.941   0.595   1.852 -0.6878  0.1907  0.0344
  619TIP3    H1 1863   1.006   0.632   1.793  0.6083 -0.0022  1.2753
  619TIP3    H2 1864   0.912   0.668   1.906 -0.1751 -0.0497  0.6509
  620TIP3   OH2 1865   2.911   1.100   2.619  0.0423 -0.3204 -0.1455
  620TIP3    H1 1866   2.937   1.183   2.660 -2.0759  0.2214  0.2610
  620TIP3    H2 1867   2.993   1.060   2.591  1.3355  0.7778  1.7961
  621TIP3   OH2 1868   0.173   5.536   5.164  0.2839 -0.2543  0.4330
  621TIP3    H1 1869   0.130   5.477   5.102  0.1333  1.0981 -0.8037
  621TIP3    H2 1870   0.229   5.479   5.215  0.8077 -1.3791 -1.2903
  622TIP3   OH2 1871   4.410   4.439   1.654 -0.6652 -1.1019  0.1777
  622TIP3    H1 1872   4.406   4.471   1.564  0.6136 -0.7435  0.2172
  622TIP3    H2 1873   4.349   4.494   1.702 -0.0558 -0.1088 -0.1569
  623TIP3   OH2 1874   3.560   4.687   0.324  0.0816  0.6262 -0.2875
  623TIP3    H1 1875   3.623   4.655   0.260  0.1931 -1.2495  0.6843
  623TIP3    H2 1876   3.611   4.702   0.403 -0.5115 -0.0284  0.2354
  624TIP3   OH2 1877   2.841   5.653   3.903  0.4012 -0.3331 -0.4710
  624TIP3    H1 1878   2.871   5.609   3.983 -0.1401 -1.1380 -0.6982
  624TIP3    H2 1879   2.749   5.627   3.894 -0.2769  1.7696 -0.0119
  625TIP3   OH2 1880   0.108   5.732   2.980 -0.0869 -0.4387 -0.0587
  625TIP3    H1 1881   0.201   5.753   2.978  0.1227 -1.3128 -0.1903
  625TIP3    H2 1882   0.075   5.773   3.060  0.6421 -0.9981  0.5359
  626TIP3   OH2 1883   3.628   0.729   2.544  0.7422  0.4165  0.4454
  626TIP3    H1 1884   3.643   0.720   2.638  0.1786  0.1788  0.5193
  626TIP3    H2 1885   3.628   0.639   2.511 -0.0702  0.4290  0.3893
  627TIP3   OH2 1886   5.088   2.983   3.935 -0.1896 -0.1729 -0.1953
  627TIP3    H1 1887   5.062   3.059   3.882  3.3879  1.7953  0.5315
  627TIP3    H2 1888   5.070   3.009   4.025 -0.9437 -1.1450 -0.0471
  628TIP3   OH2 1889   5.140   1.590   0.309 -0.7670  0.1591 -0.5815
  628TIP3    H1 1890   5.215   1.538   0.336 -1.3654  0.6100  2.2415
  628TIP3    H2 1891   5.144   1.589   0.213  2.7509  0.1095 -0.5772
  629TIP3   OH2 1892   3.184   1.493   1.860 -0.9438 -0.3101 -0.0393
  629TIP3    H1 1893   3.124   1.422   1.837  0.0970 -0.4915 -2.5122
  629TIP3    H2 1894   3.138   1.573   1.833 -1.0458 -0.2395  0.3322
  630TIP3   OH2 1895   3.808   0.656   2.263 -0.4791 -0.4242  0.7136
  630TIP3    H1 1896   3.718   0.654   2.231 -1.3516  0.4927  2.8950
  630TIP3    H2 1897   3.851   0.583   2.220 -1.7374  0.2111 -1.8017
  631TIP3   OH2 1898   1.586   5.420   1.277 -0.1643 -0.1752  0.3497
  631TIP3    H1 1899   1.636   5.340   1.291 -1.3978 -1.1340 -0.5406
  631TIP3    H2 1900   1.495   5.391   1.270 -0.3796  0.7757 -3.4138
  632TIP3   OH2 1901   5.829   0.726   2.236  0.1221  0.1354  0.3853
  632TIP3    H1 1902   5.788   0.650   2.194  0.5867  0.1332 -0.0879
  632TIP3    H2 1903   5.820   0.797   2.172 -2.4249  1.1681  1.7630
  633TIP3   OH2 1904   2.470   4.526   4.390 -0.2144 -0.4843 -0.4173
  633TIP3    H1 1905   2.440   4.436   4.401 -2.4512  0.2464 -0.0329
  633TIP3    H2 1906   2.436   4.552   4.304  0.4662 -0.0292 -0.5539
  634TIP3   OH2 1907   2.125   2.557   0.988 -0.5309  0.0140 -0.0567
  634TIP3    H1 1908   2.029   2.551   0.981 -0.6376 -0.6518  1.6385
  634TIP3    H2 1909   2.156   2.518   0.906 -1.6999 -0.2733 -0.3952
  635TIP3   OH2 1910   3.332   0.383   3.130 -0.1754 -0.2450  0.0810
  635TIP3    H1 1911   3.260   0.341   3.177 -0.0500  0.2339  0.7216
  635TIP3    H2 1912   3.378   0.433   3.197  0.5150 -0.2212 -0.4009
  636TIP3   OH2 1913   2.804   4.314   3.851  0.6318  0.0247 -0.2122
  636TIP3    H1 1914   2.824   4.357   3.768 -1.4407  0.0389 -0.7771
  636TIP3    H2 1915   2.806   4.220   3.831 -0.6820  0.0377 -0.5559
  637TIP3   OH2 1916   5.185   2.575   2.582 -0.6078 -0.2197  0.1554
  637TIP3    H1 1917   5.223   2.643   2.636 -1.0106  0.4212 -0.3465
  637TIP3    H2 1918   5.091   2.592   2.584 -0.6423 -0.2445 -0.6387
  638TIP3   OH2 1919   0.904   0.722   3.594 -0.3600 -0.1246  0.3628
  638TIP3    H1 1920   0.984   0.698   3.641 -0.6177 -0.9967  0.3834
  638TIP3    H2 1921   0.835   0.670   3.637 -1.1127  1.3288  0.9753
  639TIP3   OH2 1922   6.173   2.268   2.208 -0.5506 -0.7525 -0.1916
  639TIP3    H1 1923   6.103   2.329   2.231 -0.3320 -0.8264  0.6917
  639TIP3    H2 1924   6.197   2.227   2.291 -0.0492 -1.3539 -0.6301
  640TIP3   OH2 1925   1.555   2.422   3.350 -0.3571  0.8691 -0.2229
  640TIP3    H1 1926   1.594   2.382   3.427 -1.2748 -0.6708 -0.5022
  640TIP3    H2 1927   1.472   2.458   3.381 -1.5110 -1.1963 -0.7407
  641TIP3   OH2 1928   5.093   1.826   1.749  0.2373 -0.0916 -0.0961
  641TIP3    H1 1929   5.168   1.869   1.707  1.6823  0.4255  2.6839
  641TIP3    H2 1930   5.083   1.873   1.832  0.4698 -3.5922  2.1469
  642TIP3   OH2 1931   5.627   4.483   3.268 -0.5467 -0.3261  0.1844
  642TIP3    H1 1932   5.588   4.551   3.213 -0.4984 -0.4447  0.0033
  642TIP3    H2 1933   5.643   4.526   3.351 -0.0031  0.0387 -0.1063
  643TIP3   OH2 1934   3.811   4.569   2.521 -0.0867  0.2280  0.5994
  643TIP3    H1 1935   3.890   4.587   2.573 -1.3051  0.6308  2.3918
  643TIP3    H2 1936   3.764   4.503   2.571  0.5241 -2.3867 -1.9981
  644TIP3   OH2 1937   3.569   4.277   3.202 -0.3131  0.1457 -0.6443
  644TIP3    H1 1938   3.496   4.275   3.140  0.8463 -0.0262 -2.0615
  644TIP3    H2 1939   3.547   4.348   3.262 -2.0398 -0.4614 -0.4959
  645TIP3   OH2 1940   2.254   5.313   1.393  0.6129 -0.2028  0.2694
  645TIP3    H1 1941   2.204   5.239   1.358  1.3061 -0.8812  0.6963
  645TIP3    H2 1942   2.209   5.334   1.475  0.5615 -0.3059  0.2682
  646TIP3   OH2 1943   2.013   3.732   1.914 -0.4501  0.5067  0.0276
  646TIP3    H1 1944   2.101   3.729   1.951  0.2045  0.3319 -1.4534
  646TIP3    H2 1945   1.955   3.721   1.989  0.7326  2.0502  1.2512
  647TIP3   OH2 1946   1.792   0.960   0.814  0.1042  0.3305  0.3635
  647TIP3    H1 1947   1.880   0.924   0.811 -0.2542 -0.5808  0.5253
  647TIP3    H2 1948   1.735   0.884   0.827 -0.6483  0.9759  0.9383
  648TIP3   OH2 1949   0.683   2.012   1.816  0.3953  0.1892  0.1886
  648TIP3    H1 1950   0.686   2.024   1.721 -0.1797  0.9604  0.2504
  648TIP3    H2 1951   0.612   2.070   1.845  0.2919 -0.3463  1.0425
  649TIP3   OH2 1952   2.905   2.669   1.400 -0.1654  0.1957 -0.4769
  649TIP3    H1 1953   2.852   2.745   1.423 -0.6676 -0.1379 -0.5058
  649TIP3    H2 1954   2.982   2.675   1.456  0.2629  1.2344 -1.1581
  650TIP3   OH2 1955   0.954   5.835   1.394  0.1034 -0.2772  0.8887
  650TIP3    H1 1956   0.891   5.900   1.426  0.8651  0.0629  1.7373
  650TIP3    H2 1957   1.030   5.887   1.365 -0.1697 -0.6432 -0.5995
  651TIP3   OH2 1958   4.107   2.301   3.617 -0.0251 -0.6266 -0.4330
  651TIP3    H1 1959   4.155   2.343   3.689 -2.3304  0.4412  0.5784
  651TIP3    H2 1960   4.103   2.209   3.641  1.7343 -0.8112 -0.7107
  652TIP3   OH2 1961   4.680   4.407   1.756  0.2523 -0.2833 -0.0773
  652TIP3    H1 1962   4.691   4.499   1.731  0.6583 -0.4488 -0.5128
  652TIP3    H2 1963   4.596   4.382   1.719  0.3344 -0.2042 -0.3217
  653TIP3   OH2 1964   5.314   4.596   1.955  0.3156 -0.3701  0.2706
  653TIP3    H1 1965   5.311   4.662   1.887  0.1777  0.0021  0.6330
  653TIP3    H2 1966   5.344   4.643   2.033 -2.8079  0.0337  1.3714
  654TIP3   OH2 1967   1.457   2.717   2.025  0.1733  0.4801  0.0591
  654TIP3    H1 1968   1.530   2.679   2.072 -0.5546 -0.1196  0.7317
  654TIP3    H2 1969   1.380   2.696   2.078 -0.3583  2.1230 -0.0077
  655TIP3   OH2 1970   5.922   1.910   4.291 -0.4436 -0.7764  0.4329
  655TIP3    H1 1971   5.915   1.835   4.231  0.3041 -1.4272  1.1341
  655TIP3    H2 1972   5.855   1.893   4.358 -0.3222 -0.7799  0.5532
  656TIP3   OH2 1973   0.843   0.346   4.831 -0.4645 -0.0899  0.4584
  656TIP3    H1 1974   0.821   0.402   4.757 -3.1768 -0.4268  0.9120
  656TIP3    H2 1975   0.880   0.267   4.791 -1.7193 -0.1901 -0.5705
  657TIP3   OH2 1976   4.827   3.623   4.160  0.0867 -0.2603  0.4681
  657TIP3    H1 1977   4.834   3.673   4.242 -0.5509  1.1833 -0.3114
  657TIP3    H2 1978   4.915   3.589   4.145  0.7861  1.3852  0.6037
  658TIP3   OH2 1979   3.323   5.548   5.085  0.1013  0.2594 -0.5163
  658TIP3    H1 1980   3.314   5.614   5.016  1.1204 -0.6458 -1.5541
  658TIP3    H2 1981   3.259   5.481   5.063  1.1631 -0.5500 -1.2310
  659TIP3   OH2 1982   5.300   3.515   0.078  0.2383  0.3493 -0.2989
  659TIP3    H1 1983   5.253   3.434   0.097  0.4946 -0.0002 -1.1542
  659TIP3    H2 1984   5.324   3.549   0.165 -1.2253  0.3290  0.1489
  660TIP3   OH2 1985   0.888   3.039   4.757  0.0094  0.2068 -0.1332
  660TIP3    H1 1986   0.945   3.079   4.823  0.2600 -1.1457  0.5028
  660TIP3    H2 1987   0.807   3.019   4.804 -0.8490  1.6865 -0.9184
  661TIP3   OH2 1988   2.853   3.609   4.516 -0.6723  0.2019 -0.1381
  661TIP3    H1 1989   2.857   3.705   4.511 -0.3592  0.2400  0.7417
  661TIP3    H2 1990   2.861   3.580   4.425  1.9037  0.9154 -0.2087
  662TIP3   OH2 1991   1.771   2.267   3.778  0.0627 -0.6807 -0.1105
  662TIP3    H1 1992   1.757   2.248   3.686 -0.0612 -0.4149 -0.1481
  662TIP3    H2 1993   1.752   2.184   3.823 -0.6019 -0.6200 -0.2606
  663TIP3   OH2 1994   4.214   3.551   0.946 -0.6532  0.1296  0.9369
  663TIP3    H1 1995   4.188   3.516   1.031 -2.5615 -0.0473  0.3281
  663TIP3    H2 1996   4.138   3.602   0.916 -0.5329 -0.8165 -1.1815
  664TIP3   OH2 1997   6.001   4.463   3.417  0.0788  0.2756 -0.3251
  664TIP3    H1 1998   6.058   4.396   3.456 -2.5098 -1.0074  1.6163
  664TIP3    H2 1999   6.001   4.534   3.482  0.4930  0.8682 -0.9648
  665TIP3   OH2 2000   1.873   0.440   0.689  0.2952 -0.3133  0.0652
  665TIP3    H1 2001   1.780   0.426   0.708 -0.5706  3.9259 -0.0614
  665TIP3    H2 2002   1.877   0.446   0.593  0.8931 -1.2525  0.0184
  666TIP3   OH2 2003   2.693   1.402   0.722 -0.3085 -0.1675  0.2749
  666TIP3    H1 2004   2.710   1.371   0.811 -1.0640  0.2328  0.5593
  666TIP3    H2 2005   2.614   1.454   0.729 -0.6544 -0.5353 -0.7200
  667TIP3   OH2 2006   3.340   4.889   0.031  0.1330 -0.0088 -0.7617
  667TIP3    H1 2007   3.370   4.929  -0.050  0.9754 -0.7985 -0.8669
  667TIP3    H2 2008   3.406   4.914   0.096  0.5291 -0.9565 -0.7697
  668TIP3   OH2 2009   0.974   5.181   3.149  0.1957 -0.2694 -0.2474
  668TIP3    H1 2010   0.977   5.128   3.069  1.8159  1.0544 -1.1349
  668TIP3    H2 2011   1.061   5.171   3.187  0.3543  1.2386 -0.1375
  669TIP3   OH2 2012   5.707   4.076   1.048 -0.0764  0.3420 -0.0668
  669TIP3    H1 2013   5.779   4.133   1.018  2.8985 -1.4412  3.0600
  669TIP3    H2 2014   5.744   3.988   1.048 -1.6344 -0.4521  3.2870
  670TIP3   OH2 2015   1.671   0.576   1.052 -0.3900 -0.9814 -0.2503
  670TIP3    H1 2016   1.731   0.502   1.064 -0.5662 -1.1387 -0.3299
  670TIP3    H2 2017   1.627   0.585   1.136 -0.1310 -0.7553 -0.1383
  671TIP3   OH2 2018   0.160   5.559   3.772  0.0331 -0.0219 -0.1267
  671TIP3    H1 2019   0.077   5.510   3.766 -1.1640  1.4507  2.4880
  671TIP3    H2 2020   0.204   5.521   3.848  1.6475 -0.5536 -1.2913
  672TIP3   OH2 2021   1.787   5.741   3.753 -0.0008 -0.1044  0.2604
  672TIP3    H1 2022   1.744   5.685   3.818  0.0843  0.3846  0.7420
  672TIP3    H2 2023   1.746   5.827   3.764  0.8648  0.2891  0.5110
  673TIP3   OH2 2024   4.283   1.657   4.519 -0.3232  0.3237 -0.2684
  673TIP3    H1 2025   4.333   1.622   4.593 -1.5625 -2.6584 -0.7180
  673TIP3    H2 2026   4.330   1.626   4.442 -0.2888  1.5190 -0.7475
  674TIP3   OH2 2027   1.742   1.643   3.213  0.1759  0.0032  0.5200
  674TIP3    H1 2028   1.713   1.714   3.156 -0.2027 -0.2292  0.4153
  674TIP3    H2 2029   1.691   1.654   3.293 -0.3371 -0.5029  0.2742
  675TIP3   OH2 2030   3.293   4.271   5.112 -0.7176 -0.8710 -0.1680
  675TIP3    H1 2031   3.222   4.238   5.166 -0.4999 -0.2181  0.5305
  675TIP3    H2 2032   3.285   4.366   5.117  2.1227 -0.6180  2.5997
  676TIP3   OH2 2033   2.936   2.069   5.144 -0.1672  0.3483  0.0230
  676TIP3    H1 2034   2.883   2.126   5.089  1.8674  1.1173 -1.2527
  676TIP3    H2 2035   2.901   2.081   5.232 -0.0088  3.3513 -0.2354
  677TIP3   OH2 2036   0.730   1.213   3.123 -0.2165 -0.4196  0.0661
  677TIP3    H1 2037   0.808   1.184   3.076 -1.2819 -0.7720 -1.5825
  677TIP3    H2 2038   0.763   1.267   3.194  1.5162 -0.4624 -0.6643
  678TIP3   OH2 2039   3.718   0.341   3.110 -0.0502 -0.3998  0.2088
  678TIP3    H1 2040   3.667   0.338   3.191 -1.2713 -0.0659 -0.5264
  678TIP3    H2 2041   3.654   0.325   3.040  0.8209  0.1911 -0.7585
  679TIP3   OH2 2042   1.298   4.962   0.580  0.4555 -0.2676  0.7104
  679TIP3    H1 2043   1.362   5.016   0.535 -0.2024  0.5377  0.7157
  679TIP3    H2 2044   1.215   4.983   0.538  0.0281 -0.4784  1.4226
  680TIP3   OH2 2045   4.233   2.258   2.888  0.5503  0.9655  0.6357
  680TIP3    H1 2046   4.183   2.236   2.810 -0.4124 -0.4252  1.5938
  680TIP3    H2 2047   4.175   2.315   2.939  0.5786  0.6505  1.0236
  681TIP3   OH2 2048   4.040   2.446   0.555  0.4330 -0.6720 -0.4078
  681TIP3    H1 2049   4.038   2.505   0.479 -1.3832 -0.1073  0.0271
  681TIP3    H2 2050   4.077   2.499   0.625  0.5050 -0.6368 -0.4719
  682TIP3   OH2 2051   2.120   5.893   4.502 -0.2922 -0.1159 -0.1264
  682TIP3    H1 2052   2.196   5.837   4.485  1.1740  1.2870  1.3359
  682TIP3    H2 2053   2.132   5.968   4.443 -0.6727 -0.0046 -0.0616
  683TIP3   OH2 2054   3.455   1.953   0.526 -0.2789 -0.5295  0.1311
  683TIP3    H1 2055   3.370   1.917   0.500  0.1304 -2.2387  1.0304
  683TIP3    H2 2056   3.519   1.902   0.476  0.2504  1.4581 -1.3676
  684TIP3   OH2 2057   1.195   1.846   3.489  0.4290 -0.5435  0.2655
  684TIP3    H1 2058   1.286   1.850   3.521  0.3118  0.0966  0.5299
  684TIP3    H2 2059   1.145   1.894   3.555  0.0704  0.1686 -0.5209
  685TIP3   OH2 2060   2.522   4.441   1.956  0.2362  0.1240 -0.0657
  685TIP3    H1 2061   2.508   4.401   2.042  2.0510 -0.2305  0.1130
  685TIP3    H2 2062   2.602   4.399   1.923  0.1723  1.0334 -1.4553
  686TIP3   OH2 2063   4.907   4.263   1.676 -0.6793 -0.4021 -0.2684
  686TIP3    H1 2064   4.924   4.334   1.614 -1.0004  0.0816  0.1885
  686TIP3    H2 2065   4.852   4.303   1.743  1.4656 -0.2891  1.5492
  687TIP3   OH2 2066   1.782   4.661   5.177 -0.2581 -0.1588 -0.1094
  687TIP3    H1 2067   1.837   4.638   5.252 -0.0448 -1.2461 -0.5737
  687TIP3    H2 2068   1.781   4.581   5.123 -0.9737  0.3758 -0.9106
  688TIP3   OH2 2069   0.567   5.381   1.603 -0.4563  0.4532 -0.1707
  688TIP3    H1 2070   0.537   5.357   1.691 -3.8104  3.9397 -0.0669
  688TIP3    H2 2071   0.656   5.412   1.616 -0.3715 -0.4225  1.7436
  689TIP3   OH2 2072   2.806   0.124   2.158 -0.3453 -0.1404  0.8597
  689TIP3    H1 2073   2.874   0.154   2.097 -0.9620 -0.5371 -0.0538
  689TIP3    H2 2074   2.831   0.161   2.242  2.0427 -1.7734  0.9844
  690TIP3   OH2 2075   3.965   4.195   1.797  0.0426  0.2360 -0.3059
  690TIP3    H1 2076   3.955   4.275   1.847  1.6475 -0.9309  2.0643
  690TIP3    H2 2077   4.013   4.222   1.718  1.7512  1.4264  1.0798
  691TIP3   OH2 2078   3.553   3.469   4.445 -0.0051 -0.1062 -0.0260
  691TIP3    H1 2079   3.582   3.520   4.369 -0.8865 -0.2461 -0.4687
  691TIP3    H2 2080   3.622   3.403   4.457  1.2748  1.3030  0.7110
  692TIP3   OH2 2081   2.991   1.216   3.271 -0.2563 -0.0499  0.4150
  692TIP3    H1 2082   2.936   1.143   3.301 -1.0657  0.3538 -0.0600
  692TIP3    H2 2083   3.034   1.182   3.192 -1.8621  0.4879 -0.7393
  693TIP3   OH2 2084   3.352   4.028   0.192 -0.1402  0.1079 -0.1553
  693TIP3    H1 2085   3.445   4.045   0.177 -0.5856  0.2651 -3.5327
  693TIP3    H2 2086   3.350   3.939   0.228  1.3162  0.6938  1.5500
  694TIP3   OH2 2087   3.444   3.471   0.242  0.9520 -0.4983 -0.6397
  694TIP3    H1 2088   3.470   3.401   0.302 -0.5037 -0.1441  0.4720
  694TIP3    H2 2089   3.386   3.428   0.178  0.0039 -0.3314  0.0828
  695TIP3   OH2 2090   0.263   2.452   3.642 -0.3591 -0.1427  1.0044
  695TIP3    H1 2091   0.201   2.471   3.712  0.2950  2.2301  1.0288
  695TIP3    H2 2092   0.308   2.535   3.627  1.0238 -1.1447 -0.7624
  696TIP3   OH2 2093   5.408   2.505   0.309  0.2648  0.1672 -0.1682
  696TIP3    H1 2094   5.487   2.461   0.277  1.1782  0.3340  1.7673
  696TIP3    H2 2095   5.437   2.593   0.331 -0.2932  0.0252  1.1832
  697TIP3   OH2 2096   1.946   1.768   0.304 -0.0056  0.0713 -0.0004
  697TIP3    H1 2097   1.879   1.725   0.250 -0.1819 -0.3296  0.5313
  697TIP3    H2 2098   1.903   1.786   0.387  1.5866 -3.8921  1.9296
  698TIP3   OH2 2099   0.682   3.930   2.747  0.3230 -0.3999  0.1439
  698TIP3    H1 2100   0.722   3.995   2.690 -0.0249 -1.3920 -1.3008
  698TIP3    H2 2101   0.729   3.938   2.830  2.8659 -0.8653 -1.1642
  699TIP3   OH2 2102   4.979   4.036   2.347  0.2847 -0.2065 -0.1772
  699TIP3    H1 2103   4.925   4.114   2.364  0.3296 -0.1210 -0.4174
  699TIP3    H2 2104   5.067   4.062   2.374  0.4718  0.1322 -1.0576
  700TIP3   OH2 2105   4.087   5.951   3.837  0.0317 -0.1875 -0.2318
  700TIP3    H1 2106   4.116   5.978   3.750  3.0971  1.4486  1.1458
  700TIP3    H2 2107   4.120   5.861   3.846  0.9168  0.1259 -0.2784
  701TIP3   OH2 2108   5.840   0.407   5.074  0.2630  0.4520  0.4243
  701TIP3    H1 2109   5.862   0.336   5.014  1.4182  1.0737  0.0824
  701TIP3    H2 2110   5.832   0.365   5.159 -2.2689 -0.5812 -0.2533
  702TIP3   OH2 2111   0.746   0.305   5.096 -0.0145  0.7063 -0.0039
  702TIP3    H1 2112   0.797   0.320   5.016 -1.0691  0.3056 -0.7674
  702TIP3    H2 2113   0.681   0.376   5.097 -0.1222  0.6055  0.4066
  703TIP3   OH2 2114   0.246   5.353   1.929  0.1319  0.2466  0.5773
  703TIP3    H1 2115   0.304   5.332   1.857 -0.5717  0.1771  0.0195
  703TIP3    H2 2116   0.294   5.417   1.982  0.8581 -0.1040  0.3395
  704TIP3   OH2 2117   3.760   3.299   4.795 -0.0309 -0.2034  0.0332
  704TIP3    H1 2118   3.755   3.343   4.880 -0.6306  1.5333 -0.8513
  704TIP3    H2 2119   3.850   3.316   4.766 -0.1069 -0.0008 -0.0836
  705TIP3   OH2 2120   2.322   1.724   4.659  0.0469  0.1244 -0.2230
  705TIP3    H1 2121   2.341   1.728   4.753 -1.6828  0.6824  0.1413
  705TIP3    H2 2122   2.279   1.808   4.640  1.4373  0.5226 -1.7860
  706TIP3   OH2 2123   0.550   0.121   4.964  0.0978  0.9835 -0.2609
  706TIP3    H1 2124   0.594   0.195   5.006 -1.5469  1.2947  1.0191
  706TIP3    H2 2125   0.530   0.061   5.036 -0.5516  0.3289 -0.9656
  707TIP3   OH2 2126   5.913   3.159   0.353  0.2938  0.1573  0.0329
  707TIP3    H1 2127   5.999   3.150   0.394 -1.0881  1.2278  3.5717
  707TIP3    H2 2128   5.895   3.253   0.354 -1.9322 -0.2008  1.9233
  708TIP3   OH2 2129   1.739   0.518   3.711 -0.1921  0.3365 -0.1820
  708TIP3    H1 2130   1.671   0.452   3.727 -0.3807  0.9105  1.5042
  708TIP3    H2 2131   1.806   0.471   3.662 -0.1470 -1.2418  1.2951
  709TIP3   OH2 2132   4.601   5.714   0.213  0.2837  0.3340 -0.1705
  709TIP3    H1 2133   4.597   5.771   0.137 -2.0235 -0.2912 -0.5777
  709TIP3    H2 2134   4.670   5.651   0.192  0.6252  0.9895 -1.1022
  710TIP3   OH2 2135   5.860   5.098   1.350  0.5383 -0.6886 -0.6665
  710TIP3    H1 2136   5.880   5.006   1.330  0.9269 -0.9650  0.8775
  710TIP3    H2 2137   5.901   5.114   1.435  0.6678  0.9932 -1.0043
  711TIP3   OH2 2138   3.097   2.818   2.478  0.2709 -1.3216 -0.2796
  711TIP3    H1 2139   3.122   2.726   2.463  0.3168 -1.1279 -1.5257
  711TIP3    H2 2140   3.162   2.869   2.429  1.2172 -0.5131  1.6918
  712TIP3   OH2 2141   2.432   4.558   3.130 -0.1702 -0.0708 -0.1156
  712TIP3    H1 2142   2.429   4.493   3.201  1.7498 -1.3688 -1.1415
  712TIP3    H2 2143   2.494   4.625   3.161 -0.7775  0.3556  0.1952
  713TIP3   OH2 2144   2.319   5.417   1.121 -0.1973  0.2814 -0.2291
  713TIP3    H1 2145   2.310   5.375   1.206 -0.5921  0.9199  0.0516
  713TIP3    H2 2146   2.303   5.510   1.138 -2.1195  0.2017 -1.2697
  714TIP3   OH2 2147   4.023   4.516   5.033 -0.9666 -0.4878 -0.4244
  714TIP3    H1 2148   4.030   4.592   5.090 -1.1982 -1.4548  0.9437
  714TIP3    H2 2149   4.054   4.442   5.086 -0.7660 -1.3599 -1.6979
  715TIP3   OH2 2150   3.430   0.787   3.145 -0.7115  0.1163 -0.1499
  715TIP3    H1 2151   3.401   0.773   3.235  2.7997 -0.0648  1.0937
  715TIP3    H2 2152   3.446   0.881   3.138 -1.0701  0.1477 -0.6408
  716TIP3   OH2 2153   3.444   1.673   1.440  0.3250 -0.1944  0.0446
  716TIP3    H1 2154   3.461   1.595   1.493 -1.0258  0.8611  2.1711
  716TIP3    H2 2155   3.392   1.641   1.366 -1.0697 -1.2407  1.3987
  717TIP3   OH2 2156   4.874   4.366   2.132  0.2500  0.2712 -0.6289
  717TIP3    H1 2157   4.871   4.454   2.095  2.6478  1.6108  1.9548
  717TIP3    H2 2158   4.966   4.351   2.151 -0.4449 -1.4952  1.8355
  718TIP3   OH2 2159   4.740   2.561   0.316 -0.4261  0.0696 -0.4788
  718TIP3    H1 2160   4.660   2.603   0.285 -0.0621  0.4789 -0.8664
  718TIP3    H2 2161   4.713   2.512   0.394 -1.1631 -0.2492 -0.9273
  719TIP3   OH2 2162   1.047   3.458   4.171  0.1379  0.2309 -0.1639
  719TIP3    H1 2163   1.033   3.500   4.256  0.8742 -2.2495  1.2824
  719TIP3    H2 2164   1.120   3.505   4.133 -0.7457  1.9494  0.1366
  720TIP3   OH2 2165   0.040   3.178   4.299 -0.4743  0.2156  0.0465
  720TIP3    H1 2166   0.044   3.118   4.225  0.8888  0.1485  0.1587
  720TIP3    H2 2167   0.051   3.122   4.376  0.0439  0.5101  0.1923
  721TIP3   OH2 2168   5.032   1.839   0.010 -0.8275  0.1046 -0.1597
  721TIP3    H1 2169   4.969   1.840   0.082  1.0767  0.1024  1.6041
  721TIP3    H2 2170   5.041   1.931  -0.016 -2.0963  0.0216 -0.9745
  722TIP3   OH2 2171   6.121   2.480   5.124 -0.2863  0.9996  0.1266
  722TIP3    H1 2172   6.140   2.394   5.087 -0.8680  0.5630  0.8253
  722TIP3    H2 2173   6.196   2.534   5.099 -0.5804  0.6769 -1.5147
  723TIP3   OH2 2174   0.739   5.619   2.101  0.2258 -0.5426  0.3257
  723TIP3    H1 2175   0.684   5.544   2.125 -1.4281  0.3165 -0.6335
  723TIP3    H2 2176   0.677   5.687   2.073  1.7608  0.6043 -0.4419
  724TIP3   OH2 2177   3.718   5.362   1.827 -0.1556 -0.1734 -0.2609
  724TIP3    H1 2178   3.647   5.376   1.764  0.1218  1.0214 -0.3267
  724TIP3    H2 2179   3.754   5.449   1.843  0.9898 -0.6965  0.1368
  725TIP3   OH2 2180   0.083   5.451   2.655 -0.4566 -0.3066 -0.0392
  725TIP3    H1 2181   0.113   5.363   2.676 -0.0414 -0.8224 -2.5064
  725TIP3    H2 2182   0.163   5.502   2.645 -0.6702  0.1736  0.6440
  726TIP3   OH2 2183   4.671   0.004   1.658  0.5710  0.2892 -0.4108
  726TIP3    H1 2184   4.579  -0.021   1.669  0.5706 -0.3828 -1.8380
  726TIP3    H2 2185   4.699   0.028   1.747 -1.2212  1.3902 -0.0912
  727TIP3   OH2 2186   2.161   2.025   0.759 -0.0941 -0.3456  0.1120
  727TIP3    H1 2187   2.156   1.986   0.846 -2.8725 -1.2798 -0.3766
  727TIP3    H2 2188   2.160   1.950   0.699  1.8757  0.2781 -0.7836
  728TIP3   OH2 2189   1.172   2.937   0.277  0.6684  0.1118  0.0623
  728TIP3    H1 2190   1.147   2.950   0.368 -2.2114  0.9781 -0.7329
  728TIP3    H2 2191   1.165   3.024   0.238  0.9496 -0.3982 -1.1797
  729TIP3   OH2 2192   0.135   2.258   4.071  0.1259  0.6872 -0.6332
  729TIP3    H1 2193   0.068   2.189   4.076  1.6428 -0.8651 -0.4918
  729TIP3    H2 2194   0.215   2.215   4.102  0.9982  2.7617  0.1642
  730TIP3   OH2 2195   0.594   1.472   1.752 -0.1215 -0.2910 -0.0314
  730TIP3    H1 2196   0.617   1.564   1.734 -1.1938  0.1753  0.8529
  730TIP3    H2 2197   0.643   1.422   1.687 -1.6513  1.0991 -2.4043
  731TIP3   OH2 2198   0.758   1.848   3.406  0.1041 -0.1691  0.3125
  731TIP3    H1 2199   0.770   1.794   3.329  0.5912  0.0545  0.2229
  731TIP3    H2 2200   0.811   1.926   3.389  0.1229 -0.0661  0.8176
  732TIP3   OH2 2201   4.993   0.612   0.733  0.0209 -0.4298 -0.0969
  732TIP3    H1 2202   4.989   0.609   0.638 -0.9575 -0.2182 -0.0799
  732TIP3    H2 2203   5.076   0.571   0.756 -0.1153 -1.2505 -1.0065
  733TIP3   OH2 2204   3.970   5.893   1.049  0.0584 -0.0898 -0.4621
  733TIP3    H1 2205   4.018   5.820   1.011  1.1389  0.0696  0.5184
  733TIP3    H2 2206   3.904   5.853   1.105  0.0151 -0.3043 -0.6666
  734TIP3   OH2 2207   2.177   4.671   2.051  0.1421 -0.3579  0.4259
  734TIP3    H1 2208   2.177   4.618   2.131 -1.6195  1.7763  1.9336
  734TIP3    H2 2209   2.246   4.736   2.065 -0.3572  0.1931  0.3403
  735TIP3   OH2 2210   1.118   5.845   4.607  0.1155  0.3650  0.2321
  735TIP3    H1 2211   1.140   5.752   4.612 -0.3006 -0.0744 -3.3272
  735TIP3    H2 2212   1.047   5.857   4.671 -0.1954 -1.8982  0.3846
  736TIP3   OH2 2213   5.602   5.372   1.727  0.2420  0.0547 -0.4711
  736TIP3    H1 2214   5.545   5.407   1.658 -0.9978 -0.4856  0.2334
  736TIP3    H2 2215   5.678   5.339   1.680 -1.1338 -1.4815 -1.7688
  737TIP3   OH2 2216   5.819   1.495   1.812  0.2461 -0.0600 -0.5249
  737TIP3    H1 2217   5.859   1.581   1.828 -2.5466  1.2502  0.0509
  737TIP3    H2 2218   5.822   1.484   1.717 -3.5611  3.1277 -1.3170
  738TIP3   OH2 2219   1.331   4.105   1.674  0.2888 -0.2787  0.9327
  738TIP3    H1 2220   1.426   4.115   1.681  0.1425  1.8781  0.4872
  738TIP3    H2 2221   1.296   4.173   1.732 -0.9907 -0.8442  0.8446
  739TIP3   OH2 2222   3.556   1.512   4.955  0.6946  0.0065 -0.0085
  739TIP3    H1 2223   3.592   1.427   4.934  0.7586  0.2793 -1.0600
  739TIP3    H2 2224   3.537   1.552   4.870  2.2453  1.7154  0.3826
  740TIP3   OH2 2225   4.899   5.688   3.856  0.0193  0.3526  0.5223
  740TIP3    H1 2226   4.974   5.638   3.824 -1.6484 -2.5686  0.8537
  740TIP3    H2 2227   4.904   5.680   3.951 -0.2058  0.9890  0.5917
  741TIP3   OH2 2228   4.765   3.595   2.673  0.6743  0.0100  0.5370
  741TIP3    H1 2229   4.707   3.596   2.597  2.1157 -1.9546 -0.6980
  741TIP3    H2 2230   4.732   3.524   2.728  0.9481 -0.0701  0.6024
  742TIP3   OH2 2231   2.848   2.632   0.448  0.2001 -0.3150  0.3634
  742TIP3    H1 2232   2.819   2.638   0.539 -0.0089 -1.9768  0.4375
  742TIP3    H2 2233   2.898   2.551   0.444  0.6213 -0.0162 -0.9012
  743TIP3   OH2 2234   4.326   5.601   1.666 -0.2574 -0.6837 -0.4770
  743TIP3    H1 2235   4.326   5.511   1.634 -0.4807 -0.8420 -0.0420
  743TIP3    H2 2236   4.246   5.640   1.629 -0.8488 -1.0518  0.3833
  744TIP3   OH2 2237   4.595   1.584   3.383  0.1287 -0.7027 -0.4311
  744TIP3    H1 2238   4.590   1.534   3.465  0.8490 -1.0778 -0.6100
  744TIP3    H2 2239   4.519   1.555   3.334  0.6573 -1.8257 -0.6288
  745TIP3   OH2 2240   2.988   5.896   4.451  0.0905 -0.7098 -1.1681
  745TIP3    H1 2241   2.958   5.847   4.527  0.3465 -0.3253 -0.8136
  745TIP3    H2 2242   3.025   5.977   4.487 -2.4435  0.8872 -1.8690
  746TIP3   OH2 2243   4.806   5.558   3.080 -0.2360  0.0546  0.2726
  746TIP3    H1 2244   4.722   5.586   3.044 -0.7889 -1.2368  0.4767
  746TIP3    H2 2245   4.844   5.637   3.118 -1.9464  0.4419  1.3102
  747TIP3   OH2 2246   2.008   0.142   1.121  0.1061  0.8619 -0.0296
  747TIP3    H1 2247   2.065   0.219   1.122  0.7203  0.4224 -0.4434
  747TIP3    H2 2248   2.036   0.090   1.195  1.0084  0.1188 -0.8598
  748TIP3   OH2 2249   4.477   5.728   0.456  0.4190  0.0141 -0.5654
  748TIP3    H1 2250   4.528   5.729   0.375  0.6898  1.3486 -0.3901
  748TIP3    H2 2251   4.392   5.691   0.429  1.3518 -2.0081 -0.8955
  749TIP3   OH2 2252   1.625   4.814   1.160  0.0800 -0.6008 -0.0288
  749TIP3    H1 2253   1.709   4.798   1.203  0.7417  2.4275  0.0309
  749TIP3    H2 2254   1.630   4.905   1.130 -2.1618 -1.1458 -2.4486
  750TIP3   OH2 2255   2.029   5.323   2.874  0.1003 -0.0099 -0.8902
  750TIP3    H1 2256   1.986   5.252   2.826  0.2571  1.3817 -3.2410
  750TIP3    H2 2257   1.983   5.326   2.958 -1.6721 -1.2041 -1.7560
  751TIP3   OH2 2258   5.305   0.633   4.764 -0.0096 -0.0724 -0.1014
  751TIP3    H1 2259   5.279   0.693   4.834  0.4393 -0.4143  0.3618
  751TIP3    H2 2260   5.385   0.671   4.729 -0.1544  0.0193 -0.3351
  752TIP3   OH2 2261   5.327   2.947   3.114 -0.6163 -0.0609  0.5545
  752TIP3    H1 2262   5.378   2.882   3.065  1.8983  2.1109  0.0780
  752TIP3    H2 2263   5.286   3.000   3.046 -0.7749  0.2359  0.8832
  753TIP3   OH2 2264   3.205   5.583   4.694  0.0466 -0.5142 -0.0505
  753TIP3    H1 2265   3.214   5.649   4.625  1.1214 -0.9112 -0.3043
  753TIP3    H2 2266   3.228   5.629   4.774  1.1363 -0.6518 -0.2717
  754TIP3   OH2 2267   4.080   1.273   1.921  0.2678  0.4315  0.1839
  754TIP3    H1 2268   4.137   1.200   1.947  0.0266 -0.2848 -1.2406
  754TIP3    H2 2269   4.112   1.347   1.974  1.3191 -0.3910  0.7546
  755TIP3   OH2 2270   0.418   2.694   3.018  0.5306 -0.2105  0.5048
  755TIP3    H1 2271   0.464   2.666   3.097 -0.9592 -0.6811  1.2407
  755TIP3    H2 2272   0.434   2.625   2.954  1.8820  0.2519  0.3274
  756TIP3   OH2 2273   2.912   0.893   3.773 -0.3540  0.2480  0.4784
  756TIP3    H1 2274   2.935   0.874   3.864  1.2181 -1.2198 -0.1614
  756TIP3    H2 2275   2.955   0.824   3.723 -1.9576  0.4619 -1.3225
  757TIP3   OH2 2276   0.392   4.216   1.973 -0.2821 -0.8329  0.3236
  757TIP3    H1 2277   0.373   4.131   2.013 -0.0692 -0.5480  1.0385
  757TIP3    H2 2278   0.387   4.279   2.045  1.6287 -0.5152  0.2373
  758TIP3   OH2 2279   5.414   2.568   0.603  0.1687 -0.6707  0.8001
  758TIP3    H1 2280   5.499   2.575   0.646  2.1620 -0.5852 -2.8129
  758TIP3    H2 2281   5.396   2.474   0.600  1.5018 -0.9241 -0.6714
  759TIP3   OH2 2282   4.751   1.808   3.087  0.0319 -0.8087  0.0349
  759TIP3    H1 2283   4.680   1.820   3.150  0.0673 -2.0467  0.3341
  759TIP3    H2 2284   4.709   1.767   3.011  0.0937  0.1633 -0.5420
  760TIP3   OH2 2285   3.898   4.433   3.977 -0.3538  0.4504  0.0408
  760TIP3    H1 2286   3.922   4.341   3.987 -2.1442 -0.0658 -0.0617
  760TIP3    H2 2287   3.906   4.450   3.883  1.4501  0.8714  0.2330
  761TIP3   OH2 2288   4.679   5.810   2.573 -0.3323 -0.3202 -0.0911
  761TIP3    H1 2289   4.640   5.725   2.553  0.1458 -0.3180 -1.0882
  761TIP3    H2 2290   4.633   5.839   2.652 -2.1966 -0.4238 -1.0731
  762TIP3   OH2 2291   1.294   3.380   4.484 -0.0403 -0.1163  0.2717
  762TIP3    H1 2292   1.301   3.321   4.409  0.8169 -0.3550  0.5294
  762TIP3    H2 2293   1.381   3.420   4.491 -0.3524  0.5136  0.6439
  763TIP3   OH2 2294   5.828   0.488   1.912  0.3215 -0.0508 -0.1068
  763TIP3    H1 2295   5.896   0.555   1.922 -0.7943  0.9278  1.3256
  763TIP3    H2 2296   5.813   0.455   2.001 -1.0633 -0.2418 -0.3884
  764TIP3   OH2 2297   1.456   1.577   0.254 -0.4391 -0.0752  0.0783
  764TIP3    H1 2298   1.379   1.629   0.229 -1.8360 -2.3209 -0.5064
  764TIP3    H2 2299   1.458   1.583   0.350 -0.7689  0.7603  0.0442
  765TIP3   OH2 2300   5.626   0.509   2.404  0.2276 -0.1925 -0.1493
  765TIP3    H1 2301   5.566   0.541   2.336  0.1731  0.7405  0.3267
  765TIP3    H2 2302   5.575   0.512   2.484  0.8631  0.5240  0.2447
  766TIP3   OH2 2303   3.140   2.186   2.482  0.0838  1.0885  0.2354
  766TIP3    H1 2304   3.064   2.132   2.502 -0.2705  1.2441 -0.6709
  766TIP3    H2 2305   3.194   2.132   2.424 -0.4056  1.7816 -0.9014
  767TIP3   OH2 2306   5.454   0.570   1.077  0.4099  0.3841  0.5372
  767TIP3    H1 2307   5.505   0.511   1.021  1.2689  0.6261  1.0397
  767TIP3    H2 2308   5.426   0.640   1.018  0.9988  0.4486  0.3225
  768TIP3   OH2 2309   4.392   5.782   5.113  0.1481  0.1759  0.7075
  768TIP3    H1 2310   4.443   5.784   5.193  1.0271  1.9773  0.1581
  768TIP3    H2 2311   4.302   5.766   5.142  0.4218  0.9872  2.0828
  769TIP3   OH2 2312   2.565   4.778   2.940 -0.9528 -0.0147  0.2682
  769TIP3    H1 2313   2.630   4.712   2.962 -1.6548 -0.4632  1.0708
  769TIP3    H2 2314   2.602   4.860   2.974 -1.2399 -0.4270  1.6277
  770TIP3   OH2 2315   4.077   0.298   2.477  0.3245  0.2868  0.5888
  770TIP3    H1 2316   4.055   0.211   2.511 -2.5523 -0.1699 -1.9738
  770TIP3    H2 2317   4.028   0.358   2.534 -1.6559 -0.2207 -0.4689
  771TIP3   OH2 2318   2.316   1.024   5.208 -0.2350  0.0871 -0.2007
  771TIP3    H1 2319   2.408   1.025   5.182 -0.5576  0.2853 -1.3902
  771TIP3    H2 2320   2.268   1.013   5.126 -1.2598 -0.4595  0.4516
  772TIP3   OH2 2321   1.805   4.890   4.650 -0.6266 -0.0321  0.2862
  772TIP3    H1 2322   1.797   4.887   4.746  0.4514 -0.9284  0.3639
  772TIP3    H2 2323   1.858   4.968   4.634 -0.6482  0.0143  0.4326
  773TIP3   OH2 2324   0.577   3.305   3.018  0.3945 -0.4727 -0.0411
  773TIP3    H1 2325   0.545   3.349   2.939  0.7016  1.5914  0.8981
  773TIP3    H2 2326   0.512   3.326   3.085  1.5153  0.1788  0.8822
  774TIP3   OH2 2327   5.688   3.769   5.005 -0.0439 -0.3412 -0.0349
  774TIP3    H1 2328   5.715   3.695   5.058 -0.9086 -0.5403  0.1356
  774TIP3    H2 2329   5.767   3.824   4.998  1.4578 -2.5379 -2.3943
  775TIP3   OH2 2330   5.421   0.771   1.472 -0.4290 -0.7005  0.1956
  775TIP3    H1 2331   5.355   0.806   1.412 -2.1089 -2.4721  0.9022
  775TIP3    H2 2332   5.385   0.686   1.499  2.5315 -2.1300 -0.0184
  776TIP3   OH2 2333   4.837   2.162   3.107 -0.5352  0.7487 -0.2020
  776TIP3    H1 2334   4.761   2.180   3.162 -0.4144  0.0172  0.2318
  776TIP3    H2 2335   4.801   2.121   3.028 -0.4861 -2.5782  1.2965
  777TIP3   OH2 2336   6.121   3.531   1.751 -0.1660 -0.1985 -0.5365
  777TIP3    H1 2337   6.107   3.552   1.843  0.5597 -1.9882  0.0284
  777TIP3    H2 2338   6.112   3.615   1.705 -0.9454  0.6558  1.0980
  778TIP3   OH2 2339   4.468   5.947   3.461 -0.1304  0.7111  0.1501
  778TIP3    H1 2340   4.510   6.027   3.491  4.1416 -0.4184 -2.0727
  778TIP3    H2 2341   4.481   5.885   3.533  2.0710  0.4503 -0.3999
  779TIP3   OH2 2342   4.363   1.974   4.602 -0.3620  0.0635  0.1008
  779TIP3    H1 2343   4.379   1.939   4.514  1.3031 -0.0788  0.4193
  779TIP3    H2 2344   4.409   1.914   4.660 -1.7536 -0.0520  1.1282
  780TIP3   OH2 2345   0.281   4.812   4.058  0.0754  0.0803 -0.1561
  780TIP3    H1 2346   0.291   4.893   4.108 -1.4010  0.0992  0.1562
  780TIP3    H2 2347   0.265   4.745   4.123  1.3532 -0.5083 -0.4126
  781TIP3   OH2 2348   3.519   2.531   1.351  0.9795  0.5561  0.0360
  781TIP3    H1 2349   3.556   2.569   1.431 -1.5237 -0.4635  1.8164
  781TIP3    H2 2350   3.567   2.449   1.340  0.3707 -0.0196  1.4068
  782TIP3   OH2 2351   5.864   0.966   2.072  0.1847  1.3370 -0.4003
  782TIP3    H1 2352   5.944   1.008   2.103 -0.6264  1.3221  1.9014
  782TIP3    H2 2353   5.798   1.036   2.071 -0.4628  0.7656  0.6043
  783TIP3   OH2 2354   4.988   2.473   4.326 -0.5422  0.2185  0.3197
  783TIP3    H1 2355   4.949   2.488   4.412  1.1951  1.9314  0.8923
  783TIP3    H2 2356   5.057   2.539   4.320  1.0613 -1.4821 -1.3353
  784TIP3   OH2 2357   4.863   5.147   4.419  0.5885  0.4662  0.2101
  784TIP3    H1 2358   4.925   5.081   4.450  1.9948  2.1713  1.1983
  784TIP3    H2 2359   4.778   5.118   4.453  0.7573 -1.9244 -1.1770
  785TIP3   OH2 2360   4.176   1.068   1.666  0.2191 -0.0012 -0.4824
  785TIP3    H1 2361   4.231   1.004   1.711 -0.0154 -0.1429 -0.3889
  785TIP3    H2 2362   4.147   1.127   1.735 -0.0632 -0.1620 -0.4583
  786TIP3   OH2 2363   2.745   0.610   2.036 -0.1534  0.1081  0.2429
  786TIP3    H1 2364   2.795   0.579   2.112 -1.5987 -1.8977  0.4612
  786TIP3    H2 2365   2.757   0.705   2.036 -0.0130  0.1691  2.9403
  787TIP3   OH2 2366   5.784   5.170   3.350  0.5880  0.0158 -0.1076
  787TIP3    H1 2367   5.787   5.088   3.400 -1.4400 -0.6940 -1.0261
  787TIP3    H2 2368   5.872   5.179   3.314  1.0821 -1.3352  0.6734
  788TIP3   OH2 2369   0.471   0.920   4.944 -0.6030 -0.8026  0.1344
  788TIP3    H1 2370   0.511   1.006   4.939 -0.8664 -0.7174 -0.6621
  788TIP3    H2 2371   0.398   0.931   5.006  0.0917 -0.7670  0.9729
  789TIP3   OH2 2372   1.841   2.407   1.493  0.0760  0.0426 -0.0644
  789TIP3    H1 2373   1.857   2.479   1.555 -0.9912  1.6356 -1.5458
  789TIP3    H2 2374   1.781   2.444   1.429  0.1584 -1.9489 -1.3683
  790TIP3   OH2 2375   4.802   4.223   2.630  0.4843 -0.1097 -0.3101
  790TIP3    H1 2376   4.788   4.226   2.536  0.1000 -1.3256 -0.3158
  790TIP3    H2 2377   4.895   4.241   2.642  0.3875  0.7860 -0.8547
  791TIP3   OH2 2378   0.142   4.066   0.737  0.2786 -0.3890 -0.1531
  791TIP3    H1 2379   0.095   4.014   0.801  2.8968 -1.8160  0.7218
  791TIP3    H2 2380   0.215   4.105   0.785  1.4640 -0.2880 -1.9326
  792TIP3   OH2 2381   3.110   5.053   0.549 -0.5699  0.4402  0.2622
  792TIP3    H1 2382   3.178   5.008   0.499 -0.4696  0.7817  0.0872
  792TIP3    H2 2383   3.154   5.130   0.586 -0.7704  0.4656  0.4534
  793TIP3   OH2 2384   2.980   0.201   3.095  0.2455  0.7404  0.5722
  793TIP3    H1 2385   3.000   0.278   3.041  0.6520  1.0867  1.1999
  793TIP3    H2 2386   3.018   0.222   3.180  0.9961 -0.4717  0.5513
  794TIP3   OH2 2387   0.719   4.449   3.123  0.2648 -0.1335 -0.3767
  794TIP3    H1 2388   0.743   4.360   3.148 -0.8017 -0.3517 -0.0902
  794TIP3    H2 2389   0.786   4.504   3.164 -1.8322 -0.3719  3.9464
  795TIP3   OH2 2390   1.408   4.279   1.913 -0.3923 -0.7108  0.1722
  795TIP3    H1 2391   1.484   4.222   1.926  0.1525 -0.0272 -0.0080
  795TIP3    H2 2392   1.377   4.298   2.002  0.6077  0.2916  0.3187
  796TIP3   OH2 2393   4.335   2.350   3.248  0.1572 -0.0686 -0.7167
  796TIP3    H1 2394   4.319   2.391   3.332 -1.9384  0.9082 -1.5286
  796TIP3    H2 2395   4.280   2.272   3.248  0.4741 -0.2980 -1.0394
  797TIP3   OH2 2396   1.208   1.858   1.083 -0.2784 -0.0021  0.0285
  797TIP3    H1 2397   1.266   1.785   1.105  0.1932  0.3827  0.0987
  797TIP3    H2 2398   1.131   1.846   1.139 -1.4186 -1.9146 -1.8430
  798TIP3   OH2 2399   1.076   3.648   4.816  0.0950  0.0073 -0.8399
  798TIP3    H1 2400   1.166   3.680   4.821 -0.1989  0.6397  1.4139
  798TIP3    H2 2401   1.084   3.557   4.786  1.7667 -0.8640  1.9188
  799TIP3   OH2 2402   1.452   3.667   1.070  0.5325  0.3177  0.4209
  799TIP3    H1 2403   1.393   3.716   1.128  0.6621 -0.8697  1.5987
  799TIP3    H2 2404   1.488   3.598   1.126 -0.9886 -2.2481 -1.5859
  800TIP3   OH2 2405   0.841   5.574   0.952  0.1170 -0.7192  0.1208
  800TIP3    H1 2406   0.766   5.562   0.893  0.4944  1.9553 -1.0294
  800TIP3    H2 2407   0.811   5.639   1.015  0.6926 -1.4429  1.1592
  801TIP3   OH2 2408   2.356   1.908   1.687  0.4091 -0.3135  0.0865
  801TIP3    H1 2409   2.297   1.883   1.758  1.3270 -0.1825  0.9240
  801TIP3    H2 2410   2.299   1.917   1.611 -0.7199  0.2452  0.9562
  802TIP3   OH2 2411   5.226   5.397   0.715  0.4910 -1.0061 -0.1130
  802TIP3    H1 2412   5.305   5.432   0.756  0.5637 -0.5876 -0.5931
  802TIP3    H2 2413   5.246   5.397   0.622  0.1217 -1.4119 -0.1925
  803TIP3   OH2 2414   1.528   4.314   3.801 -0.1473  0.5236 -0.0871
  803TIP3    H1 2415   1.521   4.315   3.897  1.6573 -3.5234  0.2860
  803TIP3    H2 2416   1.451   4.265   3.772  1.2391 -1.7287 -0.2183
  804TIP3   OH2 2417   1.576   4.031   3.948 -0.0438  0.1334 -0.2454
  804TIP3    H1 2418   1.545   3.944   3.974  0.3120 -0.4924 -1.7909
  804TIP3    H2 2419   1.508   4.064   3.889  0.4005  0.3942 -0.6160
  805TIP3   OH2 2420   2.188   5.159   4.699  0.6019  0.4778  0.1340
  805TIP3    H1 2421   2.200   5.231   4.637 -0.5002 -0.5996 -1.4181
  805TIP3    H2 2422   2.234   5.187   4.778  1.6221  2.1363 -0.9873
  806TIP3   OH2 2423   0.416   4.422   0.991 -0.2096  0.2459  0.1297
  806TIP3    H1 2424   0.412   4.499   0.935 -0.8254 -0.2268 -0.4934
  806TIP3    H2 2425   0.377   4.450   1.074 -1.8759  0.2023 -0.5941
  807TIP3   OH2 2426   0.998   3.500   2.903 -0.1346  0.3435 -0.1631
  807TIP3    H1 2427   1.068   3.437   2.887 -0.0457  0.5244 -0.4973
  807TIP3    H2 2428   0.979   3.538   2.817  0.6137  1.6195  0.2043
  808TIP3   OH2 2429   1.883   1.887   4.781 -0.0905 -0.6519  0.1506
  808TIP3    H1 2430   1.962   1.869   4.729 -0.0806  1.9450 -0.8968
  808TIP3    H2 2431   1.891   1.830   4.857  2.1224 -1.4282 -0.5711
  809TIP3   OH2 2432   5.219   1.793   1.036  0.3715 -0.2727  0.6650
  809TIP3    H1 2433   5.124   1.789   1.026  0.5057 -1.4888 -0.2520
  809TIP3    H2 2434   5.242   1.717   1.090  0.9724 -0.8803 -0.4201
  810TIP3   OH2 2435   1.403   3.009   0.021  0.5108 -0.3016 -0.5332
  810TIP3    H1 2436   1.322   3.023  -0.029 -0.8228  0.6927  1.7547
  810TIP3    H2 2437   1.413   2.914   0.023 -2.2222 -0.6872  1.3749
  811TIP3   OH2 2438   1.287   0.859   2.828  0.2323  0.0614 -0.2292
  811TIP3    H1 2439   1.364   0.906   2.798 -0.5128  0.4233 -1.6673
  811TIP3    H2 2440   1.237   0.924   2.878 -0.2526  0.5171 -1.2727
  812TIP3   OH2 2441   2.141   0.231   3.018  0.0419 -0.3070 -0.7765
  812TIP3    H1 2442   2.110   0.301   2.961  1.1626  1.8009  1.0431
  812TIP3    H2 2443   2.095   0.246   3.101 -0.7929 -2.6652 -0.7455
  813TIP3   OH2 2444   6.301   4.892   1.574 -0.5226 -0.3641  0.8880
  813TIP3    H1 2445   6.263   4.936   1.498 -0.0931  0.3912  1.1058
  813TIP3    H2 2446   6.306   4.800   1.547  0.8079  0.0701 -0.4951
  814TIP3   OH2 2447   5.133   4.038   3.385 -0.3869 -0.2329 -0.3324
  814TIP3    H1 2448   5.115   3.957   3.337 -1.0906 -0.8886  1.0050
  814TIP3    H2 2449   5.215   4.021   3.431 -1.5440 -0.9815  1.5583
  815TIP3   OH2 2450   1.290   2.757   0.076  0.2727  0.2060 -0.2549
  815TIP3    H1 2451   1.257   2.691   0.015 -0.9783  1.1947 -0.6831
  815TIP3    H2 2452   1.212   2.787   0.123  0.9726  0.6792  0.6371
  816TIP3   OH2 2453   1.008   2.461   4.031  0.2557  0.0088  0.0493
  816TIP3    H1 2454   0.926   2.462   4.080 -1.0927 -0.4277 -2.0409
  816TIP3    H2 2455   1.008   2.544   3.984  0.6184 -0.3271 -0.5491
  817TIP3   OH2 2456   1.361   5.533   4.199 -0.0233 -0.2895 -0.3184
  817TIP3    H1 2457   1.452   5.504   4.195  0.3252  0.6922  0.0532
  817TIP3    H2 2458   1.339   5.528   4.292 -0.2137 -0.1426 -0.3546
  818TIP3   OH2 2459   2.031   2.734   4.551  0.3387 -0.6064  0.3069
  818TIP3    H1 2460   2.089   2.725   4.475  0.5936  2.2413  0.0815
  818TIP3    H2 2461   2.089   2.723   4.626  1.4959  2.9564  0.1012
  819TIP3   OH2 2462   0.610   4.734   1.653 -0.0387 -0.3723 -0.0877
  819TIP3    H1 2463   0.617   4.793   1.578 -0.8266 -0.2605 -0.0776
  819TIP3    H2 2464   0.680   4.761   1.712 -0.8515  1.0508  0.2571
  820TIP3   OH2 2465   4.163   4.219   1.598 -0.0641  0.3120  0.0472
  820TIP3    H1 2466   4.145   4.313   1.591 -2.1641 -0.1264 -1.2015
  820TIP3    H2 2467   4.099   4.178   1.540  0.1788 -1.9681  1.2925
  821TIP3   OH2 2468   5.068   4.348   4.375 -0.2729 -0.1444 -0.3537
  821TIP3    H1 2469   5.137   4.394   4.328 -1.7683  0.2416 -2.2907
  821TIP3    H2 2470   5.053   4.269   4.323  0.3769 -1.5072  1.4238
  822TIP3   OH2 2471   4.607   3.380   2.199 -0.3139  0.3873  1.0617
  822TIP3    H1 2472   4.682   3.436   2.176  0.7593 -0.7934  1.5916
  822TIP3    H2 2473   4.534   3.441   2.208  1.0180  1.8473  2.5376
  823TIP3   OH2 2474   1.195   1.437   1.953 -0.2564 -0.5744  0.7186
  823TIP3    H1 2475   1.152   1.429   2.039 -0.1971 -0.5961  0.7464
  823TIP3    H2 2476   1.183   1.352   1.912  0.0969 -0.7024  0.8840
  824TIP3   OH2 2477   2.807   0.026   4.841 -0.3488 -0.0517 -0.0503
  824TIP3    H1 2478   2.787   0.112   4.880 -0.5525  0.2664 -0.8419
  824TIP3    H2 2479   2.777  -0.037   4.907  2.0754  0.4650  1.6598
  825TIP3   OH2 2480   4.585   3.752   0.220  0.1146 -0.5788 -0.2727
  825TIP3    H1 2481   4.582   3.812   0.294 -3.7094  0.3229 -0.9094
  825TIP3    H2 2482   4.546   3.671   0.253  0.1656 -0.8264 -0.8079
  826TIP3   OH2 2483   1.161   5.464   3.380 -0.5146  0.5793  0.3279
  826TIP3    H1 2484   1.238   5.520   3.366  0.1221  0.0785  1.6523
  826TIP3    H2 2485   1.198   5.380   3.408 -1.4993 -0.2318 -0.7091
  827TIP3   OH2 2486   4.070   5.637   1.441  0.1642 -0.3293  0.8812
  827TIP3    H1 2487   3.979   5.626   1.413  0.3986  2.6292 -1.4314
  827TIP3    H2 2488   4.067   5.706   1.507  0.7676 -0.1985  0.7729
  828TIP3   OH2 2489   3.753   5.181   4.796  0.0075  0.0712 -0.3673
  828TIP3    H1 2490   3.710   5.119   4.738 -1.2932  2.5078 -2.1984
  828TIP3    H2 2491   3.847   5.170   4.778 -0.2746 -0.3979 -1.6748
  829TIP3   OH2 2492   0.217   4.091   3.108 -0.3914 -1.0017  0.2977
  829TIP3    H1 2493   0.248   4.067   3.196 -2.0845 -0.8788  0.9764
  829TIP3    H2 2494   0.247   4.020   3.052  1.1269 -0.8513  0.8703
  830TIP3   OH2 2495   3.893   0.109   0.516  0.3919  0.6901  0.5336
  830TIP3    H1 2496   3.867   0.100   0.425  0.6000 -0.1958  0.5470
  830TIP3    H2 2497   3.947   0.031   0.533  1.2959  1.4124  1.0883
  831TIP3   OH2 2498   3.502   4.476   3.391 -0.1095  0.0581  0.5365
  831TIP3    H1 2499   3.507   4.443   3.481 -0.8313 -1.5559  0.0164
  831TIP3    H2 2500   3.462   4.562   3.399 -0.8602 -0.3831  1.7060
  832TIP3   OH2 2501   3.691   4.688   0.564  0.0067 -0.7059  0.1684
  832TIP3    H1 2502   3.751   4.614   0.579  1.9272  1.0701  1.9656
  832TIP3    H2 2503   3.689   4.733   0.649  0.7707  2.5821 -1.4207
  833TIP3   OH2 2504   1.064   3.017   0.546 -0.7492 -0.1368  0.0363
  833TIP3    H1 2505   1.032   2.927   0.549 -1.5868  0.1625  0.2712
  833TIP3    H2 2506   0.987   3.070   0.525 -0.0412  0.4177 -1.3576
  834TIP3   OH2 2507   4.787   3.886   2.492 -0.8517 -0.1348  0.2828
  834TIP3    H1 2508   4.857   3.913   2.432 -1.3750  0.5072 -0.0522
  834TIP3    H2 2509   4.775   3.793   2.474 -2.8452  0.5256 -2.6296
  835TIP3   OH2 2510   6.065   2.797   2.462 -0.6193 -0.3351  0.2770
  835TIP3    H1 2511   6.024   2.717   2.428 -0.9805 -0.3784  0.8043
  835TIP3    H2 2512   6.145   2.807   2.410 -1.0737 -0.4968 -0.4591
  836TIP3   OH2 2513   3.998   0.750   0.731  0.8108 -0.3227  0.0886
  836TIP3    H1 2514   3.924   0.811   0.726  1.3588  0.2108 -3.0316
  836TIP3    H2 2515   4.024   0.752   0.823 -1.5315  1.2926  0.8009
  837TIP3   OH2 2516   4.449   1.508   2.216  0.0120  0.1834  0.0020
  837TIP3    H1 2517   4.530   1.559   2.212 -0.8201  1.6693  1.0642
  837TIP3    H2 2518   4.422   1.514   2.308 -0.2413 -2.0397  0.1257
  838TIP3   OH2 2519   0.982   2.420   5.130  0.1742  0.1502  0.0851
  838TIP3    H1 2520   0.983   2.506   5.086 -1.4649  0.2439  0.1650
  838TIP3    H2 2521   1.019   2.437   5.217 -0.7448  0.9399  0.3395
  839TIP3   OH2 2522   0.690   2.905   4.554 -0.0843 -0.0583  0.3684
  839TIP3    H1 2523   0.772   2.948   4.580  1.1616 -1.8229 -0.3927
  839TIP3    H2 2524   0.673   2.842   4.624  1.3356 -2.3139 -1.1534
  840TIP3   OH2 2525   0.488   3.099   2.483 -0.2705  0.1568  0.5974
  840TIP3    H1 2526   0.517   3.190   2.483  1.9789 -0.5138  0.7981
  840TIP3    H2 2527   0.469   3.080   2.575 -1.5109  0.6050  0.4600
  841TIP3   OH2 2528   6.185   2.577   3.964  0.3064  0.1208 -0.3021
  841TIP3    H1 2529   6.159   2.641   3.899  0.7529  0.1586 -0.4482
  841TIP3    H2 2530   6.104   2.534   3.990 -0.0234  0.8786 -0.0532
  842TIP3   OH2 2531   5.378   5.143   0.353  0.3118  0.1326  0.9057
  842TIP3    H1 2532   5.318   5.213   0.327  0.3722  0.6497  2.0902
  842TIP3    H2 2533   5.444   5.187   0.406  0.7859 -0.7119  1.0313
  843TIP3   OH2 2534   4.505   1.824   3.198  0.1268  0.1387 -0.3921
  843TIP3    H1 2535   4.505   1.729   3.206 -1.5540  0.0342 -1.0858
  843TIP3    H2 2536   4.428   1.853   3.248  0.0111  1.0167 -1.0411
  844TIP3   OH2 2537   1.655   2.743   1.012 -0.0693 -0.4194  0.1283
  844TIP3    H1 2538   1.730   2.785   1.053  0.5649 -0.7641 -0.6543
  844TIP3    H2 2539   1.602   2.816   0.978  0.4928 -0.2077 -0.3074
  845TIP3   OH2 2540   5.998   1.975   3.373  0.4491  0.3354  0.1715
  845TIP3    H1 2541   6.064   1.986   3.442 -1.4906  1.6364  1.9805
  845TIP3    H2 2542   5.992   2.061   3.332 -0.4831  0.4016  0.4183
  846TIP3   OH2 2543   1.960   0.233   3.251 -0.0612  0.1663  0.2357
  846TIP3    H1 2544   2.010   0.201   3.326 -1.7048 -2.0209  0.5073
  846TIP3    H2 2545   1.903   0.160   3.227 -1.1920  1.5864 -1.7445
  847TIP3   OH2 2546   5.960   4.940   0.724 -0.1939 -0.4197  0.0408
  847TIP3    H1 2547   5.990   5.000   0.793  0.7041 -0.5696 -0.2089
  847TIP3    H2 2548   5.945   4.857   0.768  0.8604 -0.6510 -0.0210
  848TIP3   OH2 2549   4.967   2.319   0.965 -0.5380  0.3459  0.1624
  848TIP3    H1 2550   5.044   2.264   0.975 -0.5228 -0.0306 -1.7222
  848TIP3    H2 2551   4.898   2.272   1.011 -0.3309 -0.8568 -0.7217
  849TIP3   OH2 2552   3.682   4.806   3.340  0.2738 -0.6068  0.3038
  849TIP3    H1 2553   3.750   4.746   3.309  1.0871  0.4229  0.0451
  849TIP3    H2 2554   3.662   4.776   3.429 -0.0444 -1.8406 -0.1567
  850TIP3   OH2 2555   1.404   4.801   2.098  0.1883 -0.4514 -0.1256
  850TIP3    H1 2556   1.441   4.723   2.139 -1.4549 -1.1575  0.0570
  850TIP3    H2 2557   1.479   4.843   2.055  1.3915 -1.2735  1.0944
  851TIP3   OH2 2558   4.007   0.413   1.646  0.4355 -0.2934  0.5568
  851TIP3    H1 2559   4.001   0.375   1.558  0.5222  2.5868 -0.8087
  851TIP3    H2 2560   4.098   0.442   1.654  0.0348  0.9397  0.8961
  852TIP3   OH2 2561   6.155   5.517   2.961 -0.3319  0.2272  0.4101
  852TIP3    H1 2562   6.107   5.476   3.033  1.7352  1.4955  2.6837
  852TIP3    H2 2563   6.121   5.607   2.958 -0.2199  0.2551  0.0082
  853TIP3   OH2 2564   2.344   1.024   1.672 -0.6062  0.4359  0.1929
  853TIP3    H1 2565   2.258   1.064   1.682 -0.3258  0.7928  1.3275
  853TIP3    H2 2566   2.367   0.994   1.760 -0.5011 -1.6222 -0.4650
  854TIP3   OH2 2567   3.057   5.066   3.011 -0.1764 -0.0316 -0.3957
  854TIP3    H1 2568   2.998   4.992   3.023 -0.3981 -0.0466 -1.4676
  854TIP3    H2 2569   3.002   5.143   3.023  0.1167 -0.0119  1.0209
  855TIP3   OH2 2570   2.018   3.878   1.175 -0.4299  0.0124 -0.0886
  855TIP3    H1 2571   2.107   3.913   1.183  0.1359 -1.6576  1.4361
  855TIP3    H2 2572   2.017   3.833   1.090  0.2988 -0.3033  0.0687
  856TIP3   OH2 2573   5.624   4.951   1.057 -0.0964 -0.7828 -0.0284
  856TIP3    H1 2574   5.656   4.907   0.977  0.0310 -0.8730  0.0718
  856TIP3    H2 2575   5.587   4.880   1.110 -2.1063 -0.4645 -0.9136
  857TIP3   OH2 2576   2.933   3.320   3.732  0.0025 -0.3928 -0.0166
  857TIP3    H1 2577   2.856   3.363   3.770 -1.2702  0.6904 -3.4703
  857TIP3    H2 2578   3.007   3.368   3.768 -1.0352  0.1876  1.4554
  858TIP3   OH2 2579   3.872   3.476   2.015 -0.5048  0.2098 -0.3676
  858TIP3    H1 2580   3.805   3.492   2.081 -2.8917 -1.2319 -2.2610
  858TIP3    H2 2581   3.887   3.562   1.975  0.8105  1.0553  1.7525
  859TIP3   OH2 2582   4.899   1.597   2.383 -0.1274  0.5690  0.5268
  859TIP3    H1 2583   4.879   1.507   2.355 -1.5133  1.6633 -2.4728
  859TIP3    H2 2584   4.949   1.634   2.310  0.3950  2.2699  1.6929
  860TIP3   OH2 2585   0.558   5.408   1.279 -0.6067  0.1731 -0.2996
  860TIP3    H1 2586   0.648   5.409   1.247 -0.7616 -1.5599 -0.8983
  860TIP3    H2 2587   0.565   5.426   1.373  0.1564  1.9857 -0.6696
  861TIP3   OH2 2588   4.857   0.925   0.512 -0.0508 -0.1599 -0.4112
  861TIP3    H1 2589   4.803   0.869   0.457 -0.7210 -0.5780  0.6246
  861TIP3    H2 2590   4.797   0.994   0.542  0.2192 -0.0993  0.0061
  862TIP3   OH2 2591   5.574   3.369   2.343  0.4801  0.4975 -0.7955
  862TIP3    H1 2592   5.526   3.432   2.289  0.5188  1.8226  0.6505
  862TIP3    H2 2593   5.532   3.373   2.429  1.0602 -0.8059 -0.4257
  863TIP3   OH2 2594   5.631   3.381   1.033 -0.1590  0.0976  0.5919
  863TIP3    H1 2595   5.600   3.315   1.095  0.2705  0.1245  0.8438
  863TIP3    H2 2596   5.576   3.370   0.955 -1.3329  0.6809  1.3111
  864TIP3   OH2 2597   2.852   0.347   2.820 -0.0463  0.0853  0.2024
  864TIP3    H1 2598   2.821   0.396   2.744 -0.4172  0.3728  0.5342
  864TIP3    H2 2599   2.940   0.380   2.837 -0.0450  0.1694  0.0264
  865TIP3   OH2 2600   0.544   5.177   3.642  0.3439 -0.5414  0.2294
  865TIP3    H1 2601   0.527   5.268   3.664 -1.2829 -0.2870 -1.7551
  865TIP3    H2 2602   0.623   5.179   3.588  0.2384 -0.2746  0.0822
  866TIP3   OH2 2603   6.147   2.357   0.875 -0.0133 -0.0128 -0.2634
  866TIP3    H1 2604   6.205   2.425   0.839  0.4840 -0.6788 -0.7265
  866TIP3    H2 2605   6.063   2.373   0.833 -0.9590  2.5126  2.1838
  867TIP3   OH2 2606   5.608   1.716   3.239 -0.2339 -0.4528 -0.8113
  867TIP3    H1 2607   5.604   1.678   3.327  2.2578  2.4255  0.7323
  867TIP3    H2 2608   5.639   1.645   3.184  4.3508 -0.9503  1.9196
  868TIP3   OH2 2609   5.344   5.971   0.676  0.0731  0.1591 -0.1815
  868TIP3    H1 2610   5.308   5.884   0.693  1.2110 -0.8341 -2.4872
  868TIP3    H2 2611   5.413   5.957   0.612  0.5686  2.7382 -0.3304
  869TIP3   OH2 2612   2.581   1.797   3.527 -0.0865 -0.2859 -0.0724
  869TIP3    H1 2613   2.635   1.828   3.455  0.7614 -1.3476  0.0747
  869TIP3    H2 2614   2.561   1.876   3.578  0.9292  0.2087 -0.4062
  870TIP3   OH2 2615   1.297   1.819   4.523 -0.0302 -0.0456  0.3855
  870TIP3    H1 2616   1.326   1.910   4.533  1.7046 -0.3583 -1.2254
  870TIP3    H2 2617   1.235   1.822   4.450 -1.7182  0.1286  1.7647
  871TIP3   OH2 2618   3.033   0.992   5.047  0.4500  0.0100  0.1009
  871TIP3    H1 2619   3.037   0.897   5.035  0.0889 -0.0362  0.3467
  871TIP3    H2 2620   3.123   1.021   5.032  0.5699 -0.3747  0.0589
  872TIP3   OH2 2621   5.535   4.410   1.381  0.6657 -0.1395 -0.0233
  872TIP3    H1 2622   5.498   4.347   1.443  0.6491  0.3690  0.4923
  872TIP3    H2 2623   5.609   4.364   1.341  1.7507  0.0844  1.6151
  873TIP3   OH2 2624   1.181   4.565   2.032  0.3779 -0.3572  0.3346
  873TIP3    H1 2625   1.097   4.543   2.072  0.2263 -0.3826  0.0067
  873TIP3    H2 2626   1.231   4.484   2.035  0.7043 -0.1355  1.2827
  874TIP3   OH2 2627   5.213   2.949   4.418  0.2445 -0.2477 -0.0209
  874TIP3    H1 2628   5.159   2.955   4.496  0.4852 -2.5471  0.3877
  874TIP3    H2 2629   5.261   3.032   4.415  0.1476 -0.0613  2.1890
  875TIP3   OH2 2630   0.828   0.252   0.756  0.6116  0.2492  0.0130
  875TIP3    H1 2631   0.739   0.222   0.775  0.2451  0.7051 -0.9242
  875TIP3    H2 2632   0.884   0.184   0.792 -0.0639  0.5832  1.7570
  876TIP3   OH2 2633   5.455   5.134   4.368 -0.1480 -0.2963 -0.0657
  876TIP3    H1 2634   5.385   5.176   4.318  0.7161  0.6369 -0.5360
  876TIP3    H2 2635   5.532   5.142   4.313  0.3792 -1.1559  0.5158
  877TIP3   OH2 2636   3.087   0.974   0.127  0.3857 -0.0300  0.4316
  877TIP3    H1 2637   3.160   1.006   0.179  0.4305  0.3512  0.1400
  877TIP3    H2 2638   3.096   1.018   0.042  1.5939 -2.3122 -0.7132
  878TIP3   OH2 2639   4.310   0.615   3.379 -0.5732 -0.2015 -0.0131
  878TIP3    H1 2640   4.284   0.707   3.378  1.1303  0.3308  0.9936
  878TIP3    H2 2641   4.303   0.588   3.470  0.8716 -0.4609  0.0416
  879TIP3   OH2 2642   2.401   5.906   4.938 -0.0587  0.0979 -0.8162
  879TIP3    H1 2643   2.422   5.999   4.934 -2.2785  0.7202  0.3525
  879TIP3    H2 2644   2.436   5.877   5.023  0.4525 -0.0998 -1.0900
  880TIP3   OH2 2645   4.250   4.135   0.612 -0.1527 -0.6009  0.2012
  880TIP3    H1 2646   4.325   4.097   0.656  0.4317 -0.0595 -0.3146
  880TIP3    H2 2647   4.277   4.144   0.520  0.1844  2.0576  0.4717
  881TIP3   OH2 2648   2.734   2.325   4.508  0.3163  0.2172  0.0019
  881TIP3    H1 2649   2.679   2.324   4.586  1.4967 -0.4129  0.8577
  881TIP3    H2 2650   2.748   2.418   4.490 -0.8652  0.3904 -0.1495
  882TIP3   OH2 2651   4.399   0.364   5.140  0.1215  0.8681  0.0217
  882TIP3    H1 2652   4.466   0.298   5.122  0.4681  1.2270 -0.0287
  882TIP3    H2 2653   4.360   0.338   5.223  1.6443  1.7045  1.0456
  883TIP3   OH2 2654   0.941   1.472   0.296  0.2475 -0.3285  0.0291
  883TIP3    H1 2655   1.031   1.475   0.327  0.6983 -1.4341 -1.1241
  883TIP3    H2 2656   0.921   1.563   0.273  0.2321  0.3686  2.4774
  884TIP3   OH2 2657   2.776   3.583   1.503  0.1618 -0.4841  0.1281
  884TIP3    H1 2658   2.782   3.660   1.560  0.6454 -1.0129  0.8159
  884TIP3    H2 2659   2.715   3.609   1.434  0.5919  0.6438  0.1396
  885TIP3   OH2 2660   3.596   0.959   1.731  0.1909 -0.2264 -0.0966
  885TIP3    H1 2661   3.639   0.898   1.791  0.7965 -0.1872 -0.4862
  885TIP3    H2 2662   3.564   0.903   1.659 -1.2443 -0.3885  0.6324
  886TIP3   OH2 2663   2.550   0.646   3.202 -0.5357  0.2440  0.1666
  886TIP3    H1 2664   2.579   0.735   3.224 -0.0166  0.2271 -0.4170
  886TIP3    H2 2665   2.554   0.599   3.286 -0.2102  0.6102  0.3621
  887TIP3   OH2 2666   2.647   4.478   1.311 -0.3069 -0.7994  0.0158
  887TIP3    H1 2667   2.563   4.492   1.354  0.7285  0.2785  1.8358
  887TIP3    H2 2668   2.673   4.565   1.282  0.6245 -0.9410  0.3908
  888TIP3   OH2 2669   1.482   1.952   2.248  0.1569 -0.4589  0.2548
  888TIP3    H1 2670   1.449   1.862   2.244  0.2105 -0.4466 -1.3704
  888TIP3    H2 2671   1.403   2.006   2.253  0.0419 -0.5497 -0.4438
  889TIP3   OH2 2672   5.357   4.047   1.722  0.6778  0.1350 -0.0471
  889TIP3    H1 2673   5.409   3.967   1.716  0.5111  0.0986 -1.0741
  889TIP3    H2 2674   5.421   4.118   1.714  0.7816  0.1051  0.4996
  890TIP3   OH2 2675   0.364   2.835   0.921 -0.2191 -0.1869  0.2834
  890TIP3    H1 2676   0.418   2.883   0.859 -0.2139 -0.1613  0.3077
  890TIP3    H2 2677   0.418   2.827   0.999  0.8960 -2.6807 -0.6464
  891TIP3   OH2 2678   3.199   4.681   3.287  0.2385  0.3510 -0.2463
  891TIP3    H1 2679   3.153   4.758   3.255  1.4929 -0.0430 -3.4555
  891TIP3    H2 2680   3.251   4.652   3.211  1.0541 -2.6911  1.3322
  892TIP3   OH2 2681   0.578   5.899   0.586 -0.4689  0.0330  0.0927
  892TIP3    H1 2682   0.618   5.824   0.630 -1.8327 -0.3090  0.8159
  892TIP3    H2 2683   0.631   5.912   0.508 -1.0648 -2.6845 -0.8767
  893TIP3   OH2 2684   1.140   2.397   2.746 -0.0895  0.0933 -0.0813
  893TIP3    H1 2685   1.210   2.417   2.808  0.5037 -0.6551 -0.4869
  893TIP3    H2 2686   1.060   2.428   2.789  0.2991 -0.4811  1.0961
  894TIP3   OH2 2687   1.962   4.878   1.091  0.4529  0.4665  0.5490
  894TIP3    H1 2688   1.995   4.844   1.008 -0.4565  0.9910 -0.0583
  894TIP3    H2 2689   1.932   4.801   1.139 -1.3108  0.3050 -0.6772
  895TIP3   OH2 2690   0.572   0.765   3.352 -0.1962  0.5471 -0.3775
  895TIP3    H1 2691   0.551   0.743   3.261 -2.3821  0.8575 -0.0057
  895TIP3    H2 2692   0.652   0.817   3.347 -0.9097  1.5310 -2.2271
  896TIP3   OH2 2693   2.226   0.235   0.762 -0.3224 -0.1708  0.5984
  896TIP3    H1 2694   2.176   0.303   0.807  0.8237  1.0186  0.1149
  896TIP3    H2 2695   2.303   0.222   0.816 -0.3463 -0.8393  0.4853
  897TIP3   OH2 2696   5.948   4.601   1.932  0.5311 -0.2561 -0.1971
  897TIP3    H1 2697   5.951   4.689   1.969 -0.7893  0.4568 -1.6770
  897TIP3    H2 2698   6.019   4.600   1.867  0.9196 -0.4958  0.2246
  898TIP3   OH2 2699   4.783   1.861   0.150 -0.0270  0.1022 -0.3066
  898TIP3    H1 2700   4.713   1.818   0.101 -0.9343 -1.0579  1.9141
  898TIP3    H2 2701   4.807   1.799   0.219  3.3135  0.3954 -1.0048
  899TIP3   OH2 2702   4.541   6.003   0.930 -0.1309  0.4081  0.0063
  899TIP3    H1 2703   4.611   5.947   0.896 -1.7383 -0.3654 -2.2630
  899TIP3    H2 2704   4.487   5.944   0.984  1.9269  1.4421  3.5691
  900TIP3   OH2 2705   4.807   4.396   3.011 -0.1192 -0.1375  0.3445
  900TIP3    H1 2706   4.732   4.440   2.972  0.7052  3.2642  2.2043
  900TIP3    H2 2707   4.769   4.330   3.069 -2.0109  3.0244  3.0532
  901TIP3   OH2 2708   2.540   3.927   2.407 -0.0610  0.3874  0.0294
  901TIP3    H1 2709   2.484   3.926   2.329 -1.2301 -0.6642  0.8585
  901TIP3    H2 2710   2.570   4.018   2.412 -0.0562  0.5114 -1.5681
  902TIP3   OH2 2711   2.213   1.290   4.433 -0.2246  0.3471  0.0432
  902TIP3    H1 2712   2.182   1.344   4.360  0.8376 -0.1736 -0.8225
  902TIP3    H2 2713   2.225   1.351   4.505 -1.3412  0.8697 -0.1910
  903TIP3   OH2 2714   0.166   2.155   3.220 -0.4335  0.2296 -0.0392
  903TIP3    H1 2715   0.075   2.161   3.191  0.0915  0.7488 -1.6710
  903TIP3    H2 2716   0.162   2.105   3.302 -2.1008 -0.3668 -0.4546
  904TIP3   OH2 2717   5.593   5.099   0.662  0.2529  0.1542  0.0483
  904TIP3    H1 2718   5.559   5.037   0.598  1.0823  0.8640 -1.1430
  904TIP3    H2 2719   5.529   5.099   0.733  0.0274 -1.7233 -0.1086
  905TIP3   OH2 2720   0.949   2.211   0.066 -0.7049 -0.4615 -0.4870
  905TIP3    H1 2721   0.998   2.281   0.109  1.0449 -2.6552  1.3462
  905TIP3    H2 2722   0.978   2.215  -0.026 -0.1619  0.7801 -0.2870
  906TIP3   OH2 2723   2.105   1.905   4.302 -0.4339 -0.6519 -0.5745
  906TIP3    H1 2724   2.099   1.978   4.363 -0.4932 -1.0456 -0.1055
  906TIP3    H2 2725   2.052   1.837   4.341  0.0835 -1.1490 -0.7227
  907TIP3   OH2 2726   1.503   3.684   1.818  0.0466 -0.0131 -0.5841
  907TIP3    H1 2727   1.508   3.600   1.772  0.2985  0.8902 -2.2835
  907TIP3    H2 2728   1.584   3.729   1.795  0.5547  0.1942  1.4160
  908TIP3   OH2 2729   2.613   5.369   0.504 -0.1064  0.2918  0.2393
  908TIP3    H1 2730   2.602   5.318   0.585 -2.1992 -1.0672 -0.8043
  908TIP3    H2 2731   2.537   5.345   0.451  0.4183  2.3113 -1.5340
  909TIP3   OH2 2732   3.345   2.558   2.892  0.2099 -0.8779  0.4356
  909TIP3    H1 2733   3.330   2.611   2.970  0.1686 -2.7003  1.7071
  909TIP3    H2 2734   3.263   2.562   2.843  0.3037  0.4322  0.3332
  910TIP3   OH2 2735   6.332   1.181   2.464  0.2943  0.0850  0.0105
  910TIP3    H1 2736   6.366   1.105   2.512  1.5011 -0.1805 -1.2184
  910TIP3    H2 2737   6.364   1.170   2.375  0.2152  1.8716 -0.2735
  911TIP3   OH2 2738   3.164   3.281   2.345  0.5036  0.2295  0.8925
  911TIP3    H1 2739   3.254   3.296   2.375  0.7820 -0.0708  0.2136
  911TIP3    H2 2740   3.137   3.202   2.391  0.2747  0.7982  1.7608
  912TIP3   OH2 2741   3.482   0.516   3.401  0.1909 -0.2176  0.2144
  912TIP3    H1 2742   3.516   0.428   3.387 -0.6946 -0.8612  1.8538
  912TIP3    H2 2743   3.526   0.546   3.480  0.8177  1.0292 -0.5731
  913TIP3   OH2 2744   0.836   0.614   0.420  0.7346 -0.0942 -0.1196
  913TIP3    H1 2745   0.830   0.565   0.338 -0.7291 -1.4545  0.7501
  913TIP3    H2 2746   0.885   0.556   0.479  0.9058  0.4426  0.2748
  914TIP3   OH2 2747   0.290   3.127   3.560  0.2005  0.6710  0.5599
  914TIP3    H1 2748   0.238   3.180   3.621  0.5578  1.5332  0.1467
  914TIP3    H2 2749   0.227   3.094   3.496  0.1402  1.8027 -0.0039
  915TIP3   OH2 2750   3.651   2.071   1.703 -0.2499 -0.0703  0.3720
  915TIP3    H1 2751   3.731   2.022   1.724  0.1397  0.2002 -0.4379
  915TIP3    H2 2752   3.666   2.158   1.739  0.7296  0.6181 -1.5618
  916TIP3   OH2 2753   1.477   5.198   2.336  0.2554  0.4449 -0.3135
  916TIP3    H1 2754   1.560   5.220   2.378 -0.2685  2.5859 -0.2837
  916TIP3    H2 2755   1.447   5.280   2.298 -0.1508 -0.9821 -3.4465
  917TIP3   OH2 2756   2.042   4.344   3.294  0.1494  0.2085  0.2453
  917TIP3    H1 2757   2.014   4.388   3.213  0.4607  1.3352  0.7325
  917TIP3    H2 2758   1.966   4.350   3.352 -0.2378 -1.0087 -0.0991
  918TIP3   OH2 2759   5.780   3.690   4.023 -0.4999 -0.0478 -0.0505
  918TIP3    H1 2760   5.699   3.679   3.973 -0.3284  0.4017 -0.4360
  918TIP3    H2 2761   5.773   3.778   4.061 -0.0795  0.0966 -0.2975
  919TIP3   OH2 2762   0.346   0.354   1.406  0.2758  0.4399  0.2786
  919TIP3    H1 2763   0.281   0.308   1.353  0.3892  0.9887 -0.3632
  919TIP3    H2 2764   0.420   0.294   1.411 -0.2473 -0.1640  0.9630
  920TIP3   OH2 2765   1.680   1.311   4.176  0.0889 -0.0284  0.2082
  920TIP3    H1 2766   1.659   1.336   4.086 -0.3120 -0.1961  0.2532
  920TIP3    H2 2767   1.640   1.380   4.229  1.5204  0.8567  0.2112
  921TIP3   OH2 2768   0.035   5.887   0.957 -0.4579  0.2253 -0.3981
  921TIP3    H1 2769   0.094   5.931   1.018 -1.0754  1.3828 -0.6035
  921TIP3    H2 2770   0.091   5.828   0.907  0.7445  2.0634 -1.3188
  922TIP3   OH2 2771   1.862   1.078   3.651  0.3378 -0.5033 -0.3052
  922TIP3    H1 2772   1.815   1.078   3.568  2.0934  2.0143 -1.4099
  922TIP3    H2 2773   1.951   1.107   3.629  1.8110 -2.7469  2.0323
  923TIP3   OH2 2774   1.255   1.937   2.641 -0.2552 -0.0233  0.1029
  923TIP3    H1 2775   1.183   1.996   2.665  0.5358  1.4194 -0.9399
  923TIP3    H2 2776   1.283   1.968   2.555  0.8324 -1.3345 -0.0359
  924TIP3   OH2 2777   4.809   3.611   0.109  0.1298 -0.3803 -0.0358
  924TIP3    H1 2778   4.760   3.552   0.167  1.7594 -2.3212 -0.4870
  924TIP3    H2 2779   4.743   3.647   0.050 -0.8426 -2.8304 -0.5742
  925TIP3   OH2 2780   5.716   2.264   4.062  0.3908 -0.0700 -0.1887
  925TIP3    H1 2781   5.739   2.336   4.003 -1.6356  1.1221  0.3960
  925TIP3    H2 2782   5.634   2.290   4.102  0.8190 -1.6332  1.9012
  926TIP3   OH2 2783   3.065   5.307   2.138 -0.8679 -0.6528 -0.1253
  926TIP3    H1 2784   3.062   5.353   2.054  0.4343 -1.4920 -0.6484
  926TIP3    H2 2785   2.974   5.307   2.168 -1.1323  0.9663 -0.8013
  927TIP3   OH2 2786   0.300   2.020   2.325 -0.2428  0.0579 -0.3770
  927TIP3    H1 2787   0.361   2.050   2.258 -0.4922  2.3126  0.2944
  927TIP3    H2 2788   0.231   1.975   2.277  1.8562 -2.5699 -1.1583
  928TIP3   OH2 2789   4.079   4.776   0.970  0.4920  0.4860  0.4604
  928TIP3    H1 2790   4.108   4.713   0.904  0.0370 -0.4821  1.1632
  928TIP3    H2 2791   4.066   4.857   0.922  1.2516  0.0903 -0.4342
  929TIP3   OH2 2792   2.333   4.765   3.862 -0.5810 -0.7881  0.0959
  929TIP3    H1 2793   2.243   4.797   3.867  0.6539  3.0396  0.7729
  929TIP3    H2 2794   2.350   4.757   3.768 -1.4031 -0.9674 -0.0507
  930TIP3   OH2 2795   0.721   3.609   2.797  0.5682 -0.3052  0.3397
  930TIP3    H1 2796   0.713   3.604   2.893 -1.4383  1.6511  0.3772
  930TIP3    H2 2797   0.719   3.703   2.779 -0.2810 -0.6783 -1.6845
  931TIP3   OH2 2798   5.272   1.673   3.716  0.0939  0.2982 -0.5864
  931TIP3    H1 2799   5.346   1.651   3.660  1.2562  1.5027  0.3899
  931TIP3    H2 2800   5.203   1.702   3.656  0.6772 -0.1479 -1.4783
  932TIP3   OH2 2801   2.852   2.072   1.934  0.2495  0.0794 -0.0458
  932TIP3    H1 2802   2.904   2.146   1.964 -0.7071  0.7055  0.1084
  932TIP3    H2 2803   2.852   2.079   1.839  0.0543  0.3619 -0.0267
  933TIP3   OH2 2804   1.387   3.213   1.120  0.0614 -0.1355 -0.6507
  933TIP3    H1 2805   1.306   3.164   1.106  0.1146 -0.3165 -0.3304
  933TIP3    H2 2806   1.399   3.263   1.038 -0.6990  0.3693 -0.4690
  934TIP3   OH2 2807   2.596   4.431   2.232 -0.1122 -0.0681  0.2626
  934TIP3    H1 2808   2.567   4.497   2.295  1.7749 -0.0232  1.1313
  934TIP3    H2 2809   2.671   4.470   2.187  0.6812 -1.3662  0.3813
  935TIP3   OH2 2810   1.352   3.365   3.847 -0.0973  0.3506  0.5085
  935TIP3    H1 2811   1.379   3.296   3.907 -2.2262  0.7215  1.9767
  935TIP3    H2 2812   1.258   3.354   3.839 -0.2395  2.0479 -0.5888
  936TIP3   OH2 2813   2.186   0.808   0.155 -0.2275  0.3580 -0.1240
  936TIP3    H1 2814   2.148   0.741   0.098 -1.2189  1.5189 -0.8714
  936TIP3    H2 2815   2.279   0.808   0.132 -0.1365 -0.9938  0.1500
  937TIP3   OH2 2816   0.577   4.524   4.871  0.4888  0.1054  0.5132
  937TIP3    H1 2817   0.497   4.553   4.827  0.9293  2.4258  1.1093
  937TIP3    H2 2818   0.550   4.447   4.921 -1.2647  0.5818  0.3727
  938TIP3   OH2 2819   3.911   1.345   1.593 -0.0034  0.1308  0.0949
  938TIP3    H1 2820   3.888   1.252   1.587 -0.1621  0.1877 -0.2201
  938TIP3    H2 2821   3.833   1.386   1.632  0.4654 -0.0198  1.2174
  939TIP3   OH2 2822   1.349   2.113   1.033 -0.3388 -0.4309  0.1539
  939TIP3    H1 2823   1.296   2.160   0.969 -0.5831 -0.2814  0.4593
  939TIP3    H2 2824   1.303   2.030   1.047 -0.1305 -0.5882 -0.0756
  940TIP3   OH2 2825   2.483   4.319   2.996  0.7241 -0.3018  0.3701
  940TIP3    H1 2826   2.455   4.404   3.029 -1.6931 -0.5161 -0.8723
  940TIP3    H2 2827   2.419   4.257   3.031  0.9563 -1.2135 -0.7442
  941TIP3   OH2 2828   0.570   5.478   0.449 -0.1770  0.0634 -0.4069
  941TIP3    H1 2829   0.564   5.548   0.513 -0.1838 -0.8458  0.6159
  941TIP3    H2 2830   0.546   5.399   0.497 -0.9848 -0.5385 -1.7316
  942TIP3   OH2 2831   2.552   0.018   2.161 -0.3843 -0.1455  0.5336
  942TIP3    H1 2832   2.489   0.091   2.158  1.7166  1.7603 -1.5084
  942TIP3    H2 2833   2.637   0.061   2.167  0.8554 -2.6423  3.9409
  943TIP3   OH2 2834   2.519   5.513   5.122  0.1813 -0.6517 -0.2691
  943TIP3    H1 2835   2.456   5.574   5.159  1.1180 -0.4390  1.0463
  943TIP3    H2 2836   2.581   5.569   5.074  0.2165 -0.7116 -0.2937
  944TIP3   OH2 2837   2.267   3.432   3.307 -0.5983 -0.3528 -0.0038
  944TIP3    H1 2838   2.330   3.361   3.300  0.6202  0.6487  0.4220
  944TIP3    H2 2839   2.310   3.497   3.362 -1.7818  0.6022 -0.1673
  945TIP3   OH2 2840   3.049   3.430   2.570 -0.3210 -0.0966  0.1719
  945TIP3    H1 2841   3.011   3.342   2.572 -3.3366  1.0808  1.1747
  945TIP3    H2 2842   3.022   3.466   2.486  2.4284 -0.6313 -1.0344
  946TIP3   OH2 2843   1.275   5.895   1.739 -0.1840  0.4745 -0.2821
  946TIP3    H1 2844   1.221   5.829   1.783 -0.7340  1.2971  0.3124
  946TIP3    H2 2845   1.283   5.864   1.649 -0.3338 -0.4555  0.0125
  947TIP3   OH2 2846   3.139   1.055   3.096  0.5686  0.5747  0.0992
  947TIP3    H1 2847   3.127   0.992   3.167 -1.8619  1.7209  0.7988
  947TIP3    H2 2848   3.171   1.003   3.023 -0.7882 -1.3988  0.8298
  948TIP3   OH2 2849   3.868   3.645   4.978  0.7637 -0.1019 -0.1089
  948TIP3    H1 2850   3.798   3.689   4.931  0.6984  0.2809  0.3396
  948TIP3    H2 2851   3.874   3.691   5.062  2.5039  0.7871 -0.6708
  949TIP3   OH2 2852   2.451   2.778   2.184 -0.2219  0.1872  0.1109
  949TIP3    H1 2853   2.369   2.827   2.190  0.2432  1.1092 -0.7869
  949TIP3    H2 2854   2.511   2.825   2.243  0.3331  0.9582 -1.0302
  950TIP3   OH2 2855   4.749   0.323   0.420 -0.5413 -0.6274  0.6073
  950TIP3    H1 2856   4.843   0.339   0.409 -0.6585 -0.3659 -0.0276
  950TIP3    H2 2857   4.742   0.229   0.436 -0.0440 -0.4359  2.1013
  951TIP3   OH2 2858   1.131   5.689   1.251 -0.4553  1.0256  0.5965
  951TIP3    H1 2859   1.072   5.723   1.318 -0.9989 -0.5688  0.9727
  951TIP3    H2 2860   1.091   5.714   1.168 -1.5676  0.1287  0.8517
  952TIP3   OH2 2861   0.857   0.140   1.933 -0.3158 -0.3022 -0.5176
  952TIP3    H1 2862   0.867   0.163   1.841 -2.0374  1.8599 -0.2415
  952TIP3    H2 2863   0.882   0.048   1.938  5.3700  0.7620 -2.1041
  953TIP3   OH2 2864   5.041   5.254   4.647 -0.1505 -0.3842  0.7410
  953TIP3    H1 2865   5.085   5.169   4.646  0.4085 -0.1755 -2.1348
  953TIP3    H2 2866   4.953   5.235   4.678  0.5536 -1.6215  2.1333
  954TIP3   OH2 2867   4.869   0.864   2.467  0.5219  0.0451 -0.8688
  954TIP3    H1 2868   4.881   0.897   2.557  1.0871  2.2500 -1.6740
  954TIP3    H2 2869   4.926   0.788   2.462 -1.1580 -1.4771  1.2592
  955TIP3   OH2 2870   6.270   2.055   4.072  0.1677  0.7216  0.3710
  955TIP3    H1 2871   6.228   2.035   4.155 -0.4132 -0.5442 -0.2177
  955TIP3    H2 2872   6.291   1.970   4.033  3.9549  1.2092  0.9317
  956TIP3   OH2 2873   3.207   1.745   4.673  0.1799  0.2291  0.0677
  956TIP3    H1 2874   3.158   1.823   4.645 -0.5173 -0.9923 -2.4303
  956TIP3    H2 2875   3.293   1.778   4.697 -0.1258  1.7923 -0.8499
  957TIP3   OH2 2876   1.728   5.119   2.955  0.4032  0.7287  0.1530
  957TIP3    H1 2877   1.756   5.113   3.046  2.7845 -3.4392 -0.5908
  957TIP3    H2 2878   1.669   5.044   2.943 -1.4786  2.3160 -1.3933
  958TIP3   OH2 2879   2.892   4.296   2.316  0.1500  0.3181 -0.0945
  958TIP3    H1 2880   2.913   4.365   2.379 -0.7526  1.0742 -0.5953
  958TIP3    H2 2881   2.855   4.343   2.241  0.4871 -0.6317 -0.8760
  959TIP3   OH2 2882   5.880   1.691   1.060  0.4033  0.0737 -0.6255
  959TIP3    H1 2883   5.882   1.750   0.984  3.2470 -0.8394 -1.3957
  959TIP3    H2 2884   5.964   1.705   1.103 -0.4567 -0.6958  1.3882
  960TIP3   OH2 2885   0.668   0.733   0.226  0.3896 -0.2198  0.4124
  960TIP3    H1 2886   0.704   0.721   0.138  0.5224  0.0715  0.4250
  960TIP3    H2 2887   0.574   0.743   0.212  0.5637  1.3336  0.1432
  961TIP3   OH2 2888   4.300   3.894   3.926  0.0085 -0.0260 -0.1990
  961TIP3    H1 2889   4.227   3.832   3.921  0.9908 -1.2336 -0.2092
  961TIP3    H2 2890   4.371   3.851   3.878  1.4556  0.0169  1.7683
  962TIP3   OH2 2891   1.834   4.055   0.489  0.1476 -0.6470 -0.2932
  962TIP3    H1 2892   1.855   4.132   0.436  1.5738  1.1265  2.5936
  962TIP3    H2 2893   1.899   3.990   0.463  0.5742  0.0275 -0.9755
  963TIP3   OH2 2894   2.887   2.147   4.669 -0.5180 -0.2169  0.7962
  963TIP3    H1 2895   2.874   2.218   4.606 -0.1023 -0.7637  0.0815
  963TIP3    H2 2896   2.839   2.073   4.632 -0.9885 -0.3096  1.5594
  964TIP3   OH2 2897   3.916   4.030   2.509  0.1540 -0.4084 -0.4881
  964TIP3    H1 2898   3.912   4.125   2.519  0.8186 -0.4781  0.7149
  964TIP3    H2 2899   3.976   4.001   2.579  1.7076 -1.5061 -2.1723
  965TIP3   OH2 2900   1.437   4.343   4.064 -0.3141 -0.3354  0.4195
  965TIP3    H1 2901   1.393   4.357   4.148 -1.7464  0.1068 -0.3610
  965TIP3    H2 2902   1.523   4.308   4.087 -0.5332  0.1262  2.0713
  966TIP3   OH2 2903   3.892   2.320   2.347 -0.1464 -0.2650  0.6912
  966TIP3    H1 2904   3.922   2.376   2.418 -1.6145  1.1253  0.2878
  966TIP3    H2 2905   3.922   2.363   2.267 -1.6938  0.2717  0.3534
  967TIP3   OH2 2906   5.379   2.694   3.582  0.4447 -0.7304  0.4120
  967TIP3    H1 2907   5.472   2.699   3.561  0.6756 -0.6500  1.3789
  967TIP3    H2 2908   5.334   2.732   3.507  1.0950 -2.1325 -0.7200
  968TIP3   OH2 2909   0.963   1.303   0.064 -0.0300  0.0413  0.1264
  968TIP3    H1 2910   0.886   1.252   0.089  0.6145 -0.7162  0.6015
  968TIP3    H2 2911   0.979   1.361   0.138 -0.5469  0.7119 -0.2658
  969TIP3   OH2 2912   5.626   3.406   3.851  0.2660  0.3308  0.0373
  969TIP3    H1 2913   5.708   3.420   3.898  0.3184  1.0360 -0.2635
  969TIP3    H2 2914   5.587   3.329   3.894 -0.1735  1.5373  1.9251
  970TIP3   OH2 2915   3.606   5.147   1.970  0.1838  0.6080 -0.4783
  970TIP3    H1 2916   3.639   5.229   1.933  0.4737  0.9589  0.5377
  970TIP3    H2 2917   3.684   5.093   1.983  0.2746  1.0532  0.9807
  971TIP3   OH2 2918   2.030   2.303   4.069 -0.1794 -0.1105 -0.7233
  971TIP3    H1 2919   2.112   2.323   4.115 -1.4550  0.5432  1.4258
  971TIP3    H2 2920   2.041   2.213   4.040  0.1441 -1.2345  2.4308
  972TIP3   OH2 2921   6.100   5.572   3.709 -0.2441 -0.2925 -0.3105
  972TIP3    H1 2922   6.130   5.607   3.793 -1.3338 -0.7377  0.2768
  972TIP3    H2 2923   6.165   5.507   3.685  1.2237  1.2892 -0.8748
  973TIP3   OH2 2924   3.142   4.801   5.080  0.3451  0.9700  0.5287
  973TIP3    H1 2925   3.125   4.865   5.010  0.3429  1.4444  0.9533
  973TIP3    H2 2926   3.084   4.828   5.151 -0.1521  0.0771  0.4718
  974TIP3   OH2 2927   4.209   4.236   4.444 -0.9611 -0.2658 -0.1970
  974TIP3    H1 2928   4.223   4.202   4.356  3.0964  1.0050 -0.2553
  974TIP3    H2 2929   4.199   4.330   4.432 -1.2002 -0.1778  0.6410
  975TIP3   OH2 2930   5.697   1.872   2.541 -0.1756 -0.1272  0.4686
  975TIP3    H1 2931   5.732   1.948   2.495 -1.2856  1.1491  1.6655
  975TIP3    H2 2932   5.609   1.860   2.504 -0.2247 -0.4802  0.6910
  976TIP3   OH2 2933   3.175   1.629   0.969 -0.1860 -0.4733  0.1064
  976TIP3    H1 2934   3.132   1.571   0.907  0.4126 -0.4992 -0.2890
  976TIP3    H2 2935   3.141   1.716   0.949  1.0335 -0.2606 -1.2012
  977TIP3   OH2 2936   0.014   0.932   2.945 -0.4520 -0.3928 -0.1113
  977TIP3    H1 2937   0.083   0.869   2.963  0.0008  0.2765  0.5313
  977TIP3    H2 2938  -0.033   0.942   3.028 -0.4515  0.1975 -0.1798
  978TIP3   OH2 2939   0.761   3.958   0.250 -0.6164 -0.7801  0.1452
  978TIP3    H1 2940   0.838   3.930   0.301 -0.2595  1.8352  1.1932
  978TIP3    H2 2941   0.787   3.944   0.159  1.1580  0.0893  0.4703
  979TIP3   OH2 2942   4.787   0.888   4.674  0.0164 -0.1749  0.6626
  979TIP3    H1 2943   4.763   0.900   4.766  0.7588 -0.1144  0.8548
  979TIP3    H2 2944   4.826   0.972   4.648 -2.2931  0.6497 -0.4061
  980TIP3   OH2 2945   0.595   3.885   4.551  0.0985 -0.6659 -0.1510
  980TIP3    H1 2946   0.562   3.974   4.539 -1.6972 -1.0867  1.1964
  980TIP3    H2 2947   0.682   3.886   4.511 -1.0089  0.8912 -2.7971
  981TIP3   OH2 2948   0.128   2.157   2.677 -0.0733  0.5190 -0.5014
  981TIP3    H1 2949   0.167   2.241   2.651  0.0746  0.8797  0.8428
  981TIP3    H2 2950   0.149   2.148   2.770 -0.6816 -0.6847 -0.4630
  982TIP3   OH2 2951   5.486   1.122   0.014 -0.6286  0.4173 -0.5370
  982TIP3    H1 2952   5.562   1.073  -0.017 -0.6890  0.8167 -1.3415
  982TIP3    H2 2953   5.521   1.206   0.042 -0.6453  0.2437  0.0159
  983TIP3   OH2 2954   2.442   2.535   4.483  0.2794 -0.7136 -0.3642
  983TIP3    H1 2955   2.481   2.610   4.529 -0.7392 -0.0766 -0.5086
  983TIP3    H2 2956   2.365   2.512   4.535 -1.4879  0.6499 -2.1655
  984TIP3   OH2 2957   3.860   1.697   2.104 -0.3468  0.4875  0.1377
  984TIP3    H1 2958   3.954   1.707   2.093 -0.0718 -2.4475 -1.2724
  984TIP3    H2 2959   3.821   1.767   2.052  1.1202 -0.8874 -3.0461
  985TIP3   OH2 2960   0.868   5.668   0.321 -0.4453  0.5906 -0.4172
  985TIP3    H1 2961   0.827   5.622   0.394  0.6399  0.3297  0.0564
  985TIP3    H2 2962   0.802   5.730   0.292 -1.2015  0.1285  0.2486
  986TIP3   OH2 2963   1.122   5.902   1.023  0.1298 -0.6958 -0.7200
  986TIP3    H1 2964   1.164   5.948   0.951 -1.2786  0.8304 -0.6347
  986TIP3    H2 2965   1.058   5.844   0.981  0.6941 -1.3026 -0.7568
  987TIP3   OH2 2966   2.438   3.408   4.887  0.8594 -0.4057 -0.3830
  987TIP3    H1 2967   2.524   3.440   4.914  0.6091 -0.8690  1.0562
  987TIP3    H2 2968   2.457   3.329   4.837  1.2734 -0.7425  0.2860
  988TIP3   OH2 2969   0.547   1.945   1.538  0.0307  0.1850 -0.0659
  988TIP3    H1 2970   0.503   2.030   1.540  1.6176  1.0532  0.8915
  988TIP3    H2 2971   0.590   1.942   1.453  0.3713  0.5754  0.0889
  989TIP3   OH2 2972   5.471   1.770   2.917  0.3425  0.4029 -0.4045
  989TIP3    H1 2973   5.418   1.836   2.960 -1.5514 -1.4527  0.2727
  989TIP3    H2 2974   5.415   1.693   2.913  2.6489 -1.3748 -0.5971
  990TIP3   OH2 2975   1.608   3.814   2.860 -0.2285 -0.5239  0.5620
  990TIP3    H1 2976   1.574   3.899   2.831 -0.5666 -0.8941 -0.1590
  990TIP3    H2 2977   1.557   3.793   2.939 -2.3519 -1.4557 -0.9449
  991TIP3   OH2 2978   4.229   2.317   0.859 -0.8280  0.1346  0.4028
  991TIP3    H1 2979   4.138   2.320   0.829 -0.9591 -1.4846  0.5523
  991TIP3    H2 2980   4.281   2.333   0.780 -1.2330  0.0255  0.1104
  992TIP3   OH2 2981   0.933   1.800   4.178 -0.7230 -0.6444 -0.3273
  992TIP3    H1 2982   0.920   1.852   4.257  0.2582  0.5398 -0.9153
  992TIP3    H2 2983   0.913   1.860   4.106  2.2697 -0.3823 -1.0833
  993TIP3   OH2 2984   3.047   3.788   2.449 -0.1337 -0.2778 -0.1781
  993TIP3    H1 2985   3.106   3.737   2.394  1.3637  0.0119  1.0926
  993TIP3    H2 2986   2.960   3.758   2.425  0.4501 -0.1933 -2.6467
  994TIP3   OH2 2987   2.736   1.000   0.569  0.2499  0.4729 -0.5848
  994TIP3    H1 2988   2.671   1.070   0.582  1.0786  0.9748  1.1682
  994TIP3    H2 2989   2.816   1.046   0.545  0.5948  0.0714 -0.2191
  995TIP3   OH2 2990   2.665   2.941   0.023  0.3824 -0.4507 -0.0179
  995TIP3    H1 2991   2.745   2.989   0.003 -0.1642  1.4951  2.0736
  995TIP3    H2 2992   2.603   3.009   0.052 -1.4107 -2.1074  0.2423
  996TIP3   OH2 2993   2.889   0.475   4.706  0.2754  0.3185  0.1531
  996TIP3    H1 2994   2.831   0.524   4.764 -0.1236 -0.4505  0.4101
  996TIP3    H2 2995   2.866   0.506   4.618  0.1404  0.7059  0.3239
  997TIP3   OH2 2996   3.504   3.683   0.474  0.8859 -0.3343  0.1983
  997TIP3    H1 2997   3.496   3.778   0.468 -0.7081 -0.4551 -0.0437
  997TIP3    H2 2998   3.490   3.653   0.384  0.0162 -0.8591  0.4969
  998TIP3   OH2 2999   3.601   4.042   1.198  0.6216  0.5647 -0.6255
  998TIP3    H1 3000   3.594   3.953   1.233  3.0135  0.1184 -1.1011
  998TIP3    H2 3001   3.521   4.085   1.227 -0.7235 -1.7842 -0.5735
  999TIP3   OH2 3002   0.394   4.831   0.276  0.2709 -0.1373  0.3549
  999TIP3    H1 3003   0.402   4.738   0.298  1.8500 -0.7033 -2.1524
  999TIP3    H2 3004   0.323   4.834   0.212  0.2540  0.3861  0.3940
 1000TIP3   OH2 3005   5.205   2.910   2.002 -0.4038 -0.3372 -0.1216
 1000TIP3    H1 3006   5.127   2.865   1.971 -0.5113 -1.6245  1.8264
 1000TIP3    H2 3007   5.277   2.849   1.983 -0.0451  0.2737 -0.7409
 1001TIP3   OH2 3008   3.342   3.400   1.957 -0.0091 -0.1834  0.4797
 1001TIP3    H1 3009   3.365   3.312   1.987  0.4590  0.2368  1.3933
 1001TIP3    H2 3010   3.421   3.452   1.971  0.5773 -0.1194 -2.3572
 1002TIP3   OH2 3011   4.080   4.711   3.490 -0.4974  0.4314 -0.0293
 1002TIP3    H1 3012   4.062   4.789   3.438 -0.1356  0.2980 -0.3545
 1002TIP3    H2 3013   4.169   4.724   3.523 -0.9950  0.8747  1.1962
 1003TIP3   OH2 3014   3.778   2.029   3.713  0.2591  0.4026  0.2573
 1003TIP3    H1 3015   3.767   2.109   3.661  1.0282  3.5536  4.4024
 1003TIP3    H2 3016   3.867   2.036   3.748 -0.0279 -1.7420  1.5695
 1004TIP3   OH2 3017   2.284   0.877   1.937  0.2652 -0.0838 -0.5651
 1004TIP3    H1 3018   2.351   0.816   1.968 -0.0474 -0.2060 -0.1122
 1004TIP3    H2 3019   2.313   0.962   1.970  0.6601  0.0067 -1.1294
 1005TIP3   OH2 3020   3.727   0.331   3.659  0.4634  0.1185  0.1840
 1005TIP3    H1 3021   3.686   0.248   3.637 -0.6984  0.5164  0.7646
 1005TIP3    H2 3022   3.656   0.385   3.694  1.2584  1.2351  0.1563
 1006TIP3   OH2 3023   6.249   4.597   1.810  0.3169  0.7560 -0.5527
 1006TIP3    H1 3024   6.244   4.568   1.901  1.7327 -0.5180 -0.8534
 1006TIP3    H2 3025   6.270   4.690   1.815 -0.3234  0.8629  0.4087
 1007TIP3   OH2 3026   1.149   3.927   4.376  0.3607 -0.0522 -0.2164
 1007TIP3    H1 3027   1.216   3.902   4.439  1.4548 -0.5079 -1.4948
 1007TIP3    H2 3028   1.167   4.019   4.357  0.2806 -0.0235 -0.1524
 1008TIP3   OH2 3029   0.634   1.141   1.552 -0.2321  0.6449 -0.3060
 1008TIP3    H1 3030   0.686   1.208   1.595 -1.0000  0.3826  1.0960
 1008TIP3    H2 3031   0.682   1.060   1.566 -0.7984  0.4559  0.6960
 1009TIP3   OH2 3032   1.122   3.712   2.726 -0.2553  0.2295  0.4588
 1009TIP3    H1 3033   1.108   3.792   2.676 -0.3873  0.4151  0.7967
 1009TIP3    H2 3034   1.142   3.646   2.659 -0.3833  0.4876  0.1643
 1010TIP3   OH2 3035   1.541   3.942   0.741  0.3967  0.0351  0.2200
 1010TIP3    H1 3036   1.499   4.003   0.800  0.6952 -0.5122  1.0113
 1010TIP3    H2 3037   1.534   3.983   0.654 -2.0013 -0.1454  0.2625
 1011TIP3   OH2 3038   2.787   2.277   3.818  0.2757  0.2283  0.2388
 1011TIP3    H1 3039   2.819   2.281   3.908  2.7734 -1.5785 -0.4683
 1011TIP3    H2 3040   2.825   2.354   3.776 -0.0654  0.5172  0.4434
 1012TIP3   OH2 3041   0.712   2.474   0.650 -0.1498  0.1556  0.0160
 1012TIP3    H1 3042   0.729   2.463   0.557 -1.6628 -1.4211 -0.1330
 1012TIP3    H2 3043   0.761   2.403   0.692 -0.2516  0.2690  0.3331
 1013TIP3   OH2 3044   5.523   0.994   0.321  0.3776 -0.2441  0.9380
 1013TIP3    H1 3045   5.585   0.967   0.253  0.0371  0.2798  0.4020
 1013TIP3    H2 3046   5.544   1.086   0.337 -1.0686  0.3230 -0.1896
 1014TIP3   OH2 3047   4.550   5.684   0.767 -0.1382 -0.0307 -0.5966
 1014TIP3    H1 3048   4.629   5.739   0.761 -0.2416  0.0395 -1.4820
 1014TIP3    H2 3049   4.557   5.641   0.852  0.1452  1.0609 -0.0468
 1015TIP3   OH2 3050   2.979   0.651   0.455  0.2057 -0.0883 -0.4209
 1015TIP3    H1 3051   2.993   0.745   0.442  0.3890 -0.2321 -1.3866
 1015TIP3    H2 3052   3.067   0.616   0.469  0.0181  0.0471  1.2466
 1016TIP3   OH2 3053   4.693   4.136   4.522  0.2531  0.1100  0.5940
 1016TIP3    H1 3054   4.688   4.097   4.435 -1.1189  0.8316  0.3337
 1016TIP3    H2 3055   4.603   4.139   4.553  0.7769 -0.7561  2.3420
 1017TIP3   OH2 3056   1.626   1.067   3.921 -0.5085 -0.2799  0.3960
 1017TIP3    H1 3057   1.704   1.023   3.887 -1.4609 -0.0236 -2.3573
 1017TIP3    H2 3058   1.610   1.139   3.860 -1.7401  0.9402  2.0782
 1018TIP3   OH2 3059   5.410   2.510   3.342  0.1092 -0.1374  0.2608
 1018TIP3    H1 3060   5.475   2.516   3.272  1.7496  2.6477  1.8541
 1018TIP3    H2 3061   5.329   2.539   3.301  0.9544  1.1388 -0.6006
 1019TIP3   OH2 3062   3.006   1.453   1.593  0.4206 -0.7020 -0.0068
 1019TIP3    H1 3063   3.075   1.502   1.548  0.2664 -0.4352  0.0454
 1019TIP3    H2 3064   2.925   1.491   1.561  0.3144 -0.2100  0.8211
 1020TIP3   OH2 3065   3.932   3.469   4.468 -0.2261  0.2943  0.0996
 1020TIP3    H1 3066   3.870   3.404   4.435 -1.2045  1.4813 -0.4348
 1020TIP3    H2 3067   3.893   3.553   4.447  1.9663  1.1147 -1.0659
 1021TIP3   OH2 3068   2.722   0.839   1.024  0.5467 -0.0270  0.5391
 1021TIP3    H1 3069   2.649   0.778   1.033 -1.5509  2.2573  0.0823
 1021TIP3    H2 3070   2.772   0.829   1.105 -0.8677 -0.9171  1.3364
 1022TIP3   OH2 3071   5.737   5.336   0.736  0.4389  0.2083 -0.2015
 1022TIP3    H1 3072   5.731   5.248   0.699  1.1041  1.4159 -3.6024
 1022TIP3    H2 3073   5.831   5.349   0.751  0.6689  1.0953 -2.0852
 1023TIP3   OH2 3074   5.239   2.154   4.118  0.0275 -0.0383  0.2559
 1023TIP3    H1 3075   5.275   2.174   4.032  2.0690  0.5639  1.1819
 1023TIP3    H2 3076   5.148   2.131   4.102  0.0901  1.0432 -1.9450
 1024TIP3   OH2 3077   0.230   3.924   4.777 -0.0980 -0.1176  0.3349
 1024TIP3    H1 3078   0.151   3.911   4.726 -0.7896 -0.7988  1.5307
 1024TIP3    H2 3079   0.264   4.009   4.748 -0.3751 -0.5379 -1.3093
 1025TIP3   OH2 3080   4.076   0.281   2.854 -0.9374 -0.2133  0.3217
 1025TIP3    H1 3081   4.045   0.344   2.789 -0.1605 -0.4185 -0.2467
 1025TIP3    H2 3082   4.140   0.227   2.808  0.5173  0.4020  1.5613
 1026TIP3   OH2 3083   0.394   2.328   3.236 -0.3759  0.4298 -0.1906
 1026TIP3    H1 3084   0.386   2.345   3.142  2.5150 -0.6684 -0.7526
 1026TIP3    H2 3085   0.349   2.244   3.249 -0.4384  0.3879 -0.6769
 1027TIP3   OH2 3086   5.871   3.685   1.211  0.0766 -0.4411  0.5783
 1027TIP3    H1 3087   5.776   3.692   1.210 -0.1348 -2.4465 -1.5514
 1027TIP3    H2 3088   5.902   3.763   1.165 -0.6205 -0.4484  0.0850
 1028TIP3   OH2 3089   4.439   4.739   1.442  0.1428 -0.3531  0.0221
 1028TIP3    H1 3090   4.407   4.785   1.519  0.2830 -0.2325  0.0086
 1028TIP3    H2 3091   4.469   4.808   1.383  1.8559 -0.5106  0.6542
 1029TIP3   OH2 3092   0.531   0.585   0.757 -0.0969 -0.0630  0.3419
 1029TIP3    H1 3093   0.444   0.547   0.744  0.4768 -1.6845  1.0389
 1029TIP3    H2 3094   0.587   0.539   0.695  0.4287  0.3523  0.5017
 1030TIP3   OH2 3095   2.707   2.102   2.644 -0.3348  0.5566  0.0621
 1030TIP3    H1 3096   2.741   2.134   2.728  0.7878  0.0397 -0.1764
 1030TIP3    H2 3097   2.657   2.024   2.667  0.5153  0.0384  0.2032
 1031TIP3   OH2 3098   1.143   0.742   1.743  0.1683  0.4322  0.5301
 1031TIP3    H1 3099   1.217   0.684   1.757 -0.4657 -0.3224  0.8292
 1031TIP3    H2 3100   1.161   0.783   1.658  0.3215 -0.6940 -0.0064
 1032TIP3   OH2 3101   1.464   5.408   1.866 -0.1380  1.0880 -0.5762
 1032TIP3    H1 3102   1.418   5.483   1.903 -0.0097  1.2382 -0.7215
 1032TIP3    H2 3103   1.466   5.425   1.772  0.8009  1.4140 -0.5055
 1033TIP3   OH2 3104   0.103   1.835   3.488 -0.4889 -0.3011 -0.6009
 1033TIP3    H1 3105   0.142   1.918   3.460  0.0189 -0.2463  0.2217
 1033TIP3    H2 3106   0.077   1.792   3.407 -2.1999  1.3391 -0.9787
 1034TIP3   OH2 3107   2.538   5.028   0.689  0.3232 -0.5219  0.5132
 1034TIP3    H1 3108   2.593   5.018   0.610  1.4105 -1.5555  1.3565
 1034TIP3    H2 3109   2.516   5.121   0.691  0.6016 -0.4044 -0.8013
 1035TIP3   OH2 3110   4.522   3.488   3.619 -0.8360 -0.3119 -0.0542
 1035TIP3    H1 3111   4.485   3.502   3.532  1.9080  1.0516 -1.1330
 1035TIP3    H2 3112   4.552   3.575   3.646  0.2581 -1.0716  1.3115
 1036TIP3   OH2 3113   1.920   2.492   3.783  0.2829 -0.0001  0.0579
 1036TIP3    H1 3114   1.857   2.422   3.801  0.9737 -1.4576 -2.6674
 1036TIP3    H2 3115   1.969   2.502   3.864  0.0354 -2.5934  0.6118
 1037TIP3   OH2 3116   0.673   3.358   4.278  0.2405 -0.5745 -0.4576
 1037TIP3    H1 3117   0.726   3.373   4.357 -0.7121 -0.6120  0.2140
 1037TIP3    H2 3118   0.645   3.267   4.286  0.2605 -0.6199 -0.9213
 1038TIP3   OH2 3119   3.734   2.572   3.556 -0.5255  0.1030  0.2604
 1038TIP3    H1 3120   3.737   2.667   3.553  1.4094  0.1004  0.7925
 1038TIP3    H2 3121   3.660   2.548   3.499 -0.4732  1.8673 -0.6137
 1039TIP3   OH2 3122   5.499   0.816   5.191  0.1349  0.9445  0.0541
 1039TIP3    H1 3123   5.517   0.722   5.200  0.3878  0.7100 -2.2305
 1039TIP3    H2 3124   5.524   0.836   5.101 -1.9370  2.7443 -0.1958
 1040TIP3   OH2 3125   4.857   3.761   3.413 -0.3709 -0.7010 -0.1259
 1040TIP3    H1 3126   4.919   3.689   3.425  0.5949  0.3548  1.6208
 1040TIP3    H2 3127   4.831   3.755   3.321  1.0510 -2.1883 -0.4816
 1041TIP3   OH2 3128   0.837   4.606   4.398  0.7528  0.3894  0.3220
 1041TIP3    H1 3129   0.776   4.595   4.325  0.2861 -0.2739  0.8032
 1041TIP3    H2 3130   0.816   4.534   4.458  2.9785 -0.7807 -0.1721
 1042TIP3   OH2 3131   0.914   4.729   2.173 -0.2142  0.4293 -0.0349
 1042TIP3    H1 3132   0.881   4.738   2.084  1.3656 -0.6569 -0.7849
 1042TIP3    H2 3133   0.914   4.818   2.208  1.8441  1.3974 -2.1947
 1043TIP3   OH2 3134   2.427   0.605   2.223 -0.3180  0.2684  0.0005
 1043TIP3    H1 3135   2.350   0.555   2.250 -1.1489  1.2684 -0.4444
 1043TIP3    H2 3136   2.501   0.562   2.266 -1.4411  1.2273  3.1662
 1044TIP3   OH2 3137   4.547   1.900   1.598 -0.3592  0.3216 -1.0374
 1044TIP3    H1 3138   4.499   1.821   1.623  0.2696  0.2222 -0.0639
 1044TIP3    H2 3139   4.581   1.881   1.510 -1.2137 -0.0081 -1.2997
 1045TIP3   OH2 3140   5.448   3.484   5.101  0.0109 -0.0165 -0.4766
 1045TIP3    H1 3141   5.463   3.540   5.178 -1.4708  2.2955 -1.7835
 1045TIP3    H2 3142   5.498   3.525   5.031 -1.3084 -0.1527 -1.5389
 1046TIP3   OH2 3143   4.158   5.333   3.564  0.0073  0.5767 -0.2137
 1046TIP3    H1 3144   4.238   5.281   3.571  0.3229  1.1732  0.7074
 1046TIP3    H2 3145   4.113   5.317   3.647 -1.5568 -0.8979 -1.2644
 1047TIP3   OH2 3146   0.879   3.552   2.583 -0.1926  0.7955  0.3234
 1047TIP3    H1 3147   0.822   3.595   2.646  0.0851 -0.1396  1.2459
 1047TIP3    H2 3148   0.964   3.595   2.595 -0.4929  1.6555 -0.5047
 1048TIP3   OH2 3149   4.737   1.933   1.179 -0.1252 -0.5823  0.3225
 1048TIP3    H1 3150   4.646   1.915   1.155 -0.8034  1.4869  1.0873
 1048TIP3    H2 3151   4.764   1.856   1.230 -1.5821 -1.0544  0.4350
 1049TIP3   OH2 3152   4.850   0.597   4.172  0.4933 -0.3854  0.2873
 1049TIP3    H1 3153   4.783   0.587   4.240  0.4198  1.7436  0.5958
 1049TIP3    H2 3154   4.922   0.644   4.215  1.6002 -1.3675 -0.4229
 1050TIP3   OH2 3155   2.763   0.533   3.532  0.3897  0.2292 -0.4204
 1050TIP3    H1 3156   2.782   0.443   3.506 -1.8760 -0.9070  1.4194
 1050TIP3    H2 3157   2.764   0.531   3.628 -0.6552  1.9098 -0.3263
 1051TIP3   OH2 3158   2.690   5.310   2.470 -0.0592 -0.5424 -0.1958
 1051TIP3    H1 3159   2.769   5.273   2.432  1.1372  0.3690  1.3106
 1051TIP3    H2 3160   2.689   5.278   2.560  0.4392  2.1214  0.8314
 1052TIP3   OH2 3161   1.087  -0.027   1.398  0.0808 -0.4749 -0.0065
 1052TIP3    H1 3162   1.157   0.017   1.445 -0.6813 -1.8327  2.5595
 1052TIP3    H2 3163   1.016   0.037   1.393  0.4436 -0.0744  0.0035
 1053TIP3   OH2 3164   5.287   1.591   4.185 -0.2916 -0.0040 -0.0688
 1053TIP3    H1 3165   5.215   1.581   4.247  0.4401  0.5906  0.9101
 1053TIP3    H2 3166   5.278   1.680   4.152 -0.3354 -0.1237 -0.3837
 1054TIP3   OH2 3167   3.555   5.896   2.754 -0.7537 -0.5052  0.0908
 1054TIP3    H1 3168   3.644   5.889   2.719 -0.7261 -0.1893  0.0956
 1054TIP3    H2 3169   3.521   5.807   2.749 -0.0892 -0.8347  1.0180
 1055TIP3   OH2 3170   2.509   3.647   4.317  0.0415 -0.4290 -0.3741
 1055TIP3    H1 3171   2.468   3.561   4.327  0.1743 -0.4139  0.2921
 1055TIP3    H2 3172   2.516   3.681   4.406  1.1647 -0.2668 -0.5147
 1056TIP3   OH2 3173   5.700   5.197   1.171  0.4385  0.1259 -0.3203
 1056TIP3    H1 3174   5.683   5.116   1.123  0.2121 -0.5790  0.8865
 1056TIP3    H2 3175   5.748   5.168   1.249  0.0969  1.1147  0.2742
 1057TIP3   OH2 3176   0.824   3.242   2.864 -0.2760 -0.4043  0.2385
 1057TIP3    H1 3177   0.731   3.244   2.886 -0.0982 -2.2200  1.2819
 1057TIP3    H2 3178   0.865   3.299   2.930 -0.6624  0.8297 -0.5429
 1058TIP3   OH2 3179   2.035   1.826   3.741  0.2747 -0.4174  0.3423
 1058TIP3    H1 3180   2.121   1.789   3.719  0.1113 -0.9422  0.5807
 1058TIP3    H2 3181   2.043   1.919   3.718  0.4379 -0.7369 -1.0063
 1059TIP3   OH2 3182   5.985   1.195   2.743 -0.6743 -0.3342  0.1485
 1059TIP3    H1 3183   5.965   1.179   2.651  0.4647 -0.9019 -0.0229
 1059TIP3    H2 3184   6.038   1.274   2.742  0.6369 -1.1768  0.1266
 1060TIP3   OH2 3185   1.065   2.366   1.954 -0.1451 -0.0125  0.3898
 1060TIP3    H1 3186   1.066   2.276   1.922 -0.3224 -0.0611  0.5172
 1060TIP3    H2 3187   1.156   2.384   1.981 -0.1028 -0.1387  0.3284
 1061TIP3   OH2 3188   6.094   5.086   3.750 -0.9056 -0.3460  0.1668
 1061TIP3    H1 3189   6.076   5.084   3.656 -0.3216 -1.0991  0.0655
 1061TIP3    H2 3190   6.189   5.083   3.757 -0.9599 -1.6778  0.7920
 1062TIP3   OH2 3191   6.006   5.581   4.968 -0.0551  0.1712  0.2352
 1062TIP3    H1 3192   6.025   5.671   4.941  0.3887 -0.4686 -1.7055
 1062TIP3    H2 3193   6.065   5.527   4.917 -1.5715 -1.3611 -0.0077
 1063TIP3   OH2 3194   5.825   5.597   3.619 -0.1297 -0.1928  0.2918
 1063TIP3    H1 3195   5.913   5.591   3.656  0.0040  1.1995  0.2690
 1063TIP3    H2 3196   5.767   5.607   3.694 -0.2020 -0.5549  0.2822
 1064TIP3   OH2 3197   3.610   5.555   4.622 -0.0618 -0.3917  0.3289
 1064TIP3    H1 3198   3.583   5.647   4.612 -1.1964 -0.6245  1.0022
 1064TIP3    H2 3199   3.552   5.507   4.564  0.6658 -0.6726 -0.1706
 1065TIP3   OH2 3200   3.318   1.579   4.224  0.0927 -0.1811 -0.0779
 1065TIP3    H1 3201   3.247   1.515   4.229  1.1037 -1.4787 -1.3644
 1065TIP3    H2 3202   3.297   1.633   4.149  1.7678 -2.3883 -2.3199
 1066TIP3   OH2 3203   0.995   2.821   0.039  0.1887 -0.0694 -0.1679
 1066TIP3    H1 3204   1.070   2.880   0.029  0.1405  0.1264  0.5625
 1066TIP3    H2 3205   0.920   2.879   0.054 -0.2167 -0.2375 -1.4309
 1067TIP3   OH2 3206   1.862   2.582   0.360 -0.4625 -0.1393 -0.2185
 1067TIP3    H1 3207   1.832   2.584   0.451  1.6204 -0.3126  0.5364
 1067TIP3    H2 3208   1.941   2.636   0.360  0.5120 -1.4854 -1.5479
 1068TIP3   OH2 3209   3.389   1.757   3.706  0.2393 -0.1467 -0.0539
 1068TIP3    H1 3210   3.420   1.744   3.796  0.5952 -1.7184 -0.3838
 1068TIP3    H2 3211   3.451   1.819   3.669  0.6978 -0.2763  0.4753
 1069TIP3   OH2 3212   2.606   5.706   2.923 -0.5303 -0.1231  0.3824
 1069TIP3    H1 3213   2.662   5.784   2.923 -0.2585 -0.2970 -0.5800
 1069TIP3    H2 3214   2.524   5.735   2.962 -0.9500  1.0646 -1.2570
 1070TIP3   OH2 3215   4.743   0.396   4.006  0.1860 -0.0377  0.3641
 1070TIP3    H1 3216   4.758   0.477   4.055 -0.9540  0.1803  0.3851
 1070TIP3    H2 3217   4.799   0.405   3.928 -0.4104  1.0879  0.0347
 1071TIP3   OH2 3218   3.699   2.619   1.565  0.2562 -0.2627  0.1840
 1071TIP3    H1 3219   3.778   2.567   1.547 -1.7234 -2.6442 -2.3944
 1071TIP3    H2 3220   3.650   2.568   1.629  0.8769  1.4468  2.1583
 1072TIP3   OH2 3221   1.427   4.704   4.291  0.4503 -0.2000 -0.2761
 1072TIP3    H1 3222   1.514   4.729   4.321  0.7620 -0.7591 -0.6821
 1072TIP3    H2 3223   1.431   4.609   4.281 -0.3286 -0.2811  0.0713
 1073TIP3   OH2 3224   2.893   2.459   2.604 -0.2298 -0.3230 -0.2264
 1073TIP3    H1 3225   2.831   2.414   2.547 -0.4304 -0.5065  0.1292
 1073TIP3    H2 3226   2.841   2.484   2.681 -0.1431  0.5860 -0.4489
 1074TIP3   OH2 3227   2.251   4.335   5.156 -0.4211  0.5600 -0.2036
 1074TIP3    H1 3228   2.219   4.245   5.164  0.7885  0.1371  0.0279
 1074TIP3    H2 3229   2.215   4.380   5.232  1.2852 -0.4611  1.2980
 1075TIP3   OH2 3230   5.729   0.542   4.493 -0.2600 -0.0568  0.4000
 1075TIP3    H1 3231   5.702   0.548   4.401  0.1093  0.7679  0.3441
 1075TIP3    H2 3232   5.820   0.513   4.489 -1.0070 -2.7537  0.5877
 1076TIP3   OH2 3233   6.006   3.685   4.943  0.2375  0.0638  0.6031
 1076TIP3    H1 3234   5.961   3.769   4.959  0.9834  0.3562  1.2371
 1076TIP3    H2 3235   6.003   3.674   4.848 -0.2141  0.6163  0.5470
 1077TIP3   OH2 3236   1.671   0.293   0.181 -0.6565  0.4979 -0.1983
 1077TIP3    H1 3237   1.702   0.250   0.102 -1.9161  0.2255 -0.5705
 1077TIP3    H2 3238   1.575   0.286   0.176 -0.7657  0.4711  1.3420
 1078TIP3   OH2 3239   5.770   4.294   1.285  0.6541  0.4551  0.3693
 1078TIP3    H1 3240   5.846   4.310   1.341  1.9110  0.2443 -1.2180
 1078TIP3    H2 3241   5.806   4.272   1.199 -1.2006  2.4946 -1.0537
 1079TIP3   OH2 3242   1.652   4.645   3.732  0.0390  0.3414  0.1412
 1079TIP3    H1 3243   1.598   4.643   3.811  0.9968  0.4670  0.8140
 1079TIP3    H2 3244   1.647   4.557   3.697  0.5048 -0.0361  0.9825
 1080TIP3   OH2 3245   0.498   3.598   1.886 -0.4977  0.0329 -0.0180
 1080TIP3    H1 3246   0.574   3.635   1.842 -0.4200 -1.0488 -0.8249
 1080TIP3    H2 3247   0.423   3.632   1.837 -0.5579  0.9714  0.6812
 1081TIP3   OH2 3248   4.880   1.692   0.331  0.8327  0.0001  0.0136
 1081TIP3    H1 3249   4.933   1.614   0.347  0.7968 -0.3153 -1.3044
 1081TIP3    H2 3250   4.942   1.765   0.334  0.8158 -0.0030  1.5848
 1082TIP3   OH2 3251   3.348   2.663   3.152 -0.0864  0.1116  0.6075
 1082TIP3    H1 3252   3.301   2.723   3.210  0.2059 -1.1369  2.2152
 1082TIP3    H2 3253   3.343   2.578   3.197  0.1544 -0.9141 -1.2185
 1083TIP3   OH2 3254   4.509   4.151   2.313  0.3877  0.1313 -0.0199
 1083TIP3    H1 3255   4.498   4.079   2.251 -0.6999 -0.1599  0.4860
 1083TIP3    H2 3256   4.500   4.230   2.259  1.7677 -0.0791 -0.6076
 1084TIP3   OH2 3257   4.645   4.757   2.460 -0.5606  0.4159  1.0206
 1084TIP3    H1 3258   4.601   4.675   2.483  2.7698 -1.8393  0.0903
 1084TIP3    H2 3259   4.727   4.755   2.509  0.4100  2.3436 -0.3640
 1085TIP3   OH2 3260   2.534   0.051   3.531  0.3697  0.7377 -0.5815
 1085TIP3    H1 3261   2.614   0.010   3.499 -0.0597 -0.9704  0.4315
 1085TIP3    H2 3262   2.560   0.096   3.611  0.1803 -0.5805  0.2493
 1086TIP3   OH2 3263   0.230   0.622   1.446 -0.0025 -0.1442  0.2127
 1086TIP3    H1 3264   0.259   0.532   1.430  2.8636  0.4234  1.5751
 1086TIP3    H2 3265   0.191   0.620   1.533 -1.3053 -0.3042 -0.3536
 1087TIP3   OH2 3266   5.424   3.294   0.869 -0.2227 -0.4932  0.0762
 1087TIP3    H1 3267   5.369   3.325   0.941 -0.4357  0.5791 -0.5291
 1087TIP3    H2 3268   5.364   3.279   0.797  0.0351 -1.2479  0.0077
 1088TIP3   OH2 3269   3.018   0.388   3.676 -0.5635 -0.0888 -0.2417
 1088TIP3    H1 3270   2.925   0.388   3.695 -0.4433 -1.3559  0.4578
 1088TIP3    H2 3271   3.027   0.331   3.599 -0.4120  0.4502 -0.6320
 1089TIP3   OH2 3272   3.180   4.192   1.489 -0.0603  0.2662  0.3615
 1089TIP3    H1 3273   3.111   4.218   1.428  0.0082  2.4222  1.1183
 1089TIP3    H2 3274   3.147   4.217   1.575  2.2391  2.9332  0.6111
 1090TIP3   OH2 3275   4.750   4.830   4.966 -0.2449 -0.0520 -0.6731
 1090TIP3    H1 3276   4.696   4.903   4.995 -1.0789  0.2511 -2.8346
 1090TIP3    H2 3277   4.836   4.848   5.003 -1.2664  0.0491  1.8992
 1091TIP3   OH2 3278   5.752   0.727   0.500  0.0011 -0.2101 -0.2520
 1091TIP3    H1 3279   5.706   0.675   0.566 -0.2270  0.9143  0.5126
 1091TIP3    H2 3280   5.827   0.764   0.548 -0.2871  0.7926 -0.5473
 1092TIP3   OH2 3281   1.835   1.297   5.048 -0.2466  0.2347 -0.4676
 1092TIP3    H1 3282   1.906   1.267   5.105 -1.4547 -0.3110  0.8139
 1092TIP3    H2 3283   1.782   1.219   5.031 -0.4840  0.6032 -1.5099
 1093TIP3   OH2 3284   4.077   5.610   4.117 -0.0276  0.0537  0.0833
 1093TIP3    H1 3285   4.103   5.678   4.179 -1.8255  0.1701  0.7862
 1093TIP3    H2 3286   3.998   5.572   4.155 -0.6151 -0.5656 -1.6461
 1094TIP3   OH2 3287   1.854   4.418   1.385 -0.0929  0.2679 -0.2044
 1094TIP3    H1 3288   1.896   4.334   1.371  1.8294  0.9581  1.1091
 1094TIP3    H2 3289   1.795   4.428   1.309 -0.1883 -2.0896 -0.5212
 1095TIP3   OH2 3290   5.371   3.199   3.266 -0.4710 -0.1231 -0.6468
 1095TIP3    H1 3291   5.359   3.110   3.231  1.9006 -0.2890 -1.2406
 1095TIP3    H2 3292   5.285   3.223   3.301 -1.0383 -2.9258  0.1715
 1096TIP3   OH2 3293   1.896   0.555   0.462 -0.0979 -0.2996  0.1366
 1096TIP3    H1 3294   1.984   0.580   0.432  0.1715 -1.2813  0.0592
 1096TIP3    H2 3295   1.849   0.534   0.381 -0.3004 -0.0716  0.1981
 1097TIP3   OH2 3296   5.577   0.452   3.896  0.2485  0.2432 -0.3584
 1097TIP3    H1 3297   5.614   0.455   3.808 -0.4759  0.0312 -0.6771
 1097TIP3    H2 3298   5.487   0.482   3.885  0.9231  2.9806  0.7583
 1098TIP3   OH2 3299   3.753   4.499   2.258 -0.1918  0.7589 -0.0420
 1098TIP3    H1 3300   3.778   4.568   2.320 -1.1315  0.1104  1.0970
 1098TIP3    H2 3301   3.813   4.427   2.277  1.3951  1.5180 -1.8456
 1099TIP3   OH2 3302   5.283   3.757   4.201 -0.0793  0.3524 -0.3109
 1099TIP3    H1 3303   5.264   3.766   4.108  0.9395  0.5531 -0.5187
 1099TIP3    H2 3304   5.217   3.697   4.234 -0.5223  0.3779 -1.1401
 1100TIP3   OH2 3305   2.174   3.159   1.127 -0.4902  0.1781 -0.1633
 1100TIP3    H1 3306   2.193   3.068   1.106 -1.0883 -0.2039  0.8866
 1100TIP3    H2 3307   2.104   3.155   1.191  0.4016  1.3210  0.9470
 1101TIP3   OH2 3308   4.373   5.682   3.392  0.1072 -0.2159  0.5005
 1101TIP3    H1 3309   4.293   5.663   3.441 -1.2401  1.2273 -1.0070
 1101TIP3    H2 3310   4.392   5.774   3.412 -0.5700  0.4725 -1.6909
 1102TIP3   OH2 3311   3.160   0.304   2.313 -0.0669  0.4256 -0.0201
 1102TIP3    H1 3312   3.203   0.222   2.338  0.2775 -0.1576 -2.2893
 1102TIP3    H2 3313   3.125   0.287   2.226 -0.2658  2.6006 -0.4252
 1103TIP3   OH2 3314   4.265   1.765   1.104  0.3087 -0.1449  0.8176
 1103TIP3    H1 3315   4.225   1.682   1.128  0.6882  0.0707  2.3379
 1103TIP3    H2 3316   4.192   1.822   1.083  0.0638 -0.9541 -0.6054
 1104TIP3   OH2 3317   2.657   0.319   1.001  1.0325 -0.4139 -0.6292
 1104TIP3    H1 3318   2.633   0.398   1.049  0.2313 -0.2195 -1.3334
 1104TIP3    H2 3319   2.750   0.308   1.018  1.3262  1.1019 -1.1053
 1105TIP3   OH2 3320  -0.005   0.797   3.371  0.0131 -0.0260 -0.6209
 1105TIP3    H1 3321  -0.020   0.847   3.291  0.8318  0.9404 -0.1907
 1105TIP3    H2 3322   0.050   0.724   3.343 -1.1104 -0.6660 -1.2370
 1106TIP3   OH2 3323   0.195   4.622   4.281  0.1447 -0.1635  0.4590
 1106TIP3    H1 3324   0.208   4.576   4.364 -0.7646 -0.5852  0.3757
 1106TIP3    H2 3325   0.200   4.554   4.214 -0.5965 -0.0642  0.2878
 1107TIP3   OH2 3326   3.571   3.782   4.010  0.4730 -0.2218 -0.0272
 1107TIP3    H1 3327   3.504   3.752   4.070 -0.0854  0.3880 -0.3339
 1107TIP3    H2 3328   3.654   3.753   4.049  0.2308  1.2071  1.6833
 1108TIP3   OH2 3329   3.178   1.015   2.243  0.6182 -0.5487  0.0522
 1108TIP3    H1 3330   3.106   1.062   2.202  0.7794  0.6397  1.0684
 1108TIP3    H2 3331   3.251   1.023   2.182  1.3645  2.6419  1.1607
 1109TIP3   OH2 3332   2.027   1.465   1.498 -0.1080  0.1646 -0.2197
 1109TIP3    H1 3333   1.972   1.409   1.553 -0.1179 -0.1919 -0.5873
 1109TIP3    H2 3334   2.097   1.408   1.469 -0.7402  0.0213 -1.5293
 1110TIP3   OH2 3335   0.900   2.477   2.288  0.0433 -0.2602  0.0413
 1110TIP3    H1 3336   0.887   2.403   2.229 -1.7289  2.9058 -4.0201
 1110TIP3    H2 3337   0.813   2.491   2.327 -0.1339  0.7181 -0.6706
 1111TIP3   OH2 3338   4.185   2.993   5.019  0.0640  0.1151  0.3463
 1111TIP3    H1 3339   4.147   2.942   5.091 -0.9800  2.7218  1.8023
 1111TIP3    H2 3340   4.279   2.997   5.039 -0.2661  1.1533  1.9088
 1112TIP3   OH2 3341   1.967   5.109   1.969  0.0132  0.1001 -0.2939
 1112TIP3    H1 3342   1.900   5.126   2.035  0.0662 -0.5461 -0.0645
 1112TIP3    H2 3343   1.970   5.014   1.962  2.8631 -0.0911  1.7992
 1113TIP3   OH2 3344   1.214   4.858   1.148  0.0571 -0.7321 -0.2782
 1113TIP3    H1 3345   1.232   4.780   1.096  1.2074 -0.8402  0.2607
 1113TIP3    H2 3346   1.291   4.913   1.137 -0.8682  0.5015 -0.9140
 1114TIP3   OH2 3347   1.210   5.142   2.895  0.3245 -0.2371 -0.5908
 1114TIP3    H1 3348   1.161   5.223   2.883 -0.9440 -1.0758 -1.2208
 1114TIP3    H2 3349   1.255   5.128   2.812  0.2363 -0.3847 -0.6140
 1115TIP3   OH2 3350   5.914   4.838   1.325  0.5014  0.3536 -0.2426
 1115TIP3    H1 3351   5.935   4.810   1.235 -2.5189  1.7082 -1.5056
 1115TIP3    H2 3352   5.841   4.781   1.351 -0.2007  1.5118  0.3902
 1116TIP3   OH2 3353   5.499   1.529   1.681  0.6232 -0.5065  0.0346
 1116TIP3    H1 3354   5.496   1.440   1.717 -1.0981 -0.3665  0.3167
 1116TIP3    H2 3355   5.581   1.566   1.714  1.5650 -2.1102 -0.4155
 1117TIP3   OH2 3356   4.763   0.010   5.126  0.4503  0.0699 -0.1863
 1117TIP3    H1 3357   4.678   0.045   5.153  0.0755 -1.3560  0.5971
 1117TIP3    H2 3358   4.827   0.057   5.178 -0.0016 -0.0822  0.5164
 1118TIP3   OH2 3359   1.194   3.998   2.924  0.1607  0.2696 -0.3050
 1118TIP3    H1 3360   1.152   3.917   2.952  1.8197  0.6122  3.8860
 1118TIP3    H2 3361   1.123   4.062   2.917 -0.8000 -0.8130 -0.6153
 1119TIP3   OH2 3362   1.203   2.643   2.160 -0.0674  0.2386  0.5391
 1119TIP3    H1 3363   1.192   2.595   2.242  1.0992 -0.2907  0.4091
 1119TIP3    H2 3364   1.125   2.698   2.154 -0.0189  0.5307  2.1623
 1120TIP3   OH2 3365   6.310   3.684   0.124 -0.2628 -0.1145  0.1548
 1120TIP3    H1 3366   6.298   3.758   0.066  0.0386 -1.0701 -1.1695
 1120TIP3    H2 3367   6.399   3.693   0.157  1.4627 -2.0934 -3.3829
 1121TIP3   OH2 3368   4.333   4.543   0.491 -0.2788  0.4440  0.7923
 1121TIP3    H1 3369   4.286   4.625   0.479 -1.1865 -0.1271  0.3368
 1121TIP3    H2 3370   4.404   4.565   0.552 -2.0545  0.9939  2.7878
 1122TIP3   OH2 3371   0.210   2.096   3.812 -0.0923  0.2183 -0.0238
 1122TIP3    H1 3372   0.251   2.183   3.815 -0.4299  0.4639 -1.9259
 1122TIP3    H2 3373   0.284   2.036   3.824  0.0344  0.7242  2.2197
 1123TIP3   OH2 3374   5.110   4.115   4.221  0.1699 -0.1682  0.2121
 1123TIP3    H1 3375   5.196   4.076   4.202 -0.4409 -1.7023  0.4924
 1123TIP3    H2 3376   5.063   4.111   4.138  0.0988 -0.0234  0.2445
 1124TIP3   OH2 3377   5.254   1.244   3.641  0.0586  1.1820 -0.2431
 1124TIP3    H1 3378   5.250   1.183   3.567  0.7287 -0.5718  1.0976
 1124TIP3    H2 3379   5.311   1.315   3.610  1.1553 -0.0156 -1.0861
 1125TIP3   OH2 3380   5.949   5.811   3.915 -0.1855  0.4737 -0.3431
 1125TIP3    H1 3381   6.043   5.806   3.895  0.0930  0.5337  0.8527
 1125TIP3    H2 3382   5.926   5.903   3.900  0.1247  0.6180  0.0308
 1126TIP3   OH2 3383   2.396   0.219   0.975  0.1719  0.1363  0.6566
 1126TIP3    H1 3384   2.480   0.259   0.996  1.3075 -1.3058 -0.8333
 1126TIP3    H2 3385   2.332   0.273   1.020  1.6964  2.7065 -0.0340
 1127TIP3   OH2 3386   1.796   4.952   2.586 -0.0700 -0.2180  0.1714
 1127TIP3    H1 3387   1.825   4.979   2.499  0.8463 -0.8109  0.2834
 1127TIP3    H2 3388   1.731   4.884   2.570 -0.1962 -0.0437 -0.0564
 1128TIP3   OH2 3389   1.326   2.945   4.176  0.7225  0.4104 -0.0136
 1128TIP3    H1 3390   1.357   2.873   4.230 -1.6335 -0.6951  0.0080
 1128TIP3    H2 3391   1.259   2.988   4.230  0.0731  0.8212 -1.1044
 1129TIP3   OH2 3392   6.195   1.405   0.612  0.6399  0.2160 -0.2319
 1129TIP3    H1 3393   6.290   1.409   0.626  0.4679 -1.1219  1.7220
 1129TIP3    H2 3394   6.158   1.446   0.690 -0.3810 -2.9729  1.1213
 1130TIP3   OH2 3395   5.189   2.288   4.355 -0.0168  0.1245  0.6718
 1130TIP3    H1 3396   5.115   2.348   4.361  1.2580  1.7527  0.8545
 1130TIP3    H2 3397   5.185   2.254   4.265 -0.9328  0.2513  0.6608
 1131TIP3   OH2 3398   5.460   3.663   4.518 -0.3649  0.3821 -0.3411
 1131TIP3    H1 3399   5.427   3.726   4.582  1.5835  0.8717  0.2359
 1131TIP3    H2 3400   5.499   3.716   4.449 -2.3005 -0.1445 -1.9367
 1132TIP3   OH2 3401   3.290   4.927   0.397  0.3988 -0.3173 -0.1035
 1132TIP3    H1 3402   3.252   4.841   0.378  0.0695 -0.0441 -0.7036
 1132TIP3    H2 3403   3.358   4.938   0.331 -1.7794  1.3068 -2.2765
 1133TIP3   OH2 3404   6.288   1.745   5.049 -0.2145  0.3674 -0.1929
 1133TIP3    H1 3405   6.383   1.733   5.049 -0.3565 -1.3599 -2.2682
 1133TIP3    H2 3406   6.262   1.730   5.140  1.3292 -0.9983  0.0800
 1134TIP3   OH2 3407   5.442   4.993   3.057  0.8222 -0.3090 -0.1509
 1134TIP3    H1 3408   5.445   5.060   2.989  0.3080  0.8680  0.9369
 1134TIP3    H2 3409   5.533   4.981   3.082  0.8258  1.0292  0.5877
 1135TIP3   OH2 3410   6.306   3.059   1.886  0.2956  0.3805 -0.1371
 1135TIP3    H1 3411   6.394   3.032   1.860  0.1249 -0.3969  0.0485
 1135TIP3    H2 3412   6.278   3.121   1.819  1.0123  0.6851 -0.1570
 1136TIP3   OH2 3413   5.429   4.708   2.488  0.1043 -0.1951 -0.4180
 1136TIP3    H1 3414   5.423   4.648   2.414 -1.9546 -0.4399 -0.1161
 1136TIP3    H2 3415   5.338   4.724   2.513  0.7129  0.6063  1.4733
 1137TIP3   OH2 3416   4.309   3.785   3.084 -0.0641  0.6770 -0.1888
 1137TIP3    H1 3417   4.331   3.692   3.079  2.5860  1.0711  1.8307
 1137TIP3    H2 3418   4.222   3.786   3.124  0.7833 -0.9824  1.9344
 1138TIP3   OH2 3419   3.317   5.547   2.156 -0.1679 -0.6038 -0.2986
 1138TIP3    H1 3420   3.346   5.616   2.216 -0.9125 -0.9846  0.5136
 1138TIP3    H2 3421   3.365   5.564   2.075  0.0168  0.5797  0.0463
 1139TIP3   OH2 3422   3.536   2.948   4.146 -0.0805  0.7359  0.1829
 1139TIP3    H1 3423   3.528   2.961   4.051 -0.8426  1.0132  0.2815
 1139TIP3    H2 3424   3.541   2.853   4.156 -0.9255  0.6568 -0.0713
 1140TIP3   OH2 3425   0.814   0.314   4.521 -0.7779  0.1880  0.2856
 1140TIP3    H1 3426   0.890   0.261   4.500 -0.8703 -0.0301  0.5042
 1140TIP3    H2 3427   0.840   0.403   4.499 -0.1280  0.2478  1.2392
 1141TIP3   OH2 3428   0.913   5.039   2.918 -0.3388 -0.4617 -0.5244
 1141TIP3    H1 3429   0.822   5.057   2.895 -0.3418 -1.0394 -0.9921
 1141TIP3    H2 3430   0.955   5.019   2.834  0.5692  1.2439 -0.5189
 1142TIP3   OH2 3431   0.460   2.195   1.824 -0.1203 -0.4080 -1.0389
 1142TIP3    H1 3432   0.476   2.261   1.891 -2.0802  0.7565 -1.6218
 1142TIP3    H2 3433   0.518   2.219   1.752 -1.0021  0.9050 -1.3476
 1143TIP3   OH2 3434   5.063   1.733   4.762 -0.1069  0.4722  0.2376
 1143TIP3    H1 3435   5.009   1.775   4.828 -0.2076 -0.4699  0.7663
 1143TIP3    H2 3436   5.039   1.777   4.680  0.5001  2.0972  0.9042
 1144TIP3   OH2 3437   0.391   4.377   0.033 -0.3031  0.2879 -0.2777
 1144TIP3    H1 3438   0.316   4.322   0.011  0.0970 -0.8796  1.1185
 1144TIP3    H2 3439   0.402   4.367   0.127 -0.3975  3.0723  0.1215
 1145TIP3   OH2 3440   1.337   1.045   5.032 -0.2935 -0.5699 -0.0869
 1145TIP3    H1 3441   1.263   1.106   5.038  0.3307  0.2774 -0.6395
 1145TIP3    H2 3442   1.374   1.043   5.120 -0.8365 -0.8414  0.1442
 1146TIP3   OH2 3443   4.118   2.953   4.742 -0.5203  0.1565 -0.1237
 1146TIP3    H1 3444   4.025   2.937   4.730 -0.7366 -1.1736  2.5436
 1146TIP3    H2 3445   4.131   2.950   4.837  1.8907  2.5162 -0.2466
 1147TIP3   OH2 3446   1.219   3.457   0.084  0.2272 -0.2074  0.1490
 1147TIP3    H1 3447   1.247   3.461  -0.008 -2.8152  2.4952 -0.8269
 1147TIP3    H2 3448   1.295   3.489   0.133  1.6321 -0.9097 -1.4624
 1148TIP3   OH2 3449   5.316   5.866   3.576 -0.0195 -0.5236  0.0140
 1148TIP3    H1 3450   5.282   5.939   3.523 -1.0922 -0.3032  0.9568
 1148TIP3    H2 3451   5.404   5.852   3.543  0.0595  0.9218 -0.4949
 1149TIP3   OH2 3452   2.423   1.540   0.607 -0.6120 -0.5508  0.4110
 1149TIP3    H1 3453   2.388   1.476   0.545  0.6242 -0.2782 -0.6187
 1149TIP3    H2 3454   2.351   1.556   0.668 -1.4629 -1.7436 -0.2279
 1150TIP3   OH2 3455   3.157   2.110   0.487  0.4969 -0.0359 -0.4119
 1150TIP3    H1 3456   3.210   2.070   0.418 -0.5710  1.0502 -1.9286
 1150TIP3    H2 3457   3.068   2.111   0.453  0.1667  1.8603  0.3345
 1151TIP3   OH2 3458   0.743   2.345   3.340  0.2557  0.4248 -0.0005
 1151TIP3    H1 3459   0.680   2.410   3.370  0.6985  0.1781  1.5178
 1151TIP3    H2 3460   0.826   2.371   3.380  1.0709  0.5156 -1.6473
 1152TIP3   OH2 3461   3.411   4.608   3.790 -0.2176  0.1136 -0.3585
 1152TIP3    H1 3462   3.330   4.652   3.816  0.4257  0.1998  1.6591
 1152TIP3    H2 3463   3.432   4.645   3.704 -0.1641  3.1312  0.8474
 1153TIP3   OH2 3464   5.532   1.147   4.093 -0.6532  0.2927 -0.2654
 1153TIP3    H1 3465   5.515   1.229   4.140  2.1175  0.5982  0.3617
 1153TIP3    H2 3466   5.542   1.174   4.001  0.3299  0.6801 -0.0496
 1154TIP3   OH2 3467   2.731   3.142   5.103 -0.2242  0.2712 -0.0994
 1154TIP3    H1 3468   2.767   3.223   5.139  0.0077  0.1818 -0.1275
 1154TIP3    H2 3469   2.684   3.102   5.177  2.1281 -1.0334  0.8175
 1155TIP3   OH2 3470   4.290   5.443   0.180 -0.2968  0.3640  0.4394
 1155TIP3    H1 3471   4.200   5.467   0.156 -0.0497  1.3686  0.5159
 1155TIP3    H2 3472   4.302   5.479   0.267  0.5783  1.2950 -0.0410
 1156TIP3   OH2 3473   3.678   0.654   3.257 -0.5402  0.4830  0.4507
 1156TIP3    H1 3474   3.619   0.584   3.286  0.2618  0.4334  2.0581
 1156TIP3    H2 3475   3.620   0.728   3.239 -1.1393  0.3256  1.6636
 1157TIP3   OH2 3476   0.903   4.472   0.682  0.0504 -0.7831  0.1066
 1157TIP3    H1 3477   0.957   4.551   0.687 -0.8731 -0.0991 -0.4165
 1157TIP3    H2 3478   0.883   4.451   0.773  1.1624 -1.0327  0.3051
 1158TIP3   OH2 3479   1.194   0.860   0.797 -0.6527 -0.4966 -0.2314
 1158TIP3    H1 3480   1.110   0.903   0.813  0.5837  1.8368  0.5683
 1158TIP3    H2 3481   1.179   0.807   0.719 -2.9800 -0.5612  0.1824
 1159TIP3   OH2 3482   3.907   2.237   4.916 -0.7986 -0.3715  0.7484
 1159TIP3    H1 3483   3.869   2.283   4.841 -1.1504 -1.5346  0.1938
 1159TIP3    H2 3484   3.831   2.201   4.963 -0.4660 -1.6460  0.3348
 1160TIP3   OH2 3485   4.783   3.303   4.536 -0.6662  0.2151  0.0725
 1160TIP3    H1 3486   4.795   3.396   4.516 -0.5651  0.0485 -0.6911
 1160TIP3    H2 3487   4.688   3.291   4.536 -0.6691  0.1841 -0.5300
 1161TIP3   OH2 3488   5.647   1.599   3.518  0.7453  0.3090  0.1354
 1161TIP3    H1 3489   5.743   1.600   3.509  1.1442  0.5362  3.2460
 1161TIP3    H2 3490   5.627   1.679   3.566 -0.8100 -0.4989  0.9063
 1162TIP3   OH2 3491   3.698   2.237   3.216 -0.0695 -0.1399  0.4334
 1162TIP3    H1 3492   3.659   2.152   3.238  0.9607 -0.6034  0.5687
 1162TIP3    H2 3493   3.778   2.240   3.269  0.6817  0.2388 -0.6901
 1163TIP3   OH2 3494   3.467   4.600   2.325  0.1885  0.3766 -0.2308
 1163TIP3    H1 3495   3.526   4.573   2.255 -0.2977  1.7437 -1.1977
 1163TIP3    H2 3496   3.513   4.577   2.406  0.5937 -1.5596 -0.9768
 1164TIP3   OH2 3497   1.919   2.145   1.385 -0.5514  0.1193  0.0927
 1164TIP3    H1 3498   1.894   2.227   1.427 -1.3869  1.2354 -2.4351
 1164TIP3    H2 3499   2.002   2.164   1.341  1.1076 -1.4589  2.2518
 1165TIP3   OH2 3500   4.424   0.533   0.683  0.0775  0.0101  0.1302
 1165TIP3    H1 3501   4.385   0.619   0.700  2.1308  0.8244  0.9897
 1165TIP3    H2 3502   4.471   0.512   0.764 -0.2870 -1.9034 -0.1038
 1166TIP3   OH2 3503   6.112   3.914   3.317 -0.0372  0.4517  0.0447
 1166TIP3    H1 3504   6.114   3.977   3.389 -1.8033  0.0348  0.4956
 1166TIP3    H2 3505   6.203   3.883   3.310  0.5493  1.9072  0.8013
 1167TIP3   OH2 3506   5.668   2.820   4.584  0.1759  0.0967 -0.1314
 1167TIP3    H1 3507   5.723   2.745   4.559 -1.9204 -1.6326  0.1184
 1167TIP3    H2 3508   5.657   2.811   4.678 -1.0041  0.0174 -0.2578
 1168TIP3   OH2 3509   3.377   3.587   3.017 -0.3117 -0.7263  0.2852
 1168TIP3    H1 3510   3.311   3.653   3.040 -0.8147 -0.6305 -1.3472
 1168TIP3    H2 3511   3.453   3.638   2.990 -0.1107 -0.8389  0.6235
 1169TIP3   OH2 3512   5.856   0.102   4.231  0.1215  0.0544  0.3645
 1169TIP3    H1 3513   5.821   0.188   4.208  0.5685  0.1009 -0.1569
 1169TIP3    H2 3514   5.931   0.121   4.287 -0.1049 -0.0134  0.6905
 1170TIP3   OH2 3515   0.833   3.295   4.077 -0.3497  0.0464  0.1517
 1170TIP3    H1 3516   0.864   3.211   4.111  0.0446  0.6171  1.2389
 1170TIP3    H2 3517   0.804   3.343   4.154 -1.6416  0.4859 -0.5834
 1171TIP3   OH2 3518   2.819   0.035   0.325  0.1392 -0.6954 -0.1489
 1171TIP3    H1 3519   2.875   0.112   0.313  0.4072 -0.7380  0.7397
 1171TIP3    H2 3520   2.732   0.070   0.339 -0.0125 -0.6156 -1.1835
 1172TIP3   OH2 3521   3.863   1.801   1.597  0.9359 -0.0723  0.7566
 1172TIP3    H1 3522   3.935   1.751   1.557 -0.9508 -2.8489  0.5627
 1172TIP3    H2 3523   3.799   1.811   1.526 -0.5572 -1.1787  1.8984
 1173TIP3   OH2 3524   0.513   5.222   0.533 -0.2306 -0.5938  0.5167
 1173TIP3    H1 3525   0.583   5.161   0.507  1.0926  0.1095  2.2478
 1173TIP3    H2 3526   0.481   5.187   0.615 -1.6190 -0.6293 -0.0213
 1174TIP3   OH2 3527   1.104   5.691   1.842 -0.2446 -0.8355 -0.3654
 1174TIP3    H1 3528   1.113   5.657   1.931  1.1062 -1.0732 -0.5640
 1174TIP3    H2 3529   1.064   5.777   1.853  1.7245  0.0163  0.6759
 1175TIP3   OH2 3530   0.794   5.381   1.139  0.0529 -0.4029 -0.5411
 1175TIP3    H1 3531   0.845   5.304   1.114  2.9413  0.7284  1.3071
 1175TIP3    H2 3532   0.811   5.445   1.071 -1.4326 -0.9616 -1.4845
 1176TIP3   OH2 3533   1.001   0.038   3.375 -0.1292  0.5055  0.4687
 1176TIP3    H1 3534   1.021   0.035   3.281 -0.4806 -0.2816  0.4091
 1176TIP3    H2 3535   0.956   0.122   3.387 -1.7829 -0.1891 -0.4358
 1177TIP3   OH2 3536   2.621   0.451   2.310 -0.2610  0.7159 -0.1626
 1177TIP3    H1 3537   2.708   0.489   2.294  1.1238 -1.5262  1.3730
 1177TIP3    H2 3538   2.636   0.385   2.377 -2.8023 -1.2468 -1.3335
 1178TIP3   OH2 3539   4.714   1.884   4.534  0.4083 -0.0535 -0.2061
 1178TIP3    H1 3540   4.648   1.912   4.471  0.5209 -1.4860 -1.0123
 1178TIP3    H2 3541   4.681   1.917   4.618 -0.9009  0.0028 -0.7064
 1179TIP3   OH2 3542   4.507   4.751   4.360 -0.4927  0.3119 -0.0825
 1179TIP3    H1 3543   4.531   4.802   4.283  0.8069  1.1125  0.8035
 1179TIP3    H2 3544   4.435   4.799   4.399  0.1984  1.0625  0.3041
 1180TIP3   OH2 3545   3.214   4.433   1.908 -0.8232  0.0235 -0.1378
 1180TIP3    H1 3546   3.178   4.419   1.821  1.3028  1.2007 -1.2849
 1180TIP3    H2 3547   3.241   4.346   1.938 -2.4893 -0.5396 -0.1663
 1181TIP3   OH2 3548   5.611   5.418   2.833 -0.3398  0.3698 -0.2904
 1181TIP3    H1 3549   5.620   5.366   2.753 -2.4153 -0.1952 -0.2250
 1181TIP3    H2 3550   5.566   5.497   2.806 -0.0812  0.6770  0.1552
 1182TIP3   OH2 3551   2.237   5.899   2.084  0.0631 -0.7042  0.4118
 1182TIP3    H1 3552   2.329   5.918   2.106  1.0886 -0.2686 -3.4917
 1182TIP3    H2 3553   2.188   5.934   2.158  2.9186  1.2800  1.5934
 1183TIP3   OH2 3554   1.655   5.556   0.199 -0.0587  0.4826  0.9188
 1183TIP3    H1 3555   1.668   5.473   0.155  2.5181  1.6524 -0.7619
 1183TIP3    H2 3556   1.700   5.547   0.283  1.0671  0.4402  0.3323
 1184TIP3   OH2 3557   3.124   2.153   0.169  0.0867 -0.0538  0.0409
 1184TIP3    H1 3558   3.064   2.199   0.228  0.8804 -2.0434  2.5582
 1184TIP3    H2 3559   3.068   2.098   0.115 -0.5596  0.5898  0.0479
 1185TIP3   OH2 3560   0.495   5.277   1.866  0.0421 -0.4522  0.2381
 1185TIP3    H1 3561   0.585   5.299   1.893 -0.3217  1.2671  0.1461
 1185TIP3    H2 3562   0.506   5.206   1.803  1.5747  1.2833 -1.6016
 1186TIP3   OH2 3563   1.643   3.129   2.885 -0.0930  0.2990  0.2747
 1186TIP3    H1 3564   1.566   3.078   2.910  0.1858 -1.3114 -1.8682
 1186TIP3    H2 3565   1.608   3.204   2.837 -0.3906  0.4497  0.7268
 1187TIP3   OH2 3566   0.086   5.388   4.066 -0.1081  0.4122  0.3603
 1187TIP3    H1 3567   0.074   5.437   4.148  0.9711 -0.4886  1.0909
 1187TIP3    H2 3568   0.178   5.401   4.044 -0.5264  1.1617 -1.0850
 1188TIP3   OH2 3569   1.166   5.331   2.058  0.5879 -0.0533  0.2662
 1188TIP3    H1 3570   1.103   5.402   2.067  0.0324 -0.7842  2.6774
 1188TIP3    H2 3571   1.224   5.360   1.987 -0.5875  2.0357  0.0826
 1189TIP3   OH2 3572   0.109   2.239   0.322  0.2852 -0.1578  0.0154
 1189TIP3    H1 3573   0.169   2.179   0.366  1.0197  0.5652  0.0275
 1189TIP3    H2 3574   0.061   2.282   0.392  0.2540 -0.2278  0.0367
 1190TIP3   OH2 3575   0.708   2.827   3.388 -0.0238 -0.2031 -0.2700
 1190TIP3    H1 3576   0.660   2.760   3.436  0.7236  0.1890  1.0985
 1190TIP3    H2 3577   0.671   2.910   3.418 -0.3663  0.0243 -1.3027
 1191TIP3   OH2 3578   3.468   2.172   0.325 -0.2466 -0.0105  1.0918
 1191TIP3    H1 3579   3.491   2.135   0.410 -0.3793  0.9070  1.5376
 1191TIP3    H2 3580   3.404   2.240   0.345 -2.0038 -1.2619  0.0586
 1192TIP3   OH2 3581   2.743   5.779   1.357 -0.3182  0.1138  0.4571
 1192TIP3    H1 3582   2.739   5.782   1.453  2.4430 -0.8332  0.6871
 1192TIP3    H2 3583   2.812   5.841   1.334 -2.7434  2.3720 -1.2174
 1193TIP3   OH2 3584   1.829   1.458   3.840 -0.3710 -0.2518 -0.1347
 1193TIP3    H1 3585   1.742   1.426   3.864 -0.8813 -0.0435 -1.6194
 1193TIP3    H2 3586   1.843   1.534   3.896  0.2734 -2.1141  2.4488
 1194TIP3   OH2 3587   2.311   2.393   0.289  0.2696 -0.9515  0.1041
 1194TIP3    H1 3588   2.300   2.310   0.335  1.6446 -1.1042  0.2153
 1194TIP3    H2 3589   2.288   2.459   0.355  0.1731 -1.2270  0.3503
 1195TIP3   OH2 3590   1.336   4.814   2.868 -1.0689  0.0959  0.5859
 1195TIP3    H1 3591   1.418   4.858   2.891 -1.6104  0.7959  1.2515
 1195TIP3    H2 3592   1.348   4.787   2.777  0.6536 -1.5905  1.2474
 1196TIP3   OH2 3593   5.169   1.098   0.714 -0.0803 -0.3998  0.3903
 1196TIP3    H1 3594   5.189   1.067   0.625  1.1705 -0.3487  0.6375
 1196TIP3    H2 3595   5.102   1.165   0.701  1.5305  1.1080 -0.7674
 1197TIP3   OH2 3596   2.334   1.087   2.752 -0.0097 -0.1882  0.3033
 1197TIP3    H1 3597   2.248   1.048   2.736 -0.6968  1.0707  0.8449
 1197TIP3    H2 3598   2.395   1.014   2.739 -1.1438 -1.1130 -0.0606
 1198TIP3   OH2 3599   1.012   1.548   1.745  0.0799 -0.2818 -0.5470
 1198TIP3    H1 3600   0.966   1.628   1.771 -0.3439 -0.8688  0.5506
 1198TIP3    H2 3601   1.068   1.526   1.819  2.0623  0.2994 -1.7737
 1199TIP3   OH2 3602   0.853   5.676   5.004 -0.3571 -0.5219  0.0093
 1199TIP3    H1 3603   0.877   5.689   5.096  0.4336  0.0056 -0.2587
 1199TIP3    H2 3604   0.764   5.711   4.998 -0.1301  0.1546  0.4146
 1200TIP3   OH2 3605   0.414   5.634   3.048  0.2884 -0.2903  0.2211
 1200TIP3    H1 3606   0.490   5.577   3.056 -0.2945 -1.0071  0.7397
 1200TIP3    H2 3607   0.413   5.659   2.955 -0.1108 -2.0813 -0.2927
 1201TIP3   OH2 3608   2.097   0.764   1.724 -0.0239  0.3739 -0.1233
 1201TIP3    H1 3609   2.082   0.836   1.663  2.9812  1.0880 -0.1570
 1201TIP3    H2 3610   2.146   0.804   1.796  0.0407 -1.2874  0.8059
 1202TIP3   OH2 3611   1.527   5.600   0.656  0.6113 -0.0764 -0.1846
 1202TIP3    H1 3612   1.465   5.602   0.729 -0.3478 -1.8531 -0.8711
 1202TIP3    H2 3613   1.482   5.647   0.586  0.0593 -1.2125 -0.6264
 1203TIP3   OH2 3614   1.870   2.189   2.548 -0.2824 -0.1011  0.0356
 1203TIP3    H1 3615   1.792   2.226   2.505  0.1012  0.0996 -0.4891
 1203TIP3    H2 3616   1.937   2.189   2.480  0.6800  1.3163  0.9242
 1204TIP3   OH2 3617   6.187   4.736   2.387  0.1475 -0.5905 -0.5815
 1204TIP3    H1 3618   6.139   4.767   2.464 -0.1279 -0.8908 -0.6314
 1204TIP3    H2 3619   6.266   4.790   2.385 -0.3544  0.1504 -0.7093
 1205TIP3   OH2 3620   3.464   0.946   1.355 -0.3779  0.7783  0.1383
 1205TIP3    H1 3621   3.442   0.950   1.262  1.4464  1.7907 -0.2948
 1205TIP3    H2 3622   3.434   1.029   1.391  0.3386  1.0591  0.1005
 1206TIP3   OH2 3623   2.388   4.755   4.120 -0.1065  0.3626 -0.5347
 1206TIP3    H1 3624   2.408   4.848   4.109 -2.0708  0.7952 -0.8584
 1206TIP3    H2 3625   2.387   4.720   4.030  0.1950  0.1064 -0.4430
 1207TIP3   OH2 3626   1.116   0.812   2.014 -0.0795  0.1558  0.0776
 1207TIP3    H1 3627   1.168   0.732   2.009  0.0786  0.0870  2.0207
 1207TIP3    H2 3628   1.062   0.811   1.934  0.2057 -1.6563 -0.1397
 1208TIP3   OH2 3629   0.360   1.939   4.892  0.3052 -0.4923 -0.1852
 1208TIP3    H1 3630   0.439   1.936   4.945  0.4839  1.4153 -0.2804
 1208TIP3    H2 3631   0.390   1.921   4.803  0.6701  0.4193 -0.2512
 1209TIP3   OH2 3632   4.456   1.190   4.881 -0.6308  0.3215  0.1683
 1209TIP3    H1 3633   4.452   1.185   4.786  0.1645  0.1651  0.1339
 1209TIP3    H2 3634   4.547   1.169   4.902 -1.3801 -2.3952  1.1250
 1210TIP3   OH2 3635   5.918   3.125   1.760  0.0969 -0.4008 -0.0918
 1210TIP3    H1 3636   5.968   3.120   1.678  0.2834  0.2924 -0.0221
 1210TIP3    H2 3637   5.890   3.216   1.765  2.0563  0.1825  1.7725
 1211TIP3   OH2 3638   3.871   1.300   3.128 -0.0313  0.0106 -0.3147
 1211TIP3    H1 3639   3.935   1.235   3.157  1.7770  0.8048 -2.3263
 1211TIP3    H2 3640   3.876   1.370   3.194  0.1731 -0.5371  0.2593
 1212TIP3   OH2 3641   1.874   0.335   4.175  0.2186  0.2166 -0.4383
 1212TIP3    H1 3642   1.834   0.327   4.261 -0.2541 -0.3556 -0.7064
 1212TIP3    H2 3643   1.939   0.265   4.171  0.0882  0.1044 -0.6261
 1213TIP3   OH2 3644   0.856   4.215   4.323  0.1381  0.1244 -0.2504
 1213TIP3    H1 3645   0.946   4.184   4.335  0.2291  0.7341  0.8574
 1213TIP3    H2 3646   0.864   4.287   4.260  0.1709 -0.9300 -1.4676
 1214TIP3   OH2 3647   5.016   3.515   1.959 -0.1079  0.4192  0.3447
 1214TIP3    H1 3648   4.965   3.509   2.041 -0.0319  0.2811  0.3823
 1214TIP3    H2 3649   5.006   3.606   1.932  1.1282  0.8675  1.3201
 1215TIP3   OH2 3650   1.606   5.322   4.157 -0.2431 -0.3165 -0.4911
 1215TIP3    H1 3651   1.687   5.275   4.174  0.2151  0.7373  0.3043
 1215TIP3    H2 3652   1.548   5.256   4.117  2.1109 -0.3098 -4.4443
 1216TIP3   OH2 3653   1.439   2.559   1.131  0.1913 -0.1492  0.2069
 1216TIP3    H1 3654   1.452   2.646   1.093  0.7647  0.3723  1.5095
 1216TIP3    H2 3655   1.504   2.554   1.202 -0.8087 -1.0507  1.1013
 1217TIP3   OH2 3656   0.341   1.237   4.801  0.3059  0.6802  0.0607
 1217TIP3    H1 3657   0.404   1.197   4.861 -0.0143 -0.5222 -0.3656
 1217TIP3    H2 3658   0.393   1.261   4.724  0.2388 -0.4874 -0.3712
 1218TIP3   OH2 3659   5.642   4.360   0.637  0.3611 -0.3061 -0.7502
 1218TIP3    H1 3660   5.709   4.422   0.608  0.2118 -0.2234 -0.9268
 1218TIP3    H2 3661   5.602   4.329   0.555 -0.6551  0.5792 -0.6185
 1219TIP3   OH2 3662   0.091   4.352   2.114 -0.4121 -0.3756 -0.7218
 1219TIP3    H1 3663   0.132   4.338   2.199 -1.5027  1.5698  0.1857
 1219TIP3    H2 3664   0.100   4.268   2.069  2.8679 -0.5890  0.1001
 1220TIP3   OH2 3665   1.168   3.540   2.526  0.0500  0.1104 -0.4642
 1220TIP3    H1 3666   1.232   3.577   2.465 -0.1572 -0.5931 -1.1252
 1220TIP3    H2 3667   1.155   3.450   2.495 -1.9821  0.5329 -0.9517
 1221TIP3   OH2 3668   5.675   3.360   4.237  0.0154 -0.4481  0.0935
 1221TIP3    H1 3669   5.637   3.272   4.228  0.7480 -0.7200 -0.5118
 1221TIP3    H2 3670   5.649   3.389   4.324  1.7137 -2.2473  1.2707
 1222TIP3   OH2 3671   1.154   2.965   2.578 -0.4516 -0.3283  0.3745
 1222TIP3    H1 3672   1.141   2.871   2.590  0.9291 -0.5419  0.4048
 1222TIP3    H2 3673   1.067   3.003   2.585 -0.7660 -1.3266  3.0281
 1223TIP3   OH2 3674   3.516   3.167   4.768  0.6944  0.2186  0.1058
 1223TIP3    H1 3675   3.583   3.235   4.779  0.2663  0.9521 -1.4881
 1223TIP3    H2 3676   3.475   3.188   4.685 -2.1959  0.3807  1.4570
 1224TIP3   OH2 3677   2.866   4.858   0.439  0.3209  0.0671  0.0667
 1224TIP3    H1 3678   2.883   4.871   0.532 -0.5363 -3.4000  0.8691
 1224TIP3    H2 3679   2.951   4.836   0.402  0.3762 -0.3058  0.4119
 1225TIP3   OH2 3680   5.837   1.273   3.625  0.2441 -0.6778 -0.1872
 1225TIP3    H1 3681   5.922   1.315   3.636 -0.2961  0.2808  0.4393
 1225TIP3    H2 3682   5.804   1.306   3.541  0.3847 -0.8663 -0.3171
 1226TIP3   OH2 3683   4.522   5.249   0.460 -0.5724 -0.1963 -0.1311
 1226TIP3    H1 3684   4.519   5.293   0.546  0.2983 -0.6158  0.1241
 1226TIP3    H2 3685   4.614   5.250   0.436 -0.2983 -2.9653  0.4683
 1227TIP3   OH2 3686   5.241   3.827   0.781 -0.1045 -0.1432  0.1268
 1227TIP3    H1 3687   5.321   3.870   0.811  0.1611 -0.8364  0.4463
 1227TIP3    H2 3688   5.219   3.871   0.699  0.8009 -0.1555 -0.1382
 1228TIP3   OH2 3689   3.579   4.537   2.059 -0.1111 -0.1658 -0.1987
 1228TIP3    H1 3690   3.518   4.466   2.075  0.9498 -0.7357  1.5103
 1228TIP3    H2 3691   3.662   4.507   2.095  0.9770  0.9627 -1.6229
 1229TIP3   OH2 3692   6.373   1.234   3.538  0.3248 -0.8777  1.0826
 1229TIP3    H1 3693   6.401   1.147   3.509 -0.0407 -0.4068 -0.8381
 1229TIP3    H2 3694   6.278   1.234   3.525  0.3059 -0.2534  1.2179
 1230TIP3   OH2 3695   5.388   2.321   4.553  0.0796 -1.1538 -0.1068
 1230TIP3    H1 3696   5.464   2.262   4.553 -0.9179 -2.5634  1.7219
 1230TIP3    H2 3697   5.321   2.274   4.503 -0.6320 -1.4820  1.1171
 1231TIP3   OH2 3698   3.625   1.777   0.333 -0.0607 -0.5815 -0.4896
 1231TIP3    H1 3699   3.712   1.798   0.298  0.2100 -0.3841  0.2812
 1231TIP3    H2 3700   3.625   1.681   0.340  1.2271 -0.4779  2.2358
 1232TIP3   OH2 3701   0.546   0.113   4.109  0.1823  0.5495  0.2485
 1232TIP3    H1 3702   0.489   0.066   4.048 -0.2646  1.1282  0.2086
 1232TIP3    H2 3703   0.633   0.106   4.070  0.0069  0.3495 -0.1171
 1233TIP3   OH2 3704   1.027   0.387   1.982  0.1555 -0.0527  0.5156
 1233TIP3    H1 3705   0.952   0.328   1.981  0.0835  0.0362  0.6001
 1233TIP3    H2 3706   0.991   0.472   1.959  0.3388 -0.1298 -0.0614
 1234TIP3   OH2 3707   3.221   4.452   4.851  0.0125  0.0455  0.1256
 1234TIP3    H1 3708   3.302   4.503   4.851 -0.3133  0.5813  0.7042
 1234TIP3    H2 3709   3.250   4.361   4.855  0.6348  0.0964 -1.8937
 1235TIP3   OH2 3710   2.387   4.737   2.623 -0.0161  0.0697  0.3180
 1235TIP3    H1 3711   2.343   4.725   2.708  0.3507  0.7694  0.6165
 1235TIP3    H2 3712   2.315   4.751   2.561 -0.2126  2.0510  0.9448
 1236TIP3   OH2 3713   2.653   2.563   3.634 -0.5337  0.1468  0.3796
 1236TIP3    H1 3714   2.692   2.512   3.563 -3.2327  0.0310 -1.1344
 1236TIP3    H2 3715   2.673   2.654   3.613 -0.7917  0.0692 -0.2212
 1237TIP3   OH2 3716   1.669   5.710   2.984  0.0636  0.0701  0.1932
 1237TIP3    H1 3717   1.727   5.778   3.019  0.5744 -0.8755  1.2235
 1237TIP3    H2 3718   1.728   5.639   2.958 -0.5503 -0.5016  0.3330
 1238TIP3   OH2 3719   2.417   2.493   0.066  0.5722 -0.0296 -0.0319
 1238TIP3    H1 3720   2.371   2.466   0.145  1.1985 -0.7262  0.1041
 1238TIP3    H2 3721   2.440   2.585   0.083  1.6686 -0.4793  1.0795
 1239TIP3   OH2 3722   2.608   5.426   4.761  0.4644 -0.2069 -0.2184
 1239TIP3    H1 3723   2.672   5.420   4.832 -0.5458 -1.0150  0.6740
 1239TIP3    H2 3724   2.624   5.349   4.707  0.6562 -0.0651 -0.3651
 1240TIP3   OH2 3725   0.195   5.080   1.440  0.8208 -0.2374 -0.0598
 1240TIP3    H1 3726   0.158   5.061   1.526 -0.7148  1.8950 -0.1500
 1240TIP3    H2 3727   0.240   5.164   1.452  1.4404 -0.4108 -1.1002
 1241TIP3   OH2 3728   0.572   3.332   0.470 -0.4944  0.2979  0.2494
 1241TIP3    H1 3729   0.496   3.356   0.522 -0.4190  0.1246  0.4424
 1241TIP3    H2 3730   0.629   3.284   0.531  0.0540  0.9612  0.2763
 1242TIP3   OH2 3731   0.989   1.605   4.637  0.2301  0.4316  0.6921
 1242TIP3    H1 3732   1.056   1.573   4.576 -0.2709  1.0240 -0.1949
 1242TIP3    H2 3733   0.922   1.644   4.580 -0.9232 -0.2315  1.5405
 1243TIP3   OH2 3734   5.019   1.447   2.018 -0.2056 -0.1133  0.1057
 1243TIP3    H1 3735   4.956   1.407   2.077 -0.7408 -1.1845 -1.1400
 1243TIP3    H2 3736   4.999   1.541   2.022 -0.4881 -0.2102  1.2889
 1244TIP3   OH2 3737   5.292   4.678   4.556  0.1825  0.7934 -0.3501
 1244TIP3    H1 3738   5.199   4.658   4.544  0.1347  0.1243  1.0203
 1244TIP3    H2 3739   5.299   4.771   4.532  0.1068 -0.1560 -5.1734
 1245TIP3   OH2 3740   0.352   1.366   3.988  0.0546 -0.2094 -0.3062
 1245TIP3    H1 3741   0.413   1.294   4.005  1.8044  0.5307 -2.8106
 1245TIP3    H2 3742   0.280   1.325   3.940  0.3291 -0.5387 -0.4460
 1246TIP3   OH2 3743   0.917   3.348   0.702  0.4665 -0.2650  0.0257
 1246TIP3    H1 3744   0.870   3.267   0.681  0.4824 -0.3373  0.2651
 1246TIP3    H2 3745   0.980   3.322   0.769  1.7194 -0.4517 -1.1561
 1247TIP3   OH2 3746   5.113   5.285   2.972  0.0504  0.5237 -0.3509
 1247TIP3    H1 3747   5.134   5.324   3.057  0.1384 -0.1909 -0.0406
 1247TIP3    H2 3748   5.020   5.262   2.977 -0.1123  1.0899 -0.6946
 1248TIP3   OH2 3749   4.880   5.528   1.178  0.5871  0.4810  0.1806
 1248TIP3    H1 3750   4.804   5.529   1.120  1.1761  1.2561 -0.6109
 1248TIP3    H2 3751   4.844   5.539   1.265 -0.2370  0.5006 -0.1574
 1249TIP3   OH2 3752   0.988   5.713   3.471 -0.4527 -0.2592 -0.5484
 1249TIP3    H1 3753   1.036   5.659   3.408 -0.2933 -0.2529 -0.4301
 1249TIP3    H2 3754   1.055   5.755   3.524 -0.6062 -1.1319  0.3610
 1250TIP3   OH2 3755   1.898   4.308   3.733  0.0103  0.1955  0.2964
 1250TIP3    H1 3756   1.984   4.267   3.728 -1.0644 -2.4560  1.6147
 1250TIP3    H2 3757   1.872   4.298   3.825 -2.1073 -0.0724 -0.2744
 1251TIP3   OH2 3758   3.087   3.506   4.255  0.4703  0.0065  0.2798
 1251TIP3    H1 3759   3.025   3.435   4.269  0.6780 -0.0854  0.7598
 1251TIP3    H2 3760   3.172   3.462   4.252  0.7039  0.3278  1.5819
 1252TIP3   OH2 3761   0.763   3.582   0.646  0.3477  0.4308 -1.0041
 1252TIP3    H1 3762   0.817   3.504   0.644  1.1226  0.8315  1.0058
 1252TIP3    H2 3763   0.678   3.552   0.679  0.0776  0.1803 -1.9045
 1253TIP3   OH2 3764   5.091   0.874   1.175 -0.3696  0.1710 -0.7359
 1253TIP3    H1 3765   5.156   0.803   1.175 -0.7804 -0.2192 -1.6191
 1253TIP3    H2 3766   5.097   0.911   1.088  0.4181  1.7922 -0.0325
 1254TIP3   OH2 3767   3.077   5.585   3.799  0.5763  0.2833  0.4152
 1254TIP3    H1 3768   3.049   5.525   3.729  1.7192  0.7118 -0.4507
 1254TIP3    H2 3769   2.997   5.629   3.826 -0.0785 -0.7036  0.1724
 1255TIP3   OH2 3770   4.477   0.543   1.008 -0.0521  0.0772 -0.0887
 1255TIP3    H1 3771   4.517   0.536   1.095 -3.1090 -0.5385  1.3865
 1255TIP3    H2 3772   4.463   0.637   0.996  1.8400  0.3323 -0.7268
 1256TIP3   OH2 3773   2.765   2.168   4.919 -0.5430  0.0853  0.2973
 1256TIP3    H1 3774   2.690   2.163   4.859 -0.2261  1.0153 -0.1855
 1256TIP3    H2 3775   2.841   2.153   4.864 -0.3570 -0.9753  0.8087
 1257TIP3   OH2 3776   2.582   2.156   3.959 -0.1898  0.4675  0.2427
 1257TIP3    H1 3777   2.661   2.195   3.920  1.2928 -1.7563  0.8817
 1257TIP3    H2 3778   2.559   2.084   3.900  0.2442 -0.9641  1.7520
 1258TIP3   OH2 3779   0.734   1.371   4.880 -0.0976  0.2455  0.3362
 1258TIP3    H1 3780   0.781   1.448   4.913 -2.2354  1.3100  1.0648
 1258TIP3    H2 3781   0.711   1.394   4.790  2.4537 -1.1314 -0.7744
 1259TIP3   OH2 3782   2.283   2.852   3.194 -0.1772  0.0657 -0.3777
 1259TIP3    H1 3783   2.281   2.758   3.174 -0.4495 -0.1648  0.7046
 1259TIP3    H2 3784   2.232   2.892   3.124 -2.5533 -0.9037  0.7199
 1260TIP3   OH2 3785   3.802   0.888   1.102  0.8770 -0.0059 -0.7464
 1260TIP3    H1 3786   3.795   0.860   1.193  0.1879 -2.0491 -1.3821
 1260TIP3    H2 3787   3.869   0.956   1.103  1.2821 -0.3807  1.1915
 1261TIP3   OH2 3788   5.790   4.741   4.430 -0.6698 -0.1559  0.4547
 1261TIP3    H1 3789   5.791   4.676   4.360 -1.3156 -0.0063  0.3006
 1261TIP3    H2 3790   5.761   4.822   4.387 -1.2922 -0.1153  0.9326
 1262TIP3   OH2 3791   0.389   1.088   1.682  0.3358 -0.1554 -0.6950
 1262TIP3    H1 3792   0.414   1.152   1.749  1.4378 -0.3524 -0.9122
 1262TIP3    H2 3793   0.463   1.085   1.622 -0.2495 -0.6843 -1.4070
 1263TIP3   OH2 3794   6.038   0.374   2.843 -0.1196 -0.3171  0.2462
 1263TIP3    H1 3795   5.951   0.415   2.839  0.3574  0.6512 -0.6382
 1263TIP3    H2 3796   6.099   0.447   2.836  0.7659 -1.0310  0.4312
 1264TIP3   OH2 3797   4.770   0.046   0.490  0.1050  0.5571  0.5371
 1264TIP3    H1 3798   4.675   0.048   0.486  0.0075  0.1744  1.9305
 1264TIP3    H2 3799   4.793  -0.045   0.470  0.3255  1.0644 -1.6672
 1265TIP3   OH2 3800   2.265   5.563   3.388  0.3281  0.0195 -0.7729
 1265TIP3    H1 3801   2.210   5.602   3.320 -1.9525 -0.2835  0.7608
 1265TIP3    H2 3802   2.329   5.510   3.340 -0.8834  0.1998 -2.6892
 1266TIP3   OH2 3803   2.940   3.985   3.306  0.0952  0.1914 -0.2465
 1266TIP3    H1 3804   2.853   4.014   3.279 -0.1595  0.1407  0.5036
 1266TIP3    H2 3805   3.000   4.042   3.257 -0.3832  1.6724  0.8091
 1267TIP3   OH2 3806   4.351   3.061   4.253 -0.3430 -0.5482  0.3597
 1267TIP3    H1 3807   4.386   2.998   4.190 -1.6523  0.8110 -1.8856
 1267TIP3    H2 3808   4.272   3.095   4.211 -0.9605  0.8848  2.5263
 1268TIP3   OH2 3809   1.637   2.155   1.024  0.5653 -0.4739 -0.8060
 1268TIP3    H1 3810   1.548   2.121   1.033  0.4425 -0.1896 -0.9262
 1268TIP3    H2 3811   1.625   2.244   0.991  0.8922 -0.4000 -0.7252
 1269TIP3   OH2 3812   0.612   1.257   2.598  0.8159 -0.3578 -0.3526
 1269TIP3    H1 3813   0.611   1.207   2.516  1.5460 -0.4415 -0.3157
 1269TIP3    H2 3814   0.704   1.280   2.611  0.3456  2.2352 -1.0930
 1270TIP3   OH2 3815   5.587   1.292   1.766  0.5772 -0.0766  0.5896
 1270TIP3    H1 3816   5.615   1.257   1.682 -0.9494 -1.5594  0.6341
 1270TIP3    H2 3817   5.668   1.318   1.810  1.4920 -0.4005 -0.8614
 1271TIP3   OH2 3818   0.283   5.462   4.724 -0.5533 -0.4535  0.2833
 1271TIP3    H1 3819   0.198   5.497   4.699 -0.7737  0.1320  1.7794
 1271TIP3    H2 3820   0.276   5.447   4.818  1.0582 -0.2277  0.4628
 1272TIP3   OH2 3821   2.531   0.725   3.452  0.1794  0.2526 -0.1933
 1272TIP3    H1 3822   2.616   0.727   3.497 -0.0235  0.2017  0.1984
 1272TIP3    H2 3823   2.467   0.714   3.523 -0.0564 -1.2660 -0.6166
 1273TIP3   OH2 3824   1.055   1.910   3.224  0.6293 -0.1737 -0.2848
 1273TIP3    H1 3825   1.128   1.941   3.170 -0.0316  1.6931 -0.1805
 1273TIP3    H2 3826   1.097   1.868   3.299  1.5641 -1.0324 -1.2536
 1274TIP3   OH2 3827   1.946   1.679   3.953 -0.1456  0.3807  0.4732
 1274TIP3    H1 3828   1.965   1.749   4.016  0.4497 -0.0669  0.7911
 1274TIP3    H2 3829   1.970   1.716   3.868  1.3049  0.1517  0.7650
 1275TIP3   OH2 3830   2.360   4.986   4.962  0.7007  0.4052 -0.2869
 1275TIP3    H1 3831   2.421   4.955   4.894  0.4532  0.6464 -0.6253
 1275TIP3    H2 3832   2.381   5.079   4.972 -0.1156  0.6828 -0.9681
 1276TIP3   OH2 3833   1.465   2.053   1.957 -0.5633  0.2991 -0.0196
 1276TIP3    H1 3834   1.553   2.091   1.962  0.1061 -1.2538  0.6299
 1276TIP3    H2 3835   1.480   1.964   1.927 -1.7957 -0.4289  1.4166
 1277TIP3   OH2 3836   4.586   5.595   1.728 -0.3698 -0.0845  0.0189
 1277TIP3    H1 3837   4.490   5.599   1.731 -0.3471  0.0922  0.8426
 1277TIP3    H2 3838   4.613   5.682   1.698 -0.4912 -0.4525 -1.1955
 1278TIP3   OH2 3839   5.179   2.575   3.202 -0.5530  0.3120  0.2987
 1278TIP3    H1 3840   5.168   2.583   3.107  1.0343 -0.7248 -0.0098
 1278TIP3    H2 3841   5.117   2.507   3.227  0.7218 -1.1690 -0.4202
 1279TIP3   OH2 3842   6.076   1.564   1.619 -0.8372 -0.0905  0.5127
 1279TIP3    H1 3843   6.120   1.538   1.700 -0.7615  1.5367  1.0446
 1279TIP3    H2 3844   6.063   1.483   1.571 -0.0889 -0.9874  1.7662
 1280TIP3   OH2 3845   5.443   2.729   2.492 -0.6243  0.5216 -0.2749
 1280TIP3    H1 3846   5.375   2.719   2.426 -0.7598  0.3299 -0.1070
 1280TIP3    H2 3847   5.517   2.767   2.445 -0.2824 -0.7578 -0.8113
 1281TIP3   OH2 3848   4.221   5.987   1.206  0.1584  0.5395 -0.4476
 1281TIP3    H1 3849   4.256   5.913   1.156  0.2495  0.2884 -0.0144
 1281TIP3    H2 3850   4.127   5.983   1.193 -0.3823 -2.2765  3.0505
 1282TIP3   OH2 3851   4.582   0.187   3.882  0.4879  0.2264 -0.5352
 1282TIP3    H1 3852   4.656   0.192   3.942 -1.2902 -0.5458  1.8966
 1282TIP3    H2 3853   4.583   0.270   3.835  1.5083  1.2248  1.1569
 1283TIP3   OH2 3854   1.962   4.825   2.308  0.2087 -0.3349 -0.2762
 1283TIP3    H1 3855   1.867   4.820   2.320  0.0852  0.7116 -0.7281
 1283TIP3    H2 3856   1.976   4.805   2.216  0.1090  2.4753 -0.9850
 1284TIP3   OH2 3857   0.958   2.980   1.577 -0.1823 -0.0091  0.3496
 1284TIP3    H1 3858   0.915   2.902   1.542 -0.9940  0.1282  1.0025
 1284TIP3    H2 3859   0.945   2.974   1.672  0.9660  0.2128  0.5284
 1285TIP3   OH2 3860   5.035   4.424   0.445  0.0432  0.3429 -0.0477
 1285TIP3    H1 3861   4.976   4.351   0.423  1.2422 -0.2592 -1.4647
 1285TIP3    H2 3862   5.109   4.413   0.386  2.6182 -0.1328  3.0240
 1286TIP3   OH2 3863   4.039   3.145   0.092 -0.0909 -0.1680 -0.8974
 1286TIP3    H1 3864   4.065   3.229   0.055  1.0758  0.0543  0.3481
 1286TIP3    H2 3865   4.078   3.080   0.033  1.3862  0.1806 -0.3443
 1287TIP3   OH2 3866   5.170   3.095   2.930  0.5141 -0.6143 -0.0784
 1287TIP3    H1 3867   5.107   3.031   2.965 -0.2552  0.5557  0.7566
 1287TIP3    H2 3868   5.116   3.162   2.889  1.2436  0.0453  0.0170
 1288TIP3   OH2 3869   2.517   2.913   4.853 -0.1563 -0.0425 -0.1980
 1288TIP3    H1 3870   2.481   2.971   4.920  0.1875  0.4468 -0.4274
 1288TIP3    H2 3871   2.562   2.844   4.901  0.5883  0.6231  0.0791
 1289TIP3   OH2 3872   1.739   3.397   2.317  0.1673  0.6079 -0.5178
 1289TIP3    H1 3873   1.830   3.371   2.304  0.4589  1.6344 -0.6665
 1289TIP3    H2 3874   1.745   3.483   2.359 -0.7502 -0.2622  1.5436
 1290TIP3   OH2 3875   5.098   5.043   5.165  0.0186  0.2760  0.1103
 1290TIP3    H1 3876   5.037   5.116   5.163 -0.2294  0.1254  1.2094
 1290TIP3    H2 3877   5.043   4.967   5.186  0.4175 -0.0525 -0.0300
 1291TIP3   OH2 3878   6.034   4.618   1.619  0.3815  0.1532 -0.1377
 1291TIP3    H1 3879   6.114   4.606   1.671  0.6451 -1.6916 -0.8950
 1291TIP3    H2 3880   6.015   4.712   1.626  2.1066  0.4788  0.7883
 1292TIP3   OH2 3881   3.303   1.996   4.287  0.2619 -0.3469 -0.1980
 1292TIP3    H1 3882   3.345   1.945   4.356 -0.8424 -1.6387 -0.4264
 1292TIP3    H2 3883   3.375   2.043   4.245  1.1860 -0.8989  0.7064
 1293TIP3   OH2 3884   3.664   3.421   3.640 -0.2053 -0.1983 -0.0247
 1293TIP3    H1 3885   3.707   3.476   3.575 -0.0467  1.0629  1.0972
 1293TIP3    H2 3886   3.729   3.412   3.710 -1.3149  0.7451  1.1631
 1294TIP3   OH2 3887   3.710   1.668   3.356 -0.1669 -0.5206 -0.3499
 1294TIP3    H1 3888   3.631   1.650   3.405  0.3216 -2.3219 -0.1746
 1294TIP3    H2 3889   3.781   1.640   3.413  0.5878  0.5152 -0.7424
 1295TIP3   OH2 3890   5.821   1.373   0.218 -0.2025 -0.0776  0.0155
 1295TIP3    H1 3891   5.878   1.369   0.141  1.9954  0.5649  1.5349
 1295TIP3    H2 3892   5.869   1.325   0.286 -1.2324  0.9385  1.5113
 1296TIP3   OH2 3893   2.821   2.219   2.858  0.0834  0.0580 -0.0994
 1296TIP3    H1 3894   2.913   2.197   2.870  0.1404 -2.1372 -3.2052
 1296TIP3    H2 3895   2.820   2.314   2.845  1.3578  0.6417  3.2145
 1297TIP3   OH2 3896   3.304   4.326   4.545  0.2631 -0.6997  0.2795
 1297TIP3    H1 3897   3.222   4.362   4.580  1.0669  0.2321  1.2432
 1297TIP3    H2 3898   3.325   4.384   4.471 -1.2670 -2.4784 -1.7022
 1298TIP3   OH2 3899   4.140   3.324   2.125 -0.5920 -0.3462  0.0933
 1298TIP3    H1 3900   4.058   3.289   2.161  0.4187  0.0290  3.0354
 1298TIP3    H2 3901   4.201   3.323   2.199  1.7445  0.4631 -1.7053
 1299TIP3   OH2 3902   4.480   0.304   0.417  0.0083  0.3927  0.2530
 1299TIP3    H1 3903   4.565   0.347   0.408  0.3761 -0.2090  0.7549
 1299TIP3    H2 3904   4.502   0.213   0.434 -0.7638 -0.0960 -1.1987
 1300TIP3   OH2 3905   1.570   5.661   5.038  0.1626  0.1436  0.2930
 1300TIP3    H1 3906   1.536   5.642   4.950 -0.9412 -1.1390  0.9541
 1300TIP3    H2 3907   1.567   5.756   5.044 -1.3499  0.1940 -0.4776
 1301TIP3   OH2 3908   6.114   5.299   4.704  0.1717  0.0048  0.5531
 1301TIP3    H1 3909   6.066   5.233   4.654  0.1332 -1.0453  1.9065
 1301TIP3    H2 3910   6.205   5.267   4.704  0.3285  0.4440  0.4525
 1302TIP3   OH2 3911   5.870   2.441   4.278 -0.5689 -0.1051  0.2214
 1302TIP3    H1 3912   5.783   2.424   4.314 -0.9197 -0.1303 -0.6267
 1302TIP3    H2 3913   5.905   2.354   4.258 -1.3269 -0.0202 -1.6834
 1303TIP3   OH2 3914   5.521   5.793   0.129 -0.1343 -0.1143 -0.0786
 1303TIP3    H1 3915   5.494   5.880   0.098 -0.1084  0.1656  0.6692
 1303TIP3    H2 3916   5.608   5.807   0.167 -0.6470 -0.2021  1.1785
 1304TIP3   OH2 3917   6.194   3.246   3.846  0.6035 -0.3172  0.1838
 1304TIP3    H1 3918   6.269   3.190   3.825  1.1573  0.9801 -1.5288
 1304TIP3    H2 3919   6.154   3.265   3.762 -1.6663 -0.8992  1.0461
 1305TIP3   OH2 3920   0.240   2.987   0.048  0.4168  0.8033  0.6219
 1305TIP3    H1 3921   0.163   2.988  -0.009  1.1009 -1.1117 -0.4320
 1305TIP3    H2 3922   0.210   3.026   0.130 -1.2465  1.4582 -0.2456
 1306TIP3   OH2 3923   5.813   3.159   2.854  0.2675  0.5567 -0.6752
 1306TIP3    H1 3924   5.806   3.253   2.869  1.4011  0.5053  0.3832
 1306TIP3    H2 3925   5.753   3.120   2.918  0.2243  0.5352 -0.7283
 1307TIP3   OH2 3926   5.841   5.841   1.005 -0.0911  0.2064 -0.1752
 1307TIP3    H1 3927   5.868   5.755   1.037  0.2509 -0.4328 -2.0758
 1307TIP3    H2 3928   5.899   5.902   1.051 -1.4954 -0.3337  2.5467
 1308TIP3   OH2 3929   0.503   0.114   0.173 -0.0576  0.4508 -0.5060
 1308TIP3    H1 3930   0.439   0.046   0.153  0.6919 -0.3220 -0.3662
 1308TIP3    H2 3931   0.510   0.113   0.269 -0.0459  0.7289 -0.5023
 1309TIP3   OH2 3932   2.918   1.568   4.920  0.0611 -0.0506  0.0565
 1309TIP3    H1 3933   2.903   1.650   4.967  0.5962  0.3329 -0.4225
 1309TIP3    H2 3934   2.902   1.590   4.828  1.5208 -0.1122 -0.2436
 1310TIP3   OH2 3935   1.795   2.880   0.140 -0.2071  0.4231 -0.9440
 1310TIP3    H1 3936   1.804   2.920   0.227  0.7065  0.8070 -1.2047
 1310TIP3    H2 3937   1.717   2.824   0.147 -0.0450  0.3205  0.1634
 1311TIP3   OH2 3938   2.881   4.642   1.403  0.4619  0.4539  0.2814
 1311TIP3    H1 3939   2.808   4.672   1.457 -2.8724 -1.5526 -2.6457
 1311TIP3    H2 3940   2.918   4.569   1.452 -0.6955  0.3730  1.0867
 1312TIP3   OH2 3941   4.917   2.707   5.001 -0.3304 -0.7416 -0.0463
 1312TIP3    H1 3942   4.971   2.664   5.068 -0.5769 -0.9249  0.0385
 1312TIP3    H2 3943   4.829   2.708   5.039  0.1481  2.6983  1.3924
 1313TIP3   OH2 3944   1.323   0.402   1.193 -0.3015 -0.1903 -0.3287
 1313TIP3    H1 3945   1.339   0.310   1.211 -0.2424  0.0741  1.1110
 1313TIP3    H2 3946   1.396   0.448   1.234 -0.0876  0.4810 -1.4180
 1314TIP3   OH2 3947   2.504   0.103   4.733 -0.2812 -0.5382  0.5297
 1314TIP3    H1 3948   2.590   0.063   4.740 -0.2326 -0.5431 -0.0616
 1314TIP3    H2 3949   2.511   0.184   4.784  0.4141  0.0174 -0.4136
 1315TIP3   OH2 3950   0.004   0.719   0.149 -0.0303 -0.1614 -0.2200
 1315TIP3    H1 3951   0.086   0.670   0.140  0.6538  0.6507  1.2078
 1315TIP3    H2 3952   0.025   0.788   0.212 -1.0984  1.6387 -1.7466
 1316TIP3   OH2 3953   6.342   0.707   1.647 -0.2975 -0.5540 -0.6399
 1316TIP3    H1 3954   6.425   0.754   1.654  0.7012 -2.1490 -1.3485
 1316TIP3    H2 3955   6.281   0.773   1.615  0.4140  0.9123  0.8372
 1317TIP3   OH2 3956   6.057   0.131   5.055 -0.2547  0.3471  0.2864
 1317TIP3    H1 3957   5.963   0.139   5.040 -0.3710  0.5491  1.0676
 1317TIP3    H2 3958   6.095   0.121   4.967 -0.9817  0.4471 -0.0459
 1318TIP3   OH2 3959   2.198   5.365   3.637  0.1189 -0.1888 -0.1911
 1318TIP3    H1 3960   2.160   5.430   3.578  0.1129  1.2141  1.3186
 1318TIP3    H2 3961   2.123   5.313   3.667 -0.2180  0.6448  0.4413
 1319TIP3   OH2 3962   3.517   0.081   2.493 -0.3677 -0.4123 -0.5215
 1319TIP3    H1 3963   3.609   0.108   2.496 -0.5167  0.0560 -0.1513
 1319TIP3    H2 3964   3.521  -0.015   2.497  0.0997 -0.3951 -0.4534
 1320TIP3   OH2 3965   5.206   5.330   2.478 -0.2572 -0.2860 -0.3794
 1320TIP3    H1 3966   5.118   5.316   2.513  0.5587 -1.7525  1.2030
 1320TIP3    H2 3967   5.226   5.250   2.430  0.9222 -0.7957  0.9067
 1321TIP3   OH2 3968   6.122   4.959   5.056 -0.3132  0.2679 -0.6481
 1321TIP3    H1 3969   6.090   5.049   5.055  0.7403  0.7680  1.8489
 1321TIP3    H2 3970   6.214   4.967   5.084 -0.4478 -1.6026  0.4699
 1322TIP3   OH2 3971   3.743   3.793   2.486  0.0052 -0.0308 -0.1446
 1322TIP3    H1 3972   3.650   3.813   2.492 -0.3679 -1.4545 -0.7813
 1322TIP3    H2 3973   3.778   3.812   2.573 -1.2594 -1.2900  0.6678
 1323TIP3   OH2 3974   1.990   4.237   4.656 -0.1230  0.5650  0.4098
 1323TIP3    H1 3975   2.086   4.230   4.658 -0.1567 -0.1169  2.4599
 1323TIP3    H2 3976   1.959   4.147   4.656 -0.7409  0.7586  1.5427
 1324TIP3   OH2 3977   4.633   0.086   0.808  0.2082  0.2640  0.2134
 1324TIP3    H1 3978   4.690   0.072   0.732 -1.0131 -1.2686 -0.4825
 1324TIP3    H2 3979   4.692   0.110   0.878  1.7142 -1.0651 -0.5376
 1325TIP3   OH2 3980   3.000   5.036   4.848  0.3512  0.1376 -0.0462
 1325TIP3    H1 3981   3.036   4.957   4.807  0.8341  0.7764 -0.9133
 1325TIP3    H2 3982   2.935   5.068   4.785  0.8050  0.9129 -0.1429
 1326TIP3   OH2 3983   2.327   2.736   2.487 -0.7870 -0.3939 -0.1085
 1326TIP3    H1 3984   2.280   2.671   2.434 -0.0728 -0.6900 -0.3966
 1326TIP3    H2 3985   2.264   2.806   2.500 -0.8255 -0.0604 -1.8105
 1327TIP3   OH2 3986   4.494   4.741   4.840  0.5003  0.1221  0.3152
 1327TIP3    H1 3987   4.575   4.752   4.891  1.1954 -0.7402 -0.5708
 1327TIP3    H2 3988   4.426   4.729   4.907  1.0441  1.1136  1.0803
 1328TIP3   OH2 3989   5.696   4.677   1.386  0.0702 -0.5591  0.2187
 1328TIP3    H1 3990   5.606   4.709   1.384  0.3602  0.6407  2.4787
 1328TIP3    H2 3991   5.689   4.582   1.396 -1.0386 -0.2971  2.4943
 1329TIP3   OH2 3992   0.912   4.467   2.887 -0.0991  0.0892  0.2307
 1329TIP3    H1 3993   0.868   4.545   2.921  0.8976  0.4333  0.7887
 1329TIP3    H2 3994   0.846   4.424   2.832 -0.8303  1.0450  0.3276
 1330TIP3   OH2 3995   4.826   2.908   2.044  0.2146 -0.0749 -0.1833
 1330TIP3    H1 3996   4.810   3.001   2.064 -0.2342 -0.5493  1.8672
 1330TIP3    H2 3997   4.739   2.869   2.039  0.4175 -0.4945 -0.4859
 1331TIP3   OH2 3998   1.539   1.936   1.526 -0.6401  0.4187 -0.2233
 1331TIP3    H1 3999   1.460   1.942   1.472 -1.8845  0.0885  1.4918
 1331TIP3    H2 4000   1.609   1.922   1.463 -1.9625  0.4586 -1.7859
 1332TIP3   OH2 4001   3.737   4.502   4.382 -0.5754  0.4825  0.4704
 1332TIP3    H1 4002   3.790   4.450   4.442 -1.4101  0.6895  1.3964
 1332TIP3    H2 4003   3.798   4.568   4.347  0.5113 -1.0885 -0.7541
 1333TIP3   OH2 4004   1.320   4.680   3.187  0.5765  0.2049  0.2576
 1333TIP3    H1 4005   1.272   4.662   3.107  2.9436  1.5402 -1.6028
 1333TIP3    H2 4006   1.366   4.599   3.207 -0.0111 -0.1266  0.2953
 1334TIP3   OH2 4007   1.993   4.561   0.850  0.0181  0.7095  0.1882
 1334TIP3    H1 4008   1.921   4.563   0.786  0.1624 -0.5818 -0.0274
 1334TIP3    H2 4009   2.072   4.563   0.797  0.1407 -0.5843  0.2921
 1335TIP3   OH2 4010   1.764   3.272   3.900 -0.0374 -0.6757 -0.1277
 1335TIP3    H1 4011   1.682   3.267   3.850  0.5479 -0.8551 -1.0920
 1335TIP3    H2 4012   1.748   3.218   3.977 -0.8760 -0.5903 -0.2299
 1336TIP3   OH2 4013   0.316   5.556   1.243  0.0259  0.1989  0.5964
 1336TIP3    H1 4014   0.404   5.518   1.247  0.4879  1.2594  0.5846
 1336TIP3    H2 4015   0.276   5.514   1.167  0.4787 -0.3490  0.6465
 1337TIP3   OH2 4016   2.254   5.225   4.312  0.0660  0.6253 -0.3248
 1337TIP3    H1 4017   2.336   5.175   4.313  0.4049  1.1714  0.0153
 1337TIP3    H2 4018   2.265   5.290   4.382 -0.8869  0.3407  0.1035
 1338TIP3   OH2 4019   2.118   3.403   2.918 -0.6625  0.2450 -0.1005
 1338TIP3    H1 4020   2.059   3.328   2.910  1.0353 -1.2112  0.2824
 1338TIP3    H2 4021   2.084   3.452   2.993 -1.6872 -0.2567 -0.2191
 1339TIP3   OH2 4022   4.003   4.851   0.353 -0.1293  0.4895 -0.4903
 1339TIP3    H1 4023   4.013   4.801   0.273 -0.4379  0.2819 -0.4014
 1339TIP3    H2 4024   3.914   4.887   0.348 -0.5683 -0.4531  0.2775
 1340TIP3   OH2 4025   3.673   4.126   1.803 -0.2351 -0.0017  0.2078
 1340TIP3    H1 4026   3.752   4.135   1.750 -1.2554  0.4839 -1.3024
 1340TIP3    H2 4027   3.694   4.171   1.885  0.8600  0.6221 -0.3879
 1341TIP3   OH2 4028   1.177   0.995   3.826  0.2104 -0.1933 -0.5758
 1341TIP3    H1 4029   1.233   0.921   3.803  1.2538  0.5657 -0.5637
 1341TIP3    H2 4030   1.118   1.004   3.751  0.3230 -0.8055 -0.7426
 1342TIP3   OH2 4031   0.901   3.738   1.194 -0.2139  0.1483  0.6686
 1342TIP3    H1 4032   0.904   3.735   1.290  0.3081 -0.4391  0.6421
 1342TIP3    H2 4033   0.887   3.648   1.167 -0.5574  0.3383  0.1913
 1343TIP3   OH2 4034   1.769   1.505   4.579  0.4755 -0.6403 -0.3375
 1343TIP3    H1 4035   1.717   1.584   4.566 -0.2890 -1.2031 -0.8665
 1343TIP3    H2 4036   1.719   1.454   4.644 -0.5909 -1.9479 -2.0826
 1344TIP3   OH2 4037   1.850   2.947   2.810  0.3490  0.1135 -0.1102
 1344TIP3    H1 4038   1.858   2.887   2.736  2.4595  1.3723 -0.9936
 1344TIP3    H2 4039   1.786   3.013   2.781  1.1973  0.6240 -0.8537
 1345TIP3   OH2 4040   1.907   4.745   2.061 -0.1175 -0.4563  0.2667
 1345TIP3    H1 4041   1.874   4.748   1.972  0.1304  1.4414  0.2030
 1345TIP3    H2 4042   2.000   4.724   2.051  0.1847  0.9299 -0.0359
 1346TIP3   OH2 4043   0.427   0.104   2.672 -0.7358  0.6684 -0.3133
 1346TIP3    H1 4044   0.438   0.045   2.748 -3.2134 -1.1806 -1.2649
 1346TIP3    H2 4045   0.513   0.102   2.629 -0.5863 -2.0620 -0.0960
 1347TIP3   OH2 4046   0.072   0.337   4.710 -0.0853 -0.2214 -0.2685
 1347TIP3    H1 4047   0.149   0.307   4.757  1.0536  1.1812 -1.1527
 1347TIP3    H2 4048   0.106   0.374   4.629 -1.5673  1.3842 -0.2256
 1348TIP3   OH2 4049   4.840   5.527   0.272 -0.7339  0.4136  0.3504
 1348TIP3    H1 4050   4.841   5.486   0.185 -0.9132  1.8225 -0.3344
 1348TIP3    H2 4051   4.932   5.545   0.291 -0.6102 -0.6303  0.8386
 1349TIP3   OH2 4052   4.059   2.917   0.291  0.7161  0.4288  0.1629
 1349TIP3    H1 4053   4.085   2.884   0.205  0.6344  1.0754 -0.1142
 1349TIP3    H2 4054   3.967   2.942   0.280  1.3518  2.7865 -0.2658
 1350TIP3   OH2 4055   4.328   0.064   3.901 -0.4678  0.2386  0.2543
 1350TIP3    H1 4056   4.358  -0.026   3.908 -1.0951 -0.0032 -0.1126
 1350TIP3    H2 4057   4.408   0.114   3.884 -0.2653 -0.4094 -0.8190
 1351TIP3   OH2 4058   2.478   4.159   4.855 -0.2952  0.3898 -0.4175
 1351TIP3    H1 4059   2.477   4.080   4.909 -1.9365  0.2739 -0.5560
 1351TIP3    H2 4060   2.534   4.220   4.903  1.7835 -1.1391 -0.7896
 1352TIP3   OH2 4061   2.286   2.817   3.504  0.2833 -0.1706  0.5998
 1352TIP3    H1 4062   2.263   2.881   3.436  0.0579  0.7346  1.5086
 1352TIP3    H2 4063   2.207   2.764   3.514  0.6747 -1.0358 -0.5997
 1353TIP3   OH2 4064   6.007   4.079   0.083  0.4892  0.0140  0.3905
 1353TIP3    H1 4065   6.063   4.128   0.143  0.8650  0.9282 -0.6579
 1353TIP3    H2 4066   6.064   4.058   0.009 -0.5495  1.1844 -0.8265
 1354TIP3   OH2 4067   0.058   3.930   1.472 -0.7957 -0.4852 -0.1266
 1354TIP3    H1 4068   0.004   3.991   1.422 -0.8184  0.4859  1.0319
 1354TIP3    H2 4069   0.145   3.939   1.434 -1.0846 -0.7563 -0.8635
 1355TIP3   OH2 4070   4.712   4.200   1.968 -0.2308 -0.3591 -0.3061
 1355TIP3    H1 4071   4.735   4.254   2.043  1.0829 -1.3147  0.0188
 1355TIP3    H2 4072   4.727   4.257   1.892  1.2058 -0.2373  0.0273
 1356TIP3   OH2 4073   0.110   4.765   2.730  0.2811 -0.1585 -0.4964
 1356TIP3    H1 4074   0.033   4.709   2.729 -0.3114  0.6433 -0.8693
 1356TIP3    H2 4075   0.106   4.811   2.814  1.1248 -1.1375  0.1029
 1357TIP3   OH2 4076   5.142   4.362   3.957 -0.0195 -0.0170  0.1266
 1357TIP3    H1 4077   5.196   4.363   3.878 -2.7292  1.1691 -1.8880
 1357TIP3    H2 4078   5.201   4.387   4.028  2.6439 -1.6372 -1.3638
 1358TIP3   OH2 4079   0.242   3.488   5.099  0.6489  0.2193  0.6740
 1358TIP3    H1 4080   0.265   3.537   5.178 -1.4491 -0.3666  1.7335
 1358TIP3    H2 4081   0.210   3.554   5.038  0.1312  0.4544  1.1884
 1359TIP3   OH2 4082   4.867   0.168   4.559  0.4008  0.4098  0.2431
 1359TIP3    H1 4083   4.828   0.204   4.639 -1.0220 -0.4111 -0.0550
 1359TIP3    H2 4084   4.916   0.241   4.521 -0.5241  1.3640  0.8519
 1360TIP3   OH2 4085   1.448   0.788   2.310 -0.0945 -0.3923 -0.0003
 1360TIP3    H1 4086   1.511   0.852   2.277  0.1565 -0.3417  0.5552
 1360TIP3    H2 4087   1.371   0.840   2.335  0.4115 -0.1809  1.2109
 1361TIP3   OH2 4088   1.633   0.710   3.940 -0.7807 -0.3087  0.2525
 1361TIP3    H1 4089   1.692   0.739   4.010  1.1635 -1.6573 -0.7381
 1361TIP3    H2 4090   1.689   0.702   3.863 -2.1405 -2.1019 -0.6367
 1362TIP3   OH2 4091   5.060   4.001   1.004  0.4029  0.0785  0.2196
 1362TIP3    H1 4092   5.128   4.060   0.970  1.8516 -0.3020  2.3029
 1362TIP3    H2 4093   5.004   4.058   1.057  0.1793  0.0592  0.0055
 1363TIP3   OH2 4094   6.345   3.882   4.638  0.0388  0.3179 -0.2862
 1363TIP3    H1 4095   6.299   3.965   4.626 -0.8559 -0.3106 -1.3558
 1363TIP3    H2 4096   6.382   3.862   4.552  1.1878  0.1249  0.2269
 1364TIP3   OH2 4097   5.785   1.051   0.506  0.3894 -0.1728  0.0771
 1364TIP3    H1 4098   5.853   1.003   0.554 -0.1095  0.9881  2.0683
 1364TIP3    H2 4099   5.731   0.983   0.466  1.2654 -1.1707  0.5353
 1365TIP3   OH2 4100   4.043   0.080   1.720 -0.2922 -0.5819 -0.9986
 1365TIP3    H1 4101   4.129   0.085   1.679 -0.4985  3.3746 -1.3406
 1365TIP3    H2 4102   4.059   0.098   1.813 -0.6911 -0.2524 -0.9902
 1366TIP3   OH2 4103   4.270   1.546   1.284 -0.5264 -0.7512 -0.5493
 1366TIP3    H1 4104   4.182   1.545   1.323  0.6457  0.7219  2.3387
 1366TIP3    H2 4105   4.278   1.459   1.244 -2.7291 -1.4882  0.4080
 1367TIP3   OH2 4106   3.125   1.519   2.462 -0.0580  0.6453  0.7538
 1367TIP3    H1 4107   3.204   1.474   2.432 -0.1271  0.3332  1.0465
 1367TIP3    H2 4108   3.158   1.586   2.523 -0.0272  0.4661  0.9335
 1368TIP3   OH2 4109   1.846   4.195   0.748 -0.0158 -0.0322  0.1358
 1368TIP3    H1 4110   1.822   4.179   0.657 -2.2398  0.1544  0.6530
 1368TIP3    H2 4111   1.879   4.110   0.779 -0.6050 -0.4816 -0.4441
 1369TIP3   OH2 4112   5.220   1.050   3.875  0.2822  0.6110 -0.1997
 1369TIP3    H1 4113   5.219   1.118   3.808  0.7086  0.2165 -0.6118
 1369TIP3    H2 4114   5.274   0.980   3.838  0.7683  0.5063  0.6776
 1370TIP3   OH2 4115   3.347   2.170   1.516  0.3537 -0.2384 -0.0033
 1370TIP3    H1 4116   3.325   2.255   1.555 -0.3658 -0.8896  1.0687
 1370TIP3    H2 4117   3.365   2.114   1.591 -1.8486 -1.7513 -0.5158
 1371TIP3   OH2 4118   2.717   1.695   2.851 -0.7381 -0.7443 -0.2610
 1371TIP3    H1 4119   2.769   1.739   2.919 -0.5240  1.6905 -1.8617
 1371TIP3    H2 4120   2.758   1.610   2.840  0.9379 -0.1114  0.7334
 1372TIP3   OH2 4121   0.892   2.443   2.891 -0.7072 -0.1041 -0.1439
 1372TIP3    H1 4122   0.862   2.354   2.875 -0.9191  0.0707 -0.7267
 1372TIP3    H2 4123   0.830   2.478   2.955  0.8488 -1.2065  2.1325
 1373TIP3   OH2 4124   2.736   1.455   0.326 -0.1247 -0.0873 -0.3181
 1373TIP3    H1 4125   2.805   1.461   0.261 -0.1948  0.4629 -0.3451
 1373TIP3    H2 4126   2.724   1.545   0.358 -2.9554  0.5033 -2.5637
 1374TIP3   OH2 4127   3.644   1.853   2.256  0.0774 -0.0709 -0.5314
 1374TIP3    H1 4128   3.606   1.918   2.197  0.8001  0.5888 -0.2929
 1374TIP3    H2 4129   3.670   1.904   2.333 -0.6278 -0.8771  0.2519
 1375TIP3   OH2 4130   2.558   5.764   2.418 -0.4173 -0.0650 -0.0677
 1375TIP3    H1 4131   2.555   5.791   2.510 -1.5858  0.3796 -0.2275
 1375TIP3    H2 4132   2.622   5.692   2.417  0.6857  0.8601  0.8335
 1376TIP3   OH2 4133   3.813   2.417   1.001  0.1164 -0.5917 -0.0894
 1376TIP3    H1 4134   3.810   2.507   0.969 -1.9450 -0.1031  1.3211
 1376TIP3    H2 4135   3.878   2.419   1.072 -1.0101  0.1754  0.9549
 1377TIP3   OH2 4136   1.217   0.190   2.961  0.6252 -0.2640  0.5127
 1377TIP3    H1 4137   1.277   0.263   2.976  1.1442 -0.3656 -0.8996
 1377TIP3    H2 4138   1.130   0.226   2.979  0.9656  0.3840  0.8960
 1378TIP3   OH2 4139   1.350   5.874   4.229  0.0445 -0.1857 -0.2121
 1378TIP3    H1 4140   1.273   5.822   4.255  1.3704 -1.4057  1.5226
 1378TIP3    H2 4141   1.365   5.932   4.304  1.0276 -0.2407 -0.3581
 1379TIP3   OH2 4142   5.579   2.128   4.502 -0.4163 -0.0306  0.5338
 1379TIP3    H1 4143   5.637   2.051   4.501 -1.0486 -0.5193 -0.0494
 1379TIP3    H2 4144   5.533   2.124   4.418 -1.9738 -0.1960  1.3581
 1380TIP3   OH2 4145   4.367   5.065   2.996 -0.4295  0.8733  0.2751
 1380TIP3    H1 4146   4.391   4.980   3.034 -2.4493 -0.2871 -0.8337
 1380TIP3    H2 4147   4.429   5.078   2.925 -0.9173 -0.3980 -0.4246
 1381TIP3   OH2 4148   4.722   4.090   2.872 -0.0568 -0.1521  0.2219
 1381TIP3    H1 4149   4.743   4.141   2.793 -0.5564  0.4371  0.4700
 1381TIP3    H2 4150   4.715   4.155   2.942  2.1001 -0.8027  1.1408
 1382TIP3   OH2 4151   5.392   0.877   4.078 -0.3004  0.4941 -0.8119
 1382TIP3    H1 4152   5.353   0.886   3.991 -1.7407  1.3736 -0.1142
 1382TIP3    H2 4153   5.423   0.965   4.099 -0.2159  0.3481 -0.3208
 1383TIP3   OH2 4154   5.633   1.218   4.994  0.6967 -0.0199  0.0478
 1383TIP3    H1 4155   5.553   1.252   5.034  1.2711  1.7353 -0.2230
 1383TIP3    H2 4156   5.635   1.257   4.907 -0.3664 -3.5169 -1.7225
 1384TIP3   OH2 4157   2.266   4.515   2.272 -0.2963  0.2383  0.0241
 1384TIP3    H1 4158   2.345   4.538   2.321 -0.6311 -2.9581  2.3716
 1384TIP3    H2 4159   2.202   4.490   2.338 -1.9616 -1.0385 -1.9365
 1385TIP3   OH2 4160   6.220   1.160   0.489  0.3274  0.4830 -0.6931
 1385TIP3    H1 4161   6.206   1.238   0.543 -0.0974  0.7244 -1.1438
 1385TIP3    H2 4162   6.304   1.175   0.446 -0.9419  1.9401 -2.8341
 1386TIP3   OH2 4163   5.607   0.335   3.280 -0.0285 -0.1497 -0.4043
 1386TIP3    H1 4164   5.526   0.318   3.232  0.2742 -1.5174 -0.4921
 1386TIP3    H2 4165   5.653   0.402   3.229 -0.2340 -0.7641 -1.4122
 1387TIP3   OH2 4166   3.103   4.309   0.541  0.2089 -0.5851 -0.1472
 1387TIP3    H1 4167   3.102   4.213   0.542 -3.6163 -0.6754 -0.0267
 1387TIP3    H2 4168   3.049   4.333   0.466 -1.4862  1.4025  1.6091
 1388TIP3   OH2 4169   4.923   6.032   2.586  0.6519 -0.6177  0.8615
 1388TIP3    H1 4170   4.915   5.993   2.499  2.2443  1.4851 -0.3219
 1388TIP3    H2 4171   4.926   5.958   2.646 -1.0692 -2.1194 -0.7826
 1389TIP3   OH2 4172   4.426   4.772   1.033  0.6009 -0.6014 -0.4063
 1389TIP3    H1 4173   4.457   4.772   0.943 -0.2521 -1.4653 -0.7106
 1389TIP3    H2 4174   4.378   4.855   1.042  1.2051 -0.2284 -0.5488
 1390TIP3   OH2 4175   4.989   5.528   4.636 -0.3570  0.1362 -1.3399
 1390TIP3    H1 4176   4.999   5.434   4.649  0.7052  0.6976  4.0581
 1390TIP3    H2 4177   4.895   5.544   4.641 -0.3850 -0.4628  0.6346
 1391TIP3   OH2 4178   3.531   4.206   5.017 -0.3918 -0.7684 -0.1312
 1391TIP3    H1 4179   3.444   4.237   5.043  0.0317  0.5965 -0.2603
 1391TIP3    H2 4180   3.519   4.170   4.930 -0.9090 -0.9651  0.0199
 1392TIP3   OH2 4181   4.974   4.304   4.644  0.1897  0.3584 -0.1444
 1392TIP3    H1 4182   5.053   4.300   4.590 -0.9902 -1.1401 -1.8870
 1392TIP3    H2 4183   4.902   4.291   4.583 -1.5037  2.2874  1.2890
 1393TIP3   OH2 4184   2.696   2.320   1.602  0.2974 -0.4168  0.7113
 1393TIP3    H1 4185   2.644   2.276   1.536  0.1287  0.7835  0.0071
 1393TIP3    H2 4186   2.642   2.319   1.681 -1.2236  1.5466 -0.2188
 1394TIP3   OH2 4187   2.718   4.679   4.513  0.0029  0.8140 -0.2285
 1394TIP3    H1 4188   2.640   4.701   4.462  0.4610 -0.0321 -1.3412
 1394TIP3    H2 4189   2.732   4.586   4.496  1.6585  1.1091 -0.6289
 1395TIP3   OH2 4190   5.732   0.898   0.161 -0.0118  0.0987  0.8331
 1395TIP3    H1 4191   5.702   0.811   0.187  0.6709 -0.0019  1.2984
 1395TIP3    H2 4192   5.824   0.901   0.186  0.3910  0.3902 -0.6336
 1396TIP3   OH2 4193   5.332   2.202   1.958 -0.3526  0.4623 -0.3057
 1396TIP3    H1 4194   5.270   2.229   1.890  0.3815  0.6323 -0.9238
 1396TIP3    H2 4195   5.343   2.108   1.945 -0.0941  0.5226 -0.5207
 1397TIP3   OH2 4196   4.617   1.443   0.656 -0.0149 -0.2125  0.5101
 1397TIP3    H1 4197   4.612   1.351   0.680 -1.3788  0.3316  2.5404
 1397TIP3    H2 4198   4.682   1.480   0.716  0.0506  0.2806  0.1463
 1398TIP3   OH2 4199   4.939   3.936   4.336 -0.0093  0.2544 -0.2868
 1398TIP3    H1 4200   4.866   3.940   4.274 -0.6621  2.2347  0.5243
 1398TIP3    H2 4201   5.000   4.003   4.306  0.7585 -0.3336 -0.0688
 1399TIP3   OH2 4202   5.444   4.715   1.112 -0.5643 -0.1072  0.7031
 1399TIP3    H1 4203   5.418   4.737   1.201  0.1874  1.4465  0.5800
 1399TIP3    H2 4204   5.512   4.648   1.123 -1.7127 -1.2387  1.1830
 1400TIP3   OH2 4205   4.279   3.731   3.669  0.0473 -1.0649  0.1700
 1400TIP3    H1 4206   4.321   3.745   3.585 -2.8681 -0.0896 -1.2400
 1400TIP3    H2 4207   4.348   3.745   3.733  2.2052 -1.2158 -2.0062
 1401TIP3   OH2 4208   3.740   1.000   4.003  0.2510 -0.1580 -0.2167
 1401TIP3    H1 4209   3.650   0.996   3.972 -0.2557  0.5676  1.0680
 1401TIP3    H2 4210   3.770   1.087   3.977  0.4440 -0.2444 -0.2846
 1402TIP3   OH2 4211   2.951   4.372   0.245 -0.2058  0.5762  0.0481
 1402TIP3    H1 4212   2.955   4.431   0.170  3.2406 -0.0823 -0.4413
 1402TIP3    H2 4213   3.017   4.306   0.227 -1.0553 -1.0810  2.5177
 1403TIP3   OH2 4214   1.626   2.856   1.838 -0.1440  0.1034  0.2328
 1403TIP3    H1 4215   1.569   2.839   1.763 -0.6476 -0.7568  0.7839
 1403TIP3    H2 4216   1.588   2.803   1.908  1.8439 -1.1979  0.3971
 1404TIP3   OH2 4217   3.977   4.533   3.736  0.1451  0.0819  0.1830
 1404TIP3    H1 4218   4.069   4.510   3.730  0.1480  0.4345 -3.0774
 1404TIP3    H2 4219   3.966   4.605   3.673 -2.3379  0.0450  0.4735
 1405TIP3   OH2 4220   2.685   5.756   4.996 -0.8345  0.2511 -0.4592
 1405TIP3    H1 4221   2.770   5.721   5.022 -1.5060 -0.3729  0.9874
 1405TIP3    H2 4222   2.681   5.842   5.038 -1.2849 -0.1114  0.2601
 1406TIP3   OH2 4223   3.382   1.061   4.800 -0.3145 -0.0978 -0.3902
 1406TIP3    H1 4224   3.414   0.980   4.762 -0.8553 -0.2484 -0.5294
 1406TIP3    H2 4225   3.352   1.037   4.887 -1.9793 -0.3866 -1.0117
 1407TIP3   OH2 4226   4.110   0.719   2.371  0.0888 -0.3828  0.5368
 1407TIP3    H1 4227   4.046   0.656   2.338 -0.4564 -0.0001  0.8432
 1407TIP3    H2 4228   4.059   0.777   2.428  0.5719  0.3334  0.2538
 1408TIP3   OH2 4229   1.961   3.465   3.931 -0.3164  0.8247  0.1207
 1408TIP3    H1 4230   1.899   3.393   3.926  0.5769  0.1235 -2.4161
 1408TIP3    H2 4231   1.907   3.543   3.942 -1.3198 -0.1301  2.4828
 1409TIP3   OH2 4232   3.755   3.622   2.263  0.7989  0.2843  0.2924
 1409TIP3    H1 4233   3.784   3.678   2.191 -1.1041  1.3173  0.2709
 1409TIP3    H2 4234   3.758   3.679   2.340 -1.1173  0.4608  0.2800
 1410TIP3   OH2 4235   4.750   1.099   2.377  0.5908  0.6683  0.3158
 1410TIP3    H1 4236   4.688   1.054   2.319 -0.6150  0.2920  1.8378
 1410TIP3    H2 4237   4.819   1.035   2.391  0.6059  0.5532 -0.2418
 1411TIP3   OH2 4238   0.202   3.446   0.279 -0.1913  0.3046  0.5626
 1411TIP3    H1 4239   0.195   3.541   0.290  1.5490  0.5018  0.2640
 1411TIP3    H2 4240   0.278   3.421   0.331 -1.6413 -1.2403  2.0754
 1412TIP3   OH2 4241   6.028   3.260   4.837 -0.2941  0.2501  0.0839
 1412TIP3    H1 4242   5.950   3.291   4.883  0.6517 -0.9498  2.7184
 1412TIP3    H2 4243   6.020   3.164   4.837  0.5854  0.1569 -0.7449
 1413TIP3   OH2 4244   0.932   3.891   0.953 -0.1300  0.1483  0.2763
 1413TIP3    H1 4245   0.877   3.877   0.875 -1.6693  1.4826  1.0727
 1413TIP3    H2 4246   0.883   3.851   1.024  0.7085 -0.0167  0.7742
 1414TIP3   OH2 4247   2.736   0.483   2.616  0.0258 -0.5191 -0.1983
 1414TIP3    H1 4248   2.718   0.389   2.609  0.7429 -0.8199  1.5169
 1414TIP3    H2 4249   2.653   0.521   2.644 -0.3644 -0.5701 -1.2381
 1415TIP3   OH2 4250   5.996   0.745   3.100 -0.2236 -0.1699  0.4626
 1415TIP3    H1 4251   6.055   0.686   3.147 -2.4810 -1.3089  1.9910
 1415TIP3    H2 4252   5.971   0.811   3.165 -0.3057  0.5845 -0.3098
 1416TIP3   OH2 4253   3.381   0.258   1.554 -0.4076 -0.8823 -0.0403
 1416TIP3    H1 4254   3.396   0.314   1.630 -0.6747 -0.7097 -0.1131
 1416TIP3    H2 4255   3.377   0.320   1.480 -0.6148 -1.0040 -0.1324
 1417TIP3   OH2 4256   3.607   3.266   0.312  0.0796 -0.3575 -0.0058
 1417TIP3    H1 4257   3.622   3.207   0.238 -0.9173 -0.6407  0.0149
 1417TIP3    H2 4258   3.670   3.337   0.297  1.7947 -1.7218  0.3425
 1418TIP3   OH2 4259   3.137   4.366   3.922 -0.0429 -0.7375 -0.3435
 1418TIP3    H1 4260   3.168   4.304   3.856 -0.4605 -0.6169 -0.6568
 1418TIP3    H2 4261   3.216   4.392   3.970  0.2513 -0.8797 -0.7514
 1419TIP3   OH2 4262   5.619   2.422   2.241  0.5463  0.2501  0.0978
 1419TIP3    H1 4263   5.664   2.504   2.262  0.0669  0.4121  0.5183
 1419TIP3    H2 4264   5.577   2.397   2.324 -2.5420  1.6099 -0.8968
 1420TIP3   OH2 4265   3.260   5.686   3.307  0.6262 -0.2151  0.8091
 1420TIP3    H1 4266   3.263   5.592   3.324  0.1944 -0.8854 -2.2472
 1420TIP3    H2 4267   3.337   5.703   3.252  0.8314  1.2949  1.5139
 1421TIP3   OH2 4268   2.759   4.406   0.595 -0.0228  0.3289 -0.0643
 1421TIP3    H1 4269   2.778   4.329   0.543 -1.7394  0.3063 -0.7296
 1421TIP3    H2 4270   2.706   4.373   0.668 -0.5401  0.8196 -0.2060
 1422TIP3   OH2 4271   2.629   1.670   0.075  0.1765  0.1139 -0.1305
 1422TIP3    H1 4272   2.548   1.711   0.106  0.6841  0.0118  1.4602
 1422TIP3    H2 4273   2.601   1.610   0.006 -1.1810 -0.2772  0.7165
 1423TIP3   OH2 4274   6.218   4.636   2.750  0.1651  0.3074 -0.4122
 1423TIP3    H1 4275   6.190   4.544   2.742 -0.9577  0.6529 -0.7269
 1423TIP3    H2 4276   6.167   4.670   2.823  0.8535  0.5827 -0.0604
 1424TIP3   OH2 4277   0.937   1.696   2.048 -0.1230  0.4544 -0.3794
 1424TIP3    H1 4278   0.861   1.642   2.068 -0.2407  0.4678 -0.7870
 1424TIP3    H2 4279   0.918   1.734   1.962 -0.3368  1.6698  0.1836
 1425TIP3   OH2 4280   1.915   4.434   2.654 -0.2728 -0.2807 -0.1742
 1425TIP3    H1 4281   1.959   4.458   2.735  0.1799 -2.7788  0.3989
 1425TIP3    H2 4282   1.826   4.413   2.681 -0.5601  0.3366 -0.6051
 1426TIP3   OH2 4283   1.483   1.014   2.581 -0.0298  0.0909  0.4171
 1426TIP3    H1 4284   1.452   0.934   2.538 -0.1089  0.3640 -0.0363
 1426TIP3    H2 4285   1.574   1.023   2.553 -0.0640  0.2380  0.3550
 1427TIP3   OH2 4286   3.332   4.614   4.493 -1.1354 -0.1864 -0.7782
 1427TIP3    H1 4287   3.420   4.628   4.529 -1.7069 -0.8359  0.9549
 1427TIP3    H2 4288   3.327   4.674   4.419  1.0209 -0.6482 -1.3679
 1428TIP3   OH2 4289   5.151   0.791   1.845 -0.4303 -0.2446  0.4616
 1428TIP3    H1 4290   5.095   0.849   1.897 -0.0337  1.3543 -0.8188
 1428TIP3    H2 4291   5.097   0.768   1.769  0.4216  0.9376 -0.5504
 1429TIP3   OH2 4292   2.198   5.787   3.588 -0.0838 -0.2756 -0.8574
 1429TIP3    H1 4293   2.144   5.782   3.667 -1.4431 -1.4716 -1.8005
 1429TIP3    H2 4294   2.160   5.858   3.537  0.2105 -0.1092 -0.8467
 1430TIP3   OH2 4295   3.882   1.525   0.289  0.3159  0.2161 -0.2049
 1430TIP3    H1 4296   3.880   1.511   0.194  1.0480 -1.0128 -0.0687
 1430TIP3    H2 4297   3.909   1.616   0.299  2.0872 -0.1417 -1.2034
 1431TIP3   OH2 4298   0.666   4.823   2.545  0.2989  0.1551  0.2879
 1431TIP3    H1 4299   0.585   4.773   2.545  0.4059 -0.0898 -1.9116
 1431TIP3    H2 4300   0.718   4.783   2.615 -0.8289 -0.7292  0.6529
 1432TIP3   OH2 4301   3.127   0.487   1.045  0.2920 -0.6830 -0.0824
 1432TIP3    H1 4302   3.216   0.452   1.047 -0.1627 -1.9771 -1.0337
 1432TIP3    H2 4303   3.132   0.569   1.094  2.8148  1.1213 -2.9899
 1433TIP3   OH2 4304   4.018   3.576   0.761  0.0329 -0.0529  0.5963
 1433TIP3    H1 4305   3.986   3.660   0.729  0.4107  0.2070  0.8985
 1433TIP3    H2 4306   3.996   3.514   0.691 -1.2537  0.0891  0.8375
 1434TIP3   OH2 4307   5.522   0.849   2.132 -0.0590  0.6221  0.5981
 1434TIP3    H1 4308   5.472   0.772   2.103 -0.2325  0.1820  2.0085
 1434TIP3    H2 4309   5.539   0.897   2.051  2.9082 -2.5063 -0.9132
 1435TIP3   OH2 4310   0.838   2.964   2.901 -0.1616 -0.1576  0.1337
 1435TIP3    H1 4311   0.841   3.051   2.860 -0.4668  0.5166  1.4647
 1435TIP3    H2 4312   0.755   2.964   2.950 -0.1501 -1.2003  0.1681
 1436TIP3   OH2 4313   4.263   2.928   3.729  0.9536  0.6690  0.5484
 1436TIP3    H1 4314   4.192   2.972   3.775  1.0428  0.0758  1.2765
 1436TIP3    H2 4315   4.259   2.962   3.640 -0.8794 -0.0847  0.2967
 1437TIP3   OH2 4316   3.266   2.296   2.204 -0.1833  0.1700 -0.2546
 1437TIP3    H1 4317   3.249   2.205   2.227 -0.8423  0.1136 -0.9292
 1437TIP3    H2 4318   3.257   2.344   2.286  0.7238 -0.4322  0.2168
 1438TIP3   OH2 4319   3.459   5.539   1.920  0.3028  0.6583  0.3598
 1438TIP3    H1 4320   3.536   5.597   1.919  1.2045 -0.3774  2.4437
 1438TIP3    H2 4321   3.412   5.559   1.839  2.8649  1.2112 -1.0984
 1439TIP3   OH2 4322   0.113   2.872   1.269  0.1461  0.2743 -0.2907
 1439TIP3    H1 4323   0.027   2.901   1.238 -0.3925 -1.2052 -0.2591
 1439TIP3    H2 4324   0.143   2.809   1.202  1.0633  0.5383 -0.1420
 1440TIP3   OH2 4325   2.261   5.665   1.191  0.2637 -0.4175 -0.3422
 1440TIP3    H1 4326   2.198   5.727   1.156 -0.6171 -1.6261 -0.9876
 1440TIP3    H2 4327   2.339   5.717   1.209 -1.2133  1.3318  1.4553
 1441TIP3   OH2 4328   3.787   2.803   3.717  0.5737 -0.7588  0.1611
 1441TIP3    H1 4329   3.692   2.789   3.713  0.0712  1.9075  1.0161
 1441TIP3    H2 4330   3.801   2.886   3.671  2.1348  0.1772  2.1616
 1442TIP3   OH2 4331   1.848   1.778   0.970 -0.7058 -0.2234  0.7015
 1442TIP3    H1 4332   1.758   1.746   0.977 -0.3571 -1.5918 -0.5631
 1442TIP3    H2 4333   1.886   1.728   0.898  1.2256 -0.0269  1.5125
 1443TIP3   OH2 4334   5.319   3.583   0.368 -0.0982  0.4658  0.1298
 1443TIP3    H1 4335   5.252   3.605   0.432 -0.9579  1.1952 -0.9942
 1443TIP3    H2 4336   5.350   3.497   0.395 -1.1512  0.3173  0.9330
 1444TIP3   OH2 4337   5.163   1.043   2.741  0.4204  0.4208 -0.1421
 1444TIP3    H1 4338   5.225   0.970   2.752 -1.8589 -1.8396 -1.2123
 1444TIP3    H2 4339   5.101   1.032   2.812 -0.7355  0.4253 -1.1151
 1445TIP3   OH2 4340   4.378   3.512   2.794 -0.5674  0.3877  0.1064
 1445TIP3    H1 4341   4.352   3.488   2.883  1.4010  1.9481  1.2012
 1445TIP3    H2 4342   4.456   3.459   2.777  0.0431  1.2954  0.0026
 1446TIP3   OH2 4343   3.866   1.973   5.103  0.2457  0.5964 -0.1404
 1446TIP3    H1 4344   3.801   1.903   5.114 -0.7284  1.4398 -0.3872
 1446TIP3    H2 4345   3.925   1.941   5.034  1.1198 -0.8945  1.2211
 1447TIP3   OH2 4346   4.444   1.848   1.959  0.4862  0.2432 -0.3101
 1447TIP3    H1 4347   4.447   1.802   1.875  1.5338  1.3266 -0.8894
 1447TIP3    H2 4348   4.373   1.911   1.950 -0.3008 -0.5442  0.1358
 1448TIP3   OH2 4349   1.192   5.074   1.466  0.0332 -0.2285 -0.3399
 1448TIP3    H1 4350   1.177   5.113   1.552 -1.8830 -1.7510  0.0906
 1448TIP3    H2 4351   1.105   5.066   1.427  0.4203 -2.7804 -0.9005
 1449TIP3   OH2 4352   6.153   4.553   5.072 -0.0526  0.5759 -0.1624
 1449TIP3    H1 4353   6.118   4.621   5.015 -0.8804 -0.4908 -0.9654
 1449TIP3    H2 4354   6.083   4.535   5.134  0.9107  1.8621  1.3735
 1450TIP3   OH2 4355   0.567   1.893   0.199  0.1828 -0.2894  0.2790
 1450TIP3    H1 4356   0.488   1.848   0.230  0.9985 -1.4268  0.7974
 1450TIP3    H2 4357   0.585   1.854   0.114 -0.4794  0.8479 -0.4116
 1451TIP3   OH2 4358   5.623   4.446   1.034  0.2913 -0.8403 -0.6397
 1451TIP3    H1 4359   5.687   4.458   0.964 -1.0897 -0.0783 -1.8279
 1451TIP3    H2 4360   5.676   4.425   1.111  2.1030  1.2434 -1.2035
 1452TIP3   OH2 4361   5.882   0.895   3.317 -0.3167  0.3979 -0.0406
 1452TIP3    H1 4362   5.888   0.979   3.272 -2.9395  0.7172  0.0256
 1452TIP3    H2 4363   5.890   0.918   3.410  1.2041  0.2396 -0.1079
 1453TIP3   OH2 4364   4.041   2.025   3.787  0.1761 -0.2807 -0.0999
 1453TIP3    H1 4365   4.092   2.062   3.860  1.1722 -0.6181 -0.6140
 1453TIP3    H2 4366   4.042   1.931   3.803  2.3732 -0.6125 -1.7360
 1454TIP3   OH2 4367   4.829   5.854   3.138 -0.0402  0.1922 -0.0535
 1454TIP3    H1 4368   4.809   5.948   3.142 -0.0156  0.1954 -0.0158
 1454TIP3    H2 4369   4.915   5.850   3.097  1.7922  0.4101  3.3836
 1455TIP3   OH2 4370   6.150   0.800   1.168  0.3377 -0.2831 -0.0543
 1455TIP3    H1 4371   6.166   0.884   1.125  0.0502 -0.8936 -1.3752
 1455TIP3    H2 4372   6.215   0.797   1.239 -0.5718  1.6696  0.9371
 1456TIP3   OH2 4373   3.207   4.280   3.222  0.0489  0.4485 -0.2469
 1456TIP3    H1 4374   3.132   4.246   3.173 -0.5226  0.8109  0.3753
 1456TIP3    H2 4375   3.170   4.345   3.282  0.9474  1.1643 -0.4413
 1457TIP3   OH2 4376   4.505   1.087   3.523 -0.0931 -0.0440  0.2357
 1457TIP3    H1 4377   4.447   1.107   3.450 -1.6327 -0.6548  1.2365
 1457TIP3    H2 4378   4.479   0.999   3.551  0.0255  0.4097  1.8805
 1458TIP3   OH2 4379   0.244   1.477   4.846 -0.1210 -0.5984  0.0647
 1458TIP3    H1 4380   0.152   1.474   4.820 -0.1393 -1.3391  0.2205
 1458TIP3    H2 4381   0.272   1.386   4.849  0.2394 -0.4552  1.4072
 1459TIP3   OH2 4382   1.076   0.772   2.448  0.2494  0.1389 -0.0170
 1459TIP3    H1 4383   1.002   0.831   2.459  0.1170  0.1322 -0.8331
 1459TIP3    H2 4384   1.043   0.701   2.393  0.7041 -0.1523  0.0748
 1460TIP3   OH2 4385   1.462   2.884   3.678  0.2840 -0.0903  0.2969
 1460TIP3    H1 4386   1.466   2.847   3.767 -0.7853  1.4590  1.0292
 1460TIP3    H2 4387   1.373   2.917   3.670  0.3010 -0.3885 -1.4626
 1461TIP3   OH2 4388   6.034   4.803   2.611  0.1022  0.7503  0.1872
 1461TIP3    H1 4389   5.971   4.740   2.576  0.5257  0.6509 -0.4003
 1461TIP3    H2 4390   6.086   4.754   2.674 -1.0048  1.0518  1.4062
 1462TIP3   OH2 4391   6.109   3.697   4.691 -0.6298  0.3811 -0.0330
 1462TIP3    H1 4392   6.192   3.722   4.731 -0.8622  0.9240  0.1101
 1462TIP3    H2 4393   6.130   3.618   4.640  0.7242  2.2163 -2.5911
 1463TIP3   OH2 4394   3.407   1.827   4.978 -0.1895 -0.3287 -0.1163
 1463TIP3    H1 4395   3.343   1.890   4.945  0.4416  0.4295  0.0747
 1463TIP3    H2 4396   3.471   1.819   4.907  1.0819  1.1803  0.7928
 1464TIP3   OH2 4397   6.025   5.829   2.720 -0.5720  0.6531 -0.1885
 1464TIP3    H1 4398   6.090   5.799   2.784  0.6276 -0.6221 -1.9263
 1464TIP3    H2 4399   5.941   5.818   2.765  0.2091 -0.3944  1.0929
 1465TIP3   OH2 4400   4.553   3.044   3.300  0.7656  0.1039 -0.1235
 1465TIP3    H1 4401   4.533   2.951   3.306 -0.0026  0.1836 -1.3003
 1465TIP3    H2 4402   4.648   3.047   3.289  0.5739 -0.6855 -2.4793
 1466TIP3   OH2 4403   4.302   3.295   2.343 -0.2531 -0.0658  0.2266
 1466TIP3    H1 4404   4.325   3.381   2.377  2.6551 -0.6572  0.0239
 1466TIP3    H2 4405   4.316   3.235   2.416  0.7020 -0.6908 -0.4435
 1467TIP3   OH2 4406   5.502   5.487   3.131 -0.2688  0.0102 -0.3828
 1467TIP3    H1 4407   5.507   5.563   3.073  1.6825  0.3582  0.1851
 1467TIP3    H2 4408   5.550   5.513   3.209  0.2391 -1.7168 -0.0815
 1468TIP3   OH2 4409   1.395   1.829   3.159 -0.2729 -0.1420 -0.1586
 1468TIP3    H1 4410   1.470   1.821   3.100  1.0275 -2.0751  1.6107
 1468TIP3    H2 4411   1.431   1.871   3.238 -1.1486 -0.6696  0.5357
 1469TIP3   OH2 4412   0.525   4.020   0.383 -0.2281  0.2418  0.1408
 1469TIP3    H1 4413   0.588   4.014   0.311  0.2103  0.7851  0.4725
 1469TIP3    H2 4414   0.560   3.962   0.450 -0.8705 -0.6106 -0.2478
 1470TIP3   OH2 4415   3.636   4.660   4.578  0.0139  0.0592  0.1219
 1470TIP3    H1 4416   3.646   4.587   4.639  2.0523  0.5805  0.4592
 1470TIP3    H2 4417   3.674   4.628   4.496 -0.8576  0.0909 -0.3134
 1471TIP3   OH2 4418   3.705   4.798   2.071 -0.0855 -0.0461 -0.3910
 1471TIP3    H1 4419   3.680   4.706   2.075  2.2230 -0.7034  0.8513
 1471TIP3    H2 4420   3.633   4.844   2.114 -0.7801 -1.3941 -0.0519
 1472TIP3   OH2 4421   5.303   1.988   0.167 -0.1996 -0.2038  0.6188
 1472TIP3    H1 4422   5.334   1.898   0.160 -0.8019 -0.3726 -0.0074
 1472TIP3    H2 4423   5.220   1.982   0.214 -1.1200 -0.2024 -0.9295
 1473TIP3   OH2 4424   4.555   3.994   1.868 -0.1523 -0.0131 -0.0343
 1473TIP3    H1 4425   4.593   4.074   1.906 -1.3374  0.2488  0.6599
 1473TIP3    H2 4426   4.488   4.026   1.808 -0.5122 -0.4888  0.1104
 1474TIP3   OH2 4427   4.726   5.867   3.662 -0.1322 -0.4164 -0.1174
 1474TIP3    H1 4428   4.727   5.820   3.578  2.6210  0.8840 -0.9130
 1474TIP3    H2 4429   4.790   5.821   3.716 -0.7380 -0.2844  0.7254
 1475TIP3   OH2 4430   3.081   0.443   2.952 -0.6678  0.6887 -0.1875
 1475TIP3    H1 4431   3.100   0.512   2.888 -0.3793  1.8391  1.0854
 1475TIP3    H2 4432   3.160   0.438   3.005 -1.0943  0.1254  0.4031
 1476TIP3   OH2 4433   3.854   3.090   3.176  0.0300 -0.4976  0.7931
 1476TIP3    H1 4434   3.867   3.105   3.082 -1.8953  0.9076  0.6935
 1476TIP3    H2 4435   3.784   3.024   3.180 -0.5783  0.1672  1.2222
 1477TIP3   OH2 4436   4.068   3.513   3.273  0.2288 -0.2946 -0.6823
 1477TIP3    H1 4437   4.139   3.467   3.228  2.2438  2.3867 -0.4210
 1477TIP3    H2 4438   4.070   3.478   3.362  1.5869  0.1063 -0.5377
 1478TIP3   OH2 4439   5.848   4.067   2.997  0.3370  0.1825 -0.1412
 1478TIP3    H1 4440   5.918   4.002   3.000 -0.9473 -1.3384 -1.3596
 1478TIP3    H2 4441   5.789   4.036   2.929 -2.2002  0.6960  1.6790
 1479TIP3   OH2 4442   4.288   1.053   3.823 -0.0416 -0.2550  0.0807
 1479TIP3    H1 4443   4.346   0.988   3.863 -0.2303  0.1920  1.0965
 1479TIP3    H2 4444   4.217   1.065   3.887 -0.1000  0.8213 -0.1759
 1480TIP3   OH2 4445   1.895   0.909   3.878 -0.5534 -0.1987 -0.0197
 1480TIP3    H1 4446   1.988   0.929   3.887 -0.6259  0.0697  0.1315
 1480TIP3    H2 4447   1.871   0.947   3.794 -0.2207 -1.4242 -0.6956
 1481TIP3   OH2 4448   1.901   5.355   4.818 -0.0404  0.2586 -0.4105
 1481TIP3    H1 4449   1.904   5.280   4.877 -0.7729 -0.2569 -1.0078
 1481TIP3    H2 4450   1.968   5.415   4.851  1.0206 -0.9444 -0.3129
 1482TIP3   OH2 4451   3.493   2.080   4.070  0.3626  0.0007  0.0028
 1482TIP3    H1 4452   3.504   2.160   4.120  0.5186  1.1140 -1.7228
 1482TIP3    H2 4453   3.433   2.104   3.999 -1.9864 -2.1917  1.0879
 1483TIP3   OH2 4454   3.972   0.230   3.132 -0.0221 -0.2714 -0.1466
 1483TIP3    H1 4455   3.889   0.277   3.124 -0.7807 -1.5437  0.0466
 1483TIP3    H2 4456   4.017   0.245   3.049  0.3965  1.9325  0.4125
 1484TIP3   OH2 4457   0.731   4.450   3.725 -0.9398  0.2276 -0.5431
 1484TIP3    H1 4458   0.785   4.479   3.651  0.7544  1.4528  1.0736
 1484TIP3    H2 4459   0.763   4.363   3.745  0.1757  0.7755  0.1278
 1485TIP3   OH2 4460   0.229   3.992   5.052 -0.3669 -0.4393 -0.3717
 1485TIP3    H1 4461   0.221   3.967   4.960 -1.6220  0.7630 -0.6294
 1485TIP3    H2 4462   0.245   3.910   5.098 -2.3640 -1.4686 -1.3713
 1486TIP3   OH2 4463   3.886   5.256   1.617  0.6887 -0.0974 -0.4558
 1486TIP3    H1 4464   3.838   5.302   1.685  1.8464  1.2541 -0.5045
 1486TIP3    H2 4465   3.833   5.269   1.538  0.3500  0.0391 -0.2093
 1487TIP3   OH2 4466   2.633   4.897   3.494  0.0419 -0.0370  0.3144
 1487TIP3    H1 4467   2.665   4.947   3.568  0.4886 -0.5958  0.5048
 1487TIP3    H2 4468   2.567   4.953   3.453 -0.7650 -0.0327  1.5766
 1488TIP3   OH2 4469   6.350   0.584   0.391  0.2648  0.8803  0.1285
 1488TIP3    H1 4470   6.325   0.494   0.372  0.9574  0.7037  0.0148
 1488TIP3    H2 4471   6.355   0.627   0.306 -0.8453  1.2429  0.2419
 1489TIP3   OH2 4472   3.586   0.131   5.006  0.1311  0.1814  0.1273
 1489TIP3    H1 4473   3.637   0.051   4.994  0.7970  0.5066  0.7077
 1489TIP3    H2 4474   3.568   0.134   5.100 -2.1745 -0.6478 -0.2330
 1490TIP3   OH2 4475   0.817   5.127   1.589 -0.1538  0.1905 -0.4881
 1490TIP3    H1 4476   0.873   5.106   1.664 -0.3384 -0.4890 -0.5264
 1490TIP3    H2 4477   0.803   5.221   1.594 -0.8828  0.0377  0.8501
 1491TIP3   OH2 4478   5.896   3.442   0.615  0.1103  0.1842 -0.0078
 1491TIP3    H1 4479   5.803   3.449   0.595 -0.2746 -0.9407  1.3048
 1491TIP3    H2 4480   5.940   3.468   0.533 -1.3577 -0.8698 -1.1844
 1492TIP3   OH2 4481   0.326   3.816   0.788 -0.6669 -0.0186 -0.2431
 1492TIP3    H1 4482   0.308   3.751   0.719 -2.6806  1.8922 -1.6632
 1492TIP3    H2 4483   0.260   3.884   0.774  1.1021  2.1718  1.4185
 1493TIP3   OH2 4484   0.714   1.236   2.303 -0.1607  0.1620 -0.1627
 1493TIP3    H1 4485   0.635   1.235   2.249  0.8400 -0.8021 -1.6927
 1493TIP3    H2 4486   0.751   1.324   2.291 -0.2765  0.1557 -0.5738
 1494TIP3   OH2 4487   3.493   3.302   0.875 -0.0099  0.1904 -0.8312
 1494TIP3    H1 4488   3.506   3.341   0.789  2.2742 -0.7657 -0.9807
 1494TIP3    H2 4489   3.490   3.208   0.858  1.0678 -0.0447  0.1764
 1495TIP3   OH2 4490   0.350   4.840   1.040 -0.3532 -0.4719  0.4741
 1495TIP3    H1 4491   0.337   4.817   0.947 -1.2526  0.8750  0.2373
 1495TIP3    H2 4492   0.442   4.823   1.056 -0.0003  0.0010 -0.8979
 1496TIP3   OH2 4493   5.680   1.112   2.254 -0.5985 -0.0525 -0.5840
 1496TIP3    H1 4494   5.669   1.204   2.231 -2.4292  0.3318  1.5235
 1496TIP3    H2 4495   5.627   1.065   2.190  1.2187  0.1624 -2.3732
 1497TIP3   OH2 4496   3.118   1.533   3.927  0.5463 -0.2263  0.1542
 1497TIP3    H1 4497   3.114   1.609   3.870 -0.3219  0.1379  0.6659
 1497TIP3    H2 4498   3.039   1.540   3.981  0.5407 -1.3960  0.3260
 1498TIP3   OH2 4499   1.219   2.855   1.570  0.1287  0.3270 -0.1036
 1498TIP3    H1 4500   1.292   2.915   1.587 -0.5598  1.1900 -0.1560
 1498TIP3    H2 4501   1.143   2.898   1.609 -0.4247 -0.3851 -0.3830
 1499TIP3   OH2 4502   3.600   0.773   1.536 -0.3555  0.4044  0.6062
 1499TIP3    H1 4503   3.553   0.824   1.471 -2.3117 -0.1490  1.4896
 1499TIP3    H2 4504   3.602   0.684   1.500  3.2791  0.9933 -1.0551
 1500TIP3   OH2 4505   1.066   5.259   2.371 -0.2342  0.2255 -0.2101
 1500TIP3    H1 4506   0.988   5.206   2.354  0.0055 -0.4366  0.6547
 1500TIP3    H2 4507   1.138   5.206   2.336 -0.0507  0.2393  0.1429
 1501TIP3   OH2 4508   2.181   4.705   3.180  0.0594 -0.2387  0.0664
 1501TIP3    H1 4509   2.246   4.636   3.194  0.3020 -0.0447 -0.1012
 1501TIP3    H2 4510   2.191   4.764   3.254  0.9582  0.4845 -0.6062
 1502TIP3   OH2 4511   3.153   5.463   2.631 -0.1187 -0.3171  0.5123
 1502TIP3    H1 4512   3.167   5.398   2.701 -1.1405 -1.2574 -0.1330
 1502TIP3    H2 4513   3.173   5.416   2.550  1.0634  0.7702  0.1337
 1503TIP3   OH2 4514   5.215   4.713   2.869  0.5221  0.0835 -0.4033
 1503TIP3    H1 4515   5.202   4.712   2.964  0.0728 -0.0635 -0.4656
 1503TIP3    H2 4516   5.136   4.674   2.833  1.4814 -1.6866 -0.7446
 1504TIP3   OH2 4517   5.678   1.150   3.390 -0.5809  0.1099 -0.9607
 1504TIP3    H1 4518   5.743   1.159   3.321 -0.5124 -0.5557 -0.9941
 1504TIP3    H2 4519   5.614   1.219   3.373  0.9949  1.9471  0.0912
 1505TIP3   OH2 4520   1.437   2.743   3.427 -0.3857 -0.1889  0.0571
 1505TIP3    H1 4521   1.456   2.793   3.506 -1.8998 -0.4433  0.6176
 1505TIP3    H2 4522   1.517   2.749   3.375  0.9093 -0.5704  1.8879
 1506TIP3   OH2 4523   3.425   0.474   1.767  0.0314  0.7263 -0.2091
 1506TIP3    H1 4524   3.382   0.528   1.701 -0.4883 -0.5628 -0.9627
 1506TIP3    H2 4525   3.358   0.460   1.834 -0.4871 -0.5548 -0.9583
 1507TIP3   OH2 4526   5.244   1.367   4.942 -0.5117 -0.0276  0.0549
 1507TIP3    H1 4527   5.296   1.295   4.977  0.3667  0.9922  0.9085
 1507TIP3    H2 4528   5.284   1.446   4.978 -0.9345  0.9576 -1.5142
 1508TIP3   OH2 4529   3.048   1.182   0.772  0.3650 -0.6596  0.3984
 1508TIP3    H1 4530   3.020   1.274   0.775 -0.8033 -0.8522 -2.2109
 1508TIP3    H2 4531   2.983   1.136   0.825 -0.5054 -0.2734 -0.3115
 1509TIP3   OH2 4532   3.306   0.181   1.925 -0.1204 -0.1777 -0.4259
 1509TIP3    H1 4533   3.284   0.100   1.878  0.2707 -0.3661 -0.2825
 1509TIP3    H2 4534   3.395   0.201   1.898  0.0093 -0.1396  0.0268
 1510TIP3   OH2 4535   1.926   5.602   3.292 -0.4495  0.0107 -0.4756
 1510TIP3    H1 4536   1.871   5.680   3.296  1.7613  1.6063  1.6917
 1510TIP3    H2 4537   1.905   5.553   3.372  0.4230  0.0355 -0.2210
 1511TIP3   OH2 4538   3.099   2.048   1.510  0.3306 -0.2667 -0.5820
 1511TIP3    H1 4539   3.150   1.972   1.537  0.1892  0.3375  1.5495
 1511TIP3    H2 4540   3.165   2.114   1.487  0.4627 -0.5017 -0.8906
 1512TIP3   OH2 4541   3.382   5.921   4.232  0.4134 -0.0435 -0.6653
 1512TIP3    H1 4542   3.304   5.870   4.213 -0.2133  0.7760 -0.3859
 1512TIP3    H2 4543   3.446   5.894   4.166  0.5814 -2.1367  0.2726
 1513TIP3   OH2 4544   1.350   2.174   3.112 -0.0438  0.1646  0.2643
 1513TIP3    H1 4545   1.333   2.138   3.199 -1.0660 -0.5013 -0.1975
 1513TIP3    H2 4546   1.271   2.155   3.062  0.1813  1.3056 -0.5723
 1514TIP3   OH2 4547   1.253   4.339   4.939 -0.2310 -0.3768 -0.2390
 1514TIP3    H1 4548   1.249   4.292   4.856 -1.3595 -0.7066 -0.0035
 1514TIP3    H2 4549   1.335   4.309   4.979 -0.2060 -1.0147 -0.7545
 1515TIP3   OH2 4550   2.034   5.168   3.763 -0.3406  0.1090 -0.8876
 1515TIP3    H1 4551   2.048   5.077   3.789  1.6798  0.6018 -0.0679
 1515TIP3    H2 4552   1.940   5.181   3.776 -0.2713 -1.1151  1.6174
 1516TIP3   OH2 4553   0.317   2.815   5.118  0.1254  0.2042  0.1070
 1516TIP3    H1 4554   0.290   2.789   5.206 -1.5085  1.1491 -0.0669
 1516TIP3    H2 4555   0.273   2.752   5.060 -0.0930  0.5395 -0.0964
 1517TIP3   OH2 4556   0.227   4.677   4.919 -0.2069  0.1384 -0.1014
 1517TIP3    H1 4557   0.256   4.632   4.839 -1.0634  0.3701 -0.5538
 1517TIP3    H2 4558   0.192   4.606   4.974  1.0455 -0.1200  0.3823
 1518TIP3   OH2 4559   1.701   0.022   0.740 -0.1361  0.4450 -0.0567
 1518TIP3    H1 4560   1.678   0.004   0.831  1.9329  0.9276  0.6291
 1518TIP3    H2 4561   1.793   0.049   0.743  0.2611 -0.3517 -2.3990
 1519TIP3   OH2 4562   3.313   1.057   4.251 -0.2215  0.1532  0.5840
 1519TIP3    H1 4563   3.293   1.000   4.325  0.6840  0.4962  1.1028
 1519TIP3    H2 4564   3.365   1.129   4.288 -0.7163  0.9365 -0.1827
 1520TIP3   OH2 4565   1.306   0.365   4.080  0.2352  0.1739  0.1033
 1520TIP3    H1 4566   1.263   0.451   4.080  1.2964  0.7560 -1.6379
 1520TIP3    H2 4567   1.400   0.386   4.087  0.4386 -0.9462  1.2353
 1521TIP3   OH2 4568   2.104   4.072   3.319 -0.2231  0.5027 -0.4719
 1521TIP3    H1 4569   2.074   4.162   3.316 -2.1147 -0.0030  1.0933
 1521TIP3    H2 4570   2.044   4.024   3.262  0.9619  0.2363 -1.5533
 1522TIP3   OH2 4571   0.764   1.559   0.892  0.2548 -0.5406  0.2933
 1522TIP3    H1 4572   0.784   1.465   0.892 -0.7684 -0.8005 -1.2308
 1522TIP3    H2 4573   0.708   1.571   0.815  1.4909  1.5830 -0.3322
 1523TIP3   OH2 4574   3.950   1.843   2.623 -0.3189  0.1423 -0.0321
 1523TIP3    H1 4575   4.029   1.793   2.643  0.0005 -0.1526 -1.8798
 1523TIP3    H2 4576   3.912   1.798   2.547 -0.5160  2.1230 -1.1688
 1524TIP3   OH2 4577   4.352   2.053   1.340 -0.0315 -0.3910  0.0158
 1524TIP3    H1 4578   4.280   1.996   1.314 -0.7779 -1.6408  4.1688
 1524TIP3    H2 4579   4.417   1.995   1.379  2.2296  1.0006 -1.3841
 1525TIP3   OH2 4580   1.428   0.037   3.744 -0.8184  0.3040  0.0032
 1525TIP3    H1 4581   1.358   0.086   3.701 -2.4938 -1.7343  0.2515
 1525TIP3    H2 4582   1.398   0.028   3.834  0.1512  0.0640  0.3068
 1526TIP3   OH2 4583   0.748   0.484   2.950  0.5459  0.7032 -0.5037
 1526TIP3    H1 4584   0.660   0.517   2.969  0.5088  0.9461 -1.1040
 1526TIP3    H2 4585   0.806   0.536   3.007  0.5045  1.9180 -1.5357
 1527TIP3   OH2 4586   1.376   5.835   4.773 -0.1691  0.2156  0.4966
 1527TIP3    H1 4587   1.291   5.865   4.741 -1.0175 -1.0814  1.4347
 1527TIP3    H2 4588   1.437   5.861   4.705 -1.0267  2.7004  0.5659
 1528TIP3   OH2 4589   4.392   2.905   4.034  0.2015 -0.9002 -0.2794
 1528TIP3    H1 4590   4.483   2.908   4.004 -0.0822 -0.1641 -1.1026
 1528TIP3    H2 4591   4.378   2.813   4.059  1.2778 -0.9413  0.2139
 1529TIP3   OH2 4592   2.024   1.286   2.427  0.1928  0.0732 -0.1946
 1529TIP3    H1 4593   2.012   1.365   2.480  1.2979  1.1926 -1.5264
 1529TIP3    H2 4594   2.023   1.214   2.490 -3.0731  0.8636  0.8523
 1530TIP3   OH2 4595   6.184   1.646   0.218  0.0464  0.1447  0.2069
 1530TIP3    H1 4596   6.185   1.707   0.292 -1.4466  1.3306 -0.6832
 1530TIP3    H2 4597   6.141   1.567   0.252  2.1806 -0.5817  1.4260
 1531TIP3   OH2 4598   2.128   3.315   4.150 -0.2059  0.2006 -0.4546
 1531TIP3    H1 4599   2.117   3.221   4.135 -0.7028  0.1311  0.2852
 1531TIP3    H2 4600   2.148   3.351   4.064 -3.7693 -0.0392 -1.5173
 1532TIP3   OH2 4601   3.304   1.298   3.854  0.2171 -0.4102  0.3986
 1532TIP3    H1 4602   3.256   1.280   3.773 -0.6513  1.3970  0.4703
 1532TIP3    H2 4603   3.250   1.362   3.900  2.0775  0.7429  1.0752
 1533TIP3   OH2 4604   4.882   5.147   0.667 -0.0962 -0.5435  0.5114
 1533TIP3    H1 4605   4.886   5.051   0.666 -0.5416 -0.5705  1.1273
 1533TIP3    H2 4606   4.950   5.173   0.729 -1.6476 -0.5731  2.3034
 1534TIP3   OH2 4607   2.307   3.564   2.508 -0.2672 -0.2330 -0.4609
 1534TIP3    H1 4608   2.278   3.477   2.532 -1.1139 -0.2123 -1.3358
 1534TIP3    H2 4609   2.233   3.621   2.528 -0.4245 -0.0050 -1.6195
 1535TIP3   OH2 4610   5.012   0.054   2.838  0.5224 -0.0278 -0.0846
 1535TIP3    H1 4611   4.925   0.022   2.863 -0.0361  0.4625 -1.3168
 1535TIP3    H2 4612   5.070  -0.022   2.849  0.2716  0.0405  2.2354
 1536TIP3   OH2 4613   0.585   3.965   2.026 -0.4028 -0.3014 -0.0651
 1536TIP3    H1 4614   0.571   3.971   1.932 -1.8398 -1.1773  0.0556
 1536TIP3    H2 4615   0.509   3.917   2.058  1.5619 -2.8966  1.1371
 1537TIP3   OH2 4616   2.050   0.342   1.983 -0.4459  0.2382  0.7081
 1537TIP3    H1 4617   2.027   0.301   1.899  1.5564 -0.7002  0.5513
 1537TIP3    H2 4618   2.101   0.275   2.029 -1.4438  0.7529  2.6830
 1538TIP3   OH2 4619   0.907   4.119   4.609 -0.5946  0.3932  0.0328
 1538TIP3    H1 4620   0.876   4.173   4.536 -1.1572 -0.6127 -0.4959
 1538TIP3    H2 4621   0.877   4.166   4.687 -2.1219  0.2622 -0.4340
 1539TIP3   OH2 4622   3.247   1.242   4.515 -0.1314  0.0990  0.0321
 1539TIP3    H1 4623   3.309   1.233   4.588 -1.7008 -0.7309  1.3393
 1539TIP3    H2 4624   3.241   1.336   4.500  1.5020  0.1923 -0.2108
 1540TIP3   OH2 4625   5.386   3.141   0.063  0.6801  0.0739 -0.0064
 1540TIP3    H1 4626   5.382   3.071  -0.002  0.4728  0.4627 -0.4138
 1540TIP3    H2 4627   5.312   3.124   0.122  0.4796  0.1008 -0.2529
 1541TIP3   OH2 4628   4.809   1.398   2.936 -0.6701 -0.5169  0.5803
 1541TIP3    H1 4629   4.780   1.345   2.862 -1.0191  2.0617 -1.2688
 1541TIP3    H2 4630   4.742   1.466   2.944  0.9359  1.0647  1.2141
 1542TIP3   OH2 4631   2.962   0.675   5.030  0.1117  0.1853 -0.4889
 1542TIP3    H1 4632   2.981   0.582   5.038  0.8546  0.4053  0.5251
 1542TIP3    H2 4633   2.878   0.679   4.985 -1.0798 -1.0446  1.5025
 1543TIP3   OH2 4634   4.135   5.347   3.865 -0.1027 -0.4234  0.3618
 1543TIP3    H1 4635   4.191   5.310   3.933 -1.5951 -2.1930  0.7007
 1543TIP3    H2 4636   4.046   5.342   3.901 -0.7058  0.6131 -0.8732
 1544TIP3   OH2 4637   0.102   4.515   0.895  0.2829  0.4227  0.1301
 1544TIP3    H1 4638   0.024   4.497   0.843 -0.1121 -1.0229  1.1458
 1544TIP3    H2 4639   0.117   4.434   0.944  2.4885  0.6200 -0.1028
 1545TIP3   OH2 4640   3.468   5.724   0.275 -0.9196  0.0796 -0.0139
 1545TIP3    H1 4641   3.404   5.792   0.250  0.1502  1.1273 -0.0123
 1545TIP3    H2 4642   3.419   5.666   0.332 -2.1168  0.3482 -0.7139
 1546TIP3   OH2 4643   6.127   1.994   0.050  0.1370  0.0930 -0.0693
 1546TIP3    H1 4644   6.043   1.953   0.026  0.3161 -0.4460  0.2080
 1546TIP3    H2 4645   6.104   2.055   0.120 -0.0994  0.3351 -0.3491
 1547TIP3   OH2 4646   5.996   2.428   2.346  0.0198  0.3628 -0.4857
 1547TIP3    H1 4647   5.994   2.424   2.442  1.2976 -1.7774 -0.4832
 1547TIP3    H2 4648   5.936   2.499   2.324  1.2185  2.3384  1.9779
 1548TIP3   OH2 4649   1.679   2.858   3.266 -0.1667 -0.3921 -0.3792
 1548TIP3    H1 4650   1.638   2.944   3.260 -0.7032 -0.6456 -0.4016
 1548TIP3    H2 4651   1.695   2.832   3.175 -0.5444 -0.5710 -0.3946
 1549TIP3   OH2 4652   0.833   0.855   3.355 -0.3256 -0.3588  0.5213
 1549TIP3    H1 4653   0.848   0.811   3.438 -1.9009 -0.0164  1.0219
 1549TIP3    H2 4654   0.918   0.890   3.330  0.5256 -1.8974  1.1396
 1550TIP3   OH2 4655   4.031   3.848   3.768 -0.3697  0.0521 -0.0302
 1550TIP3    H1 4656   3.987   3.764   3.753 -0.2216 -0.2626  1.1417
 1550TIP3    H2 4657   4.118   3.837   3.729 -0.0820 -0.6364  0.7607
 1551TIP3   OH2 4658   4.770   0.328   4.792  0.6873 -0.2480 -0.2026
 1551TIP3    H1 4659   4.846   0.373   4.830  1.2286 -1.1940 -0.1413
 1551TIP3    H2 4660   4.704   0.397   4.783  0.8385  0.2041  1.6279
 1552TIP3   OH2 4661   3.609   3.489   1.240 -0.3510  0.1751 -0.0429
 1552TIP3    H1 4662   3.625   3.445   1.324 -1.3857 -0.7997 -0.3454
 1552TIP3    H2 4663   3.664   3.442   1.177  1.6325  1.8638  0.2893
 1553TIP3   OH2 4664   0.449   5.188   1.169  0.3257 -0.1286 -0.4610
 1553TIP3    H1 4665   0.462   5.274   1.207 -0.6329 -0.0523 -0.2706
 1553TIP3    H2 4666   0.521   5.135   1.204 -0.0969  0.1305  0.8751
 1554TIP3   OH2 4667   4.676   5.612   2.083  0.4637 -0.4035  0.1188
 1554TIP3    H1 4668   4.686   5.680   2.150  0.3242 -0.2805  0.0131
 1554TIP3    H2 4669   4.766   5.594   2.055  0.3738  1.8178 -1.9512
 1555TIP3   OH2 4670   0.653   5.104   2.875 -0.2369 -0.3927 -0.2890
 1555TIP3    H1 4671   0.619   5.192   2.859  0.8558  0.0717 -0.1372
 1555TIP3    H2 4672   0.581   5.058   2.918 -1.3394 -0.0312 -1.6514
 1556TIP3   OH2 4673   3.184   2.923   0.011  0.2532  0.4656 -0.6687
 1556TIP3    H1 4674   3.280   2.928   0.009  0.3549 -0.3117  1.0159
 1556TIP3    H2 4675   3.159   2.976   0.086 -0.3862 -1.8230  0.8329
 1557TIP3   OH2 4676   1.268   5.757   0.084  0.2377  0.3072 -0.4911
 1557TIP3    H1 4677   1.210   5.718   0.150  0.9737 -0.4663 -0.2935
 1557TIP3    H2 4678   1.264   5.851   0.102  1.4760  0.0267  1.5600
 1558TIP3   OH2 4679   1.768   4.910   0.795  0.2615 -0.0700  0.1489
 1558TIP3    H1 4680   1.720   4.847   0.740  1.2985 -0.2610 -0.5680
 1558TIP3    H2 4681   1.728   4.994   0.775 -0.9463 -0.4407  0.8962
 1559TIP3   OH2 4682   5.739   0.857   2.942 -0.0149  0.0852 -0.4931
 1559TIP3    H1 4683   5.820   0.813   2.965 -0.0194  0.0658 -0.5146
 1559TIP3    H2 4684   5.703   0.887   3.026  0.3124  0.6160 -0.5377
 1560TIP3   OH2 4685   1.086   1.229   3.198  0.4238  0.2252 -0.0074
 1560TIP3    H1 4686   1.138   1.284   3.138  1.1156  0.5707  0.8894
 1560TIP3    H2 4687   0.996   1.260   3.186  0.9974  2.9157  1.8275
 1561TIP3   OH2 4688   5.756   1.405   4.405 -0.3428 -0.3470 -0.4535
 1561TIP3    H1 4689   5.767   1.338   4.338  0.4905  1.8763 -2.7024
 1561TIP3    H2 4690   5.842   1.411   4.447 -0.1709 -0.1104 -0.8352
 1562TIP3   OH2 4691   0.344   1.438   4.563 -0.0225  0.6284  0.3339
 1562TIP3    H1 4692   0.336   1.489   4.643 -1.7433  1.8963 -0.5907
 1562TIP3    H2 4693   0.369   1.502   4.496 -0.2431 -0.1101 -0.4683
 1563TIP3   OH2 4694   1.308   3.777   2.048  0.4645 -0.2111 -0.2676
 1563TIP3    H1 4695   1.363   3.765   1.970  0.6428  0.2863 -0.2236
 1563TIP3    H2 4696   1.253   3.699   2.051  0.7879 -0.4550 -0.6255
 1564TIP3   OH2 4697   0.099   1.135   1.256 -0.1992 -0.3143  0.8510
 1564TIP3    H1 4698   0.121   1.227   1.263  0.5529 -0.6237  3.7887
 1564TIP3    H2 4699   0.174   1.096   1.211 -0.7538  0.5058 -0.8781
 1565TIP3   OH2 4700   5.778   2.313   4.592  0.4943 -0.2712 -0.7929
 1565TIP3    H1 4701   5.699   2.268   4.561 -0.3175  2.2980 -2.8585
 1565TIP3    H2 4702   5.767   2.319   4.687 -1.2546 -0.9533 -0.9163
 1566TIP3   OH2 4703   4.917   2.584   4.573  0.3016 -0.3146  0.1893
 1566TIP3    H1 4704   4.961   2.555   4.653  1.2111  1.6358  0.4516
 1566TIP3    H2 4705   4.891   2.674   4.592 -2.7989 -0.9627 -0.4112
 1567TIP3   OH2 4706   4.212   2.105   3.320  0.1962 -0.3667 -0.4882
 1567TIP3    H1 4707   4.232   2.013   3.305  0.1792 -0.4333 -0.1070
 1567TIP3    H2 4708   4.140   2.104   3.383  0.2499 -0.0922 -0.4209
 1568TIP3   OH2 4709   4.267   4.656   1.749  0.1720 -0.2753  0.1719
 1568TIP3    H1 4710   4.313   4.660   1.834  0.0746  0.2279  0.2014
 1568TIP3    H2 4711   4.303   4.729   1.699 -0.5104  0.0548  0.1519
 1569TIP3   OH2 4712   3.222   0.172   2.801 -0.3691 -0.5388 -0.3725
 1569TIP3    H1 4713   3.306   0.133   2.824 -0.2485 -0.6428 -0.9849
 1569TIP3    H2 4714   3.243   0.241   2.738 -0.5969  0.4407  0.5942
 1570TIP3   OH2 4715   4.356   3.773   2.708 -0.1310  0.1727  0.2913
 1570TIP3    H1 4716   4.450   3.776   2.696 -0.2546  2.2244 -0.6306
 1570TIP3    H2 4717   4.341   3.695   2.761  2.1161  0.0671  0.8794
 1571TIP3   OH2 4718   0.028   1.594   0.467  0.3443 -0.2969 -0.0315
 1571TIP3    H1 4719  -0.060   1.624   0.442  0.4126  0.9928  1.1182
 1571TIP3    H2 4720   0.085   1.669   0.447  1.4776 -1.6427 -2.1673
 1572TIP3   OH2 4721   4.529   1.071   4.653  0.3040 -0.0239 -0.1135
 1572TIP3    H1 4722   4.500   1.018   4.727  2.7252 -1.2826  0.0226
 1572TIP3    H2 4723   4.479   1.039   4.579 -1.3952  0.5381  0.7313
 1573TIP3   OH2 4724   0.592   4.160   4.405  0.3356 -0.0108  0.4464
 1573TIP3    H1 4725   0.557   4.136   4.319 -0.9101  1.7048  0.4203
 1573TIP3    H2 4726   0.679   4.194   4.387  1.1918 -2.1538  0.2269
 1574TIP3   OH2 4727   5.013   0.306   2.752  0.1246 -0.7174 -0.6161
 1574TIP3    H1 4728   4.997   0.217   2.781 -0.0448  0.4556  3.5277
 1574TIP3    H2 4729   5.096   0.331   2.793  0.5026  0.8729 -2.1958
 1575TIP3   OH2 4730   1.809   3.770   0.630  0.0943  0.1720 -0.1613
 1575TIP3    H1 4731   1.723   3.805   0.654  0.3291  0.6221  0.0443
 1575TIP3    H2 4732   1.822   3.695   0.688 -0.9775 -1.1023 -1.4783
 1576TIP3   OH2 4733   0.106   2.770   4.818 -0.0770  0.2047  0.6566
 1576TIP3    H1 4734   0.105   2.752   4.724  0.7347 -1.1828  0.8866
 1576TIP3    H2 4735   0.100   2.865   4.825 -1.4963  0.2526 -0.7544
 1577TIP3   OH2 4736   4.167   1.636   3.124  0.4923  0.5348 -0.1790
 1577TIP3    H1 4737   4.249   1.604   3.160  0.3626  0.3371 -0.0558
 1577TIP3    H2 4738   4.192   1.681   3.043  0.5465 -0.9552 -1.0150
 1578TIP3   OH2 4739   4.427   3.544   4.687 -0.0556 -0.6959  0.1053
 1578TIP3    H1 4740   4.438   3.471   4.626 -0.7255 -1.1353  0.5067
 1578TIP3    H2 4741   4.512   3.589   4.686 -0.0403 -0.7320 -1.1023
 1579TIP3   OH2 4742   3.450   3.862   2.498  0.0248 -0.1552  0.0665
 1579TIP3    H1 4743   3.481   3.948   2.528  0.9820 -0.5796  0.3203
 1579TIP3    H2 4744   3.403   3.827   2.573 -2.3502  1.0597 -0.7551
 1580TIP3   OH2 4745   2.279   0.583   4.826 -0.2047 -0.1812  0.1575
 1580TIP3    H1 4746   2.299   0.514   4.762 -1.3915 -1.0558  0.6759
 1580TIP3    H2 4747   2.259   0.535   4.906  1.3979  0.9005  1.2514
 1581TIP3   OH2 4748   3.364   3.124   4.246 -0.1056 -0.7816  0.2613
 1581TIP3    H1 4749   3.440   3.071   4.220 -0.1449 -0.1377 -1.2378
 1581TIP3    H2 4750   3.291   3.088   4.195 -0.1503  0.6371 -0.7310
 1582TIP3   OH2 4751   5.816   1.290   2.918 -0.2710  0.3053 -0.5823
 1582TIP3    H1 4752   5.887   1.238   2.881 -1.0479 -0.3100 -1.2379
 1582TIP3    H2 4753   5.822   1.374   2.872 -0.4616 -0.0276 -1.2351
 1583TIP3   OH2 4754   4.066   5.776   1.673  0.0292 -0.2386 -0.2800
 1583TIP3    H1 4755   4.119   5.771   1.753 -0.2610 -1.5926 -0.1639
 1583TIP3    H2 4756   4.017   5.858   1.683  1.5440  0.6950 -0.0619
 1584TIP3   OH2 4757   2.248   1.304   2.870  0.2141 -0.3298  0.0423
 1584TIP3    H1 4758   2.167   1.284   2.916 -1.7056  1.3070 -2.3666
 1584TIP3    H2 4759   2.274   1.221   2.829  1.7942 -1.7358  3.5330
 1585TIP3   OH2 4760   5.410   5.167   1.045  0.4177  0.4595  0.3219
 1585TIP3    H1 4761   5.322   5.132   1.031  1.1271 -1.7143  0.8692
 1585TIP3    H2 4762   5.461   5.092   1.074  1.6390  2.3435  3.6332
 1586TIP3   OH2 4763   3.380   5.131   4.036 -0.3012 -0.4700  0.0814
 1586TIP3    H1 4764   3.300   5.161   3.994 -0.9107  1.8330  2.5827
 1586TIP3    H2 4765   3.362   5.040   4.060 -2.0069 -0.1218  0.2360
 1587TIP3   OH2 4766   3.454   5.143   2.714 -0.2980 -0.2208  0.0610
 1587TIP3    H1 4767   3.478   5.184   2.797  1.5464 -0.4635 -0.2931
 1587TIP3    H2 4768   3.370   5.101   2.731 -0.6351  0.9165  1.3793
 1588TIP3   OH2 4769   4.629   3.719   3.597 -0.5248 -0.1513  0.0487
 1588TIP3    H1 4770   4.612   3.812   3.585  0.7152 -0.1173 -1.8345
 1588TIP3    H2 4771   4.717   3.706   3.563  0.2028 -1.6569  2.2675
 1589TIP3   OH2 4772   2.596   1.734   3.153 -0.1204 -0.0815  0.5447
 1589TIP3    H1 4773   2.664   1.788   3.113  0.3492 -0.5908  0.6544
 1589TIP3    H2 4774   2.533   1.798   3.187  0.9002  0.4471  1.5206
 1590TIP3   OH2 4775   2.620   0.163   4.396  0.1275  0.2198 -0.2212
 1590TIP3    H1 4776   2.640   0.094   4.459 -0.3963 -0.2060 -0.5089
 1590TIP3    H2 4777   2.623   0.244   4.446 -0.0021 -0.0889  0.2898
 1591TIP3   OH2 4778   3.545   3.001   3.870  0.0800  0.3083  0.3511
 1591TIP3    H1 4779   3.634   3.024   3.897 -0.4598  2.0773  0.7902
 1591TIP3    H2 4780   3.517   3.074   3.815 -1.4796  0.3579  1.1249
 1592TIP3   OH2 4781   1.296   4.784   4.842  0.2926  0.0608 -0.0499
 1592TIP3    H1 4782   1.258   4.698   4.826  1.3847 -0.5726  0.5638
 1592TIP3    H2 4783   1.226   4.846   4.824 -1.6503 -1.0973  2.8353
 1593TIP3   OH2 4784   0.849   3.061   2.449 -0.0205 -0.1489 -0.1895
 1593TIP3    H1 4785   0.783   2.992   2.437  1.4699 -1.8422  0.8062
 1593TIP3    H2 4786   0.888   3.072   2.362 -1.3203  0.6221 -0.7103
 1594TIP3   OH2 4787   3.801   5.695   3.425 -0.4629 -0.7011  0.0720
 1594TIP3    H1 4788   3.711   5.665   3.409 -0.4987 -0.5069 -0.0923
 1594TIP3    H2 4789   3.855   5.641   3.368 -0.2706 -2.1543  1.5542
 1595TIP3   OH2 4790   3.700   1.344   2.898 -0.0235  0.8579 -0.2278
 1595TIP3    H1 4791   3.663   1.428   2.871 -0.8969  0.2932 -0.8414
 1595TIP3    H2 4792   3.751   1.364   2.977 -3.9695  1.2415  2.4907
 1596TIP3   OH2 4793   1.531   0.058   1.342  0.0753 -0.3378 -0.2351
 1596TIP3    H1 4794   1.465   0.073   1.410 -0.3300 -0.8992 -0.4956
 1596TIP3    H2 4795   1.484   0.068   1.260  0.1268 -1.5083 -0.4203
 1597TIP3   OH2 4796   1.059   5.295   4.137 -0.1939  0.1025  0.1562
 1597TIP3    H1 4797   1.041   5.202   4.124  0.7821  0.3301 -4.3530
 1597TIP3    H2 4798   1.119   5.318   4.067  1.4713  3.7304  2.4863
 1598TIP3   OH2 4799   2.232   0.514   1.813  0.0488 -0.7642 -0.3782
 1598TIP3    H1 4800   2.218   0.453   1.886  0.9214  0.7517  1.1450
 1598TIP3    H2 4801   2.183   0.592   1.838  1.0937  0.1030 -0.9591
 1599TIP3   OH2 4802   1.809   0.713   3.237  0.0106  0.0265  0.4643
 1599TIP3    H1 4803   1.715   0.729   3.242 -0.0454  0.1637 -0.8169
 1599TIP3    H2 4804   1.823   0.637   3.295 -0.8569  0.0742  0.7558
 1600TIP3   OH2 4805   3.338   3.904   3.483 -0.6405  0.2376  0.5759
 1600TIP3    H1 4806   3.287   3.984   3.494 -0.3357  0.2443  2.2285
 1600TIP3    H2 4807   3.428   3.928   3.506 -0.2145 -0.1889 -0.5773
 1601TIP3   OH2 4808   0.254   5.314   2.830  0.3736 -0.1157 -0.1000
 1601TIP3    H1 4809   0.327   5.303   2.890  0.2928 -0.0390  0.0110
 1601TIP3    H2 4810   0.185   5.355   2.882  0.4496  0.3402 -0.3501
 1602TIP3   OH2 4811   3.863   4.437   3.055  0.9207  0.1916  0.0256
 1602TIP3    H1 4812   3.873   4.510   3.115 -0.1158 -0.2393  0.7343
 1602TIP3    H2 4813   3.859   4.360   3.111 -2.3452 -0.0443 -0.3644
 1603TIP3   OH2 4814   0.036   3.811   4.386  0.1160  0.1481 -0.1349
 1603TIP3    H1 4815   0.075   3.731   4.349  1.3022 -0.3383  1.9908
 1603TIP3    H2 4816  -0.050   3.817   4.345  0.0844 -2.1261 -0.5236
 1604TIP3   OH2 4817   4.385   3.897   2.224 -0.3809 -0.4720 -0.0406
 1604TIP3    H1 4818   4.331   3.968   2.188 -1.3870 -1.9665 -1.6061
 1604TIP3    H2 4819   4.333   3.864   2.298  0.3445  0.7155  1.0480
 1605TIP3   OH2 4820   1.080   4.204   3.174  0.0622  0.5249  0.4468
 1605TIP3    H1 4821   0.987   4.219   3.158 -0.1416 -1.5803 -0.7628
 1605TIP3    H2 4822   1.087   4.109   3.187  2.1493  0.5112 -0.3573
 1606TIP3   OH2 4823   3.714   0.622   4.539 -0.2000  0.0464  0.2946
 1606TIP3    H1 4824   3.759   0.706   4.540 -0.6281  0.3064  2.3472
 1606TIP3    H2 4825   3.748   0.577   4.461  2.3240  0.9064  0.8087
 1607TIP3   OH2 4826   2.533   5.297   0.764  0.4783  0.6445 -0.1892
 1607TIP3    H1 4827   2.538   5.291   0.859 -0.4336 -2.7777 -0.2316
 1607TIP3    H2 4828   2.441   5.318   0.746  0.5661  0.9120 -0.3372
 1608TIP3   OH2 4829   0.075   1.664   3.978  0.1215 -0.1749 -1.0923
 1608TIP3    H1 4830   0.079   1.572   4.004  0.0220 -0.4991 -2.1795
 1608TIP3    H2 4831   0.107   1.665   3.888  2.0551  1.1329 -0.4725
 1609TIP3   OH2 4832   4.603   3.548   0.764 -0.0857 -0.2724 -0.0014
 1609TIP3    H1 4833   4.649   3.546   0.680 -0.6766  0.3336 -0.3532
 1609TIP3    H2 4834   4.574   3.458   0.778  2.7675 -1.1434  1.1512
 1610TIP3   OH2 4835   0.626   1.087   3.363 -0.3423  0.1892  0.0488
 1610TIP3    H1 4836   0.630   1.069   3.457  0.6169 -0.2823 -0.0745
 1610TIP3    H2 4837   0.712   1.123   3.342 -0.7059  0.7121 -0.5700
 1611TIP3   OH2 4838   6.355   4.390   3.131 -0.0259  0.2845 -0.0628
 1611TIP3    H1 4839   6.274   4.428   3.099  0.7142  2.2333  0.2560
 1611TIP3    H2 4840   6.346   4.296   3.114 -1.8870  0.5878 -0.9741
 1612TIP3   OH2 4841   1.948   4.667   3.445  0.4180 -0.1200 -0.0479
 1612TIP3    H1 4842   1.916   4.689   3.358  0.3790  0.2656  0.0617
 1612TIP3    H2 4843   1.919   4.576   3.459  1.0610 -0.4430 -0.7270
 1613TIP3   OH2 4844   4.139   3.157   4.586 -0.1452  0.4899 -0.3279
 1613TIP3    H1 4845   4.159   3.077   4.634  2.2689 -0.4948 -2.7741
 1613TIP3    H2 4846   4.127   3.129   4.495  1.3863  2.9115 -1.3833
 1614TIP3   OH2 4847   5.489   5.559   4.777  0.5429 -0.3094  0.1424
 1614TIP3    H1 4848   5.446   5.478   4.806  0.2919 -0.3237 -0.2660
 1614TIP3    H2 4849   5.421   5.606   4.728 -0.0502  1.2523  2.3243
 1615TIP3   OH2 4850   4.393   0.294   2.051 -0.6169  0.5530 -0.4166
 1615TIP3    H1 4851   4.384   0.383   2.016  2.3578  1.3426  0.5286
 1615TIP3    H2 4852   4.381   0.304   2.145 -0.7863 -0.1356 -0.3612
 1616TIP3   OH2 4853   6.280   3.571   3.589 -0.1047 -0.3142 -1.0339
 1616TIP3    H1 4854   6.214   3.503   3.601 -0.2562 -0.3516 -1.9622
 1616TIP3    H2 4855   6.231   3.645   3.552  0.2572 -0.1069 -1.1060
 1617TIP3   OH2 4856   2.293   3.768   4.117  0.2000 -0.2339  0.0033
 1617TIP3    H1 4857   2.261   3.816   4.041 -2.6511 -2.0915 -0.1187
 1617TIP3    H2 4858   2.340   3.693   4.080  0.5575 -0.0577  0.1009
 1618TIP3   OH2 4859   5.323   5.877   4.764  0.0087  0.4199  0.1815
 1618TIP3    H1 4860   5.312   5.793   4.719 -0.6439  1.4442 -1.7027
 1618TIP3    H2 4861   5.417   5.887   4.772  0.0992 -1.2391  2.0189
 1619TIP3   OH2 4862   4.950   4.559   3.897  0.2929  0.1784  0.2624
 1619TIP3    H1 4863   5.025   4.500   3.910  0.5266  0.1917 -0.8914
 1619TIP3    H2 4864   4.903   4.522   3.822  0.2544  1.2569 -0.2738
 1620TIP3   OH2 4865   3.941   0.197   3.930  0.0285 -0.5589  0.2953
 1620TIP3    H1 4866   3.990   0.163   4.005 -0.2852 -0.7212  0.4283
 1620TIP3    H2 4867   3.962   0.291   3.928 -0.3197 -0.4669  0.8576
 1621TIP3   OH2 4868   3.124   5.275   2.823  0.9368  0.6081  0.0867
 1621TIP3    H1 4869   3.033   5.286   2.850  1.1315  1.3834  0.4584
 1621TIP3    H2 4870   3.134   5.181   2.812 -0.2188  0.5856 -1.0598
 1622TIP3   OH2 4871   5.071   3.573   2.379  0.5487 -0.4021  0.2402
 1622TIP3    H1 4872   5.120   3.655   2.366 -0.8141  0.1869 -1.5157
 1622TIP3    H2 4873   5.096   3.545   2.467 -0.5595  3.0673  1.8667
 1623TIP3   OH2 4874   0.144   4.657   3.527  0.4408  0.3983  0.6713
 1623TIP3    H1 4875   0.051   4.644   3.509  0.6178 -1.6357  0.9787
 1623TIP3    H2 4876   0.150   4.667   3.622  0.6626 -1.2190  0.8566
 1624TIP3   OH2 4877   5.949   1.546   4.943  0.0676 -0.2918 -0.2017
 1624TIP3    H1 4878   5.909   1.593   5.016 -0.2203  0.1804 -0.6604
 1624TIP3    H2 4879   5.943   1.454   4.969 -2.0297 -0.3119 -0.5710
 1625TIP3   OH2 4880   1.926   1.506   2.633  0.0821 -0.0836 -0.2590
 1625TIP3    H1 4881   1.922   1.426   2.686  0.8685 -0.7690 -1.2000
 1625TIP3    H2 4882   1.836   1.519   2.602  0.2064 -1.4605 -1.3044
 1626TIP3   OH2 4883   4.778   2.392   3.525  0.0887 -0.3977  0.0411
 1626TIP3    H1 4884   4.874   2.386   3.530  0.3076  0.6142 -1.8883
 1626TIP3    H2 4885   4.762   2.475   3.480 -1.6440 -1.3953 -1.2759
 1627TIP3   OH2 4886   0.467   5.854   4.474  0.1458  0.0996  0.0444
 1627TIP3    H1 4887   0.487   5.767   4.509 -0.4696 -0.5919 -1.2576
 1627TIP3    H2 4888   0.382   5.877   4.513  0.5561  0.3805  0.8100
 1628TIP3   OH2 4889   3.459   4.904   4.840 -0.5083 -0.3464  0.1638
 1628TIP3    H1 4890   3.543   4.894   4.794 -1.1023  0.0131 -1.0353
 1628TIP3    H2 4891   3.468   4.848   4.917  0.8317 -0.3172  0.0618
 1629TIP3   OH2 4892   2.291   5.421   2.924  0.3509  0.1961 -1.1651
 1629TIP3    H1 4893   2.202   5.386   2.918 -0.3176  1.5748  0.0396
 1629TIP3    H2 4894   2.338   5.358   2.978  0.0915 -0.4892 -1.7220
 1630TIP3   OH2 4895   1.185   4.102   4.711 -0.0992 -0.3653 -0.5999
 1630TIP3    H1 4896   1.104   4.101   4.661 -0.0863  0.6955 -0.6548
 1630TIP3    H2 4897   1.158   4.100   4.802 -0.1600 -0.8284 -0.6259
 1631TIP3   OH2 4898   4.356   5.978   1.509 -0.2974 -0.5757 -0.3070
 1631TIP3    H1 4899   4.270   5.937   1.496  0.5956 -2.9612  0.6112
 1631TIP3    H2 4900   4.415   5.929   1.452  0.7282 -0.1136  0.3195
 1632TIP3   OH2 4901   4.933   2.649   3.535 -0.2323  0.0812 -0.0744
 1632TIP3    H1 4902   4.974   2.563   3.527  2.4847  1.2292  0.3793
 1632TIP3    H2 4903   4.975   2.689   3.611 -0.7065  2.1571 -0.8301
 1633TIP3   OH2 4904   3.661   0.903   3.675  0.0301  0.1012 -0.2450
 1633TIP3    H1 4905   3.583   0.936   3.719 -0.1567  1.5755 -1.5898
 1633TIP3    H2 4906   3.730   0.965   3.697  0.8858 -1.2027  0.9474
 1634TIP3   OH2 4907   5.133   4.922   4.402  0.1134  0.1473  0.8575
 1634TIP3    H1 4908   5.199   4.888   4.340 -0.8419 -1.8761  0.8500
 1634TIP3    H2 4909   5.049   4.905   4.359 -0.4985  0.5363  1.8697
 1635TIP3   OH2 4910   2.485   5.609   0.345 -0.3121  0.0496 -0.2969
 1635TIP3    H1 4911   2.524   5.531   0.384 -1.0691  0.0708  0.5546
 1635TIP3    H2 4912   2.541   5.681   0.373  0.9764 -0.2597 -1.9219
 1636TIP3   OH2 4913   3.983   2.144   1.513  1.1564  0.5808 -0.0031
 1636TIP3    H1 4914   3.989   2.098   1.429  2.9632 -0.2221  0.5073
 1636TIP3    H2 4915   4.067   2.126   1.556  0.9545  2.3718  1.2702
 1637TIP3   OH2 4916   4.085   1.533   4.756  0.4564  0.7587 -0.2412
 1637TIP3    H1 4917   4.149   1.602   4.769  0.8639 -0.0885  3.1397
 1637TIP3    H2 4918   4.132   1.465   4.707  1.6020  0.8973  0.6349
 1638TIP3   OH2 4919   2.074   4.700   1.547  0.4420  0.5775  0.3745
 1638TIP3    H1 4920   2.166   4.725   1.560  0.6756  1.0801 -1.8364
 1638TIP3    H2 4921   2.058   4.631   1.611  2.4829  0.2006  0.5253
 1639TIP3   OH2 4922   0.894   4.835   0.340  0.0231  0.4686 -0.1699
 1639TIP3    H1 4923   0.958   4.885   0.390  1.5233 -0.2239 -1.3251
 1639TIP3    H2 4924   0.944   4.763   0.301 -0.7707  1.5839 -3.5804
 1640TIP3   OH2 4925   0.080   0.324   4.231 -0.0693  0.5055  0.5899
 1640TIP3    H1 4926   0.135   0.368   4.165 -0.1653 -0.7455 -0.3444
 1640TIP3    H2 4927  -0.004   0.310   4.187 -0.6118  0.9312  1.4676
 1641TIP3   OH2 4928   3.316   0.924   1.734 -0.0900 -0.2904  0.4331
 1641TIP3    H1 4929   3.410   0.945   1.739  0.1408 -0.4978 -1.7719
 1641TIP3    H2 4930   3.273   1.003   1.767  0.8676  0.3154  0.2971
 1642TIP3   OH2 4931   3.144   5.336   0.447  0.0365 -0.9404 -0.1122
 1642TIP3    H1 4932   3.125   5.348   0.540 -0.2798 -0.4432 -0.2354
 1642TIP3    H2 4933   3.071   5.285   0.413 -0.2791 -0.4001 -0.2572
 1643TIP3   OH2 4934   4.669   4.288   0.965 -1.0558  0.2228 -0.5035
 1643TIP3    H1 4935   4.730   4.254   1.030 -1.5879  1.2973  0.5888
 1643TIP3    H2 4936   4.645   4.375   0.997 -3.5019 -0.3227 -0.6663
 1644TIP3   OH2 4937   5.069   1.354   2.442  0.4687 -0.0735 -0.1076
 1644TIP3    H1 4938   5.086   1.264   2.470 -1.3770 -0.3728  0.2283
 1644TIP3    H2 4939   5.154   1.398   2.447  1.4851 -1.8795 -0.6536
 1645TIP3   OH2 4940   0.987   5.255   1.346  0.0970  0.2599  0.1164
 1645TIP3    H1 4941   1.007   5.291   1.259 -0.7885  0.3210 -0.0628
 1645TIP3    H2 4942   0.933   5.321   1.388 -1.5042 -0.8064 -0.1987
 1646TIP3   OH2 4943   1.679   1.311   0.817 -0.2304 -0.4941  0.0973
 1646TIP3    H1 4944   1.718   1.263   0.744  1.0702 -0.0967  0.5022
 1646TIP3    H2 4945   1.673   1.245   0.887 -1.6844 -0.9326 -0.4090
 1647TIP3   OH2 4946   6.278   5.152   4.045  0.2426 -0.3736 -0.0404
 1647TIP3    H1 4947   6.314   5.135   3.958 -0.5399  0.1058 -0.4690
 1647TIP3    H2 4948   6.322   5.232   4.074  0.2974 -0.3739 -0.1214
 1648TIP3   OH2 4949   4.011   5.514   0.147 -0.3501  0.5013  0.4534
 1648TIP3    H1 4950   3.958   5.582   0.188 -1.6450 -0.6425  0.7336
 1648TIP3    H2 4951   4.010   5.536   0.054 -2.9222 -0.4839  0.1686
 1649TIP3   OH2 4952   3.744   4.470   4.777 -0.4673 -0.6629 -0.4217
 1649TIP3    H1 4953   3.738   4.388   4.826 -2.4446 -0.0180  0.5446
 1649TIP3    H2 4954   3.838   4.485   4.767 -0.0370 -2.3559  0.5330
 1650TIP3   OH2 4955   1.424   4.916   0.223 -0.0414  0.6230  0.0983
 1650TIP3    H1 4956   1.446   4.966   0.302  2.6644 -1.3706  0.7353
 1650TIP3    H2 4957   1.438   4.979   0.151 -0.4563  1.8550  1.0604
 1651TIP3   OH2 4958   2.303   1.779   2.255  0.7364 -0.8258 -0.1792
 1651TIP3    H1 4959   2.301   1.683   2.263  0.9321 -0.8002  0.1924
 1651TIP3    H2 4960   2.221   1.808   2.295  0.2294 -0.8893 -1.1321
 1652TIP3   OH2 4961   5.692   2.671   4.845 -0.1047  0.6975 -0.1516
 1652TIP3    H1 4962   5.771   2.655   4.898  0.3004  1.4205 -0.5205
 1652TIP3    H2 4963   5.623   2.623   4.890  0.5742 -0.0716  0.0988
 1653TIP3   OH2 4964   2.562   0.951   1.890  0.8559 -0.3319  0.0027
 1653TIP3    H1 4965   2.551   0.880   1.954 -0.9443 -0.0437  0.0457
 1653TIP3    H2 4966   2.528   1.029   1.935 -1.6009 -0.3409 -1.6788
 1654TIP3   OH2 4967   5.833   3.869   0.632  0.4606 -0.4100  0.2215
 1654TIP3    H1 4968   5.761   3.838   0.577  0.1608  1.3601 -0.4397
 1654TIP3    H2 4969   5.803   3.952   0.667  1.8024 -0.1127  0.7418
 1655TIP3   OH2 4970   2.098   2.059   4.891 -0.6188 -0.1004  0.3829
 1655TIP3    H1 4971   2.107   2.127   4.957 -0.8242 -0.7480  1.1007
 1655TIP3    H2 4972   2.004   2.050   4.877 -0.5528  0.5645 -0.5795
 1656TIP3   OH2 4973   0.246   2.724   3.409 -0.1032 -0.3590 -0.3254
 1656TIP3    H1 4974   0.265   2.716   3.502  0.4617 -0.0564 -0.4078
 1656TIP3    H2 4975   0.218   2.636   3.382 -2.3708  0.0443  0.5641
 1657TIP3   OH2 4976   0.072   0.419   1.228  0.6637  0.2276  0.1640
 1657TIP3    H1 4977   0.122   0.465   1.161 -1.3525 -0.0860 -1.6958
 1657TIP3    H2 4978   0.123   0.340   1.246  1.2335  0.2684 -1.1218
 1658TIP3   OH2 4979   4.700   2.426   0.552 -0.0214  0.4791  0.3364
 1658TIP3    H1 4980   4.783   2.457   0.587  0.9326  0.0748 -1.4174
 1658TIP3    H2 4981   4.665   2.368   0.619  1.5131  0.0357  0.7859
 1659TIP3   OH2 4982   2.273   4.140   3.109 -0.7324  0.3915  0.1625
 1659TIP3    H1 4983   2.222   4.118   3.187 -0.1658  0.6913  0.6342
 1659TIP3    H2 4984   2.209   4.151   3.040 -1.1084 -1.9787  0.0715
 1660TIP3   OH2 4985   2.041   0.427   0.904 -0.2996 -0.0167 -0.2249
 1660TIP3    H1 4986   1.962   0.420   0.959  0.6778 -0.6212  1.1509
 1660TIP3    H2 4987   2.007   0.440   0.816 -1.9366  1.3798  0.5445
 1661TIP3   OH2 4988   1.876   2.515   3.160 -0.1422  0.2357 -0.9785
 1661TIP3    H1 4989   1.892   2.434   3.112  0.4588  0.0281 -0.4331
 1661TIP3    H2 4990   1.782   2.511   3.182 -0.2599 -0.0028 -1.5065
 1662TIP3   OH2 4991   0.937   2.494   3.497 -0.3021 -0.6114  0.0371
 1662TIP3    H1 4992   0.991   2.479   3.419 -1.6013 -0.8257 -0.8439
 1662TIP3    H2 4993   0.983   2.446   3.566  0.3745 -1.2108 -0.7972
 1663TIP3   OH2 4994   2.123   4.002   2.032  0.3563  0.6425  0.6117
 1663TIP3    H1 4995   2.107   4.060   2.106 -1.1695 -0.8309  1.5042
 1663TIP3    H2 4996   2.060   4.030   1.965 -1.6859 -1.0263  1.7147
 1664TIP3   OH2 4997   5.933   2.289   0.057 -0.4036 -0.0219 -0.2528
 1664TIP3    H1 4998   5.846   2.319   0.083  0.1049  0.7880  0.5791
 1664TIP3    H2 4999   5.916   2.212   0.003 -1.5878 -0.8428  1.1774
 1665TIP3   OH2 5000   3.198   4.915   3.583  0.2854  0.5116  0.3253
 1665TIP3    H1 5001   3.127   4.932   3.521  0.1001 -1.5870 -0.1123
 1665TIP3    H2 5002   3.278   4.925   3.530  0.1447 -0.8098 -0.1684
 1666TIP3   OH2 5003   1.588   2.803   4.243  0.2251  0.9969 -0.0545
 1666TIP3    H1 5004   1.582   2.885   4.292  1.2324  0.8317  0.3648
 1666TIP3    H2 5005   1.672   2.766   4.269  0.1272  0.2089 -0.8335
 1667TIP3   OH2 5006   1.780   3.909   4.367 -0.1640 -0.3218  0.1437
 1667TIP3    H1 5007   1.821   3.994   4.355 -0.3743  0.0396  1.7238
 1667TIP3    H2 5008   1.849   3.853   4.404  0.0851 -0.9701 -1.2461
 1668TIP3   OH2 5009   3.294   4.185   3.481 -0.5138  0.0996  0.4008
 1668TIP3    H1 5010   3.212   4.235   3.486  0.7990  2.3270  1.0143
 1668TIP3    H2 5011   3.330   4.207   3.396  0.3888  0.7147  0.9357
 1669TIP3   OH2 5012   1.642   2.135   4.193  0.1596 -0.5839 -0.3615
 1669TIP3    H1 5013   1.696   2.131   4.114  2.0964  2.3167  0.6371
 1669TIP3    H2 5014   1.552   2.136   4.160  0.9109  0.5874 -2.6028
 1670TIP3   OH2 5015   5.537   1.372   2.221  0.4509 -0.3216  0.2947
 1670TIP3    H1 5016   5.557   1.456   2.264  2.3039 -0.4816 -0.1900
 1670TIP3    H2 5017   5.457   1.389   2.172  0.1915  0.8471  1.0716
 1671TIP3   OH2 5018   4.259   3.066   0.916  0.0555  0.0030  0.2081
 1671TIP3    H1 5019   4.333   3.006   0.901 -0.1481  0.0518 -1.0579
 1671TIP3    H2 5020   4.205   3.058   0.838  0.0417  1.8671 -0.0224
 1672TIP3   OH2 5021   1.199   3.539   1.265  0.5567 -0.0704 -0.2164
 1672TIP3    H1 5022   1.279   3.520   1.314  1.5593 -2.3054 -2.4991
 1672TIP3    H2 5023   1.211   3.628   1.232  1.6943 -0.0536  0.1966
 1673TIP3   OH2 5024   4.338   4.216   1.811  0.2957  0.3440 -0.2155
 1673TIP3    H1 5025   4.357   4.257   1.727 -0.8391 -0.7682 -1.0530
 1673TIP3    H2 5026   4.248   4.186   1.803 -0.0128  0.6572  1.5999
 1674TIP3   OH2 5027   4.532   2.928   3.786  0.2039  0.1430 -0.0147
 1674TIP3    H1 5028   4.437   2.935   3.785  0.2920  1.6846 -1.2645
 1674TIP3    H2 5029   4.550   2.845   3.741 -0.5333 -0.2756  0.4361
 1675TIP3   OH2 5030   0.597   1.898   5.010  0.4357 -0.4770 -0.2495
 1675TIP3    H1 5031   0.624   1.897   5.102  0.1602 -0.8228 -0.1698
 1675TIP3    H2 5032   0.598   1.806   4.984 -1.6168 -0.6217  0.0468
 1676TIP3   OH2 5033   5.004   2.971   0.019  0.2175  0.1485 -0.1581
 1676TIP3    H1 5034   4.975   2.880   0.014  0.1016  0.2027 -0.5170
 1676TIP3    H2 5035   4.929   3.019   0.053 -0.0477  0.2554 -0.8817
 1677TIP3   OH2 5036   3.904   0.357   1.949  0.3630 -0.1943  0.2811
 1677TIP3    H1 5037   3.953   0.276   1.938  0.1858 -0.1805 -0.7548
 1677TIP3    H2 5038   3.930   0.390   2.035  2.1102 -0.2257 -0.2079
 1678TIP3   OH2 5039   5.123   5.095   2.735 -0.1552 -0.0407 -0.9864
 1678TIP3    H1 5040   5.036   5.062   2.760  0.2866 -0.5377 -0.0582
 1678TIP3    H2 5041   5.127   5.182   2.775  0.5386 -0.8225  0.7508
 1679TIP3   OH2 5042   6.261   3.851   2.176 -0.3668  0.0727  1.0143
 1679TIP3    H1 5043   6.328   3.915   2.198  0.2484  0.3582 -1.3700
 1679TIP3    H2 5044   6.306   3.767   2.176 -0.5016 -0.0023  1.3633
 1680TIP3   OH2 5045   5.230   4.490   2.630 -0.1010 -0.2979 -0.4279
 1680TIP3    H1 5046   5.167   4.494   2.702  0.1439 -2.3719 -0.0525
 1680TIP3    H2 5047   5.311   4.525   2.668 -0.4875  0.4992 -0.3151
 1681TIP3   OH2 5048   1.145   2.255   2.510  0.6559 -0.5705  0.0141
 1681TIP3    H1 5049   1.053   2.235   2.495  0.5178  0.5292 -0.7322
 1681TIP3    H2 5050   1.148   2.292   2.598 -0.5012  4.0243 -1.5870
 1682TIP3   OH2 5051   1.388   5.147   4.067 -0.8159 -0.1257  0.1282
 1682TIP3    H1 5052   1.368   5.098   3.988 -0.1091  1.7226 -1.2835
 1682TIP3    H2 5053   1.357   5.091   4.139  1.0735 -3.1703 -1.2319
 1683TIP3   OH2 5054   6.306   4.078   0.983 -0.3457  0.0456  0.1433
 1683TIP3    H1 5055   6.305   4.165   1.024  2.2215  0.5483 -0.7170
 1683TIP3    H2 5056   6.258   4.090   0.901  0.8537  0.9682 -0.4608
 1684TIP3   OH2 5057   5.072   4.578   1.743  0.0482  0.0631 -0.4338
 1684TIP3    H1 5058   5.039   4.561   1.655 -1.3420  2.1646 -0.4095
 1684TIP3    H2 5059   5.162   4.606   1.730  0.1876 -0.6606 -1.0797
 1685TIP3   OH2 5060   3.845   5.922   4.694  0.3042 -0.1118  0.4402
 1685TIP3    H1 5061   3.900   5.854   4.655 -1.1837 -0.6347 -0.8308
 1685TIP3    H2 5062   3.898   5.958   4.765  1.4807 -1.9796  0.5678
 1686TIP3   OH2 5063   2.325   0.344   4.691 -0.0332 -0.0551  0.0662
 1686TIP3    H1 5064   2.413   0.326   4.659  0.6569 -1.4073  2.4554
 1686TIP3    H2 5065   2.270   0.275   4.654  0.5821 -1.0977  1.0377
 1687TIP3   OH2 5066   2.817   2.537   3.091  0.0593  0.0155 -0.2142
 1687TIP3    H1 5067   2.811   2.517   2.998  0.7942  0.4547 -0.3690
 1687TIP3    H2 5068   2.728   2.528   3.124 -0.1515 -0.4463 -0.8971
 1688TIP3   OH2 5069   1.269   0.512   3.246 -0.7769  0.2610  0.4506
 1688TIP3    H1 5070   1.318   0.531   3.326  0.7789  0.1104 -0.4363
 1688TIP3    H2 5071   1.335   0.507   3.177 -2.1155  0.7558 -0.9313
 1689TIP3   OH2 5072   3.485   1.023   3.893  0.0071 -0.2323  0.1931
 1689TIP3    H1 5073   3.433   0.956   3.938 -0.7844  0.4491  0.3316
 1689TIP3    H2 5074   3.451   1.106   3.927  2.8948  0.2551  2.1676
 1690TIP3   OH2 5075   0.615   2.149   4.847  0.1668 -0.5467  1.1653
 1690TIP3    H1 5076   0.599   2.073   4.903 -1.0039 -0.2885  1.1983
 1690TIP3    H2 5077   0.696   2.187   4.881  0.4344 -1.4206  1.5380
 1691TIP3   OH2 5078   5.538   5.810   4.222  0.2899  0.5975 -0.2669
 1691TIP3    H1 5079   5.453   5.849   4.243  0.8094  0.5899  2.2215
 1691TIP3    H2 5080   5.547   5.739   4.285  1.9831  0.3605 -0.7342
 1692TIP3   OH2 5081   0.978   2.659   0.293  0.3946 -0.2220  0.3374
 1692TIP3    H1 5082   1.010   2.578   0.254 -0.5611  0.0150 -1.0045
 1692TIP3    H2 5083   1.007   2.728   0.234 -0.4246  0.2283  0.4408
 1693TIP3   OH2 5084   1.859   0.372   1.113  0.3275 -0.3990 -0.2849
 1693TIP3    H1 5085   1.815   0.359   1.198 -1.8076  0.8356 -1.1320
 1693TIP3    H2 5086   1.851   0.287   1.069 -0.2386 -0.5150  0.0254
 1694TIP3   OH2 5087   3.857   0.991   4.660 -0.4082 -0.2561  0.0923
 1694TIP3    H1 5088   3.823   1.075   4.630 -0.6321  0.0485  1.1722
 1694TIP3    H2 5089   3.893   0.951   4.581  0.7188  1.3273 -0.2465
 1695TIP3   OH2 5090   1.353   5.409   1.596 -0.3234  0.2213  0.0840
 1695TIP3    H1 5091   1.344   5.349   1.522  0.6980  1.6560 -1.2455
 1695TIP3    H2 5092   1.415   5.476   1.566 -1.0414  1.6809  1.6996
 1696TIP3   OH2 5093   2.655   1.284   5.076 -0.0779 -0.1420  0.2985
 1696TIP3    H1 5094   2.705   1.255   5.153 -1.4928 -0.7300  1.0554
 1696TIP3    H2 5095   2.657   1.209   5.017 -0.7042 -0.4835  0.6872
 1697TIP3   OH2 5096   1.975   3.287   1.778  0.9788 -0.4916  0.4653
 1697TIP3    H1 5097   1.918   3.338   1.720  0.6068 -2.2164 -0.7856
 1697TIP3    H2 5098   2.006   3.350   1.843 -1.3870  0.7860  0.4777
 1698TIP3   OH2 5099   4.951   4.808   5.166  0.0762 -0.7314 -0.3558
 1698TIP3    H1 5100   4.888   4.747   5.205  2.4595 -2.4501  1.1066
 1698TIP3    H2 5101   5.011   4.752   5.116  1.8274  0.4833  0.2609
 1699TIP3   OH2 5102   4.770   4.829   3.731 -0.1799 -0.0829 -0.5403
 1699TIP3    H1 5103   4.821   4.878   3.796 -0.4671 -0.2432 -0.1913
 1699TIP3    H2 5104   4.769   4.739   3.764 -0.5738 -0.1069 -0.6136
 1700TIP3   OH2 5105   4.981   3.771   1.876 -0.1120  0.7316  0.0381
 1700TIP3    H1 5106   5.017   3.821   1.802  1.0270  0.9701  0.7193
 1700TIP3    H2 5107   5.007   3.822   1.953 -0.1246 -0.1971  0.6704
 1701TIP3   OH2 5108   0.125   1.196   0.378  0.4679 -0.1965 -0.2862
 1701TIP3    H1 5109   0.185   1.269   0.392 -2.0311  1.4386  3.2459
 1701TIP3    H2 5110   0.182   1.118   0.379  2.7108  1.3477  1.0786
 1702TIP3   OH2 5111   0.533   1.056   0.724  0.2818 -0.3468  0.7908
 1702TIP3    H1 5112   0.474   1.005   0.780  1.5849 -1.3163  1.3297
 1702TIP3    H2 5113   0.611   1.002   0.717  0.5997  0.3099 -1.0209
 1703TIP3   OH2 5114   4.530   3.827   4.386  0.0386 -0.4705 -0.0622
 1703TIP3    H1 5115   4.602   3.890   4.381  1.1903 -1.7890 -0.7898
 1703TIP3    H2 5116   4.507   3.824   4.479  0.2604  0.6883  0.0381
 1704TIP3   OH2 5117   4.114   5.085   0.281  0.2036 -0.0819 -0.2428
 1704TIP3    H1 5118   4.098   5.111   0.190 -0.6087 -0.5973 -0.2619
 1704TIP3    H2 5119   4.081   4.995   0.285  0.9365 -0.3283  0.3715
 1705TIP3   OH2 5120   0.559   3.635   4.613 -0.9059 -0.1160  0.5750
 1705TIP3    H1 5121   0.576   3.727   4.597 -1.1648 -0.2706 -0.7240
 1705TIP3    H2 5122   0.482   3.615   4.559 -0.1139 -1.3642 -0.1529
 1706TIP3   OH2 5123   0.252   2.064   3.455 -0.5966  0.0222 -0.3334
 1706TIP3    H1 5124   0.261   2.107   3.540 -0.8749  0.4058 -0.4969
 1706TIP3    H2 5125   0.341   2.036   3.432 -0.3624  0.7975 -0.3791
 1707TIP3   OH2 5126   4.887   4.190   0.475  0.4818 -0.2198  0.2438
 1707TIP3    H1 5127   4.862   4.099   0.459 -1.3490  0.5074 -1.4211
 1707TIP3    H2 5128   4.864   4.205   0.567 -0.6686 -1.0117  0.1074
 1708TIP3   OH2 5129   3.009   4.571   3.835  0.0017  0.3038  0.6064
 1708TIP3    H1 5130   3.040   4.487   3.869 -0.7626  0.2320  1.1694
 1708TIP3    H2 5131   2.956   4.547   3.758 -0.4135  0.2350  0.9053
 1709TIP3   OH2 5132   2.255   2.498   0.730 -0.9885 -0.7318  0.1505
 1709TIP3    H1 5133   2.264   2.522   0.638  2.1339  0.5246  0.6751
 1709TIP3    H2 5134   2.285   2.407   0.735 -0.3377 -0.5223  0.0519
 1710TIP3   OH2 5135   1.533   3.874   0.111 -0.0812  0.3442 -0.4071
 1710TIP3    H1 5136   1.487   3.814   0.170  0.4644  1.3302  1.0620
 1710TIP3    H2 5137   1.618   3.887   0.152  1.1611 -0.5766 -2.5077
 1711TIP3   OH2 5138   2.933   5.116   0.741 -0.0483  0.7933 -0.0594
 1711TIP3    H1 5139   2.979   5.098   0.659  1.9388  0.0861  1.1423
 1711TIP3    H2 5140   2.912   5.029   0.775 -1.0301  1.0887  0.1095
 1712TIP3   OH2 5141   5.357   4.466   3.767 -0.5980  0.0030 -0.6115
 1712TIP3    H1 5142   5.412   4.520   3.823 -1.0396 -0.5724  0.4073
 1712TIP3    H2 5143   5.308   4.529   3.714 -0.4508  0.5762 -0.0818
 1713TIP3   OH2 5144   4.539   2.394   1.745  0.2056 -0.0469 -0.2366
 1713TIP3    H1 5145   4.449   2.375   1.770 -0.1950 -0.2808 -1.7399
 1713TIP3    H2 5146   4.585   2.311   1.756  0.3220  0.1349  0.7802
 1714TIP3   OH2 5147   5.540   4.324   2.477 -0.3964  0.1033 -0.2307
 1714TIP3    H1 5148   5.516   4.378   2.553  0.8330  0.9201 -0.3846
 1714TIP3    H2 5149   5.615   4.273   2.507 -0.6609 -0.4617 -0.5311
 1715TIP3   OH2 5150   2.610   1.714   4.523  0.1099 -0.0109  0.0832
 1715TIP3    H1 5151   2.520   1.682   4.530  0.0509 -0.1050 -0.9998
 1715TIP3    H2 5152   2.608   1.777   4.452  0.7956  0.4095  0.4174
 1716TIP3   OH2 5153   2.472   4.169   4.108  0.2209  0.0049  0.5027
 1716TIP3    H1 5154   2.503   4.255   4.135 -0.9015  0.9006 -0.9349
 1716TIP3    H2 5155   2.488   4.165   4.014 -1.2589 -0.6750  0.2455
 1717TIP3   OH2 5156   0.966   3.484   3.736 -0.4451  0.2250 -0.2427
 1717TIP3    H1 5157   1.018   3.435   3.799  0.6217  1.9226  0.2665
 1717TIP3    H2 5158   0.876   3.478   3.769  0.1553  1.5569  1.8271
 1718TIP3   OH2 5159   0.432   5.187   0.099  0.6257 -0.0036  0.6160
 1718TIP3    H1 5160   0.497   5.256   0.086 -0.9508  1.4432  0.0968
 1718TIP3    H2 5161   0.457   5.119   0.037  0.3986  1.4803 -1.1966
 1719TIP3   OH2 5162   1.327   2.218   2.281  0.1788 -0.5972  0.1176
 1719TIP3    H1 5163   1.272   2.290   2.313  0.6730 -0.5563  0.8961
 1719TIP3    H2 5164   1.284   2.140   2.316  0.9462 -0.5301  1.2829
 1720TIP3   OH2 5165   2.083   0.967   1.134 -0.0900  0.0381 -0.2452
 1720TIP3    H1 5166   2.118   0.925   1.213  0.9070  1.1867 -0.0354
 1720TIP3    H2 5167   2.028   0.901   1.093  1.4189 -1.4726  0.0566
 1721TIP3   OH2 5168   2.367   3.109   5.005  0.4729  0.0410 -0.2628
 1721TIP3    H1 5169   2.280   3.082   5.035  1.5968  0.3167  3.8651
 1721TIP3    H2 5170   2.367   3.204   5.016  0.9609  0.2019 -1.4677
 1722TIP3   OH2 5171   5.836   2.247   2.103  0.8850  0.0126 -0.3269
 1722TIP3    H1 5172   5.875   2.315   2.048 -1.8112  1.1681 -0.9432
 1722TIP3    H2 5173   5.765   2.290   2.149 -0.5329 -2.2466 -0.2506
 1723TIP3   OH2 5174   4.016   2.047   3.505  0.2961  0.6721  0.9298
 1723TIP3    H1 5175   4.044   2.022   3.593  0.6454 -0.6121  0.4737
 1723TIP3    H2 5176   3.953   1.980   3.479  0.4259  0.8583  0.0861
 1724TIP3   OH2 5177   1.551   4.440   3.541  0.3566  0.5475 -0.0349
 1724TIP3    H1 5178   1.525   4.384   3.614  1.9604 -0.7379 -0.4053
 1724TIP3    H2 5179   1.525   4.391   3.463 -0.8124  1.6500 -0.3851
 1725TIP3   OH2 5180   0.956   4.938   1.134 -0.7491  0.3761  0.2080
 1725TIP3    H1 5181   1.041   4.892   1.133  0.0062  1.7349 -0.5599
 1725TIP3    H2 5182   0.911   4.906   1.056 -1.5102 -1.2786  1.2564
 1726TIP3   OH2 5183   2.982   3.161   2.592 -0.5806 -0.1214  0.3938
 1726TIP3    H1 5184   2.922   3.096   2.557  0.3503 -0.2744 -0.9794
 1726TIP3    H2 5185   3.038   3.112   2.653 -1.4499 -0.0853  1.2517
 1727TIP3   OH2 5186   3.804   2.096   0.739  0.4861 -0.1000 -0.0117
 1727TIP3    H1 5187   3.719   2.061   0.767  0.5195 -1.4070 -1.3686
 1727TIP3    H2 5188   3.793   2.111   0.645  2.2374 -2.0225 -0.6043
 1728TIP3   OH2 5189   0.656   3.082   4.353 -0.1074  0.3066 -0.7146
 1728TIP3    H1 5190   0.643   3.047   4.441 -2.3554  2.2230 -0.1873
 1728TIP3    H2 5191   0.747   3.059   4.332 -0.2139 -2.3158  1.0677
 1729TIP3   OH2 5192   4.142   0.090   4.135 -0.1789 -0.3429 -0.3898
 1729TIP3    H1 5193   4.193   0.072   4.056  0.8872  3.1415 -0.6465
 1729TIP3    H2 5194   4.204   0.130   4.196 -1.9910  1.7486  0.2251
 1730TIP3   OH2 5195   6.038   5.202   4.421  0.3664 -0.5084  0.3827
 1730TIP3    H1 5196   5.948   5.234   4.426  0.1923 -1.1404  1.6968
 1730TIP3    H2 5197   6.061   5.210   4.328 -0.9444 -0.0889  0.0715
 1731TIP3   OH2 5198   4.171   3.948   5.001  0.5029 -0.1318  0.2299
 1731TIP3    H1 5199   4.138   3.877   4.945  1.4295 -0.6272  0.2945
 1731TIP3    H2 5200   4.114   4.022   4.981 -0.6927 -0.9740  0.4018
 1732TIP3   OH2 5201   1.367   5.255   1.304 -0.0006 -0.3601  0.0221
 1732TIP3    H1 5202   1.329   5.182   1.352  0.3302  0.4595  1.6067
 1732TIP3    H2 5203   1.291   5.302   1.269 -0.3022 -0.5154  0.4555
 1733TIP3   OH2 5204   0.383   1.839   3.798 -0.2021 -0.2729  0.1958
 1733TIP3    H1 5205   0.304   1.797   3.764 -0.1361 -0.8513  0.7500
 1733TIP3    H2 5206   0.403   1.792   3.878 -0.1830  0.8774  0.8947
 1734TIP3   OH2 5207   1.616   2.275   1.848 -0.6945 -0.3539 -0.1744
 1734TIP3    H1 5208   1.608   2.236   1.762 -1.4273 -0.9327  0.1412
 1734TIP3    H2 5209   1.560   2.352   1.845 -0.6899 -0.3532 -0.2302
 1735TIP3   OH2 5210   0.943   5.489   4.299  0.1000 -0.1344 -0.0500
 1735TIP3    H1 5211   1.010   5.449   4.244 -0.5280  0.4333 -1.2690
 1735TIP3    H2 5212   0.887   5.415   4.325 -0.5041 -0.2143 -1.4971
 1736TIP3   OH2 5213   6.034   3.772   0.451 -0.2630  0.4043 -0.1852
 1736TIP3    H1 5214   5.991   3.812   0.527 -0.6907 -0.7544  0.2013
 1736TIP3    H2 5215   6.127   3.787   0.466 -0.4129  1.3136 -0.0962
 1737TIP3   OH2 5216   1.574   1.826   5.099  0.0991 -0.3842  0.0255
 1737TIP3    H1 5217   1.512   1.897   5.114  1.8102  1.0757  0.5186
 1737TIP3    H2 5218   1.555   1.795   5.010 -0.6941  0.6848 -0.1885
 1738TIP3   OH2 5219   5.433   3.080   2.557  0.4531 -0.2315 -0.4538
 1738TIP3    H1 5220   5.522   3.050   2.573 -0.1411 -1.3435  0.9466
 1738TIP3    H2 5221   5.412   3.048   2.470  0.4268 -2.5540  0.3443
 1739TIP3   OH2 5222   0.999   5.533   0.123 -0.3164  0.6786  0.1354
 1739TIP3    H1 5223   1.063   5.463   0.135 -1.3119 -0.0966  1.2100
 1739TIP3    H2 5224   0.986   5.568   0.211 -0.6251  1.4902 -0.2277
 1740TIP3   OH2 5225   3.481   2.702   0.795 -0.3668 -0.1361 -0.5026
 1740TIP3    H1 5226   3.535   2.687   0.718  1.6103 -1.3878  1.0150
 1740TIP3    H2 5227   3.474   2.616   0.837 -2.0106  0.3603  0.3526
 1741TIP3   OH2 5228   4.917   5.532   0.832  0.1034  0.1498  0.0714
 1741TIP3    H1 5229   4.838   5.530   0.886 -1.1086  0.9828 -1.5547
 1741TIP3    H2 5230   4.909   5.457   0.774  0.6581  0.0752  0.0817
 1742TIP3   OH2 5231   3.208   2.887   3.837  0.1682  0.4222 -0.1106
 1742TIP3    H1 5232   3.134   2.947   3.832  0.5953  1.0056  0.4127
 1742TIP3    H2 5233   3.255   2.899   3.755 -0.3746 -0.0505 -0.5076
 1743TIP3   OH2 5234   5.240   0.907   4.896 -0.1379  0.2688 -0.4395
 1743TIP3    H1 5235   5.334   0.923   4.898 -0.0323 -0.3831  1.4121
 1743TIP3    H2 5236   5.203   0.988   4.862  0.9975  1.0504  0.1127
 1744TIP3   OH2 5237   1.063   2.482   1.708  0.4267  0.3037 -0.6178
 1744TIP3    H1 5238   1.152   2.490   1.674  1.6839  0.3564  2.3103
 1744TIP3    H2 5239   1.075   2.449   1.797 -2.3765  1.9573  0.5026
 1745TIP3   OH2 5240   1.427   0.152   0.249  0.2866 -0.4188 -0.3630
 1745TIP3    H1 5241   1.429   0.167   0.155  0.9113 -0.0663 -0.2993
 1745TIP3    H2 5242   1.426   0.056   0.258  2.0560 -0.5106 -0.7272
 1746TIP3   OH2 5243   1.080   5.088   0.159  0.3033 -0.3163 -0.0392
 1746TIP3    H1 5244   1.124   5.068   0.077  0.2332 -2.5324  0.4006
 1746TIP3    H2 5245   0.987   5.070   0.143 -0.0086  1.1425 -0.0127
 1747TIP3   OH2 5246   2.257   5.322   2.281  0.3192 -0.1006 -0.0477
 1747TIP3    H1 5247   2.166   5.335   2.307  0.2964  1.6136 -0.7942
 1747TIP3    H2 5248   2.306   5.380   2.339  0.4605  2.2018 -2.2944
 1748TIP3   OH2 5249   1.070   1.359   2.202 -0.1202  0.5741 -0.3387
 1748TIP3    H1 5250   1.121   1.288   2.242  0.1841  1.5969  1.1847
 1748TIP3    H2 5251   1.029   1.404   2.277 -1.7985  0.9015 -1.3921
 1749TIP3   OH2 5252   5.033   5.803   1.850  0.0608 -0.0590  0.0046
 1749TIP3    H1 5253   5.122   5.839   1.847  1.0523 -2.2507  0.9865
 1749TIP3    H2 5254   5.009   5.805   1.942 -0.5297 -0.3620 -0.1382
 1750TIP3   OH2 5255   3.885   4.142   2.864 -0.3844  0.0409 -0.3744
 1750TIP3    H1 5256   3.960   4.088   2.889  0.6245  1.0048 -1.2061
 1750TIP3    H2 5257   3.809   4.090   2.889  0.5511 -1.0373  0.3476
 1751TIP3   OH2 5258   3.355   2.957   2.818 -0.1065 -0.8071 -0.2442
 1751TIP3    H1 5259   3.442   2.969   2.856  0.1498 -0.9510 -0.7716
 1751TIP3    H2 5260   3.363   2.877   2.767 -1.1568 -2.0433  1.4254
 1752TIP3   OH2 5261   3.577   3.941   1.500 -0.0899 -0.3212 -0.3126
 1752TIP3    H1 5262   3.662   3.980   1.519 -0.5566  0.8026 -0.4655
 1752TIP3    H2 5263   3.521   4.015   1.477 -0.8600 -1.1416 -1.1432
 1753TIP3   OH2 5264   1.725   5.509   0.986  0.2024  0.1990  0.4874
 1753TIP3    H1 5265   1.818   5.530   0.997  0.6400 -0.5109 -1.5133
 1753TIP3    H2 5266   1.686   5.592   0.958  0.9651 -0.2426 -2.2172
 1754TIP3   OH2 5267   5.020   3.091   0.461 -0.5064  0.0048  0.5167
 1754TIP3    H1 5268   4.986   3.177   0.485 -1.1237 -0.1956  0.3862
 1754TIP3    H2 5269   5.069   3.106   0.380  0.1682  0.3848  0.9844
 1755TIP3   OH2 5270   2.437   2.987   3.978 -0.5104  0.1508 -0.0069
 1755TIP3    H1 5271   2.390   2.905   3.965  0.8464 -0.5531 -0.7646
 1755TIP3    H2 5272   2.381   3.053   3.937 -0.7763 -0.6878 -1.0588
 1756TIP3   OH2 5273   2.655   5.833   3.339  0.1075  0.0934 -0.5730
 1756TIP3    H1 5274   2.720   5.896   3.370 -0.6953  0.0292  1.4015
 1756TIP3    H2 5275   2.706   5.760   3.303  1.1923 -0.3814  1.7631
 1757TIP3   OH2 5276   2.917   2.177   1.678 -0.0470 -0.0098  0.3938
 1757TIP3    H1 5277   2.979   2.145   1.613 -0.2988  2.0988 -1.0135
 1757TIP3    H2 5278   2.843   2.209   1.626 -0.9966  0.2327  1.8332
 1758TIP3   OH2 5279   5.406   1.254   0.816 -0.0431 -0.8393 -0.3162
 1758TIP3    H1 5280   5.487   1.218   0.782  0.3332  0.2119 -0.5500
 1758TIP3    H2 5281   5.341   1.185   0.801  0.4521 -1.0318 -1.6393
 1759TIP3   OH2 5282   1.911   0.361   3.606 -0.4891 -0.4624 -0.1685
 1759TIP3    H1 5283   2.000   0.361   3.641  0.0745 -1.5055 -1.5091
 1759TIP3    H2 5284   1.894   0.269   3.583 -0.9329  0.0851 -2.2571
 1760TIP3   OH2 5285   1.344   1.719   2.205  0.3452  0.0158  0.1651
 1760TIP3    H1 5286   1.248   1.719   2.197  0.3920 -0.2146 -0.4197
 1760TIP3    H2 5287   1.375   1.695   2.118  0.9847  2.0620 -0.2255
 1761TIP3   OH2 5288   0.432   4.290   0.312 -0.6381 -0.4359  0.4442
 1761TIP3    H1 5289   0.449   4.197   0.330  1.1129  0.2106  2.6044
 1761TIP3    H2 5290   0.344   4.305   0.346  0.0458 -0.8007  2.5324
 1762TIP3   OH2 5291   2.298   0.031   1.161 -0.1794 -0.8562  0.6705
 1762TIP3    H1 5292   2.358   0.095   1.123 -1.6906  0.7489  0.8823
 1762TIP3    H2 5293   2.323   0.027   1.254 -0.8610  0.3861  0.9230
 1763TIP3   OH2 5294   3.946   0.162   0.811 -0.4040 -0.4933 -0.4184
 1763TIP3    H1 5295   3.918   0.160   0.719 -1.4532  3.1253 -0.3310
 1763TIP3    H2 5296   4.038   0.187   0.807 -0.1116 -1.5172 -0.4563
 1764TIP3   OH2 5297   4.546   3.742   4.134 -0.1087 -0.0023 -0.9519
 1764TIP3    H1 5298   4.617   3.680   4.150  0.5675  0.7393 -1.0457
 1764TIP3    H2 5299   4.533   3.787   4.218 -1.0843 -0.7474 -0.6819
 1765TIP3   OH2 5300   2.163   3.477   0.625  0.1275 -0.4599 -0.2453
 1765TIP3    H1 5301   2.141   3.469   0.532 -2.0666 -0.0857  0.1843
 1765TIP3    H2 5302   2.083   3.451   0.671 -0.4928  3.6449  1.4486
 1766TIP3   OH2 5303   4.702   0.718   2.767  0.1374  0.4477 -0.1312
 1766TIP3    H1 5304   4.743   0.636   2.741  0.0205  0.2390  0.3251
 1766TIP3    H2 5305   4.670   0.702   2.856 -0.0631  0.9224 -0.1114
 1767TIP3   OH2 5306   5.548   5.172   3.447  0.0553  0.7060 -0.2020
 1767TIP3    H1 5307   5.635   5.173   3.406 -0.6163  0.0271 -1.6975
 1767TIP3    H2 5308   5.544   5.255   3.496  1.1994  1.1532 -0.8229
 1768TIP3   OH2 5309   3.579   2.577   2.203 -0.5688  0.5863  0.3288
 1768TIP3    H1 5310   3.673   2.597   2.203 -0.9909  2.9506 -0.1819
 1768TIP3    H2 5311   3.556   2.570   2.295  0.3495 -1.6474  0.4486
 1769TIP3   OH2 5312   5.938   2.042   1.294 -0.0212  0.5339  0.1197
 1769TIP3    H1 5313   5.876   2.052   1.367  0.0873  1.1696  0.1315
 1769TIP3    H2 5314   5.883   2.047   1.216 -0.1178  0.0145  0.1534
 1770TIP3   OH2 5315   1.907   4.521   4.194 -0.1475  0.1237 -0.3242
 1770TIP3    H1 5316   1.943   4.506   4.282 -0.5719  1.2947  0.0661
 1770TIP3    H2 5317   1.983   4.514   4.136  0.3559  0.5783  0.2683
 1771TIP3   OH2 5318   5.845   5.454   1.056  0.1845  0.0206  0.2380
 1771TIP3    H1 5319   5.787   5.379   1.072 -1.4172  1.0222 -0.6215
 1771TIP3    H2 5320   5.800   5.528   1.098 -0.5881  1.3344 -2.6613
 1772TIP3   OH2 5321   0.307   0.298   4.024  1.0800 -0.1335 -0.1986
 1772TIP3    H1 5322   0.222   0.274   3.986  0.1919 -0.2672  1.7543
 1772TIP3    H2 5323   0.339   0.216   4.064  1.7451  0.1091 -0.2184
 1773TIP3   OH2 5324   1.817   2.772   2.608 -0.5234  0.0967  0.1274
 1773TIP3    H1 5325   1.838   2.679   2.600  1.1110  0.5261 -1.0370
 1773TIP3    H2 5326   1.722   2.774   2.619 -0.5863 -1.7073  0.1695
 1774TIP3   OH2 5327   5.385   0.239   4.969  0.3470 -0.0466  0.0380
 1774TIP3    H1 5328   5.400   0.303   4.899 -1.6149  0.6871  0.2314
 1774TIP3    H2 5329   5.290   0.234   4.977  0.5126 -0.6826  2.1573
 1775TIP3   OH2 5330   2.983   2.117   1.116  0.3313  0.4292  0.1540
 1775TIP3    H1 5331   2.895   2.148   1.137 -0.3103 -0.3504 -1.3130
 1775TIP3    H2 5332   3.039   2.165   1.178 -0.9141  2.3188 -0.0800
 1776TIP3   OH2 5333   2.741   5.645   0.104 -0.1277  0.1789 -0.4747
 1776TIP3    H1 5334   2.720   5.559   0.142 -0.8736  0.4835 -0.1858
 1776TIP3    H2 5335   2.698   5.708   0.162 -0.0074  0.7253 -0.9731
 1777TIP3   OH2 5336   5.846   5.601   1.819  0.0638 -0.4987  0.0083
 1777TIP3    H1 5337   5.931   5.634   1.789  0.1215 -1.1232 -0.5265
 1777TIP3    H2 5338   5.833   5.520   1.771 -0.8671 -0.3820  0.0398
 1778TIP3   OH2 5339   5.052   1.093   2.160 -0.1493  0.2514  0.4387
 1778TIP3    H1 5340   5.142   1.112   2.135 -0.5251 -0.3737 -1.5530
 1778TIP3    H2 5341   5.057   1.066   2.251  1.9095 -1.3779 -0.0871
 1779TIP3   OH2 5342   5.393   1.886   3.179  0.3160 -0.0488  0.3344
 1779TIP3    H1 5343   5.455   1.827   3.221 -1.5062 -2.6936 -0.4158
 1779TIP3    H2 5344   5.343   1.924   3.251  1.6231  0.7602  0.8381
 1780TIP3   OH2 5345   3.907   0.782   2.709  0.0168 -0.3755  0.4189
 1780TIP3    H1 5346   3.916   0.823   2.623 -0.4881 -1.9298 -0.4147
 1780TIP3    H2 5347   3.969   0.829   2.765  2.4324 -1.1165 -1.4491
 1781TIP3   OH2 5348   2.632   3.375   2.111  0.0651  0.1620  0.5329
 1781TIP3    H1 5349   2.599   3.424   2.034  2.1359  0.9963  0.1164
 1781TIP3    H2 5350   2.717   3.341   2.083  0.4021 -0.3838  2.1448
 1782TIP3   OH2 5351   1.962   3.691   0.050  0.5013 -0.5984  0.1435
 1782TIP3    H1 5352   1.930   3.767   0.002  1.0933 -0.7048 -0.4379
 1782TIP3    H2 5353   1.933   3.616  -0.001 -0.5301 -0.7941  0.9930
 1783TIP3   OH2 5354   1.413   0.383   0.060 -0.0661  0.2759 -0.5546
 1783TIP3    H1 5355   1.377   0.354  -0.024  0.6712  1.7906 -1.4274
 1783TIP3    H2 5356   1.380   0.472   0.072  1.2602  0.7326 -0.1050
 1784TIP3   OH2 5357   6.173   0.700   3.527 -0.2221  0.2000 -0.3811
 1784TIP3    H1 5358   6.251   0.745   3.493 -1.4226  1.9060 -1.0059
 1784TIP3    H2 5359   6.128   0.670   3.448 -0.8764  0.4232 -0.0944
 1785TIP3   OH2 5360   1.476   1.098   4.640  0.5519 -0.1467 -0.0969
 1785TIP3    H1 5361   1.491   1.005   4.653 -0.7734 -0.2472  0.9140
 1785TIP3    H2 5362   1.555   1.140   4.674  0.3284 -0.8132  1.3029
 1786TIP3   OH2 5363   3.635   5.402   2.993 -0.5793  0.2546  0.3597
 1786TIP3    H1 5364   3.639   5.498   2.996 -1.3205  0.3141 -0.0793
 1786TIP3    H2 5365   3.640   5.381   2.899 -0.5599 -0.1284  0.4451
 1787TIP3   OH2 5366   0.049   1.295   3.049 -0.1832  0.0461  0.0503
 1787TIP3    H1 5367   0.025   1.205   3.069 -1.3243  0.4149  0.4048
 1787TIP3    H2 5368   0.042   1.340   3.133  1.7957  0.1968  0.1965
 1788TIP3   OH2 5369   1.361   2.966   1.937 -0.3700 -0.1086  0.4234
 1788TIP3    H1 5370   1.350   3.022   2.014 -3.7097 -0.4983  0.3598
 1788TIP3    H2 5371   1.382   2.880   1.973 -0.8072 -0.0503  0.8241
 1789TIP3   OH2 5372   1.954   4.848   3.189  0.4265 -0.0074  0.4462
 1789TIP3    H1 5373   1.882   4.787   3.174  0.3801  0.1420  0.0284
 1789TIP3    H2 5374   2.033   4.795   3.180  0.3684 -0.1877  0.9854
 1790TIP3   OH2 5375   5.762   4.921   1.793 -0.3234 -0.3824 -0.7995
 1790TIP3    H1 5376   5.698   4.855   1.819 -0.1830 -0.7194 -1.3011
 1790TIP3    H2 5377   5.800   4.887   1.712  1.0311 -0.5538 -0.1204
 1791TIP3   OH2 5378   0.135   0.541   2.303  0.4267  0.1987  0.1734
 1791TIP3    H1 5379   0.062   0.595   2.273  0.4087 -0.0408 -0.2192
 1791TIP3    H2 5380   0.213   0.597   2.290  0.5672 -0.3052 -1.4493
 1792TIP3   OH2 5381   2.699   0.049   4.034 -0.7088 -0.4479  0.6554
 1792TIP3    H1 5382   2.669  -0.013   3.967 -2.1368  0.7987  0.0781
 1792TIP3    H2 5383   2.730  -0.007   4.106 -0.4499 -1.8117 -0.4774
 1793TIP3   OH2 5384   5.323   5.057   2.431  0.2013  0.1600  0.5571
 1793TIP3    H1 5385   5.344   5.012   2.513  0.4771  1.5785  1.3097
 1793TIP3    H2 5386   5.233   5.032   2.412 -0.0111  0.1449  1.5332
 1794TIP3   OH2 5387   0.405   0.832   0.810 -0.5185  0.1738  0.5640
 1794TIP3    H1 5388   0.407   0.768   0.881  0.6405 -0.8963 -0.3830
 1794TIP3    H2 5389   0.432   0.783   0.733  0.2436  1.7795 -0.2376
 1795TIP3   OH2 5390   4.758   0.908   3.442  0.3337  0.4972 -0.0930
 1795TIP3    H1 5391   4.713   0.954   3.513  0.2885  1.4033 -0.6985
 1795TIP3    H2 5392   4.850   0.935   3.450  0.6157 -0.5755  0.5284
 1796TIP3   OH2 5393   1.644   2.920   2.396  0.2062  0.3392 -0.3201
 1796TIP3    H1 5394   1.669   3.001   2.439 -0.1264 -0.1245  0.7952
 1796TIP3    H2 5395   1.561   2.896   2.437  0.5395 -0.8147 -0.2852
 1797TIP3   OH2 5396   0.075   4.049   2.251 -0.1414  0.1867 -0.8145
 1797TIP3    H1 5397   0.137   4.019   2.185  1.3454  1.5282 -0.0712
 1797TIP3    H2 5398   0.115   4.025   2.335 -1.2658 -0.0972 -0.3368
 1798TIP3   OH2 5399   4.523   0.027   0.162 -0.0802  0.2717 -0.3561
 1798TIP3    H1 5400   4.432   0.011   0.189  0.2152 -1.8081 -0.4187
 1798TIP3    H2 5401   4.518   0.104   0.105 -1.9592 -0.3228 -1.0823
 1799TIP3   OH2 5402   0.642   1.909   1.283  0.0017 -0.2461  0.1104
 1799TIP3    H1 5403   0.703   1.892   1.211 -1.7665  1.2387 -1.8796
 1799TIP3    H2 5404   0.560   1.868   1.254 -0.8015  0.5641  1.1762
 1800TIP3   OH2 5405   5.424   3.243   1.189  0.7326  0.2635 -0.1085
 1800TIP3    H1 5406   5.358   3.284   1.133  1.4363 -0.3047 -1.3885
 1800TIP3    H2 5407   5.449   3.312   1.251  0.1752  1.0031 -0.6855
 1801TIP3   OH2 5408   0.369   0.662   2.304  0.2549 -0.3848  0.7971
 1801TIP3    H1 5409   0.425   0.707   2.241  0.4331 -0.3468  0.9822
 1801TIP3    H2 5410   0.427   0.642   2.377  0.5192 -2.0813  0.1713
 1802TIP3   OH2 5411   4.104   0.168   0.177  0.5901 -0.2508 -1.2728
 1802TIP3    H1 5412   4.153   0.241   0.139  1.3637 -1.0266 -1.8039
 1802TIP3    H2 5413   4.100   0.188   0.270 -0.6964  1.3157 -1.6261
 1803TIP3   OH2 5414   0.822   5.839   4.416  0.1048  0.3163 -0.1697
 1803TIP3    H1 5415   0.789   5.784   4.487  0.0176  1.2712  0.5556
 1803TIP3    H2 5416   0.834   5.925   4.457  1.6107  0.4862 -0.9067
 1804TIP3   OH2 5417   1.734   0.900   0.187 -0.8182 -0.1309  0.1669
 1804TIP3    H1 5418   1.805   0.942   0.140  1.2709 -1.7249  1.6784
 1804TIP3    H2 5419   1.663   0.964   0.188  0.3275  1.2635 -1.9882
 1805TIP3   OH2 5420   2.977   1.319   1.827 -0.0059 -0.1306 -0.5962
 1805TIP3    H1 5421   2.891   1.330   1.869 -0.1404 -0.4736 -0.7775
 1805TIP3    H2 5422   2.966   1.359   1.741  0.1223  0.1390 -0.4866
 1806TIP3   OH2 5423   2.377   3.461   2.946 -0.0798  0.4623  0.1561
 1806TIP3    H1 5424   2.286   3.432   2.953 -0.4471  1.8416  2.8571
 1806TIP3    H2 5425   2.429   3.382   2.960 -0.9021 -0.1072  0.0476
 1807TIP3   OH2 5426   1.881   3.493   4.869 -0.1664  0.0611  0.5879
 1807TIP3    H1 5427   1.854   3.522   4.782 -0.0085  1.2271  0.9140
 1807TIP3    H2 5428   1.976   3.486   4.864 -0.1026  0.6822  0.8161
 1808TIP3   OH2 5429   2.008   4.556   1.788 -0.5000 -0.4615  0.0532
 1808TIP3    H1 5430   1.925   4.524   1.823 -0.8243  0.2880 -0.0090
 1808TIP3    H2 5431   2.075   4.514   1.841 -0.9545 -0.2835  0.7760
 1809TIP3   OH2 5432   0.206   5.151   3.269  0.0336 -0.6665 -0.7150
 1809TIP3    H1 5433   0.146   5.161   3.195  0.1370 -0.1210 -0.7282
 1809TIP3    H2 5434   0.239   5.061   3.261 -0.3402 -0.7808 -1.0359
 1810TIP3   OH2 5435   3.525   2.881   4.993 -0.4219  0.3689  0.0167
 1810TIP3    H1 5436   3.483   2.797   4.973 -2.4946  0.8989  1.7377
 1810TIP3    H2 5437   3.619   2.860   4.995 -0.8542 -1.8823  0.2198
 1811TIP3   OH2 5438   2.979   1.548   3.322  0.5170  0.5699  0.0200
 1811TIP3    H1 5439   2.974   1.607   3.397  0.3947 -1.0571  1.3461
 1811TIP3    H2 5440   2.891   1.512   3.313  1.3585 -2.1828  1.6435
 1812TIP3   OH2 5441   5.753   5.267   2.596  0.1833  0.0842 -0.3346
 1812TIP3    H1 5442   5.801   5.267   2.513 -0.2154  0.6379 -0.5757
 1812TIP3    H2 5443   5.698   5.189   2.591 -1.8769  1.5088 -1.8400
 1813TIP3   OH2 5444   3.928   4.173   4.047 -0.0849  0.1103  0.2788
 1813TIP3    H1 5445   3.944   4.079   4.039 -2.7064 -0.3112 -0.9031
 1813TIP3    H2 5446   3.890   4.184   4.134  0.9906  0.2348  0.7478
 1814TIP3   OH2 5447   5.374   0.056   5.156  0.0363 -0.0116  0.7905
 1814TIP3    H1 5448   5.368   0.105   5.074  0.5501  0.3236  0.9501
 1814TIP3    H2 5449   5.354   0.121   5.224  0.4045 -0.0969  0.9824
 1815TIP3   OH2 5450   5.953   0.887   2.654  0.1089 -0.2359  0.1652
 1815TIP3    H1 5451   6.047   0.904   2.652  0.5803 -2.4318  1.1672
 1815TIP3    H2 5452   5.942   0.805   2.606 -1.2901 -0.0784  0.1555
 1816TIP3   OH2 5453   1.249   2.137   3.379 -0.0388 -0.6519  0.6718
 1816TIP3    H1 5454   1.180   2.072   3.391 -0.5278 -0.2135  0.2682
 1816TIP3    H2 5455   1.307   2.124   3.454  0.2071 -1.9542  0.2776
 1817TIP3   OH2 5456   3.670   5.389   2.700  0.0163 -0.1525  0.6086
 1817TIP3    H1 5457   3.602   5.346   2.648 -0.9962  0.9410  0.9816
 1817TIP3    H2 5458   3.743   5.401   2.639  0.0112 -1.5939  0.2755
 1818TIP3   OH2 5459   2.827   2.657   1.057 -0.9977  0.5117 -0.1539
 1818TIP3    H1 5460   2.860   2.568   1.043 -1.6027  0.1762  0.4851
 1818TIP3    H2 5461   2.841   2.672   1.151  0.2621  1.5753 -0.4903
 1819TIP3   OH2 5462   1.093   4.615   0.329  0.4757 -0.6494  0.0460
 1819TIP3    H1 5463   1.064   4.524   0.334  1.3208 -0.8963  0.6105
 1819TIP3    H2 5464   1.184   4.610   0.301  0.8423 -0.0346  1.0830
 1820TIP3   OH2 5465   0.340   4.181   0.887  0.3964 -0.4345 -0.2581
 1820TIP3    H1 5466   0.420   4.129   0.891  0.3413 -0.7153 -1.9871
 1820TIP3    H2 5467   0.367   4.270   0.911  1.4369 -0.3295 -1.7069
 1821TIP3   OH2 5468   1.936   0.127   2.121  0.2117 -0.0115  0.1553
 1821TIP3    H1 5469   1.873   0.111   2.050  0.1479 -0.0319  0.2163
 1821TIP3    H2 5470   1.892   0.190   2.178  0.6923  0.8389 -0.3846
 1822TIP3   OH2 5471   0.533   3.938   0.935 -0.0865 -0.0092 -0.0548
 1822TIP3    H1 5472   0.582   3.875   0.987  0.6853 -0.7330 -1.6030
 1822TIP3    H2 5473   0.490   3.886   0.868  0.8315  1.1033 -1.5787
 1823TIP3   OH2 5474   5.238   5.718   1.036  0.0962 -0.4450  0.0996
 1823TIP3    H1 5475   5.275   5.631   1.052 -0.4985 -0.5433  1.0191
 1823TIP3    H2 5476   5.194   5.710   0.951 -0.6904 -1.2956  0.5786
 1824TIP3   OH2 5477   1.318   0.029   0.861 -0.3792 -0.3632  0.2112
 1824TIP3    H1 5478   1.261   0.009   0.786  0.4769 -0.8268 -0.3391
 1824TIP3    H2 5479   1.332   0.123   0.856 -0.0932 -0.4312 -0.3967
 1825TIP3   OH2 5480   1.929   5.020   4.094 -0.1419  0.1503 -0.1204
 1825TIP3    H1 5481   1.918   5.092   4.156 -1.0297 -0.0002 -0.0876
 1825TIP3    H2 5482   1.951   4.944   4.149 -0.5700  0.0966 -0.0200
 1826TIP3   OH2 5483   2.969   5.038   1.882  0.0582 -0.4110  0.0801
 1826TIP3    H1 5484   2.955   4.947   1.856  2.0789 -1.1373  1.2881
 1826TIP3    H2 5485   3.064   5.051   1.874  0.0304  1.0315  1.5990
 1827TIP3   OH2 5486   3.874   4.230   0.857  0.0097 -0.7463  0.1872
 1827TIP3    H1 5487   3.909   4.219   0.946 -0.2259 -0.8930  0.2627
 1827TIP3    H2 5488   3.812   4.158   0.847 -0.0937 -0.6259 -0.0339
 1828TIP3   OH2 5489   1.920   3.137   3.653  0.0222 -0.3027 -0.0858
 1828TIP3    H1 5490   1.958   3.063   3.700  0.3671  0.5189  0.9597
 1828TIP3    H2 5491   1.853   3.171   3.712 -0.5007 -0.0985 -0.7822
 1829TIP3   OH2 5492   6.022   3.691   4.323 -0.0186  0.0520  0.1007
 1829TIP3    H1 5493   6.033   3.689   4.228  0.0112  0.3937  0.0937
 1829TIP3    H2 5494   6.023   3.599   4.350 -0.1502 -0.0513 -0.2442
 1830TIP3   OH2 5495   3.636   2.825   0.485 -0.0284  0.1959 -0.5062
 1830TIP3    H1 5496   3.592   2.796   0.405  0.5608 -0.3635 -0.6378
 1830TIP3    H2 5497   3.696   2.753   0.506 -0.0690  0.4105  0.3527
 1831TIP3   OH2 5498   5.955   3.030   0.628  0.1269 -0.1673  0.5594
 1831TIP3    H1 5499   6.039   3.066   0.598 -0.6038  1.4985  0.3718
 1831TIP3    H2 5500   5.891   3.061   0.563 -0.5650 -2.0336  0.2797
 1832TIP3   OH2 5501   2.314   4.759   2.885 -0.6743  0.1330 -0.6957
 1832TIP3    H1 5502   2.283   4.739   2.974  0.0430 -1.1615 -0.7269
 1832TIP3    H2 5503   2.407   4.778   2.896 -0.6751  0.3940 -1.1196
 1833TIP3   OH2 5504   2.819   1.098   1.476  0.2038 -0.0616  0.2857
 1833TIP3    H1 5505   2.749   1.140   1.525  0.3172  0.8050 -0.2712
 1833TIP3    H2 5506   2.775   1.055   1.403  0.0210 -1.4593  1.1799
 1834TIP3   OH2 5507   4.548   2.403   4.761  0.2843  0.0714  0.0770
 1834TIP3    H1 5508   4.461   2.364   4.772 -0.3717  1.5580  0.4022
 1834TIP3    H2 5509   4.590   2.350   4.693 -0.3443 -1.5117  0.8829
 1835TIP3   OH2 5510   3.604   5.615   5.080 -0.1601 -0.1477 -0.1205
 1835TIP3    H1 5511   3.624   5.553   5.010 -0.3724  1.8692 -2.0904
 1835TIP3    H2 5512   3.521   5.584   5.117  0.3011 -1.6395 -0.2520
 1836TIP3   OH2 5513   2.327   0.784   0.549 -0.1271 -0.4571 -0.1968
 1836TIP3    H1 5514   2.347   0.691   0.562  1.0102 -0.0482  1.2786
 1836TIP3    H2 5515   2.399   0.816   0.495  0.3017 -0.1314  0.5541
 1837TIP3   OH2 5516   5.285   0.476   1.530  0.2436  0.0875  0.0215
 1837TIP3    H1 5517   5.288   0.385   1.558  0.4927  0.8028  2.5025
 1837TIP3    H2 5518   5.349   0.481   1.459  0.6083 -1.5285  0.1894
 1838TIP3   OH2 5519   1.185   1.674   4.028  0.3847 -0.0330  0.1609
 1838TIP3    H1 5520   1.175   1.729   4.106 -0.2868  2.0240 -1.2944
 1838TIP3    H2 5521   1.118   1.606   4.037 -0.6827  1.0617  0.6898
 1839TIP3   OH2 5522   0.544   3.109   3.943 -0.4947 -0.1790 -0.1465
 1839TIP3    H1 5523   0.518   3.075   4.028 -0.0100  3.1096  1.4603
 1839TIP3    H2 5524   0.637   3.087   3.936 -0.0054  1.2890  1.1945
 1840TIP3   OH2 5525   1.249   0.641   4.120 -0.6223 -0.7150 -0.1809
 1840TIP3    H1 5526   1.181   0.708   4.116 -1.3717 -1.5123 -1.2463
 1840TIP3    H2 5527   1.307   0.662   4.047 -0.6691 -1.0197 -0.3072
 1841TIP3   OH2 5528   1.833   3.197   0.118 -0.2613  0.4776 -0.4607
 1841TIP3    H1 5529   1.833   3.172   0.026  0.8823  1.2765 -0.7042
 1841TIP3    H2 5530   1.743   3.224   0.135 -0.2838  1.2373 -1.6260
 1842TIP3   OH2 5531   5.104   4.948   3.475  0.3654 -0.0863  0.1839
 1842TIP3    H1 5532   5.191   4.944   3.435 -0.6899 -1.1789 -2.2535
 1842TIP3    H2 5533   5.066   4.862   3.457 -1.2756  0.4096  1.0705
 1843TIP3   OH2 5534   1.889   2.657   1.627 -0.0549  0.3326  0.5218
 1843TIP3    H1 5535   1.932   2.729   1.675 -1.0767  2.8210 -1.9889
 1843TIP3    H2 5536   1.921   2.666   1.537 -3.2101  0.2112 -0.7410
 1844TIP3   OH2 5537   5.317   0.589   1.944 -0.0898 -0.5162  0.5009
 1844TIP3    H1 5538   5.375   0.579   1.868 -1.5182 -1.2390 -0.5470
 1844TIP3    H2 5539   5.255   0.657   1.917  1.6797  2.1085  2.5721
 1845TIP3   OH2 5540   4.496   5.675   4.116  0.1548 -0.6180  0.3194
 1845TIP3    H1 5541   4.466   5.624   4.041 -2.7381  1.1488  0.0991
 1845TIP3    H2 5542   4.529   5.610   4.179 -1.0973 -2.4922 -0.8777
 1846TIP3   OH2 5543   5.276   4.430   4.182 -0.8314 -0.0211  0.0200
 1846TIP3    H1 5544   5.319   4.509   4.214 -2.9659  1.2489 -0.0493
 1846TIP3    H2 5545   5.340   4.360   4.197  1.2676  1.7401 -0.2492
 1847TIP3   OH2 5546   1.902   2.202   2.014  0.3896 -0.0149  0.0939
 1847TIP3    H1 5547   1.903   2.204   1.919  3.6706  0.8035  0.0376
 1847TIP3    H2 5548   1.835   2.266   2.039 -0.6237 -0.3453 -1.5986
 1848TIP3   OH2 5549   2.463   2.272   3.336  0.9303  0.4156 -0.2054
 1848TIP3    H1 5550   2.505   2.236   3.414 -0.9745 -3.3043 -0.6651
 1848TIP3    H2 5551   2.379   2.306   3.368  0.2390 -0.9245 -0.4926
 1849TIP3   OH2 5552   5.354   3.779   1.156 -0.5181  0.0634  0.7983
 1849TIP3    H1 5553   5.437   3.731   1.149 -0.1298  0.8350 -0.3009
 1849TIP3    H2 5554   5.307   3.758   1.075 -0.6045  1.0265  0.5826
 1850TIP3   OH2 5555   0.729   0.404   1.750  0.2881  0.4770  0.2937
 1850TIP3    H1 5556   0.654   0.462   1.739  0.6411  0.5161 -2.7252
 1850TIP3    H2 5557   0.804   0.463   1.759  0.3281  0.4618  0.0574
 1851TIP3   OH2 5558   2.923   3.086   1.336  0.5472 -0.0073  0.7400
 1851TIP3    H1 5559   2.868   3.164   1.325  2.1023  0.7946 -3.6146
 1851TIP3    H2 5560   2.872   3.015   1.298  1.2688  0.1676 -0.6451
 1852TIP3   OH2 5561   4.461   0.209   3.298  0.6969 -0.0339  0.4392
 1852TIP3    H1 5562   4.381   0.254   3.270 -0.3862 -1.4228  1.1179
 1852TIP3    H2 5563   4.508   0.273   3.351  0.9126  1.3713 -1.3629
 1853TIP3   OH2 5564   3.995   5.132   3.036  0.0151 -0.2546 -0.2637
 1853TIP3    H1 5565   4.061   5.200   3.047  0.9005 -1.1038 -0.1371
 1853TIP3    H2 5566   3.911   5.178   3.036  0.4945  0.6778  1.3253
 1854TIP3   OH2 5567   5.544   2.217   0.034  0.4279  0.0195  0.0246
 1854TIP3    H1 5568   5.555   2.240  -0.058 -0.0048  1.1032  0.2296
 1854TIP3    H2 5569   5.571   2.295   0.082 -0.1972 -0.2186  0.7815
 1855TIP3   OH2 5570   0.210   3.760   3.168 -0.2556  0.4890 -0.3107
 1855TIP3    H1 5571   0.218   3.823   3.239 -1.1862 -1.1932  1.3857
 1855TIP3    H2 5572   0.123   3.722   3.179  0.8268 -2.2118 -0.2142
 1856TIP3   OH2 5573   2.086   3.140   2.697 -0.5443  0.2163 -0.2715
 1856TIP3    H1 5574   2.165   3.142   2.751 -0.4411  2.3996 -0.4193
 1856TIP3    H2 5575   2.014   3.148   2.759 -0.3941  3.9474 -0.3431
 1857TIP3   OH2 5576   6.211   2.251   4.378 -0.1277  0.0850 -0.3768
 1857TIP3    H1 5577   6.155   2.285   4.308  0.3625  1.5555 -0.0999
 1857TIP3    H2 5578   6.181   2.161   4.391 -0.0415 -0.3247 -2.6468
 1858TIP3   OH2 5579   3.971   2.806   2.973 -0.3139 -0.7187 -0.0539
 1858TIP3    H1 5580   3.915   2.754   3.031 -1.6097  0.2056 -0.4311
 1858TIP3    H2 5581   3.925   2.889   2.963  1.5286  0.3918  0.2404
 1859TIP3   OH2 5582   0.023   3.024   0.309 -0.1179  0.3287 -0.3845
 1859TIP3    H1 5583  -0.020   2.939   0.320  0.0132  0.1936 -0.8591
 1859TIP3    H2 5584   0.109   3.013   0.348 -0.6808  0.7563  1.0233
 1860TIP3   OH2 5585   5.997   1.294   2.102 -0.2279 -0.4218  0.4050
 1860TIP3    H1 5586   5.970   1.386   2.109 -1.6992 -0.5920 -1.8809
 1860TIP3    H2 5587   6.073   1.296   2.043  0.6587 -0.5674  1.5197
 1861TIP3   OH2 5588   2.160   5.076   1.226  0.6822  0.1703 -0.1566
 1861TIP3    H1 5589   2.089   5.051   1.168  0.1994 -1.3714  1.0602
 1861TIP3    H2 5590   2.235   5.087   1.168 -0.5476  2.0718 -1.4925
 1862TIP3   OH2 5591   4.485   0.299   2.932 -0.6647 -0.3579  0.2804
 1862TIP3    H1 5592   4.487   0.224   2.992  1.2082  0.2304  1.0282
 1862TIP3    H2 5593   4.526   0.267   2.852  0.1416 -0.1631  0.6019
 1863TIP3   OH2 5594   3.168   0.172   4.830  0.4422  0.5225  0.4354
 1863TIP3    H1 5595   3.168   0.093   4.883 -0.3499  1.0402  1.2289
 1863TIP3    H2 5596   3.150   0.141   4.741  2.3477 -0.4043  0.3260
 1864TIP3   OH2 5597   2.133   0.391   2.642 -0.1018 -0.1766  0.3290
 1864TIP3    H1 5598   2.095   0.434   2.565  0.2536  1.6455  1.0968
 1864TIP3    H2 5599   2.063   0.393   2.708  0.7116  1.8243  1.2536
 1865TIP3   OH2 5600   1.655   5.696   1.261 -0.1026 -0.0799 -0.3633
 1865TIP3    H1 5601   1.600   5.621   1.237  1.4609 -1.0048 -1.2483
 1865TIP3    H2 5602   1.725   5.696   1.196  0.5548  1.4967  0.2957
 1866TIP3   OH2 5603   0.528   1.797   2.200  0.0451 -0.1446  0.2971
 1866TIP3    H1 5604   0.602   1.831   2.149 -0.7855  0.9387 -0.2274
 1866TIP3    H2 5605   0.536   1.839   2.286 -0.9194  1.3755 -0.3161
 1867TIP3   OH2 5606   4.068   1.909   4.640  0.1791 -0.2173 -1.1961
 1867TIP3    H1 5607   4.060   2.004   4.634  1.5296 -0.0335 -0.4151
 1867TIP3    H2 5608   4.160   1.893   4.660 -0.5011 -1.5369  1.3450
 1868TIP3   OH2 5609   6.244   2.301   0.551 -0.4308  0.5060  0.4371
 1868TIP3    H1 5610   6.310   2.261   0.607  0.4772 -0.4662 -1.2717
 1868TIP3    H2 5611   6.275   2.390   0.537 -0.0930  0.4078  0.5632
 1869TIP3   OH2 5612   5.711   1.906   4.479  0.0244  0.4363 -0.0257
 1869TIP3    H1 5613   5.707   1.819   4.438 -1.7998  0.2566  0.4234
 1869TIP3    H2 5614   5.723   1.888   4.572  0.8244  0.7240 -0.0680
 1870TIP3   OH2 5615   6.211   3.457   4.937  0.2720  0.0084  0.4889
 1870TIP3    H1 5616   6.166   3.377   4.907  1.0714  0.2411 -1.4709
 1870TIP3    H2 5617   6.302   3.444   4.913  0.4425  1.4563  0.2683
 1871TIP3   OH2 5618   2.077   3.733   2.557 -0.3395  0.3484 -0.5715
 1871TIP3    H1 5619   2.005   3.741   2.619 -0.4275 -0.4326 -0.5700
 1871TIP3    H2 5620   2.044   3.774   2.477 -0.6288  0.3690 -0.4430
 1872TIP3   OH2 5621   4.090   1.029   4.813  0.3769  0.1109 -0.1040
 1872TIP3    H1 5622   4.008   0.993   4.778  0.5127 -0.9718  0.6208
 1872TIP3    H2 5623   4.123   1.086   4.745 -0.8135  0.2871 -0.5528
 1873TIP3   OH2 5624   0.858   1.182   5.022  0.5023 -0.6496 -0.3702
 1873TIP3    H1 5625   0.785   1.134   5.061  1.3855 -1.1017  0.7630
 1873TIP3    H2 5626   0.817   1.240   4.958 -0.8725 -0.7459  0.3959
 1874TIP3   OH2 5627   1.853   1.990   2.163 -0.2780 -0.2167 -0.6402
 1874TIP3    H1 5628   1.758   1.996   2.157 -0.2776  0.9145  0.2389
 1874TIP3    H2 5629   1.886   2.046   2.092 -0.2150 -2.5186 -2.5536
 1875TIP3   OH2 5630   0.257   5.856   4.676 -0.5075  0.2778 -0.1475
 1875TIP3    H1 5631   0.173   5.848   4.721 -0.6053  1.6645 -0.0411
 1875TIP3    H2 5632   0.283   5.947   4.691  0.8966 -0.0728 -0.3886
 1876TIP3   OH2 5633   3.959   0.304   1.389 -0.2456 -0.0770  0.0471
 1876TIP3    H1 5634   4.038   0.326   1.339 -0.3187 -0.9267 -0.4471
 1876TIP3    H2 5635   3.887   0.326   1.331 -0.3728  0.2465  0.3206
 1877TIP3   OH2 5636   2.295   2.837   4.663 -0.0688  0.3972 -0.5863
 1877TIP3    H1 5637   2.337   2.864   4.745  2.0577  1.4504 -1.9428
 1877TIP3    H2 5638   2.298   2.741   4.666 -0.7118  0.3926  0.8688
 1878TIP3   OH2 5639   5.091   4.428   2.999 -0.5368  0.2819  0.0613
 1878TIP3    H1 5640   5.007   4.391   2.974 -0.9462  1.4153 -0.3051
 1878TIP3    H2 5641   5.144   4.353   3.024 -1.8117 -0.4063  0.7745
 1879TIP3   OH2 5642   1.367   2.458   3.536 -0.7383 -0.1786  0.4371
 1879TIP3    H1 5643   1.398   2.496   3.618 -0.6988  0.7481  0.0199
 1879TIP3    H2 5644   1.282   2.499   3.521 -0.8670 -0.5447  0.1533
 1880TIP3   OH2 5645   2.412   2.655   2.748 -0.3551  0.0424  0.1324
 1880TIP3    H1 5646   2.497   2.677   2.710 -0.3044  0.1639  0.3160
 1880TIP3    H2 5647   2.349   2.678   2.680 -0.1823 -0.9806 -0.4087
 1881TIP3   OH2 5648   3.884   4.958   4.089  0.2036 -0.3337  0.4269
 1881TIP3    H1 5649   3.880   4.904   4.010 -0.8416 -0.0196  0.2484
 1881TIP3    H2 5650   3.977   4.971   4.104  0.4523 -1.6187  0.0895
 1882TIP3   OH2 5651   0.531   4.571   2.217  0.0765 -0.1743  0.6851
 1882TIP3    H1 5652   0.588   4.572   2.139  0.1197  0.4347  0.7198
 1882TIP3    H2 5653   0.460   4.632   2.195 -0.2415 -0.4711  0.8826
 1883TIP3   OH2 5654   3.881   3.049   2.883 -0.3301  0.0901 -0.2809
 1883TIP3    H1 5655   3.971   3.082   2.877 -0.7186  1.0427 -1.0857
 1883TIP3    H2 5656   3.830   3.108   2.828 -1.3278 -0.8944 -0.4423
 1884TIP3   OH2 5657   3.932   3.796   0.626 -0.9022  0.1382 -0.1596
 1884TIP3    H1 5658   3.994   3.832   0.563  1.3216  0.5789  2.1019
 1884TIP3    H2 5659   3.929   3.861   0.697 -1.1714 -1.5023  1.4226
 1885TIP3   OH2 5660   4.186   5.859   3.205 -0.1996  0.2871  0.2895
 1885TIP3    H1 5661   4.134   5.937   3.225 -1.1851  0.2070 -1.7059
 1885TIP3    H2 5662   4.269   5.894   3.173 -0.2571  0.4925  0.3642
 1886TIP3   OH2 5663   2.459   1.472   3.942 -0.3835  0.3146  0.0699
 1886TIP3    H1 5664   2.518   1.409   3.901  0.3436  1.0762 -0.0963
 1886TIP3    H2 5665   2.497   1.558   3.921 -0.7683  0.7774  1.1507
 1887TIP3   OH2 5666   0.932   1.457   4.046  0.0531 -0.4053  0.1231
 1887TIP3    H1 5667   0.985   1.405   4.106  1.7910  0.1212 -0.8846
 1887TIP3    H2 5668   0.920   1.401   3.969  0.5427  0.0610 -0.3023
 1888TIP3   OH2 5669   0.143   3.440   2.629 -0.0983 -0.1415  0.1818
 1888TIP3    H1 5670   0.114   3.401   2.547  0.3678 -1.3454  0.5591
 1888TIP3    H2 5671   0.062   3.470   2.672 -0.2810  1.1739 -1.0087
 1889TIP3   OH2 5672   5.555   0.247   3.560  0.3438  0.2261 -0.4605
 1889TIP3    H1 5673   5.641   0.203   3.556  0.4558  0.4926 -1.2687
 1889TIP3    H2 5674   5.539   0.275   3.470 -0.5917  0.1969 -0.3122
 1890TIP3   OH2 5675   0.128   2.947   2.418  0.3432  0.1155  0.0601
 1890TIP3    H1 5676   0.057   2.904   2.370  0.1702 -0.1169  0.5218
 1890TIP3    H2 5677   0.164   3.010   2.355 -0.3775  0.3560 -0.1205
 1891TIP3   OH2 5678   4.813   2.390   2.569 -0.3088 -0.2541  0.3834
 1891TIP3    H1 5679   4.847   2.476   2.591  1.2062 -0.9426  0.8973
 1891TIP3    H2 5680   4.763   2.364   2.646 -0.8608  0.1981  0.1834
 1892TIP3   OH2 5681   4.927   0.236   0.741 -0.3719  0.1241  0.0114
 1892TIP3    H1 5682   4.939   0.269   0.652 -0.9123 -0.1771 -0.1814
 1892TIP3    H2 5683   4.974   0.297   0.797  0.7061 -0.1642 -0.5610
 1893TIP3   OH2 5684   4.727   3.706   0.457  0.2227 -0.1676  0.7457
 1893TIP3    H1 5685   4.819   3.715   0.434  0.0422 -0.8923 -0.3377
 1893TIP3    H2 5686   4.691   3.795   0.447  0.8316  0.1626  1.3930
 1894TIP3   OH2 5687   2.052   2.386   2.176  0.2629 -0.1119 -0.0639
 1894TIP3    H1 5688   2.072   2.334   2.254 -0.1102 -1.4874 -0.8528
 1894TIP3    H2 5689   2.067   2.325   2.103  0.2962  1.0529 -1.0474
 1895TIP3   OH2 5690   6.270   4.529   4.067 -0.1088  0.8804  0.6787
 1895TIP3    H1 5691   6.353   4.509   4.025 -0.7877  0.8926 -0.7186
 1895TIP3    H2 5692   6.234   4.444   4.092  0.3467  0.8804  1.3430
 1896TIP3   OH2 5693   3.740   0.340   1.243  0.1513  0.4408 -0.2831
 1896TIP3    H1 5694   3.715   0.429   1.218  2.4722  0.8225 -1.5185
 1896TIP3    H2 5695   3.723   0.287   1.164 -0.6377 -0.1184  0.2428
 1897TIP3   OH2 5696   6.229   1.207   4.832  0.1459 -0.3113 -0.0466
 1897TIP3    H1 5697   6.247   1.270   4.761 -0.9229 -0.2849 -0.3035
 1897TIP3    H2 5698   6.312   1.161   4.843  0.7438  0.6476 -0.3496
 1898TIP3   OH2 5699   4.732   3.385   1.333 -0.3538 -0.0097  0.0287
 1898TIP3    H1 5700   4.817   3.365   1.294  0.0469 -0.8856  1.2720
 1898TIP3    H2 5701   4.678   3.308   1.314 -0.7991  0.4389 -0.5439
 1899TIP3   OH2 5702   2.476   2.003   0.543 -0.2283  0.0229  0.1545
 1899TIP3    H1 5703   2.545   1.938   0.560  1.0488  1.1600 -0.5073
 1899TIP3    H2 5704   2.398   1.966   0.584  0.0915 -2.6019 -1.3499
 1900TIP3   OH2 5705   2.932   5.543   0.330  0.1166  0.2829 -0.0304
 1900TIP3    H1 5706   2.950   5.449   0.331 -0.4938  0.1187 -1.3981
 1900TIP3    H2 5707   2.943   5.568   0.238  0.3134  1.5664  0.3206
 1901TIP3   OH2 5708   4.595   1.570   4.780 -0.1832  0.2171 -0.8112
 1901TIP3    H1 5709   4.621   1.513   4.853  2.1943  1.8658 -0.2479
 1901TIP3    H2 5710   4.623   1.522   4.702 -0.3914 -0.4356 -0.4962
 1902TIP3   OH2 5711   1.782   5.636   0.708  0.0489 -0.0682 -0.4119
 1902TIP3    H1 5712   1.688   5.623   0.700  0.2044 -1.1584 -0.5558
 1902TIP3    H2 5713   1.791   5.729   0.730 -1.0711 -0.0247 -0.0638
 1903TIP3   OH2 5714   5.073   1.823   2.268 -0.3598 -0.0528  0.4618
 1903TIP3    H1 5715   5.140   1.760   2.295  0.6292  0.4331 -0.7266
 1903TIP3    H2 5716   5.066   1.883   2.343  1.1791  0.3771  0.2999
 1904TIP3   OH2 5717   4.863   0.944   2.751 -0.8100  0.1840  0.4747
 1904TIP3    H1 5718   4.772   0.918   2.734 -0.5789  0.5565 -1.4690
 1904TIP3    H2 5719   4.887   0.893   2.829 -2.0637 -1.3850 -0.1058
 1905TIP3   OH2 5720   0.985   2.885   5.186  0.4357 -0.2641 -0.0479
 1905TIP3    H1 5721   1.057   2.947   5.173 -0.3621  0.5472 -0.7066
 1905TIP3    H2 5722   0.907   2.939   5.187 -0.3875 -1.3606 -1.6972
 1906TIP3   OH2 5723   4.177   5.213   1.984 -0.3606 -0.5531  0.6165
 1906TIP3    H1 5724   4.155   5.151   1.914 -2.2711 -0.4993  1.1189
 1906TIP3    H2 5725   4.162   5.299   1.945  0.4299 -0.4627  0.5098
 1907TIP3   OH2 5726   4.017   0.478   0.040 -0.3619  0.1281  0.3100
 1907TIP3    H1 5727   3.956   0.414   0.076 -3.1460  2.0548 -0.6164
 1907TIP3    H2 5728   4.100   0.459   0.083 -0.7610 -4.5188 -0.4987
 1908TIP3   OH2 5729   4.085   3.011   2.583  0.6132  0.0622  0.2957
 1908TIP3    H1 5730   4.090   2.918   2.605  0.6133  0.3418  1.5326
 1908TIP3    H2 5731   4.176   3.040   2.578  0.7300 -0.4586 -2.3244
 1909TIP3   OH2 5732   1.572   5.598   3.875  0.3737 -0.3829 -0.7128
 1909TIP3    H1 5733   1.584   5.506   3.901  1.9582  0.2496  1.0470
 1909TIP3    H2 5734   1.477   5.612   3.878  0.2665 -1.2454  1.8032
 1910TIP3   OH2 5735   0.193   0.261   0.250 -0.2479  0.6251 -0.4463
 1910TIP3    H1 5736   0.226   0.177   0.283 -0.1754  1.6233  2.2508
 1910TIP3    H2 5737   0.108   0.240   0.211  0.0194 -0.7679 -0.3207
 1911TIP3   OH2 5738   3.350   3.435   1.093 -0.0811 -0.0122  0.0483
 1911TIP3    H1 5739   3.374   3.419   1.002  0.9636  0.9113  0.1352
 1911TIP3    H2 5740   3.433   3.455   1.137 -0.6322  0.1012  1.0859
 1912TIP3   OH2 5741   5.552   4.733   2.828 -0.0350  0.7989 -1.1964
 1912TIP3    H1 5742   5.477   4.787   2.802  1.5706  2.2949 -3.0920
 1912TIP3    H2 5743   5.622   4.796   2.843  1.0249 -0.5964 -0.0484
 1913TIP3   OH2 5744   4.696   4.393   0.402 -0.3567  0.3082  0.4735
 1913TIP3    H1 5745   4.626   4.342   0.361  1.0730  0.3122 -2.2349
 1913TIP3    H2 5746   4.756   4.328   0.438 -0.4264  0.2061  0.4037
 1914TIP3   OH2 5747   1.792   4.026   1.480 -0.2682  0.4844  0.4330
 1914TIP3    H1 5748   1.842   4.065   1.408 -1.8214  2.3270  0.2556
 1914TIP3    H2 5749   1.855   3.970   1.526  1.3297  0.9617 -1.0525
 1915TIP3   OH2 5750   3.192   2.190   5.088 -0.2376 -0.1056  0.3456
 1915TIP3    H1 5751   3.191   2.280   5.121 -1.0278  0.2463 -0.5595
 1915TIP3    H2 5752   3.116   2.149   5.129 -1.1249  0.2849 -0.8398
 1916TIP3   OH2 5753   2.518   2.343   4.720  0.3012 -0.5090 -0.8578
 1916TIP3    H1 5754   2.499   2.288   4.796  2.7719  0.9645  1.0066
 1916TIP3    H2 5755   2.454   2.414   4.724  2.1649  1.2377  1.8514
 1917TIP3   OH2 5756   3.228   4.213   2.241 -0.3117  0.5830  0.0985
 1917TIP3    H1 5757   3.287   4.174   2.176  0.9250 -0.4281  1.7524
 1917TIP3    H2 5758   3.155   4.151   2.248  0.9359 -0.8154  1.6503
 1918TIP3   OH2 5759   2.601   3.984   4.490 -0.4368  0.6273  0.2706
 1918TIP3    H1 5760   2.582   4.078   4.496  0.9963  1.0722 -1.3973
 1918TIP3    H2 5761   2.551   3.955   4.413  2.8900  1.1888 -2.3401
 1919TIP3   OH2 5762   3.281   5.299   4.645 -0.0670 -0.7390 -0.1637
 1919TIP3    H1 5763   3.299   5.254   4.727  1.6874  1.4693  0.7600
 1919TIP3    H2 5764   3.270   5.391   4.669 -1.8806 -0.3494 -2.1533
 1920TIP3   OH2 5765   2.017   0.060   0.815 -0.0012  0.3146 -0.5123
 1920TIP3    H1 5766   2.098   0.101   0.785  1.1216 -0.7900  0.8011
 1920TIP3    H2 5767   2.034   0.039   0.907 -1.3523 -1.0001 -0.5200
 1921TIP3   OH2 5768   0.090   3.413   0.575  0.3648 -0.2010  0.7191
 1921TIP3    H1 5769   0.035   3.389   0.649 -0.2469  0.8334  0.6228
 1921TIP3    H2 5770   0.033   3.403   0.499  0.6528 -0.1959  0.5013
 1922TIP3   OH2 5771   0.154   4.279   2.401  0.0868  0.4412  0.0457
 1922TIP3    H1 5772   0.135   4.190   2.371  1.1552  1.4142 -4.1782
 1922TIP3    H2 5773   0.111   4.285   2.486 -0.8618 -3.7631  0.0862
 1923TIP3   OH2 5774   3.729   4.307   0.056 -0.1952  0.1045  0.3395
 1923TIP3    H1 5775   3.700   4.388   0.099 -0.4335 -1.0023  2.3944
 1923TIP3    H2 5776   3.788   4.336  -0.013  0.2364  2.0231  1.4410
 1924TIP3   OH2 5777   2.869   4.806   3.212 -0.0942 -0.2326 -0.6117
 1924TIP3    H1 5778   2.894   4.723   3.171  1.1070 -0.4090  0.4129
 1924TIP3    H2 5779   2.787   4.787   3.257 -0.4913 -0.5096 -1.4347
 1925TIP3   OH2 5780   3.222   3.652   2.058  0.6206 -0.1163 -0.2335
 1925TIP3    H1 5781   3.256   3.571   2.021 -1.9099 -1.6181  0.5225
 1925TIP3    H2 5782   3.255   3.653   2.148  1.3958  0.2091 -0.5062
 1926TIP3   OH2 5783   2.006   1.203   4.690 -0.6116 -0.5607  0.3863
 1926TIP3    H1 5784   2.076   1.256   4.728 -0.3783 -0.9547  0.5118
 1926TIP3    H2 5785   1.979   1.251   4.612 -0.3584 -0.2902  0.4642
 1927TIP3   OH2 5786   1.169   4.569   3.645  0.5853  0.0791  0.3708
 1927TIP3    H1 5787   1.129   4.632   3.585 -0.5528 -1.9314 -1.1054
 1927TIP3    H2 5788   1.196   4.621   3.720 -2.0645  2.0332  0.1109
 1928TIP3   OH2 5789   2.827   1.592   4.651 -0.3696 -0.4801  0.3593
 1928TIP3    H1 5790   2.891   1.563   4.586  0.8902 -0.3830  1.5088
 1928TIP3    H2 5791   2.754   1.626   4.599  0.8059  0.0628 -1.0103
 1929TIP3   OH2 5792   6.058   2.727   4.776  0.1717  0.0874  0.1379
 1929TIP3    H1 5793   6.127   2.661   4.774  0.6203  0.5382  0.6050
 1929TIP3    H2 5794   5.984   2.685   4.730  0.8378 -0.2900 -0.6182
 1930TIP3   OH2 5795   4.969   0.795   3.061 -0.5262 -0.7142  0.2582
 1930TIP3    H1 5796   4.984   0.701   3.050 -2.0513 -1.0390  0.6595
 1930TIP3    H2 5797   4.886   0.800   3.108 -1.6025  0.8592 -1.6594
 1931TIP3   OH2 5798   0.564   0.843   4.129  0.3715 -0.9212  0.5198
 1931TIP3    H1 5799   0.657   0.856   4.110  0.8208 -1.2480  2.3390
 1931TIP3    H2 5800   0.536   0.925   4.168 -0.3933 -0.4668 -0.8886
 1932TIP3   OH2 5801   2.724   1.210   4.244  0.1941 -0.0493  0.6096
 1932TIP3    H1 5802   2.694   1.164   4.165  0.1740  0.3250  0.3980
 1932TIP3    H2 5803   2.793   1.154   4.280  0.1576 -0.2547  0.3613
 1933TIP3   OH2 5804   1.843   3.898   5.032  0.5562 -0.5685 -0.5007
 1933TIP3    H1 5805   1.881   3.912   4.946  2.7966  2.0691  0.7717
 1933TIP3    H2 5806   1.903   3.838   5.076  0.3866 -0.4990 -0.1714
 1934TIP3   OH2 5807   3.355   0.846   4.095  0.2407 -0.0428 -0.4157
 1934TIP3    H1 5808   3.262   0.828   4.086 -0.1389  0.8687  1.2990
 1934TIP3    H2 5809   3.360   0.938   4.121  1.5527 -0.3103  0.3917
 1935TIP3   OH2 5810   4.870   2.814   4.747  0.2219  0.6520  0.0809
 1935TIP3    H1 5811   4.899   2.777   4.831  0.6576  0.1485 -0.2804
 1935TIP3    H2 5812   4.778   2.791   4.741 -0.0063  1.3643  0.7771
 1936TIP3   OH2 5813   0.998   2.035   2.724  0.4558  1.2093 -0.2631
 1936TIP3    H1 5814   0.963   1.978   2.655  0.1691  0.9001  0.1329
 1936TIP3    H2 5815   0.921   2.079   2.760 -0.0791 -1.7246  2.6881
 1937TIP3   OH2 5816   6.299   2.798   2.294 -0.5294 -0.2371  0.2334
 1937TIP3    H1 5817   6.262   2.835   2.213  0.8976 -1.0102 -0.8201
 1937TIP3    H2 5818   6.308   2.705   2.275  2.9526  0.0514 -0.0203
 1938TIP3   OH2 5819   6.329   1.808   0.066  0.3119  0.2243  0.0791
 1938TIP3    H1 5820   6.292   1.895   0.054  2.5329  1.5235  1.8154
 1938TIP3    H2 5821   6.265   1.762   0.120  0.0396  1.5082  0.8943
 1939TIP3   OH2 5822   5.803   1.456   0.942  0.5276 -0.0688 -0.1202
 1939TIP3    H1 5823   5.744   1.482   0.872  0.2534 -1.6440 -0.5205
 1939TIP3    H2 5824   5.813   1.535   0.996  0.4559  1.0606 -1.7018
 1940TIP3   OH2 5825   6.239   5.563   3.288  0.4933  0.0360  0.2859
 1940TIP3    H1 5826   6.184   5.503   3.237 -0.6959  0.2165  1.3011
 1940TIP3    H2 5827   6.314   5.510   3.314 -0.5326 -1.0558  1.1608
 1941TIP3   OH2 5828   4.331   3.817   3.406 -0.1514  0.4327  0.3075
 1941TIP3    H1 5829   4.405   3.865   3.370 -1.1308  1.3771 -0.5055
 1941TIP3    H2 5830   4.265   3.818   3.337 -0.1199 -2.4189  0.0972
 1942TIP3   OH2 5831   2.553   3.163   1.153 -0.1862 -0.7602  0.5807
 1942TIP3    H1 5832   2.534   3.221   1.079 -0.4274  1.0966  2.0361
 1942TIP3    H2 5833   2.616   3.212   1.206  1.4006 -2.8208  0.7160
 1943TIP3   OH2 5834   2.480   4.137   3.818  0.4739 -0.4909  0.2302
 1943TIP3    H1 5835   2.512   4.168   3.733  2.7406 -0.6694  0.9498
 1943TIP3    H2 5836   2.441   4.052   3.799 -0.1666 -0.0015 -0.7841
 1944TIP3   OH2 5837   0.415   1.641   4.388  0.3576  0.2506  0.0542
 1944TIP3    H1 5838   0.376   1.692   4.317 -1.5666  0.4426  1.1997
 1944TIP3    H2 5839   0.434   1.705   4.456 -1.0471 -0.3581  1.0620
 1945TIP3   OH2 5840   3.908   0.447   0.420 -0.0363 -0.6685 -0.1802
 1945TIP3    H1 5841   3.996   0.411   0.421  1.8292  3.3135  1.7809
 1945TIP3    H2 5842   3.866   0.410   0.497  0.4192 -1.5373 -0.3427
 1946TIP3   OH2 5843   0.433   4.784   3.670 -0.1026 -0.0420  0.1403
 1946TIP3    H1 5844   0.476   4.827   3.744 -1.3535  0.8884  0.3672
 1946TIP3    H2 5845   0.346   4.759   3.703  0.6295 -3.0327  0.0812
 1947TIP3   OH2 5846   3.756   4.607   1.833  0.3729  0.2193 -0.0712
 1947TIP3    H1 5847   3.713   4.683   1.870  0.8204  1.3011 -1.6547
 1947TIP3    H2 5848   3.685   4.552   1.801  0.0746  0.3420  0.3797
 1948TIP3   OH2 5849   5.410   3.327   0.432 -0.0045 -0.2900  0.0782
 1948TIP3    H1 5850   5.455   3.248   0.402 -0.6253 -0.2096 -1.1217
 1948TIP3    H2 5851   5.343   3.295   0.492 -0.2894 -0.6934 -0.4439
 1949TIP3   OH2 5852   3.533   5.389   0.281 -0.5928 -0.0399  0.3674
 1949TIP3    H1 5853   3.472   5.441   0.334  1.7269  1.6603  1.5495
 1949TIP3    H2 5854   3.571   5.327   0.343 -0.2765 -0.2891 -0.0777
 1950TIP3   OH2 5855   4.167   1.079   0.998 -0.1307  0.0830  0.0656
 1950TIP3    H1 5856   4.253   1.111   1.024 -0.6445  1.5627  0.0430
 1950TIP3    H2 5857   4.145   1.129   0.920 -1.3796  0.3861  0.5792
 1951TIP3   OH2 5858  -0.011   1.855   2.418 -0.1209  0.2195  0.0302
 1951TIP3    H1 5859   0.077   1.828   2.391 -0.2407  0.4748 -0.6448
 1951TIP3    H2 5860  -0.016   1.833   2.511  1.6883  2.8056  0.8326
 1952TIP3   OH2 5861   3.024   1.927   4.022 -0.1197 -0.4174 -0.0541
 1952TIP3    H1 5862   2.968   1.905   3.948  0.6264 -0.4573 -0.6175
 1952TIP3    H2 5863   2.973   1.902   4.099  0.6750 -4.4304 -0.6087
 1953TIP3   OH2 5864   5.198   2.538   2.891  0.2474  0.1323 -0.1264
 1953TIP3    H1 5865   5.251   2.461   2.911 -1.5412 -0.7415  1.6408
 1953TIP3    H2 5866   5.260   2.602   2.855  2.0851 -1.5197 -0.0474
 1954TIP3   OH2 5867   0.336   3.890   2.957  0.1738 -0.0369 -0.4426
 1954TIP3    H1 5868   0.328   3.854   2.868  0.5769  1.6932 -1.2181
 1954TIP3    H2 5869   0.292   3.825   3.013 -0.3629 -1.0154 -1.9273
 1955TIP3   OH2 5870   4.360   3.227   0.397  0.1491  0.6254  0.2426
 1955TIP3    H1 5871   4.428   3.183   0.448 -1.8925 -2.2651  0.6902
 1955TIP3    H2 5872   4.353   3.176   0.317 -2.5668 -0.2452  0.9357
 1956TIP3   OH2 5873   5.138   4.131   5.057  0.0472 -0.8978  0.3460
 1956TIP3    H1 5874   5.089   4.209   5.031  1.2399  0.4785  1.9899
 1956TIP3    H2 5875   5.077   4.058   5.043 -1.0274  0.2666 -1.4264
 1957TIP3   OH2 5876   3.910   2.208   0.168  1.0700 -0.3779  0.1766
 1957TIP3    H1 5877   3.817   2.187   0.162  0.8142  1.0374 -1.7563
 1957TIP3    H2 5878   3.933   2.190   0.259 -0.6654 -2.3449  0.2801
 1958TIP3   OH2 5879   2.501   1.421   2.123  0.0521 -0.3597  0.1144
 1958TIP3    H1 5880   2.560   1.379   2.185 -1.2257 -0.0216  1.6123
 1958TIP3    H2 5881   2.551   1.495   2.089  1.3652 -1.4879 -0.5642
 1959TIP3   OH2 5882   2.393   0.319   0.450 -0.5719  0.7311  0.0467
 1959TIP3    H1 5883   2.398   0.384   0.521 -0.8198  0.5491  0.2308
 1959TIP3    H2 5884   2.454   0.352   0.384  1.7431 -0.4573  1.4510
 1960TIP3   OH2 5885   1.744   3.035   1.121  0.3560  0.0481 -0.2799
 1960TIP3    H1 5886   1.817   3.001   1.069  2.2167  2.2466  0.6923
 1960TIP3    H2 5887   1.714   3.112   1.074  1.4707  1.5370  1.3128
 1961TIP3   OH2 5888   2.976   5.976   0.396  0.3745  0.3837 -0.0302
 1961TIP3    H1 5889   2.916   6.007   0.327 -0.4664  2.8827  1.6711
 1961TIP3    H2 5890   2.919   5.942   0.464  0.9459  1.1054  0.8427
 1962TIP3   OH2 5891   4.963   3.751   0.285  0.1057 -0.1747  0.0072
 1962TIP3    H1 5892   5.052   3.744   0.249  0.4721 -0.2145  0.9018
 1962TIP3    H2 5893   4.907   3.711   0.218  0.9348 -1.6046  0.1260
 1963TIP3   OH2 5894   4.698   3.980   0.645  0.1576  0.2289  0.0291
 1963TIP3    H1 5895   4.624   3.975   0.706  0.2673  1.4327  0.2919
 1963TIP3    H2 5896   4.658   3.969   0.558 -0.3403  0.8746  0.1677
 1964TIP3   OH2 5897   4.189   4.754   1.251 -0.1755 -0.0173  0.7614
 1964TIP3    H1 5898   4.217   4.845   1.261  0.0811  0.0278 -0.2794
 1964TIP3    H2 5899   4.146   4.752   1.166  3.0529 -1.6191 -1.0159
 1965TIP3   OH2 5900   5.450   4.708   0.162 -0.0947  0.4763 -0.4767
 1965TIP3    H1 5901   5.409   4.643   0.219 -0.0557  1.7540  1.0676
 1965TIP3    H2 5902   5.460   4.663   0.078 -1.0888 -1.1299  0.2181
 1966TIP3   OH2 5903   3.586   5.843   1.051  0.0838  0.4154  0.3784
 1966TIP3    H1 5904   3.543   5.793   1.121  0.2441  2.0323  1.6962
 1966TIP3    H2 5905   3.596   5.780   0.980 -0.6902 -1.1266  1.5588
 1967TIP3   OH2 5906   4.839   1.725   3.391  0.4804  0.1598 -0.0558
 1967TIP3    H1 5907   4.770   1.666   3.358  0.0651  1.3290 -1.4276
 1967TIP3    H2 5908   4.809   1.813   3.365  1.7064  0.8543  0.7763
 1968TIP3   OH2 5909   5.135   5.860   4.987 -0.7113 -0.5457  0.4170
 1968TIP3    H1 5910   5.190   5.868   5.064 -1.9959  0.9476  1.2454
 1968TIP3    H2 5911   5.185   5.901   4.917 -0.9684  1.4142  1.2995
 1969TIP3   OH2 5912   1.675   3.833   1.692 -0.1299 -0.4829  0.5022
 1969TIP3    H1 5913   1.765   3.865   1.686  0.2437 -1.5761  0.2138
 1969TIP3    H2 5914   1.637   3.853   1.606  1.0887 -3.6775 -0.9108
 1970TIP3   OH2 5915   3.786   3.000   0.382  0.2639  0.5033 -0.4657
 1970TIP3    H1 5916   3.768   2.961   0.296  0.4385 -0.8058  0.0572
 1970TIP3    H2 5917   3.720   2.962   0.440  0.5902  0.8181  0.1223
 1971TIP3   OH2 5918   3.477   1.553   0.034 -0.1251 -0.0904 -0.1831
 1971TIP3    H1 5919   3.457   1.575   0.126  0.7143  0.4103 -0.1145
 1971TIP3    H2 5920   3.393   1.523  -0.001 -1.8509  4.4670 -0.6553
 1972TIP3   OH2 5921   4.897   4.844   4.252  0.2456 -0.0180 -0.0685
 1972TIP3    H1 5922   4.830   4.788   4.291  0.1559  0.3690  0.3519
 1972TIP3    H2 5923   4.902   4.816   4.161 -1.7917  1.1320 -0.6000
 1973TIP3   OH2 5924   2.431   0.680   5.158  0.8521  0.2561 -0.1298
 1973TIP3    H1 5925   2.429   0.720   5.245 -1.0674 -1.2106  0.5722
 1973TIP3    H2 5926   2.396   0.748   5.100 -0.3291  0.3755  0.6902
 1974TIP3   OH2 5927   4.931   0.289   0.100 -0.6395  0.2522  0.3737
 1974TIP3    H1 5928   5.004   0.233   0.074  0.2812  0.6965  1.8640
 1974TIP3    H2 5929   4.900   0.328   0.018  0.3935 -0.4122 -0.3545
 1975TIP3   OH2 5930   5.796   2.757   3.596  0.4829  0.2366 -0.2680
 1975TIP3    H1 5931   5.732   2.788   3.532 -0.9713  0.7777  1.3767
 1975TIP3    H2 5932   5.881   2.778   3.557 -0.2928 -0.6298 -2.5734
 1976TIP3   OH2 5933   0.305   4.375   4.166  0.1890 -0.1113 -0.0562
 1976TIP3    H1 5934   0.339   4.343   4.082  1.2474  0.7449  0.0216
 1976TIP3    H2 5935   0.378   4.422   4.205 -0.3262 -0.3884  1.3068
 1977TIP3   OH2 5936   4.998   1.005   3.528  0.1982 -0.2607  0.0583
 1977TIP3    H1 5937   5.003   0.975   3.619  1.8896 -3.2972 -0.9221
 1977TIP3    H2 5938   5.089   1.018   3.502 -0.3161  2.3292 -0.7748
 1978TIP3   OH2 5939   5.564   0.082   1.073  0.3661  0.1328  0.3781
 1978TIP3    H1 5940   5.504   0.071   1.147 -0.4963  0.6993 -0.2171
 1978TIP3    H2 5941   5.598  -0.006   1.056 -2.9931 -0.9459 -1.5007
 1979TIP3   OH2 5942   1.493   2.316   1.477 -0.0658 -0.1637 -0.0800
 1979TIP3    H1 5943   1.496   2.317   1.381  0.3522 -1.8647 -0.1266
 1979TIP3    H2 5944   1.577   2.279   1.503  0.3317  1.4272  1.0306
 1980TIP3   OH2 5945   0.251   0.998   0.569 -0.3192  0.6129  0.1135
 1980TIP3    H1 5946   0.263   0.903   0.571  0.0324  0.5000 -3.2020
 1980TIP3    H2 5947   0.324   1.032   0.620 -0.3062 -0.8508  1.1519
 1981TIP3   OH2 5948   4.619   0.372   3.439 -0.0466 -0.3984  0.0174
 1981TIP3    H1 5949   4.547   0.342   3.495 -1.1242  1.3944 -0.3379
 1981TIP3    H2 5950   4.658   0.444   3.488  0.3635 -0.1938 -0.6059
 1982TIP3   OH2 5951   5.724   1.254   1.993  0.1273 -0.0236 -0.0457
 1982TIP3    H1 5952   5.696   1.331   2.041  0.2441  1.3418 -2.0488
 1982TIP3    H2 5953   5.820   1.262   1.990  0.2567 -0.9719  0.8268
 1983TIP3   OH2 5954   2.932   4.096   4.063 -0.2593  0.0782  0.0686
 1983TIP3    H1 5955   2.908   4.186   4.038 -0.3742 -0.1006 -0.4846
 1983TIP3    H2 5956   2.875   4.041   4.009 -0.3255 -0.3272  0.5517
 1984TIP3   OH2 5957   3.108   0.255   1.332 -0.4302  0.0736 -0.3654
 1984TIP3    H1 5958   3.159   0.174   1.334  0.5602  0.6942  0.1591
 1984TIP3    H2 5959   3.172   0.324   1.312 -1.0453  0.8802  0.3664
 1985TIP3   OH2 5960   1.806   1.265   3.306  0.2656  0.7619  0.2844
 1985TIP3    H1 5961   1.893   1.243   3.341 -0.4175 -1.5795  0.6386
 1985TIP3    H2 5962   1.759   1.301   3.381  0.2407 -0.0176  0.6479
 1986TIP3   OH2 5963   2.515   1.293   0.285 -0.3168 -0.2763  0.3055
 1986TIP3    H1 5964   2.596   1.341   0.267 -0.1002 -0.9356 -0.5659
 1986TIP3    H2 5965   2.515   1.280   0.380 -0.5070  1.6239  0.5951
 1987TIP3   OH2 5966   4.896   0.101   2.015  0.0336 -0.1387  0.3331
 1987TIP3    H1 5967   4.975   0.130   2.061  0.2475  0.0355 -0.1360
 1987TIP3    H2 5968   4.895   0.153   1.934 -1.7346  1.4927  1.3152
 1988TIP3   OH2 5969   4.424   4.904   2.587 -0.4450  0.4245  0.0765
 1988TIP3    H1 5970   4.354   4.868   2.640 -0.8141  2.1257  0.8284
 1988TIP3    H2 5971   4.504   4.869   2.626 -0.8053  0.0921  0.5264
 1989TIP3   OH2 5972   5.486   5.201   1.353 -0.3785  0.0664  0.4124
 1989TIP3    H1 5973   5.550   5.216   1.283  0.5788  1.5688  1.5304
 1989TIP3    H2 5974   5.444   5.287   1.365 -0.0452  0.0371  2.0889
 1990TIP3   OH2 5975   3.670   2.978   4.410  0.3479 -0.1574  0.2678
 1990TIP3    H1 5976   3.613   2.977   4.333  1.0138  0.9790 -0.2581
 1990TIP3    H2 5977   3.759   2.981   4.375  0.6349  2.2474  1.0113
 1991TIP3   OH2 5978   1.385   1.319   0.314 -0.1099 -0.1478  0.4464
 1991TIP3    H1 5979   1.325   1.367   0.371  0.2776  0.3528  0.4455
 1991TIP3    H2 5980   1.431   1.388   0.265  0.5878 -0.5082  0.5821
 1992TIP3   OH2 5981   1.550   3.257   0.086  0.0745  0.2355  0.5321
 1992TIP3    H1 5982   1.547   3.278   0.179  1.8578 -1.1179  0.9381
 1992TIP3    H2 5983   1.489   3.184   0.076 -0.4788  0.6939  0.5422
 1993TIP3   OH2 5984   0.086   4.428   3.868  0.1203  0.8092  0.3506
 1993TIP3    H1 5985   0.029   4.354   3.885  0.9380  0.1946  0.4825
 1993TIP3    H2 5986   0.159   4.391   3.818  0.3128  1.6129  0.0195
 1994TIP3   OH2 5987   1.688   2.818   5.167  0.0424 -0.8053  0.9445
 1994TIP3    H1 5988   1.648   2.754   5.227 -0.5147 -0.7773  0.6141
 1994TIP3    H2 5989   1.613   2.864   5.129  0.4205 -0.3881  0.7070
 1995TIP3   OH2 5990   5.855   4.220   3.445  0.0015 -0.0486 -0.6687
 1995TIP3    H1 5991   5.881   4.311   3.432 -0.1395  0.0933  0.0154
 1995TIP3    H2 5992   5.842   4.186   3.356 -0.1366  0.6509 -0.9239
 1996TIP3   OH2 5993   4.684   1.477   0.048 -0.4181 -0.4926  0.4009
 1996TIP3    H1 5994   4.646   1.563   0.030 -1.1033 -1.2686 -2.3166
 1996TIP3    H2 5995   4.758   1.495   0.107  0.6079  2.2113 -1.5369
 1997TIP3   OH2 5996   1.653   4.161   3.127 -0.5379  0.7206 -0.2126
 1997TIP3    H1 5997   1.597   4.084   3.117 -0.0477 -0.1420  2.6179
 1997TIP3    H2 5998   1.640   4.211   3.047 -1.6123 -1.8156 -1.7595
 1998TIP3   OH2 5999   0.142   1.268   3.783 -0.1502 -0.4377  0.1853
 1998TIP3    H1 6000   0.123   1.176   3.798  0.5012 -0.7329 -0.7257
 1998TIP3    H2 6001   0.227   1.269   3.738  0.3291  0.6569  1.0589
 1999TIP3   OH2 6002   0.503   0.678   1.046 -0.2093 -0.4957  0.1920
 1999TIP3    H1 6003   0.552   0.651   0.968 -1.9714  0.4577 -1.3510
 1999TIP3    H2 6004   0.562   0.736   1.093  0.2782  0.4643 -1.4881
 2000TIP3   OH2 6005   5.035   1.308   3.798 -0.0386 -0.3100  0.2000
 2000TIP3    H1 6006   5.087   1.331   3.875  0.1616 -1.7166  0.5157
 2000TIP3    H2 6007   5.097   1.314   3.725  0.2583 -0.7933  0.4088
 2001TIP3   OH2 6008   1.431   3.490   3.620  0.1445  0.1304  0.0291
 2001TIP3    H1 6009   1.411   3.434   3.694  1.0393  0.1162  0.2758
 2001TIP3    H2 6010   1.466   3.431   3.554  1.6474  0.4386  0.5034
 2002TIP3   OH2 6011   4.225   0.393   1.323 -0.0397 -0.2260  0.2581
 2002TIP3    H1 6012   4.294   0.330   1.344 -0.3855 -1.0898 -1.0543
 2002TIP3    H2 6013   4.249   0.426   1.236 -0.5124  0.5520  0.4202
 2003TIP3   OH2 6014   1.614   4.234   0.301  0.2417 -0.2772  0.1455
 2003TIP3    H1 6015   1.524   4.259   0.320  1.1045  1.4012  2.3764
 2003TIP3    H2 6016   1.607   4.180   0.222 -2.4257  1.8888 -1.2828
 2004TIP3   OH2 6017   3.473   3.561   4.688 -0.4984 -0.0045  0.0270
 2004TIP3    H1 6018   3.520   3.549   4.606 -0.4195 -0.3626  0.1261
 2004TIP3    H2 6019   3.407   3.627   4.668 -1.3602 -1.0546 -0.6867
 2005TIP3   OH2 6020   2.496   5.295   1.752  0.0977  0.1849  0.1386
 2005TIP3    H1 6021   2.430   5.251   1.699 -1.1600  1.4469  0.5837
 2005TIP3    H2 6022   2.468   5.387   1.753  0.8968  0.4458  1.7655
 2006TIP3   OH2 6023   3.235   5.723   1.248  0.2814  0.2129  0.2947
 2006TIP3    H1 6024   3.286   5.756   1.174  0.7450  1.2377  1.0608
 2006TIP3    H2 6025   3.221   5.630   1.227  0.7108  0.3983 -0.9017
 2007TIP3   OH2 6026   4.836   5.144   0.403  0.8044  0.1608  0.6792
 2007TIP3    H1 6027   4.810   5.052   0.402  0.8994  0.1349 -0.0768
 2007TIP3    H2 6028   4.831   5.169   0.495  0.2244 -0.4427  0.8243
 2008TIP3   OH2 6029   5.004   5.774   1.177  0.0732  0.0215  0.5136
 2008TIP3    H1 6030   5.099   5.770   1.164  0.1146  1.2393  0.3434
 2008TIP3    H2 6031   4.975   5.683   1.165  0.9813 -0.0860 -1.3362
 2009TIP3   OH2 6032   3.296   5.434   3.387  0.3925 -0.3221 -0.1992
 2009TIP3    H1 6033   3.257   5.373   3.449  0.5546 -1.4953 -1.2051
 2009TIP3    H2 6034   3.353   5.379   3.332  2.5559  1.1213  0.4429
 2010TIP3   OH2 6035   4.058   1.990   1.031 -0.2138  0.0679 -0.6112
 2010TIP3    H1 6036   3.975   2.035   1.050  0.4764  0.3026  2.4296
 2010TIP3    H2 6037   4.073   2.005   0.937 -3.1678  0.7084 -1.0712
 2011TIP3   OH2 6038   3.506   5.242   3.474 -0.1673 -0.2966 -0.0210
 2011TIP3    H1 6039   3.499   5.268   3.382 -0.1504 -1.2797 -0.3191
 2011TIP3    H2 6040   3.597   5.214   3.484 -0.3518 -0.8703  0.0953
 2012TIP3   OH2 6041   1.203   1.485   3.761  0.0681  0.4297  0.0774
 2012TIP3    H1 6042   1.298   1.492   3.766  0.0203  0.2024  1.5508
 2012TIP3    H2 6043   1.172   1.575   3.763  0.2214  0.4750  0.4639
 2013TIP3   OH2 6044   3.784   0.138   4.758  0.0668  0.3232 -0.0089
 2013TIP3    H1 6045   3.703   0.174   4.794 -0.1081  0.3920 -0.4635
 2013TIP3    H2 6046   3.760   0.106   4.671  0.7765  1.3854 -0.6247
 2014TIP3   OH2 6047   3.773   5.118   3.369  0.2078 -0.2739  0.4568
 2014TIP3    H1 6048   3.754   5.102   3.276 -0.3341 -0.3735  0.5840
 2014TIP3    H2 6049   3.760   5.033   3.411 -0.3495 -0.0471  0.7549
 2015TIP3   OH2 6050   2.392   5.905   4.260 -0.0599  0.1787  0.1276
 2015TIP3    H1 6051   2.381   5.823   4.308 -1.5372  0.6914  0.7509
 2015TIP3    H2 6052   2.444   5.882   4.184  0.0927 -1.2056  0.6254
 2016TIP3   OH2 6053   5.553   4.694   3.104 -0.1071  0.0748  0.3302
 2016TIP3    H1 6054   5.601   4.771   3.134 -0.0608 -0.1626  0.8744
 2016TIP3    H2 6055   5.552   4.702   3.008  0.7903  0.2240  0.3218
 2017TIP3   OH2 6056   5.764   3.719   4.461  0.1049  0.4227 -0.1953
 2017TIP3    H1 6057   5.693   3.731   4.397 -0.3347 -0.4592  0.1064
 2017TIP3    H2 6058   5.843   3.713   4.409 -0.3261 -0.9715 -0.7344
 2018TIP3   OH2 6059   2.910   5.058   3.663  0.1225 -0.3589 -0.3329
 2018TIP3    H1 6060   3.001   5.087   3.665 -0.2751  1.0238 -1.1615
 2018TIP3    H2 6061   2.916   4.962   3.666  1.7092 -0.3847 -2.0734
 2019TIP3   OH2 6062   3.068   3.303   0.725  0.7333 -0.0422 -0.1644
 2019TIP3    H1 6063   3.023   3.249   0.660 -1.4686  2.1604 -0.5994
 2019TIP3    H2 6064   3.102   3.240   0.789 -0.1257 -2.0348 -1.5802
 2020TIP3   OH2 6065   2.442   0.276   2.176 -0.5901 -0.2782  0.0743
 2020TIP3    H1 6066   2.512   0.338   2.197 -1.0205  0.3180 -0.2063
 2020TIP3    H2 6067   2.368   0.305   2.229 -0.6841 -0.7958  0.2323
 2021TIP3   OH2 6068   2.248   3.101   3.321  0.2349 -0.3073  0.0471
 2021TIP3    H1 6069   2.333   3.142   3.305  1.0984 -2.1952 -0.5984
 2021TIP3    H2 6070   2.256   3.015   3.279 -2.2621 -0.2641 -0.6331
 2022TIP3   OH2 6071   6.004   5.084   2.716  0.1057  0.0805 -0.2585
 2022TIP3    H1 6072   6.020   4.993   2.691  0.7192  0.3770 -0.9858
 2022TIP3    H2 6073   6.033   5.135   2.640 -1.2402  0.8339 -0.2935
 2023TIP3   OH2 6074   5.699   1.358   0.590 -0.0457  0.0434 -0.1941
 2023TIP3    H1 6075   5.651   1.405   0.658 -0.7649 -1.6824  0.5542
 2023TIP3    H2 6076   5.752   1.295   0.637 -1.4305 -2.0006 -1.2126
 2024TIP3   OH2 6077   1.687   4.627   2.716 -0.7152 -0.6009 -0.2638
 2024TIP3    H1 6078   1.675   4.553   2.777  0.3910 -0.9562 -0.4533
 2024TIP3    H2 6079   1.695   4.586   2.630  0.4479 -0.3113 -0.3058
 2025TIP3   OH2 6080   0.336   4.724   5.205  0.7268  0.0553  0.1607
 2025TIP3    H1 6081   0.306   4.757   5.120 -0.6468  0.9351  0.9505
 2025TIP3    H2 6082   0.256   4.701   5.251  1.4076  0.2426  1.4890
 2026TIP3   OH2 6083   4.424   4.065   4.537  0.4370 -0.3767  0.4405
 2026TIP3    H1 6084   4.351   4.124   4.515 -0.1468 -0.8126  1.1717
 2026TIP3    H2 6085   4.382   3.984   4.565  1.2365 -1.1776 -0.6057
 2027TIP3   OH2 6086   5.060   0.185   1.104 -0.0927  0.2066  0.0383
 2027TIP3    H1 6087   5.021   0.270   1.121  0.6414  0.4801  0.3892
 2027TIP3    H2 6088   5.153   0.203   1.092 -0.2136 -0.2667 -2.0028
 2028TIP3   OH2 6089   2.665   2.810   1.287 -0.4513 -0.3612  0.0632
 2028TIP3    H1 6090   2.625   2.729   1.255 -2.3359  0.6577 -0.3133
 2028TIP3    H2 6091   2.630   2.821   1.375 -2.2347  1.2543 -0.7680
 2029TIP3   OH2 6092   4.954   4.215   0.101 -0.5269 -0.2762 -0.8385
 2029TIP3    H1 6093   4.940   4.122   0.084 -0.1547  0.0066 -3.0369
 2029TIP3    H2 6094   5.031   4.218   0.157  0.9718 -1.2712 -2.6996
 2030TIP3   OH2 6095   1.562   2.559   2.979  0.1248 -0.3051  0.6211
 2030TIP3    H1 6096   1.627   2.628   2.986  0.3871 -0.3978 -0.7816
 2030TIP3    H2 6097   1.604   2.491   2.926 -0.7110 -0.8507  0.6376
 2031TIP3   OH2 6098   0.292   2.318   4.399 -0.5742  0.3265  0.4102
 2031TIP3    H1 6099   0.205   2.321   4.438 -0.7079  1.6094  0.0779
 2031TIP3    H2 6100   0.296   2.233   4.356 -1.9040  0.4906 -0.0954
 2032TIP3   OH2 6101   3.927   1.975   1.812 -0.2228  0.7671 -0.3217
 2032TIP3    H1 6102   3.907   1.946   1.723 -0.2278  0.3260 -0.1805
 2032TIP3    H2 6103   3.850   1.950   1.863  0.7146 -1.1020  0.2597
 2033TIP3   OH2 6104   3.122   4.847   2.533  0.0774  0.1653  0.1980
 2033TIP3    H1 6105   3.034   4.883   2.517 -0.0559 -0.5571 -0.7527
 2033TIP3    H2 6106   3.142   4.796   2.455  2.2515  2.0296 -0.5650
 2034TIP3   OH2 6107   3.514   4.936   0.239  0.4576 -0.3395  0.1347
 2034TIP3    H1 6108   3.543   4.847   0.261  2.7824  0.2374 -0.3074
 2034TIP3    H2 6109   3.595   4.987   0.235 -0.4910  1.1435 -2.6478
 2035TIP3   OH2 6110   2.103   5.807   1.020  0.1275 -0.8040  0.0078
 2035TIP3    H1 6111   2.069   5.761   0.944 -0.1423 -1.8293  0.7325
 2035TIP3    H2 6112   2.043   5.881   1.032  0.1596 -0.6459 -0.7459
 2036TIP3   OH2 6113   2.459   0.403   1.292 -0.1384  0.0270  0.1392
 2036TIP3    H1 6114   2.391   0.378   1.229  0.0489  1.8071 -0.8269
 2036TIP3    H2 6115   2.411   0.435   1.368 -0.3614 -1.3587  0.6090
 2037TIP3   OH2 6116   0.993   2.836   2.307 -0.4433  0.1070 -0.5797
 2037TIP3    H1 6117   0.905   2.800   2.291 -0.7112  0.2613  0.4789
 2037TIP3    H2 6118   0.982   2.931   2.295 -0.4491  0.1358 -0.3553
 2038TIP3   OH2 6119   3.884   3.116   3.676 -0.8130  0.2319 -0.4146
 2038TIP3    H1 6120   3.922   3.120   3.588 -0.7611  0.2021 -0.3935
 2038TIP3    H2 6121   3.883   3.207   3.705  2.0728 -0.0025  0.7951
 2039TIP3   OH2 6122   4.938   1.042   3.790 -0.3927  0.0359 -0.0597
 2039TIP3    H1 6123   5.023   1.030   3.833 -0.7320  0.9733  0.9403
 2039TIP3    H2 6124   4.942   1.131   3.755 -1.3113  0.4681  0.8715
 2040TIP3   OH2 6125   3.172   2.298   4.534 -0.5305 -0.8609  0.3859
 2040TIP3    H1 6126   3.137   2.312   4.622  0.5859  0.8936  0.5784
 2040TIP3    H2 6127   3.234   2.226   4.544 -0.7660 -0.9927  0.9352
 2041TIP3   OH2 6128   2.712   3.891   2.666  0.3365 -0.7726  0.2980
 2041TIP3    H1 6129   2.679   3.805   2.639 -1.8957  0.1405 -0.0221
 2041TIP3    H2 6130   2.650   3.921   2.733  1.5163  0.2876  0.9669
 2042TIP3   OH2 6131   2.118   5.380   3.932 -0.2839 -0.0165 -0.5792
 2042TIP3    H1 6132   2.135   5.291   3.902  1.0969  0.2671 -0.6711
 2042TIP3    H2 6133   2.068   5.419   3.861  0.4189 -0.2581 -1.2193
 2043TIP3   OH2 6134   3.433   2.619   3.954  0.4391  0.2947  0.4168
 2043TIP3    H1 6135   3.453   2.693   3.896  2.6335  1.5190  2.5470
 2043TIP3    H2 6136   3.451   2.542   3.901  0.3476  1.2877 -1.1445
 2044TIP3   OH2 6137   3.488   1.897   2.617  0.2883 -0.5224  0.0805
 2044TIP3    H1 6138   3.536   1.956   2.558  2.1910 -2.9278 -0.9741
 2044TIP3    H2 6139   3.549   1.882   2.690  0.0392 -1.4999  0.0973
 2045TIP3   OH2 6140   0.240   4.953   0.450 -0.2809  0.2865  0.6415
 2045TIP3    H1 6141   0.169   4.995   0.401  2.0475  2.0510 -1.5466
 2045TIP3    H2 6142   0.304   4.930   0.383  2.6128  1.7095  2.6974
 2046TIP3   OH2 6143   0.765   1.688   3.193  0.0266  0.0307  0.1605
 2046TIP3    H1 6144   0.702   1.619   3.173 -0.5650  0.6044  0.0287
 2046TIP3    H2 6145   0.850   1.645   3.186 -0.3559 -0.8541  0.7363
 2047TIP3   OH2 6146   1.134   3.069   1.153  0.6483  0.6529  0.9152
 2047TIP3    H1 6147   1.094   3.100   1.235 -2.2806  0.0380 -0.1522
 2047TIP3    H2 6148   1.145   2.975   1.166  0.7338  0.6483  0.8112
 2048TIP3   OH2 6149   0.658   0.009   1.709  0.5186 -0.0628 -0.1154
 2048TIP3    H1 6150   0.711  -0.063   1.745  0.3116 -0.4411 -0.5536
 2048TIP3    H2 6151   0.721   0.069   1.671  0.6380 -0.5089 -0.6289
 2049TIP3   OH2 6152   3.677   2.320   1.269 -0.9240 -0.7635  0.3651
 2049TIP3    H1 6153   3.680   2.233   1.308  0.6436 -0.7330  0.3923
 2049TIP3    H2 6154   3.768   2.351   1.275 -1.7250  1.5229  1.8367
 2050TIP3   OH2 6155   0.727   4.974   1.830  0.2859  0.1316  0.1668
 2050TIP3    H1 6156   0.799   4.935   1.781  1.1717  0.3636  1.2420
 2050TIP3    H2 6157   0.768   5.009   1.910 -0.7637  1.6438  0.0861
 2051TIP3   OH2 6158   2.273   2.010   1.424  0.1504 -0.7092  0.2801
 2051TIP3    H1 6159   2.199   1.975   1.374  0.4633  1.3174 -1.8014
 2051TIP3    H2 6160   2.350   1.979   1.376  0.5390 -0.2192  0.5827
 2052TIP3   OH2 6161   0.483   5.284   0.854  0.0773 -0.2425 -0.2139
 2052TIP3    H1 6162   0.498   5.253   0.943  1.1034 -2.2211 -1.0117
 2052TIP3    H2 6163   0.419   5.223   0.818  0.5645 -0.1995 -1.1975
 2053TIP3   OH2 6164   4.966   0.684   3.446  0.1489 -0.0812 -0.0773
 2053TIP3    H1 6165   4.962   0.773   3.412  0.6480 -0.2610 -0.6266
 2053TIP3    H2 6166   4.994   0.631   3.371  0.1963 -0.6443  0.3341
 2054TIP3   OH2 6167   4.261   2.604   4.330 -0.3224  0.2571 -0.2426
 2054TIP3    H1 6168   4.204   2.656   4.387 -2.1805  0.0419 -1.7994
 2054TIP3    H2 6169   4.257   2.649   4.245  0.5915 -0.6541 -0.7836
 2055TIP3   OH2 6170   2.529   4.969   3.860  0.2717 -0.0451 -0.0917
 2055TIP3    H1 6171   2.474   5.042   3.834  1.8030  1.3303  0.3682
 2055TIP3    H2 6172   2.468   4.896   3.875 -1.3262  1.2474 -0.1164
 2056TIP3   OH2 6173   2.085   3.068   0.127 -0.2357 -0.4082 -0.4003
 2056TIP3    H1 6174   2.101   3.097   0.217 -1.4018 -0.2033 -0.2341
 2056TIP3    H2 6175   1.992   3.087   0.113 -0.1115 -0.6215 -1.5837
 2057TIP3   OH2 6176   5.261   4.320   1.604 -0.3433 -0.6411 -0.0044
 2057TIP3    H1 6177   5.271   4.228   1.581  2.9415 -0.2947 -0.4912
 2057TIP3    H2 6178   5.263   4.322   1.700  0.6385 -1.0079 -0.0134
 2058TIP3   OH2 6179   3.616   1.571   2.770 -0.4078 -0.4130  0.2060
 2058TIP3    H1 6180   3.577   1.591   2.685 -1.8984 -2.3640  0.3398
 2058TIP3    H2 6181   3.711   1.569   2.754 -0.4601  1.9466 -0.7239
 2059TIP3   OH2 6182   0.622   1.977   3.702  0.4961  0.4794  0.2902
 2059TIP3    H1 6183   0.578   1.933   3.630 -0.0774  1.7857 -0.1796
 2059TIP3    H2 6184   0.565   1.964   3.778  0.0918  0.7964  0.0452
 2060TIP3   OH2 6185   3.286   2.451   4.192  0.5232 -0.1706 -0.5469
 2060TIP3    H1 6186   3.221   2.404   4.244 -1.0236  1.3267 -1.0388
 2060TIP3    H2 6187   3.243   2.534   4.168  2.6555  0.9341 -0.8052
 2061TIP3   OH2 6188   5.143   2.029   0.799  0.5017  0.3431 -0.0979
 2061TIP3    H1 6189   5.138   1.953   0.857  1.7852  0.9592  0.8763
 2061TIP3    H2 6190   5.052   2.045   0.773  0.2295 -1.6637 -0.5500
 2062TIP3   OH2 6191   2.097   0.126   3.475  0.1262 -0.3939 -0.5626
 2062TIP3    H1 6192   2.119   0.045   3.429 -1.4936 -0.8331 -0.6468
 2062TIP3    H2 6193   2.178   0.152   3.519  0.7197 -1.9964 -0.6295
 2063TIP3   OH2 6194   6.249   4.101   1.310  0.3179 -0.2602 -0.1311
 2063TIP3    H1 6195   6.165   4.062   1.333 -0.8935  2.2505  0.0857
 2063TIP3    H2 6196   6.229   4.165   1.242  1.4782  2.3833  1.8005
 2064TIP3   OH2 6197   1.538   3.311   3.446  0.3831 -0.0862 -0.0661
 2064TIP3    H1 6198   1.456   3.262   3.440 -0.1423  0.5738  1.3580
 2064TIP3    H2 6199   1.599   3.263   3.389 -0.2372 -2.1066  0.8847
 2065TIP3   OH2 6200   5.262   5.830   4.147  0.1591  0.9487  0.4004
 2065TIP3    H1 6201   5.241   5.867   4.061 -2.1328  0.7287  0.7873
 2065TIP3    H2 6202   5.235   5.738   4.140  0.6894  0.7331  1.1276
 2066TIP3   OH2 6203   2.565   2.163   3.105  0.5123 -0.4201  0.1592
 2066TIP3    H1 6204   2.653   2.148   3.139  0.8586  0.4700 -0.3037
 2066TIP3    H2 6205   2.525   2.226   3.165  0.2052 -0.7753  0.3350
 2067TIP3   OH2 6206   0.792   5.202   3.881  0.2915  0.2665  0.3116
 2067TIP3    H1 6207   0.791   5.244   3.967  0.2895  0.5458  0.1767
 2067TIP3    H2 6208   0.861   5.248   3.833 -0.7411  1.1867 -0.3648
 2068TIP3   OH2 6209   5.941   4.604   3.959 -0.8663  0.6926  0.4372
 2068TIP3    H1 6210   5.880   4.604   3.886 -1.9421 -0.2752  1.2919
 2068TIP3    H2 6211   5.983   4.690   3.957 -2.7855  1.6698  0.2477
 2069TIP3   OH2 6212   1.582   0.469   4.547  0.1337  0.2358  0.1474
 2069TIP3    H1 6213   1.506   0.434   4.592  0.1190 -0.8473 -0.6932
 2069TIP3    H2 6214   1.547   0.512   4.469  0.1402  2.2795  1.1880
 2070TIP3   OH2 6215   0.257   4.696   0.561 -0.0899  0.3017 -0.0005
 2070TIP3    H1 6216   0.172   4.667   0.592 -0.3300  2.0023  1.0646
 2070TIP3    H2 6217   0.237   4.758   0.491  0.3348 -0.3755 -0.7387
 2071TIP3   OH2 6218   0.829   5.104   0.770  0.0075  0.5576 -0.4100
 2071TIP3    H1 6219   0.750   5.064   0.808  0.8464  0.0364  0.8453
 2071TIP3    H2 6220   0.898   5.039   0.783  1.1636  1.9377  0.6981
 2072TIP3   OH2 6221   3.187   5.577   4.356  0.3011  0.0835 -0.0483
 2072TIP3    H1 6222   3.143   5.517   4.417 -0.7822 -0.7904 -1.6151
 2072TIP3    H2 6223   3.271   5.535   4.338  0.5770  0.2850  0.7167
 2073TIP3   OH2 6224   3.487   5.862   3.513 -0.3757 -0.0092  0.2979
 2073TIP3    H1 6225   3.485   5.768   3.496 -0.1009 -0.3356  1.9764
 2073TIP3    H2 6226   3.404   5.894   3.476 -1.5961 -1.2985  1.7781
 2074TIP3   OH2 6227   4.381   2.005   3.887 -0.6650 -0.7047  0.5637
 2074TIP3    H1 6228   4.475   2.024   3.889 -0.8596  0.3510  0.0717
 2074TIP3    H2 6229   4.370   1.942   3.815 -0.1700 -1.9033  1.4922
 2075TIP3   OH2 6230   0.859   4.125   2.670  0.1789 -0.1900  0.5814
 2075TIP3    H1 6231   0.824   4.191   2.730  1.5449  0.8613  0.2489
 2075TIP3    H2 6232   0.898   4.175   2.599 -1.1804 -1.4158 -1.1062
 2076TIP3   OH2 6233   1.299   4.752   3.461 -0.1493 -0.4196  0.0155
 2076TIP3    H1 6234   1.373   4.786   3.411 -0.6563  1.8140  0.6440
 2076TIP3    H2 6235   1.337   4.689   3.522  0.9387 -0.7094 -0.9270
 2077TIP3   OH2 6236   1.685   3.190   2.504  0.0728 -0.0243 -0.3074
 2077TIP3    H1 6237   1.595   3.187   2.536  0.7732  1.5826  2.0797
 2077TIP3    H2 6238   1.686   3.265   2.444 -0.0367  0.3816  0.1912
 2078TIP3   OH2 6239   0.241   2.737   2.747 -0.4217 -0.1604  0.5319
 2078TIP3    H1 6240   0.227   2.822   2.706  1.5982 -1.3438 -3.0187
 2078TIP3    H2 6241   0.177   2.679   2.706 -1.6859 -0.5277  2.8190
 2079TIP3   OH2 6242   2.287   4.419   3.324  0.0965 -0.2721 -0.8342
 2079TIP3    H1 6243   2.205   4.378   3.299  0.2708 -0.4342 -1.1411
 2079TIP3    H2 6244   2.312   4.375   3.405 -0.7299  0.6135 -0.0739
 2080TIP3   OH2 6245   3.230   4.319   0.775  0.2108 -0.2622 -0.2804
 2080TIP3    H1 6246   3.186   4.331   0.691 -0.1804  0.8058  0.0740
 2080TIP3    H2 6247   3.211   4.398   0.825  2.0408 -0.0133  0.1019
 2081TIP3   OH2 6248   1.057   5.028   0.456  0.4929  0.1490 -0.1101
 2081TIP3    H1 6249   1.024   5.116   0.470  3.0149  0.9567  1.5296
 2081TIP3    H2 6250   1.088   5.027   0.366  0.0676  0.8096 -0.2639
 2082TIP3   OH2 6251   4.104   1.703   1.524  0.3458  0.3298  0.2174
 2082TIP3    H1 6252   4.092   1.647   1.447 -0.9787 -0.3554  0.8854
 2082TIP3    H2 6253   4.128   1.643   1.594  1.4273  0.9319  0.3750
 2083TIP3   OH2 6254   5.212   4.624   0.303 -0.5119 -0.6830 -0.4948
 2083TIP3    H1 6255   5.158   4.588   0.233 -1.5381 -1.1306  0.4830
 2083TIP3    H2 6256   5.149   4.649   0.371  0.5073 -1.7814  0.9313
 2084TIP3   OH2 6257   0.097   4.365   3.420 -0.1941 -0.6024 -0.8724
 2084TIP3    H1 6258   0.041   4.389   3.494  0.2990 -2.0843  0.0311
 2084TIP3    H2 6259   0.044   4.383   3.342 -1.4123 -0.6924 -0.0860
 2085TIP3   OH2 6260   5.644   3.154   0.821 -0.2019  0.1279  0.5118
 2085TIP3    H1 6261   5.565   3.206   0.836 -0.2181  0.0865  0.5705
 2085TIP3    H2 6262   5.649   3.145   0.726 -1.1196 -1.1721  0.5510
 2086TIP3   OH2 6263   1.323   0.627   2.080 -0.2465  0.2917  0.3094
 2086TIP3    H1 6264   1.368   0.670   2.153  1.1497  1.4166 -1.1391
 2086TIP3    H2 6265   1.358   0.538   2.080  3.4654  1.5487 -1.7617
 2087TIP3   OH2 6266   0.200   4.438   4.500  0.1129  0.7503  0.2506
 2087TIP3    H1 6267   0.155   4.379   4.439 -1.3521  1.0352  0.9977
 2087TIP3    H2 6268   0.173   4.407   4.586  3.4385 -0.6853  0.9212
 2088TIP3   OH2 6269   0.692   3.378   3.866  0.5914  0.0191 -0.4530
 2088TIP3    H1 6270   0.745   3.337   3.934  1.3004  0.4721 -0.7254
 2088TIP3    H2 6271   0.673   3.466   3.901 -0.3321 -0.2737 -0.1780
 2089TIP3   OH2 6272   1.628   5.297   2.789 -0.1048 -0.4525 -0.1161
 2089TIP3    H1 6273   1.680   5.257   2.858 -0.0653  0.1782  0.2273
 2089TIP3    H2 6274   1.586   5.372   2.830 -1.9475 -1.3839 -0.1668
 2090TIP3   OH2 6275   0.663   0.335   2.527  0.2170 -0.2994  0.2563
 2090TIP3    H1 6276   0.701   0.341   2.439 -0.5951  3.0687  0.0088
 2090TIP3    H2 6277   0.570   0.349   2.513  0.2698  1.9305  1.7264
 2091TIP3   OH2 6278   3.942   0.487   3.888  0.0929  0.1395 -0.6151
 2091TIP3    H1 6279   3.853   0.509   3.915  0.3179 -0.1828  0.4347
 2091TIP3    H2 6280   3.955   0.536   3.806 -0.4114  1.6274  0.1495
 2092TIP3   OH2 6281   2.110   0.790   2.247  0.1417 -0.0350 -0.0158
 2092TIP3    H1 6282   2.072   0.739   2.176  0.4634 -0.3841  0.0625
 2092TIP3    H2 6283   2.113   0.730   2.321 -1.1233  0.6081  0.5954
 2093TIP3   OH2 6284   0.796   1.734   1.086  0.2846  0.5083 -0.0725
 2093TIP3    H1 6285   0.743   1.682   1.147  1.1322  1.0780  1.1926
 2093TIP3    H2 6286   0.800   1.681   1.007  0.2242 -0.8711  0.8119
 2094TIP3   OH2 6287   4.618   0.515   0.199  0.4979  0.0895  0.3583
 2094TIP3    H1 6288   4.652   0.426   0.213 -1.4065 -0.7610 -0.1663
 2094TIP3    H2 6289   4.571   0.535   0.280 -1.7490 -0.7006 -0.6687
 2095TIP3   OH2 6290   1.003   0.108   4.504  0.5713 -0.0459 -0.5863
 2095TIP3    H1 6291   1.087   0.135   4.466  0.4858  0.9814 -0.0830
 2095TIP3    H2 6292   1.016   0.118   4.598 -0.0935  0.0737 -0.5030
 2096TIP3   OH2 6293   3.906   3.641   3.604  0.1039  0.4631 -0.4819
 2096TIP3    H1 6294   3.840   3.646   3.534 -1.1995  0.5578  0.7141
 2096TIP3    H2 6295   3.960   3.566   3.580 -0.4743  0.3411 -1.4690
 2097TIP3   OH2 6296   1.507   5.352   0.925  0.0395  0.0546 -0.1952
 2097TIP3    H1 6297   1.444   5.423   0.939 -0.0076  0.0022 -0.1380
 2097TIP3    H2 6298   1.588   5.383   0.964  0.2081  0.3613 -0.7817
 2098TIP3   OH2 6299   0.370   1.598   0.918  0.2269  0.3223 -1.2047
 2098TIP3    H1 6300   0.367   1.691   0.895 -0.2542  0.0556 -2.2716
 2098TIP3    H2 6301   0.428   1.560   0.853  1.5776  0.0906  0.0849
 2099TIP3   OH2 6302   1.305   1.286   4.246  0.6564 -0.0917  0.7495
 2099TIP3    H1 6303   1.323   1.266   4.154  2.0957  1.7680  0.5452
 2099TIP3    H2 6304   1.391   1.282   4.289  0.1328 -0.1035  1.8397
 2100TIP3   OH2 6305   2.622   4.630   0.545 -0.2325 -0.9023  0.6176
 2100TIP3    H1 6306   2.665   4.545   0.560  0.6589 -0.7595 -0.9517
 2100TIP3    H2 6307   2.665   4.665   0.467 -1.3209  0.5309  0.6315
 2101TIP3   OH2 6308   3.105   0.336   0.731  0.4266  0.3745  0.2634
 2101TIP3    H1 6309   3.089   0.406   0.794 -0.3844  2.4638 -2.0842
 2101TIP3    H2 6310   3.017   0.305   0.707  0.7070 -0.2316  0.0072
 2102TIP3   OH2 6311  -0.018   2.557   0.490 -0.1865  0.5954 -0.2935
 2102TIP3    H1 6312  -0.039   2.604   0.409  0.0295 -1.3119 -1.5061
 2102TIP3    H2 6313   0.078   2.554   0.491 -0.1997  0.2536 -0.1704
 2103TIP3   OH2 6314   1.210   3.872   0.421  0.2287 -0.4029  0.6008
 2103TIP3    H1 6315   1.168   3.793   0.454  0.4554 -1.4348 -1.4382
 2103TIP3    H2 6316   1.301   3.847   0.406  0.3372  0.2708  0.0551
 2104TIP3   OH2 6317   2.078   5.629   4.575 -0.4953 -0.2794  0.5390
 2104TIP3    H1 6318   2.011   5.587   4.629  0.5923 -1.0679  1.3373
 2104TIP3    H2 6319   2.124   5.687   4.636  0.5697 -0.9668  0.4184
 2105TIP3   OH2 6320   5.071   5.420   1.904  0.4177  0.2708  0.1571
 2105TIP3    H1 6321   5.105   5.337   1.938 -0.1991 -0.7533 -1.5859
 2105TIP3    H2 6322   4.987   5.432   1.947  0.2026 -0.3610 -0.0836
 2106TIP3   OH2 6323   3.068   4.741   0.297  0.2572 -0.1623  0.1797
 2106TIP3    H1 6324   3.117   4.663   0.323 -1.4944 -0.3177  3.5445
 2106TIP3    H2 6325   3.016   4.713   0.222  0.9945 -1.6733  0.1987
 2107TIP3   OH2 6326   1.099   3.338   3.922  0.0573 -0.2708  0.4571
 2107TIP3    H1 6327   1.046   3.381   3.989 -0.6897  1.0432 -0.9036
 2107TIP3    H2 6328   1.074   3.246   3.927 -0.5413 -0.0661  1.4568
 2108TIP3   OH2 6329   3.607   2.440   2.921  0.2272 -0.0831 -0.0365
 2108TIP3    H1 6330   3.514   2.456   2.903 -0.0102 -0.2988  0.9555
 2108TIP3    H2 6331   3.608   2.386   3.000  1.2254  1.4745  1.1008
 2109TIP3   OH2 6332   1.739   5.954   1.321 -0.2263  0.0379 -0.0214
 2109TIP3    H1 6333   1.687   5.982   1.395  0.0125  0.3905  0.0131
 2109TIP3    H2 6334   1.696   5.874   1.290 -1.2351  0.7255 -0.4614
 2110TIP3   OH2 6335   4.190   0.083   3.230 -0.3219 -0.1792 -0.0534
 2110TIP3    H1 6336   4.126   0.152   3.213  0.0745  0.0496 -0.6583
 2110TIP3    H2 6337   4.216   0.052   3.143 -0.4114 -1.0182  0.2084
 2111TIP3   OH2 6338   3.274   1.420   4.804 -0.0395  0.1595 -0.1875
 2111TIP3    H1 6339   3.366   1.406   4.823  0.9066  1.5967 -3.1227
 2111TIP3    H2 6340   3.273   1.490   4.739 -3.1611 -0.1876 -0.6737
 2112TIP3   OH2 6341   1.395   2.883   1.203  0.1556 -0.0607  0.8786
 2112TIP3    H1 6342   1.306   2.881   1.238 -0.1053  0.6971  0.2981
 2112TIP3    H2 6343   1.412   2.976   1.187  0.6892 -0.2792  0.0911
 2113TIP3   OH2 6344   1.648   3.584   0.845  0.2606  0.1548 -0.4439
 2113TIP3    H1 6345   1.677   3.661   0.894 -0.0952 -0.1366  0.2522
 2113TIP3    H2 6346   1.723   3.526   0.845  1.0789  1.1403 -2.3827
 2114TIP3   OH2 6347   1.071   0.378   0.091  0.6084 -0.5608 -0.6315
 2114TIP3    H1 6348   1.135   0.449   0.086  0.7900 -0.7246 -0.6588
 2114TIP3    H2 6349   1.034   0.372   0.003  0.3894 -0.3121 -0.5547
 2115TIP3   OH2 6350   0.397   4.953   2.363 -0.3507  0.2979  0.3428
 2115TIP3    H1 6351   0.360   4.907   2.287  1.8808 -0.0178 -0.6475
 2115TIP3    H2 6352   0.384   4.893   2.436 -0.4961 -0.4417 -0.2727
 2116TIP3   OH2 6353   4.834   1.684   1.279  0.0452 -0.2894 -0.3857
 2116TIP3    H1 6354   4.778   1.661   1.354  1.1177  2.3221  1.3728
 2116TIP3    H2 6355   4.912   1.631   1.290  0.2096  0.0996  0.4316
 2117TIP3   OH2 6356   4.173   1.679   2.653 -0.3006  0.3897  0.4926
 2117TIP3    H1 6357   4.195   1.653   2.743  2.5207  3.1730  0.7727
 2117TIP3    H2 6358   4.236   1.631   2.599 -0.9112 -0.0028  0.1117
 2118TIP3   OH2 6359   3.840   0.228   0.117 -0.4079  0.6201  0.2522
 2118TIP3    H1 6360   3.799   0.197   0.036 -0.5097 -1.2872  0.9900
 2118TIP3    H2 6361   3.927   0.188   0.117 -0.0804  1.3125  0.6940
 2119TIP3   OH2 6362   6.204   4.318   1.137  0.6400  0.3413 -0.0708
 2119TIP3    H1 6363   6.119   4.306   1.093 -0.0551 -2.4101  1.7191
 2119TIP3    H2 6364   6.221   4.412   1.131 -1.9107  0.8250 -1.6000
 2120TIP3   OH2 6365   3.193   3.590   4.483 -0.1303  0.5279  0.0100
 2120TIP3    H1 6366   3.158   3.556   4.401  0.1705  0.5398 -0.1222
 2120TIP3    H2 6367   3.134   3.555   4.550  0.0517 -0.0828 -0.1457
 2121TIP3   OH2 6368   0.367   0.537   4.291 -0.2135 -0.3947  0.1052
 2121TIP3    H1 6369   0.308   0.612   4.286 -0.2445 -0.2026  2.2319
 2121TIP3    H2 6370   0.422   0.544   4.213 -0.7318  1.3917 -0.1347
 2122TIP3   OH2 6371   1.455   1.651   4.034 -0.6022  0.1148  0.2181
 2122TIP3    H1 6372   1.475   1.612   4.119 -0.1668  2.1160  1.0824
 2122TIP3    H2 6373   1.360   1.663   4.035 -0.5838  0.2585  0.4961
 2123TIP3   OH2 6374   5.620   4.847   3.712 -0.5838 -0.0035 -0.3604
 2123TIP3    H1 6375   5.553   4.911   3.690 -1.2387 -0.6275 -0.2464
 2123TIP3    H2 6376   5.577   4.787   3.773 -0.0799 -0.7138 -0.6779
 2124TIP3   OH2 6377   4.254   4.795   0.482 -0.1424  0.0749 -0.2871
 2124TIP3    H1 6378   4.310   4.866   0.451 -0.4998  0.5584  0.1595
 2124TIP3    H2 6379   4.170   4.810   0.438 -0.2506 -0.0115 -0.1113
 2125TIP3   OH2 6380   5.561   5.930   1.723 -0.2145  0.1173 -0.1221
 2125TIP3    H1 6381   5.570   5.892   1.811  0.4570  0.4184 -0.0534
 2125TIP3    H2 6382   5.637   5.897   1.675  1.1208  2.3949  0.3262
 2126TIP3   OH2 6383   3.292   0.330   5.022 -0.1339  0.4505  0.7319
 2126TIP3    H1 6384   3.260   0.281   4.947  1.5354 -0.4425  0.5621
 2126TIP3    H2 6385   3.321   0.264   5.084 -0.5891  1.1914  1.7591
 2127TIP3   OH2 6386   2.278   4.300   0.635 -0.1003  0.1727 -0.6242
 2127TIP3    H1 6387   2.305   4.213   0.606  0.0602 -0.4188  1.1656
 2127TIP3    H2 6388   2.323   4.360   0.576 -0.2517 -0.9359 -1.9226
 2128TIP3   OH2 6389   5.577   0.495   5.037 -0.2531  0.6603  0.0938
 2128TIP3    H1 6390   5.562   0.482   4.943 -0.2274  0.4938  0.1118
 2128TIP3    H2 6391   5.669   0.473   5.050 -0.0896  1.2909  0.0511
 2129TIP3   OH2 6392   0.248   2.550   0.452  0.0112  0.4150 -0.0021
 2129TIP3    H1 6393   0.296   2.523   0.374 -0.4112  0.2074 -0.1961
 2129TIP3    H2 6394   0.304   2.526   0.525  0.3561  0.4997 -0.2386
 2130TIP3   OH2 6395   4.102   2.501   1.746 -0.2868 -0.5449 -0.4858
 2130TIP3    H1 6396   4.026   2.506   1.688 -0.2395 -0.2526 -0.5237
 2130TIP3    H2 6397   4.134   2.591   1.752 -0.4415 -0.5266  0.1959
 2131TIP3   OH2 6398   5.298   0.224   0.946 -0.0852 -0.0183  0.1201
 2131TIP3    H1 6399   5.353   0.172   1.004  0.2757 -0.2325 -0.4089
 2131TIP3    H2 6400   5.281   0.167   0.871  1.8452  1.2193 -1.3442
 2132TIP3   OH2 6401   1.619   4.792   3.480 -0.4014  0.8664  0.7075
 2132TIP3    H1 6402   1.691   4.834   3.527  0.0044 -1.1069  1.9340
 2132TIP3    H2 6403   1.588   4.723   3.539 -2.5123  0.8647 -0.2943
 2133TIP3   OH2 6404   4.675   1.598   1.476 -0.2664  0.3802  0.5506
 2133TIP3    H1 6405   4.721   1.525   1.518 -0.3412  0.9846  1.7502
 2133TIP3    H2 6406   4.689   1.672   1.535 -1.3040  1.0108  0.0467
 2134TIP3   OH2 6407   1.530   5.997   1.528 -0.3166  0.4202 -0.1538
 2134TIP3    H1 6408   1.535   5.928   1.595  1.6658 -0.0026 -0.6682
 2134TIP3    H2 6409   1.477   5.959   1.458  0.6686 -0.5873 -0.3842
 2135TIP3   OH2 6410   0.699   0.743   4.960 -1.2780  0.1273  0.1447
 2135TIP3    H1 6411   0.651   0.824   4.945 -0.1376  0.9229  0.6684
 2135TIP3    H2 6412   0.786   0.771   4.988 -0.2236 -1.2526 -1.5544
 2136TIP3   OH2 6413   3.888   5.640   0.514 -0.5887  0.6511  0.4299
 2136TIP3    H1 6414   3.885   5.683   0.599 -0.1821  0.8994  0.3201
 2136TIP3    H2 6415   3.901   5.547   0.535  2.0487  0.9687  0.6218
 2137TIP3   OH2 6416   1.278   2.369   3.977 -0.0179 -0.2571  0.3536
 2137TIP3    H1 6417   1.312   2.453   3.946  0.5783 -0.2985  0.8741
 2137TIP3    H2 6418   1.194   2.391   4.018  0.3707  0.1726  0.9395
 2138TIP3   OH2 6419   4.200   5.475   1.263 -0.1871  0.0458  0.2141
 2138TIP3    H1 6420   4.280   5.442   1.304 -0.4429  0.3580  0.9847
 2138TIP3    H2 6421   4.163   5.535   1.328  0.0262  1.4995 -0.9648
 2139TIP3   OH2 6422   1.766   5.552   5.205 -0.5769  0.6955  0.4999
 2139TIP3    H1 6423   1.765   5.456   5.212  0.8098  0.4889 -1.2554
 2139TIP3    H2 6424   1.682   5.573   5.165  0.7049 -0.3319 -3.1627
 2140TIP3   OH2 6425   5.239   3.121   1.801 -0.1964  0.4905  0.4070
 2140TIP3    H1 6426   5.266   3.048   1.856 -1.3329  0.8615  1.5012
 2140TIP3    H2 6427   5.287   3.108   1.719 -0.2943 -1.4291  0.5980
 2141TIP3   OH2 6428   5.200   5.351   5.023 -0.1853  0.2093 -0.3935
 2141TIP3    H1 6429   5.275   5.325   5.077  0.8422  2.4958 -0.5794
 2141TIP3    H2 6430   5.125   5.310   5.064  0.9849 -0.9103  0.7213
 2142TIP3   OH2 6431   2.227   4.031   0.862  0.1326  0.2592 -0.0214
 2142TIP3    H1 6432   2.185   4.037   0.777  0.7083 -0.8419 -0.4183
 2142TIP3    H2 6433   2.281   4.110   0.868 -2.9522  2.4697  1.1287
 2143TIP3   OH2 6434   2.286   2.107   2.157  0.4850  0.0650  0.1678
 2143TIP3    H1 6435   2.333   2.167   2.100 -1.5003  0.9716 -0.6040
 2143TIP3    H2 6436   2.245   2.044   2.097 -2.7866  1.8454  0.2841
 2144TIP3   OH2 6437   0.096   1.263   5.153 -0.3100 -0.8866 -0.3773
 2144TIP3    H1 6438   0.024   1.313   5.115  0.1441  0.8744  0.9562
 2144TIP3    H2 6439   0.057   1.179   5.178 -1.2596 -0.9862 -2.0333
 2145TIP3   OH2 6440   2.965   3.551   1.962  0.0953  0.2895 -0.6677
 2145TIP3    H1 6441   2.961   3.478   2.024  2.0223  2.1819  1.9119
 2145TIP3    H2 6442   2.876   3.560   1.929 -1.0317 -0.9027  1.8199
 2146TIP3   OH2 6443   2.099   4.683   3.679  0.2198 -0.8356  0.1650
 2146TIP3    H1 6444   2.054   4.632   3.745  2.4754 -1.5984  1.2309
 2146TIP3    H2 6445   2.061   4.655   3.596 -0.7802 -1.9024  0.9565
 2147TIP3   OH2 6446   5.959   3.736   1.662 -0.2273  0.1404 -0.0694
 2147TIP3    H1 6447   5.947   3.830   1.671 -0.5175  0.0868  0.1103
 2147TIP3    H2 6448   5.898   3.711   1.592  0.6887  0.2661 -0.9338
 2148TIP3   OH2 6449   3.300   0.348   3.633  0.4582  0.0605  0.2345
 2148TIP3    H1 6450   3.246   0.348   3.554  0.7159 -1.6700  0.0156
 2148TIP3    H2 6451   3.311   0.440   3.655  0.0367  0.5571 -1.5097
 2149TIP3   OH2 6452   5.637   0.649   0.270  0.1955  0.3145  0.1156
 2149TIP3    H1 6453   5.687   0.677   0.347  0.3020 -1.7492  0.8631
 2149TIP3    H2 6454   5.546   0.653   0.298  0.1377  0.8692 -0.1322
 2150TIP3   OH2 6455   5.482   2.861   0.110  0.1338 -0.3213  0.0196
 2150TIP3    H1 6456   5.527   2.854   0.194 -0.0042 -0.6845  0.0664
 2150TIP3    H2 6457   5.502   2.778   0.066 -1.3577 -0.9477  0.4744
 2151TIP3   OH2 6458   1.319   1.597   1.148 -0.2474  0.2569  0.1911
 2151TIP3    H1 6459   1.331   1.533   1.218 -2.9756 -0.2419  0.3037
 2151TIP3    H2 6460   1.227   1.588   1.123  0.3464  1.2842 -2.6371
 2152TIP3   OH2 6461   5.663   0.681   4.235  0.0799 -0.4936 -0.1835
 2152TIP3    H1 6462   5.667   0.692   4.140 -0.7132 -0.8434 -0.2697
 2152TIP3    H2 6463   5.702   0.760   4.270  1.4864 -0.8843 -0.7992
 2153TIP3   OH2 6464   4.980   4.880   0.944 -0.2839  0.2579  0.3023
 2153TIP3    H1 6465   5.030   4.838   1.014 -0.6663  1.8580  1.5972
 2153TIP3    H2 6466   4.994   4.974   0.958 -1.0894  0.6350 -1.2462
 2154TIP3   OH2 6467   5.568   3.384   2.796 -0.3887  0.0937 -0.2528
 2154TIP3    H1 6468   5.538   3.316   2.856  0.2638 -0.7918 -0.9032
 2154TIP3    H2 6469   5.515   3.371   2.717  1.6137 -1.5319 -1.4433
 2155TIP3   OH2 6470   4.389   0.297   4.785 -0.1871 -0.3034 -0.2805
 2155TIP3    H1 6471   4.419   0.288   4.695 -0.2627 -1.6020 -0.1972
 2155TIP3    H2 6472   4.417   0.384   4.811 -0.4156  0.2094 -1.6491
 2156TIP3   OH2 6473   1.077   0.153   4.782  0.6959 -0.3790 -0.3780
 2156TIP3    H1 6474   1.166   0.161   4.816  0.8431  0.5446 -0.9391
 2156TIP3    H2 6475   1.062   0.059   4.776  2.1077 -0.5758 -1.4745
 2157TIP3   OH2 6476   2.386   4.847   2.143 -0.3278  0.3121 -0.2046
 2157TIP3    H1 6477   2.393   4.940   2.163 -0.3754  0.3728 -0.4656
 2157TIP3    H2 6478   2.476   4.814   2.149  0.2527  1.0342 -3.2724
 2158TIP3   OH2 6479   4.612   1.590   4.011  0.7015 -0.0846  0.0677
 2158TIP3    H1 6480   4.706   1.599   3.992  0.5499 -0.4940 -0.9502
 2158TIP3    H2 6481   4.586   1.677   4.040  0.6978  1.0972 -3.0066
 2159TIP3   OH2 6482   0.612   4.519   0.707 -0.1715 -0.1712  0.2732
 2159TIP3    H1 6483   0.594   4.428   0.683 -4.4436  0.9852 -1.9673
 2159TIP3    H2 6484   0.682   4.546   0.647  0.7026 -1.7335  0.5330
 2160TIP3   OH2 6485   6.068   5.278   1.194  0.3892  0.0409 -0.1913
 2160TIP3    H1 6486   5.978   5.312   1.196  0.8173  1.2381 -0.6350
 2160TIP3    H2 6487   6.066   5.203   1.254 -0.2705  1.6534  1.9144
 2161TIP3   OH2 6488   5.204   3.498   1.318  0.2979 -0.4264  0.5268
 2161TIP3    H1 6489   5.263   3.432   1.353  0.2771 -1.1633 -0.7408
 2161TIP3    H2 6490   5.149   3.450   1.256 -1.6754  0.2344  1.7062
 2162TIP3   OH2 6491   6.287   2.990   2.764  0.8816  0.5545 -0.1420
 2162TIP3    H1 6492   6.252   3.058   2.706  1.9436 -0.5487 -2.1765
 2162TIP3    H2 6493   6.380   2.987   2.743  1.2832  0.0009  1.5712
 2163TIP3   OH2 6494   3.509   4.273   4.708 -0.0565  0.5288  0.2578
 2163TIP3    H1 6495   3.515   4.344   4.771 -1.5891 -1.2267  2.5484
 2163TIP3    H2 6496   3.436   4.297   4.650 -1.0537  0.5296  1.4795
 2164TIP3   OH2 6497   2.722   4.327   4.648  0.4135  0.2390 -0.0252
 2164TIP3    H1 6498   2.684   4.414   4.662  1.2348  0.5499  0.3825
 2164TIP3    H2 6499   2.680   4.294   4.569 -0.2422  0.8162  0.0730
 2165TIP3   OH2 6500   4.866   1.772   4.081 -0.1656 -0.1673 -0.3438
 2165TIP3    H1 6501   4.940   1.764   4.022 -0.5375 -0.3286 -0.7969
 2165TIP3    H2 6502   4.850   1.866   4.089  1.2145 -0.0216  1.1957
 2166TIP3   OH2 6503   1.190   2.940   3.596 -0.1201 -0.1036  0.2366
 2166TIP3    H1 6504   1.157   2.988   3.521  0.5033 -1.4077 -0.9086
 2166TIP3    H2 6505   1.186   2.848   3.570  0.0300 -0.6033  1.8289
 2167TIP3   OH2 6506   3.654   3.242   1.443 -0.2384  0.5159  0.2952
 2167TIP3    H1 6507   3.703   3.209   1.368  0.6963  2.4815 -0.0350
 2167TIP3    H2 6508   3.721   3.272   1.504 -1.0104 -0.2052  1.5339
 2168TIP3   OH2 6509   5.103   1.964   4.607  0.1237  0.3777 -0.2955
 2168TIP3    H1 6510   5.185   1.924   4.637 -1.0535  0.6293  3.7792
 2168TIP3    H2 6511   5.100   1.943   4.514  2.6639 -3.4826  0.2374
 2169TIP3   OH2 6512   4.859   2.628   0.986  0.7571  0.0667  0.3652
 2169TIP3    H1 6513   4.833   2.612   1.076 -3.1577 -1.1308 -0.7455
 2169TIP3    H2 6514   4.918   2.556   0.964 -1.7476 -2.3231  0.8677
 2170TIP3   OH2 6515   2.016   4.364   0.615 -0.3292  0.5265 -0.0212
 2170TIP3    H1 6516   1.975   4.287   0.653 -0.1368 -0.1903 -1.2087
 2170TIP3    H2 6517   2.107   4.339   0.601 -0.7685  0.0882 -2.5620
 2171TIP3   OH2 6518   2.066   1.893   1.291 -0.0094 -0.5987  0.2580
 2171TIP3    H1 6519   2.030   1.804   1.287 -0.5586 -0.3597 -0.2124
 2171TIP3    H2 6520   2.101   1.908   1.204  0.7512 -0.6187  0.5493
 2172TIP3   OH2 6521   2.613   1.614   1.915  0.2850  0.5265  0.0527
 2172TIP3    H1 6522   2.662   1.679   1.864  1.7684  0.4051  1.2246
 2172TIP3    H2 6523   2.601   1.656   2.000 -1.8923  0.6226 -0.2576
 2173TIP3   OH2 6524   2.538   3.170   4.132  0.2476  0.1155 -0.0749
 2173TIP3    H1 6525   2.623   3.138   4.162  0.1289 -0.6439 -0.5258
 2173TIP3    H2 6526   2.497   3.094   4.090 -0.3563  0.6637 -0.4988
 2174TIP3   OH2 6527   5.806   1.834   3.674 -0.4260 -0.0411  0.2713
 2174TIP3    H1 6528   5.890   1.873   3.649 -0.6863  0.6184  0.3883
 2174TIP3    H2 6529   5.740   1.894   3.638 -0.8702 -1.0109 -0.5814
 2175TIP3   OH2 6530   1.664   1.744   1.276  0.0651 -0.1345  0.2041
 2175TIP3    H1 6531   1.747   1.700   1.292 -0.0440 -0.0365  1.1236
 2175TIP3    H2 6532   1.686   1.836   1.268  0.1166 -0.1807 -0.2238
 2176TIP3   OH2 6533   5.106   5.629   0.334 -0.3040 -0.6874 -0.6730
 2176TIP3    H1 6534   5.176   5.642   0.271 -0.6416 -0.8820 -1.0946
 2176TIP3    H2 6535   5.138   5.669   0.415  0.5862 -1.4116 -0.6624
 2177TIP3   OH2 6536   3.840   3.758   2.039 -0.0813  0.2808  0.1883
 2177TIP3    H1 6537   3.896   3.814   1.986  0.7061  1.0768  1.7768
 2177TIP3    H2 6538   3.768   3.734   1.981  0.0744  2.1387 -0.8489
 2178TIP3   OH2 6539   2.107   3.618   2.256 -0.1746 -0.0928 -0.0377
 2178TIP3    H1 6540   2.201   3.614   2.274 -0.2256 -0.5684  0.1438
 2178TIP3    H2 6541   2.090   3.711   2.238  0.7115 -0.3222 -2.2871
 2179TIP3   OH2 6542   3.972   4.075   0.600  0.1667 -0.0746 -0.4642
 2179TIP3    H1 6543   4.065   4.064   0.618 -0.0404 -0.6510  0.3332
 2179TIP3    H2 6544   3.943   4.142   0.662  0.1201  0.3556 -0.9479
 2180TIP3   OH2 6545   4.139   0.093   1.437  0.2844  0.3998  0.2049
 2180TIP3    H1 6546   4.062   0.150   1.437  0.6678  0.9216  0.6982
 2180TIP3    H2 6547   4.212   0.150   1.462  0.2435 -0.8112  3.6618
 2181TIP3   OH2 6548   0.643   3.024   4.873  0.5400 -0.7247 -0.1262
 2181TIP3    H1 6549   0.578   2.955   4.856 -1.3887  0.9327  0.0647
 2181TIP3    H2 6550   0.664   3.016   4.966  1.0293 -1.5965 -0.3025
 2182TIP3   OH2 6551   0.299   2.577   4.939  0.1020 -0.1970  0.4486
 2182TIP3    H1 6552   0.291   2.499   4.883  0.0284 -0.7873  1.2740
 2182TIP3    H2 6553   0.224   2.631   4.915  0.0882 -0.4274 -0.0490
 2183TIP3   OH2 6554   3.361   4.474   4.051  0.3640 -0.1808 -0.5503
 2183TIP3    H1 6555   3.449   4.485   4.087  0.7362 -2.4789 -0.5935
 2183TIP3    H2 6556   3.373   4.480   3.956  0.4004 -0.1388 -0.5430
 2184TIP3   OH2 6557   4.433   5.980   4.503 -0.1531  0.1908 -0.3993
 2184TIP3    H1 6558   4.385   5.907   4.543  1.1805 -0.9978 -0.9289
 2184TIP3    H2 6559   4.461   5.948   4.418 -1.0620  1.9522 -1.4309
 2185TIP3   OH2 6560   5.584   1.552   0.744  0.2034 -0.4467 -0.5162
 2185TIP3    H1 6561   5.490   1.553   0.763 -0.0947 -2.2330 -1.6532
 2185TIP3    H2 6562   5.596   1.623   0.680 -0.7971 -1.5237 -1.9690
 2186TIP3   OH2 6563   1.383   4.248   2.525 -0.1752  0.2101 -0.4638
 2186TIP3    H1 6564   1.302   4.212   2.560  0.4326 -0.5164  0.2419
 2186TIP3    H2 6565   1.357   4.331   2.485 -1.5865 -0.9351 -2.0505
 2187TIP3   OH2 6566   0.288   2.352   4.770 -0.0776 -0.3669 -1.1210
 2187TIP3    H1 6567   0.375   2.313   4.785 -0.0446 -0.0757 -0.5306
 2187TIP3    H2 6568   0.229   2.301   4.825  0.1783  1.2520  0.7499
 2188TIP3   OH2 6569   4.264   2.316   0.165 -0.2130 -0.8152 -0.4724
 2188TIP3    H1 6570   4.295   2.378   0.231 -0.4659  0.6778 -1.6949
 2188TIP3    H2 6571   4.327   2.245   0.168  2.5189  1.3371 -1.7108
 2189TIP3   OH2 6572   4.753   3.386   3.727 -0.7384  0.5878  0.5793
 2189TIP3    H1 6573   4.668   3.419   3.696 -0.5807  0.0886 -0.4238
 2189TIP3    H2 6574   4.734   3.298   3.760 -0.7066  0.6974  0.8946
 2190TIP3   OH2 6575   1.985   5.539   1.129  0.5580  0.1666 -0.0306
 2190TIP3    H1 6576   1.953   5.537   1.219  1.4832 -2.8197  0.3385
 2190TIP3    H2 6577   2.079   5.559   1.137  0.6218 -0.0029 -0.3235
 2191TIP3   OH2 6578   1.718   2.139   1.599  0.0271 -0.6755 -0.1222
 2191TIP3    H1 6579   1.781   2.096   1.541 -1.7131 -0.1041 -2.5854
 2191TIP3    H2 6580   1.639   2.087   1.592 -0.5027 -0.0785  1.1052
 2192TIP3   OH2 6581   5.334   0.854   0.178  0.0991  0.2833 -0.8571
 2192TIP3    H1 6582   5.410   0.896   0.219  0.0533 -0.1158 -0.3548
 2192TIP3    H2 6583   5.361   0.839   0.088  0.7457 -0.1590 -0.5945
 2193TIP3   OH2 6584   4.934   5.902   2.098 -0.3029 -0.0963  0.6782
 2193TIP3    H1 6585   4.869   5.877   2.164 -1.0314  2.5959  1.0740
 2193TIP3    H2 6586   4.975   5.981   2.133  0.2700  0.6273 -1.4686
 2194TIP3   OH2 6587   5.497   1.656   1.399 -0.7775  0.6754 -0.9445
 2194TIP3    H1 6588   5.584   1.692   1.381 -0.8362  1.3045 -0.0601
 2194TIP3    H2 6589   5.505   1.619   1.487 -0.8783 -1.0119 -1.6082
 2195TIP3   OH2 6590   0.525   2.102   2.153  0.1130  0.4567 -1.0974
 2195TIP3    H1 6591   0.567   2.177   2.112  1.3506  0.1226 -0.4735
 2195TIP3    H2 6592   0.592   2.034   2.154 -1.1511 -0.8821 -2.1688
 2196TIP3   OH2 6593   2.164   4.827   2.481  0.0516 -0.6364  0.0784
 2196TIP3    H1 6594   2.103   4.834   2.407  0.6702  0.3452 -0.3588
 2196TIP3    H2 6595   2.107   4.817   2.557 -0.6973  0.5143 -0.2932
 2197TIP3   OH2 6596   1.092   1.173   1.807  0.7357  0.4524  0.1381
 2197TIP3    H1 6597   1.090   1.123   1.889  1.2846  1.1048  0.5707
 2197TIP3    H2 6598   1.035   1.125   1.748  1.2367 -0.6757  0.5366
 2198TIP3   OH2 6599   2.220   1.818   3.129  0.2204  0.6476  0.2585
 2198TIP3    H1 6600   2.195   1.836   3.038 -0.8650  1.6806  0.7250
 2198TIP3    H2 6601   2.277   1.890   3.153  0.9668  0.0730  0.2365
 2199TIP3   OH2 6602   6.098   0.029   2.351 -0.4436 -0.1356  0.6355
 2199TIP3    H1 6603   6.057  -0.046   2.308 -1.8452  1.1479 -0.3775
 2199TIP3    H2 6604   6.188   0.029   2.318 -1.6958  1.4206 -3.3751
 2200TIP3   OH2 6605   2.379   0.758   1.436  0.1745 -0.2880  0.9227
 2200TIP3    H1 6606   2.391   0.782   1.528 -0.6187 -1.5045  1.3778
 2200TIP3    H2 6607   2.284   0.743   1.428 -0.0616  1.5245 -0.5612
 2201TIP3   OH2 6608   0.853   0.362   3.966 -0.7588 -0.1640 -0.1639
 2201TIP3    H1 6609   0.764   0.395   3.955  0.0239  2.7139  1.2601
 2201TIP3    H2 6610   0.849   0.309   4.045 -1.4742 -1.4670 -1.0180
 2202TIP3   OH2 6611   0.998   3.666   3.536  0.1074 -0.0652  0.0419
 2202TIP3    H1 6612   0.923   3.723   3.550  0.5631  0.5631 -0.0510
 2202TIP3    H2 6613   0.977   3.586   3.585 -0.7689 -0.0304 -0.2745
 2203TIP3   OH2 6614   5.537   0.178   2.491 -0.2562 -0.2652  0.5188
 2203TIP3    H1 6615   5.596   0.103   2.497 -0.2530 -0.2082  1.4583
 2203TIP3    H2 6616   5.591   0.254   2.515 -0.5983 -0.1557  0.9674
 2204TIP3   OH2 6617   3.357   0.444   1.342 -0.0978 -0.3007  0.4764
 2204TIP3    H1 6618   3.375   0.424   1.250  1.9772  0.9002  0.5616
 2204TIP3    H2 6619   3.344   0.539   1.344  1.3806 -0.0933  1.5967
 2205TIP3   OH2 6620   1.721   5.601   4.563  0.5134 -0.4379  0.4803
 2205TIP3    H1 6621   1.679   5.543   4.627 -0.8084 -0.3900 -0.3174
 2205TIP3    H2 6622   1.744   5.544   4.490  0.7088 -0.2296  0.3773
 2206TIP3   OH2 6623   2.691   5.901   4.599 -0.0528 -0.1629 -0.1862
 2206TIP3    H1 6624   2.670   5.949   4.519 -0.8646  0.4040  0.3432
 2206TIP3    H2 6625   2.747   5.961   4.649 -0.8785  0.1689  0.3721
 2207TIP3   OH2 6626   2.735   5.848   2.122  0.2009 -0.3269 -0.2276
 2207TIP3    H1 6627   2.775   5.929   2.090 -2.4309  0.8031 -0.9311
 2207TIP3    H2 6628   2.779   5.779   2.073  1.5333  0.7485 -0.6426
 2208TIP3   OH2 6629   2.445   1.150   4.510  0.1761 -0.2739  0.0499
 2208TIP3    H1 6630   2.389   1.209   4.460  0.0729  0.5306  1.0790
 2208TIP3    H2 6631   2.514   1.207   4.545 -0.1543 -0.6760  1.4060
 2209TIP3   OH2 6632   0.024   5.386   0.796  0.1381 -0.2040 -0.6826
 2209TIP3    H1 6633  -0.057   5.360   0.838  1.1683 -0.3867  1.3204
 2209TIP3    H2 6634   0.083   5.312   0.807  0.8216  0.1876 -1.4757
 2210TIP3   OH2 6635   4.455   1.094   1.058  1.3744 -0.2657  0.1368
 2210TIP3    H1 6636   4.480   1.003   1.074 -0.5177 -0.8385  0.0717
 2210TIP3    H2 6637   4.477   1.110   0.967  2.1063 -0.5207  0.2662
 2211TIP3   OH2 6638   5.482   3.918   0.874  1.2009 -0.7955 -0.1638
 2211TIP3    H1 6639   5.462   3.920   0.968  2.0039 -1.5550  0.0377
 2211TIP3    H2 6640   5.551   3.983   0.863  0.9613 -0.5586 -0.2651
 2212TIP3   OH2 6641   4.227   1.312   2.277 -0.3962 -0.3020  0.0987
 2212TIP3    H1 6642   4.314   1.334   2.310 -1.0237 -0.9017  2.2920
 2212TIP3    H2 6643   4.244   1.247   2.208  0.8676 -0.6317  0.6872
 2213TIP3   OH2 6644   1.628   1.386   3.494 -0.0019 -0.2102  0.0694
 2213TIP3    H1 6645   1.678   1.461   3.526  1.7197 -1.0092 -0.6095
 2213TIP3    H2 6646   1.545   1.423   3.464  0.8425  1.4425 -0.3415
 2214TIP3   OH2 6647   0.344   0.489   3.821  0.2458  0.0608  0.2563
 2214TIP3    H1 6648   0.333   0.430   3.895  0.2745 -1.7633 -1.1147
 2214TIP3    H2 6649   0.265   0.477   3.769  0.7717  0.3455 -0.6359
 2215TIP3   OH2 6650   1.280   1.736   0.113 -0.4240  0.5071  0.0453
 2215TIP3    H1 6651   1.211   1.768   0.171 -0.0864 -0.2177  0.8662
 2215TIP3    H2 6652   1.354   1.794   0.131 -0.4526  0.5518  0.0204
 2216TIP3   OH2 6653   4.044   3.887   2.291 -0.5179 -0.7924 -0.3098
 2216TIP3    H1 6654   3.970   3.892   2.352  0.2209 -0.1184  0.5633
 2216TIP3    H2 6655   4.121   3.875   2.347  0.1404 -0.5352 -1.1343
 2217TIP3   OH2 6656   2.598   2.756   4.613 -0.1604  0.5202 -0.3434
 2217TIP3    H1 6657   2.587   2.762   4.708  1.6513 -0.1993 -0.0462
 2217TIP3    H2 6658   2.631   2.842   4.587 -0.1729  0.5513 -0.2568
 2218TIP3   OH2 6659   5.805   1.995   0.455 -0.2311  0.2600  0.0621
 2218TIP3    H1 6660   5.775   1.985   0.365 -0.8679  0.0924  0.2880
 2218TIP3    H2 6661   5.901   1.990   0.449 -0.3133 -1.7095 -0.3962
 2219TIP3   OH2 6662   1.213   2.768   4.477 -0.5973  0.5245  0.2789
 2219TIP3    H1 6663   1.285   2.710   4.500 -1.4605 -0.4585  0.5495
 2219TIP3    H2 6664   1.146   2.752   4.543 -1.1879  1.1985 -0.1353
 2220TIP3   OH2 6665   4.078   1.367   1.030  0.3592  0.1415  0.1278
 2220TIP3    H1 6666   4.055   1.450   1.073 -0.1848 -0.3124  0.7316
 2220TIP3    H2 6667   4.153   1.335   1.078  0.4698  0.1969 -0.0053
 2221TIP3   OH2 6668   3.315   2.254   2.812  0.5076 -0.2627 -0.6186
 2221TIP3    H1 6669   3.223   2.262   2.836  0.1897  1.2692 -2.1226
 2221TIP3    H2 6670   3.327   2.161   2.792 -0.0546 -0.9411  1.8611
 2222TIP3   OH2 6671   0.762   2.232   4.346  0.7971 -0.4763  0.0140
 2222TIP3    H1 6672   0.841   2.271   4.383  0.4669 -0.2675  0.5119
 2222TIP3    H2 6673   0.710   2.205   4.422 -0.2787  0.7159 -0.2540
 2223TIP3   OH2 6674   0.627   1.613   2.452  0.0156 -0.2050 -0.1649
 2223TIP3    H1 6675   0.607   1.583   2.540  0.8011 -1.3010 -0.3373
 2223TIP3    H2 6676   0.602   1.705   2.451  0.7993  0.0554  1.4712
 2224TIP3   OH2 6677   5.260   4.738   3.877  0.7328 -0.1832  0.0849
 2224TIP3    H1 6678   5.166   4.729   3.891  1.0607 -1.6073  1.5899
 2224TIP3    H2 6679   5.269   4.744   3.781 -0.8079 -0.9381 -0.1344
 2225TIP3   OH2 6680   2.027   0.597   2.051  0.0434 -0.2620  0.3343
 2225TIP3    H1 6681   2.030   0.509   2.013  1.7163 -0.5563  1.0732
 2225TIP3    H2 6682   1.969   0.646   1.992  0.8253 -1.2716 -1.3445
 2226TIP3   OH2 6683   1.928   0.039   0.421  0.3384  0.5744  0.0307
 2226TIP3    H1 6684   1.870   0.111   0.447  0.6393  0.0766  2.2541
 2226TIP3    H2 6685   2.016   0.077   0.425  0.4850  0.1407  1.0555
 2227TIP3   OH2 6686   2.139   3.583   4.744 -0.2734  0.4592  0.0862
 2227TIP3    H1 6687   2.115   3.667   4.705  0.6293  0.2227 -1.0453
 2227TIP3    H2 6688   2.229   3.596   4.775  0.0977 -0.2494 -0.6480
 2228TIP3   OH2 6689   4.914   2.813   0.284 -0.0730  0.6521 -0.2696
 2228TIP3    H1 6690   4.923   2.899   0.323 -2.8120  1.2891 -0.8431
 2228TIP3    H2 6691   4.881   2.757   0.355 -0.9575  0.7865 -0.5569
 2229TIP3   OH2 6692   5.473   5.085   2.046 -0.6519 -0.4826  0.3470
 2229TIP3    H1 6693   5.535   5.155   2.067 -1.3948  0.3841 -0.2844
 2229TIP3    H2 6694   5.512   5.006   2.086  0.6271  0.1133  0.3349
 2230TIP3   OH2 6695   5.843   4.455   1.485 -0.5781 -0.1826  0.8961
 2230TIP3    H1 6696   5.783   4.448   1.560 -1.7967  0.2733 -0.0070
 2230TIP3    H2 6697   5.904   4.524   1.510 -0.4895 -0.5711  1.7868
 2231TIP3   OH2 6698   2.748   4.880   0.803  0.0625  0.2035 -0.3604
 2231TIP3    H1 6699   2.684   4.939   0.763 -0.8074 -0.5596 -0.1118
 2231TIP3    H2 6700   2.732   4.888   0.897  0.1148 -0.2342 -0.3133
 2232TIP3   OH2 6701   1.172   1.572   0.457  0.2059 -0.4217 -0.2803
 2232TIP3    H1 6702   1.176   1.654   0.409  0.7650 -0.4530 -0.2922
 2232TIP3    H2 6703   1.180   1.597   0.549 -0.3814 -0.4022 -0.2316
 2233TIP3   OH2 6704   5.615   0.998   4.337 -0.8617  0.4008  0.6042
 2233TIP3    H1 6705   5.592   1.041   4.255  1.0009 -1.3371 -0.9192
 2233TIP3    H2 6706   5.708   1.019   4.350 -1.0227  0.3188  2.0667
 2234TIP3   OH2 6707   3.819   4.096   3.679  0.4327 -0.8506 -0.5279
 2234TIP3    H1 6708   3.863   4.050   3.750  0.8582 -0.8214 -0.7630
 2234TIP3    H2 6709   3.730   4.109   3.710  1.2846  1.6415  1.2107
 2235TIP3   OH2 6710   1.496   5.772   1.936 -0.0057  0.1783 -0.1599
 2235TIP3    H1 6711   1.504   5.868   1.934  1.7455  0.0535 -1.0632
 2235TIP3    H2 6712   1.509   5.745   1.845  0.7886 -0.9876  0.2856
 2236TIP3   OH2 6713   0.509   4.554   0.359 -0.1567  0.3668 -0.4199
 2236TIP3    H1 6714   0.483   4.463   0.351 -0.2955  0.3805 -0.1286
 2236TIP3    H2 6715   0.605   4.552   0.366 -0.2364  0.1664  0.7115
 2237TIP3   OH2 6716   1.914   5.148   4.633  0.3489 -0.2842 -0.7813
 2237TIP3    H1 6717   1.906   5.226   4.689 -0.6415 -0.6055 -0.4480
 2237TIP3    H2 6718   2.006   5.145   4.609  0.6171  0.3707  0.1107
 2238TIP3   OH2 6719   1.982   4.401   2.162 -0.6872  0.1449  0.2633
 2238TIP3    H1 6720   1.887   4.396   2.171 -0.4884 -0.6475  2.4803
 2238TIP3    H2 6721   2.009   4.463   2.230  0.4966 -0.7057  0.5919
 2239TIP3   OH2 6722   1.860   5.795   1.625 -0.1568  0.2094 -0.2398
 2239TIP3    H1 6723   1.874   5.810   1.532 -0.4035 -2.3415 -0.7597
 2239TIP3    H2 6724   1.866   5.882   1.664 -1.4253  1.5695 -2.7947
 2240TIP3   OH2 6725   1.545   3.106   1.325 -0.2111 -0.6280 -0.9728
 2240TIP3    H1 6726   1.599   3.085   1.249  1.3600  2.1745 -0.7630
 2240TIP3    H2 6727   1.477   3.165   1.291 -0.4138 -0.5577 -0.4566
 2241TIP3   OH2 6728   2.166   1.610   1.914 -0.4755 -0.0805 -0.2033
 2241TIP3    H1 6729   2.150   1.565   1.997 -0.8270 -0.4141 -0.4453
 2241TIP3    H2 6730   2.255   1.584   1.889 -0.6695 -0.6379 -0.3339
 2242TIP3   OH2 6731   4.186   2.692   0.103 -0.2359  0.1599 -0.0739
 2242TIP3    H1 6732   4.123   2.620   0.114 -0.4164  0.4892  1.2462
 2242TIP3    H2 6733   4.271   2.649   0.097 -0.0228 -0.1754  3.2037
 2243TIP3   OH2 6734   5.771   0.490   1.410 -0.0086 -0.4716 -0.0584
 2243TIP3    H1 6735   5.830   0.535   1.349 -0.3224 -0.3143 -0.2469
 2243TIP3    H2 6736   5.745   0.557   1.472 -1.5952 -0.0101 -1.1551
 2244TIP3   OH2 6737   1.874   1.497   1.867  0.2335  0.2917  0.3199
 2244TIP3    H1 6738   1.814   1.560   1.907 -0.2682  0.1261 -0.1628
 2244TIP3    H2 6739   1.952   1.500   1.923 -0.3256  0.3008  1.1174
 2245TIP3   OH2 6740   1.326   1.561   1.662 -0.2628  0.0679 -0.7802
 2245TIP3    H1 6741   1.409   1.560   1.615  0.4317  0.8237  0.3817
 2245TIP3    H2 6742   1.315   1.471   1.693  1.6004  0.5383  1.4948
 2246TIP3   OH2 6743   5.103   3.880   0.513  0.1891 -0.4547 -0.1483
 2246TIP3    H1 6744   5.052   3.832   0.448  0.1499 -1.0892  0.3414
 2246TIP3    H2 6745   5.044   3.889   0.588 -0.3634  1.7588 -0.7822
 2247TIP3   OH2 6746   5.642   5.812   4.874  0.1108  0.0259  0.1487
 2247TIP3    H1 6747   5.677   5.808   4.963  1.8778  0.1588 -0.4888
 2247TIP3    H2 6748   5.622   5.721   4.851 -2.2030  0.1626  1.3057
 2248TIP3   OH2 6749   3.489   2.969  -0.009 -0.2313 -0.6495 -0.2455
 2248TIP3    H1 6750   3.569   2.941   0.036 -0.2822 -0.8911 -0.3074
 2248TIP3    H2 6751   3.496   3.065  -0.011  1.4921 -0.7452 -2.8876
 2249TIP3   OH2 6752   1.578   0.464   4.059 -0.0038 -0.1832  0.3948
 2249TIP3    H1 6753   1.659   0.416   4.074 -0.4748 -0.7822  1.0967
 2249TIP3    H2 6754   1.606   0.553   4.038  0.8824 -0.7166 -0.7783
 2250TIP3   OH2 6755   4.963   3.909   4.984  0.0972 -0.4029 -0.4576
 2250TIP3    H1 6756   4.879   3.879   4.948  0.2129  0.6808 -1.6980
 2250TIP3    H2 6757   4.991   3.837   5.040 -1.4422 -0.9816 -0.3673
 2251TIP3   OH2 6758   4.782   1.238   3.569 -0.4404 -0.5196 -0.2984
 2251TIP3    H1 6759   4.855   1.176   3.565  0.7787  0.7734  0.7374
 2251TIP3    H2 6760   4.759   1.254   3.478  1.8793  0.4512 -0.7960
 2252TIP3   OH2 6761   6.334   1.386   3.309  0.3226 -0.1223 -0.5086
 2252TIP3    H1 6762   6.395   1.429   3.369 -0.8090  0.2275  0.4399
 2252TIP3    H2 6763   6.310   1.305   3.353 -1.3817  0.6598  0.0983
 2253TIP3   OH2 6764   0.901   0.783   5.184 -0.4549  0.1213 -0.4830
 2253TIP3    H1 6765   0.932   0.834   5.109 -2.7034  1.2440 -0.7245
 2253TIP3    H2 6766   0.897   0.846   5.256 -1.5361 -0.1312 -0.3078
 2254TIP3   OH2 6767   5.535   0.733   4.624  0.6644 -0.1624  0.8030
 2254TIP3    H1 6768   5.618   0.761   4.663  1.2075 -0.3890 -0.1523
 2254TIP3    H2 6769   5.550   0.641   4.600  0.8880  0.3786 -1.2949
 2255TIP3   OH2 6770   5.788   1.198   1.093  0.1777 -0.4893  0.1285
 2255TIP3    H1 6771   5.812   1.280   1.049  0.2511 -0.7354 -0.2864
 2255TIP3    H2 6772   5.723   1.225   1.159  0.1128 -0.1153 -0.0844
 2256TIP3   OH2 6773   3.749   4.274   2.014  0.3423 -0.1847  0.2830
 2256TIP3    H1 6774   3.811   4.235   2.076  0.2217  1.1446  1.2704
 2256TIP3    H2 6775   3.786   4.360   1.995 -0.2592 -0.1045 -0.5622
 2257TIP3   OH2 6776   0.391   1.090   1.090  0.5178 -0.0198  0.4878
 2257TIP3    H1 6777   0.393   1.019   1.154 -0.2040  0.9142  1.5781
 2257TIP3    H2 6778   0.317   1.069   1.033  1.3073 -0.9798 -0.2328
 2258TIP3   OH2 6779   5.521   3.118   3.492 -0.1731  0.1815  0.0507
 2258TIP3    H1 6780   5.472   3.154   3.418 -1.0419 -2.3864 -0.7354
 2258TIP3    H2 6781   5.484   3.160   3.569 -0.0771  2.0209 -0.8691
 2259TIP3   OH2 6782   4.455   0.303   2.586  0.4823  0.5947 -0.4786
 2259TIP3    H1 6783   4.503   0.305   2.503 -0.9648  1.2067 -1.3539
 2259TIP3    H2 6784   4.383   0.365   2.572 -0.3234 -0.0034  0.9117
 2260TIP3   OH2 6785   1.710   3.765   0.336  0.1169  0.5760 -0.0362
 2260TIP3    H1 6786   1.756   3.834   0.288  0.4764  0.1543 -0.2982
 2260TIP3    H2 6787   1.744   3.771   0.425  1.7904 -0.6991 -0.5616
 2261TIP3   OH2 6788   6.141   4.618   4.303 -0.1795 -0.2755  0.0169
 2261TIP3    H1 6789   6.046   4.631   4.296  0.0648  0.6754 -3.6025
 2261TIP3    H2 6790   6.172   4.618   4.213  3.4136  0.3375  1.0847
 2262TIP3   OH2 6791   2.849   1.598   1.083 -1.0973  0.2343 -0.6393
 2262TIP3    H1 6792   2.902   1.624   1.007 -0.5861  2.6339  0.4364
 2262TIP3    H2 6793   2.913   1.577   1.151 -1.5415  0.4676 -0.1434
 2263TIP3   OH2 6794   1.427   0.517   0.631 -0.4737  0.1445  0.4025
 2263TIP3    H1 6795   1.408   0.445   0.570 -0.7479  0.2716  0.3358
 2263TIP3    H2 6796   1.511   0.494   0.670 -1.1512 -0.8766  1.3348
 2264TIP3   OH2 6797   5.669   1.220   1.517  0.1097  0.2242 -0.0048
 2264TIP3    H1 6798   5.600   1.237   1.453  0.7994  2.6073 -0.1853
 2264TIP3    H2 6799   5.716   1.145   1.480 -0.0430  0.9813 -1.8818
 2265TIP3   OH2 6800   6.005   0.169   2.583 -0.5797  0.4767 -0.0943
 2265TIP3    H1 6801   5.968   0.096   2.532  1.1895 -0.4635 -0.1231
 2265TIP3    H2 6802   5.990   0.144   2.674 -1.2188  0.7876 -0.1036
 2266TIP3   OH2 6803   4.755   2.170   1.032  0.1979 -0.3599  0.6565
 2266TIP3    H1 6804   4.676   2.224   1.041  0.4236 -0.0349  0.6884
 2266TIP3    H2 6805   4.727   2.083   1.062 -0.3766 -0.4568 -0.1290
 2267TIP3   OH2 6806   6.245   2.627   3.002 -0.1773 -0.2039  0.5226
 2267TIP3    H1 6807   6.272   2.600   3.089  0.2789 -1.5886 -0.0240
 2267TIP3    H2 6808   6.177   2.564   2.978 -0.1651  0.0505 -0.1970
 2268TIP3   OH2 6809   4.973   4.552   2.774 -0.2333  0.0854 -0.0751
 2268TIP3    H1 6810   4.877   4.560   2.772 -0.1775  0.6809 -0.5938
 2268TIP3    H2 6811   4.991   4.513   2.860 -0.9961 -0.9391 -0.3590
 2269TIP3   OH2 6812   6.365   0.939   0.340 -0.3861  0.5832 -1.1679
 2269TIP3    H1 6813   6.305   0.895   0.401  0.1213 -1.0939 -1.8227
 2269TIP3    H2 6814   6.400   1.013   0.390  0.3634 -0.9975  0.8024
 2270TIP3   OH2 6815   5.226   4.165   1.287 -0.6216  0.0502  0.3505
 2270TIP3    H1 6816   5.291   4.139   1.222 -0.8918 -0.9964  0.4742
 2270TIP3    H2 6817   5.199   4.253   1.262 -1.3740 -0.6592 -1.4792
 2271TIP3   OH2 6818   5.238   5.323   3.848 -0.5323  0.6575 -0.7868
 2271TIP3    H1 6819   5.218   5.266   3.774  0.1537 -1.9799  0.9150
 2271TIP3    H2 6820   5.153   5.339   3.890 -0.5184 -1.2242  0.0783
 2272TIP3   OH2 6821   4.013   2.203   0.422 -0.5307 -0.1417  0.8731
 2272TIP3    H1 6822   3.995   2.282   0.472 -1.9821 -0.2685  0.6041
 2272TIP3    H2 6823   4.106   2.186   0.436  0.6804  3.3781 -1.6396
 2273TIP3   OH2 6824   1.593   3.130   3.155 -1.0262  0.5545 -0.3849
 2273TIP3    H1 6825   1.638   3.162   3.077 -0.6419  1.2281  0.1042
 2273TIP3    H2 6826   1.660   3.128   3.223 -1.2594 -0.4453 -0.1730
 2274TIP3   OH2 6827   0.138   1.918   2.131  0.2803  0.0378 -1.0097
 2274TIP3    H1 6828   0.162   1.998   2.084 -0.8621  1.0816  0.0804
 2274TIP3    H2 6829   0.042   1.920   2.135  0.2928 -0.5494  0.3872
 2275TIP3   OH2 6830   1.671   5.107   4.853  0.8006  0.5520 -0.0326
 2275TIP3    H1 6831   1.729   5.111   4.929  1.4847 -1.0325 -0.4398
 2275TIP3    H2 6832   1.670   5.015   4.828 -1.1032  0.7106 -0.6762
 2276TIP3   OH2 6833   2.830   4.484   4.356 -0.5048  0.0750  0.4611
 2276TIP3    H1 6834   2.864   4.432   4.282  0.0505  0.3674  0.5018
 2276TIP3    H2 6835   2.761   4.538   4.318  0.7825  1.3272 -0.1868
 2277TIP3   OH2 6836   4.498   5.875   2.128 -0.4816 -0.3825 -0.0821
 2277TIP3    H1 6837   4.495   5.920   2.043 -0.0652  2.7813  1.4471
 2277TIP3    H2 6838   4.558   5.927   2.181 -0.6366 -2.3374  2.1628
 2278TIP3   OH2 6839   1.685   0.051   4.997  0.6694  0.2005 -0.1498
 2278TIP3    H1 6840   1.737  -0.013   4.948 -0.6354  0.8067 -2.4295
 2278TIP3    H2 6841   1.729   0.135   4.982 -0.6870  0.6626 -1.8014
 2279TIP3   OH2 6842   6.057   3.800   2.543 -0.7295  0.0600  0.2368
 2279TIP3    H1 6843   5.969   3.767   2.563 -0.6868  0.6169  1.3933
 2279TIP3    H2 6844   6.042   3.878   2.489 -0.9261  0.0188  0.2319
 2280TIP3   OH2 6845   0.481   1.210   2.161  0.2824 -0.3729 -0.2626
 2280TIP3    H1 6846   0.448   1.298   2.178 -0.0773  0.0154 -2.6314
 2280TIP3    H2 6847   0.480   1.202   2.065  0.1470 -3.0048 -0.1127
 2281TIP3   OH2 6848   2.466   0.535   4.048  0.5267 -0.1047  0.4026
 2281TIP3    H1 6849   2.391   0.529   4.108  0.7837 -0.7655  0.6656
 2281TIP3    H2 6850   2.542   0.520   4.104  0.6944 -2.1616 -0.3034
 2282TIP3   OH2 6851   0.450   3.609   3.338  0.0244 -0.2055 -0.6101
 2282TIP3    H1 6852   0.501   3.596   3.418 -1.2018  0.1472  0.2736
 2282TIP3    H2 6853   0.420   3.522   3.314  1.6503 -0.5371 -1.6036
 2283TIP3   OH2 6854   2.651   0.535   1.183 -0.3912  0.2472  0.0351
 2283TIP3    H1 6855   2.742   0.511   1.203 -0.0115  0.9466 -0.7895
 2283TIP3    H2 6856   2.601   0.503   1.258  0.6902  0.9187  1.0819
 2284TIP3   OH2 6857   1.765   2.757   3.018 -0.3040  0.5464 -0.4522
 2284TIP3    H1 6858   1.760   2.817   2.943 -0.9588 -1.2203 -1.8827
 2284TIP3    H2 6859   1.857   2.731   3.021 -0.3102  0.4760 -0.7857
 2285TIP3   OH2 6860   6.316   5.074   1.781 -0.4052  0.2419  0.2528
 2285TIP3    H1 6861   6.295   5.002   1.721 -0.2351 -0.0803  0.5778
 2285TIP3    H2 6862   6.407   5.096   1.761 -0.0526 -0.4849  1.0231
 2286TIP3   OH2 6863   6.089   5.294   0.069  0.3471  0.2447  0.0169
 2286TIP3    H1 6864   5.996   5.273   0.063  0.1146  0.6581  1.8377
 2286TIP3    H2 6865   6.129   5.216   0.107  0.1668  1.2810  2.5223
 2287TIP3   OH2 6866   3.463   1.240   1.282 -0.0935 -0.1293 -0.2468
 2287TIP3    H1 6867   3.558   1.247   1.292 -0.1424  0.0318  0.1365
 2287TIP3    H2 6868   3.442   1.299   1.209  0.0727  0.0299 -0.1673
 2288TIP3   OH2 6869   4.252   1.818   3.311  0.1309  0.2211 -0.2784
 2288TIP3    H1 6870   4.222   1.761   3.240  2.0128 -1.9515  0.5298
 2288TIP3    H2 6871   4.250   1.763   3.389  2.1333  1.1707  0.5316
 2289TIP3   OH2 6872   2.662   1.110   0.118  0.6703 -0.3824 -0.3560
 2289TIP3    H1 6873   2.691   1.026   0.152  0.3711 -0.0312  0.7855
 2289TIP3    H2 6874   2.588   1.135   0.173  3.2610  2.5965  2.1938
 2290TIP3   OH2 6875   0.270   1.399   4.259  0.2227 -0.2254 -0.2947
 2290TIP3    H1 6876   0.250   1.390   4.166 -1.9436  0.6633  0.0366
 2290TIP3    H2 6877   0.347   1.456   4.261 -0.0391  0.2041 -1.5383
 2291TIP3   OH2 6878   1.537   1.990   0.681  0.0585 -0.0990  0.1244
 2291TIP3    H1 6879   1.539   1.932   0.756  0.8938 -0.4000 -0.1255
 2291TIP3    H2 6880   1.535   1.932   0.605  0.0446  0.1975 -0.1064
 2292TIP3   OH2 6881   3.842   5.398   3.342 -0.0243 -0.2442 -0.1962
 2292TIP3    H1 6882   3.842   5.411   3.437 -2.2334  0.4071 -0.2138
 2292TIP3    H2 6883   3.799   5.313   3.330 -0.2276 -0.0872 -0.6060
 2293TIP3   OH2 6884   0.300   2.599   1.547  0.0179  0.0213 -0.1461
 2293TIP3    H1 6885   0.290   2.507   1.570  0.4243  0.0224  0.0352
 2293TIP3    H2 6886   0.379   2.602   1.493  0.7758  0.4508  0.9628
 2294TIP3   OH2 6887   2.649   4.988   5.112 -0.2727  0.4847  0.1011
 2294TIP3    H1 6888   2.669   4.977   5.019 -1.3826  0.3876 -0.1410
 2294TIP3    H2 6889   2.681   5.075   5.134  0.0589  0.4777 -0.3474
 2295TIP3   OH2 6890   5.634   3.420   3.511  0.0497  0.0451  0.2974
 2295TIP3    H1 6891   5.593   3.451   3.592 -0.4948 -2.4133  1.0405
 2295TIP3    H2 6892   5.582   3.460   3.442 -0.8880  0.4103  1.1830
 2296TIP3   OH2 6893   5.385   5.456   1.054  0.0935 -0.3925 -0.0562
 2296TIP3    H1 6894   5.390   5.361   1.062  0.3633 -0.2678  1.6835
 2296TIP3    H2 6895   5.417   5.475   0.966  2.1420 -1.7764  0.3230
 2297TIP3   OH2 6896   4.035   5.339   4.671 -0.5961 -0.0538 -0.0563
 2297TIP3    H1 6897   3.963   5.353   4.611 -1.1782  3.1673  1.1916
 2297TIP3    H2 6898   4.109   5.316   4.615 -2.0736 -1.5657 -1.5171
 2298TIP3   OH2 6899   2.975   0.272   1.568 -0.1140 -0.1579 -0.1259
 2298TIP3    H1 6900   3.026   0.191   1.565 -0.2282 -0.3372  1.6312
 2298TIP3    H2 6901   3.014   0.328   1.501  0.1173 -1.5609 -1.2241
 2299TIP3   OH2 6902   1.448   3.375   0.897 -0.1526  0.6139  0.7763
 2299TIP3    H1 6903   1.366   3.363   0.850  0.4957 -2.1202  0.1737
 2299TIP3    H2 6904   1.478   3.462   0.871 -0.0968 -0.4845 -3.5564
 2300TIP3   OH2 6905   3.201   2.715   1.968 -0.7433  0.2679 -0.1234
 2300TIP3    H1 6906   3.121   2.663   1.971 -1.9584  2.0455  2.6203
 2300TIP3    H2 6907   3.229   2.722   2.060  2.2285  0.2923 -0.9041
 2301TIP3   OH2 6908   2.287   1.640   4.920  0.3216 -0.1144 -0.0590
 2301TIP3    H1 6909   2.320   1.607   5.004  0.0985 -3.3971 -1.1168
 2301TIP3    H2 6910   2.201   1.676   4.941  0.1956 -1.0471  1.1451
 2302TIP3   OH2 6911   0.020   5.721   1.843 -0.9514  0.3515  0.3072
 2302TIP3    H1 6912   0.076   5.750   1.915 -0.0632 -1.2714  0.3180
 2302TIP3    H2 6913   0.005   5.800   1.791 -0.5892  1.2915  1.5917
 2303TIP3   OH2 6914   2.781   0.021   3.054  0.8604  0.2057  0.5677
 2303TIP3    H1 6915   2.800  -0.027   2.973 -0.4162  1.7058 -0.6864
 2303TIP3    H2 6916   2.851   0.086   3.059  0.5038  0.6236  0.2206
 2304TIP3   OH2 6917   6.105   4.355   0.181  0.3952  0.0507 -0.0357
 2304TIP3    H1 6918   6.070   4.372   0.093 -1.0416  2.1081  0.8355
 2304TIP3    H2 6919   6.190   4.399   0.182  0.3801  0.0928 -0.3565
 2305TIP3   OH2 6920   1.009   3.512   1.797 -0.0528  0.6099 -0.1703
 2305TIP3    H1 6921   0.967   3.429   1.814  0.8975  0.4676  1.7913
 2305TIP3    H2 6922   1.030   3.510   1.704 -1.4292 -0.6603 -0.4811
 2306TIP3   OH2 6923   0.670   1.110   1.928  0.1166  0.3612 -0.1289
 2306TIP3    H1 6924   0.719   1.190   1.944 -0.6544  0.8391 -0.1075
 2306TIP3    H2 6925   0.592   1.138   1.880 -1.3183 -0.0124  1.7998
 2307TIP3   OH2 6926   0.154   2.951   3.276 -0.5397  0.4464 -0.2444
 2307TIP3    H1 6927   0.198   2.868   3.295 -0.8340  0.4131  0.3093
 2307TIP3    H2 6928   0.180   2.971   3.186 -0.7584 -0.4315 -0.5158
 2308TIP3   OH2 6929   1.505   4.245   5.028  0.1652 -1.1347  0.1012
 2308TIP3    H1 6930   1.480   4.153   5.032  0.7307 -1.2484  2.4111
 2308TIP3    H2 6931   1.563   4.257   5.104  0.3147  1.0572 -0.3067
 2309TIP3   OH2 6932   4.718   3.777   4.946  0.0366  0.0166 -0.4949
 2309TIP3    H1 6933   4.722   3.704   5.009 -0.0338  0.2873 -0.1764
 2309TIP3    H2 6934   4.625   3.799   4.942 -0.6133 -2.5405 -3.6267
 2310TIP3   OH2 6935   4.107   0.189   4.548 -0.2749 -0.5196 -0.0149
 2310TIP3    H1 6936   4.159   0.213   4.471 -1.3609  1.0529 -0.3033
 2310TIP3    H2 6937   4.100   0.269   4.599 -0.3998 -1.3080  1.2378
 2311TIP3   OH2 6938   0.128   2.723   0.686 -0.8464 -0.2704 -0.8483
 2311TIP3    H1 6939   0.094   2.642   0.648 -0.1184 -1.2966  0.5934
 2311TIP3    H2 6940   0.220   2.726   0.657 -0.6168 -0.4495 -0.1499
 2312TIP3   OH2 6941   3.573   5.304   5.117 -0.1503 -0.0024  0.4544
 2312TIP3    H1 6942   3.499   5.308   5.178 -2.0381 -0.1374 -1.7138
 2312TIP3    H2 6943   3.635   5.369   5.151 -1.7986  1.0187  1.6773
 2313TIP3   OH2 6944   5.529   4.622   3.934 -0.8651 -0.2184 -0.2699
 2313TIP3    H1 6945   5.586   4.664   3.998  0.1822 -1.2263 -0.4877
 2313TIP3    H2 6946   5.441   4.631   3.970 -0.3163 -0.6303  1.2492
 2314TIP3   OH2 6947   6.063   1.429   0.370 -0.5327 -0.2082  1.0128
 2314TIP3    H1 6948   6.132   1.369   0.341 -0.4774  1.1770 -2.1329
 2314TIP3    H2 6949   6.087   1.451   0.460  1.8872 -1.4891  0.7773
 2315TIP3   OH2 6950   3.032   3.460   4.666  0.5777  0.2301  0.1464
 2315TIP3    H1 6951   2.993   3.382   4.707  0.7318 -0.7522 -1.4821
 2315TIP3    H2 6952   2.957   3.506   4.628  0.7371 -0.5737 -1.2062
 2316TIP3   OH2 6953   4.207   1.827   4.219  0.6728  0.2489 -0.2895
 2316TIP3    H1 6954   4.236   1.915   4.239  2.0685 -0.5098  1.3174
 2316TIP3    H2 6955   4.133   1.811   4.279  1.3810 -0.1517  0.5070
 2317TIP3   OH2 6956   5.677   2.653   1.477 -0.2465 -0.2522 -0.1719
 2317TIP3    H1 6957   5.701   2.711   1.404 -2.2806  0.4589 -0.3456
 2317TIP3    H2 6958   5.754   2.598   1.490  1.0557  1.1921 -1.2874
 2318TIP3   OH2 6959   4.485   4.394   4.439 -0.3853 -0.5813  0.0434
 2318TIP3    H1 6960   4.577   4.380   4.416 -0.2602  0.1360  0.0853
 2318TIP3    H2 6961   4.488   4.432   4.527 -0.6614  0.4650 -0.3848
 2319TIP3   OH2 6962   1.848   5.545   2.817  0.1738  0.2697 -0.0921
 2319TIP3    H1 6963   1.935   5.508   2.828  0.7230  1.8875  1.5906
 2319TIP3    H2 6964   1.800   5.481   2.764  1.5181 -1.9955  1.2992
 2320TIP3   OH2 6965   6.258   4.750   0.592  0.3063 -0.2386 -0.1573
 2320TIP3    H1 6966   6.189   4.751   0.525  0.8105  0.0599 -0.6764
 2320TIP3    H2 6967   6.295   4.838   0.589  1.1286 -0.5872 -0.3254
 2321TIP3   OH2 6968   2.841   2.205   2.420 -0.3702 -0.4273  0.0530
 2321TIP3    H1 6969   2.850   2.120   2.376 -0.3433 -0.4320  0.0677
 2321TIP3    H2 6970   2.811   2.184   2.508 -2.1207 -0.3257 -0.4834
 2322TIP3   OH2 6971   0.777   4.601   0.927 -0.4953 -0.0743 -0.0127
 2322TIP3    H1 6972   0.701   4.581   0.872  0.6294 -1.1595 -1.2411
 2322TIP3    H2 6973   0.809   4.516   0.956  0.3632  0.3511  0.3249
 2323TIP3   OH2 6974   6.128   1.859   1.112  0.7242 -0.4247  0.2470
 2323TIP3    H1 6975   6.091   1.888   1.195 -1.6775 -2.0072 -0.1717
 2323TIP3    H2 6976   6.116   1.933   1.053  1.5228  0.3421  1.0079
 2324TIP3   OH2 6977   2.724   4.318   0.027  0.2041 -0.0400 -0.4656
 2324TIP3    H1 6978   2.634   4.293   0.010  0.2596  0.6349 -1.9366
 2324TIP3    H2 6979   2.764   4.240   0.065 -0.6320 -0.8159 -1.1390
 2325TIP3   OH2 6980   0.663   5.870   1.709 -0.4573 -0.0061 -0.3089
 2325TIP3    H1 6981   0.717   5.910   1.778 -2.2703  1.0612  0.5787
 2325TIP3    H2 6982   0.682   5.776   1.716 -2.1286 -0.2755  3.2195
 2326TIP3   OH2 6983   3.076   6.017   0.760 -0.2596  0.0844 -0.1681
 2326TIP3    H1 6984   3.140   5.947   0.770 -0.8131 -0.8977 -2.6821
 2326TIP3    H2 6985   2.996   5.972   0.732 -0.3447  1.7259 -2.8932
 2327TIP3   OH2 6986   1.702   5.166   1.272  0.0931 -0.2311  0.0514
 2327TIP3    H1 6987   1.783   5.202   1.308 -1.1102  1.2135  1.4224
 2327TIP3    H2 6988   1.725   5.141   1.182  2.3225 -0.8935  0.7371
 2328TIP3   OH2 6989   6.116   3.343   3.577 -0.0504 -0.3932  0.1250
 2328TIP3    H1 6990   6.112   3.248   3.560 -1.8651 -0.2171 -0.6176
 2328TIP3    H2 6991   6.048   3.380   3.522  0.6242  1.3778  0.4172
 2329TIP3   OH2 6992   1.045   1.502   1.459 -0.5505 -0.1023 -0.2891
 2329TIP3    H1 6993   1.041   1.507   1.554 -0.7040 -1.4726 -0.2164
 2329TIP3    H2 6994   1.089   1.584   1.433 -0.0960  0.0766  0.9749
 2330TIP3   OH2 6995   2.886   4.046   3.794 -0.0588  0.0237 -0.2089
 2330TIP3    H1 6996   2.883   4.078   3.704 -0.7622  2.8033  0.7009
 2330TIP3    H2 6997   2.973   4.008   3.803  0.9963  2.0297 -1.3636
 2331TIP3   OH2 6998   1.545   2.802   2.627 -0.1584 -0.4742 -0.4899
 2331TIP3    H1 6999   1.486   2.862   2.673 -0.1841 -0.6859 -0.2459
 2331TIP3    H2 7000   1.503   2.716   2.634  1.2099 -1.0721  1.6219
 2332TIP3   OH2 7001   3.524   3.528   2.155  0.2450 -0.5641 -0.4528
 2332TIP3    H1 7002   3.599   3.579   2.185  0.9706 -0.1252 -2.8399
 2332TIP3    H2 7003   3.454   3.551   2.217  1.4124  0.8620  0.4054
 2333TIP3   OH2 7004   4.440   5.804   2.750  0.1322  0.2050 -0.3979
 2333TIP3    H1 7005   4.349   5.826   2.772  0.5977  0.3410  1.6100
 2333TIP3    H2 7006   4.447   5.711   2.769  0.2736  0.0653 -1.1205
 2334TIP3   OH2 7007   0.888   0.743   2.154  0.0306  0.1804  0.0505
 2334TIP3    H1 7008   0.818   0.808   2.159 -0.7486 -0.7101  1.3349
 2334TIP3    H2 7009   0.966   0.793   2.131 -0.9532  1.2478 -1.1038
 2335TIP3   OH2 7010   4.379   5.186   2.234 -0.5462 -0.4066 -0.0098
 2335TIP3    H1 7011   4.411   5.096   2.230 -1.1209 -0.6967  1.3419
 2335TIP3    H2 7012   4.448   5.239   2.195 -1.5488 -1.7089 -4.0405
 2336TIP3   OH2 7013   1.119   5.538   3.735 -0.2512 -0.1197  0.2568
 2336TIP3    H1 7014   1.109   5.631   3.753 -0.4106 -0.2743  0.9760
 2336TIP3    H2 7015   1.143   5.534   3.642  1.2331  0.7264  0.5695
 2337TIP3   OH2 7016   4.555   5.886   4.267  0.1107 -0.0258  0.0053
 2337TIP3    H1 7017   4.564   5.945   4.192  0.4380  0.6045  0.5349
 2337TIP3    H2 7018   4.550   5.799   4.228  0.8256  0.2502 -0.7304
 2338TIP3   OH2 7019   3.005   3.789   1.499  0.6187  0.4791 -1.3083
 2338TIP3    H1 7020   2.951   3.720   1.539  1.3204  0.2101 -0.8070
 2338TIP3    H2 7021   3.092   3.775   1.535  0.5089  2.4620 -0.1300
 2339TIP3   OH2 7022   3.982   2.687   1.432  0.2570  0.6832  0.2824
 2339TIP3    H1 7023   3.931   2.612   1.402  1.7159 -0.7980  1.3545
 2339TIP3    H2 7024   4.062   2.649   1.468  1.3166  2.8047  0.3120
 2340TIP3   OH2 7025   4.541   0.776   2.510  0.2092 -0.0546 -0.4055
 2340TIP3    H1 7026   4.490   0.825   2.575  1.3205  0.3940  0.1469
 2340TIP3    H2 7027   4.628   0.768   2.549  1.4747  1.8583 -2.6415
 2341TIP3   OH2 7028   2.531   4.109   0.806 -0.0312  0.1628  0.2397
 2341TIP3    H1 7029   2.545   4.202   0.825 -0.4590  0.0968  0.9249
 2341TIP3    H2 7030   2.561   4.064   0.884  2.5452 -0.4963 -1.0260
 2342TIP3   OH2 7031   5.062   0.718   5.015 -0.0084  0.4473 -0.1422
 2342TIP3    H1 7032   5.107   0.670   5.085 -0.5043  0.3783  0.1283
 2342TIP3    H2 7033   5.133   0.751   4.960  0.3207 -1.0501 -0.6392
 2343TIP3   OH2 7034   0.864   0.929   0.352  0.0767 -0.4766  0.2918
 2343TIP3    H1 7035   0.939   0.987   0.361  0.8455 -1.6668  2.0110
 2343TIP3    H2 7036   0.830   0.947   0.264  1.9764  0.5320 -0.2808
 2344TIP3   OH2 7037   2.674   5.901   0.213  0.5824 -0.4394  0.1683
 2344TIP3    H1 7038   2.601   5.860   0.165  1.7184 -1.3492 -0.8463
 2344TIP3    H2 7039   2.646   5.991   0.225 -0.9529 -0.8959  0.2929
 2345TIP3   OH2 7040   0.342   3.529   4.451 -0.2770  0.1579  0.3788
 2345TIP3    H1 7041   0.332   3.438   4.481 -0.1965  0.3623  1.0472
 2345TIP3    H2 7042   0.296   3.532   4.367 -0.2658 -0.5055  0.3456
 2346TIP3   OH2 7043   4.177   1.119   3.591 -0.1265 -0.0505 -0.3157
 2346TIP3    H1 7044   4.247   1.110   3.655 -0.9223 -0.5214  0.5124
 2346TIP3    H2 7045   4.134   1.034   3.590 -0.2602  0.0169 -1.3316
 2347TIP3   OH2 7046   2.115   0.215   4.474  0.2118 -0.5335 -0.3770
 2347TIP3    H1 7047   2.022   0.236   4.471 -0.0837 -0.5984 -7.2091
 2347TIP3    H2 7048   2.159   0.299   4.459  1.3266 -0.7388  1.3674
 2348TIP3   OH2 7049   4.784   1.401   3.799  0.9485 -0.7262  0.2779
 2348TIP3    H1 7050   4.761   1.341   3.728  0.9201  0.4831 -0.7695
 2348TIP3    H2 7051   4.877   1.387   3.814  0.8133 -1.4501  0.4536
 2349TIP3   OH2 7052   5.968   2.124   4.521 -0.7256  0.0100  0.2973
 2349TIP3    H1 7053   5.942   2.215   4.539  1.8860  0.9161  0.0443
 2349TIP3    H2 7054   5.909   2.096   4.451 -1.2687  1.7325  0.0018
 2350TIP3   OH2 7055   2.407   4.957   3.352 -0.6175 -0.3813 -0.2870
 2350TIP3    H1 7056   2.362   5.040   3.369 -0.6266  0.5701 -3.9866
 2350TIP3    H2 7057   2.341   4.890   3.369 -2.0492  0.7078 -1.2231
 2351TIP3   OH2 7058   4.378   4.461   0.235 -0.0270 -0.1902  0.2800
 2351TIP3    H1 7059   4.441   4.519   0.192 -1.1183 -0.6427 -2.0946
 2351TIP3    H2 7060   4.341   4.512   0.306  1.2368  0.9259  0.1632
 2352TIP3   OH2 7061   4.523   4.873   3.185 -0.0565  0.2543  0.0704
 2352TIP3    H1 7062   4.523   4.953   3.239  0.9849 -0.1636  0.7059
 2352TIP3    H2 7063   4.459   4.816   3.228  1.2885 -0.3602  1.3315
 2353TIP3   OH2 7064   1.221   0.599   0.092 -0.2666  0.2885  0.2054
 2353TIP3    H1 7065   1.173   0.669   0.137 -0.7415  0.8100 -1.0602
 2353TIP3    H2 7066   1.258   0.642   0.015 -2.0259 -1.1957 -1.5626
 2354TIP3   OH2 7067   3.411   3.025   1.126 -0.0196 -0.0033  0.5397
 2354TIP3    H1 7068   3.369   3.047   1.042  0.8175  1.1382  0.3957
 2354TIP3    H2 7069   3.487   2.973   1.102 -2.0127 -3.3980  0.8824
 2355TIP3   OH2 7070   6.335   2.456   4.554  0.3266  0.1199  0.2303
 2355TIP3    H1 7071   6.409   2.396   4.551 -0.0517 -0.4235  1.3822
 2355TIP3    H2 7072   6.276   2.424   4.486  0.3055 -0.5838  0.5737
 2356TIP3   OH2 7073   1.711   5.206   2.508 -0.4671 -0.4325 -0.4051
 2356TIP3    H1 7074   1.643   5.227   2.571 -0.6203  0.4036 -0.8319
 2356TIP3    H2 7075   1.766   5.142   2.552 -0.1630  0.6519  0.8678
 2357TIP3   OH2 7076   1.172   0.654   0.587 -0.3496 -0.2196  0.0393
 2357TIP3    H1 7077   1.257   0.613   0.602  0.3300  1.4857  1.1518
 2357TIP3    H2 7078   1.112   0.580   0.575  0.9100 -1.5369  1.3765
 2358TIP3   OH2 7079   3.436   4.147   1.680 -0.3560  0.8008  0.0815
 2358TIP3    H1 7080   3.507   4.112   1.733 -1.4634 -0.5054  0.7607
 2358TIP3    H2 7081   3.475   4.222   1.635  1.2381  0.5634  0.9789
 2359TIP3   OH2 7082   1.755   4.062   3.676  0.0034  0.2396 -0.1923
 2359TIP3    H1 7083   1.685   4.035   3.735  0.3478  0.1235  0.1718
 2359TIP3    H2 7084   1.791   4.142   3.716  1.1985 -0.6371  0.5659
 2360TIP3   OH2 7085   4.354   2.824   3.261 -0.1619 -0.2869 -0.2111
 2360TIP3    H1 7086   4.394   2.753   3.210  2.0374  0.3997  0.4666
 2360TIP3    H2 7087   4.281   2.854   3.206  0.8996 -0.8848 -2.0297
 2361TIP3   OH2 7088   2.759   4.270   4.925 -0.1078 -0.8755  0.2170
 2361TIP3    H1 7089   2.751   4.246   4.833 -0.8185  1.9779 -0.5518
 2361TIP3    H2 7090   2.836   4.328   4.928 -2.4162  2.4350  0.5072
 2362TIP3   OH2 7091   0.870   0.178   1.650  0.3531  0.2315  0.3863
 2362TIP3    H1 7092   0.904   0.174   1.561  0.4992  0.7274  0.4187
 2362TIP3    H2 7093   0.848   0.270   1.664 -2.1355 -0.2236 -0.0482
 2363TIP3   OH2 7094   2.450   3.671   3.136 -0.1857  0.1263 -0.5480
 2363TIP3    H1 7095   2.377   3.611   3.118 -0.7949  0.8661 -0.5753
 2363TIP3    H2 7096   2.527   3.625   3.103 -0.7537 -0.2877 -1.3397
 2364TIP3   OH2 7097   1.433   0.383   3.014 -0.6155  0.1306  0.0283
 2364TIP3    H1 7098   1.438   0.478   3.023  0.5564  0.2453 -1.3786
 2364TIP3    H2 7099   1.519   0.352   3.044 -0.7113 -0.4077 -0.2383
 2365TIP3   OH2 7100   1.024   4.726   2.779 -0.2878 -0.1207  0.0021
 2365TIP3    H1 7101   1.052   4.814   2.755 -0.0646 -0.0206  0.5993
 2365TIP3    H2 7102   0.939   4.738   2.821  0.1035 -0.0859  0.8117
 2366TIP3   OH2 7103   0.926   0.919   2.807 -0.1077 -0.5516 -0.1373
 2366TIP3    H1 7104   0.952   0.838   2.851 -0.0188 -0.6289 -0.3311
 2366TIP3    H2 7105   0.831   0.916   2.805 -0.1651 -0.0849  0.9252
 2367TIP3   OH2 7106   1.495   4.328   1.461  0.4974  0.2572 -0.2016
 2367TIP3    H1 7107   1.461   4.361   1.544  2.1207  1.2917  0.0951
 2367TIP3    H2 7108   1.478   4.399   1.399 -1.4639 -0.8336 -1.0105
 2368TIP3   OH2 7109   5.568   2.346   1.976  0.0506 -0.4641 -0.3162
 2368TIP3    H1 7110   5.578   2.363   2.069  1.0516 -0.0872 -0.4830
 2368TIP3    H2 7111   5.492   2.288   1.970 -0.0535 -0.4437  0.7242
 2369TIP3   OH2 7112   2.214   5.777   1.848 -0.7883  0.2102  0.4614
 2369TIP3    H1 7113   2.309   5.787   1.853 -0.9097  1.4612  0.5729
 2369TIP3    H2 7114   2.180   5.828   1.921 -1.5852  0.5235 -0.1158
 2370TIP3   OH2 7115   4.954   3.923   2.946 -0.3377  0.5749  0.7273
 2370TIP3    H1 7116   4.961   3.888   2.857 -0.2489 -0.2658  1.0623
 2370TIP3    H2 7117   4.868   3.965   2.947 -0.7364 -0.2182  0.5217
 2371TIP3   OH2 7118   0.400   2.769   4.429 -0.5112 -0.3465  0.5572
 2371TIP3    H1 7119   0.334   2.835   4.449 -0.7847 -0.6442  0.6542
 2371TIP3    H2 7120   0.353   2.701   4.381  0.4437  1.1063 -2.7123
 2372TIP3   OH2 7121   3.225   3.028   3.393 -0.3176  0.1016  0.0794
 2372TIP3    H1 7122   3.179   3.102   3.431  0.1852  0.0300  0.8505
 2372TIP3    H2 7123   3.233   3.049   3.300 -0.8505  0.6538  0.1571
 2373TIP3   OH2 7124   0.400   4.895   2.968 -0.4168  0.4649 -0.6765
 2373TIP3    H1 7125   0.321   4.879   3.020  0.2178  0.2248  0.2437
 2373TIP3    H2 7126   0.466   4.836   3.005  1.2897  3.2613  1.1421
 2374TIP3   OH2 7127   5.982   3.043   3.814  0.0883  0.1997 -0.2914
 2374TIP3    H1 7128   6.041   3.076   3.882 -0.6577 -1.6977  1.3507
 2374TIP3    H2 7129   5.939   3.121   3.779 -0.6605  1.1376  2.5080
 2375TIP3   OH2 7130   5.765   4.130   0.731 -0.1331 -0.3730 -0.1077
 2375TIP3    H1 7131   5.839   4.147   0.789  0.1198 -0.2007 -0.4792
 2375TIP3    H2 7132   5.737   4.216   0.701  0.0765 -0.4895 -0.6567
 2376TIP3   OH2 7133   4.721   2.337   2.832  0.3941  0.0201 -0.6941
 2376TIP3    H1 7134   4.773   2.393   2.891 -0.8584  0.2171  0.2609
 2376TIP3    H2 7135   4.737   2.248   2.864 -0.6453  0.1576  0.2982
 2377TIP3   OH2 7136   0.339   4.874   4.624  0.3855 -0.4694 -0.5283
 2377TIP3    H1 7137   0.382   4.959   4.632  0.0781 -0.4278  0.8812
 2377TIP3    H2 7138   0.245   4.893   4.634  0.4151 -1.1281  1.4611
 2378TIP3   OH2 7139   2.818   3.388   5.170 -0.3282 -0.2392  0.0150
 2378TIP3    H1 7140   2.903   3.367   5.131  0.1071  0.1709  0.7308
 2378TIP3    H2 7141   2.839   3.426   5.255 -1.2364 -0.2856  0.2726
 2379TIP3   OH2 7142   5.552   4.271   3.113  0.0408 -0.2536  0.1262
 2379TIP3    H1 7143   5.597   4.303   3.035  0.0369  1.2002  0.7007
 2379TIP3    H2 7144   5.589   4.321   3.185 -1.2396 -0.2865  0.8322
 2380TIP3   OH2 7145   4.389   0.549   4.937  0.0377  0.0184 -0.2654
 2380TIP3    H1 7146   4.435   0.614   4.991  1.7700  1.0707 -2.8010
 2380TIP3    H2 7147   4.385   0.471   4.991  1.2680  1.1350  1.5384
 2381TIP3   OH2 7148   4.327   4.162   0.345 -0.3370  0.4844 -0.3875
 2381TIP3    H1 7149   4.348   4.239   0.293 -0.0103  0.7747  0.1630
 2381TIP3    H2 7150   4.328   4.090   0.283  1.1284  0.6595 -0.6034
 2382TIP3   OH2 7151   6.275   2.597   0.867  0.5104  0.6703 -0.5181
 2382TIP3    H1 7152   6.296   2.582   0.959  0.1665  0.4065 -0.4817
 2382TIP3    H2 7153   6.352   2.643   0.832  0.6740  0.7022 -0.1212
 2383TIP3   OH2 7154   5.590   0.133   3.888  0.2425  0.1142 -0.0604
 2383TIP3    H1 7155   5.604   0.209   3.832  2.1179 -0.3425 -0.2675
 2383TIP3    H2 7156   5.528   0.164   3.954  2.0602  2.3333  0.7622
 2384TIP3   OH2 7157   2.334   4.724   5.080  0.1310  0.1232  0.1382
 2384TIP3    H1 7158   2.349   4.811   5.043 -0.7536 -0.1504 -0.9064
 2384TIP3    H2 7159   2.274   4.740   5.153  0.6540  0.4819  0.4977
 2385TIP3   OH2 7160   3.865   0.851   2.440 -0.3653 -0.0974 -0.5443
 2385TIP3    H1 7161   3.780   0.821   2.474 -1.4036  1.0046 -2.0189
 2385TIP3    H2 7162   3.868   0.816   2.351 -0.7966  2.4830 -1.6740
 2386TIP3   OH2 7163   0.275   2.065   1.641 -0.4295 -0.4613 -0.3992
 2386TIP3    H1 7164   0.326   2.086   1.719 -0.3813 -0.9504 -0.2998
 2386TIP3    H2 7165   0.189   2.040   1.674 -0.6659  0.1286 -0.5533
 2387TIP3   OH2 7166   0.392   3.359   1.533 -0.9558 -0.1834  0.1054
 2387TIP3    H1 7167   0.335   3.370   1.456 -2.6598 -0.9139  1.1951
 2387TIP3    H2 7168   0.480   3.354   1.497 -1.7523 -1.1336 -1.8707
 2388TIP3   OH2 7169   2.464   0.553   2.650  0.3810 -0.0328  0.6563
 2388TIP3    H1 7170   2.386   0.608   2.641  0.6722  0.0141 -4.2028
 2388TIP3    H2 7171   2.437   0.467   2.619  1.7418 -0.5915  0.9443
 2389TIP3   OH2 7172   0.940   0.203   1.376 -0.1753  0.5042  0.5391
 2389TIP3    H1 7173   0.986   0.269   1.324  0.7766 -0.7310 -0.2564
 2389TIP3    H2 7174   0.852   0.200   1.338  0.4053 -0.1424 -0.8259
 2390TIP3   OH2 7175   2.204   0.757   0.809 -0.3550 -0.4238 -0.0339
 2390TIP3    H1 7176   2.112   0.749   0.784 -0.9022 -0.3817  1.8420
 2390TIP3    H2 7177   2.251   0.755   0.726 -1.9969 -1.0791 -1.0034
 2391TIP3   OH2 7178   0.963   5.090   4.397  0.1985  0.2106  0.1439
 2391TIP3    H1 7179   0.918   5.174   4.397 -0.2517 -0.0290 -0.1500
 2391TIP3    H2 7180   0.987   5.076   4.305 -0.7177 -0.5054 -0.0012
 2392TIP3   OH2 7181   6.052   3.692   2.269  0.2918  0.7209  0.1916
 2392TIP3    H1 7182   6.134   3.737   2.249  1.0871 -0.5897  0.3936
 2392TIP3    H2 7183   6.070   3.641   2.348 -1.6480  2.7404  2.0782
 2393TIP3   OH2 7184   1.647   3.075   4.104 -0.6458 -0.2529 -0.3255
 2393TIP3    H1 7185   1.632   3.047   4.194  0.5406 -1.0427 -0.3640
 2393TIP3    H2 7186   1.575   3.036   4.055 -1.6441  0.6712  0.3504
 2394TIP3   OH2 7187   5.377   1.131   4.652  0.1936  0.0360 -0.2377
 2394TIP3    H1 7188   5.380   1.047   4.607 -0.7123 -0.3042  0.3074
 2394TIP3    H2 7189   5.288   1.137   4.686  0.1156  1.4138 -0.6220
 2395TIP3   OH2 7190   0.956   2.561   0.782  0.2369  0.6355  0.1785
 2395TIP3    H1 7191   0.873   2.552   0.735  0.1282  0.5374  0.3883
 2395TIP3    H2 7192   0.951   2.496   0.852 -0.0671  1.5408  1.0123
 2396TIP3   OH2 7193   1.133   1.212   5.082 -0.6177 -0.3167  0.1778
 2396TIP3    H1 7194   1.163   1.302   5.067 -0.6948  0.1149  2.2501
 2396TIP3    H2 7195   1.046   1.208   5.041 -0.8435  0.7472  0.5172
 2397TIP3   OH2 7196   4.286   5.335   1.652 -0.0805  0.1916 -0.5102
 2397TIP3    H1 7197   4.266   5.274   1.581 -1.5924 -2.3266  1.8939
 2397TIP3    H2 7198   4.365   5.300   1.694  0.3169  1.1699 -0.4001
 2398TIP3   OH2 7199   6.012   4.834   3.311  1.0781 -0.7179  0.4547
 2398TIP3    H1 7200   6.032   4.902   3.246 -0.2646 -0.1846  0.5601
 2398TIP3    H2 7201   6.014   4.880   3.395 -2.0355 -0.1804  0.3716
 2399TIP3   OH2 7202   4.142   0.208   1.965 -0.4771 -0.1452  0.1191
 2399TIP3    H1 7203   4.129   0.165   2.049  0.5337 -1.7995 -0.5255
 2399TIP3    H2 7204   4.222   0.260   1.977 -1.9472  2.0910  1.0419
 2400TIP3   OH2 7205   3.428   2.708   0.324 -0.0675 -0.1260  0.0921
 2400TIP3    H1 7206   3.348   2.757   0.303  0.0438  0.3333  0.7046
 2400TIP3    H2 7207   3.397   2.625   0.360 -0.2917  0.3115  0.9481
 2401TIP3   OH2 7208   5.037   5.773   2.372  0.0588 -0.5310  1.0534
 2401TIP3    H1 7209   5.081   5.711   2.313  2.6090 -0.1638  2.4415
 2401TIP3    H2 7210   5.082   5.764   2.455  0.2890  2.9002  1.4400
 2402TIP3   OH2 7211   3.478   3.431   0.638  0.0309  0.1236  0.5231
 2402TIP3    H1 7212   3.511   3.497   0.577 -0.4157  0.6922  0.8941
 2402TIP3    H2 7213   3.402   3.471   0.679 -1.2908 -1.2610 -0.4805
 2403TIP3   OH2 7214   1.499   5.656   3.580 -0.5763 -0.2186 -0.5449
 2403TIP3    H1 7215   1.519   5.575   3.534 -1.2894 -0.2942 -0.7328
 2403TIP3    H2 7216   1.525   5.639   3.670  2.2139  0.4322 -1.1397
 2404TIP3   OH2 7217   1.646   3.643   3.385  0.7904  0.4548 -0.0789
 2404TIP3    H1 7218   1.732   3.672   3.415  0.8598  0.9531 -0.7335
 2404TIP3    H2 7219   1.587   3.661   3.459  1.1481  0.6436  0.1594
 2405TIP3   OH2 7220   0.229   5.108   1.701  0.4181  0.2715  0.0473
 2405TIP3    H1 7221   0.319   5.077   1.698  0.2406 -0.6702  2.3226
 2405TIP3    H2 7222   0.236   5.203   1.710  1.2793  0.0825  1.8505
 2406TIP3   OH2 7223   2.318   5.771   2.332  0.9210  0.3815 -0.0172
 2406TIP3    H1 7224   2.410   5.765   2.358  0.8947  0.8200  0.1819
 2406TIP3    H2 7225   2.282   5.841   2.386  0.3418 -0.1215  0.2646
 2407TIP3   OH2 7226   2.420   0.578   0.896 -0.0791 -0.1015  0.2426
 2407TIP3    H1 7227   2.458   0.630   0.967  0.4913  0.3937 -0.4151
 2407TIP3    H2 7228   2.330   0.611   0.888 -0.8476 -1.5915  2.1055
 2408TIP3   OH2 7229   4.388   4.674   3.909  0.0055  0.0462  0.5353
 2408TIP3    H1 7230   4.430   4.642   3.989  0.0706  0.8286  0.8270
 2408TIP3    H2 7231   4.455   4.661   3.841 -0.1799 -0.9527  0.5263
 2409TIP3   OH2 7232   0.865   1.648   2.716  0.3615  0.0543 -0.0191
 2409TIP3    H1 7233   0.843   1.567   2.670  1.7401 -0.4028  0.0909
 2409TIP3    H2 7234   0.838   1.631   2.807 -2.6893  1.0891 -0.6188
 2410TIP3   OH2 7235   4.106   4.594   2.572  0.2491 -0.7863 -0.0186
 2410TIP3    H1 7236   4.119   4.581   2.478 -0.6190  0.9505 -0.4311
 2410TIP3    H2 7237   4.156   4.524   2.614  0.0852 -2.0190 -1.7845
 2411TIP3   OH2 7238   4.828   3.123   4.323 -0.0604  0.0636 -0.3858
 2411TIP3    H1 7239   4.828   3.043   4.376 -0.3650  0.4434  0.1979
 2411TIP3    H2 7240   4.815   3.194   4.386 -0.4138  0.5240 -0.9646
 2412TIP3   OH2 7241   0.738   2.552   3.099  0.0580  0.0853 -0.4290
 2412TIP3    H1 7242   0.783   2.636   3.109 -0.1695  0.0833  0.8635
 2412TIP3    H2 7243   0.686   2.544   3.179 -0.5442 -0.9228 -0.9050
 2413TIP3   OH2 7244   3.837   2.951   4.821  0.2904  0.4488 -0.6271
 2413TIP3    H1 7245   3.767   2.929   4.760 -1.8654  2.1538  1.0492
 2413TIP3    H2 7246   3.838   3.047   4.821  0.6988  0.4823  1.4582
 2414TIP3   OH2 7247   1.341   0.162   4.601  0.0743  0.1533  0.4670
 2414TIP3    H1 7248   1.398   0.130   4.671 -1.3148 -0.7640  1.2395
 2414TIP3    H2 7249   1.320   0.252   4.625 -0.3046 -0.1221  1.1984
 2415TIP3   OH2 7250   2.383   3.979   2.207  0.7452  0.3319 -0.6315
 2415TIP3    H1 7251   2.356   4.063   2.243  0.5643  0.8614 -1.9494
 2415TIP3    H2 7252   2.388   3.994   2.112  0.8856 -1.0865 -0.8677
 2416TIP3   OH2 7253   5.816   3.060   4.712  0.0042 -0.1711  0.0629
 2416TIP3    H1 7254   5.869   2.996   4.757 -0.6044 -0.1378  0.8433
 2416TIP3    H2 7255   5.830   3.042   4.619  2.0319  0.3813  0.2044
 2417TIP3   OH2 7256   6.097   3.369   1.389  0.0380 -0.3945  0.1652
 2417TIP3    H1 7257   6.167   3.421   1.429  0.6706 -1.8517  1.0216
 2417TIP3    H2 7258   6.101   3.391   1.296  1.9620 -0.7724  0.1106
 2418TIP3   OH2 7259   1.837   3.395   1.157 -0.4215  0.1415  0.3578
 2418TIP3    H1 7260   1.916   3.421   1.110  0.9065  2.1381  3.3944
 2418TIP3    H2 7261   1.866   3.322   1.213 -1.5234 -1.0349 -0.5477
 2419TIP3   OH2 7262   3.538   5.602   0.897 -0.2995 -0.4966 -0.3080
 2419TIP3    H1 7263   3.465   5.555   0.937  0.5676 -1.6103 -0.0014
 2419TIP3    H2 7264   3.608   5.537   0.890  0.6530  0.5369 -0.6398
 2420TIP3   OH2 7265   4.683   1.308   4.347  0.1074 -0.4994  0.4469
 2420TIP3    H1 7266   4.634   1.269   4.275  0.5718 -0.2352 -0.0208
 2420TIP3    H2 7267   4.726   1.385   4.309 -0.6281  0.3670  1.2977
 2421TIP3   OH2 7268   0.433   0.841   0.093  0.6415 -0.4955 -0.2472
 2421TIP3    H1 7269   0.451   0.871   0.004  0.3519  0.7675  0.0942
 2421TIP3    H2 7270   0.418   0.922   0.143  1.6840 -1.1099  1.1488
 2422TIP3   OH2 7271   5.262   2.337   0.128 -0.3473 -0.2627 -0.3976
 2422TIP3    H1 7272   5.269   2.397   0.203 -1.5714 -1.1894  0.5171
 2422TIP3    H2 7273   5.243   2.394   0.054 -2.5805  0.4785  0.6400
 2423TIP3   OH2 7274   2.198   1.944   5.171 -0.3298  0.1862 -0.1789
 2423TIP3    H1 7275   2.239   1.962   5.086 -1.8504 -0.6700 -1.1248
 2423TIP3    H2 7276   2.113   1.987   5.166 -0.5522 -0.1272  0.7961
 2424TIP3   OH2 7277   0.843   2.868   3.758 -0.0489  0.0494 -0.0970
 2424TIP3    H1 7278   0.844   2.950   3.708  0.6467 -0.1630 -0.4413
 2424TIP3    H2 7279   0.797   2.890   3.839 -0.8012  0.5075 -0.6441
 2425TIP3   OH2 7280   4.390   5.628   2.280 -0.0436  0.6240 -0.2094
 2425TIP3    H1 7281   4.417   5.664   2.196 -0.0332  1.8722  0.3013
 2425TIP3    H2 7282   4.389   5.704   2.339  0.4644 -0.3025  1.0417
 2426TIP3   OH2 7283   2.978   3.861   0.895  0.0106  0.0745 -0.6277
 2426TIP3    H1 7284   2.975   3.794   0.827 -1.0058  1.8311 -2.4300
 2426TIP3    H2 7285   3.039   3.826   0.960  0.3378 -2.0938 -1.9819
 2427TIP3   OH2 7286   3.627   1.824   5.163  0.0155 -0.5706 -0.1316
 2427TIP3    H1 7287   3.552   1.826   5.103  0.1159 -2.2018 -0.3592
 2427TIP3    H2 7288   3.598   1.871   5.240 -0.7518  0.0266 -0.7722
 2428TIP3   OH2 7289   0.656   5.591   2.749 -0.2788 -0.1183 -0.5319
 2428TIP3    H1 7290   0.708   5.663   2.785 -0.9557 -0.2048  0.6590
 2428TIP3    H2 7291   0.566   5.610   2.775 -0.4560 -1.4523 -0.0880
 2429TIP3   OH2 7292   3.745   3.170   0.066  0.0737  0.5893  0.4375
 2429TIP3    H1 7293   3.738   3.184  -0.029  1.8365  1.2103  0.3665
 2429TIP3    H2 7294   3.837   3.151   0.080 -0.3130 -0.2813  1.9582
 2430TIP3   OH2 7295   2.852   2.639   1.747  0.0785  0.2554 -0.1816
 2430TIP3    H1 7296   2.906   2.608   1.674 -0.1045  0.4631 -0.4102
 2430TIP3    H2 7297   2.837   2.561   1.801  0.4649  0.1621 -0.2038
 2431TIP3   OH2 7298   1.064   3.192   1.411  0.4671  0.6368 -0.0566
 2431TIP3    H1 7299   1.147   3.234   1.434  2.0016 -1.6998 -0.9052
 2431TIP3    H2 7300   1.035   3.150   1.492  0.9339  0.1729 -0.1295
 2432TIP3   OH2 7301   0.112   0.885   2.363 -0.6918 -0.3972 -0.2488
 2432TIP3    H1 7302   0.123   0.920   2.452 -1.6358 -2.2811  0.6548
 2432TIP3    H2 7303   0.185   0.923   2.314 -0.4625  1.1328  1.1671
 2433TIP3   OH2 7304   4.907   3.306   4.943  0.2177 -0.8305 -0.2392
 2433TIP3    H1 7305   4.898   3.221   4.985  0.5396 -0.6857  0.1318
 2433TIP3    H2 7306   4.953   3.288   4.861  0.8034 -0.9445  0.1064
 2434TIP3   OH2 7307   1.435   3.743   3.942  0.4997 -0.6823  0.1947
 2434TIP3    H1 7308   1.411   3.731   3.851 -1.3183 -1.3384  0.7215
 2434TIP3    H2 7309   1.529   3.726   3.944  0.7000 -0.0334 -1.6377
 2435TIP3   OH2 7310   1.408   1.547   3.383  0.1549 -0.8338 -0.2412
 2435TIP3    H1 7311   1.391   1.639   3.363  0.2625 -0.4290  1.3554
 2435TIP3    H2 7312   1.404   1.503   3.298 -1.2287  0.4209 -0.8857
 2436TIP3   OH2 7313   5.303   0.144   3.572  0.1763  0.2066 -0.3611
 2436TIP3    H1 7314   5.394   0.169   3.591 -0.2566  0.8212  1.1065
 2436TIP3    H2 7315   5.310   0.082   3.500  1.7274  0.5630 -0.5735
 2437TIP3   OH2 7316   0.306   5.534   2.515  0.7521 -0.4014 -0.2471
 2437TIP3    H1 7317   0.310   5.602   2.448  0.5157  0.3114  0.4462
 2437TIP3    H2 7318   0.319   5.452   2.467  0.3988  0.0756 -1.1820
 2438TIP3   OH2 7319   1.721   5.903   2.239  0.4255  0.2547  0.0953
 2438TIP3    H1 7320   1.746   5.822   2.195  0.0429 -0.2741  0.8256
 2438TIP3    H2 7321   1.638   5.928   2.198  0.0115 -0.2998  0.5726
 2439TIP3   OH2 7322   3.947   4.089   1.204  0.6120  0.2472  0.3781
 2439TIP3    H1 7323   4.032   4.095   1.161  1.5011 -0.3257  1.9495
 2439TIP3    H2 7324   3.888   4.052   1.138  1.7704 -0.0547 -0.5120
 2440TIP3   OH2 7325   1.688   4.345   4.184 -0.1339 -0.5170  0.0728
 2440TIP3    H1 7326   1.688   4.344   4.279 -0.0806  1.4111  0.1315
 2440TIP3    H2 7327   1.776   4.375   4.160 -0.5412  0.2115 -0.5372
 2441TIP3   OH2 7328   5.505   2.772   2.995 -0.9060  0.1331  0.5606
 2441TIP3    H1 7329   5.585   2.782   2.943  0.4060  0.5972  2.5548
 2441TIP3    H2 7330   5.520   2.695   3.049 -1.3070  0.8613  1.7559
 2442TIP3   OH2 7331   1.756   5.770   2.505 -0.4554  0.5010 -0.4530
 2442TIP3    H1 7332   1.835   5.719   2.523 -0.3213  0.6021 -0.7473
 2442TIP3    H2 7333   1.752   5.775   2.409 -0.5711  0.8825 -0.4295
 2443TIP3   OH2 7334   5.832   1.303   3.934  0.0963 -0.3832  0.6260
 2443TIP3    H1 7335   5.838   1.372   3.868  2.5469 -0.3184  0.8178
 2443TIP3    H2 7336   5.752   1.254   3.911 -0.1582  0.7964 -1.1924
 2444TIP3   OH2 7337   2.820   3.612   1.131  0.6325 -0.2389  0.0765
 2444TIP3    H1 7338   2.893   3.599   1.191  1.4732 -0.1379 -0.8972
 2444TIP3    H2 7339   2.743   3.583   1.180  1.3804 -0.7723  0.9641
 2445TIP3   OH2 7340   0.882   5.976   2.507  0.5532 -0.1453 -0.4391
 2445TIP3    H1 7341   0.792   5.976   2.538  0.3520 -0.1175 -1.0065
 2445TIP3    H2 7342   0.880   5.924   2.426  1.1034 -0.4097 -0.2918
 2446TIP3   OH2 7343   3.139   1.019   4.656  0.3956  0.0265  0.2166
 2446TIP3    H1 7344   3.174   1.043   4.570  0.4719 -0.2824  0.1589
 2446TIP3    H2 7345   3.200   1.057   4.719  0.6361 -0.2011  0.1219
 2447TIP3   OH2 7346   1.147   4.541   4.810 -0.3124  0.4926 -0.2485
 2447TIP3    H1 7347   1.180   4.477   4.874 -0.5495  0.5105 -0.1083
 2447TIP3    H2 7348   1.159   4.498   4.725 -1.3715 -0.1384 -0.0926
 2448TIP3   OH2 7349   3.042   3.816   1.836  0.4410 -0.8578 -0.1220
 2448TIP3    H1 7350   3.111   3.838   1.773 -0.4298  0.5752 -0.6169
 2448TIP3    H2 7351   2.960   3.834   1.789 -0.2321  0.2135  1.3972
 2449TIP3   OH2 7352   0.740   1.950   2.079  0.4644 -0.3511  0.1640
 2449TIP3    H1 7353   0.725   1.974   1.988  0.7357  1.5092  0.5764
 2449TIP3    H2 7354   0.820   1.896   2.077  1.1762  0.6890 -0.5781
 2450TIP3   OH2 7355   3.139   3.678   4.055 -0.4551  0.0278 -0.3606
 2450TIP3    H1 7356   3.072   3.627   4.100 -0.1640  1.3987  1.7788
 2450TIP3    H2 7357   3.198   3.707   4.125  1.9708 -0.4823 -2.0699
 2451TIP3   OH2 7358   0.194   0.826   4.316 -0.1202  0.2779 -0.0734
 2451TIP3    H1 7359   0.098   0.819   4.309 -0.0251 -2.1819  0.2982
 2451TIP3    H2 7360   0.224   0.822   4.225 -0.3445  1.6404 -0.2396
 2452TIP3   OH2 7361   0.598   3.230   3.652  0.2005  0.1654 -0.1772
 2452TIP3    H1 7362   0.635   3.252   3.737 -0.4831 -3.1831  1.1294
 2452TIP3    H2 7363   0.515   3.280   3.648 -1.4032 -1.9811  2.6784
 2453TIP3   OH2 7364   1.661   0.763   3.631 -0.3848 -0.1113 -0.0058
 2453TIP3    H1 7365   1.669   0.668   3.639  0.3520 -0.0280  0.3122
 2453TIP3    H2 7366   1.683   0.781   3.539  1.2914 -0.0847  0.3681
 2454TIP3   OH2 7367   4.979   2.388   3.207 -0.4422 -0.5294  0.0749
 2454TIP3    H1 7368   4.970   2.305   3.159  0.3585  0.3085 -1.6071
 2454TIP3    H2 7369   4.932   2.452   3.155 -2.8877 -0.2184  2.4382
 2455TIP3   OH2 7370   1.282   5.957   3.866 -0.3703  0.7936 -0.2898
 2455TIP3    H1 7371   1.261   6.049   3.856 -1.1427  0.5345 -1.2792
 2455TIP3    H2 7372   1.280   5.922   3.776  4.2017  0.6554 -0.5751
 2456TIP3   OH2 7373   2.374   4.514   0.490 -0.1603  0.3523 -0.2701
 2456TIP3    H1 7374   2.382   4.480   0.401  1.3897  0.3146 -0.1339
 2456TIP3    H2 7375   2.448   4.574   0.500  0.2622 -0.3811  1.3111
 2457TIP3   OH2 7376   6.247   1.780   3.287  0.0066  0.4758 -0.7623
 2457TIP3    H1 7377   6.182   1.842   3.251  0.2076  1.3585  0.3428
 2457TIP3    H2 7378   6.276   1.730   3.211 -1.2436  0.7386 -1.4478
 2458TIP3   OH2 7379   4.349   0.906   4.805  0.3231 -0.2076  0.1354
 2458TIP3    H1 7380   4.258   0.934   4.801  0.3324 -0.3135 -1.0854
 2458TIP3    H2 7381   4.352   0.826   4.753  0.8162 -1.0746  1.4462
 2459TIP3   OH2 7382   5.197   4.248   0.235 -0.2798 -0.8850  0.6706
 2459TIP3    H1 7383   5.269   4.239   0.174  1.0293  0.6425  1.9097
 2459TIP3    H2 7384   5.207   4.174   0.295 -0.0792 -0.9716  0.5294
 2460TIP3   OH2 7385   5.511   0.180   1.832 -0.7942  0.0520 -0.2975
 2460TIP3    H1 7386   5.549   0.238   1.766  0.3308 -0.2528  0.0566
 2460TIP3    H2 7387   5.528   0.224   1.915 -0.5358 -0.4577 -0.0751
 2461TIP3   OH2 7388   1.831   2.780   4.763 -0.1128  0.1772 -0.2964
 2461TIP3    H1 7389   1.766   2.807   4.698  0.1192  0.3912 -0.4460
 2461TIP3    H2 7390   1.895   2.851   4.763  0.9796 -0.7411 -1.3348
 2462TIP3   OH2 7391   1.663   1.943   2.534 -0.0732 -0.3780  0.0125
 2462TIP3    H1 7392   1.600   1.937   2.462  1.9112 -2.0026 -1.7318
 2462TIP3    H2 7393   1.691   2.035   2.534 -2.1120  0.2978  0.6173
 2463TIP3   OH2 7394   6.195   1.952   4.302 -0.3412  0.2633 -0.6523
 2463TIP3    H1 7395   6.101   1.932   4.298 -0.3942  0.5267 -0.7986
 2463TIP3    H2 7396   6.234   1.877   4.345 -0.7088  0.4376 -0.0095
 2464TIP3   OH2 7397   4.815   2.795   1.770  0.5848  0.0594 -0.2923
 2464TIP3    H1 7398   4.882   2.834   1.827  2.2127  0.2205 -2.1957
 2464TIP3    H2 7399   4.766   2.869   1.735  0.7100  0.0798 -0.4244
 2465TIP3   OH2 7400   3.923   5.417   3.066 -0.5296 -0.1183  1.0016
 2465TIP3    H1 7401   3.922   5.513   3.058 -2.4843 -0.2240 -0.6530
 2465TIP3    H2 7402   3.861   5.398   3.137 -0.0609 -0.1889  1.4041
 2466TIP3   OH2 7403   2.122   5.992   4.763 -0.7169 -0.5733 -0.1257
 2466TIP3    H1 7404   2.084   6.070   4.722  0.9891  0.6970  0.5940
 2466TIP3    H2 7405   2.110   5.923   4.698 -2.1577  0.2849 -0.8484
 2467TIP3   OH2 7406   6.131   5.939   1.508 -0.3184 -0.0624  0.1189
 2467TIP3    H1 7407   6.059   5.982   1.554 -1.0764 -0.7493 -0.4115
 2467TIP3    H2 7408   6.171   5.882   1.574 -0.9779 -0.5365  0.1110
 2468TIP3   OH2 7409   3.077   3.772   3.063  0.0222 -0.2313  0.1918
 2468TIP3    H1 7410   3.071   3.679   3.086 -0.4490 -0.0851  0.6745
 2468TIP3    H2 7411   2.987   3.803   3.067 -0.1108 -0.2184 -1.9550
 2469TIP3   OH2 7412   3.676   0.517   3.994 -0.5222  0.1402  0.3326
 2469TIP3    H1 7413   3.590   0.553   4.016 -0.4656 -0.5477  1.8118
 2469TIP3    H2 7414   3.664   0.422   3.996 -0.1064  0.0293 -1.1249
 2470TIP3   OH2 7415   4.581   5.292   1.757  0.2742  0.1847  0.0085
 2470TIP3    H1 7416   4.568   5.319   1.848 -1.4455  2.7860 -0.8753
 2470TIP3    H2 7417   4.658   5.341   1.728  2.2034 -2.3057  0.5449
 2471TIP3   OH2 7418   1.889   3.746   2.773  0.0909  0.7401 -0.4653
 2471TIP3    H1 7419   1.867   3.657   2.803 -1.8117  1.2370 -0.2327
 2471TIP3    H2 7420   1.818   3.801   2.807  0.6471  2.1817 -1.5155
 2472TIP3   OH2 7421   5.862   5.100   2.937  0.1590 -0.2788  0.2128
 2472TIP3    H1 7422   5.795   5.169   2.942  0.7238  0.2848  0.1342
 2472TIP3    H2 7423   5.914   5.123   2.860 -0.1907 -1.3064 -0.3432
 2473TIP3   OH2 7424   2.434   2.680   0.994 -0.1138 -0.8160 -0.5346
 2473TIP3    H1 7425   2.426   2.678   1.090 -0.8860  1.1038 -0.5346
 2473TIP3    H2 7426   2.422   2.589   0.968 -1.8716 -1.0926  1.0550
 2474TIP3   OH2 7427  -0.002   0.372   0.777  0.2967  0.2185  0.2193
 2474TIP3    H1 7428   0.075   0.427   0.762  0.5592  0.0659  0.9999
 2474TIP3    H2 7429   0.005   0.303   0.710 -0.6684  1.7506 -1.5720
 2475TIP3   OH2 7430   4.945   4.756   3.108  0.0604  0.6165  1.0822
 2475TIP3    H1 7431   5.010   4.768   3.177  0.4886  0.4768  0.7027
 2475TIP3    H2 7432   4.968   4.673   3.067  0.3397  1.1225  0.1977
 2476TIP3   OH2 7433   3.542   5.390   1.608 -0.2182  0.3048 -0.3984
 2476TIP3    H1 7434   3.546   5.303   1.569  0.5185  0.6787 -1.1759
 2476TIP3    H2 7435   3.461   5.428   1.574 -1.3010 -0.5811  1.0732
 2477TIP3   OH2 7436   1.886   4.446   3.064 -0.1425  0.2996 -0.6883
 2477TIP3    H1 7437   1.834   4.396   3.002 -1.5855  1.0524 -0.1564
 2477TIP3    H2 7438   1.821   4.493   3.117  1.1093  2.5830 -1.0437
 2478TIP3   OH2 7439   1.556   2.738   0.160  0.8734 -0.1140  0.0907
 2478TIP3    H1 7440   1.472   2.747   0.115  1.9313  1.0519 -1.8023
 2478TIP3    H2 7441   1.558   2.646   0.188 -1.2282 -0.0273  0.6767
 2479TIP3   OH2 7442   1.037   4.088   3.455 -0.2671  0.3002  0.0921
 2479TIP3    H1 7443   0.950   4.077   3.492 -0.2850 -3.4711 -0.6047
 2479TIP3    H2 7444   1.026   4.063   3.363  1.1739  1.9663 -0.5729
 2480TIP3   OH2 7445   5.281   3.192   3.623  0.5145  0.8232  0.5800
 2480TIP3    H1 7446   5.270   3.248   3.700 -2.4364 -0.3477  1.1301
 2480TIP3    H2 7447   5.313   3.109   3.658  3.0877  1.4644 -0.0270
 2481TIP3   OH2 7448   0.520   5.422   4.502  0.8037  0.4772  0.3977
 2481TIP3    H1 7449   0.578   5.479   4.552 -0.6254 -0.0944  2.8633
 2481TIP3    H2 7450   0.436   5.469   4.501  0.3824 -0.2691 -0.0870
 2482TIP3   OH2 7451   2.822   5.373   0.768 -0.2339  0.2793  0.1169
 2482TIP3    H1 7452   2.882   5.298   0.762  2.2681  2.2256 -1.0515
 2482TIP3    H2 7453   2.735   5.334   0.761  0.7073 -2.8248  2.7745
 2483TIP3   OH2 7454   0.209   4.134   4.107  0.5984  0.0585  0.1130
 2483TIP3    H1 7455   0.301   4.149   4.128  0.9990  0.5181 -1.8496
 2483TIP3    H2 7456   0.163   4.207   4.149  1.3148  0.7342 -0.2589
 2484TIP3   OH2 7457   1.219   0.234   4.314 -0.0184  0.3185  0.5930
 2484TIP3    H1 7458   1.300   0.199   4.351  0.3523 -0.7146 -1.0640
 2484TIP3    H2 7459   1.247   0.278   4.234 -1.1327 -0.5877 -0.3370
 2485TIP3   OH2 7460   4.509   5.329   3.140  0.0948 -0.0412  0.1453
 2485TIP3    H1 7461   4.529   5.276   3.062  0.4230  1.0824 -0.5725
 2485TIP3    H2 7462   4.456   5.401   3.106  3.0246  2.3950  0.2351
 2486TIP3   OH2 7463   4.019   4.972   3.376  0.0604  0.8279 -0.2222
 2486TIP3    H1 7464   3.979   5.056   3.354  2.3328  1.5090 -2.2160
 2486TIP3    H2 7465   4.110   4.981   3.348  0.4805 -2.1759 -0.1422
 2487TIP3   OH2 7466   1.259   3.812   1.247  0.0142  0.6937 -0.0853
 2487TIP3    H1 7467   1.275   3.861   1.328  1.6692  0.6535 -0.3589
 2487TIP3    H2 7468   1.203   3.869   1.195  0.1131  1.3472  0.5098
 2488TIP3   OH2 7469   3.543   0.373   2.156  0.2576  0.4790  0.3135
 2488TIP3    H1 7470   3.620   0.331   2.195  0.5382  0.8539  0.1676
 2488TIP3    H2 7471   3.559   0.369   2.062  0.0886  0.5474  0.2819
 2489TIP3   OH2 7472   3.433   4.468   0.537 -0.1390  0.0488  0.2054
 2489TIP3    H1 7473   3.439   4.405   0.609  1.8628  1.1218  1.0560
 2489TIP3    H2 7474   3.518   4.462   0.493 -0.8001  0.4804 -1.1729
 2490TIP3   OH2 7475   3.534   1.592   3.514 -0.4990 -0.7513 -0.2528
 2490TIP3    H1 7476   3.588   1.542   3.575  0.0885 -0.0428 -0.1792
 2490TIP3    H2 7477   3.459   1.620   3.566 -0.5472 -1.0765 -0.1451
 2491TIP3   OH2 7478   2.000   5.767   0.467 -0.2372  0.1532 -0.4735
 2491TIP3    H1 7479   2.051   5.770   0.548 -0.0842  0.5644 -0.5838
 2491TIP3    H2 7480   1.949   5.686   0.474  0.6154 -0.3892 -0.4805
 2492TIP3   OH2 7481   0.186   0.168   1.258 -0.1810 -0.4221 -0.6973
 2492TIP3    H1 7482   0.113   0.107   1.249 -0.3848 -0.1752 -0.7275
 2492TIP3    H2 7483   0.263   0.112   1.267 -0.5104 -0.6919  0.5410
 2493TIP3   OH2 7484   1.066   4.127   4.980  0.1934 -0.7809 -0.4551
 2493TIP3    H1 7485   1.014   4.052   5.010 -0.6117 -0.7327 -1.7013
 2493TIP3    H2 7486   1.119   4.150   5.057 -1.9691 -0.4986  1.0621
 2494TIP3   OH2 7487   1.162   5.236   3.876  0.2578 -0.2732 -0.1873
 2494TIP3    H1 7488   1.224   5.308   3.890  1.4758 -1.3031 -0.2030
 2494TIP3    H2 7489   1.109   5.266   3.802  0.5932  0.7082 -0.0528
 2495TIP3   OH2 7490   3.594   1.009   2.593  0.8409 -0.4790  0.3796
 2495TIP3    H1 7491   3.587   0.915   2.605  0.7015 -0.4311  0.6843
 2495TIP3    H2 7492   3.549   1.047   2.669 -1.7435 -0.1294 -1.2085
 2496TIP3   OH2 7493   4.006   3.221   1.851  0.1309  0.3310 -0.0483
 2496TIP3    H1 7494   4.097   3.246   1.837 -0.1398  0.9038 -0.8318
 2496TIP3    H2 7495   3.975   3.281   1.919 -0.2510  1.5856 -1.2775
 2497TIP3   OH2 7496   3.617   1.491   0.387 -0.2372 -0.0494 -0.4952
 2497TIP3    H1 7497   3.621   1.405   0.347 -1.3730 -0.8584  1.0206
 2497TIP3    H2 7498   3.709   1.517   0.398  0.1099 -1.0057 -1.0863
 2498TIP3   OH2 7499   2.779   1.915   3.030  0.7829 -0.4555 -0.6408
 2498TIP3    H1 7500   2.756   1.987   2.971  0.1191 -1.4174 -1.5997
 2498TIP3    H2 7501   2.871   1.897   3.011  1.6863  1.6742  1.3227
 2499TIP3   OH2 7502   5.750   1.785   1.276 -0.2041  0.5518  0.4348
 2499TIP3    H1 7503   5.842   1.776   1.302  0.3915  1.0544 -1.3604
 2499TIP3    H2 7504   5.750   1.774   1.181 -2.1380 -0.2791  0.4685
 2500TIP3   OH2 7505   3.794   2.817   0.140 -0.0951  0.7403 -0.1077
 2500TIP3    H1 7506   3.770   2.725   0.153  0.7562  0.5969  0.5179
 2500TIP3    H2 7507   3.760   2.839   0.053  0.9377 -0.5814 -0.8757
 2501TIP3   OH2 7508   3.045   1.334   4.901 -0.4570 -0.3893 -0.8812
 2501TIP3    H1 7509   2.994   1.412   4.923 -1.5935 -0.9644 -1.3966
 2501TIP3    H2 7510   3.117   1.367   4.847 -0.7249  0.3454 -0.7997
 2502TIP3   OH2 7511   2.278   0.406   5.032 -0.2343 -0.1453  0.5395
 2502TIP3    H1 7512   2.343   0.347   4.994  1.3737  1.1607  1.1687
 2502TIP3    H2 7513   2.267   0.375   5.122  0.7934  0.6325  0.9451
 2503TIP3   OH2 7514   5.408   0.908   4.495 -0.0663 -0.1570 -0.4567
 2503TIP3    H1 7515   5.438   0.848   4.563 -0.5244  0.2041  0.0742
 2503TIP3    H2 7516   5.486   0.926   4.443  0.0578 -1.2472 -0.6555
 2504TIP3   OH2 7517   4.424   5.785   1.069 -0.7820 -0.3445 -0.2345
 2504TIP3    H1 7518   4.426   5.695   1.037 -0.9047 -1.1939  1.9730
 2504TIP3    H2 7519   4.503   5.793   1.122 -1.4685  0.3923  0.7147
 2505TIP3   OH2 7520   0.202   0.903   1.759  0.1480  0.1649  0.0092
 2505TIP3    H1 7521   0.267   0.833   1.766 -0.2811 -0.1330  1.3510
 2505TIP3    H2 7522   0.253   0.981   1.734  1.0570 -0.0222  1.1810
 2506TIP3   OH2 7523   1.178   1.027   4.578  0.4222  0.2517 -0.6111
 2506TIP3    H1 7524   1.269   1.049   4.599  0.0264  1.9760 -0.5528
 2506TIP3    H2 7525   1.183   0.977   4.496  1.4919 -0.8475  0.0898
 2507TIP3   OH2 7526   1.808   5.936   4.237 -0.0887 -0.3222  0.3278
 2507TIP3    H1 7527   1.879   5.973   4.185  0.2891  0.2201  1.2036
 2507TIP3    H2 7528   1.826   5.966   4.327 -1.9781  0.7395  0.4100
 2508TIP3   OH2 7529   0.638   3.881   0.592 -0.3227  0.1420  0.3874
 2508TIP3    H1 7530   0.719   3.831   0.598 -0.0552  0.2479 -1.5754
 2508TIP3    H2 7531   0.660   3.968   0.622  0.4085  0.2539 -0.4290
 2509TIP3   OH2 7532   4.931   4.823   0.151 -0.1273  0.1168 -0.3789
 2509TIP3    H1 7533   5.017   4.861   0.168  0.3206 -1.1885  0.4460
 2509TIP3    H2 7534   4.946   4.758   0.083 -0.5398  0.1676 -0.5237
 2510TIP3   OH2 7535   1.149   3.035   4.365 -0.0019 -0.5301 -0.3134
 2510TIP3    H1 7536   1.145   2.947   4.401  2.6838 -0.5969  0.0062
 2510TIP3    H2 7537   1.135   3.093   4.440 -1.3560 -0.6282 -0.4561
 2511TIP3   OH2 7538   4.415   1.636   1.750  0.5385  0.3125  0.4959
 2511TIP3    H1 7539   4.447   1.553   1.786  1.2470  0.7143  0.8020
 2511TIP3    H2 7540   4.338   1.611   1.699  1.1486 -0.6331  0.0024
 2512TIP3   OH2 7541   3.363   5.124   2.295  0.3359  0.3350  0.5657
 2512TIP3    H1 7542   3.330   5.161   2.377 -0.9864  1.1285 -0.2887
 2512TIP3    H2 7543   3.367   5.198   2.235 -1.0668 -0.6008 -0.7890
 2513TIP3   OH2 7544   6.207   5.208   5.118 -0.1807 -0.3400 -0.0789
 2513TIP3    H1 7545   6.221   5.299   5.091 -1.8348 -0.2402 -0.7270
 2513TIP3    H2 7546   6.208   5.211   5.214  1.6969  0.0043 -0.0778
 2514TIP3   OH2 7547   1.001   5.261   4.848  0.4404  0.2821  0.4256
 2514TIP3    H1 7548   1.048   5.232   4.770  0.3008 -0.2238  0.5250
 2514TIP3    H2 7549   0.982   5.354   4.832 -1.0389 -0.1950 -0.8809
 2515TIP3   OH2 7550   2.834   2.577   0.729 -0.5846  0.6301 -0.7293
 2515TIP3    H1 7551   2.822   2.663   0.768 -0.1153  0.4563 -0.1986
 2515TIP3    H2 7552   2.849   2.519   0.803 -0.5764  0.1445 -1.1090
 2516TIP3   OH2 7553   2.860   5.101   1.537 -0.1731 -0.2037  0.2765
 2516TIP3    H1 7554   2.897   5.158   1.605  0.0497 -1.5705  1.3452
 2516TIP3    H2 7555   2.817   5.161   1.477 -0.1590  1.0838  1.4901
 2517TIP3   OH2 7556   2.918   0.631   2.515 -0.6535  0.3588  0.2849
 2517TIP3    H1 7557   2.990   0.568   2.511 -0.5292  0.5259 -0.1907
 2517TIP3    H2 7558   2.844   0.580   2.549 -0.0394  0.4569  1.8744
 2518TIP3   OH2 7559   4.118   5.038   1.263  0.5667  0.0408 -0.0668
 2518TIP3    H1 7560   4.109   5.087   1.182  2.8673 -1.1871 -1.1710
 2518TIP3    H2 7561   4.029   5.008   1.283 -0.1744  1.0201 -1.7057
 2519TIP3   OH2 7562   5.107   1.940   2.019  0.1946  0.6719 -0.1889
 2519TIP3    H1 7563   5.079   2.009   2.079  0.4466  1.7119 -1.2299
 2519TIP3    H2 7564   5.136   1.869   2.076 -1.0186  1.0152  0.9052
 2520TIP3   OH2 7565   2.248   5.395   4.531  0.8755 -0.1798 -0.3018
 2520TIP3    H1 7566   2.313   5.459   4.556  0.8994 -0.8118  1.3866
 2520TIP3    H2 7567   2.164   5.437   4.549  0.8002  0.3484 -1.7524
 2521TIP3   OH2 7568   0.342   4.062   3.866 -0.3469  0.0688  0.2592
 2521TIP3    H1 7569   0.283   4.040   3.937 -0.2684 -1.4067 -0.1060
 2521TIP3    H2 7570   0.419   4.008   3.880 -0.1428  0.0867 -0.6911
 2522TIP3   OH2 7571   3.874   5.768   4.009 -0.3449 -0.1270  0.0373
 2522TIP3    H1 7572   3.933   5.704   4.049 -1.0111 -0.5504  0.3523
 2522TIP3    H2 7573   3.840   5.725   3.931 -2.7616 -1.2010  1.5683
 2523TIP3   OH2 7574   5.893   2.133   3.148  0.0652  0.0555  0.2784
 2523TIP3    H1 7575   5.951   2.145   3.073  0.2476 -1.5112  0.1427
 2523TIP3    H2 7576   5.830   2.067   3.120 -1.1353  0.9337  0.8134
 2524TIP3   OH2 7577   2.194   2.871   1.008  0.2791 -0.0680 -0.2785
 2524TIP3    H1 7578   2.202   2.852   1.101  2.6613  1.7234 -0.0105
 2524TIP3    H2 7579   2.192   2.786   0.966 -2.7536 -0.9803  1.4448
 2525TIP3   OH2 7580   5.251   1.060   3.445 -0.2261  0.3776  0.1155
 2525TIP3    H1 7581   5.256   1.075   3.351 -2.1281 -0.7684 -0.2352
 2525TIP3    H2 7582   5.328   1.007   3.466 -0.7632 -0.9738 -1.1789
 2526TIP3   OH2 7583   6.236   0.421   2.049  0.2915 -0.2593 -0.6968
 2526TIP3    H1 7584   6.261   0.494   2.106 -0.9880 -2.0235  2.3681
 2526TIP3    H2 7585   6.170   0.459   1.991 -0.2522  1.1282  0.7217
 2527TIP3   OH2 7586   6.043   2.834   2.992 -0.2229  0.3150  1.2122
 2527TIP3    H1 7587   6.079   2.850   2.905 -1.1792  2.4770  1.1658
 2527TIP3    H2 7588   6.120   2.815   3.046  0.5359  0.5622  0.2392
 2528TIP3   OH2 7589   2.483   3.260   3.305  0.4815 -0.3899  0.1468
 2528TIP3    H1 7590   2.518   3.242   3.392 -0.6628 -0.5256  0.6007
 2528TIP3    H2 7591   2.559   3.284   3.252  1.3594 -1.5061  0.8627
 2529TIP3   OH2 7592   0.881   4.333   0.924 -0.4892 -0.3848  0.0258
 2529TIP3    H1 7593   0.938   4.293   0.990  0.0849  0.9243  0.3615
 2529TIP3    H2 7594   0.802   4.279   0.924  0.0056 -1.1373  0.8946
 2530TIP3   OH2 7595   6.022   3.838   3.060 -0.3822  0.3833  0.6625
 2530TIP3    H1 7596   6.034   3.870   3.149 -0.5776 -0.0888  0.8598
 2530TIP3    H2 7597   6.068   3.754   3.058 -0.5607  0.2910  0.3829
 2531TIP3   OH2 7598   2.373   3.951   1.876  0.2515  0.8832 -0.0748
 2531TIP3    H1 7599   2.364   3.971   1.783 -0.6556 -1.2065 -0.4950
 2531TIP3    H2 7600   2.285   3.959   1.911  0.3681  0.4804  0.3249
 2532TIP3   OH2 7601   4.377   4.895   1.656 -0.0934 -0.6234 -0.0825
 2532TIP3    H1 7602   4.420   4.938   1.730  0.2449  0.4041 -0.8509
 2532TIP3    H2 7603   4.355   4.966   1.597  1.0685 -1.5483 -1.7117
 2533TIP3   OH2 7604   3.607   2.752   3.385  0.2816 -0.0523 -0.0445
 2533TIP3    H1 7605   3.584   2.834   3.342 -0.0708 -1.2126 -2.2236
 2533TIP3    H2 7606   3.522   2.710   3.403  0.3946  0.6341  2.3751
 2534TIP3   OH2 7607   1.754   0.983   3.374  0.6663 -0.5509 -0.1991
 2534TIP3    H1 7608   1.773   1.063   3.325 -0.6163 -1.0858 -1.6811
 2534TIP3    H2 7609   1.821   0.921   3.345  1.5285 -0.0903  0.7833
 2535TIP3   OH2 7610   1.066   5.530   2.379 -0.8832  0.3472 -0.3880
 2535TIP3    H1 7611   1.101   5.441   2.376  1.8639  1.3561 -0.3899
 2535TIP3    H2 7612   1.022   5.535   2.464 -0.0029 -0.6665  0.1527
 2536TIP3   OH2 7613   4.421   5.263   3.998 -0.1042  0.7945 -0.1344
 2536TIP3    H1 7614   4.425   5.239   4.091 -2.1270 -0.1360 -0.2514
 2536TIP3    H2 7615   4.489   5.209   3.957 -0.0135  0.3103  0.6196
 2537TIP3   OH2 7616   4.250   2.092   4.257  0.2758  0.3395  0.4999
 2537TIP3    H1 7617   4.159   2.119   4.269  0.6970  1.6146  1.0080
 2537TIP3    H2 7618   4.301   2.153   4.311  1.5757  0.7934 -1.1526
 2538TIP3   OH2 7619   4.710   2.840   2.534 -0.2847 -0.4833 -0.0739
 2538TIP3    H1 7620   4.756   2.875   2.458  2.0651 -1.9446  0.5592
 2538TIP3    H2 7621   4.647   2.778   2.499 -0.5119  0.2202 -0.9144
 2539TIP3   OH2 7622   3.716   3.387   1.020 -0.6215 -0.2005 -0.2039
 2539TIP3    H1 7623   3.764   3.348   0.947 -2.3123 -1.1859 -0.8310
 2539TIP3    H2 7624   3.624   3.368   1.002 -1.1825  0.5992  1.5708
 2540TIP3   OH2 7625   2.612   3.463   0.138  0.9574 -0.0129 -0.2323
 2540TIP3    H1 7626   2.623   3.494   0.228 -0.9187  3.3709 -1.0116
 2540TIP3    H2 7627   2.689   3.496   0.092  0.7772  0.2493 -0.3418
 2541TIP3   OH2 7628   4.566   3.988   2.592 -0.1726 -0.0224  0.4411
 2541TIP3    H1 7629   4.530   4.055   2.535 -2.1632  0.1017  1.7581
 2541TIP3    H2 7630   4.646   3.959   2.547 -0.2729  1.8545 -1.0852
 2542TIP3   OH2 7631   0.196   2.090   1.035 -0.4937  0.0254  0.1134
 2542TIP3    H1 7632   0.144   2.055   1.107  2.4327  0.1316  2.4488
 2542TIP3    H2 7633   0.267   2.027   1.023  0.5151  1.2913 -0.9078
 2543TIP3   OH2 7634   5.799   0.488   0.693  0.2083  0.1006  0.0493
 2543TIP3    H1 7635   5.807   0.481   0.598  1.4174  0.0628  0.1325
 2543TIP3    H2 7636   5.806   0.398   0.724  0.6903  0.1891  0.2141
 2544TIP3   OH2 7637   0.189   2.366   1.039  0.1539 -0.4315 -0.1155
 2544TIP3    H1 7638   0.199   2.271   1.039 -2.4060 -0.8405 -1.7980
 2544TIP3    H2 7639   0.227   2.395   1.121  0.6242 -2.9618  0.6510
 2545TIP3   OH2 7640   0.902   2.462   1.054  0.2299 -0.0636 -0.2356
 2545TIP3    H1 7641   0.841   2.465   1.128  0.0813 -1.2326 -0.2954
 2545TIP3    H2 7642   0.988   2.473   1.093  0.2073 -1.2848  0.2044
 2546TIP3   OH2 7643   6.016   5.779   1.305  0.2515  0.0440 -0.0607
 2546TIP3    H1 7644   6.061   5.798   1.223 -1.2499 -1.0237 -1.1887
 2546TIP3    H2 7645   6.054   5.841   1.368  2.4172 -0.0456 -1.1924
 2547TIP3   OH2 7646   2.980   4.772   1.683 -0.1826  0.7538  0.4880
 2547TIP3    H1 7647   3.023   4.698   1.641  1.1266  1.5577  0.3212
 2547TIP3    H2 7648   2.888   4.765   1.659 -0.0499 -0.7051  0.3412
 2548TIP3   OH2 7649   1.422   3.570   1.469  0.3360 -0.7334 -0.0033
 2548TIP3    H1 7650   1.502   3.561   1.521 -0.2823  1.3532  1.4777
 2548TIP3    H2 7651   1.440   3.642   1.409  0.5726 -2.2623 -1.8550
 2549TIP3   OH2 7652   3.621   1.635   2.495 -0.0640  0.7027  0.2015
 2549TIP3    H1 7653   3.711   1.638   2.461 -0.5641  0.2650 -1.2295
 2549TIP3    H2 7654   3.578   1.711   2.456 -0.6616  0.1577 -0.2348
 2550TIP3   OH2 7655   3.313   1.229   2.558 -0.3560 -0.5727  0.4987
 2550TIP3    H1 7656   3.376   1.265   2.495 -1.3150 -1.1284 -0.8300
 2550TIP3    H2 7657   3.364   1.214   2.638  1.3904 -1.7044 -0.7617
 2551TIP3   OH2 7658   5.796   4.998   3.936  0.0485  0.2695  0.1375
 2551TIP3    H1 7659   5.842   5.063   3.989  0.7595  0.5239 -0.7656
 2551TIP3    H2 7660   5.737   5.049   3.880 -2.0642 -0.0961  1.8992
 2552TIP3   OH2 7661   0.272   0.625   0.207  0.2478  0.9364  0.1917
 2552TIP3    H1 7662   0.332   0.700   0.214  2.5526 -0.7444 -0.4138
 2552TIP3    H2 7663   0.328   0.548   0.219 -1.9574 -0.7346  0.3721
 2553TIP3   OH2 7664   0.952   3.266   4.608  0.0402 -0.1959  0.0525
 2553TIP3    H1 7665   0.900   3.195   4.646 -0.2053  1.5065  3.1712
 2553TIP3    H2 7666   1.020   3.284   4.673  0.3744  2.1264 -0.8382
 2554TIP3   OH2 7667   5.678   1.769   3.955 -0.6347 -0.1946  0.0784
 2554TIP3    H1 7668   5.697   1.806   3.868  1.4302  0.7967  0.9007
 2554TIP3    H2 7669   5.646   1.844   4.005 -0.2687 -0.4114  0.6350
 2555TIP3   OH2 7670   2.981   3.288   1.776  0.0863  0.1088  0.8929
 2555TIP3    H1 7671   2.915   3.288   1.706  1.1918  1.8915 -0.2245
 2555TIP3    H2 7672   2.932   3.308   1.855 -1.0891 -1.2628  0.5661
 2556TIP3   OH2 7673   4.869   4.427   3.667 -0.5069  0.0006  0.3181
 2556TIP3    H1 7674   4.880   4.430   3.572  0.4438 -0.1929  0.4113
 2556TIP3    H2 7675   4.927   4.356   3.696  1.3630  1.7897  1.3087
 2557TIP3   OH2 7676   2.915   5.569   2.624 -0.2235  0.0051 -0.4820
 2557TIP3    H1 7677   2.999   5.528   2.605 -0.8062 -0.5316 -2.0201
 2557TIP3    H2 7678   2.882   5.597   2.539 -0.3670  2.7365  0.3588
 2558TIP3   OH2 7679   0.467   1.850   4.561 -0.4329  0.3380 -0.1802
 2558TIP3    H1 7680   0.377   1.848   4.529 -0.6692  2.7326  0.1282
 2558TIP3    H2 7681   0.489   1.944   4.565  1.6535 -0.1304  0.9102
 2559TIP3   OH2 7682   3.057   4.498   0.895  0.1417 -0.3192  0.2644
 2559TIP3    H1 7683   3.036   4.543   0.813  0.0174 -0.2043  0.3608
 2559TIP3    H2 7684   2.978   4.504   0.948 -0.4880 -2.1781 -0.4022
 2560TIP3   OH2 7685   5.646   4.053   3.502 -0.3526  0.3455  0.1376
 2560TIP3    H1 7686   5.711   4.122   3.514  0.9256 -1.0050  1.3401
 2560TIP3    H2 7687   5.675   4.006   3.424  1.9712 -2.0636  2.2447
 2561TIP3   OH2 7688   3.585   0.253   1.005 -0.3100  0.3414  0.4664
 2561TIP3    H1 7689   3.572   0.170   0.960 -0.8941  0.7398 -0.1076
 2561TIP3    H2 7690   3.608   0.315   0.936  0.9926  0.4806  0.9948
 2562TIP3   OH2 7691   0.996   0.089   0.898  0.2825 -0.5078 -0.4481
 2562TIP3    H1 7692   1.051   0.047   0.965  0.6997  1.8089  0.7865
 2562TIP3    H2 7693   1.038   0.067   0.815  0.5575 -2.3209  0.1331
 2563TIP3   OH2 7694   2.763   4.322   3.133  0.3866  0.2760  0.2739
 2563TIP3    H1 7695   2.689   4.300   3.076 -0.1053  0.4308  0.8396
 2563TIP3    H2 7696   2.783   4.240   3.179  0.2647  0.3495  0.4587
 2564TIP3   OH2 7697   4.050   5.081   3.764 -0.6560  0.4427 -0.2074
 2564TIP3    H1 7698   4.076   5.153   3.821 -3.8473  1.8505 -0.3016
 2564TIP3    H2 7699   4.114   5.012   3.782  1.9868  2.9194  0.5606
 2565TIP3   OH2 7700   1.549   2.643   2.330  0.0574  0.2299  0.4533
 2565TIP3    H1 7701   1.594   2.585   2.269 -0.1597 -0.1449  0.6496
 2565TIP3    H2 7702   1.604   2.722   2.333 -0.3548  0.5832 -0.8409
 2566TIP3   OH2 7703   5.454   3.502   2.144  0.4538 -0.5119  0.7061
 2566TIP3    H1 7704   5.475   3.548   2.062 -2.3291  0.0752  0.2359
 2566TIP3    H2 7705   5.418   3.418   2.115  0.7137 -0.8628  1.3920
 2567TIP3   OH2 7706   4.642   4.574   3.823 -0.5789 -0.0082  0.0203
 2567TIP3    H1 7707   4.674   4.546   3.738  0.9400  1.1643  0.1650
 2567TIP3    H2 7708   4.698   4.528   3.886  2.4681  3.4866  0.2722
 2568TIP3   OH2 7709   2.425   4.769   4.772  0.0707  0.0665  0.9690
 2568TIP3    H1 7710   2.456   4.678   4.769 -0.7964 -0.2027 -1.0569
 2568TIP3    H2 7711   2.330   4.762   4.759  0.0781  1.2914  0.1503
 2569TIP3   OH2 7712   5.282   1.607   1.875  0.6057 -0.0816  0.1905
 2569TIP3    H1 7713   5.238   1.681   1.833  4.2439  3.1490  1.5027
 2569TIP3    H2 7714   5.343   1.575   1.809  0.3151 -0.7426  0.2367
 2570TIP3   OH2 7715   3.370   5.773   1.845 -0.1437  0.5493 -0.4002
 2570TIP3    H1 7716   3.403   5.762   1.934 -1.2833  1.7941  0.2151
 2570TIP3    H2 7717   3.283   5.732   1.846 -0.8456  1.9552 -0.4393
 2571TIP3   OH2 7718   5.854   1.232   0.781 -0.3205 -0.0051  0.1192
 2571TIP3    H1 7719   5.846   1.298   0.850 -0.2713 -0.7883  0.9098
 2571TIP3    H2 7720   5.899   1.159   0.824  2.8911  0.7541 -1.6486
 2572TIP3   OH2 7721   2.984   3.880   2.684 -0.4681  0.1672 -0.2040
 2572TIP3    H1 7722   3.028   3.861   2.601  0.9337  1.7576  0.1073
 2572TIP3    H2 7723   2.893   3.897   2.661 -0.1281  0.4141 -1.4087
 2573TIP3   OH2 7724   3.531   2.083   0.771  0.1997 -0.1499 -0.8786
 2573TIP3    H1 7725   3.458   2.141   0.792  0.5497  0.0314 -0.1524
 2573TIP3    H2 7726   3.503   2.039   0.690 -0.5559  0.1790 -0.8081
 2574TIP3   OH2 7727   3.872   1.061   3.649  0.0570 -0.3920 -0.8011
 2574TIP3    H1 7728   3.949   1.021   3.608  0.1562  0.7173 -1.7676
 2574TIP3    H2 7729   3.900   1.150   3.672 -0.8144 -0.0863 -0.8526
 2575TIP3   OH2 7730   6.072   3.149   2.933  0.0441  0.3061 -0.0347
 2575TIP3    H1 7731   6.098   3.058   2.921 -0.2426  0.3352 -0.9130
 2575TIP3    H2 7732   5.989   3.157   2.885 -0.4236  0.7911  0.8277
 2576TIP3   OH2 7733   3.623   3.464   2.744 -0.0396 -0.0485  0.2024
 2576TIP3    H1 7734   3.536   3.458   2.704  0.8623 -0.9833 -1.7774
 2576TIP3    H2 7735   3.626   3.552   2.782 -0.5739  1.4908 -3.0059
 2577TIP3   OH2 7736   4.012   4.607   1.403  0.2549  0.6574  0.0504
 2577TIP3    H1 7737   3.947   4.603   1.332 -0.0280  0.0701  0.3367
 2577TIP3    H2 7738   4.084   4.658   1.366 -0.4482  1.4960 -0.2105
 2578TIP3   OH2 7739   2.673   5.661   4.257  0.4035  0.2925  0.1085
 2578TIP3    H1 7740   2.726   5.723   4.205 -0.9773  0.4695 -1.1784
 2578TIP3    H2 7741   2.710   5.665   4.345  2.7399  0.1258 -0.8061
 2579TIP3   OH2 7742   5.684   3.759   0.086 -0.2058 -0.1148 -0.0398
 2579TIP3    H1 7743   5.684   3.714   0.001  0.7316  0.7740 -0.5321
 2579TIP3    H2 7744   5.776   3.776   0.105 -0.5205  1.8571 -0.0412
 2580TIP3   OH2 7745   5.885   1.751   0.605  0.0681 -0.6053 -0.3047
 2580TIP3    H1 7746   5.867   1.665   0.565  1.5881 -0.3901 -1.5613
 2580TIP3    H2 7747   5.830   1.812   0.555  1.6617 -0.3961 -1.9368
 2581TIP3   OH2 7748   3.010   0.688   3.637 -0.3785  0.0947  0.1641
 2581TIP3    H1 7749   2.955   0.666   3.562  0.0147  1.1670 -0.4504
 2581TIP3    H2 7750   3.039   0.603   3.671  1.2372 -0.4229 -2.2504
 2582TIP3   OH2 7751   4.885   4.347   5.191  0.0257 -0.5916  0.5800
 2582TIP3    H1 7752   4.840   4.268   5.220  0.2562 -1.3564 -1.0334
 2582TIP3    H2 7753   4.951   4.316   5.129 -0.0180  0.8915 -0.2621
 2583TIP3   OH2 7754   0.109   3.764   1.933 -0.3164  0.2035 -0.2567
 2583TIP3    H1 7755   0.073   3.692   1.984 -0.4787  0.8308  0.5378
 2583TIP3    H2 7756   0.140   3.723   1.851  2.1395 -1.2465  1.2621
 2584TIP3   OH2 7757   4.487   4.523   4.690 -0.2462 -0.3449  0.1501
 2584TIP3    H1 7758   4.491   4.612   4.725 -1.2987  0.0611 -0.7246
 2584TIP3    H2 7759   4.446   4.472   4.760 -3.0459  0.6113 -0.6554
 2585TIP3   OH2 7760   1.710   3.830   0.921  0.2304  0.2350 -0.4400
 2585TIP3    H1 7761   1.800   3.863   0.915  0.6297 -1.0292 -1.9598
 2585TIP3    H2 7762   1.658   3.893   0.870  0.0104  1.6013  1.3674
 2586TIP3   OH2 7763   2.389   2.949   0.320 -0.9315 -0.3218  0.8833
 2586TIP3    H1 7764   2.390   2.859   0.285  0.5126  0.1118 -0.3252
 2586TIP3    H2 7765   2.455   2.948   0.389 -0.2981 -0.0128  0.2992
 2587TIP3   OH2 7766   4.646   3.363   2.783 -0.0443 -0.5769 -0.6913
 2587TIP3    H1 7767   4.673   3.291   2.726 -1.7021 -2.8161  1.1625
 2587TIP3    H2 7768   4.661   3.330   2.872  2.5471  2.7959  0.3445
 2588TIP3   OH2 7769   2.580   5.213   1.984  0.0401  0.0366  0.4112
 2588TIP3    H1 7770   2.543   5.236   1.898 -0.1094 -0.1929  0.4145
 2588TIP3    H2 7771   2.509   5.166   2.029  0.4579 -0.7431  0.2735
 2589TIP3   OH2 7772   4.814   0.817   3.837 -0.0121 -0.0344  0.3790
 2589TIP3    H1 7773   4.830   0.903   3.797 -0.2869 -1.3993 -2.9774
 2589TIP3    H2 7774   4.783   0.838   3.925 -2.2571  3.4427 -1.0022
 2590TIP3   OH2 7775   3.379   1.570   2.924 -0.2875  0.4638 -0.1657
 2590TIP3    H1 7776   3.408   1.573   3.015 -0.7919  3.7909  0.0168
 2590TIP3    H2 7777   3.460   1.573   2.873  0.0038 -1.5406  0.1108
 2591TIP3   OH2 7778   3.865   5.793   0.734  0.3194 -1.0372  0.2521
 2591TIP3    H1 7779   3.943   5.803   0.788  0.1982  0.1299  0.2517
 2591TIP3    H2 7780   3.829   5.882   0.728 -1.6775 -1.7079  1.2661
 2592TIP3   OH2 7781   2.381   1.158   1.979 -0.4007  0.3424  0.4516
 2592TIP3    H1 7782   2.445   1.202   2.034 -0.4675 -3.3194  3.8694
 2592TIP3    H2 7783   2.300   1.208   1.991  0.2601  1.1892  1.5121
 2593TIP3   OH2 7784   5.634   2.335   4.831  0.0039 -0.0193  0.7727
 2593TIP3    H1 7785   5.682   2.281   4.894 -0.2301 -1.3430 -0.1186
 2593TIP3    H2 7786   5.559   2.281   4.806 -0.0209  0.5458 -0.4543
 2594TIP3   OH2 7787   6.161   0.685   0.740  0.3097 -0.0854 -0.0272
 2594TIP3    H1 7788   6.099   0.652   0.806  0.9440 -1.2967 -0.0055
 2594TIP3    H2 7789   6.239   0.709   0.790  0.7252 -0.8353 -0.3001
 2595TIP3   OH2 7790   0.689   3.129   0.877  0.0031  0.2816  0.0747
 2595TIP3    H1 7791   0.739   3.116   0.796  2.0708 -0.2707  1.3892
 2595TIP3    H2 7792   0.599   3.105   0.852  0.4454  0.7026 -2.1959
 2596TIP3   OH2 7793   5.967   4.070   4.049  0.2267 -0.1883 -0.5544
 2596TIP3    H1 7794   5.964   4.060   3.953 -1.4198  0.5924 -0.6209
 2596TIP3    H2 7795   5.883   4.036   4.079 -0.1417  1.4742  0.4105
 2597TIP3   OH2 7796   6.095   0.183   1.225  0.4856  0.0027 -0.0710
 2597TIP3    H1 7797   6.000   0.186   1.214  0.4380  1.4352  0.4411
 2597TIP3    H2 7798   6.128   0.243   1.158  1.0441 -0.5890 -0.3310
 2598TIP3   OH2 7799   5.470   5.606   3.378  0.4395  0.2645 -0.0834
 2598TIP3    H1 7800   5.513   5.690   3.391  2.0557 -0.4933 -0.2503
 2598TIP3    H2 7801   5.386   5.628   3.338  1.1943  1.7329 -0.9396
 2599TIP3   OH2 7802   2.157   0.035   4.930  0.0012  0.3933  0.0422
 2599TIP3    H1 7803   2.116  -0.030   4.872  0.7313  0.7553 -0.9204
 2599TIP3    H2 7804   2.132   0.119   4.892  0.8041  0.6268  0.0228
 2600TIP3   OH2 7805   3.575   1.614   2.135  0.3596 -0.3792 -0.2019
 2600TIP3    H1 7806   3.592   1.695   2.184  0.4867  0.8333 -2.1436
 2600TIP3    H2 7807   3.660   1.591   2.098  0.3082 -1.3987  0.2837
 2601TIP3   OH2 7808   4.287   0.587   4.242  0.3176  0.7824 -0.3553
 2601TIP3    H1 7809   4.336   0.507   4.224  0.6749  1.1072 -0.8464
 2601TIP3    H2 7810   4.199   0.557   4.265  0.3746  0.2679 -0.8007
 2602TIP3   OH2 7811   5.601   2.932   3.802  0.2396 -0.0979 -0.3139
 2602TIP3    H1 7812   5.666   2.901   3.740 -0.3361  1.7109 -1.9167
 2602TIP3    H2 7813   5.525   2.954   3.748 -0.1746  1.8535  0.9756
 2603TIP3   OH2 7814   4.287   2.329   1.851  0.2338 -0.4428 -0.0751
 2603TIP3    H1 7815   4.334   2.394   1.904  2.2779 -1.6214 -0.3391
 2603TIP3    H2 7816   4.225   2.381   1.799 -0.3108  0.9588  1.8662
 2604TIP3   OH2 7817   3.874   2.702   0.595  0.0187 -0.0975 -0.1661
 2604TIP3    H1 7818   3.834   2.622   0.630  0.4251 -0.8723 -1.4093
 2604TIP3    H2 7819   3.942   2.671   0.536  3.5089  1.1391  2.8485
 2605TIP3   OH2 7820   2.164   5.886   0.260  0.5460 -0.4436  0.0556
 2605TIP3    H1 7821   2.213   5.819   0.212  1.5849  0.2460  0.1059
 2605TIP3    H2 7822   2.114   5.837   0.325  1.1986 -1.1852  0.0200
 2606TIP3   OH2 7823   4.483   4.732   0.750  0.3227  0.2783  0.1366
 2606TIP3    H1 7824   4.499   4.809   0.696  1.5789  0.4609  0.7272
 2606TIP3    H2 7825   4.562   4.679   0.740 -0.3777 -0.7594  0.0226
 2607TIP3   OH2 7826   5.152   4.144   3.028  0.3617 -0.0198 -0.6024
 2607TIP3    H1 7827   5.238   4.104   3.043  1.0311  1.8161  0.8172
 2607TIP3    H2 7828   5.090   4.073   3.044  1.5751 -1.9402 -3.5743
 2608TIP3   OH2 7829   3.690   4.392   3.657  0.1443 -0.4862  0.2059
 2608TIP3    H1 7830   3.734   4.457   3.602 -1.4834  3.4460  3.0751
 2608TIP3    H2 7831   3.645   4.443   3.724 -1.9779 -4.6313  2.3703
 2609TIP3   OH2 7832   1.755   3.144   3.389  0.1823 -0.1823  0.4931
 2609TIP3    H1 7833   1.841   3.163   3.352  0.2337  1.0004  1.1638
 2609TIP3    H2 7834   1.772   3.125   3.482  0.0522 -3.0508  0.0351
 2610TIP3   OH2 7835   2.446   3.977   2.853 -0.5808  0.2595  0.3389
 2610TIP3    H1 7836   2.411   3.980   2.764  2.4339 -4.8242 -1.4567
 2610TIP3    H2 7837   2.407   3.899   2.891 -0.6021  1.4777  3.0340
 2611TIP3   OH2 7838   0.559   2.707   3.572 -0.1480  0.0137  0.5602
 2611TIP3    H1 7839   0.501   2.762   3.625  0.9081  0.6794  1.0642
 2611TIP3    H2 7840   0.616   2.664   3.637  0.4547  0.0052  0.0296
 2612TIP3   OH2 7841   6.168   4.123   5.182  0.0158 -0.5226 -0.3093
 2612TIP3    H1 7842   6.173   4.158   5.093 -1.0527  0.9999  0.1666
 2612TIP3    H2 7843   6.084   4.156   5.215 -0.3697 -2.4166  0.7197
 2613TIP3   OH2 7844   1.213   4.605   4.455  0.2445  0.1708 -0.0180
 2613TIP3    H1 7845   1.275   4.633   4.387 -0.1275  0.7986 -0.1001
 2613TIP3    H2 7846   1.154   4.679   4.467 -0.8198 -0.5953 -0.3095
 2614TIP3   OH2 7847   2.485   4.206   0.007  0.0285  0.2684 -0.0093
 2614TIP3    H1 7848   2.417   4.260  -0.034  0.3127 -1.5154 -3.1592
 2614TIP3    H2 7849   2.439   4.128   0.037  0.2818  0.2714  0.3874
 2615TIP3   OH2 7850   5.565   1.021   0.743  0.0189 -0.3977 -0.2656
 2615TIP3    H1 7851   5.497   0.987   0.684  1.0479 -1.0412 -1.1222
 2615TIP3    H2 7852   5.628   1.061   0.684  1.1853 -1.2446  0.3730
 2616TIP3   OH2 7853   5.639   0.051   3.134 -0.8123  0.8184 -0.0481
 2616TIP3    H1 7854   5.640   0.087   3.045 -0.4164  1.5309  0.2479
 2616TIP3    H2 7855   5.695   0.108   3.185 -1.0887  0.4497  0.6878
 2617TIP3   OH2 7856   0.051   5.457   2.991  0.3718 -0.1618 -0.6883
 2617TIP3    H1 7857   0.087   5.545   3.003 -0.3778 -0.0289  0.9012
 2617TIP3    H2 7858  -0.042   5.471   2.972 -0.3825 -0.5719  2.1579
 2618TIP3   OH2 7859   3.840   1.510   5.074 -0.0784  0.1194 -1.2993
 2618TIP3    H1 7860   3.770   1.525   5.010 -0.8342  0.1352 -0.4882
 2618TIP3    H2 7861   3.869   1.420   5.058 -1.8662 -0.7053 -0.1593
 2619TIP3   OH2 7862   2.849   5.222   3.109 -0.1940  0.0159  0.1787
 2619TIP3    H1 7863   2.839   5.276   3.030  3.1989  0.5480 -0.0130
 2619TIP3    H2 7864   2.794   5.266   3.174  0.0233  1.9140 -0.8325
 2620TIP3   OH2 7865   0.534   4.837   3.938  0.3291  0.2435  0.6931
 2620TIP3    H1 7866   0.613   4.791   3.965  0.7187 -1.2560 -2.5795
 2620TIP3    H2 7867   0.462   4.789   3.979  0.8590 -2.0706 -0.9254
 2621TIP3   OH2 7868   3.460   0.473   0.370 -0.3428 -0.2557  0.0592
 2621TIP3    H1 7869   3.516   0.442   0.299  0.4560  0.0555  0.5331
 2621TIP3    H2 7870   3.499   0.437   0.449 -2.2088 -2.0413  0.2516
 2622TIP3   OH2 7871   6.173   0.872   1.491  0.1744  0.0963 -0.2785
 2622TIP3    H1 7872   6.221   0.948   1.457 -0.5355  0.3194 -0.8158
 2622TIP3    H2 7873   6.082   0.902   1.498  0.2921  0.0822  1.9581
 2623TIP3   OH2 7874   1.958   1.198   0.273 -0.0067  0.3026  0.1529
 2623TIP3    H1 7875   1.952   1.135   0.202 -1.9560  0.2355  0.3411
 2623TIP3    H2 7876   1.952   1.146   0.353 -2.9099  0.7435  0.3141
 2624TIP3   OH2 7877   5.494   5.742   3.978 -0.2560  0.3308 -0.4742
 2624TIP3    H1 7878   5.434   5.816   3.961 -0.9305 -0.3069 -0.9516
 2624TIP3    H2 7879   5.512   5.747   4.072 -0.9719  0.6085 -0.3439
 2625TIP3   OH2 7880   0.159   1.469   3.534  0.4128  0.0531 -0.3456
 2625TIP3    H1 7881   0.244   1.429   3.552  0.9229  1.2605  0.0726
 2625TIP3    H2 7882   0.095   1.403   3.559  1.0252  0.9861  4.8460
 2626TIP3   OH2 7883   2.906   4.133   3.550 -0.6966 -0.2746  0.5883
 2626TIP3    H1 7884   2.892   4.228   3.545  3.3613  0.7065  3.0660
 2626TIP3    H2 7885   2.923   4.106   3.460 -0.4282  1.6719  0.0134
 2627TIP3   OH2 7886   2.847   1.295   0.539 -0.6524 -0.2179  0.2222
 2627TIP3    H1 7887   2.794   1.339   0.606  0.4355  0.0053  0.9566
 2627TIP3    H2 7888   2.821   1.338   0.457 -0.2530  1.2295  0.8092
 2628TIP3   OH2 7889   4.480   2.279   1.017  0.0418 -0.8961  0.0167
 2628TIP3    H1 7890   4.388   2.274   0.991 -0.6268  1.1257  1.7576
 2628TIP3    H2 7891   4.478   2.311   1.107  2.4866  3.5336 -1.2293
 2629TIP3   OH2 7892   2.627   2.716   1.574  0.6409  0.3125 -0.1183
 2629TIP3    H1 7893   2.641   2.628   1.539 -0.4334  0.7180 -1.6449
 2629TIP3    H2 7894   2.704   2.731   1.630  0.6998 -1.6949  0.4403
 2630TIP3   OH2 7895   4.501   3.760   3.828 -0.2445  0.2983  0.1273
 2630TIP3    H1 7896   4.571   3.722   3.776 -1.1734 -0.3461 -0.6873
 2630TIP3    H2 7897   4.545   3.796   3.905  1.2265  1.6778 -1.2812
 2631TIP3   OH2 7898   4.902   2.342   5.213  0.4745 -0.7198  0.2033
 2631TIP3    H1 7899   4.967   2.322   5.147 -0.3224 -1.2094 -0.4534
 2631TIP3    H2 7900   4.904   2.437   5.222  1.9622 -0.7993  0.9192
 2632TIP3   OH2 7901   1.666   3.223   0.903 -0.1889 -0.1186  0.1135
 2632TIP3    H1 7902   1.732   3.288   0.878  0.4579 -0.6224  0.4850
 2632TIP3    H2 7903   1.585   3.273   0.912 -0.1316  0.3280 -1.5038
 2633TIP3   OH2 7904   2.832   1.794   5.055  0.4261  0.0405  0.7604
 2633TIP3    H1 7905   2.739   1.810   5.073  0.1349 -0.5455 -0.1886
 2633TIP3    H2 7906   2.874   1.878   5.075 -0.5825  0.9504 -0.7521
 2634TIP3   OH2 7907   5.661   3.684   2.003  0.1064  0.3874 -0.1216
 2634TIP3    H1 7908   5.714   3.716   2.077 -0.1624  0.0038  0.2393
 2634TIP3    H2 7909   5.677   3.589   2.002 -0.2393  0.3309 -0.2794
 2635TIP3   OH2 7910   0.737   3.625   1.710 -0.6531 -0.5570  0.2514
 2635TIP3    H1 7911   0.756   3.673   1.630 -0.5135 -0.3237  0.4213
 2635TIP3    H2 7912   0.819   3.629   1.760 -0.6360 -0.9828  0.2633
 2636TIP3   OH2 7913   0.084   5.578   4.247  0.5097  0.1908  0.0586
 2636TIP3    H1 7914   0.163   5.597   4.296  1.0111 -0.3908 -0.5045
 2636TIP3    H2 7915   0.044   5.664   4.230  1.4723  0.5620 -0.3863
 2637TIP3   OH2 7916   0.628   2.093   0.366 -0.2200  0.5244 -0.3176
 2637TIP3    H1 7917   0.595   2.159   0.306 -0.2942  0.4329 -0.3770
 2637TIP3    H2 7918   0.622   2.010   0.318 -1.8667  0.1919  0.3951
 2638TIP3   OH2 7919   6.169   0.457   1.312  0.3362  0.0234  0.0655
 2638TIP3    H1 7920   6.264   0.468   1.315  0.2202  0.8166  1.8381
 2638TIP3    H2 7921   6.154   0.366   1.337  0.7071 -0.9568 -2.9003
 2639TIP3   OH2 7922   0.183   3.255   5.229  0.5364 -0.6328  0.2552
 2639TIP3    H1 7923   0.208   3.329   5.173  2.4160 -0.6038  1.0489
 2639TIP3    H2 7924   0.138   3.195   5.170 -2.3031  1.6521 -0.1627
 2640TIP3   OH2 7925   5.949   5.668   0.572 -0.0849  0.1110  0.6772
 2640TIP3    H1 7926   5.991   5.711   0.498 -1.1235  0.0542  0.0507
 2640TIP3    H2 7927   5.958   5.730   0.644 -0.1624  0.6856  0.1935
 2641TIP3   OH2 7928   3.137   5.218   1.545 -0.6254  0.3813 -0.0741
 2641TIP3    H1 7929   3.069   5.241   1.482  0.0517  1.9721 -0.2704
 2641TIP3    H2 7930   3.218   5.248   1.504  0.4838 -2.8440 -0.5731
 2642TIP3   OH2 7931   4.582   0.768   0.066  0.1081  0.6163 -0.1474
 2642TIP3    H1 7932   4.621   0.694   0.112 -0.4872  0.1427 -0.3935
 2642TIP3    H2 7933   4.514   0.800   0.125  0.7589  1.3586  0.2229
 2643TIP3   OH2 7934   4.538   3.213   3.027  0.1578 -0.1343  0.6845
 2643TIP3    H1 7935   4.615   3.204   3.084  1.0932 -0.3958 -0.5868
 2643TIP3    H2 7936   4.479   3.270   3.077  1.9275  1.5956  0.9593
 2644TIP3   OH2 7937   6.355   1.980   1.693 -0.4781  0.6109 -0.7851
 2644TIP3    H1 7938   6.343   1.944   1.781 -1.1849  0.8031 -0.7988
 2644TIP3    H2 7939   6.305   1.921   1.636  0.6653 -0.0181 -1.1888
 2645TIP3   OH2 7940   0.676   5.952   3.512 -0.5749  0.4727 -0.0612
 2645TIP3    H1 7941   0.759   5.965   3.466 -0.6712  0.5485 -0.2140
 2645TIP3    H2 7942   0.651   5.862   3.491 -0.4559  0.3999  0.1076
 2646TIP3   OH2 7943   1.818   3.362   0.501  0.1853 -0.0793  0.4487
 2646TIP3    H1 7944   1.838   3.392   0.589 -0.7250  0.0348  0.6155
 2646TIP3    H2 7945   1.813   3.267   0.509 -0.7361 -0.0152  0.6966
 2647TIP3   OH2 7946   1.634   2.223   3.184 -0.3219 -0.3339 -0.2279
 2647TIP3    H1 7947   1.608   2.285   3.252  0.0290 -0.2030 -0.2085
 2647TIP3    H2 7948   1.555   2.209   3.132 -0.5830 -0.4079  0.1852
 2648TIP3   OH2 7949   2.376   3.057   4.548  0.1107 -0.8472  0.3938
 2648TIP3    H1 7950   2.472   3.052   4.549  0.2094  0.6284  0.6759
 2648TIP3    H2 7951   2.348   2.988   4.608  1.1009  0.1070  2.0400
 2649TIP3   OH2 7952   3.303   2.103   3.833 -0.0880 -0.1650 -0.1196
 2649TIP3    H1 7953   3.213   2.133   3.849 -0.5463 -0.7859 -1.4237
 2649TIP3    H2 7954   3.296   2.044   3.759  1.1912 -1.4339  0.7200
 2650TIP3   OH2 7955   0.129   0.818   4.975 -0.7990  0.0663 -0.4463
 2650TIP3    H1 7956   0.133   0.780   4.887 -0.0556 -0.1746 -0.3176
 2650TIP3    H2 7957   0.050   0.781   5.014 -0.8288 -0.2610 -0.8151
 2651TIP3   OH2 7958   1.044   4.068   2.255 -0.2760  0.1075 -0.0615
 2651TIP3    H1 7959   0.983   4.020   2.201 -0.3058  0.1548 -0.0703
 2651TIP3    H2 7960   0.989   4.110   2.322 -0.5107  1.7634 -1.2237
 2652TIP3   OH2 7961   4.000   5.272   5.107  0.1583 -0.0448 -0.4286
 2652TIP3    H1 7962   3.909   5.281   5.138  0.5810 -0.2082  0.9524
 2652TIP3    H2 7963   4.018   5.354   5.061 -0.6752  0.0018 -0.6981
 2653TIP3   OH2 7964   2.219   0.399   2.241 -0.0442 -0.2565 -0.0815
 2653TIP3    H1 7965   2.162   0.447   2.301 -0.9022 -0.0145 -1.0572
 2653TIP3    H2 7966   2.177   0.409   2.156  1.3412 -0.2634 -0.7930
 2654TIP3   OH2 7967   3.836   2.709   5.057  0.0225  0.1310 -0.1955
 2654TIP3    H1 7968   3.828   2.640   5.123  0.3899 -1.4272 -1.6947
 2654TIP3    H2 7969   3.896   2.773   5.095 -0.5498 -0.2229  1.3445
 2655TIP3   OH2 7970   2.377   5.177   3.041  0.1556  0.4446 -0.2140
 2655TIP3    H1 7971   2.457   5.131   3.065 -0.8591  0.2640  3.4952
 2655TIP3    H2 7972   2.333   5.119   2.979  0.6115 -1.9156  1.5443
 2656TIP3   OH2 7973   2.560   3.942   3.524  0.2578  0.0795  0.3535
 2656TIP3    H1 7974   2.500   3.873   3.496  0.7515 -0.1740 -0.1129
 2656TIP3    H2 7975   2.635   3.895   3.561  0.8592  0.3325 -0.4971
 2657TIP3   OH2 7976  -0.034   1.933   3.779  0.2998 -0.2282  0.6326
 2657TIP3    H1 7977   0.002   1.846   3.800  0.1098 -1.1966 -2.5555
 2657TIP3    H2 7978   0.042   1.990   3.772  0.5854 -0.5637  1.0000
 2658TIP3   OH2 7979   4.293   2.482   3.492 -0.2687  0.7791 -0.6738
 2658TIP3    H1 7980   4.246   2.560   3.519  2.3996  2.0725  0.5786
 2658TIP3    H2 7981   4.268   2.415   3.556 -0.3095  1.4531  0.0163
 2659TIP3   OH2 7982   4.538   0.627   1.763 -0.7012 -0.0122 -0.2930
 2659TIP3    H1 7983   4.477   0.627   1.837  0.0881  1.7203  0.4129
 2659TIP3    H2 7984   4.579   0.540   1.766 -0.1977  0.2437  1.7431
 2660TIP3   OH2 7985   5.427   2.379   1.097  0.6029  0.3037 -0.2015
 2660TIP3    H1 7986   5.423   2.284   1.101 -0.5196  0.3672  0.6850
 2660TIP3    H2 7987   5.512   2.402   1.136  0.7956 -0.3191 -0.2500
 2661TIP3   OH2 7988   6.310   0.662   4.533 -0.1764  0.0261  0.4588
 2661TIP3    H1 7989   6.270   0.676   4.448  0.8889  1.9649  0.2027
 2661TIP3    H2 7990   6.363   0.583   4.523 -0.6517 -0.1806 -0.4430
 2662TIP3   OH2 7991   2.896   0.992   4.323 -0.2207 -0.0302  0.3710
 2662TIP3    H1 7992   2.940   1.009   4.406  0.5134 -0.9134  0.1807
 2662TIP3    H2 7993   2.847   0.911   4.338 -0.1927 -0.1204 -0.0199
 2663TIP3   OH2 7994   0.867   1.360   4.459  0.0995 -0.2087  0.5498
 2663TIP3    H1 7995   0.896   1.451   4.445 -0.8931  0.2086  1.0802
 2663TIP3    H2 7996   0.943   1.307   4.437  0.5057  0.7210 -0.3825
 2664TIP3   OH2 7997   1.030   2.105   0.671  0.1720  0.0973 -0.6433
 2664TIP3    H1 7998   1.016   2.015   0.699 -1.0632  0.8335  1.3428
 2664TIP3    H2 7999   1.119   2.106   0.635  0.4901 -1.7291 -0.0049
 2665TIP3   OH2 8000   2.981   1.564   5.223  0.5057  0.2957  0.4110
 2665TIP3    H1 8001   2.973   1.615   5.142  0.4019  0.6780  0.6584
 2665TIP3    H2 8002   3.010   1.477   5.194  0.9422  0.5720  0.0106
 2666TIP3   OH2 8003   1.058   4.409   3.882  0.0171 -0.4361  0.0385
 2666TIP3    H1 8004   1.078   4.449   3.797 -0.0632  0.3955  0.4045
 2666TIP3    H2 8005   1.058   4.315   3.864 -0.7922 -0.2529 -1.0601
 2667TIP3   OH2 8006   6.141   4.693   0.004 -0.3062 -0.2130 -0.0245
 2667TIP3    H1 8007   6.112   4.727   0.088  0.3311 -3.6429  1.7686
 2667TIP3    H2 8008   6.063   4.653  -0.034 -0.3388  0.3450 -0.5596
 2668TIP3   OH2 8009   5.840   2.882   1.824  0.0995 -0.2201 -0.0415
 2668TIP3    H1 8010   5.870   2.973   1.822 -0.0935 -0.0872  1.5898
 2668TIP3    H2 8011   5.893   2.838   1.758  1.3869  0.7413  0.3057
 2669TIP3   OH2 8012   4.670   4.647   2.075 -0.9428 -0.2166 -0.1584
 2669TIP3    H1 8013   4.684   4.742   2.070 -0.5986 -0.1291  1.9196
 2669TIP3    H2 8014   4.751   4.609   2.041 -1.1388  0.2114 -1.1451
 2670TIP3   OH2 8015   6.070   5.038   4.164  0.3220  0.0868  0.4777
 2670TIP3    H1 8016   6.072   4.954   4.119  0.1141 -0.2269  1.0413
 2670TIP3    H2 8017   6.123   5.096   4.109  2.0791 -0.8881  1.0589
 2671TIP3   OH2 8018   0.119   2.174   4.871 -0.0020 -0.0589  0.4355
 2671TIP3    H1 8019   0.161   2.103   4.822  0.5169  0.2316  0.4517
 2671TIP3    H2 8020   0.052   2.130   4.923 -2.5160 -0.0845 -2.5530
 2672TIP3   OH2 8021   5.184   0.446   3.297 -0.5028 -0.3213 -0.0133
 2672TIP3    H1 8022   5.139   0.391   3.360  0.0171 -0.0538  0.6033
 2672TIP3    H2 8023   5.238   0.504   3.350 -0.8034  0.5755 -0.6566
 2673TIP3   OH2 8024   6.233   1.964   4.912  0.5443  0.0567 -0.2307
 2673TIP3    H1 8025   6.165   1.944   4.848 -0.4420 -1.0521  1.1019
 2673TIP3    H2 8026   6.249   1.881   4.957  1.3149  0.7585  0.8440
 2674TIP3   OH2 8027   5.175   1.947   5.088  0.1337 -0.2025  0.0869
 2674TIP3    H1 8028   5.095   1.968   5.041  1.0355 -2.1538 -2.5609
 2674TIP3    H2 8029   5.149   1.879   5.151 -0.2931 -0.9909 -0.9124
 2675TIP3   OH2 8030   6.280   4.257   4.159  0.1917 -0.1159 -0.4293
 2675TIP3    H1 8031   6.233   4.175   4.178 -0.4558  0.3256 -0.0968
 2675TIP3    H2 8032   6.338   4.269   4.233 -0.0293 -0.0504 -0.2647
 2676TIP3   OH2 8033   3.240   3.873   1.301 -0.4402  0.1358  0.6682
 2676TIP3    H1 8034   3.159   3.899   1.345 -0.8348 -0.1099  0.0977
 2676TIP3    H2 8035   3.295   3.951   1.304 -0.3877  0.0708  1.7468
 2677TIP3   OH2 8036   2.200   1.918   2.603 -0.2863  0.7733  0.3991
 2677TIP3    H1 8037   2.159   1.960   2.679 -1.9917  1.7980 -0.9906
 2677TIP3    H2 8038   2.237   1.991   2.553  1.0791  0.0858  0.3658
 2678TIP3   OH2 8039   4.233   3.625   1.912 -0.0210 -0.0146  0.3447
 2678TIP3    H1 8040   4.232   3.539   1.869  0.9644 -0.7742  1.7672
 2678TIP3    H2 8041   4.209   3.606   2.003  1.6767  0.9930  1.0234
 2679TIP3   OH2 8042   2.740   3.791   3.666  0.2239 -0.2288  0.0416
 2679TIP3    H1 8043   2.783   3.860   3.715  0.0624 -0.3017  0.2855
 2679TIP3    H2 8044   2.698   3.736   3.732 -0.3815 -0.0679 -0.2077
 2680TIP3   OH2 8045   0.811   1.076   0.112  0.4223 -0.2288 -0.3544
 2680TIP3    H1 8046   0.876   1.053   0.045  0.9161  1.1775 -0.3950
 2680TIP3    H2 8047   0.729   1.081   0.064  0.6854  0.2440 -0.7733
 2681TIP3   OH2 8048   2.747   1.456   2.577 -0.1086  0.1484 -0.0601
 2681TIP3    H1 8049   2.826   1.491   2.538 -0.4026  1.6563  0.6228
 2681TIP3    H2 8050   2.766   1.452   2.671 -0.7725  0.3692  0.0912
 2682TIP3   OH2 8051   2.826   0.236   2.389 -0.5439 -0.2826  0.3276
 2682TIP3    H1 8052   2.750   0.227   2.447 -1.9187  0.7717 -1.2167
 2682TIP3    H2 8053   2.887   0.169   2.419 -1.7790 -0.6977  2.0796
 2683TIP3   OH2 8054   3.058   2.504   2.051  0.0324 -0.0115 -0.4961
 2683TIP3    H1 8055   2.993   2.501   2.121  0.3344 -0.7005 -0.2375
 2683TIP3    H2 8056   3.132   2.454   2.084  0.9315  1.2129 -0.5633
 2684TIP3   OH2 8057   3.881   5.690   4.888 -0.0982 -0.4130  0.1725
 2684TIP3    H1 8058   3.823   5.614   4.891  0.5322 -0.8982  0.2002
 2684TIP3    H2 8059   3.841   5.752   4.949 -1.1620 -0.3206 -0.5917
 2685TIP3   OH2 8060   4.085   2.492   3.267  0.5164 -0.2142 -0.1568
 2685TIP3    H1 8061   4.067   2.582   3.293 -1.2780 -0.2774 -1.0121
 2685TIP3    H2 8062   4.170   2.496   3.224 -0.1853  1.3940 -1.5263
 2686TIP3   OH2 8063   3.646   2.139   0.124 -0.3158 -0.7135  0.5520
 2686TIP3    H1 8064   3.586   2.159   0.196 -1.7831  0.8809 -1.0173
 2686TIP3    H2 8065   3.597   2.080   0.067 -0.2576  0.2326 -0.5134
 2687TIP3   OH2 8066   5.972   5.262   3.975 -0.1085  0.1640 -0.2119
 2687TIP3    H1 8067   6.019   5.255   3.892 -0.2496  0.9693 -0.3727
 2687TIP3    H2 8068   5.881   5.274   3.949  0.0023  1.6842  0.0105
 2688TIP3   OH2 8069   3.934   4.458   1.964  0.0246 -0.4191 -0.4328
 2688TIP3    H1 8070   4.011   4.507   1.992 -0.3282  0.9815 -1.8279
 2688TIP3    H2 8071   3.888   4.516   1.903 -1.9809 -1.3296  0.1060
 2689TIP3   OH2 8072   2.190   4.811   3.438  0.0984 -0.3487 -0.3458
 2689TIP3    H1 8073   2.108   4.768   3.460  0.5078 -1.2524 -0.5210
 2689TIP3    H2 8074   2.246   4.798   3.514  0.5738 -1.0583 -0.7938
 2690TIP3   OH2 8075   3.029   1.508   2.103  0.0248  0.0901 -0.2779
 2690TIP3    H1 8076   3.108   1.471   2.063 -0.9199 -1.8987 -0.4515
 2690TIP3    H2 8077   2.996   1.570   2.039 -0.8325 -2.2007 -2.2025
 2691TIP3   OH2 8078   2.511   0.823   2.399  0.4367 -0.1668 -0.6604
 2691TIP3    H1 8079   2.449   0.885   2.361  0.5520  0.0465 -0.5044
 2691TIP3    H2 8080   2.504   0.745   2.344 -2.3799 -1.4082  1.2214
 2692TIP3   OH2 8081   4.619   5.139   2.515 -0.0631 -0.5689  0.2717
 2692TIP3    H1 8082   4.550   5.075   2.500 -0.6099 -0.2368  1.2608
 2692TIP3    H2 8083   4.699   5.096   2.485 -0.7054 -0.8930 -1.0373
 2693TIP3   OH2 8084   2.097   2.896   1.305 -0.4766  0.1770  0.2580
 2693TIP3    H1 8085   2.004   2.901   1.328 -0.2948  0.4061  0.9819
 2693TIP3    H2 8086   2.143   2.900   1.390  0.1731 -0.4572 -0.0493
 2694TIP3   OH2 8087   0.866   1.305   1.970  0.1963  0.1516  0.0744
 2694TIP3    H1 8088   0.839   1.397   1.978  2.1602  0.9303 -1.2872
 2694TIP3    H2 8089   0.924   1.290   2.045  1.5369  0.7419 -0.7886
 2695TIP3   OH2 8090   6.230   3.198   3.205  0.3543  0.0894  0.0863
 2695TIP3    H1 8091   6.264   3.175   3.292  0.6573  1.8585  0.4642
 2695TIP3    H2 8092   6.238   3.117   3.155 -0.4182 -1.1751  1.8730
 2696TIP3   OH2 8093   0.837   0.340   3.684  0.1274 -0.1856  0.5743
 2696TIP3    H1 8094   0.821   0.368   3.774  0.2034 -2.1267  1.2246
 2696TIP3    H2 8095   0.808   0.249   3.681 -0.8984  0.1543 -1.6662
 2697TIP3   OH2 8096   1.574   5.126   4.596  0.0689 -0.3539  0.0081
 2697TIP3    H1 8097   1.581   5.153   4.688 -0.9070  2.0923 -0.5463
 2697TIP3    H2 8098   1.661   5.144   4.560 -0.1664  0.8313 -0.0171
 2698TIP3   OH2 8099   3.839   0.791   5.061  0.4328 -0.0769  0.7294
 2698TIP3    H1 8100   3.918   0.761   5.016  0.1797  1.2864 -0.6905
 2698TIP3    H2 8101   3.849   0.758   5.150  2.8386  0.4732  0.7417
 2699TIP3   OH2 8102   0.446   2.525   0.280 -0.0633 -0.4578 -0.3363
 2699TIP3    H1 8103   0.530   2.557   0.313  0.1380  0.2052 -1.4402
 2699TIP3    H2 8104   0.468   2.444   0.234 -0.0082 -0.2255 -0.7209
 2700TIP3   OH2 8105   4.384   1.441   0.528 -0.4855  0.0111  0.1095
 2700TIP3    H1 8106   4.385   1.359   0.578 -1.0990  1.5742  2.9259
 2700TIP3    H2 8107   4.453   1.494   0.568 -0.7910  1.2514 -0.9520
 2701TIP3   OH2 8108   1.277   0.202   3.573 -0.0557  0.1425 -0.6047
 2701TIP3    H1 8109   1.203   0.242   3.617 -0.4738 -1.1332 -0.0963
 2701TIP3    H2 8110   1.273   0.236   3.483 -0.0861  1.5805 -0.0859
 2702TIP3   OH2 8111   1.282   5.303   4.973 -0.6239  0.0571 -0.9233
 2702TIP3    H1 8112   1.314   5.377   4.921 -0.6840 -0.2090 -1.3410
 2702TIP3    H2 8113   1.187   5.309   4.967 -0.6666 -1.4948 -3.0685
 2703TIP3   OH2 8114   4.438   5.987   0.333  0.5612  0.1558  0.7532
 2703TIP3    H1 8115   4.350   6.024   0.339  0.8764  1.0859 -0.1185
 2703TIP3    H2 8116   4.434   5.907   0.385 -0.8039  0.1829  0.7162
 2704TIP3   OH2 8117   5.148   5.291   0.316  0.1196 -0.0753 -0.1301
 2704TIP3    H1 8118   5.076   5.305   0.377  0.4463 -0.4614  0.3555
 2704TIP3    H2 8119   5.127   5.207   0.275  0.1594 -0.0621 -0.1766
 2705TIP3   OH2 8120   3.450   3.266   2.439 -0.3020  0.2303  0.4966
 2705TIP3    H1 8121   3.421   3.282   2.529  1.5504 -1.3981  1.4715
 2705TIP3    H2 8122   3.521   3.203   2.448  0.2338  0.3532 -2.1081
 2706TIP3   OH2 8123   4.443   1.734   1.381  0.7924  0.1804  0.2020
 2706TIP3    H1 8124   4.376   1.669   1.361  1.1180  0.8897 -4.0369
 2706TIP3    H2 8125   4.518   1.682   1.412  0.2215 -1.2201 -0.6849
 2707TIP3   OH2 8126   1.735   0.320   2.241  0.1995 -0.4592 -0.3675
 2707TIP3    H1 8127   1.812   0.346   2.292 -0.3098  0.0143  0.1618
 2707TIP3    H2 8128   1.667   0.383   2.266 -0.8430 -1.8336  0.3804
 2708TIP3   OH2 8129   5.959   0.515   4.214  0.2872 -0.3324 -0.1245
 2708TIP3    H1 8130   5.931   0.605   4.228 -0.7186 -0.9557  2.4882
 2708TIP3    H2 8131   5.880   0.470   4.183 -0.0143 -0.8562  1.3438
 2709TIP3   OH2 8132   5.284   0.460   3.625 -0.1633  0.5438  0.3422
 2709TIP3    H1 8133   5.215   0.411   3.581 -0.8159  0.7124  1.1580
 2709TIP3    H2 8134   5.343   0.392   3.659 -2.1032  0.1192  3.1997
 2710TIP3   OH2 8135   3.514   5.383   4.427 -0.2118 -0.0583  0.1610
 2710TIP3    H1 8136   3.440   5.348   4.378 -0.6534 -0.2526  0.9547
 2710TIP3    H2 8137   3.563   5.306   4.455  0.2896  0.0680 -0.3360
 2711TIP3   OH2 8138   4.519   2.672   3.595  0.4388 -0.3398 -0.1832
 2711TIP3    H1 8139   4.570   2.708   3.522  0.5488  0.9006  0.4759
 2711TIP3    H2 8140   4.429   2.668   3.561  0.2373  1.4957 -0.0031
 2712TIP3   OH2 8141   3.588   4.356   0.788  0.1302 -0.0861 -0.2178
 2712TIP3    H1 8142   3.682   4.369   0.777  0.3002 -2.0410 -1.4926
 2712TIP3    H2 8143   3.572   4.266   0.758 -2.2123  0.3354 -0.4275
 2713TIP3   OH2 8144   2.553   3.342   0.949  0.7172  0.2125  0.1292
 2713TIP3    H1 8145   2.489   3.362   0.880  0.2379  1.8949  1.0005
 2713TIP3    H2 8146   2.636   3.375   0.915  0.7249 -0.0680 -0.1319
 2714TIP3   OH2 8147   0.393   1.343   0.034  0.0667 -0.3387 -0.4919
 2714TIP3    H1 8148   0.304   1.312   0.015 -1.0282  0.6922  2.4573
 2714TIP3    H2 8149   0.408   1.412  -0.030 -2.0880  0.7920  0.1277
 2715TIP3   OH2 8150   1.022   5.135   5.097  0.3372 -0.2818  0.2608
 2715TIP3    H1 8151   1.044   5.186   5.019  1.1628  0.3105  0.8645
 2715TIP3    H2 8152   0.936   5.099   5.078  0.3426  0.1909 -0.7558
 2716TIP3   OH2 8153   5.161   3.023   2.621 -0.6326  0.4565 -0.3719
 2716TIP3    H1 8154   5.256   3.033   2.622 -0.7807  3.0608 -2.3555
 2716TIP3    H2 8155   5.132   3.061   2.704  0.0362 -1.0526  0.6010
 2717TIP3   OH2 8156   4.622   5.876   4.787  0.2751 -0.3293  0.1396
 2717TIP3    H1 8157   4.595   5.932   4.859  0.2245  1.5816 -1.2986
 2717TIP3    H2 8158   4.556   5.890   4.719  2.0225  0.4840 -1.4851
 2718TIP3   OH2 8159   5.352   1.487   2.520 -0.0624  0.0084 -0.1266
 2718TIP3    H1 8160   5.447   1.487   2.508  0.2809  2.5937  1.7289
 2718TIP3    H2 8161   5.338   1.440   2.602 -0.4685 -0.7537 -0.6183
 2719TIP3   OH2 8162   0.964   4.385   1.431  0.1303  0.0688 -0.3680
 2719TIP3    H1 8163   0.916   4.328   1.492 -1.7182 -0.3957 -2.1508
 2719TIP3    H2 8164   0.917   4.468   1.434  1.6171  0.9307  0.7146
 2720TIP3   OH2 8165   2.943   5.092   4.570  0.0957  0.1028  0.2792
 2720TIP3    H1 8166   2.943   5.003   4.534  0.3687  0.9149 -1.9246
 2720TIP3    H2 8167   3.022   5.131   4.534  0.8757  0.7661  2.5994
 2721TIP3   OH2 8168   0.270   5.739   4.972  0.3756  0.4861 -0.0486
 2721TIP3    H1 8169   0.287   5.648   4.994 -0.8694  0.1631 -0.3344
 2721TIP3    H2 8170   0.293   5.788   5.051 -0.4527 -0.2433  0.6602
 2722TIP3   OH2 8171   2.149   1.940   3.476 -0.3836  0.4138 -0.2758
 2722TIP3    H1 8172   2.136   2.007   3.408 -1.3787  1.1997  0.6446
 2722TIP3    H2 8173   2.144   1.989   3.558 -0.9168 -0.7659  0.4065
 2723TIP3   OH2 8174   0.824   0.583   2.688  0.7113  0.1443 -0.1060
 2723TIP3    H1 8175   0.879   0.506   2.676  0.3490 -0.3394  1.1858
 2723TIP3    H2 8176   0.814   0.592   2.783 -0.7243  0.7211 -0.2780
 2724TIP3   OH2 8177   0.943   3.962   0.443 -0.2397  0.2428  0.6451
 2724TIP3    H1 8178   0.950   3.922   0.530 -0.3271  0.0293  0.5540
 2724TIP3    H2 8179   1.033   3.971   0.413 -0.2471 -0.4494  0.4069
 2725TIP3   OH2 8180   3.957   2.933   0.712  0.1294  0.0758 -0.7641
 2725TIP3    H1 8181   3.928   2.847   0.681  1.3747 -0.9158  0.6948
 2725TIP3    H2 8182   4.013   2.966   0.641 -1.0631  0.1194 -1.7223
 2726TIP3   OH2 8183   2.175   2.815   2.021 -0.9047 -0.0373 -0.1322
 2726TIP3    H1 8184   2.148   2.906   2.019 -1.8363 -0.3011 -1.9216
 2726TIP3    H2 8185   2.114   2.772   2.080  0.6305  0.7367  2.1820
 2727TIP3   OH2 8186   1.226   4.214   3.609  0.2457 -0.0247  0.0545
 2727TIP3    H1 8187   1.285   4.269   3.557  1.7989 -2.1057 -0.5354
 2727TIP3    H2 8188   1.176   4.165   3.545 -1.2521  0.7854  0.5687
 2728TIP3   OH2 8189   0.567   2.004   2.774  0.1600  0.4035  0.0446
 2728TIP3    H1 8190   0.534   2.038   2.691  1.7031 -2.1018 -1.7565
 2728TIP3    H2 8191   0.509   1.931   2.795  0.0074  0.7822  0.9929
 2729TIP3   OH2 8192   2.082   3.763   0.319  0.1866  0.2338  0.1701
 2729TIP3    H1 8193   2.073   3.741   0.226 -1.9165  1.7267 -0.0454
 2729TIP3    H2 8194   2.033   3.694   0.365 -2.0821  1.5290 -0.1587
 2730TIP3   OH2 8195   6.243   3.172   2.124 -0.0281  0.1603 -0.0055
 2730TIP3    H1 8196   6.253   3.118   2.046 -0.1789 -0.4264  0.3771
 2730TIP3    H2 8197   6.159   3.146   2.161 -0.4512  1.1889 -0.2235
 2731TIP3   OH2 8198   3.444   4.543   1.694  0.1672 -0.6664  0.1704
 2731TIP3    H1 8199   3.399   4.578   1.771 -0.6403  0.1191 -0.6269
 2731TIP3    H2 8200   3.393   4.576   1.620  2.3592  0.7117 -0.8247
 2732TIP3   OH2 8201   0.195   0.747   3.089  0.2535 -0.0811  0.1629
 2732TIP3    H1 8202   0.281   0.710   3.109  0.5516 -0.2282 -1.2798
 2732TIP3    H2 8203   0.206   0.841   3.104  0.9747  0.0279 -0.9406
 2733TIP3   OH2 8204   4.208   0.171   3.686 -0.0032 -0.1500 -0.1869
 2733TIP3    H1 8205   4.251   0.129   3.761 -0.9116  0.5076  0.7371
 2733TIP3    H2 8206   4.129   0.210   3.723 -0.2767  0.5217 -1.4291
 2734TIP3   OH2 8207   1.526   1.252   4.395 -0.3532  0.1815  0.8573
 2734TIP3    H1 8208   1.520   1.232   4.489 -1.2354 -1.7540  0.4513
 2734TIP3    H2 8209   1.606   1.207   4.367 -0.4486  0.1872  0.5765
 2735TIP3   OH2 8210   5.254   1.867   3.457 -0.3651 -0.7645 -0.0178
 2735TIP3    H1 8211   5.190   1.910   3.513 -1.1744 -0.1174 -1.3716
 2735TIP3    H2 8212   5.203   1.804   3.406  0.1633 -0.6762 -0.6797
 2736TIP3   OH2 8213   4.824   3.010   2.361 -0.3357 -0.0962  0.1794
 2736TIP3    H1 8214   4.865   3.085   2.405  0.8727 -1.0490  0.7434
 2736TIP3    H2 8215   4.896   2.949   2.347 -1.0927 -0.7015 -1.2751
 2737TIP3   OH2 8216   2.969   5.676   3.355 -0.5014 -0.0811 -0.4581
 2737TIP3    H1 8217   3.063   5.672   3.338  0.1844 -1.5294  2.9945
 2737TIP3    H2 8218   2.956   5.762   3.396 -0.6880  0.0593 -0.8040
 2738TIP3   OH2 8219   0.328   4.913   3.259 -0.4158  0.3648 -0.4211
 2738TIP3    H1 8220   0.414   4.942   3.229  0.8521 -1.4446  1.2145
 2738TIP3    H2 8221   0.346   4.864   3.340 -3.1718  1.4261  0.9792
 2739TIP3   OH2 8222   0.081   1.077   0.103 -0.1386 -0.4817  0.3721
 2739TIP3    H1 8223   0.047   1.040   0.184 -1.0903  0.1087  0.2663
 2739TIP3    H2 8224   0.014   1.055   0.038 -0.1090  0.3343  0.0632
 2740TIP3   OH2 8225   5.192   0.693   2.276 -0.0320  0.1412  0.0513
 2740TIP3    H1 8226   5.249   0.616   2.266 -0.5741 -0.2714  0.0921
 2740TIP3    H2 8227   5.251   0.768   2.266  0.5827 -0.2799  0.4874
 2741TIP3   OH2 8228   3.591   4.086   4.494 -0.0890  0.0441 -0.1571
 2741TIP3    H1 8229   3.520   4.090   4.430 -1.2857 -0.1025  1.1363
 2741TIP3    H2 8230   3.574   4.158   4.554  0.0102 -0.8868  1.0223
 2742TIP3   OH2 8231   0.055   5.852   3.438 -0.1333  0.5048 -0.2687
 2742TIP3    H1 8232   0.081   5.863   3.529 -1.4237 -3.6556  0.8448
 2742TIP3    H2 8233  -0.038   5.830   3.442 -0.4127  1.0092 -2.6951
 2743TIP3   OH2 8234   4.018   4.787   2.272  0.4553 -0.8703 -0.1835
 2743TIP3    H1 8235   4.014   4.700   2.232 -0.1749 -1.0222  0.1997
 2743TIP3    H2 8236   4.095   4.784   2.328  0.4932 -1.1484 -0.2461
 2744TIP3   OH2 8237   2.427   5.583   4.647  0.0826  0.2524  0.3260
 2744TIP3    H1 8238   2.401   5.640   4.719 -1.1419  0.8108 -0.5222
 2744TIP3    H2 8239   2.495   5.527   4.684  1.1271  2.0542  1.2787
 2745TIP3   OH2 8240   6.121   0.942   5.105 -0.3086  0.2606 -0.8974
 2745TIP3    H1 8241   6.147   0.920   5.016 -0.9042 -0.6585 -0.8549
 2745TIP3    H2 8242   6.027   0.957   5.100 -0.1516  1.4375 -0.6479
 2746TIP3   OH2 8243   2.370   0.724   3.663 -0.8999  0.3892  0.5966
 2746TIP3    H1 8244   2.282   0.696   3.688 -0.7789 -1.1200 -0.5147
 2746TIP3    H2 8245   2.406   0.765   3.742 -2.2003  0.0517  1.3901
 2747TIP3   OH2 8246   2.773   1.813   3.891 -0.0181  0.7451  0.3499
 2747TIP3    H1 8247   2.729   1.805   3.975  0.3833  0.2769  0.5230
 2747TIP3    H2 8248   2.789   1.723   3.864 -2.2993  0.7719 -1.4073
 2748TIP3   OH2 8249   2.241   3.110   3.832  0.1085 -0.1329  0.3376
 2748TIP3    H1 8250   2.234   3.205   3.842 -0.4718 -0.1182 -0.1639
 2748TIP3    H2 8251   2.270   3.097   3.742 -0.6404 -0.4505  0.1310
 2749TIP3   OH2 8252   3.706   1.463   1.763  0.2336 -0.6029 -0.4161
 2749TIP3    H1 8253   3.613   1.467   1.743  0.0219 -0.1998  0.5579
 2749TIP3    H2 8254   3.716   1.386   1.819  0.2354  0.1225  0.6110
 2750TIP3   OH2 8255   0.946   1.836   5.207  0.1486 -0.2760 -0.7520
 2750TIP3    H1 8256   1.034   1.867   5.224 -0.7641  1.4403  1.2905
 2750TIP3    H2 8257   0.938   1.837   5.111  2.2621 -0.3849 -0.9701
 2751TIP3   OH2 8258   0.158   3.979   2.501 -0.5898  0.1150 -0.3351
 2751TIP3    H1 8259   0.224   3.988   2.570 -1.2199 -0.4987  0.3712
 2751TIP3    H2 8260   0.108   3.902   2.526 -0.8581 -0.0941 -1.4793
 2752TIP3   OH2 8261   0.410   5.773   1.788 -0.2508 -0.0599 -0.1198
 2752TIP3    H1 8262   0.494   5.805   1.754 -1.2347  1.7887 -0.9884
 2752TIP3    H2 8263   0.379   5.711   1.722 -0.3225  0.5224 -0.6456
 2753TIP3   OH2 8264   2.761   4.000   1.210  0.2004  0.0399 -0.5914
 2753TIP3    H1 8265   2.716   4.084   1.200 -0.8438 -0.5012 -0.5026
 2753TIP3    H2 8266   2.843   4.011   1.161  0.2172  1.2061 -0.3364
 2754TIP3   OH2 8267   3.871   1.356   3.545 -0.3502 -0.6977 -0.5848
 2754TIP3    H1 8268   3.955   1.362   3.591 -0.7745 -0.5312  0.1997
 2754TIP3    H2 8269   3.893   1.327   3.457  0.7069  1.0239 -0.9420
 2755TIP3   OH2 8270   0.316   3.358   1.256 -0.2445 -0.0194  0.6081
 2755TIP3    H1 8271   0.242   3.400   1.213 -0.8522 -1.0083  0.6674
 2755TIP3    H2 8272   0.301   3.264   1.244  1.5128 -0.2338 -0.2408
 2756TIP3   OH2 8273   5.778   2.338   1.013  0.1001  0.4578 -0.3060
 2756TIP3    H1 8274   5.751   2.369   1.099 -1.5425 -1.3680 -0.0973
 2756TIP3    H2 8275   5.837   2.406   0.980 -0.0265  1.6687  1.8222
 2757TIP3   OH2 8276   6.050   3.068   4.083 -0.0324 -0.9370 -0.1462
 2757TIP3    H1 8277   5.981   3.019   4.128 -1.1400  0.8065  0.1442
 2757TIP3    H2 8278   6.064   3.146   4.136  0.0698  0.1732 -1.7224
 2758TIP3   OH2 8279   6.193   1.136   1.966 -0.1083  0.2940  0.1905
 2758TIP3    H1 8280   6.105   1.144   1.929 -0.4422  2.7827  1.3542
 2758TIP3    H2 8281   6.247   1.107   1.893 -1.2414  2.3975 -1.6012
 2759TIP3   OH2 8282   0.517   3.521   1.156  0.2187 -0.2961 -0.8472
 2759TIP3    H1 8283   0.567   3.442   1.133  0.5111 -0.8660  1.5164
 2759TIP3    H2 8284   0.440   3.488   1.202 -0.4322  0.7535 -1.1461
 2760TIP3   OH2 8285   3.157   5.793   0.251  0.4027  0.4936  0.0042
 2760TIP3    H1 8286   3.134   5.813   0.161  0.6951  0.4652 -0.0777
 2760TIP3    H2 8287   3.106   5.854   0.304  2.1892  2.3344 -0.2711
 2761TIP3   OH2 8288   0.455   0.173   2.195 -0.0146 -0.3151 -0.0016
 2761TIP3    H1 8289   0.479   0.146   2.106  1.1894  0.9130 -0.0802
 2761TIP3    H2 8290   0.364   0.202   2.187  0.0056 -0.4479 -0.7925
 2762TIP3   OH2 8291   5.699   4.007   3.841 -0.0272  0.1515  0.1941
 2762TIP3    H1 8292   5.674   3.955   3.765 -0.5002 -0.2060  0.5906
 2762TIP3    H2 8293   5.619   4.017   3.892  0.0372  1.3215  0.1018
 2763TIP3   OH2 8294   1.892   2.254   3.097 -0.4123 -0.1620  0.2355
 2763TIP3    H1 8295   1.931   2.175   3.060 -1.2875 -0.3793 -0.2490
 2763TIP3    H2 8296   1.812   2.224   3.139 -0.5996  0.4235  0.3053
 2764TIP3   OH2 8297   2.255   2.345   5.002  0.4579  0.1840  0.2743
 2764TIP3    H1 8298   2.261   2.395   4.921 -1.6282  0.6524  0.3676
 2764TIP3    H2 8299   2.169   2.365   5.037  0.4404 -1.7312  1.4907
 2765TIP3   OH2 8300   2.901   2.689   5.161  0.0933 -0.5851 -0.6311
 2765TIP3    H1 8301   2.935   2.768   5.203 -0.9336  0.0499 -0.9786
 2765TIP3    H2 8302   2.961   2.620   5.191  0.8184  0.2525 -0.0686
 2766TIP3   OH2 8303   1.098   5.228   4.595 -0.4578 -0.2525 -0.3045
 2766TIP3    H1 8304   1.059   5.165   4.533 -0.3218 -0.7918  0.1552
 2766TIP3    H2 8305   1.192   5.224   4.576 -0.5647  0.7075 -1.0959
 2767TIP3   OH2 8306   6.281   1.900   1.937  0.6101  0.0634  0.2299
 2767TIP3    H1 8307   6.238   1.815   1.947  0.2491  0.0707 -1.0822
 2767TIP3    H2 8308   6.212   1.963   1.955  0.7978  0.0881  0.8871
 2768TIP3   OH2 8309   4.489   3.287   4.025  0.8106  0.0006  0.3524
 2768TIP3    H1 8310   4.463   3.233   3.950 -1.6854  0.0841  1.0637
 2768TIP3    H2 8311   4.525   3.224   4.088 -0.0929 -0.5636  0.3289
 2769TIP3   OH2 8312   0.290   2.704   0.093  0.4307 -0.0354 -0.3807
 2769TIP3    H1 8313   0.264   2.796   0.088 -1.9089 -0.6147 -0.0263
 2769TIP3    H2 8314   0.331   2.695   0.179  0.5880  0.6490 -0.3803
 2770TIP3   OH2 8315   1.021   2.659   5.021  0.4561 -0.8832 -0.2162
 2770TIP3    H1 8316   0.969   2.681   4.943 -1.2963 -2.0569  0.5667
 2770TIP3    H2 8317   1.002   2.729   5.083  1.2388 -0.3744 -0.5225
 2771TIP3   OH2 8318   5.903   4.205   4.515 -0.2541  0.7974 -0.0518
 2771TIP3    H1 8319   5.946   4.121   4.498  3.5139  2.5936 -0.3502
 2771TIP3    H2 8320   5.878   4.236   4.428 -2.0443 -0.0890  0.0928
 2772TIP3   OH2 8321   5.245   2.292   0.718 -0.1491 -0.2108  0.6707
 2772TIP3    H1 8322   5.233   2.211   0.768  0.7541 -0.4389  0.5396
 2772TIP3    H2 8323   5.325   2.277   0.667  2.3203  2.1185  3.4704
 2773TIP3   OH2 8324   2.410   2.879   1.819  0.2672 -0.0498  0.1332
 2773TIP3    H1 8325   2.344   2.917   1.761 -1.4630 -2.3611  0.4320
 2773TIP3    H2 8326   2.384   2.907   1.907  0.6787  0.3948  0.1156
 2774TIP3   OH2 8327   5.312   0.156   4.317 -0.2702  0.2305 -0.2502
 2774TIP3    H1 8328   5.401   0.130   4.291 -1.3181 -0.0564 -4.3902
 2774TIP3    H2 8329   5.287   0.093   4.384  1.7134 -1.4960 -1.0151
 2775TIP3   OH2 8330   4.955   0.568   2.129  0.1946 -0.0853 -0.1237
 2775TIP3    H1 8331   4.923   0.491   2.175 -0.1421 -0.5072 -1.0530
 2775TIP3    H2 8332   5.042   0.584   2.166  0.1893 -0.7975  0.2025
 2776TIP3   OH2 8333   5.912   0.064   0.305  0.0437  0.3246 -0.6384
 2776TIP3    H1 8334   5.961   0.142   0.278 -1.7513  1.1850 -1.5862
 2776TIP3    H2 8335   5.876   0.087   0.390 -0.1041  0.3598 -0.7099
 2777TIP3   OH2 8336   4.426   3.537   3.370  0.2086  0.0650  0.1356
 2777TIP3    H1 8337   4.371   3.494   3.304  1.6811 -1.5158 -0.1145
 2777TIP3    H2 8338   4.407   3.630   3.359 -2.7214 -0.4060  0.3748
 2778TIP3   OH2 8339   3.105   5.423   1.212 -0.2414 -0.4650  0.2900
 2778TIP3    H1 8340   3.018   5.454   1.185 -0.4629  0.2068  1.7089
 2778TIP3    H2 8341   3.092   5.331   1.233 -0.8488 -0.1343  1.4353
 2779TIP3   OH2 8342   4.965   4.651   1.144 -0.2193 -0.2602 -0.0805
 2779TIP3    H1 8343   4.870   4.667   1.144 -0.6674 -2.4897  0.8250
 2779TIP3    H2 8344   4.980   4.599   1.065  0.6069  1.5887 -1.1936
 2780TIP3   OH2 8345   4.466   2.123   0.182 -0.1548 -0.5812  0.4864
 2780TIP3    H1 8346   4.510   2.123   0.267 -2.8039 -0.7001  1.9496
 2780TIP3    H2 8347   4.421   2.038   0.178  0.6772 -1.0010 -1.5159
 2781TIP3   OH2 8348   4.552   3.114   2.321  0.4289 -0.1300 -0.4988
 2781TIP3    H1 8349   4.569   3.198   2.280  0.2022 -0.4396 -1.2519
 2781TIP3    H2 8350   4.639   3.075   2.332  0.4849 -0.1166 -0.8592
 2782TIP3   OH2 8351   5.334   5.014   3.719 -0.1087  0.4999  0.3369
 2782TIP3    H1 8352   5.263   4.968   3.764 -0.9384 -0.5625 -1.8564
 2782TIP3    H2 8353   5.293   5.047   3.639  0.6731  4.4680  1.3941
 2783TIP3   OH2 8354   1.835   5.842   4.622 -0.3337 -0.1706 -0.0079
 2783TIP3    H1 8355   1.908   5.864   4.564  0.6960  0.9777  1.6288
 2783TIP3    H2 8356   1.803   5.758   4.590  2.5918 -1.3964  0.0130
 2784TIP3   OH2 8357   5.701   2.359   0.483 -0.0272  0.3398 -0.0052
 2784TIP3    H1 8358   5.742   2.279   0.515 -0.4777  0.3483  0.6171
 2784TIP3    H2 8359   5.730   2.427   0.544 -0.4951  0.4480  0.1025
 2785TIP3   OH2 8360   3.996   1.499   4.192  0.0332 -0.5003 -0.1746
 2785TIP3    H1 8361   4.003   1.557   4.268  0.2091 -0.7493  0.0032
 2785TIP3    H2 8362   3.910   1.458   4.201 -0.1391 -0.1820 -0.3636
 2786TIP3   OH2 8363   0.538   4.900   3.409 -0.2599 -0.0771 -0.2514
 2786TIP3    H1 8364   0.583   4.818   3.389  0.4767 -0.2354  1.8247
 2786TIP3    H2 8365   0.499   4.885   3.495 -1.6956  1.1387 -0.6489
 2787TIP3   OH2 8366   0.647   0.666   2.339 -0.3541 -0.2049 -0.3764
 2787TIP3    H1 8367   0.736   0.672   2.374  0.1022 -1.0795 -1.3186
 2787TIP3    H2 8368   0.602   0.744   2.372  0.3560 -0.4344  1.2229
 2788TIP3   OH2 8369   3.585   3.072   2.955  0.3336 -0.6974  0.6342
 2788TIP3    H1 8370   3.640   3.128   2.899 -0.4494 -0.1251  0.4211
 2788TIP3    H2 8371   3.569   3.126   3.032 -2.8256  0.6399 -0.7646
 2789TIP3   OH2 8372   5.089   4.205   2.657 -0.0867  0.5408 -0.0645
 2789TIP3    H1 8373   5.116   4.121   2.618 -0.7265  0.9994 -1.5999
 2789TIP3    H2 8374   5.170   4.253   2.670  0.1934  0.1653 -0.3985
 2790TIP3   OH2 8375   3.317   3.220   2.718  0.7248 -0.0292  0.3900
 2790TIP3    H1 8376   3.356   3.132   2.719  1.5942  0.3305 -0.1492
 2790TIP3    H2 8377   3.304   3.241   2.810  0.2704 -0.8225  0.5182
 2791TIP3   OH2 8378   6.348   4.824   4.290  0.1723 -0.0787  0.3530
 2791TIP3    H1 8379   6.425   4.774   4.316 -0.7959 -2.0728 -0.4439
 2791TIP3    H2 8380   6.278   4.759   4.280 -1.2333  1.4608 -0.4509
 2792TIP3   OH2 8381   0.401   1.207   2.774  0.1666  0.3379 -0.0194
 2792TIP3    H1 8382   0.476   1.211   2.714  1.4587 -0.9613  1.4361
 2792TIP3    H2 8383   0.426   1.144   2.840 -1.8662  0.5724  1.0565
 2793TIP3   OH2 8384   0.337   5.687   3.593  0.3220  1.0623 -0.2566
 2793TIP3    H1 8385   0.302   5.775   3.580 -1.9253  0.4436  1.0784
 2793TIP3    H2 8386   0.273   5.643   3.649  2.3021 -0.8554  0.6617
 2794TIP3   OH2 8387   2.948   0.574   3.309 -0.0525  0.6378 -0.1269
 2794TIP3    H1 8388   2.868   0.568   3.361 -0.9529 -1.0231 -1.5848
 2794TIP3    H2 8389   2.994   0.491   3.325  0.6371  0.9512 -0.4392
 2795TIP3   OH2 8390   0.222   3.681   2.286 -0.1040 -0.0861 -0.1864
 2795TIP3    H1 8391   0.311   3.679   2.251  0.3964 -1.5966  1.0169
 2795TIP3    H2 8392   0.232   3.719   2.374 -0.2404 -2.2353  0.8202
 2796TIP3   OH2 8393   1.185   3.973   0.980  0.2117 -0.0053  0.1486
 2796TIP3    H1 8394   1.223   3.987   0.893 -0.7928 -0.3411 -0.3678
 2796TIP3    H2 8395   1.097   3.939   0.962 -0.5908  1.3422  1.2745
 2797TIP3   OH2 8396   6.143   1.553   4.048 -0.1392  0.0365 -0.6167
 2797TIP3    H1 8397   6.229   1.590   4.031  0.2899 -0.3796  0.5449
 2797TIP3    H2 8398   6.143   1.468   4.003 -0.3151  0.4616 -1.4342
 2798TIP3   OH2 8399   0.512   3.861   3.402  0.1132  0.4864 -0.3547
 2798TIP3    H1 8400   0.491   3.774   3.369  1.1998  0.1773 -0.2554
 2798TIP3    H2 8401   0.445   3.878   3.469  1.3929 -1.3967  1.5305
 2799TIP3   OH2 8402   4.493   2.258   4.435  0.4528 -0.0483  0.2014
 2799TIP3    H1 8403   4.505   2.170   4.401 -0.8505 -0.1007 -0.1940
 2799TIP3    H2 8404   4.569   2.273   4.491  0.2388 -1.7639  1.0082
 2800TIP3   OH2 8405   6.326   3.118   3.449 -0.2326  0.2214  0.0777
 2800TIP3    H1 8406   6.231   3.120   3.444 -0.1674  0.2545 -2.0284
 2800TIP3    H2 8407   6.347   3.026   3.464 -0.5923  0.2734  0.9462
 2801TIP3   OH2 8408   0.753   2.344   5.043  0.4802 -0.0849 -0.0632
 2801TIP3    H1 8409   0.694   2.419   5.045  2.0709  1.5200 -4.0848
 2801TIP3    H2 8410   0.839   2.380   5.062  0.8886 -1.5656  1.1434
 2802TIP3   OH2 8411   2.780   4.332   1.518 -0.3327  0.2777  0.4880
 2802TIP3    H1 8412   2.851   4.294   1.468 -0.2584 -0.5732  1.2220
 2802TIP3    H2 8413   2.729   4.382   1.454  1.9438  2.5103  0.2483
 2803TIP3   OH2 8414   4.717   0.699   2.048  0.5140  0.3973  0.0798
 2803TIP3    H1 8415   4.806   0.666   2.063  0.2675 -0.5571 -0.4517
 2803TIP3    H2 8416   4.660   0.632   2.087  0.0146  0.4834 -0.4938
 2804TIP3   OH2 8417   3.761   1.210   0.010  0.3911  0.0368 -0.3837
 2804TIP3    H1 8418   3.670   1.192   0.031  0.7203 -1.6341 -0.2494
 2804TIP3    H2 8419   3.768   1.306   0.011 -0.6553  0.1875  2.6019
 2805TIP3   OH2 8420   2.033   3.139   0.739  0.1170 -0.1401  0.2982
 2805TIP3    H1 8421   1.977   3.214   0.760 -0.7868 -1.1083  1.4924
 2805TIP3    H2 8422   2.115   3.157   0.784  1.6283  2.2516 -3.0499
 2806TIP3   OH2 8423   4.842   5.200   3.742 -0.4660  0.0364 -0.1928
 2806TIP3    H1 8424   4.859   5.121   3.793  0.6748  1.3543  1.5939
 2806TIP3    H2 8425   4.918   5.208   3.685 -0.4465 -0.0026 -0.1725
 2807TIP3   OH2 8426   0.871   1.734   0.240 -0.0020  0.2935  1.0702
 2807TIP3    H1 8427   0.826   1.789   0.304 -0.8421  0.6799  0.1754
 2807TIP3    H2 8428   0.836   1.762   0.156  2.0497  0.7223  0.3102
 2808TIP3   OH2 8429   0.389   0.163   4.583  0.0696  0.0845 -0.0798
 2808TIP3    H1 8430   0.355   0.202   4.663 -0.4099  3.7667 -1.8752
 2808TIP3    H2 8431   0.315   0.115   4.545  0.1436 -1.1912  1.3123
 2809TIP3   OH2 8432   1.071   0.459   4.355  0.4794  0.1504 -0.7752
 2809TIP3    H1 8433   0.978   0.459   4.332 -0.0075 -1.0834  1.0134
 2809TIP3    H2 8434   1.102   0.371   4.333  1.5281  0.8658 -2.3395
 2810TIP3   OH2 8435   6.140   5.411   2.696 -0.3795 -0.8354 -0.1092
 2810TIP3    H1 8436   6.136   5.349   2.769 -1.1469 -1.2822 -0.5202
 2810TIP3    H2 8437   6.053   5.451   2.694 -0.0421 -0.0848 -0.1541
 2811TIP3   OH2 8438   3.528   2.235   3.619 -0.6338 -0.0099 -0.3452
 2811TIP3    H1 8439   3.475   2.212   3.696  1.2029 -0.5928  0.8292
 2811TIP3    H2 8440   3.580   2.310   3.648  0.6820 -0.7558 -0.7085
 2812TIP3   OH2 8441   2.926   5.539   4.137 -0.3244 -0.2326 -0.0095
 2812TIP3    H1 8442   2.921   5.480   4.213 -0.9369 -0.8318 -0.5055
 2812TIP3    H2 8443   2.981   5.612   4.167  1.4439 -1.6076  0.2350
 2813TIP3   OH2 8444   3.566   0.279   1.892  0.3589 -0.5729  0.2128
 2813TIP3    H1 8445   3.645   0.261   1.841  1.4027 -1.0000  1.8991
 2813TIP3    H2 8446   3.533   0.362   1.857  2.4519  0.4523  0.4863
 2814TIP3   OH2 8447   3.012   5.614   2.250 -0.1894  0.0589  0.1097
 2814TIP3    H1 8448   2.997   5.690   2.306  0.6323  0.7488 -0.5776
 2814TIP3    H2 8449   3.098   5.582   2.275 -0.5540 -0.6983  0.4356
 2815TIP3   OH2 8450   4.763   1.916   0.573 -0.3592  0.3276  0.0358
 2815TIP3    H1 8451   4.725   1.859   0.639  0.3423 -0.3788 -0.1516
 2815TIP3    H2 8452   4.701   1.914   0.500  0.1929 -1.1453 -0.4327
 2816TIP3   OH2 8453   3.285   3.364   3.311  0.4108  0.1642 -0.3628
 2816TIP3    H1 8454   3.327   3.436   3.360  1.2267  0.0155 -0.8268
 2816TIP3    H2 8455   3.193   3.371   3.334  0.6248  0.7477  0.3836
 2817TIP3   OH2 8456   2.611   0.941   3.746 -0.2891 -0.6282  0.2817
 2817TIP3    H1 8457   2.569   0.914   3.827  0.4551 -0.4921  0.7167
 2817TIP3    H2 8458   2.698   0.902   3.749 -0.0308 -0.1069 -0.1602
 2818TIP3   OH2 8459   3.138   0.591   4.808 -0.1397 -0.4607  0.6805
 2818TIP3    H1 8460   3.069   0.525   4.819  0.3224 -1.1669 -0.5478
 2818TIP3    H2 8461   3.164   0.614   4.898 -2.3033  0.2077  1.1978
 2819TIP3   OH2 8462   5.220   0.465   0.768  0.7623  0.2187  0.1818
 2819TIP3    H1 8463   5.257   0.400   0.827 -0.7911 -0.6533  0.2509
 2819TIP3    H2 8464   5.285   0.473   0.698  1.3623 -0.7933  0.5970
 2820TIP3   OH2 8465   2.861  -0.021   1.464  0.1215 -0.9178  0.5170
 2820TIP3    H1 8466   2.841   0.068   1.434 -1.3803 -2.0096 -2.1025
 2820TIP3    H2 8467   2.848  -0.018   1.558  0.2992  1.6718  0.5306
 2821TIP3   OH2 8468   0.216   5.102   5.078  0.0154 -0.1851 -0.8783
 2821TIP3    H1 8469   0.281   5.050   5.031  0.5113 -2.0210  1.6356
 2821TIP3    H2 8470   0.253   5.112   5.166 -3.0684 -1.3481  0.6963
 2822TIP3   OH2 8471   0.693   0.220   2.831 -0.4617 -0.3607 -0.7503
 2822TIP3    H1 8472   0.690   0.142   2.886  0.7193  1.2818  1.8029
 2822TIP3    H2 8473   0.684   0.293   2.892 -0.1543  1.5678 -2.8771
 2823TIP3   OH2 8474   2.280   2.091   0.083  0.3669 -0.3851  0.0441
 2823TIP3    H1 8475   2.365   2.131   0.102 -0.0095 -0.1873  1.4512
 2823TIP3    H2 8476   2.217   2.149   0.125 -0.2504 -2.0154  1.5032
 2824TIP3   OH2 8477   0.433   3.405   0.064 -0.3703  0.1049  0.6206
 2824TIP3    H1 8478   0.349   3.447   0.085  0.4407  0.8492  2.6587
 2824TIP3    H2 8479   0.488   3.477   0.032 -0.0736 -0.1003  0.6657
 2825TIP3   OH2 8480   2.860   0.790   0.781  0.4285 -0.3729 -0.2028
 2825TIP3    H1 8481   2.813   0.802   0.863  1.8984 -1.4898  0.8684
 2825TIP3    H2 8482   2.860   0.877   0.740 -1.5804 -0.1145  0.2346
 2826TIP3   OH2 8483   5.821   4.339   1.923  0.1719  0.5571 -0.0417
 2826TIP3    H1 8484   5.833   4.433   1.934 -0.5932  0.6296  0.2371
 2826TIP3    H2 8485   5.878   4.315   1.850  3.9105  0.4187  2.6447
 2827TIP3   OH2 8486   4.128   5.912   0.093 -0.0189 -0.1582  0.5774
 2827TIP3    H1 8487   4.066   5.910   0.165 -1.3471 -1.2116 -0.5316
 2827TIP3    H2 8488   4.145   5.820   0.074  1.8679  0.1062  0.8124
 2828TIP3   OH2 8489   2.517   3.459   1.680 -0.1383  0.2611  0.0611
 2828TIP3    H1 8490   2.502   3.392   1.746 -0.9715  0.6264  0.2594
 2828TIP3    H2 8491   2.436   3.511   1.679 -0.6558 -0.4753 -2.0992
 2829TIP3   OH2 8492   4.566   0.947   1.739 -0.3196  0.3594 -0.6209
 2829TIP3    H1 8493   4.506   0.896   1.684  0.0821  0.1766 -0.8969
 2829TIP3    H2 8494   4.650   0.900   1.733  0.0064  0.9420 -0.7206
 2830TIP3   OH2 8495   3.713   0.451   2.729 -0.1077 -0.0029  0.7314
 2830TIP3    H1 8496   3.657   0.439   2.653  1.4688 -0.9479 -0.3269
 2830TIP3    H2 8497   3.662   0.416   2.802 -0.7917 -1.1223 -0.2503
 2831TIP3   OH2 8498   4.867   1.419   5.124 -0.0050  0.3823 -0.2200
 2831TIP3    H1 8499   4.905   1.368   5.196 -0.4400  0.7261  0.2646
 2831TIP3    H2 8500   4.772   1.406   5.133 -0.0262 -0.4773 -1.4172
 2832TIP3   OH2 8501   5.161   2.446   0.505 -0.8011  0.1367  0.1154
 2832TIP3    H1 8502   5.246   2.455   0.463 -1.4679  1.2815 -1.0706
 2832TIP3    H2 8503   5.178   2.395   0.585  1.1199  1.0265  0.3211
 2833TIP3   OH2 8504   5.425   2.026   4.275 -0.3550  0.2838  0.0150
 2833TIP3    H1 8505   5.472   1.997   4.197 -1.1157 -0.7266 -0.0832
 2833TIP3    H2 8506   5.366   2.095   4.243  0.1280  0.6551 -0.0894
 2834TIP3   OH2 8507   1.608   0.099   4.227 -0.9351 -0.0679  0.2630
 2834TIP3    H1 8508   1.618   0.176   4.283  1.7253 -0.5781  0.6494
 2834TIP3    H2 8509   1.647   0.028   4.278  0.9825 -0.6819 -1.9102
 2835TIP3   OH2 8510   5.301   5.360   4.753  0.2320 -0.2909 -0.0238
 2835TIP3    H1 8511   5.267   5.334   4.839  2.1232 -1.3896  0.4573
 2835TIP3    H2 8512   5.265   5.296   4.692 -0.3438 -0.0775  0.0792
 2836TIP3   OH2 8513   3.985   2.572   3.804  0.2755 -0.0442 -0.2570
 2836TIP3    H1 8514   3.995   2.477   3.806 -0.3125 -0.1332  2.4706
 2836TIP3    H2 8515   3.897   2.586   3.770 -0.3225 -0.6076  0.9826
 2837TIP3   OH2 8516   1.300   2.706   0.391 -0.3415 -0.4681 -0.3447
 2837TIP3    H1 8517   1.386   2.708   0.350  0.7462  0.5636  1.8422
 2837TIP3    H2 8518   1.252   2.778   0.351  0.3976  0.0020 -0.3905
 2838TIP3   OH2 8519   3.377   4.338   3.004  0.1063  0.1776 -0.7149
 2838TIP3    H1 8520   3.316   4.294   3.063  0.5154  0.2379 -0.2366
 2838TIP3    H2 8521   3.348   4.429   3.003  0.7841  0.4224  0.3197
 2839TIP3   OH2 8522   4.012   1.239   4.412  0.3226  0.6537  0.2739
 2839TIP3    H1 8523   3.972   1.229   4.499 -0.9357  0.1521 -0.3425
 2839TIP3    H2 8524   4.087   1.296   4.427 -0.5582  1.5543  1.5051
 2840TIP3   OH2 8525   3.780   3.656   4.363 -0.0410  0.1518 -0.0506
 2840TIP3    H1 8526   3.855   3.714   4.351  0.2845 -0.3489 -0.4924
 2840TIP3    H2 8527   3.717   3.708   4.414  0.4770  0.6812  0.0594
 2841TIP3   OH2 8528   5.944   2.189   4.233  0.1784  0.0049 -0.1464
 2841TIP3    H1 8529   5.945   2.093   4.238 -1.3956 -0.0173  0.0405
 2841TIP3    H2 8530   5.864   2.210   4.185 -0.4948  1.2917  1.4639
 2842TIP3   OH2 8531   4.873   1.496   4.668  0.0942 -0.2101  0.0232
 2842TIP3    H1 8532   4.936   1.481   4.739 -1.5705 -1.0883  1.3940
 2842TIP3    H2 8533   4.852   1.589   4.674  0.9516  0.0106 -0.2085
 2843TIP3   OH2 8534   3.122   5.137   1.253  0.1086  0.3402 -0.5976
 2843TIP3    H1 8535   3.096   5.050   1.283  1.0643  0.4328  0.5879
 2843TIP3    H2 8536   3.109   5.135   1.158 -2.5504 -0.1447 -0.3172
 2844TIP3   OH2 8537   3.837   3.252   0.772  0.0943 -0.3999 -0.0747
 2844TIP3    H1 8538   3.855   3.294   0.688 -3.9238 -2.0655 -2.0135
 2844TIP3    H2 8539   3.768   3.188   0.754 -1.3238 -0.6149  4.5530
 2845TIP3   OH2 8540   6.056   3.732   4.064 -0.2782 -0.4515 -0.1277
 2845TIP3    H1 8541   6.111   3.721   3.987  0.1238  0.2048  0.0572
 2845TIP3    H2 8542   5.967   3.717   4.032 -0.3120  1.6158 -1.1521
 2846TIP3   OH2 8543   1.512   1.861   2.754  0.0961 -0.2712  0.0850
 2846TIP3    H1 8544   1.432   1.886   2.708  1.1811  1.9241 -0.7194
 2846TIP3    H2 8545   1.581   1.873   2.690  1.3352 -0.0034  1.4268
 2847TIP3   OH2 8546   0.877   1.677   3.734  0.0466 -0.3815 -0.1836
 2847TIP3    H1 8547   0.953   1.735   3.732  0.4548 -0.8149  1.1949
 2847TIP3    H2 8548   0.863   1.660   3.827 -1.8268 -0.2149 -0.3957
 2848TIP3   OH2 8549   1.365   1.152   3.993  0.3216 -0.3191 -0.0872
 2848TIP3    H1 8550   1.302   1.109   3.935 -0.5667 -0.2782  0.8223
 2848TIP3    H2 8551   1.444   1.098   3.986  0.4757  0.0727 -1.8433
 2849TIP3   OH2 8552   3.248   1.838   0.400 -0.1120 -0.1447  0.6007
 2849TIP3    H1 8553   3.169   1.802   0.359 -1.7478  1.8628  1.7804
 2849TIP3    H2 8554   3.311   1.845   0.329 -1.8538  0.5306 -0.9685
 2850TIP3   OH2 8555   6.317   0.199   0.131 -0.3000 -0.6801 -0.4840
 2850TIP3    H1 8556   6.332   0.244   0.049 -0.1668 -0.4784 -0.3496
 2850TIP3    H2 8557   6.299   0.108   0.106 -0.8949 -0.4852 -0.7732
 2851TIP3   OH2 8558   1.418   1.136   0.705 -0.5152  0.0708 -0.3017
 2851TIP3    H1 8559   1.491   1.138   0.643 -0.6464  0.5501 -0.4470
 2851TIP3    H2 8560   1.449   1.083   0.778  0.5781  1.5654  0.3794
 2852TIP3   OH2 8561   3.969   1.318   0.638  0.4861 -0.6844 -0.0661
 2852TIP3    H1 8562   3.908   1.281   0.573  0.2052 -1.5359  0.6539
 2852TIP3    H2 8563   4.047   1.264   0.630  0.1566 -1.3129  0.8426
 2853TIP3   OH2 8564   6.007   3.069   2.204  0.0508 -0.1661 -0.4274
 2853TIP3    H1 8565   5.989   2.975   2.195  0.1002 -0.0196 -2.9368
 2853TIP3    H2 8566   5.922   3.111   2.191  0.2609  0.1702 -0.7352
 2854TIP3   OH2 8567   0.346   0.553   2.856 -0.0000 -0.1875  0.0229
 2854TIP3    H1 8568   0.386   0.591   2.778  0.8211 -0.2379  0.4118
 2854TIP3    H2 8569   0.325   0.463   2.831  0.6455 -0.3340 -0.0223
 2855TIP3   OH2 8570   4.250   2.572   1.160 -0.2652  0.4467 -0.1072
 2855TIP3    H1 8571   4.221   2.649   1.112  1.2301  0.3762 -1.2273
 2855TIP3    H2 8572   4.345   2.571   1.148 -0.1636 -1.1363  0.5282
 2856TIP3   OH2 8573   5.568   3.167   3.971  0.0893 -0.0108 -0.0369
 2856TIP3    H1 8574   5.578   3.152   4.064 -0.6817 -0.6556 -0.0491
 2856TIP3    H2 8575   5.598   3.086   3.929  1.4569  0.6553 -0.4259
 2857TIP3   OH2 8576   4.688   3.089   4.107  0.3162  0.3964  0.1653
 2857TIP3    H1 8577   4.700   2.996   4.088 -1.8209  0.2154 -0.4886
 2857TIP3    H2 8578   4.734   3.102   4.190 -0.1634 -1.4654  0.7746
 2858TIP3   OH2 8579   5.095   2.914   1.681 -0.3236  0.0836 -0.3507
 2858TIP3    H1 8580   5.136   2.992   1.718 -0.8446 -0.3113  1.1759
 2858TIP3    H2 8581   5.109   2.846   1.748 -1.0376 -0.7645 -1.0382
 2859TIP3   OH2 8582   0.159   1.437   0.657  0.0653  0.2318 -0.4758
 2859TIP3    H1 8583   0.130   1.510   0.601  0.9548  0.0050 -1.2568
 2859TIP3    H2 8584   0.225   1.392   0.605  0.9201  0.0011  0.7759
 2860TIP3   OH2 8585   2.854   2.410   1.381  1.0314  0.4026  0.1232
 2860TIP3    H1 8586   2.865   2.505   1.383 -0.8627  0.6545  0.1564
 2860TIP3    H2 8587   2.806   2.390   1.461 -1.3976 -0.1455 -1.3811
 2861TIP3   OH2 8588   1.589   1.833   3.370  0.4712  0.0421 -0.3758
 2861TIP3    H1 8589   1.632   1.918   3.355 -0.2476  0.5265  0.2643
 2861TIP3    H2 8590   1.613   1.809   3.460 -2.3370  1.4029  0.8520
 2862TIP3   OH2 8591   2.895   2.728   3.389  0.2313 -0.1159 -0.0091
 2862TIP3    H1 8592   2.946   2.712   3.310  0.2073 -3.3422  0.5108
 2862TIP3    H2 8593   2.959   2.764   3.451  0.9416 -0.3667 -0.5835
 2863TIP3   OH2 8594   0.712   2.797   0.569  0.0755 -1.0196  0.0351
 2863TIP3    H1 8595   0.701   2.766   0.659  1.0936 -0.5746  0.3283
 2863TIP3    H2 8596   0.725   2.891   0.577 -1.3774 -0.7196 -0.7230
 2864TIP3   OH2 8597   5.530   5.111   2.682 -0.3979  0.3168 -0.1495
 2864TIP3    H1 8598   5.507   5.173   2.752 -0.7204  0.5411 -0.4487
 2864TIP3    H2 8599   5.472   5.036   2.696 -1.1432  0.7621 -0.7335
 2865TIP3   OH2 8600   6.066   5.236   2.503 -0.1057  0.1995  0.0852
 2865TIP3    H1 8601   6.138   5.213   2.444 -0.0539 -1.3102  0.7099
 2865TIP3    H2 8602   6.107   5.292   2.569  0.3899 -0.2174  0.1384
 2866TIP3   OH2 8603   1.877   1.303   1.656 -0.2246 -0.1658  0.6153
 2866TIP3    H1 8604   1.796   1.302   1.605 -0.1322  2.1588  0.3157
 2866TIP3    H2 8605   1.848   1.321   1.746 -0.1901 -1.8084  0.9875
 2867TIP3   OH2 8606   3.768   4.313   5.113  0.4136  0.0323  0.3983
 2867TIP3    H1 8607   3.791   4.359   5.194  0.4778  1.2339 -0.2841
 2867TIP3    H2 8608   3.681   4.276   5.131  0.0877  0.9359  0.7706
 2868TIP3   OH2 8609   0.322   5.274   2.395 -0.1210 -0.0303 -0.4443
 2868TIP3    H1 8610   0.318   5.207   2.464 -1.6090  0.7204  0.2537
 2868TIP3    H2 8611   0.340   5.225   2.315  0.0011 -1.1289  0.2305
 2869TIP3   OH2 8612   1.809   5.385   1.624 -0.4597  0.7081 -0.6963
 2869TIP3    H1 8613   1.854   5.467   1.604  0.8210  0.4703  0.9378
 2869TIP3    H2 8614   1.877   5.318   1.616 -0.8329  0.1584  0.5181
 2870TIP3   OH2 8615   4.340   0.736   0.854  0.2674  0.6482  0.9612
 2870TIP3    H1 8616   4.351   0.825   0.822  2.3798  0.5421  1.2053
 2870TIP3    H2 8617   4.260   0.738   0.906 -0.5660  1.9955 -0.2983
 2871TIP3   OH2 8618   2.851   4.697   2.352  0.1265 -0.2541  0.0552
 2871TIP3    H1 8619   2.773   4.703   2.297  1.3961 -0.6152 -1.8808
 2871TIP3    H2 8620   2.877   4.788   2.366  0.2720 -0.1837 -0.6651
 2872TIP3   OH2 8621   5.328   5.823   2.836  0.0117 -0.5191  0.1836
 2872TIP3    H1 8622   5.262   5.848   2.772  1.0763 -1.1542 -1.2088
 2872TIP3    H2 8623   5.385   5.763   2.789  0.9241 -0.8787  1.6946
 2873TIP3   OH2 8624   2.563   1.042   4.075  0.3120 -0.2774 -0.3829
 2873TIP3    H1 8625   2.514   0.968   4.040 -0.4437  0.2462 -0.4605
 2873TIP3    H2 8626   2.580   1.019   4.166  0.0003 -0.5094 -0.3828
 2874TIP3   OH2 8627   1.532   1.075   0.229 -0.2973  0.3547 -0.0175
 2874TIP3    H1 8628   1.482   1.156   0.232 -2.4295 -0.8789 -0.4025
 2874TIP3    H2 8629   1.534   1.045   0.320 -2.0985 -0.6111 -0.2569
 2875TIP3   OH2 8630   6.368   1.448   0.195  0.6609 -0.0955  0.6103
 2875TIP3    H1 8631   6.389   1.444   0.288  2.2386 -0.5526  0.2518
 2875TIP3    H2 8632   6.322   1.532   0.184  2.7717  1.2195  1.3669
 2876TIP3   OH2 8633   5.484   2.082   5.131  0.4448  0.0990 -0.8741
 2876TIP3    H1 8634   5.476   2.114   5.041  3.6916 -0.0722 -1.3408
 2876TIP3    H2 8635   5.526   1.997   5.123  0.5636 -0.0332  0.7831
 2877TIP3   OH2 8636   5.788   4.971   4.273 -0.0441  0.0767  0.0112
 2877TIP3    H1 8637   5.785   5.043   4.336 -0.3654 -0.8046  1.0342
 2877TIP3    H2 8638   5.869   4.985   4.224 -0.2272  1.2634  0.0248
 2878TIP3   OH2 8639   0.709   1.616   4.120 -0.2254  0.1378 -0.0521
 2878TIP3    H1 8640   0.782   1.562   4.088 -0.2137  1.4614 -2.4911
 2878TIP3    H2 8641   0.751   1.691   4.161 -0.2372 -0.0805  0.3651
 2879TIP3   OH2 8642   1.548   4.413   0.597  0.2381  0.5943  0.3361
 2879TIP3    H1 8643   1.472   4.417   0.655  0.6128 -0.5435  0.9422
 2879TIP3    H2 8644   1.552   4.321   0.571  1.1181  0.7505 -0.0956
 2880TIP3   OH2 8645   4.284   0.375   3.203  0.3639 -0.0946  0.0652
 2880TIP3    H1 8646   4.289   0.463   3.240 -1.3594  0.5589 -1.1631
 2880TIP3    H2 8647   4.282   0.388   3.109 -2.3867 -1.2136 -0.1363
 2881TIP3   OH2 8648   1.774   0.804   4.612  0.0637  0.2027 -0.7535
 2881TIP3    H1 8649   1.721   0.757   4.676  0.4678  2.3024  1.2385
 2881TIP3    H2 8650   1.834   0.737   4.577  0.8213 -0.7675  2.1498
 2882TIP3   OH2 8651   1.208   1.330   4.678 -0.4298 -0.3214 -0.4950
 2882TIP3    H1 8652   1.141   1.283   4.728 -0.7317 -0.9206 -1.4287
 2882TIP3    H2 8653   1.213   1.282   4.595  0.7725  0.0444 -0.6479
 2883TIP3   OH2 8654   5.682   5.222   4.750 -0.0079  0.5701  0.4693
 2883TIP3    H1 8655   5.717   5.210   4.662 -1.3832  1.5003 -0.2667
 2883TIP3    H2 8656   5.654   5.135   4.778 -1.1192  0.5094 -0.7497
 2884TIP3   OH2 8657   4.106   2.777   2.730  0.6032  0.4421  0.1744
 2884TIP3    H1 8658   4.191   2.787   2.773  0.3672 -2.1821  1.4721
 2884TIP3    H2 8659   4.043   2.773   2.802 -0.5591  1.6040 -0.7315
 2885TIP3   OH2 8660   4.076   3.341   4.135 -0.6166  0.2299  0.6262
 2885TIP3    H1 8661   4.079   3.320   4.229 -0.9824 -1.3445  0.3095
 2885TIP3    H2 8662   4.141   3.283   4.096 -1.5081 -0.1798 -0.2745
 2886TIP3   OH2 8663   5.202   4.883   0.211 -0.4718  0.7352  0.1131
 2886TIP3    H1 8664   5.242   4.796   0.216  0.0052  0.9820  0.7022
 2886TIP3    H2 8665   5.234   4.919   0.128 -1.8610 -0.2082 -0.8793
 2887TIP3   OH2 8666   4.242   5.543   4.462 -0.2597  0.3754  0.3243
 2887TIP3    H1 8667   4.307   5.539   4.532 -0.5623  0.1371  0.5960
 2887TIP3    H2 8668   4.262   5.468   4.407  0.6419  1.1579 -0.4427
 2888TIP3   OH2 8669   4.782   5.237   4.757 -0.0022  0.3431  0.6923
 2888TIP3    H1 8670   4.799   5.273   4.844 -1.8034 -1.4037  1.8640
 2888TIP3    H2 8671   4.704   5.183   4.769 -1.0040  0.9812 -2.3022
 2889TIP3   OH2 8672   1.968   1.821   3.190  0.3592  0.1530 -0.2640
 2889TIP3    H1 8673   1.924   1.744   3.226 -0.5083  0.2757 -1.0227
 2889TIP3    H2 8674   2.061   1.800   3.194  0.0840 -1.9150 -2.5232
 2890TIP3   OH2 8675   3.482   0.043   2.886 -0.3590  0.2456  0.1535
 2890TIP3    H1 8676   3.449   0.001   2.966 -1.4084 -1.5844 -1.1604
 2890TIP3    H2 8677   3.506  -0.030   2.829  1.1321  1.5153 -0.9223
 2891TIP3   OH2 8678   4.298   1.921   0.243  0.1600 -0.3727 -0.0727
 2891TIP3    H1 8679   4.240   1.915   0.319 -0.4242  1.1753 -0.3599
 2891TIP3    H2 8680   4.254   1.871   0.175  0.5042 -1.4561  0.4809
 2892TIP3   OH2 8681   4.539   4.962   0.583  0.1660  0.3656 -0.3509
 2892TIP3    H1 8682   4.458   5.009   0.564 -0.0030  0.2850  0.1455
 2892TIP3    H2 8683   4.600   4.990   0.515 -0.6653 -0.5622 -1.5066
 2893TIP3   OH2 8684   0.999   3.930   3.221 -0.1872  0.2260  0.1754
 2893TIP3    H1 8685   0.934   3.900   3.158 -0.1061  1.3663 -0.4690
 2893TIP3    H2 8686   1.076   3.877   3.203 -0.9084 -1.1706  0.9751
 2894TIP3   OH2 8687   0.875   0.779   0.640 -0.2365  0.0082 -0.0333
 2894TIP3    H1 8688   0.871   0.719   0.714  2.7500  0.5908  0.7209
 2894TIP3    H2 8689   0.926   0.854   0.672 -0.0232  0.8849 -2.2556
 2895TIP3   OH2 8690   3.295   4.892   2.999 -0.4529  0.1728 -0.0695
 2895TIP3    H1 8691   3.286   4.798   2.982 -0.9760  0.2659 -0.3282
 2895TIP3    H2 8692   3.242   4.934   2.932 -0.3088  0.6542  0.1105
 2896TIP3   OH2 8693   0.058   2.103   1.312  0.3983  0.3051 -0.2995
 2896TIP3    H1 8694   0.018   2.024   1.349  0.1870  1.4174  2.0537
 2896TIP3    H2 8695  -0.015   2.151   1.274  0.2415  0.1982 -0.1366
 2897TIP3   OH2 8696   1.629   4.866   2.868  0.6528  0.1214 -0.6410
 2897TIP3    H1 8697   1.606   4.932   2.802  0.1682  0.9112  0.2785
 2897TIP3    H2 8698   1.652   4.788   2.818  0.3477  0.7164 -1.7377
 2898TIP3   OH2 8699   2.063   5.756   3.823  0.6858  0.4628  0.2719
 2898TIP3    H1 8700   1.976   5.739   3.786  0.0304 -0.8526  2.2625
 2898TIP3    H2 8701   2.047   5.768   3.917  2.6878 -0.1608  0.7306
 2899TIP3   OH2 8702   1.931   0.013   3.006 -0.2481  0.2062 -0.0211
 2899TIP3    H1 8703   1.992   0.086   3.014 -2.2766  1.9127  0.6653
 2899TIP3    H2 8704   1.891   0.025   2.920  0.4211 -0.9723 -0.5188
 2900TIP3   OH2 8705   1.020   5.124   1.779 -0.3581 -0.1560  0.4619
 2900TIP3    H1 8706   1.021   5.093   1.870 -2.0381 -0.1324  0.5164
 2900TIP3    H2 8707   1.108   5.159   1.765  0.9433 -2.8514  1.0991
 2901TIP3   OH2 8708   1.033   4.138   3.870  0.1057 -0.2882 -0.7930
 2901TIP3    H1 8709   0.985   4.075   3.818 -3.7104  0.7744  1.0859
 2901TIP3    H2 8710   1.035   4.101   3.958 -0.1747  1.1656 -0.1391
 2902TIP3   OH2 8711   3.657   0.348   0.554  0.2638  0.0603 -0.0035
 2902TIP3    H1 8712   3.638   0.261   0.521 -1.0553  0.7543 -1.1931
 2902TIP3    H2 8713   3.674   0.335   0.647  2.3435 -1.7235 -0.5652
 2903TIP3   OH2 8714   1.740   4.504   0.068 -0.0519  0.2368 -0.4307
 2903TIP3    H1 8715   1.694   4.431   0.026 -0.1736  0.8810 -1.4492
 2903TIP3    H2 8716   1.681   4.578   0.058  1.1831  1.0773 -1.7509
 2904TIP3   OH2 8717   3.894   3.762   2.767  0.1160  0.1305 -0.1170
 2904TIP3    H1 8718   3.975   3.730   2.806 -0.3749 -0.8386  0.1440
 2904TIP3    H2 8719   3.834   3.769   2.841 -1.0685 -2.4614 -0.7005
 2905TIP3   OH2 8720   1.310   3.818   4.557 -0.4138 -0.0181 -0.5144
 2905TIP3    H1 8721   1.400   3.789   4.541  0.5418  2.0797  0.6686
 2905TIP3    H2 8722   1.292   3.789   4.647  0.5601  2.8234  0.6911
 2906TIP3   OH2 8723   5.745   2.862   1.304 -0.3013 -0.7160 -0.5800
 2906TIP3    H1 8724   5.692   2.851   1.226  1.2352  0.7319 -1.8931
 2906TIP3    H2 8725   5.699   2.927   1.357 -1.1160 -1.3739 -0.4675
 2907TIP3   OH2 8726   3.990   5.697   2.995 -0.5140  0.2453  0.5401
 2907TIP3    H1 8727   4.057   5.749   2.950  0.0582 -0.6062  0.4046
 2907TIP3    H2 8728   4.023   5.687   3.084 -1.8363  2.2760  1.3434
 2908TIP3   OH2 8729   0.171   5.886   3.204  0.0334  0.4264  0.0895
 2908TIP3    H1 8730   0.123   5.874   3.286 -0.2970 -2.0063 -0.3943
 2908TIP3    H2 8731   0.263   5.877   3.229 -0.1235 -2.5314 -0.0072
 2909TIP3   OH2 8732   1.415   4.698   1.026 -0.0223  0.0061 -0.3997
 2909TIP3    H1 8733   1.495   4.730   1.069 -0.3193 -0.7505  0.7503
 2909TIP3    H2 8734   1.438   4.611   0.993 -0.6318 -0.6302  0.7947
 2910TIP3   OH2 8735   0.254   1.086   2.572 -0.1044 -0.4852 -0.5534
 2910TIP3    H1 8736   0.194   1.028   2.620  0.7655 -0.4698  0.5892
 2910TIP3    H2 8737   0.273   1.156   2.633  1.5494 -0.8059 -0.6685
 2911TIP3   OH2 8738   1.194   4.312   1.316  0.1461  0.1932  0.6319
 2911TIP3    H1 8739   1.235   4.398   1.330  0.6090  0.3450 -1.3631
 2911TIP3    H2 8740   1.108   4.320   1.356  1.4665  0.3357  3.6982
 2912TIP3   OH2 8741   2.809   1.703   0.442 -0.4759  0.3867  0.2520
 2912TIP3    H1 8742   2.880   1.650   0.477 -1.5842 -0.7446  0.8644
 2912TIP3    H2 8743   2.853   1.769   0.388  1.0151 -0.3624  0.4925
 2913TIP3   OH2 8744  -0.019   5.329   1.979 -0.6451 -0.3271 -0.1356
 2913TIP3    H1 8745  -0.048   5.416   1.951 -1.2318 -0.7637 -0.9240
 2913TIP3    H2 8746   0.075   5.329   1.961 -0.4136  0.5530  0.9870
 2914TIP3   OH2 8747   4.343   5.082   1.467 -0.5406 -0.5382  0.5228
 2914TIP3    H1 8748   4.268   5.101   1.410 -0.5914  3.6863  1.7076
 2914TIP3    H2 8749   4.416   5.127   1.426  0.4555 -1.1811  1.5345
 2915TIP3   OH2 8750   2.040   1.506   2.152  0.5183  0.5395  0.5282
 2915TIP3    H1 8751   1.983   1.579   2.176  0.0572 -0.1069  1.4655
 2915TIP3    H2 8752   2.109   1.507   2.219  1.1466  0.8049 -0.1120
 2916TIP3   OH2 8753   3.532   4.588   2.663  0.0523  0.3060 -0.4743
 2916TIP3    H1 8754   3.582   4.665   2.689 -0.0160  0.1193  0.2395
 2916TIP3    H2 8755   3.549   4.524   2.732 -0.1137 -0.2220 -0.9133
 2917TIP3   OH2 8756   3.763   4.824   2.375  0.5852  0.4072 -0.4128
 2917TIP3    H1 8757   3.836   4.809   2.315 -0.5007 -2.0271 -1.2481
 2917TIP3    H2 8758   3.780   4.766   2.449 -0.0438  0.5066 -0.1837
 2918TIP3   OH2 8759   5.662   3.027   1.520 -0.0923 -0.2450  0.3058
 2918TIP3    H1 8760   5.633   2.994   1.605 -0.8694  1.4564  0.7250
 2918TIP3    H2 8761   5.736   3.085   1.540 -1.3878  1.5646  0.0474
 2919TIP3   OH2 8762   3.041   3.989   5.065  0.0028 -0.0751  0.3292
 2919TIP3    H1 8763   2.960   3.958   5.024 -0.4233  0.9227  0.3803
 2919TIP3    H2 8764   3.076   4.053   5.003 -0.5083  1.2535  1.3707
 2920TIP3   OH2 8765   0.378   0.198   3.495 -0.3471  0.3242  0.0208
 2920TIP3    H1 8766   0.366   0.291   3.515  1.4749  0.7616 -0.6786
 2920TIP3    H2 8767   0.406   0.197   3.403  1.1522 -0.7387  0.4492
 2921TIP3   OH2 8768   3.822   4.210   3.269  0.5760  0.0486  0.4194
 2921TIP3    H1 8769   3.829   4.126   3.226 -2.7809 -0.2511  0.1771
 2921TIP3    H2 8770   3.732   4.238   3.254  0.8600  2.5756  2.5011
 2922TIP3   OH2 8771   5.534   0.154   0.550 -0.1745 -0.1213 -0.0371
 2922TIP3    H1 8772   5.441   0.154   0.529 -0.1406 -0.0896 -0.1930
 2922TIP3    H2 8773   5.556   0.246   0.564 -0.1225 -0.1066 -0.2079
 2923TIP3   OH2 8774   0.442   5.512   5.010 -0.1661  0.0089  0.3444
 2923TIP3    H1 8775   0.412   5.468   5.090  2.4797  0.2916  1.5917
 2923TIP3    H2 8776   0.502   5.580   5.041  0.1679  0.7854 -1.8549
 2924TIP3   OH2 8777   5.680   4.943   4.694  0.6057 -0.7015 -0.1678
 2924TIP3    H1 8778   5.774   4.943   4.712  0.5009 -2.9675  0.6341
 2924TIP3    H2 8779   5.652   4.852   4.707 -2.0511  0.2201  1.5011
 2925TIP3   OH2 8780   5.731   3.901   1.748 -0.2094  0.0731  0.4883
 2925TIP3    H1 8781   5.653   3.864   1.789  0.4973 -1.4268  0.5622
 2925TIP3    H2 8782   5.705   3.916   1.657 -0.8873  0.5626  0.7575
 2926TIP3   OH2 8783   5.050   2.757   3.761  0.2522 -0.6580 -0.3364
 2926TIP3    H1 8784   5.029   2.841   3.803  0.2530 -0.7830 -0.0872
 2926TIP3    H2 8785   5.057   2.695   3.833 -2.2007 -1.4134 -0.6435
 2927TIP3   OH2 8786   5.577   2.906   4.952 -0.6526 -0.7224 -0.2258
 2927TIP3    H1 8787   5.496   2.860   4.974 -0.4213 -1.1998 -0.3502
 2927TIP3    H2 8788   5.636   2.837   4.924 -0.4990 -0.2740 -1.0324
 2928TIP3   OH2 8789   0.851   5.026   4.862  0.3583  0.6700  0.0916
 2928TIP3    H1 8790   0.898   5.109   4.868  2.1160 -0.2473 -0.2720
 2928TIP3    H2 8791   0.817   5.024   4.772  0.5956  0.8618 -0.0022
 2929TIP3   OH2 8792   2.399   5.940   2.622 -0.0490  0.0877  0.0171
 2929TIP3    H1 8793   2.489   5.937   2.657  0.0331  0.7352 -0.1227
 2929TIP3    H2 8794   2.354   5.868   2.666  0.3079  0.3039  0.7646
 2930TIP3   OH2 8795   0.582   1.419   4.301 -0.5887 -0.5022  0.2143
 2930TIP3    H1 8796   0.638   1.458   4.234 -0.3835  0.6725  1.0419
 2930TIP3    H2 8797   0.531   1.492   4.335 -2.4433 -1.4909 -0.3042
 2931TIP3   OH2 8798   2.431   3.342   4.335 -0.2769 -0.1660  1.0486
 2931TIP3    H1 8799   2.350   3.312   4.377  0.7140 -1.5584  2.0683
 2931TIP3    H2 8800   2.432   3.296   4.251  0.2672 -1.5480  1.7726
 2932TIP3   OH2 8801   2.460   4.481   3.577 -0.2318 -0.2409  0.1300
 2932TIP3    H1 8802   2.528   4.480   3.509 -0.0003  1.8838  0.2695
 2932TIP3    H2 8803   2.428   4.391   3.579  2.6786 -1.3875  0.1947
 2933TIP3   OH2 8804   0.813   4.172   3.119  0.1703 -0.4290 -0.4086
 2933TIP3    H1 8805   0.753   4.114   3.166  0.3609 -0.1683  0.1701
 2933TIP3    H2 8806   0.777   4.178   3.031 -1.3203  0.6403  0.2167
 2934TIP3   OH2 8807   3.789   2.638   4.483  0.0356 -0.5039  0.3297
 2934TIP3    H1 8808   3.763   2.657   4.393  0.3344  0.0278  0.3505
 2934TIP3    H2 8809   3.706   2.627   4.530 -0.1304 -0.3623  0.0770
 2935TIP3   OH2 8810   6.048   5.096   3.201 -0.4205 -0.5176 -0.1815
 2935TIP3    H1 8811   5.998   5.129   3.127 -1.0048  0.0596  0.4478
 2935TIP3    H2 8812   6.128   5.060   3.163 -1.0701 -0.9566 -1.1522
 2936TIP3   OH2 8813   1.260   5.146   0.911  0.3605 -0.0809 -0.1937
 2936TIP3    H1 8814   1.330   5.169   0.971  1.2577 -2.7375 -0.0874
 2936TIP3    H2 8815   1.204   5.224   0.908  2.0664  1.2982  1.4738
 2937TIP3   OH2 8816   0.160   2.743   1.772 -0.2365  0.5333  0.0468
 2937TIP3    H1 8817   0.207   2.703   1.699 -0.5283  0.6599 -0.2136
 2937TIP3    H2 8818   0.178   2.837   1.764 -0.0450  0.5194  0.3004
 2938TIP3   OH2 8819   4.271   1.300   1.212  0.2164 -0.5031 -0.2372
 2938TIP3    H1 8820   4.359   1.265   1.194  0.2500 -0.2285 -0.6253
 2938TIP3    H2 8821   4.240   1.249   1.287 -0.3946 -2.5220 -1.7631
 2939TIP3   OH2 8822   4.301   1.668   5.126  0.2893  0.1717 -0.5440
 2939TIP3    H1 8823   4.290   1.632   5.038 -1.5303 -0.2741 -0.1835
 2939TIP3    H2 8824   4.214   1.660   5.166  1.3300 -0.7821  1.7230
 2940TIP3   OH2 8825   5.363   0.185   2.753  0.1159 -0.3742 -0.8403
 2940TIP3    H1 8826   5.324   0.253   2.807  0.1218 -0.1962 -1.0581
 2940TIP3    H2 8827   5.415   0.232   2.688  0.2768 -0.5930 -0.8713
 2941TIP3   OH2 8828   4.195   0.825   0.534  0.5385  0.1627  0.1587
 2941TIP3    H1 8829   4.156   0.794   0.616  0.9897  0.0294  0.3254
 2941TIP3    H2 8830   4.136   0.792   0.466  1.0352 -1.1718  0.3262
 2942TIP3   OH2 8831   3.615   3.292   2.215 -0.0801  0.1160 -0.1544
 2942TIP3    H1 8832   3.559   3.275   2.291  0.6801  2.0649  0.9047
 2942TIP3    H2 8833   3.583   3.376   2.181  0.3238 -0.1884 -1.3143
 2943TIP3   OH2 8834   3.483   3.872   1.852  0.4692  0.0258 -0.3836
 2943TIP3    H1 8835   3.569   3.830   1.855  1.0488  1.1317 -0.9912
 2943TIP3    H2 8836   3.487   3.929   1.775  0.4677  2.8059  1.5558
 2944TIP3   OH2 8837   4.901   5.620   1.458 -0.4372 -0.0471  0.1944
 2944TIP3    H1 8838   4.862   5.699   1.495  0.6308  0.2506  0.7538
 2944TIP3    H2 8839   4.970   5.596   1.521  1.0055  0.0912 -1.2645
 2945TIP3   OH2 8840   1.175   1.709   4.293 -0.0339  0.4673 -0.0818
 2945TIP3    H1 8841   1.172   1.626   4.340  1.7867 -0.0852 -0.8747
 2945TIP3    H2 8842   1.088   1.717   4.254  0.0230 -1.5352 -0.7476
 2946TIP3   OH2 8843   0.343   3.861   3.651  0.7374 -0.0430  0.1753
 2946TIP3    H1 8844   0.337   3.925   3.722  1.0245 -0.2063  0.3444
 2946TIP3    H2 8845   0.357   3.777   3.694  2.1318  0.0211 -0.1170
 2947TIP3   OH2 8846   4.288   0.341   2.308 -0.0157 -0.3689 -0.5890
 2947TIP3    H1 8847   4.333   0.418   2.341  0.7354 -1.0752  0.0836
 2947TIP3    H2 8848   4.222   0.321   2.374  0.8516 -1.2167  0.0604
 2948TIP3   OH2 8849   3.510   2.486   2.469  0.0077  0.2897  0.2238
 2948TIP3    H1 8850   3.431   2.504   2.521 -0.3185 -0.6194  0.0487
 2948TIP3    H2 8851   3.555   2.416   2.517  0.6312  0.6810  0.2301
 2949TIP3   OH2 8852   5.428   3.861   2.080  0.1997  0.0151  0.5307
 2949TIP3    H1 8853   5.350   3.830   2.033  1.2205 -0.4623 -0.9328
 2949TIP3    H2 8854   5.501   3.818   2.035  1.3403  0.8001  1.5788
 2950TIP3   OH2 8855   5.623   4.288   4.022 -0.4220 -0.1798 -0.1880
 2950TIP3    H1 8856   5.576   4.290   4.105  1.5684  1.4578  0.9753
 2950TIP3    H2 8857   5.574   4.225   3.969 -2.4111 -0.4369  1.7929
 2951TIP3   OH2 8858   6.034   4.354   3.865  0.4849  0.1740 -0.2309
 2951TIP3    H1 8859   5.958   4.311   3.827  0.0268 -0.3336  1.2047
 2951TIP3    H2 8860   6.001   4.438   3.896  0.3843 -0.2284  0.7911
 2952TIP3   OH2 8861   0.350   0.743   3.802  0.2435  0.5094 -0.1100
 2952TIP3    H1 8862   0.371   0.650   3.794 -1.0519  0.1953 -0.2275
 2952TIP3    H2 8863   0.325   0.770   3.714  0.0950  0.8249  0.0259
 2953TIP3   OH2 8864   6.140   0.689   2.849  0.2244  0.1835 -0.5559
 2953TIP3    H1 8865   6.141   0.694   2.945 -1.0538 -1.1315 -0.4245
 2953TIP3    H2 8866   6.230   0.671   2.825  0.5166  0.2332  0.4368
 2954TIP3   OH2 8867   5.655   0.058   4.411  0.3508 -0.4648  0.1802
 2954TIP3    H1 8868   5.576   0.032   4.363 -0.4868  1.4614  0.4074
 2954TIP3    H2 8869   5.725   0.051   4.346 -0.2071 -1.0352 -0.3816
 2955TIP3   OH2 8870   3.997   2.194   4.266  0.1493  0.0570 -0.1242
 2955TIP3    H1 8871   3.945   2.214   4.188  2.3896 -0.9863 -2.0175
 2955TIP3    H2 8872   3.946   2.127   4.312 -1.5430  1.1779 -0.2802
 2956TIP3   OH2 8873   3.423   1.481   1.692  0.5422 -0.0510 -0.1283
 2956TIP3    H1 8874   3.397   1.422   1.622 -2.2908  1.0433 -0.1234
 2956TIP3    H2 8875   3.375   1.451   1.769  2.0566 -0.0128  0.8881
 2957TIP3   OH2 8876   0.518   4.565   3.491  0.2909  0.5186  0.3489
 2957TIP3    H1 8877   0.564   4.497   3.539  1.1033  0.3489 -0.6282
 2957TIP3    H2 8878   0.490   4.628   3.557  0.0445 -0.4601  1.1967
 2958TIP3   OH2 8879   3.407   4.047   4.276 -0.2926  0.4628  0.0274
 2958TIP3    H1 8880   3.481   4.075   4.223  0.6029 -1.3203  0.2631
 2958TIP3    H2 8881   3.336   4.032   4.213  0.6295 -1.2155 -0.6660
 2959TIP3   OH2 8882   1.880   5.417   3.115 -0.1716  0.5350  0.3592
 2959TIP3    H1 8883   1.901   5.485   3.178 -1.5586  1.8387 -0.5278
 2959TIP3    H2 8884   1.856   5.341   3.169 -0.5016  1.3526  1.3915
 2960TIP3   OH2 8885   0.857   4.214   0.413 -0.7173  0.2224 -0.4308
 2960TIP3    H1 8886   0.876   4.126   0.446 -0.6534 -0.0355 -1.1548
 2960TIP3    H2 8887   0.772   4.236   0.451  0.5076  1.0128  2.0862
 2961TIP3   OH2 8888   0.150   1.687   3.707 -0.7341  0.2305 -0.6016
 2961TIP3    H1 8889   0.111   1.733   3.633  0.1671  1.5739 -0.2760
 2961TIP3    H2 8890   0.156   1.595   3.678 -0.6358  0.6822 -2.0913
 2962TIP3   OH2 8891   3.652   0.800   4.850  0.7817  0.2863  0.1175
 2962TIP3    H1 8892   3.704   0.871   4.812 -1.1470  1.6897 -0.0390
 2962TIP3    H2 8893   3.689   0.788   4.938  1.6116  0.9530 -0.1288
 2963TIP3   OH2 8894   1.425   3.467   5.177 -0.2709 -0.2575 -0.0627
 2963TIP3    H1 8895   1.495   3.509   5.127 -1.0559  1.5637  0.3009
 2963TIP3    H2 8896   1.462   3.458   5.265 -1.0731  2.4886  0.6443
 2964TIP3   OH2 8897   2.720   2.735   0.233  0.3378  0.5263  0.5910
 2964TIP3    H1 8898   2.754   2.704   0.316  0.7226 -0.6918  0.0090
 2964TIP3    H2 8899   2.750   2.826   0.226  1.0726  0.3487  1.3623
 2965TIP3   OH2 8900   5.938   0.578   3.782  0.3469 -0.3189 -0.3397
 2965TIP3    H1 8901   6.017   0.552   3.736 -0.0718  0.4402 -1.5163
 2965TIP3    H2 8902   5.869   0.522   3.747 -0.0078  0.3785 -0.7808
 2966TIP3   OH2 8903   0.907   5.886   0.845  1.1119  0.1539  0.1912
 2966TIP3    H1 8904   0.831   5.918   0.894  2.0323  0.3858  1.5347
 2966TIP3    H2 8905   0.871   5.824   0.782 -0.3652  1.4578 -0.3151
 2967TIP3   OH2 8906   4.780   4.805   3.372 -0.1705  0.2983 -0.0836
 2967TIP3    H1 8907   4.736   4.807   3.287  1.0065 -1.2602 -0.7639
 2967TIP3    H2 8908   4.811   4.895   3.385 -2.2576  1.0978 -0.2231
 2968TIP3   OH2 8909   0.224   4.030   4.397  1.2477 -0.1673  0.0543
 2968TIP3    H1 8910   0.290   3.983   4.346  0.2992 -0.8555 -0.5669
 2968TIP3    H2 8911   0.150   3.970   4.403  0.3102  0.9345 -0.0449
 2969TIP3   OH2 8912   2.515   2.372   2.668 -0.1673  0.2088 -0.0356
 2969TIP3    H1 8913   2.507   2.278   2.687  0.8251 -0.1790 -1.3838
 2969TIP3    H2 8914   2.437   2.393   2.617 -0.5389  0.1913  0.5194
 2970TIP3   OH2 8915   2.853   3.424   0.391 -1.1121  0.0652  0.5451
 2970TIP3    H1 8916   2.781   3.479   0.422 -1.7672 -1.1278  1.2072
 2970TIP3    H2 8917   2.932   3.476   0.408 -1.6433  0.4697  1.9530
 2971TIP3   OH2 8918   2.124   1.396   4.904 -0.5843 -0.1947  0.0742
 2971TIP3    H1 8919   2.161   1.478   4.872 -2.0793 -0.5599 -2.8547
 2971TIP3    H2 8920   2.105   1.414   4.996  0.7710  2.1074  0.0003
 2972TIP3   OH2 8921   5.204   5.110   1.656 -0.4972  0.1846  0.4218
 2972TIP3    H1 8922   5.277   5.052   1.674 -0.3815  0.6219  1.4217
 2972TIP3    H2 8923   5.242   5.198   1.654 -0.9021  0.3649  0.3644
 2973TIP3   OH2 8924   3.801   3.674   4.090  0.0425 -0.3707 -0.0432
 2973TIP3    H1 8925   3.894   3.669   4.072 -0.0024  0.2319 -0.4473
 2973TIP3    H2 8926   3.795   3.666   4.186  0.5438  0.0840  0.0306
 2974TIP3   OH2 8927   4.757   4.909   2.064  0.2598 -0.3601 -0.4942
 2974TIP3    H1 8928   4.795   4.995   2.084 -2.6991  1.4145 -1.7830
 2974TIP3    H2 8929   4.755   4.905   1.969 -0.1215 -1.6504 -0.4474
 2975TIP3   OH2 8930   2.251   4.523   1.193  0.1415  0.4132  0.0664
 2975TIP3    H1 8931   2.188   4.479   1.137  0.3402  1.1156 -0.7362
 2975TIP3    H2 8932   2.296   4.585   1.135  0.2330  1.2919  1.0416
 2976TIP3   OH2 8933   0.311   0.227   4.844  0.6807  0.0539  0.1848
 2976TIP3    H1 8934   0.264   0.153   4.882 -0.6456  0.6543 -0.2216
 2976TIP3    H2 8935   0.387   0.240   4.901  0.4132 -1.0174  0.7967
 2977TIP3   OH2 8936   4.063   2.717   4.520 -0.2483  0.8416  0.3864
 2977TIP3    H1 8937   4.087   2.703   4.612 -0.6573 -0.0490  0.3662
 2977TIP3    H2 8938   3.976   2.679   4.512  0.9605 -1.9156 -1.0585
 2978TIP3   OH2 8939   5.560   3.866   4.775 -0.3296  0.4853 -0.3417
 2978TIP3    H1 8940   5.641   3.863   4.723  0.1244  2.1636  0.1699
 2978TIP3    H2 8941   5.583   3.920   4.851 -1.3834 -0.7058  0.8603
 2979TIP3   OH2 8942   5.623   1.478   2.494  0.1853  0.6131 -0.1354
 2979TIP3    H1 8943   5.644   1.389   2.523 -0.8670 -0.6406 -2.9213
 2979TIP3    H2 8944   5.708   1.519   2.481  0.7018  0.6925  2.8237
 2980TIP3   OH2 8945   4.809   0.878   4.978 -0.0597  0.4546  0.0089
 2980TIP3    H1 8946   4.903   0.864   4.967 -0.3923 -0.5736 -1.9565
 2980TIP3    H2 8947   4.788   0.842   5.064  1.2104 -0.0026  0.1343
 2981TIP3   OH2 8948   1.773   2.209   4.572  0.1030 -0.2387  0.2830
 2981TIP3    H1 8949   1.771   2.303   4.589  0.5200 -0.2246  0.2612
 2981TIP3    H2 8950   1.758   2.169   4.658  1.5182 -0.1600  0.5966
 2982TIP3   OH2 8951   2.514   4.776   0.130 -0.5763 -0.2217  0.0464
 2982TIP3    H1 8952   2.547   4.691   0.160 -1.7867 -0.8751 -0.3943
 2982TIP3    H2 8953   2.578   4.839   0.161  0.1613 -1.2648  0.7048
 2983TIP3   OH2 8954   6.197   2.494   4.777 -0.1659 -0.0727 -0.1353
 2983TIP3    H1 8955   6.237   2.417   4.817  1.4005  1.0996  0.6899
 2983TIP3    H2 8956   6.231   2.496   4.688 -0.5466 -0.5478 -0.2959
 2984TIP3   OH2 8957   1.844   2.518   0.952  0.3561 -0.4564 -0.0758
 2984TIP3    H1 8958   1.756   2.485   0.935 -0.2702  1.2000 -0.2721
 2984TIP3    H2 8959   1.835   2.613   0.949  2.1365 -0.2426  0.0353
 2985TIP3   OH2 8960   2.617   2.181   2.214  0.8060  0.4687 -0.5901
 2985TIP3    H1 8961   2.641   2.259   2.163  0.0423  1.0870 -0.0199
 2985TIP3    H2 8962   2.652   2.198   2.301  0.2705  0.3646 -0.3529
 2986TIP3   OH2 8963   1.311   2.566   1.607  0.1099  0.2028  0.6315
 2986TIP3    H1 8964   1.390   2.540   1.560  0.0121  0.7122  0.1714
 2986TIP3    H2 8965   1.289   2.652   1.571  0.4271  0.9441  2.1068
 2987TIP3   OH2 8966   5.788   4.463   4.899 -0.1100 -0.0192 -0.1223
 2987TIP3    H1 8967   5.851   4.458   4.828 -1.4799  0.3173 -1.4029
 2987TIP3    H2 8968   5.842   4.464   4.979  1.4493 -0.4325 -1.1239
 2988TIP3   OH2 8969   0.673   1.719   1.640 -0.0521 -0.6871 -0.0854
 2988TIP3    H1 8970   0.608   1.787   1.619 -0.7893 -1.0476  0.9098
 2988TIP3    H2 8971   0.731   1.716   1.564  0.0337  1.0942 -0.1318
 2989TIP3   OH2 8972   4.241   3.143   3.993 -0.4202  0.0596  0.0251
 2989TIP3    H1 8973   4.294   3.181   3.924 -0.3226  0.6920  0.4361
 2989TIP3    H2 8974   4.288   3.064   4.019 -0.4799 -0.1984 -0.6509
 2990TIP3   OH2 8975   1.153   1.480   4.432  0.2575  0.7339 -0.7522
 2990TIP3    H1 8976   1.147   1.409   4.368 -0.0156 -0.3680  0.4542
 2990TIP3    H2 8977   1.231   1.460   4.483  0.1004  1.2283 -0.3098
 2991TIP3   OH2 8978   1.433   0.960   4.296  0.2160 -0.1745  0.0395
 2991TIP3    H1 8979   1.483   0.894   4.344 -0.1423 -0.4852 -0.0079
 2991TIP3    H2 8980   1.483   1.041   4.306  0.8937 -0.5512 -0.2760
 2992TIP3   OH2 8981   5.786   5.809   3.466 -0.3420 -0.4762 -0.6318
 2992TIP3    H1 8982   5.791   5.733   3.524 -0.0642  0.3614  0.4701
 2992TIP3    H2 8983   5.787   5.884   3.525  3.4905  0.5845 -1.7322
 2993TIP3   OH2 8984   5.562   5.505   2.445 -0.2477  0.0713  0.1781
 2993TIP3    H1 8985   5.632   5.568   2.427  0.0414 -0.3755 -0.3159
 2993TIP3    H2 8986   5.608   5.424   2.467 -0.5354 -0.9059 -2.4626
 2994TIP3   OH2 8987   4.829   1.181   1.887  0.4450  0.1147 -0.5638
 2994TIP3    H1 8988   4.918   1.214   1.894  0.2969  0.2078  1.3724
 2994TIP3    H2 8989   4.775   1.260   1.874  0.3957  0.3523  0.9781
 2995TIP3   OH2 8990   1.219   1.942   1.902  0.2285  0.1482 -0.4368
 2995TIP3    H1 8991   1.286   1.987   1.954 -0.6053  1.3249 -0.3497
 2995TIP3    H2 8992   1.239   1.849   1.914 -0.9851  0.2057  3.5771
 2996TIP3   OH2 8993   5.405   1.201   5.150  0.5467  0.4428 -0.3308
 2996TIP3    H1 8994   5.371   1.283   5.185  0.5584  0.1727  0.3311
 2996TIP3    H2 8995   5.380   1.135   5.215  1.7042  0.1266 -0.1858
 2997TIP3   OH2 8996   2.976   2.368   0.543 -0.3562  0.1652  1.1302
 2997TIP3    H1 8997   2.930   2.300   0.493 -0.2128  0.3533  0.7330
 2997TIP3    H2 8998   2.913   2.397   0.608 -1.4896  1.6949 -0.5533
 2998TIP3   OH2 8999   5.712   5.367   3.906 -0.5602 -0.4002  0.3557
 2998TIP3    H1 9000   5.639   5.394   3.849  0.5429 -1.0239 -1.4241
 2998TIP3    H2 9001   5.764   5.447   3.915 -1.3447  0.0077  1.5078
 2999TIP3   OH2 9002   2.578   2.846   3.550 -0.1081  0.3992  0.2097
 2999TIP3    H1 9003   2.602   2.827   3.459 -0.8565  0.9367 -0.1124
 2999TIP3    H2 9004   2.482   2.849   3.549 -0.1026  1.0315  0.8864
 3000TIP3   OH2 9005   2.465   2.767   0.119  0.2478 -0.1760  0.0835
 3000TIP3    H1 9006   2.505   2.847   0.085 -0.0663  1.2973  2.9143
 3000TIP3    H2 9007   2.537   2.720   0.161  0.3400 -1.2214 -1.1725
 3001TIP3   OH2 9008   3.962   3.330   2.866 -0.2912 -0.4318  0.0235
 3001TIP3    H1 9009   3.952   3.368   2.778  0.4070 -0.7682 -0.2151
 3001TIP3    H2 9010   3.909   3.386   2.923  0.3703  0.6507 -0.3908
 3002TIP3   OH2 9011   4.605   0.350   1.774 -0.1979 -0.2465  0.2158
 3002TIP3    H1 9012   4.569   0.284   1.833  1.1691 -0.8738  0.4029
 3002TIP3    H2 9013   4.700   0.333   1.775  0.0320  0.8531 -0.7961
 3003TIP3   OH2 9014   0.353   0.110   3.781 -0.8513 -0.4529 -0.3324
 3003TIP3    H1 9015   0.431   0.063   3.754  0.5402  0.5120  1.7400
 3003TIP3    H2 9016   0.339   0.175   3.712 -0.5495 -1.3691 -1.2943
 3004TIP3   OH2 9017   2.257   1.832   0.604  0.4835  0.3845 -0.4514
 3004TIP3    H1 9018   2.275   1.761   0.665  2.5623  1.5842  0.4103
 3004TIP3    H2 9019   2.232   1.787   0.523  0.5495 -1.2895  0.3993
 3005TIP3   OH2 9020   2.029   3.881   2.283 -0.0922 -0.1446 -0.3379
 3005TIP3    H1 9021   2.099   3.942   2.259 -1.2106  1.1792 -0.3033
 3005TIP3    H2 9022   1.985   3.860   2.201  0.6966 -1.4784 -0.4555
 3006TIP3   OH2 9023   3.340   3.671   1.757  0.0271 -0.2012  0.2943
 3006TIP3    H1 9024   3.375   3.743   1.809 -1.5044  0.3843  0.5701
 3006TIP3    H2 9025   3.342   3.702   1.667  0.3166 -0.2132  0.2976
 3007TIP3   OH2 9026   1.263   0.129   2.680 -0.3184 -0.3577  0.7753
 3007TIP3    H1 9027   1.236   0.146   2.770 -0.4991 -0.9834  0.8482
 3007TIP3    H2 9028   1.265   0.214   2.638 -1.2514 -0.1790  1.0865
 3008TIP3   OH2 9029   3.047   0.759   1.903  0.9266  0.1628  0.1953
 3008TIP3    H1 9030   3.094   0.725   1.980  0.6106 -2.0883 -0.5294
 3008TIP3    H2 9031   3.004   0.838   1.934 -1.4176 -2.0456  3.2007
 3009TIP3   OH2 9032   5.094   3.050   1.211  0.3695 -0.1120  0.0674
 3009TIP3    H1 9033   5.082   2.996   1.289  2.8731 -0.4601  0.3000
 3009TIP3    H2 9034   5.054   3.000   1.140  0.8900 -1.3277  0.6027
 3010TIP3   OH2 9035   5.943   5.686   4.172  0.1113  0.0653  0.4863
 3010TIP3    H1 9036   5.899   5.738   4.239  0.9062 -0.1726  1.2095
 3010TIP3    H2 9037   5.941   5.741   4.094 -1.7918 -0.0959  0.3778
 3011TIP3   OH2 9038   3.860   4.958   3.610 -0.0819  0.0614 -0.1934
 3011TIP3    H1 9039   3.917   4.999   3.675  0.4342  2.2001 -1.8771
 3011TIP3    H2 9040   3.917   4.942   3.535 -0.7501 -1.9549 -0.3224
 3012TIP3   OH2 9041   2.875   2.873   1.984  0.2931 -0.0423 -0.5860
 3012TIP3    H1 9042   2.795   2.903   1.939  1.0688 -1.0843 -2.7908
 3012TIP3    H2 9043   2.945   2.888   1.921  1.8874  0.8073  1.2975
 3013TIP3   OH2 9044   3.044   1.174   4.162  0.0287  0.0144 -0.4093
 3013TIP3    H1 9045   3.133   1.139   4.164 -0.1309 -0.5324 -1.9783
 3013TIP3    H2 9046   2.992   1.112   4.212  0.3745 -0.1075 -0.1983
 3014TIP3   OH2 9047   2.501   0.839   0.170 -0.1980 -0.3591  0.3222
 3014TIP3    H1 9048   2.501   0.832   0.265 -1.2849 -0.2493  0.3366
 3014TIP3    H2 9049   2.594   0.833   0.146  0.0764 -0.5125  1.3695
 3015TIP3   OH2 9050   6.152   4.971   4.518 -0.0449  0.3800  0.1828
 3015TIP3    H1 9051   6.117   5.058   4.499 -1.3685 -0.4048 -1.1652
 3015TIP3    H2 9052   6.196   4.945   4.437  1.2508  0.1745  0.9178
 3016TIP3   OH2 9053   3.514   0.648   2.159 -0.0750 -0.2360  0.3942
 3016TIP3    H1 9054   3.514   0.552   2.167 -0.1088 -0.2633  0.1028
 3016TIP3    H2 9055   3.421   0.670   2.148 -0.1274 -0.1141  1.0433
 3017TIP3   OH2 9056   5.033   2.437   2.369  0.1715  0.3486  0.1011
 3017TIP3    H1 9057   4.943   2.468   2.360 -0.2919 -0.6802  0.9842
 3017TIP3    H2 9058   5.042   2.416   2.462  1.3858  0.6195  0.0518
 3018TIP3   OH2 9059   4.099   3.790   3.240  0.2557 -0.4908 -0.3430
 3018TIP3    H1 9060   4.038   3.834   3.299  1.4244  0.4155  0.2505
 3018TIP3    H2 9061   4.073   3.698   3.243 -1.4058 -0.0603 -0.5579
 3019TIP3   OH2 9062   0.846   5.440   1.523  0.0271 -0.2450  0.5270
 3019TIP3    H1 9063   0.915   5.457   1.587 -0.5602  0.6154  0.9641
 3019TIP3    H2 9064   0.831   5.525   1.481 -0.0663 -0.6475 -0.2879
 3020TIP3   OH2 9065   1.455   4.251   3.356 -0.1435  0.0794 -0.0058
 3020TIP3    H1 9066   1.509   4.172   3.364  1.0204  0.7190 -1.0769
 3020TIP3    H2 9067   1.412   4.242   3.271  0.9204  1.1170 -0.6806
 3021TIP3   OH2 9068   1.458   3.635   0.299 -0.5344 -0.4821 -0.8471
 3021TIP3    H1 9069   1.551   3.657   0.297  0.0910 -2.7280 -0.0370
 3021TIP3    H2 9070   1.448   3.580   0.377 -3.0907  1.7123  0.5550
 3022TIP3   OH2 9071   1.098   5.296   0.742 -0.0767  0.6263 -0.4300
 3022TIP3    H1 9072   1.161   5.232   0.709 -0.3954 -0.7824  1.5095
 3022TIP3    H2 9073   1.013   5.256   0.724 -0.2814  0.5762  0.6188
 3023TIP3   OH2 9074   5.796   1.790   0.066  0.1071 -0.0336 -0.5962
 3023TIP3    H1 9075   5.756   1.768  -0.018 -1.9632 -1.5544  0.7256
 3023TIP3    H2 9076   5.879   1.742   0.066  1.6479  2.3205 -2.9156
 3024TIP3   OH2 9077   5.643   0.973   3.183  0.0415 -0.1462  0.1869
 3024TIP3    H1 9078   5.623   1.044   3.123  1.2904  0.2409  0.1995
 3024TIP3    H2 9079   5.664   1.016   3.265  0.6320 -0.5307  0.2435
 3025TIP3   OH2 9080   4.942   3.257   0.771 -0.3684 -0.1879  0.1315
 3025TIP3    H1 9081   5.013   3.199   0.801 -2.0445 -1.6096  1.6049
 3025TIP3    H2 9082   4.933   3.322   0.841 -1.6426 -1.1006  0.8630
 3026TIP3   OH2 9083   6.179   4.217   2.422  0.1144 -0.1763  0.9420
 3026TIP3    H1 9084   6.204   4.309   2.435  0.3706 -0.3219  1.5294
 3026TIP3    H2 9085   6.256   4.177   2.380 -1.2240  0.6108 -2.5956
 3027TIP3   OH2 9086   5.042   0.955   0.923 -0.0152  0.1283  0.4410
 3027TIP3    H1 9087   5.090   0.991   0.849 -0.2330 -0.3928  0.0393
 3027TIP3    H2 9088   4.979   0.894   0.884 -0.5395  0.2940  1.0117
 3028TIP3   OH2 9089   4.101   3.854   1.063 -0.6406  0.0267  0.1502
 3028TIP3    H1 9090   4.102   3.949   1.065 -0.5464  0.0259  2.1012
 3028TIP3    H2 9091   4.011   3.830   1.042 -1.0327  0.5592  1.1934
 3029TIP3   OH2 9092   0.288   3.056   0.372 -0.5380  0.3022  0.4046
 3029TIP3    H1 9093   0.315   2.965   0.359 -2.5122 -0.1136 -1.0918
 3029TIP3    H2 9094   0.366   3.108   0.350  0.6560 -0.9861  1.4189
 3030TIP3   OH2 9095   1.645   1.769   4.603 -0.0280  0.5852 -0.0757
 3030TIP3    H1 9096   1.590   1.833   4.559  0.2411  0.1656 -1.0428
 3030TIP3    H2 9097   1.734   1.788   4.574  0.0005 -0.5465 -0.8239
 3031TIP3   OH2 9098   4.164   4.981   4.398 -0.0120 -0.5350  1.2129
 3031TIP3    H1 9099   4.159   4.934   4.315 -3.1413  0.5824  0.6086
 3031TIP3    H2 9100   4.225   4.930   4.451  1.2518 -1.8878 -1.3643
 3032TIP3   OH2 9101   0.043   2.504   4.179 -0.6901 -0.3356  0.3555
 3032TIP3    H1 9102   0.073   2.414   4.169 -0.5954 -0.2131 -0.5486
 3032TIP3    H2 9103  -0.018   2.517   4.106 -0.2061  0.5308  0.0890
 3033TIP3   OH2 9104   2.732   0.268   4.922 -0.2796  0.3577  0.2613
 3033TIP3    H1 9105   2.673   0.339   4.948 -0.5565 -0.4763  1.9958
 3033TIP3    H2 9106   2.819   0.308   4.923 -0.6063  1.1243 -0.5543
 3034TIP3   OH2 9107   4.775   5.500   3.532  0.0741 -0.3013 -0.7692
 3034TIP3    H1 9108   4.774   5.585   3.487  0.3151 -0.3579 -0.8787
 3034TIP3    H2 9109   4.863   5.494   3.570 -0.0698 -0.3308 -0.4369
 3035TIP3   OH2 9110   3.709   0.421   0.824  0.2527 -0.1146  0.7572
 3035TIP3    H1 9111   3.711   0.481   0.899 -0.5329  0.8196  0.0457
 3035TIP3    H2 9112   3.793   0.437   0.779  1.7209 -2.1920  2.5369
 3036TIP3   OH2 9113   5.759   3.250   5.043 -0.1513  0.4950 -0.1187
 3036TIP3    H1 9114   5.697   3.222   4.975  2.4681 -0.9384 -2.0635
 3036TIP3    H2 9115   5.758   3.179   5.107 -1.3196  1.0349  0.5022
 3037TIP3   OH2 9116   3.409   0.567   4.057  0.3923  0.6039  0.1132
 3037TIP3    H1 9117   3.390   0.657   4.082 -0.4750  0.4265  0.1023
 3037TIP3    H2 9118   3.352   0.513   4.111  0.4698  0.0895 -0.3011
 3038TIP3   OH2 9119   0.427   1.778   2.724 -0.6021  0.0423 -0.0847
 3038TIP3    H1 9120   0.464   1.697   2.689 -1.2185 -0.5636  0.6385
 3038TIP3    H2 9121   0.359   1.750   2.784  1.8909  0.8622  3.4821
 3039TIP3   OH2 9122   0.673   4.565   4.065 -0.5123 -0.1042  0.2693
 3039TIP3    H1 9123   0.628   4.585   4.147 -0.4537  0.6235  0.1328
 3039TIP3    H2 9124   0.604   4.532   4.007 -1.0217  1.5554 -0.1299
 3040TIP3   OH2 9125   3.294   0.571   2.703 -0.2296  0.4007  0.9251
 3040TIP3    H1 9126   3.338   0.492   2.670 -2.0018 -0.8080  1.2528
 3040TIP3    H2 9127   3.339   0.591   2.785  1.7880  1.2020 -0.3034
 3041TIP3   OH2 9128   0.819   5.554   3.644  0.3604 -0.2820 -0.2869
 3041TIP3    H1 9129   0.899   5.531   3.691 -0.2625 -0.6839  0.5992
 3041TIP3    H2 9130   0.847   5.619   3.579  1.0758  1.0826  1.3118
 3042TIP3   OH2 9131   3.007   4.300   1.734 -0.2362  0.2808 -0.0910
 3042TIP3    H1 9132   2.990   4.244   1.809 -0.4370 -1.7632 -1.5665
 3042TIP3    H2 9133   2.920   4.323   1.701 -0.1582  1.6478  0.5933
 3043TIP3   OH2 9134   4.949   5.973   3.931 -0.1627  0.3122  0.0099
 3043TIP3    H1 9135   4.952   5.879   3.946 -0.8331 -0.0995 -2.0605
 3043TIP3    H2 9136   5.019   5.990   3.868  1.6737  1.6929  2.2416
 3044TIP3   OH2 9137   2.061   5.618   1.675 -0.1457  0.4158 -0.1406
 3044TIP3    H1 9138   2.116   5.657   1.743 -1.7190 -0.1920  1.5427
 3044TIP3    H2 9139   1.986   5.678   1.668  1.1720  1.9083 -3.2800
 3045TIP3   OH2 9140   0.063   5.129   3.815  0.0714 -0.0008 -0.0742
 3045TIP3    H1 9141   0.118   5.113   3.739  0.9814 -3.6026  1.1693
 3045TIP3    H2 9142   0.122   5.165   3.881  0.0959 -0.2973  0.0663
 3046TIP3   OH2 9143   1.315   0.156   3.274 -0.1219  0.0580  0.1870
 3046TIP3    H1 9144   1.317   0.097   3.198 -0.9417 -1.0575  1.0033
 3046TIP3    H2 9145   1.279   0.238   3.239  0.2616 -0.1675 -0.7860
 3047TIP3   OH2 9146   5.007   3.230   1.932 -0.6508  0.2778  0.1711
 3047TIP3    H1 9147   5.025   3.324   1.936  0.1306  0.1418 -0.0331
 3047TIP3    H2 9148   5.092   3.190   1.914 -1.2846 -0.3261 -1.7289
 3048TIP3   OH2 9149   2.880   3.838   4.836 -0.5604  0.4367 -0.2384
 3048TIP3    H1 9150   2.955   3.780   4.851 -0.5865  0.7536  1.2883
 3048TIP3    H2 9151   2.875   3.847   4.741 -0.2852 -1.7031 -0.5087
 3049TIP3   OH2 9152   5.882   1.191   2.476  0.0343  0.3460 -0.5704
 3049TIP3    H1 9153   5.803   1.154   2.435  0.7716 -1.0105 -0.8263
 3049TIP3    H2 9154   5.954   1.159   2.423  1.0101 -1.3423  1.5795
 3050TIP3   OH2 9155   3.638   1.415   3.702  0.3055 -0.2001  0.2367
 3050TIP3    H1 9156   3.722   1.398   3.659  0.1567 -0.3942  0.0203
 3050TIP3    H2 9157   3.607   1.328   3.728 -0.0479 -0.1792 -0.1032
 3051TIP3   OH2 9158   3.382   3.386   1.671  0.1798 -0.2536 -0.4182
 3051TIP3    H1 9159   3.416   3.458   1.724 -0.0809 -0.3244 -0.1554
 3051TIP3    H2 9160   3.317   3.428   1.615 -2.1460 -0.7382  1.7621
 3052TIP3   OH2 9161   0.811   5.728   2.372 -0.0934  0.4845 -0.0798
 3052TIP3    H1 9162   0.773   5.673   2.303 -0.5335  1.8733 -0.9945
 3052TIP3    H2 9163   0.832   5.667   2.443  1.1220 -1.1034 -1.7349
 3053TIP3   OH2 9164   5.878   4.268   4.239  0.3147 -0.3842  0.1762
 3053TIP3    H1 9165   5.933   4.214   4.182 -1.0687 -1.9514  0.2536
 3053TIP3    H2 9166   5.800   4.286   4.187  0.3344  0.7603  0.5131
 3054TIP3   OH2 9167   2.648   1.156   2.092 -0.3582 -0.4249 -0.5345
 3054TIP3    H1 9168   2.667   1.216   2.020 -3.2392  1.1768 -0.1132
 3054TIP3    H2 9169   2.672   1.205   2.171 -1.2313 -0.4364 -0.2512
 3055TIP3   OH2 9170   0.005   0.746   1.325  0.1177  0.3580 -0.4907
 3055TIP3    H1 9171  -0.057   0.760   1.397  1.0305  0.2917  0.3197
 3055TIP3    H2 9172   0.084   0.713   1.368 -0.1635 -2.2449 -1.7592
 3056TIP3   OH2 9173   2.795   3.848   3.043  0.4362  0.3955 -0.0807
 3056TIP3    H1 9174   2.788   3.791   2.966  1.9926  0.9147 -0.6380
 3056TIP3    H2 9175   2.715   3.900   3.041 -0.1988 -0.5613 -0.5463
 3057TIP3   OH2 9176   1.947   3.957   0.771  0.1757  0.3213 -0.0585
 3057TIP3    H1 9177   1.944   3.893   0.700 -0.7499 -0.7766  0.9208
 3057TIP3    H2 9178   2.015   3.923   0.830  0.2670  0.7007  0.0555
 3058TIP3   OH2 9179   0.402   4.815   4.361  0.0820  0.2245 -0.0271
 3058TIP3    H1 9180   0.433   4.897   4.325 -0.6859  0.7393  0.4602
 3058TIP3    H2 9181   0.344   4.840   4.433 -2.4417 -0.6517 -1.6257
 3059TIP3   OH2 9182   2.960   5.782   2.833  0.5348 -0.2158 -0.1617
 3059TIP3    H1 9183   2.934   5.707   2.780  1.8105 -1.7089  1.2273
 3059TIP3    H2 9184   2.989   5.744   2.916  1.1929  1.8233  0.6060
 3060TIP3   OH2 9185   4.551   0.062   3.091 -0.2654  0.2771  0.2567
 3060TIP3    H1 9186   4.503   0.098   3.166  0.2607  0.0285  0.7116
 3060TIP3    H2 9187   4.554  -0.032   3.106  2.2779  0.4590  1.3948
 3061TIP3   OH2 9188   2.354   5.729   1.474  0.3463  0.0683  0.6810
 3061TIP3    H1 9189   2.404   5.792   1.421 -0.2084 -0.3000 -0.3069
 3061TIP3    H2 9190   2.304   5.679   1.410 -0.7171 -0.0722  1.5919
 3062TIP3   OH2 9191   6.065   0.560   3.312 -0.1447  0.4569  0.4616
 3062TIP3    H1 9192   6.137   0.501   3.288 -0.6034  0.7799 -1.9504
 3062TIP3    H2 9193   5.999   0.503   3.349  0.2354 -0.2494  0.0707
 3063TIP3   OH2 9194   3.923   2.099   2.183 -0.5952  0.2500  0.1331
 3063TIP3    H1 9195   3.944   2.170   2.122  2.6273 -0.2555  0.4746
 3063TIP3    H2 9196   3.902   2.142   2.265 -0.7818  0.8438 -0.2249
 3064TIP3   OH2 9197   4.089   1.571   0.646  0.6910  0.1118 -0.3849
 3064TIP3    H1 9198   4.184   1.565   0.647  0.6981  0.3478  0.5401
 3064TIP3    H2 9199   4.060   1.493   0.693  0.4197  0.0665 -0.6220
 3065TIP3   OH2 9200   0.839   5.528   4.774 -0.4665 -0.3574 -0.0427
 3065TIP3    H1 9201   0.767   5.468   4.795 -0.6264 -0.2519 -0.2806
 3065TIP3    H2 9202   0.843   5.588   4.848 -2.1431  1.0764 -1.0385
 3066TIP3   OH2 9203   0.755   2.526   4.151 -0.0904  0.0318 -0.0920
 3066TIP3    H1 9204   0.703   2.604   4.131 -0.3854  0.1798  1.1426
 3066TIP3    H2 9205   0.746   2.515   4.246  1.1665 -0.6455 -0.0275
 3067TIP3   OH2 9206   4.750   1.945   2.190  0.1910  0.3592 -0.0544
 3067TIP3    H1 9207   4.833   1.982   2.219  0.5954  0.2771 -1.0654
 3067TIP3    H2 9208   4.713   2.012   2.132 -0.1391  0.1278 -0.1162
 3068TIP3   OH2 9209   3.454   2.618   4.982 -0.4778 -0.1579 -0.6309
 3068TIP3    H1 9210   3.465   2.529   5.014 -0.0583  0.0886 -0.0704
 3068TIP3    H2 9211   3.455   2.609   4.887  2.3397 -0.4721 -0.6624
 3069TIP3   OH2 9212   1.015   4.405   1.798 -0.8143  0.4645  0.0754
 3069TIP3    H1 9213   1.045   4.367   1.880 -1.0865  1.4138  0.6345
 3069TIP3    H2 9214   0.955   4.340   1.761 -1.8388  0.6449  1.3675
 3070TIP3   OH2 9215   1.496   4.104   0.519  0.2401  0.4779 -0.0771
 3070TIP3    H1 9216   1.561   4.128   0.453 -0.0644 -2.0584 -1.3791
 3070TIP3    H2 9217   1.413   4.138   0.485  0.2264 -0.0348 -0.5647
 3071TIP3   OH2 9218   5.052   4.846   4.817  0.3469  1.1865 -0.3875
 3071TIP3    H1 9219   4.975   4.830   4.763  1.5740 -1.4635 -1.5650
 3071TIP3    H2 9220   5.101   4.913   4.771 -0.6907  2.1116 -0.1900
 3072TIP3   OH2 9221   2.820   2.750   2.526  0.4010  0.0627  0.0423
 3072TIP3    H1 9222   2.823   2.666   2.481  2.1413 -0.3993  0.9411
 3072TIP3    H2 9223   2.908   2.787   2.515 -0.0078  1.2640  0.5802
 3073TIP3   OH2 9224   5.078   2.897   2.352 -0.2686 -0.3726  0.4711
 3073TIP3    H1 9225   5.143   2.827   2.347  0.8539  0.7250 -1.6041
 3073TIP3    H2 9226   5.086   2.931   2.441  1.4533 -0.7737  0.5032
 3074TIP3   OH2 9227   2.112   1.440   3.944  0.1509  0.4831 -0.2585
 3074TIP3    H1 9228   2.033   1.397   3.911  0.2642 -1.3045  1.5482
 3074TIP3    H2 9229   2.105   1.531   3.916 -1.5906 -0.0719 -1.7606
 3075TIP3   OH2 9230   3.446   4.533   0.953 -0.4903 -0.1147 -0.2422
 3075TIP3    H1 9231   3.490   4.468   0.899 -0.2076  0.5841 -0.8802
 3075TIP3    H2 9232   3.405   4.483   1.023  1.1491 -0.8140  0.2687
 3076TIP3   OH2 9233   2.607   3.266   3.893 -0.2131 -0.2641  1.0048
 3076TIP3    H1 9234   2.677   3.328   3.914 -1.8196  1.6158  1.0578
 3076TIP3    H2 9235   2.577   3.233   3.978 -0.7202  0.4720  1.1163
 3077TIP3   OH2 9236   4.963   0.298   4.150  0.4363 -0.1511 -0.1098
 3077TIP3    H1 9237   4.981   0.387   4.178 -0.4379  0.5458 -1.6306
 3077TIP3    H2 9238   4.888   0.306   4.092 -0.3186 -2.0270  0.5449
 3078TIP3   OH2 9239   0.510   3.502   4.868  0.1626  0.1180  0.9164
 3078TIP3    H1 9240   0.417   3.494   4.888  0.1662 -1.6984  0.3622
 3078TIP3    H2 9241   0.513   3.552   4.787 -0.3713 -0.2416  0.6681
 3079TIP3   OH2 9242   4.516   3.993   5.170  0.2594  0.4353  0.4832
 3079TIP3    H1 9243   4.494   3.939   5.095 -0.0092 -0.0671  0.9165
 3079TIP3    H2 9244   4.551   3.932   5.235  2.4545  1.1097  0.0322
 3080TIP3   OH2 9245   1.098   1.941   1.653  0.2597 -0.1719 -0.2879
 3080TIP3    H1 9246   1.155   1.958   1.728  0.7243 -1.5809 -0.2962
 3080TIP3    H2 9247   1.076   2.028   1.619 -1.9346  0.6691  2.8678
 3081TIP3   OH2 9248   5.944   3.926   1.106 -0.2911  0.1995 -0.3845
 3081TIP3    H1 9249   5.954   3.942   1.200  1.2067 -0.6269 -0.3589
 3081TIP3    H2 9250   5.982   4.003   1.064 -0.9982  0.5880 -0.3183
 3082TIP3   OH2 9251   1.110   0.303   2.406 -0.2975  0.6336  0.4902
 3082TIP3    H1 9252   1.049   0.367   2.369 -0.0355  0.0636 -1.0273
 3082TIP3    H2 9253   1.179   0.356   2.446 -0.5129  1.3048 -0.0005
 3083TIP3   OH2 9254   4.106   2.360   1.098  0.2716 -0.2008 -0.1572
 3083TIP3    H1 9255   4.136   2.316   1.018 -0.7357  1.8776 -1.7770
 3083TIP3    H2 9256   4.162   2.437   1.106 -0.3157  0.1657  0.5549
 3084TIP3   OH2 9257   3.212   0.633   1.694 -0.0729  0.1828  0.7490
 3084TIP3    H1 9258   3.172   0.596   1.773 -0.2667 -0.0767  0.5292
 3084TIP3    H2 9259   3.205   0.728   1.706 -3.3129  0.2088 -0.5406
 3085TIP3   OH2 9260   0.993   2.378   4.454 -0.7727 -0.4275  0.3770
 3085TIP3    H1 9261   1.053   2.306   4.431 -1.2983 -1.7109  2.7382
 3085TIP3    H2 9262   1.028   2.454   4.406  0.1149 -2.0929 -1.7888
 3086TIP3   OH2 9263   3.936   3.888   3.462 -0.2560  0.1980 -0.6072
 3086TIP3    H1 9264   3.933   3.952   3.533 -0.4156  0.3809 -0.7781
 3086TIP3    H2 9265   3.954   3.805   3.505 -0.8455  0.2235 -0.2939
 3087TIP3   OH2 9266   2.745   5.785   1.643 -0.3689  0.2103 -0.3625
 3087TIP3    H1 9267   2.813   5.840   1.681  1.1385 -1.6993 -0.1158
 3087TIP3    H2 9268   2.670   5.843   1.633  0.5097  1.8141  1.6194
 3088TIP3   OH2 9269   5.974   4.756   1.068 -0.0985  0.0368 -0.1649
 3088TIP3    H1 9270   6.007   4.703   0.995  0.0116 -1.3740  0.8818
 3088TIP3    H2 9271   5.882   4.773   1.045 -0.9454 -2.8615  0.6490
 3089TIP3   OH2 9272   1.377   0.787   4.958  0.5003 -0.3088  0.0639
 3089TIP3    H1 9273   1.373   0.880   4.980 -1.0109 -0.3437  0.0522
 3089TIP3    H2 9274   1.300   0.772   4.903  0.3891 -1.6790  0.5551
 3090TIP3   OH2 9275   4.129   4.621   2.072 -0.4957 -0.0643  0.0094
 3090TIP3    H1 9276   4.125   4.703   2.022 -0.8680  0.0968  0.3068
 3090TIP3    H2 9277   4.218   4.589   2.057  0.3418  1.4060  1.4852
 3091TIP3   OH2 9278   1.123   3.660   0.929 -0.5434 -0.0168 -0.1842
 3091TIP3    H1 9279   1.084   3.736   0.972  1.1108 -0.0663  1.5352
 3091TIP3    H2 9280   1.215   3.683   0.918  0.0571 -1.8586  0.6343
 3092TIP3   OH2 9281   5.110   5.947   0.044  0.3148  0.0116 -0.3610
 3092TIP3    H1 9282   5.134   6.029   0.088 -2.2830  1.4442 -1.3532
 3092TIP3    H2 9283   5.058   5.975  -0.032 -1.0961 -2.5646 -0.4728
 3093TIP3   OH2 9284   4.493   1.585   1.083 -0.0359 -0.3575 -0.0276
 3093TIP3    H1 9285   4.527   1.541   1.162 -1.2014 -0.2352  0.5578
 3093TIP3    H2 9286   4.434   1.652   1.117 -0.5864 -0.3352 -1.0161
 3094TIP3   OH2 9287   4.242   0.840   2.166 -0.0388  0.6187  0.5709
 3094TIP3    H1 9288   4.211   0.792   2.243 -0.2558  0.6679  0.5157
 3094TIP3    H2 9289   4.249   0.773   2.098  0.7107  0.4666  0.7821
 3095TIP3   OH2 9290   1.861   3.706   2.141  0.1584 -0.5579 -0.2161
 3095TIP3    H1 9291   1.887   3.697   2.233  0.0203 -1.1091 -0.2291
 3095TIP3    H2 9292   1.766   3.715   2.144  0.0926 -1.1893 -0.3428
 3096TIP3   OH2 9293   5.471   5.358   4.526  0.2753 -0.4716  0.3593
 3096TIP3    H1 9294   5.456   5.345   4.619 -1.2545 -0.0387  0.1888
 3096TIP3    H2 9295   5.480   5.269   4.491  1.1150 -0.6290  0.9387
 3097TIP3   OH2 9296   2.275   3.072   0.806  0.5614  0.2972  0.1502
 3097TIP3    H1 9297   2.273   3.046   0.898  0.8813  1.7049  0.5777
 3097TIP3    H2 9298   2.344   3.018   0.768 -0.7784 -1.5916  0.2933
 3098TIP3   OH2 9299   0.461   3.647   4.152 -0.3045 -0.3605 -0.1803
 3098TIP3    H1 9300   0.447   3.552   4.158 -1.2539 -0.1502  1.2123
 3098TIP3    H2 9301   0.538   3.655   4.095  1.8419 -2.1267  2.2299
 3099TIP3   OH2 9302   4.810   5.260   1.056 -0.2007  0.3421  0.0925
 3099TIP3    H1 9303   4.743   5.319   1.020  1.3279  0.9490 -1.9055
 3099TIP3    H2 9304   4.888   5.315   1.066  0.4220 -0.6789  1.0474
 3100TIP3   OH2 9305   5.816   2.173   4.993  0.6708 -0.8824 -0.0579
 3100TIP3    H1 9306   5.849   2.248   5.043  0.5521 -1.0747  0.3118
 3100TIP3    H2 9307   5.876   2.167   4.918 -1.3140  1.7085 -2.0545
 3101TIP3   OH2 9308   2.412   1.117   1.423 -0.2271  0.2209 -0.1685
 3101TIP3    H1 9309   2.364   1.200   1.436 -0.1803  0.3825 -1.0004
 3101TIP3    H2 9310   2.376   1.059   1.491 -1.3135  0.4647 -0.5060
 3102TIP3   OH2 9311   6.296   5.725   2.720  0.2310 -0.1872 -0.2874
 3102TIP3    H1 9312   6.316   5.806   2.673 -0.2555  0.0440 -0.0994
 3102TIP3    H2 9313   6.314   5.745   2.812  0.6017 -0.4510 -0.3010
 3103TIP3   OH2 9314   6.273   5.379   3.686 -0.2226  0.3237  0.0415
 3103TIP3    H1 9315   6.315   5.308   3.736 -0.8460 -0.2655 -0.2495
 3103TIP3    H2 9316   6.296   5.361   3.595 -0.0032  0.7607  0.0122
 3104TIP3   OH2 9317   1.588   4.805   2.527  0.4213  0.0338  0.1874
 3104TIP3    H1 9318   1.586   4.710   2.532 -1.8239 -0.1025 -1.5083
 3104TIP3    H2 9319   1.500   4.832   2.556  1.1297  1.6344  0.9809
 3105TIP3   OH2 9320   6.169   0.327   4.624 -0.2295 -0.1635  0.1427
 3105TIP3    H1 9321   6.254   0.342   4.666 -0.7372  0.3696  1.0160
 3105TIP3    H2 9322   6.185   0.256   4.562  1.4314  1.4793 -1.4742
 3106TIP3   OH2 9323   2.674   1.513   3.320  0.2364 -0.3718 -0.1091
 3106TIP3    H1 9324   2.621   1.459   3.379  0.5838 -1.0128 -0.3760
 3106TIP3    H2 9325   2.622   1.592   3.306  1.4349  1.3806  3.6715
 3107TIP3   OH2 9326   3.341   4.858   4.051  0.1982 -0.4813 -0.3274
 3107TIP3    H1 9327   3.342   4.811   4.135  0.4445  0.0687 -0.0209
 3107TIP3    H2 9328   3.277   4.810   3.998 -1.2945  0.2022  0.7841
 3108TIP3   OH2 9329   5.589   3.770   3.070  0.2525 -0.0808 -0.4251
 3108TIP3    H1 9330   5.541   3.720   3.004  0.7328 -1.1979  0.0435
 3108TIP3    H2 9331   5.564   3.730   3.154 -0.0154  1.0325  0.0430
 3109TIP3   OH2 9332   1.450   4.702   4.617  0.1440  0.2097  0.0249
 3109TIP3    H1 9333   1.448   4.715   4.712  0.8149 -0.2959  0.1164
 3109TIP3    H2 9334   1.373   4.648   4.598 -0.4318  0.9669  0.1674
 3110TIP3   OH2 9335   4.228   5.184   2.788  0.5254  0.0527 -1.0695
 3110TIP3    H1 9336   4.256   5.143   2.870  2.4378  1.2232 -1.0535
 3110TIP3    H2 9337   4.203   5.273   2.814 -1.0766 -0.2708 -1.4514
 3111TIP3   OH2 9338   3.631   4.061   0.106 -0.0278 -0.2832 -0.1197
 3111TIP3    H1 9339   3.660   4.149   0.082  2.4047 -1.5815 -2.4620
 3111TIP3    H2 9340   3.704   4.024   0.155 -1.1367 -0.9846  1.0957
 3112TIP3   OH2 9341   1.495   4.611   3.971  0.1172 -0.0440 -0.0795
 3112TIP3    H1 9342   1.472   4.531   4.018  0.9180  0.3085  0.9429
 3112TIP3    H2 9343   1.558   4.655   4.028 -0.3984  1.3783 -0.5595
 3113TIP3   OH2 9344   5.319   4.333   1.867  0.3181 -0.7400  0.0543
 3113TIP3    H1 9345   5.302   4.424   1.892 -1.3042 -1.0933  0.3886
 3113TIP3    H2 9346   5.407   4.314   1.900 -0.0201  0.1675  1.5834
 3114TIP3   OH2 9347   0.592   0.420   3.978 -0.0382  0.1848 -0.0192
 3114TIP3    H1 9348   0.504   0.428   3.940  0.1414  0.8382 -0.3110
 3114TIP3    H2 9349   0.577   0.389   4.067 -0.5189 -0.5022 -0.3329
 3115TIP3   OH2 9350   6.119   0.518   4.805 -0.6406  0.0832  0.2705
 3115TIP3    H1 9351   6.145   0.602   4.768  0.3766  0.3474  1.4918
 3115TIP3    H2 9352   6.122   0.457   4.731 -0.8044  0.9969 -0.5035
 3116TIP3   OH2 9353   1.158   2.056   2.964 -0.1197  0.0412  0.3315
 3116TIP3    H1 9354   1.231   2.018   2.916 -0.6421  1.0024 -1.3207
 3116TIP3    H2 9355   1.089   2.068   2.898 -1.1683  0.6949  1.4819
 3117TIP3   OH2 9356   5.551   0.992   3.589 -0.2516  0.2108  0.5722
 3117TIP3    H1 9357   5.608   1.049   3.538  0.4661 -1.2879 -0.3665
 3117TIP3    H2 9358   5.564   1.020   3.680  1.4739  0.3413  0.3146
 3118TIP3   OH2 9359   3.855   2.673   0.880  0.4372 -0.3318  0.3711
 3118TIP3    H1 9360   3.858   2.695   0.787  1.3679  1.2397  0.7322
 3118TIP3    H2 9361   3.869   2.757   0.925 -0.4838 -0.9710  1.9378
 3119TIP3   OH2 9362   2.602   4.761   1.173 -0.1061 -0.3544  0.0452
 3119TIP3    H1 9363   2.539   4.746   1.243 -0.9075 -2.4676 -1.0255
 3119TIP3    H2 9364   2.551   4.754   1.092  1.4895 -2.7123 -0.8925
 3120TIP3   OH2 9365   3.497   5.890   2.415 -0.2037 -0.1055 -0.2220
 3120TIP3    H1 9366   3.474   5.815   2.360 -3.5541  1.0556 -0.6097
 3120TIP3    H2 9367   3.422   5.900   2.474  1.1322  1.6502  1.2872
 3121TIP3   OH2 9368   3.263   5.821   0.810  0.0403  0.0735  0.6197
 3121TIP3    H1 9369   3.322   5.763   0.761 -1.3641 -0.6383 -0.3040
 3121TIP3    H2 9370   3.235   5.768   0.885 -1.5151 -0.6196 -0.4115
 3122TIP3   OH2 9371   4.131   1.160   0.452 -0.5309 -0.0081 -0.3597
 3122TIP3    H1 9372   4.198   1.163   0.384  0.5202  2.9487  0.6686
 3122TIP3    H2 9373   4.180   1.143   0.533 -1.1865  0.7525  0.2139
 3123TIP3   OH2 9374   3.636   1.752   1.036 -0.3864 -0.5363 -0.0501
 3123TIP3    H1 9375   3.589   1.824   1.077  1.9519  1.0699 -0.0118
 3123TIP3    H2 9376   3.629   1.770   0.942 -1.1777 -1.2302 -0.1437
 3124TIP3   OH2 9377   5.120   1.129   4.819 -0.1687  0.8260 -0.1490
 3124TIP3    H1 9378   5.079   1.165   4.740  2.4686  2.0710 -1.0965
 3124TIP3    H2 9379   5.123   1.203   4.880 -0.9648  0.2382  0.6310
 3125TIP3   OH2 9380   2.136   5.208   3.213  0.1373 -0.1720 -0.3555
 3125TIP3    H1 9381   2.210   5.202   3.153  0.1354  1.3218 -0.5446
 3125TIP3    H2 9382   2.173   5.194   3.300  0.5416 -0.0054 -0.5011
 3126TIP3   OH2 9383   0.353   2.704   2.333 -0.0409  0.1582  0.2482
 3126TIP3    H1 9384   0.260   2.682   2.341 -0.4136  1.6236  0.2312
 3126TIP3    H2 9385   0.392   2.671   2.414 -0.9782  1.4185  1.2496
 3127TIP3   OH2 9386   1.184   2.691   2.612 -0.9442 -0.2996 -0.7254
 3127TIP3    H1 9387   1.166   2.650   2.527  1.0604  0.2362 -1.4512
 3127TIP3    H2 9388   1.260   2.644   2.646 -2.1741 -1.0395  1.2027
 3128TIP3   OH2 9389   2.537   3.679   4.575 -0.0791 -0.3514 -0.2057
 3128TIP3    H1 9390   2.457   3.706   4.621 -0.1506 -1.8017  0.5841
 3128TIP3    H2 9391   2.606   3.734   4.613  0.0328 -2.1378  2.4644
 3129TIP3   OH2 9392   1.165   3.279   2.833 -0.0555  0.2783 -0.5427
 3129TIP3    H1 9393   1.128   3.236   2.756  1.1170 -1.8262  0.0000
 3129TIP3    H2 9394   1.184   3.207   2.894 -0.9305  1.8541  1.7434
 3130TIP3   OH2 9395   3.838   1.662   1.240  0.7866  0.2219 -0.4669
 3130TIP3    H1 9396   3.779   1.691   1.171  0.0876 -1.2649 -0.5309
 3130TIP3    H2 9397   3.792   1.685   1.321  1.8284  2.4158 -0.4369
 3131TIP3   OH2 9398   0.445   0.826   2.017 -0.4816 -0.6794  0.3089
 3131TIP3    H1 9399   0.463   0.813   1.924 -0.9694 -1.0065  0.2589
 3131TIP3    H2 9400   0.359   0.787   2.030 -0.4493 -0.5573  0.8818
 3132TIP3   OH2 9401   2.836   1.377   1.290 -0.1357 -0.3409 -0.8155
 3132TIP3    H1 9402   2.922   1.384   1.249 -0.4937  0.3575 -1.4628
 3132TIP3    H2 9403   2.811   1.285   1.277  0.2322 -0.3907 -1.2063
 3133TIP3   OH2 9404   4.219   3.533   2.553 -0.1722  0.0428 -0.8676
 3133TIP3    H1 9405   4.138   3.490   2.581  0.2120  0.2105  0.5508
 3133TIP3    H2 9406   4.275   3.532   2.630  1.1592  0.0168 -1.8045
 3134TIP3   OH2 9407   3.399   5.154   3.719  0.4763 -0.0624 -0.3817
 3134TIP3    H1 9408   3.484   5.151   3.763  1.0584  1.6420 -1.2782
 3134TIP3    H2 9409   3.420   5.179   3.628 -0.9141 -0.4626 -0.8384
 3135TIP3   OH2 9410   4.787   2.554   2.317  0.3688  0.2116  0.7561
 3135TIP3    H1 9411   4.742   2.512   2.390  1.1644 -0.9915  0.5853
 3135TIP3    H2 9412   4.797   2.485   2.252  1.0868  0.8494  0.1742
 3136TIP3   OH2 9413   0.237   1.841   0.292  0.1233 -0.0187  0.0706
 3136TIP3    H1 9414   0.271   1.780   0.227 -0.9465  0.2378 -0.7641
 3136TIP3    H2 9415   0.213   1.919   0.242 -1.1785 -0.0022  0.6734
 3137TIP3   OH2 9416   4.688   3.905   1.020  0.7051  0.3110 -0.4667
 3137TIP3    H1 9417   4.597   3.932   1.036  0.3944 -1.5205  1.1951
 3137TIP3    H2 9418   4.741   3.969   1.067  0.2967  1.2722 -1.2765
 3138TIP3   OH2 9419   4.879   3.457   2.207 -0.1477 -0.0288 -0.4458
 3138TIP3    H1 9420   4.877   3.391   2.276 -0.5252 -0.1784 -0.5995
 3138TIP3    H2 9421   4.915   3.535   2.250 -1.7287  0.3197  0.3028
 3139TIP3   OH2 9422   4.779   2.292   4.923 -0.1907  0.0707 -0.5432
 3139TIP3    H1 9423   4.697   2.336   4.944  0.2662  0.8236 -0.2778
 3139TIP3    H2 9424   4.818   2.347   4.854  0.4312  0.1452 -0.1421
 3140TIP3   OH2 9425   0.730   5.312   0.300  0.0172 -0.2521  0.2579
 3140TIP3    H1 9426   0.694   5.378   0.359 -0.5863 -1.7945  1.6997
 3140TIP3    H2 9427   0.683   5.324   0.218 -2.3180 -0.8151  1.4328
 3141TIP3   OH2 9428   0.614   0.132   4.445  0.0301 -0.6727  0.0792
 3141TIP3    H1 9429   0.538   0.123   4.503  0.3809  0.5065  0.7613
 3141TIP3    H2 9430   0.658   0.211   4.476  1.8373 -1.5989  0.0367
 3142TIP3   OH2 9431   0.013   3.609   2.135  0.1039 -0.2475  0.4041
 3142TIP3    H1 9432   0.005   3.517   2.112  2.0843 -0.2698 -0.3837
 3142TIP3    H2 9433   0.087   3.613   2.196 -0.0804  0.7881  0.5845
 3143TIP3   OH2 9434   0.668   1.584   1.271 -0.1799  0.6254 -0.0410
 3143TIP3    H1 9435   0.743   1.527   1.253 -0.6205  0.4831 -1.5455
 3143TIP3    H2 9436   0.697   1.638   1.345  0.7830 -0.5377  0.4606
 3144TIP3   OH2 9437   5.879   4.572   2.528  0.6039  0.4054 -0.1584
 3144TIP3    H1 9438   5.938   4.559   2.453  1.4273  0.2879  0.4961
 3144TIP3    H2 9439   5.848   4.484   2.549  1.1990  0.2972  0.2906
 3145TIP3   OH2 9440   4.612   2.837   4.964  0.2481 -0.0394  0.3962
 3145TIP3    H1 9441   4.639   2.783   5.039  1.2467 -0.0729  0.0276
 3145TIP3    H2 9442   4.593   2.774   4.895 -0.6821 -0.0079  0.6179
 3146TIP3   OH2 9443   2.988   0.870   4.050 -0.4095 -0.4445 -0.2620
 3146TIP3    H1 9444   2.922   0.890   4.117 -2.4186  0.1179 -2.2811
 3146TIP3    H2 9445   3.012   0.779   4.065 -0.5075 -0.2099  1.4429
 3147TIP3   OH2 9446   2.368   1.835   4.249 -0.6816  0.6029 -0.4907
 3147TIP3    H1 9447   2.278   1.856   4.271 -1.0045 -2.4462  1.7623
 3147TIP3    H2 9448   2.420   1.900   4.296 -1.6883 -0.4171  2.2632
 3148TIP3   OH2 9449   1.417   2.899   5.118  0.1102 -0.2535  0.3954
 3148TIP3    H1 9450   1.362   2.825   5.090  0.7227 -0.0815 -1.4113
 3148TIP3    H2 9451   1.355   2.962   5.156 -0.9169 -0.2800 -1.1477
 3149TIP3   OH2 9452   2.968   0.916   0.358 -0.0465 -0.2208  0.3312
 3149TIP3    H1 9453   3.001   0.994   0.401  0.1979  0.5432 -1.1566
 3149TIP3    H2 9454   2.996   0.926   0.267 -3.0581 -0.2494 -0.7073
 3150TIP3   OH2 9455   2.579   4.668   0.844  0.2515  0.6071 -0.1807
 3150TIP3    H1 9456   2.506   4.726   0.823 -0.0729  0.3272  0.1595
 3150TIP3    H2 9457   2.648   4.693   0.783  0.4338  1.9417  0.5363
 3151TIP3   OH2 9458   0.799   0.444   1.100  0.2823 -0.1453  0.1794
 3151TIP3    H1 9459   0.737   0.475   1.167 -0.3525 -0.5564 -0.2079
 3151TIP3    H2 9460   0.885   0.465   1.136  0.1341 -2.8329  2.4588
 3152TIP3   OH2 9461   4.556   3.967   0.405  0.0610 -0.1983 -0.3156
 3152TIP3    H1 9462   4.585   4.030   0.339  0.7433 -0.6167 -0.4251
 3152TIP3    H2 9463   4.461   3.975   0.405  0.1816  3.2410  2.0317
 3153TIP3   OH2 9464   1.768   4.417   5.060  0.1101  0.1314  0.2297
 3153TIP3    H1 9465   1.783   4.327   5.091  1.0327 -0.3547 -1.4733
 3153TIP3    H2 9466   1.717   4.406   4.980  0.0373  1.1552  0.1257
 3154TIP3   OH2 9467   6.205   2.827   3.893 -0.5298 -0.4175 -0.3434
 3154TIP3    H1 9468   6.225   2.798   3.981 -0.7221  0.4532  0.0039
 3154TIP3    H2 9469   6.154   2.908   3.905 -4.0029 -2.2853 -1.1404
 3155TIP3   OH2 9470   3.663   0.241   4.028  0.2373  0.1272 -0.0557
 3155TIP3    H1 9471   3.685   0.148   4.034 -0.9840 -0.1840 -0.0641
 3155TIP3    H2 9472   3.580   0.243   3.979  0.5733  1.2722 -0.6183
 3156TIP3   OH2 9473   4.959   4.727   2.203  0.0632 -0.6377  0.2172
 3156TIP3    H1 9474   4.952   4.715   2.108  2.2389  0.8692 -0.2177
 3156TIP3    H2 9475   4.940   4.640   2.239 -1.9387 -0.9836 -1.4726
 3157TIP3   OH2 9476   2.547   3.180   2.303  0.0804  0.6453  0.8235
 3157TIP3    H1 9477   2.499   3.113   2.256  2.3791 -0.0576 -0.6640
 3157TIP3    H2 9478   2.559   3.251   2.239  0.1433  1.2374  1.4757
 3158TIP3   OH2 9479   6.015   4.635   3.615  0.0624 -0.6593  0.4370
 3158TIP3    H1 9480   5.972   4.720   3.610 -1.1907 -1.2773  0.2624
 3158TIP3    H2 9481   6.056   4.634   3.702 -1.2941 -0.4908  1.1085
 3159TIP3   OH2 9482   4.144   5.345   4.168 -0.5356 -0.0910 -0.0609
 3159TIP3    H1 9483   4.052   5.319   4.160 -1.0543  1.3975  0.6249
 3159TIP3    H2 9484   4.146   5.434   4.133  1.0239 -0.7263 -1.7301
 3160TIP3   OH2 9485   5.577   1.303   4.730  0.1186  0.5589  0.8280
 3160TIP3    H1 9486   5.520   1.228   4.715  1.6965 -0.3287 -1.2386
 3160TIP3    H2 9487   5.567   1.357   4.652  1.7107  0.6275  0.6366
 3161TIP3   OH2 9488   6.029   4.670   0.436  0.5644  0.3006 -0.0638
 3161TIP3    H1 9489   6.051   4.577   0.428 -0.0760  0.2152 -0.9554
 3161TIP3    H2 9490   5.934   4.671   0.445  0.4729  0.9175 -0.9961
 3162TIP3   OH2 9491   2.628   1.565   4.963 -0.4008 -0.1028 -0.0295
 3162TIP3    H1 9492   2.617   1.488   5.018 -1.0148 -0.2200 -0.3006
 3162TIP3    H2 9493   2.722   1.581   4.962 -0.2542 -0.9315 -0.0943
 3163TIP3   OH2 9494   5.343   1.082   3.192 -0.3339  0.3955  0.5914
 3163TIP3    H1 9495   5.420   1.114   3.145 -1.2464  1.8124 -0.0029
 3163TIP3    H2 9496   5.272   1.088   3.128 -0.8796 -1.2905  0.9935
 3164TIP3   OH2 9497   5.071   3.111   4.181  0.4646  0.5273  0.0226
 3164TIP3    H1 9498   4.985   3.086   4.217 -0.2713  1.8413 -0.7285
 3164TIP3    H2 9499   5.132   3.099   4.254 -0.1509 -1.4131  0.2887
 3165TIP3   OH2 9500   3.246   4.015   4.545 -0.1317  0.2749 -0.4209
 3165TIP3    H1 9501   3.268   4.088   4.604 -1.5569 -0.0265  0.5309
 3165TIP3    H2 9502   3.282   4.042   4.460 -1.1689  2.4139 -0.2662
 3166TIP3   OH2 9503   2.760   5.588   3.142  0.2303 -0.2759 -0.1430
 3166TIP3    H1 9504   2.704   5.593   3.065  0.3047 -1.3919 -0.2925
 3166TIP3    H2 9505   2.849   5.582   3.107  0.1685 -2.4385 -0.0762
 3167TIP3   OH2 9506   1.443   2.282   2.658 -0.0221  0.0558 -0.2555
 3167TIP3    H1 9507   1.501   2.317   2.726 -1.4874  0.1039  1.0214
 3167TIP3    H2 9508   1.389   2.217   2.703  0.1686 -1.2262 -1.7956
 3168TIP3   OH2 9509   1.863   1.047   4.156 -0.5627  0.6194 -1.0711
 3168TIP3    H1 9510   1.827   1.123   4.111  0.5815  1.2910 -0.8852
 3168TIP3    H2 9511   1.811   1.041   4.237  0.8813  2.7222  0.1107
 3169TIP3   OH2 9512   2.097   3.667   1.521 -0.1368  0.4007  0.5083
 3169TIP3    H1 9513   2.066   3.655   1.432 -0.0691  0.7563  0.4325
 3169TIP3    H2 9514   2.184   3.628   1.523 -1.1443 -1.9649  1.1231
 3170TIP3   OH2 9515   2.006   5.233   0.541  0.0461  0.2132 -0.1907
 3170TIP3    H1 9516   1.992   5.139   0.534 -2.0041  0.3968  0.6981
 3170TIP3    H2 9517   1.921   5.268   0.568  1.4073  1.9745  2.2401
 3171TIP3   OH2 9518   1.491   3.392   2.870 -0.3728 -0.1391  0.3592
 3171TIP3    H1 9519   1.561   3.458   2.868 -0.6454  0.1448 -0.1361
 3171TIP3    H2 9520   1.415   3.437   2.832 -0.7468 -0.5327  0.6357
 3172TIP3   OH2 9521   6.023   1.669   3.456 -0.9058 -0.3860 -0.7830
 3172TIP3    H1 9522   5.993   1.760   3.461 -0.7083 -0.3646  0.0888
 3172TIP3    H2 9523   6.111   1.675   3.419 -0.2072 -0.0617  0.8604
 3173TIP3   OH2 9524   2.390   3.977   4.298  0.7663 -0.1629  0.0480
 3173TIP3    H1 9525   2.421   4.023   4.220 -0.7897  0.1332 -0.4330
 3173TIP3    H2 9526   2.351   3.897   4.264 -1.0468  0.5413  0.3447
 3174TIP3   OH2 9527   1.990   5.487   0.852  1.4717  0.6336  0.2580
 3174TIP3    H1 9528   1.974   5.479   0.946  1.8624  0.7017  0.3338
 3174TIP3    H2 9529   1.906   5.515   0.816  0.5277 -1.9598  0.2204
 3175TIP3   OH2 9530   5.998   0.651   1.357 -0.0097 -0.3151 -0.3331
 3175TIP3    H1 9531   6.060   0.579   1.345  1.0334  0.4995 -0.0131
 3175TIP3    H2 9532   6.040   0.726   1.314 -0.3253  0.4809  0.7115
 3176TIP3   OH2 9533   2.680   3.944   2.148  0.3886  0.5237 -0.1976
 3176TIP3    H1 9534   2.666   4.017   2.088 -0.1558  0.6683  0.1000
 3176TIP3    H2 9535   2.667   3.981   2.235  0.9301  0.2580  0.0025
 3177TIP3   OH2 9536   2.998   0.404   5.033 -0.1226  0.1668 -0.0282
 3177TIP3    H1 9537   3.092   0.411   5.045 -0.1571 -1.6276  1.9937
 3177TIP3    H2 9538   2.962   0.403   5.122 -2.1084  1.1510 -0.7447
 3178TIP3   OH2 9539   6.167   0.810   2.341 -0.3206 -0.0687 -0.3240
 3178TIP3    H1 9540   6.257   0.827   2.370 -0.2004  1.1318 -1.3283
 3178TIP3    H2 9541   6.119   0.890   2.362 -0.9828 -0.4149 -0.4873
 3179TIP3   OH2 9542   3.741   3.793   1.777 -0.4460  0.4023 -0.6135
 3179TIP3    H1 9543   3.781   3.877   1.800 -1.6423  0.9197 -0.3601
 3179TIP3    H2 9544   3.815   3.734   1.762  0.4287  0.7809  1.8390
 3180TIP3   OH2 9545   4.822   0.844   1.211 -0.2213  0.1630  0.1323
 3180TIP3    H1 9546   4.830   0.849   1.306 -2.4841  0.2721  0.3779
 3180TIP3    H2 9547   4.891   0.901   1.178 -1.1214  2.3684  1.8173
 3181TIP3   OH2 9548   4.605   2.412   2.129 -0.0691  0.1187  0.1236
 3181TIP3    H1 9549   4.534   2.477   2.126  0.0476  0.2308 -0.2103
 3181TIP3    H2 9550   4.666   2.439   2.061  0.4350  0.1773  0.5903
 3182TIP3   OH2 9551   3.933   4.333   2.360 -0.1814 -0.6400 -0.3835
 3182TIP3    H1 9552   4.011   4.388   2.356 -1.0539  0.6027 -0.6799
 3182TIP3    H2 9553   3.913   4.326   2.454 -0.3193 -0.0756 -0.3671
 3183TIP3   OH2 9554   6.223   5.814   3.804  0.0396  0.0106  0.0480
 3183TIP3    H1 9555   6.298   5.792   3.749  1.1178 -0.0310  1.4593
 3183TIP3    H2 9556   6.231   5.756   3.880 -0.6678  0.9119  0.8460
 3184TIP3   OH2 9557   6.033   1.698   1.357  0.0390 -0.1106 -0.2888
 3184TIP3    H1 9558   6.116   1.692   1.309 -0.2235 -0.7314 -0.6705
 3184TIP3    H2 9559   6.059   1.714   1.447  0.6401 -1.6847 -0.1559
 3185TIP3   OH2 9560   1.224   0.658   4.496  0.2899  0.2646 -0.0236
 3185TIP3    H1 9561   1.185   0.590   4.440 -1.6383 -0.2232  1.7836
 3185TIP3    H2 9562   1.182   0.739   4.469  0.7319  0.3400 -0.4978
 3186TIP3   OH2 9563   5.452   0.036   0.068 -0.3017  0.0968 -0.2261
 3186TIP3    H1 9564   5.480   0.046   0.159  0.1952  1.1576 -0.4798
 3186TIP3    H2 9565   5.429   0.125   0.040  1.5280  0.1561 -1.7538
 3187TIP3   OH2 9566   2.741   0.491   3.803  0.5958  0.2235 -0.3652
 3187TIP3    H1 9567   2.647   0.492   3.823  0.2772 -1.1901 -1.6268
 3187TIP3    H2 9568   2.781   0.450   3.880 -0.2716 -2.3937 -1.1838
 3188TIP3   OH2 9569   6.103   1.903   2.765 -0.2424 -0.2717  0.0996
 3188TIP3    H1 9570   6.178   1.940   2.811 -1.0228 -1.0898  2.1502
 3188TIP3    H2 9571   6.070   1.975   2.711 -0.6024  1.4930  2.5127
 3189TIP3   OH2 9572   1.188   4.473   0.943  0.6179 -0.5899 -0.2770
 3189TIP3    H1 9573   1.137   4.535   0.995  1.3785 -0.5909  0.4965
 3189TIP3    H2 9574   1.165   4.387   0.979 -0.2666 -0.7475 -1.1983
 3190TIP3   OH2 9575   5.255   4.125   4.498 -0.3565 -0.7354 -0.1901
 3190TIP3    H1 9576   5.289   4.201   4.545  1.2123 -0.8611 -1.0334
 3190TIP3    H2 9577   5.198   4.162   4.431 -3.1143 -0.5859  2.0637
 3191TIP3   OH2 9578   6.319   5.007   3.232  0.0274  0.1822 -0.0446
 3191TIP3    H1 9579   6.377   4.992   3.306  1.1084  0.2167 -0.8568
 3191TIP3    H2 9580   6.350   5.088   3.192 -2.3802  1.8084  1.1191
 3192TIP3   OH2 9581   3.892   2.453   2.868  0.3947 -0.2924 -0.4558
 3192TIP3    H1 9582   3.803   2.464   2.903  1.3208  2.5515  1.3872
 3192TIP3    H2 9583   3.932   2.389   2.927 -0.2187 -1.1146 -0.9101
 3193TIP3   OH2 9584   2.473   5.782   3.519 -0.5377  0.5099  0.2767
 3193TIP3    H1 9585   2.532   5.811   3.449 -0.1312 -0.8855  0.0248
 3193TIP3    H2 9586   2.467   5.858   3.577 -1.0063  1.7635 -1.3262
 3194TIP3   OH2 9587   2.920   4.961   4.183  1.3066 -0.1931  0.1388
 3194TIP3    H1 9588   2.956   4.890   4.236 -0.3261 -1.4272 -0.3109
 3194TIP3    H2 9589   2.979   4.967   4.108  0.8969 -1.8657 -0.3598
 3195TIP3   OH2 9590   2.529   2.653   3.001  0.2805 -0.0378 -0.4849
 3195TIP3    H1 9591   2.591   2.725   2.987  0.1330  0.1697 -0.0764
 3195TIP3    H2 9592   2.460   2.668   2.936 -0.4054  0.9264  0.4405
 3196TIP3   OH2 9593   5.953   0.268   1.785 -0.1505 -0.3687 -0.4669
 3196TIP3    H1 9594   5.895   0.321   1.840 -0.2701 -1.0768  0.1048
 3196TIP3    H2 9595   5.976   0.326   1.712  0.2659  0.7012  0.4807
 3197TIP3   OH2 9596   3.203   2.701   4.061  0.2536 -0.8195 -0.1250
 3197TIP3    H1 9597   3.167   2.743   3.983  1.2604  0.0545 -0.1380
 3197TIP3    H2 9598   3.292   2.676   4.036 -0.1116 -2.4505  0.0817
 3198TIP3   OH2 9599   1.461   4.575   2.205 -0.2045 -0.4336  0.1005
 3198TIP3    H1 9600   1.529   4.529   2.156  0.2030 -2.0272  2.0480
 3198TIP3    H2 9601   1.384   4.519   2.198 -0.4991 -0.0464  0.2252
 3199TIP3   OH2 9602   3.854   1.734   3.633 -0.5678  0.1970 -0.5786
 3199TIP3    H1 9603   3.807   1.817   3.617  0.7577  0.7444 -1.8669
 3199TIP3    H2 9604   3.881   1.739   3.724 -1.5095  0.6451 -0.3059
 3200TIP3   OH2 9605   5.082   1.199   1.083 -0.3151  0.1848 -0.3014
 3200TIP3    H1 9606   5.002   1.250   1.068 -0.4826 -0.5664 -2.3759
 3200TIP3    H2 9607   5.068   1.118   1.033  1.1869 -0.5622  0.4305
 3201TIP3   OH2 9608   2.806   1.072   0.899  0.3791 -0.2534 -0.4922
 3201TIP3    H1 9609   2.804   0.981   0.928  0.3229  0.3089  1.4360
 3201TIP3    H2 9610   2.715   1.098   0.895  0.2170 -0.9349 -3.5264
 3202TIP3   OH2 9611   1.819   0.124   2.786 -0.1907 -0.0734 -0.4425
 3202TIP3    H1 9612   1.800   0.205   2.740 -0.4757  0.2459  0.2317
 3202TIP3    H2 9613   1.763   0.059   2.745  0.4017 -0.0401 -1.3203
 3203TIP3   OH2 9614   0.319   1.000   2.190  0.7652 -0.1478 -0.0472
 3203TIP3    H1 9615   0.368   0.965   2.115  1.3058  1.6650 -0.5826
 3203TIP3    H2 9616   0.350   1.090   2.200 -0.4434  0.1581  1.3867
 3204TIP3   OH2 9617   1.390   3.637   2.813 -0.2411  0.4015  0.1478
 3204TIP3    H1 9618   1.433   3.723   2.815 -0.6898  0.6194  0.5348
 3204TIP3    H2 9619   1.301   3.655   2.782  0.3998 -0.2568 -2.2894
 3205TIP3   OH2 9620   2.951   5.728   4.682 -0.8465  0.0623 -0.5782
 3205TIP3    H1 9621   2.919   5.640   4.704 -0.1096 -0.5432 -1.8065
 3205TIP3    H2 9622   2.979   5.765   4.766  3.5506 -2.8046 -0.4418
 3206TIP3   OH2 9623   6.299   2.523   2.118  0.1285  0.0179 -0.6182
 3206TIP3    H1 9624   6.231   2.458   2.129  2.0347 -2.0696 -0.3955
 3206TIP3    H2 9625   6.292   2.549   2.026 -0.1454 -1.1629 -0.9520
 3207TIP3   OH2 9626   2.893   2.817   2.928  0.2475 -0.2959  0.4287
 3207TIP3    H1 9627   2.899   2.854   3.016  0.6149 -0.8209  0.6290
 3207TIP3    H2 9628   2.956   2.867   2.876 -0.5332  0.5461  0.2623
 3208TIP3   OH2 9629   4.654   4.646   1.610 -0.0444  0.7975 -0.2818
 3208TIP3    H1 9630   4.575   4.694   1.582 -0.3667  0.2495 -0.3227
 3208TIP3    H2 9631   4.690   4.611   1.529  1.2362  2.4936 -0.5031
 3209TIP3   OH2 9632   0.210   4.010   0.434 -0.6965 -0.4953  0.0779
 3209TIP3    H1 9633   0.305   3.996   0.440 -0.8621 -1.4200  1.0812
 3209TIP3    H2 9634   0.186   4.043   0.521 -1.2566 -0.0163 -0.2562
 3210TIP3   OH2 9635   3.714   4.893   4.677  0.4811 -0.2003  0.2946
 3210TIP3    H1 9636   3.703   4.805   4.640  2.4489 -0.1660 -0.4507
 3210TIP3    H2 9637   3.803   4.918   4.654 -0.5150  2.6420 -0.8694
 3211TIP3   OH2 9638   4.626   1.740   0.720 -0.5011 -0.0897 -0.2437
 3211TIP3    H1 9639   4.638   1.668   0.782  0.1030  1.3682  1.4020
 3211TIP3    H2 9640   4.613   1.696   0.635 -0.9587 -2.1389  0.8125
 3212TIP3   OH2 9641   2.672   4.169   2.400 -0.0185 -0.1009 -0.1136
 3212TIP3    H1 9642   2.612   4.238   2.427 -1.2750 -2.3201  3.4700
 3212TIP3    H2 9643   2.755   4.214   2.385 -0.8230  2.2615  1.8871
 3213TIP3   OH2 9644   1.752   2.321   0.336  0.5500  0.8179 -0.0573
 3213TIP3    H1 9645   1.728   2.271   0.414  0.2469 -0.2719 -0.8192
 3213TIP3    H2 9646   1.783   2.405   0.369 -0.7211  0.8306  1.1705
 3214TIP3   OH2 9647   4.051   2.881   1.231  0.0252  0.2490 -0.0036
 3214TIP3    H1 9648   4.047   2.959   1.287  0.0606  0.4654 -0.2975
 3214TIP3    H2 9649   4.052   2.808   1.292 -0.4013  0.4624  0.2713
 3215TIP3   OH2 9650   4.722   5.815   1.110  0.6967  0.3726 -0.0809
 3215TIP3    H1 9651   4.817   5.821   1.108  0.6937  0.8081  0.6597
 3215TIP3    H2 9652   4.705   5.721   1.110  1.1095  0.2915 -0.5777
 3216TIP3   OH2 9653   6.174   3.577   3.045  0.1498 -0.4323 -0.1549
 3216TIP3    H1 9654   6.086   3.548   3.070  0.5780 -1.5254  0.1314
 3216TIP3    H2 9655   6.222   3.496   3.028  0.4585  0.1724 -2.5991
 3217TIP3   OH2 9656   6.240   4.653   3.454  0.2430 -0.1252  0.0524
 3217TIP3    H1 9657   6.195   4.689   3.378  1.5484 -0.8787 -1.1436
 3217TIP3    H2 9658   6.171   4.631   3.516 -1.0627 -1.4245 -1.7707
 3218TIP3   OH2 9659   0.518   3.868   1.460  0.3542 -0.0090  0.7261
 3218TIP3    H1 9660   0.433   3.884   1.418 -0.1893  1.3744  2.2672
 3218TIP3    H2 9661   0.510   3.780   1.498  0.4645 -0.8270 -1.0365
 3219TIP3   OH2 9662   4.003   3.349   4.698 -0.0879  0.9779 -0.6748
 3219TIP3    H1 9663   3.986   3.414   4.630 -0.0100  1.3443 -0.3444
 3219TIP3    H2 9664   4.050   3.279   4.652 -0.5165  0.9741 -1.1125
 3220TIP3   OH2 9665   5.972   5.402   3.141  0.0069 -0.2530  0.3769
 3220TIP3    H1 9666   5.897   5.355   3.103  0.8027 -0.6885 -0.7019
 3220TIP3    H2 9667   5.948   5.414   3.233 -2.6878  2.1940 -0.4893
 3221TIP3   OH2 9668   0.894   5.245   0.504 -0.6720 -0.8845 -0.4776
 3221TIP3    H1 9669   0.839   5.181   0.548 -0.4782 -1.3076 -0.8454
 3221TIP3    H2 9670   0.841   5.277   0.431 -1.0567 -0.0620  0.1365
 3222TIP3   OH2 9671   4.498   0.035   0.480  1.0351 -0.2268 -0.1098
 3222TIP3    H1 9672   4.419   0.050   0.429  0.9090  1.1429  0.4400
 3222TIP3    H2 9673   4.474  -0.032   0.544 -0.1354  1.1442  0.9551
 3223TIP3   OH2 9674   5.461   2.874   1.794  0.0096  0.1572  0.4369
 3223TIP3    H1 9675   5.498   2.786   1.787  1.5307  0.8347 -0.6868
 3223TIP3    H2 9676   5.430   2.894   1.705 -1.8674  0.1560  1.0435
 3224TIP3   OH2 9677   5.747   0.666   3.977  0.1632  0.2199 -0.5830
 3224TIP3    H1 9678   5.826   0.649   3.926  1.0368 -0.8319  1.0527
 3224TIP3    H2 9679   5.691   0.590   3.960  1.1487 -0.9870  1.2340
 3225TIP3   OH2 9680   0.594   0.287   1.510  0.0115  0.3924  0.7681
 3225TIP3    H1 9681   0.617   0.335   1.589 -0.3078  1.5127  0.1935
 3225TIP3    H2 9682   0.624   0.197   1.528 -0.9321  0.3824  2.5424
 3226TIP3   OH2 9683   2.406   0.899   3.266 -0.3745  0.4099  0.0109
 3226TIP3    H1 9684   2.422   0.864   3.353  1.0597 -1.1880 -0.8209
 3226TIP3    H2 9685   2.494   0.917   3.231 -0.7345 -1.2013 -1.9197
 3227TIP3   OH2 9686   0.671   0.923   2.125 -0.3957  0.0473 -0.2359
 3227TIP3    H1 9687   0.675   0.998   2.066  0.4801 -1.9744 -2.9698
 3227TIP3    H2 9688   0.594   0.873   2.096 -1.3219  0.0804  1.9088
 3228TIP3   OH2 9689   5.406   1.343   2.925  0.1907 -0.2173 -0.0531
 3228TIP3    H1 9690   5.326   1.374   2.968 -0.0278  0.4470 -0.9056
 3228TIP3    H2 9691   5.377   1.310   2.841  0.2784 -3.7463  1.1467
 3229TIP3   OH2 9692   3.562   4.897   1.272  0.5817 -0.4044  0.4144
 3229TIP3    H1 9693   3.577   4.802   1.270 -1.4287 -0.8031  1.4393
 3229TIP3    H2 9694   3.536   4.916   1.362  0.6978  1.0877  0.1621
 3230TIP3   OH2 9695   2.964   3.011   3.816  0.1265  0.4136 -0.5837
 3230TIP3    H1 9696   2.869   2.999   3.819  0.2680 -0.9153 -0.6659
 3230TIP3    H2 9697   2.976   3.105   3.806 -1.1454  0.8057  1.1377
 3231TIP3   OH2 9698   2.984   1.488   0.787 -0.2500 -0.1711  0.2237
 3231TIP3    H1 9699   2.893   1.516   0.790 -0.1668  0.1000  0.2466
 3231TIP3    H2 9700   3.010   1.498   0.696  0.5506  2.3501  0.6449
 3232TIP3   OH2 9701   5.557   3.695   3.860 -0.2047 -0.2695  0.0025
 3232TIP3    H1 9702   5.568   3.753   3.785  0.3596  0.2952  0.5050
 3232TIP3    H2 9703   5.570   3.607   3.825  2.8077  0.1259 -0.1021
 3233TIP3   OH2 9704   3.865   4.274   4.532  0.0196  0.0470  0.1935
 3233TIP3    H1 9705   3.806   4.209   4.569 -2.3032  2.0898  0.3481
 3233TIP3    H2 9706   3.945   4.266   4.584  0.1304 -3.0492 -0.2418
 3234TIP3   OH2 9707   1.847   3.918   2.472  0.3750  0.7138 -0.0472
 3234TIP3    H1 9708   1.904   3.948   2.401  2.1634 -1.5485  0.3434
 3234TIP3    H2 9709   1.873   3.971   2.547 -0.2960  1.8794 -0.5992
 3235TIP3   OH2 9710   0.857   4.623   1.465  0.2526  0.3114 -0.3069
 3235TIP3    H1 9711   0.869   4.681   1.541 -0.4312 -0.5659  0.5011
 3235TIP3    H2 9712   0.772   4.646   1.430  0.5324  0.6581 -0.7696
 3236TIP3   OH2 9713   6.172   1.220   4.251 -0.1481 -0.1411  0.2901
 3236TIP3    H1 9714   6.188   1.145   4.193 -2.8348 -1.1408  0.6871
 3236TIP3    H2 9715   6.151   1.180   4.336  2.1885  1.2528  1.6387
 3237TIP3   OH2 9716   3.922   3.669   1.372 -0.2967  0.3335 -0.4977
 3237TIP3    H1 9717   3.858   3.614   1.416  0.6314  0.5803  1.2271
 3237TIP3    H2 9718   3.971   3.711   1.442 -0.3447  2.6570 -1.7386
 3238TIP3   OH2 9719   2.018   1.422   3.566  0.1032 -0.3242  0.4274
 3238TIP3    H1 9720   2.086   1.401   3.630 -0.7963 -1.4120  1.0656
 3238TIP3    H2 9721   1.941   1.372   3.595 -1.1203  1.2296 -0.0002
 3239TIP3   OH2 9722   2.201   0.387   1.149 -0.4222 -0.3189  0.0355
 3239TIP3    H1 9723   2.157   0.398   1.234 -0.5609 -0.0010 -0.0734
 3239TIP3    H2 9724   2.142   0.429   1.086 -0.0721 -0.0891 -0.1442
 3240TIP3   OH2 9725   4.241   3.019   3.418 -0.0789 -0.0388  0.2616
 3240TIP3    H1 9726   4.292   3.099   3.424 -0.8801  0.6672 -1.6331
 3240TIP3    H2 9727   4.297   2.958   3.370 -0.3121  0.1135 -0.2016
 3241TIP3   OH2 9728   6.143   1.413   2.433  0.2336  0.6188 -0.0789
 3241TIP3    H1 9729   6.214   1.351   2.449 -0.8974 -0.4711  0.9572
 3241TIP3    H2 9730   6.068   1.358   2.411 -0.8552  1.5723  1.0669
 3242TIP3   OH2 9731   5.491   2.372   4.148 -0.0935 -0.5167  0.0749
 3242TIP3    H1 9732   5.418   2.312   4.165 -1.1273  0.9902  1.2776
 3242TIP3    H2 9733   5.450   2.448   4.107  0.8603  0.2262  0.4630
 3243TIP3   OH2 9734   0.377   2.187   0.759 -0.1228  0.1852  0.1454
 3243TIP3    H1 9735   0.443   2.118   0.755 -1.1009 -0.7104 -1.3319
 3243TIP3    H2 9736   0.420   2.263   0.719  0.8949  0.4250  1.6164
 3244TIP3   OH2 9737   4.838   0.495   2.692  0.3581  0.3699  0.3732
 3244TIP3    H1 9738   4.903   0.430   2.719 -0.1305 -0.2545  0.0821
 3244TIP3    H2 9739   4.874   0.534   2.613 -0.0053 -0.6084 -0.3014
 3245TIP3   OH2 9740   2.138   1.241   1.881  0.1826 -0.6146  0.2806
 3245TIP3    H1 9741   2.090   1.286   1.812  1.7563 -0.1555 -0.5545
 3245TIP3    H2 9742   2.079   1.172   1.910 -1.4110  0.5935  0.0710
 3246TIP3   OH2 9743   2.812   0.302   3.983 -0.0878 -0.2537  0.3816
 3246TIP3    H1 9744   2.754   0.232   4.014 -1.9395  0.8211 -0.5460
 3246TIP3    H2 9745   2.897   0.259   3.975 -1.1750 -2.4453 -0.2543
 3247TIP3   OH2 9746   1.033   1.900   1.294 -0.0359 -0.2499  0.0633
 3247TIP3    H1 9747   1.094   1.862   1.358 -0.5316 -1.3153 -0.0671
 3247TIP3    H2 9748   1.021   1.991   1.323  1.4577 -0.0730  0.1890
 3248TIP3   OH2 9749   4.749   5.790   3.400 -0.3568  0.1038 -0.0063
 3248TIP3    H1 9750   4.655   5.793   3.385 -0.2497 -0.9196 -1.0865
 3248TIP3    H2 9751   4.787   5.794   3.312  0.7328  3.0870  0.5017
 3249TIP3   OH2 9752   3.162   2.507   0.872 -0.5612 -0.1696 -0.0704
 3249TIP3    H1 9753   3.135   2.588   0.915  1.3777  0.1899  0.6037
 3249TIP3    H2 9754   3.236   2.476   0.924  0.7263 -0.7018 -2.0903
 3250TIP3   OH2 9755   4.075   2.951   1.922 -0.1779 -0.0829 -0.3934
 3250TIP3    H1 9756   4.146   2.971   1.983 -0.0706  1.7728 -1.0486
 3250TIP3    H2 9757   4.046   3.037   1.891 -3.2266 -0.6965  0.3976
 3251TIP3   OH2 9758   5.887   1.136   3.191  0.2465  0.5076 -0.1995
 3251TIP3    H1 9759   5.890   1.108   3.100  0.6608  0.6069 -0.2216
 3251TIP3    H2 9760   5.881   1.232   3.187  0.3285  0.5164 -0.1239
 3252TIP3   OH2 9761   3.394   1.795   0.813  0.3133 -0.1902  0.0124
 3252TIP3    H1 9762   3.333   1.869   0.801 -0.5680 -1.1664 -2.2382
 3252TIP3    H2 9763   3.351   1.739   0.878 -0.1546  0.1722  0.0233
 3253TIP3   OH2 9764   0.992   0.754   3.059 -0.1225 -0.1048  0.8746
 3253TIP3    H1 9765   0.902   0.779   3.079 -0.2191 -0.0194  0.3568
 3253TIP3    H2 9766   1.045   0.799   3.124 -0.5162 -0.8624  1.7372
 3254TIP3   OH2 9767   3.016   1.942   2.543  0.0345 -0.0214  0.1038
 3254TIP3    H1 9768   2.944   1.934   2.605 -0.2621 -0.6440 -0.3097
 3254TIP3    H2 9769   2.987   1.892   2.466  1.3850 -1.2554  0.3572
 3255TIP3   OH2 9770   3.255   5.080   1.921 -0.1658 -0.0411 -0.4147
 3255TIP3    H1 9771   3.281   5.157   1.972  0.4176 -0.9343  0.6849
 3255TIP3    H2 9772   3.227   5.017   1.987  2.3929 -1.9309 -1.0063
 3256TIP3   OH2 9773   3.617   2.934   4.678 -0.4115 -0.3057  0.3195
 3256TIP3    H1 9774   3.613   2.942   4.582 -0.7919 -2.6932  0.0755
 3256TIP3    H2 9775   3.604   3.023   4.710 -2.6310  0.2562 -1.8179
 3257TIP3   OH2 9776   0.558   3.051   3.455 -0.1551  0.1632 -0.0491
 3257TIP3    H1 9777   0.598   3.116   3.396  5.1426 -0.2663  2.5228
 3257TIP3    H2 9778   0.513   3.104   3.521  1.9519  1.2782  0.6085
 3258TIP3   OH2 9779   2.916   3.199   0.517 -0.1084  0.2373  0.0299
 3258TIP3    H1 9780   2.872   3.270   0.471 -1.1996 -1.4138 -1.6065
 3258TIP3    H2 9781   2.895   3.121   0.466  1.1604 -1.2550  1.6792
 3259TIP3   OH2 9782   2.672   2.428   4.998 -0.6158  0.2350  0.0749
 3259TIP3    H1 9783   2.621   2.410   5.077  1.6742 -1.4771  1.2892
 3259TIP3    H2 9784   2.709   2.343   4.974 -0.4915  0.9003 -2.3458
 3260TIP3   OH2 9785   5.448   2.113   1.143 -0.0024 -0.2376  0.6949
 3260TIP3    H1 9786   5.501   2.099   1.221  2.7834  1.3965 -0.7482
 3260TIP3    H2 9787   5.482   2.050   1.080  0.3233  0.8838 -0.2807
 3261TIP3   OH2 9788   0.581   3.273   3.313  0.6078  0.0585  0.1125
 3261TIP3    H1 9789   0.593   3.312   3.226  2.0298 -0.7553 -0.0915
 3261TIP3    H2 9790   0.630   3.331   3.372  1.3570 -0.4890  0.0482
 3262TIP3   OH2 9791   3.815   5.853   2.668 -0.1619 -0.2725 -0.3924
 3262TIP3    H1 9792   3.818   5.766   2.630  3.5269 -1.0114  1.1048
 3262TIP3    H2 9793   3.904   5.887   2.655 -0.4548  1.7759  2.1997
 3263TIP3   OH2 9794   3.268   4.564   5.134 -0.5453 -0.1987  0.2443
 3263TIP3    H1 9795   3.201   4.617   5.091  2.2337  1.2377 -2.7427
 3263TIP3    H2 9796   3.316   4.625   5.189 -0.1297 -0.6439  0.3834
 3264TIP3   OH2 9797   3.940   5.414   2.372  0.4323  0.3975  0.1504
 3264TIP3    H1 9798   4.023   5.418   2.324 -0.2325  3.1561 -0.9955
 3264TIP3    H2 9799   3.879   5.373   2.311  0.2992  1.1324 -0.2309
 3265TIP3   OH2 9800   2.860   0.173   0.689 -0.2323  0.0255 -0.2608
 3265TIP3    H1 9801   2.843   0.079   0.699 -0.3646 -0.0014 -0.7145
 3265TIP3    H2 9802   2.773   0.213   0.693 -0.0672  0.2794  1.3940
 3266TIP3   OH2 9803   1.451   3.192   2.636 -0.5767 -0.1016  0.1976
 3266TIP3    H1 9804   1.441   3.097   2.628  1.9136 -0.4993  0.8804
 3266TIP3    H2 9805   1.413   3.213   2.721 -1.2846 -0.4470 -0.0241
 3267TIP3   OH2 9806   2.658   3.955   1.469 -0.4501  0.2778 -0.4752
 3267TIP3    H1 9807   2.688   3.938   1.380 -0.3164  1.3883 -0.6472
 3267TIP3    H2 9808   2.593   4.023   1.460 -0.5261  0.3096  0.2697
 3268TIP3   OH2 9809   0.121   3.208   0.946 -0.1308  0.3313 -0.5655
 3268TIP3    H1 9810   0.049   3.271   0.944  0.2259  0.7339 -1.5735
 3268TIP3    H2 9811   0.080   3.123   0.928 -0.2487  0.7003 -2.2329
 3269TIP3   OH2 9812   5.221   5.387   0.052  0.6488  0.2114 -0.1890
 3269TIP3    H1 9813   5.170   5.375   0.132  0.8106  0.2414 -0.0808
 3269TIP3    H2 9814   5.259   5.475   0.061  1.7104 -0.2783  0.2976
 3270TIP3   OH2 9815   0.806   3.489   2.338 -0.1390 -0.3196 -0.2976
 3270TIP3    H1 9816   0.844   3.501   2.425 -1.6330  0.2412  0.3293
 3270TIP3    H2 9817   0.835   3.565   2.288  2.3433 -1.6168 -0.9640
 3271TIP3   OH2 9818   4.207   0.037   0.715 -0.6297 -0.4113  0.5332
 3271TIP3    H1 9819   4.271  -0.034   0.705 -0.7427 -0.3803 -0.5298
 3271TIP3    H2 9820   4.258   0.117   0.701 -0.6109 -0.3009  1.1977
 3272TIP3   OH2 9821   1.537   1.548   4.274 -0.1299  0.7506 -0.5510
 3272TIP3    H1 9822   1.614   1.604   4.288  1.3649 -1.1232 -0.9487
 3272TIP3    H2 9823   1.494   1.546   4.359  0.9430  0.8564  0.0153
 3273TIP3   OH2 9824   3.467   4.279   2.118  0.1467 -0.4176  0.7498
 3273TIP3    H1 9825   3.547   4.268   2.067  0.2128 -1.6234  1.0806
 3273TIP3    H2 9826   3.490   4.249   2.206 -0.3797  0.2480  1.1293
 3274TIP3   OH2 9827   5.715   0.039   4.701 -0.2256  0.1576  0.0137
 3274TIP3    H1 9828   5.710   0.063   4.609 -0.6484  0.9868  0.2377
 3274TIP3    H2 9829   5.803   0.003   4.713  0.8363  2.5179 -0.1618
 3275TIP3   OH2 9830   4.018   2.256   2.687 -0.3709  0.4538  0.0259
 3275TIP3    H1 9831   3.939   2.201   2.693  0.5963 -0.8467  1.4600
 3275TIP3    H2 9832   3.991   2.340   2.724 -1.6335  0.7408 -1.4064
 3276TIP3   OH2 9833   2.925   3.248   4.798 -0.0757  0.1227 -0.1487
 3276TIP3    H1 9834   2.833   3.226   4.806 -0.3296  0.7914 -1.1545
 3276TIP3    H2 9835   2.966   3.169   4.764 -0.3148 -0.0834  0.0386
 3277TIP3   OH2 9836   0.761   5.594   0.039  0.6239  0.0787 -0.0335
 3277TIP3    H1 9837   0.850   5.570   0.063  0.0289  0.7292  3.4282
 3277TIP3    H2 9838   0.740   5.667   0.097 -2.5786 -0.9341  0.2689
 3278TIP3   OH2 9839   3.481   4.537   4.876  0.0769 -0.9250 -0.4652
 3278TIP3    H1 9840   3.555   4.564   4.821 -0.7812 -2.3295 -2.4288
 3278TIP3    H2 9841   3.506   4.563   4.965  2.4422 -0.4019 -1.2153
 3279TIP3   OH2 9842   0.534   1.163   3.994 -0.4898  0.4763 -0.0830
 3279TIP3    H1 9843   0.506   1.090   3.939 -0.7795  0.9605 -0.5852
 3279TIP3    H2 9844   0.624   1.181   3.965 -1.3450  2.0952 -1.8981
 3280TIP3   OH2 9845   2.366   3.649   0.651 -0.5097 -0.5653 -0.0888
 3280TIP3    H1 9846   2.403   3.661   0.738  1.5096 -3.9167 -0.3248
 3280TIP3    H2 9847   2.287   3.598   0.666 -1.6094  1.0339 -0.1239
 3281TIP3   OH2 9848   2.677   3.847   0.083  0.2042 -0.4843  0.1510
 3281TIP3    H1 9849   2.585   3.847   0.059 -0.0321 -0.7822  1.0245
 3281TIP3    H2 9850   2.704   3.755   0.076  0.1678 -0.5521  0.8863
 3282TIP3   OH2 9851   3.635   4.498   4.113 -0.0542 -0.0630 -0.3210
 3282TIP3    H1 9852   3.648   4.465   4.202 -1.7888  1.0986  0.4208
 3282TIP3    H2 9853   3.711   4.466   4.064  0.9346 -0.7425  1.5627
 3283TIP3   OH2 9854   1.158   2.606   3.781  0.1940 -0.7903 -0.2428
 3283TIP3    H1 9855   1.150   2.637   3.691  2.2729 -0.8444 -0.5027
 3283TIP3    H2 9856   1.122   2.517   3.779  0.9781 -1.1115 -1.2454
 3284TIP3   OH2 9857   1.382   0.285   5.172 -0.4339 -0.5192  0.2807
 3284TIP3    H1 9858   1.394   0.378   5.153 -0.7283 -0.8598 -1.7924
 3284TIP3    H2 9859   1.462   0.258   5.217 -0.5677  0.8270  1.3913
 3285TIP3   OH2 9860   6.037   5.771   3.005 -0.2062  0.0237 -0.0308
 3285TIP3    H1 9861   6.006   5.744   3.091 -0.9416  1.8093  0.3111
 3285TIP3    H2 9862   6.073   5.859   3.019  1.2716 -0.3655 -1.2251
 3286TIP3   OH2 9863   4.275   1.354   4.654  0.3129 -0.2645 -0.5596
 3286TIP3    H1 9864   4.256   1.278   4.600 -1.4801 -0.5434  0.4076
 3286TIP3    H2 9865   4.371   1.360   4.653  0.3885 -0.7749 -2.9868
 3287TIP3   OH2 9866   0.310   3.564   2.972 -0.2817  0.0497 -0.1039
 3287TIP3    H1 9867   0.305   3.468   2.979 -1.8875  0.1443  0.4074
 3287TIP3    H2 9868   0.285   3.595   3.059 -1.8920  0.9460 -0.8349
 3288TIP3   OH2 9869   5.812   4.916   0.279  0.1966  0.1483  0.3971
 3288TIP3    H1 9870   5.717   4.921   0.291  0.1745  0.9599 -0.0178
 3288TIP3    H2 9871   5.848   4.975   0.345  0.4033 -0.1150  0.5174
 3289TIP3   OH2 9872   1.322   5.008   3.844  0.2369  0.6288  0.7428
 3289TIP3    H1 9873   1.358   5.009   3.755  0.5994 -0.7492  0.8586
 3289TIP3    H2 9874   1.266   5.086   3.847 -0.0318  0.5374 -0.7982
 3290TIP3   OH2 9875   0.493   1.975   3.354  0.1996 -0.3510 -0.3938
 3290TIP3    H1 9876   0.559   1.920   3.397  0.8090  2.0193  1.9665
 3290TIP3    H2 9877   0.537   2.007   3.275  0.4201 -1.8324 -0.9054
 3291TIP3   OH2 9878   3.720   5.318   2.236 -0.3343 -0.2697 -0.0625
 3291TIP3    H1 9879   3.692   5.349   2.150  1.2376  1.2868 -0.0709
 3291TIP3    H2 9880   3.707   5.224   2.233 -1.8882 -0.0566 -1.3853
 3292TIP3   OH2 9881   5.294   1.372   0.507  0.0223 -0.3374 -0.3891
 3292TIP3    H1 9882   5.278   1.424   0.586  1.8152  0.0224 -0.2289
 3292TIP3    H2 9883   5.206   1.348   0.476 -0.7911  1.4267  0.4280
 3293TIP3   OH2 9884   4.775   3.551   5.200  0.2029  0.5404 -0.3370
 3293TIP3    H1 9885   4.789   3.465   5.159  0.0091 -0.1535  1.0058
 3293TIP3    H2 9886   4.863   3.586   5.212  0.2462  1.1198 -2.0244
 3294TIP3   OH2 9887   2.276   5.959   1.645  0.0851 -0.1781 -0.0733
 3294TIP3    H1 9888   2.322   5.901   1.584  1.1697  0.3374  0.2231
 3294TIP3    H2 9889   2.247   5.902   1.716  3.5153 -0.1052  1.6289
 3295TIP3   OH2 9890   2.119   5.972   5.105 -0.2933  0.4430  0.3924
 3295TIP3    H1 9891   2.026   5.950   5.101 -0.6540  1.8217  0.6766
 3295TIP3    H2 9892   2.148   5.971   5.013 -1.0393  1.7663  0.1184
 3296TIP3   OH2 9893   0.584   1.591   5.142 -0.0247 -0.1326  0.1351
 3296TIP3    H1 9894   0.558   1.600   5.051 -0.1051  0.5339  0.2145
 3296TIP3    H2 9895   0.581   1.497   5.160 -1.5627 -0.1378 -0.0925
 3297TIP3   OH2 9896   4.012   4.175   0.329 -0.0500  0.3939 -0.3031
 3297TIP3    H1 9897   4.038   4.263   0.354  0.3811 -0.0765  0.9782
 3297TIP3    H2 9898   4.016   4.124   0.410  2.2052 -1.4083 -1.4161
 3298TIP3   OH2 9899   1.997   0.405   5.166 -0.4490  0.3519  0.1884
 3298TIP3    H1 9900   2.004   0.497   5.139  1.1221 -0.0443 -0.8700
 3298TIP3    H2 9901   2.079   0.387   5.212 -1.2197 -0.2381  1.4049
 3299TIP3   OH2 9902   0.647   5.536   3.099 -0.0514 -0.0927 -0.1259
 3299TIP3    H1 9903   0.677   5.513   3.187  1.0833  0.5856 -0.3286
 3299TIP3    H2 9904   0.706   5.490   3.041  0.1653  0.6865 -0.5326
 3300TIP3   OH2 9905   0.383   4.355   2.253  0.2894  0.1934 -0.7505
 3300TIP3    H1 9906   0.439   4.433   2.256  0.4364  0.0918 -0.8259
 3300TIP3    H2 9907   0.311   4.375   2.312 -0.4879  1.0127 -1.9272
 3301TIP3   OH2 9908   4.329   2.272   5.026 -0.6740 -0.2931  0.2574
 3301TIP3    H1 9909   4.329   2.243   4.935 -1.6371  0.6849 -0.0701
 3301TIP3    H2 9910   4.244   2.314   5.038 -0.5024 -0.2855  1.5710
 3302TIP3   OH2 9911   1.768   1.599   3.593  0.4384  0.3846 -0.2873
 3302TIP3    H1 9912   1.816   1.549   3.659  0.1431  0.3169 -0.1188
 3302TIP3    H2 9913   1.785   1.691   3.615 -0.5703  0.3802  0.5822
 3303TIP3   OH2 9914   1.848   2.006   0.028 -0.2636  0.1287 -0.5941
 3303TIP3    H1 9915   1.783   2.029  -0.038  0.9253  2.2402 -1.1415
 3303TIP3    H2 9916   1.803   2.019   0.112 -0.6355  1.3900 -0.9677
 3304TIP3   OH2 9917   3.127   4.194   0.161  0.3507 -0.3048 -0.0353
 3304TIP3    H1 9918   3.160   4.194   0.071 -0.4359 -0.2317 -0.3351
 3304TIP3    H2 9919   3.204   4.178   0.215  1.2336  1.8377 -0.5644
 3305TIP3   OH2 9920   2.658   0.559   1.719  0.3561  0.5290  0.0610
 3305TIP3    H1 9921   2.576   0.600   1.692 -0.9253 -0.2536  2.4281
 3305TIP3    H2 9922   2.716   0.632   1.741 -0.1204  1.0856 -0.5249
 3306TIP3   OH2 9923   2.005   1.691   4.417 -0.2115  0.9086  0.3141
 3306TIP3    H1 9924   2.016   1.674   4.510  0.2404  0.5540  0.2003
 3306TIP3    H2 9925   2.045   1.615   4.374 -0.6634  0.9346 -0.1646
 3307TIP3   OH2 9926   3.107   5.673   0.503 -0.3086 -0.0808 -0.1246
 3307TIP3    H1 9927   3.133   5.736   0.437  0.4378 -0.3178 -0.0701
 3307TIP3    H2 9928   3.037   5.622   0.463 -1.6753  1.4672  0.2188
 3308TIP3   OH2 9929   3.142   4.478   2.198  0.2863  0.9580 -0.3734
 3308TIP3    H1 9930   3.112   4.454   2.110 -0.5392  0.1006  0.1332
 3308TIP3    H2 9931   3.163   4.395   2.240  0.9356  1.3820  0.1651
 3309TIP3   OH2 9932   3.876   4.826   4.928  0.1780 -0.3274 -0.1857
 3309TIP3    H1 9933   3.807   4.821   4.862  0.0847  0.6676 -0.1849
 3309TIP3    H2 9934   3.915   4.913   4.915  0.1039 -0.0733  1.1158
 3310TIP3   OH2 9935   6.236   5.028   0.066  0.7825 -0.1363 -0.0355
 3310TIP3    H1 9936   6.249   5.039  -0.028 -1.8310  1.9133 -0.2565
 3310TIP3    H2 9937   6.161   4.969   0.073  1.8153 -1.4057  0.8553
 3311TIP3   OH2 9938   0.124   1.077   4.863  0.0437 -0.4161 -0.0969
 3311TIP3    H1 9939   0.202   1.118   4.827 -0.1793  2.6496  2.3645
 3311TIP3    H2 9940   0.156   1.003   4.914  1.2044 -0.0777 -0.3190
 3312TIP3   OH2 9941   4.462   4.207   2.812 -0.4786  0.2002 -0.2829
 3312TIP3    H1 9942   4.533   4.169   2.760 -0.4299  0.1461 -0.1768
 3312TIP3    H2 9943   4.415   4.131   2.847 -0.3637  0.2395 -0.0446
 3313TIP3   OH2 9944   5.123   1.020   4.115  0.1231 -0.2492 -0.3037
 3313TIP3    H1 9945   5.165   1.044   4.033 -2.9755 -1.3401 -2.3980
 3313TIP3    H2 9946   5.181   0.955   4.154  0.8292 -1.0771 -2.5731
 3314TIP3   OH2 9947   5.307   4.198   2.370 -0.6685 -0.3256  0.2660
 3314TIP3    H1 9948   5.364   4.243   2.431 -0.1789  0.8582 -1.0069
 3314TIP3    H2 9949   5.359   4.124   2.338 -0.2270  0.1455 -0.1130
 3315TIP3   OH2 9950   1.980   1.619   0.766 -0.2161 -0.1464 -0.0866
 3315TIP3    H1 9951   2.029   1.546   0.728  1.3463  0.8926 -0.1560
 3315TIP3    H2 9952   1.952   1.672   0.691 -0.2882 -0.0200  0.0277
 3316TIP3   OH2 9953   6.216   2.887   5.170 -0.2753 -0.4276 -0.0785
 3316TIP3    H1 9954   6.284   2.944   5.134 -1.5872  0.0179 -2.0379
 3316TIP3    H2 9955   6.252   2.855   5.253  2.8827 -1.3338 -1.6494
 3317TIP3   OH2 9956   5.636   4.320   0.300  0.4611 -0.3854  0.4372
 3317TIP3    H1 9957   5.554   4.355   0.334  1.5182  1.1390  1.5581
 3317TIP3    H2 9958   5.654   4.372   0.221  0.3871 -0.6660  0.2342
 3318TIP3   OH2 9959   4.274   3.555   4.970 -0.5038 -0.1531  0.0362
 3318TIP3    H1 9960   4.224   3.478   4.998 -0.8420  0.5520  1.3990
 3318TIP3    H2 9961   4.324   3.524   4.894 -1.5999 -1.3681 -0.2275
 3319TIP3   OH2 9962   5.329   4.026   0.388  0.5088  0.1125 -0.3824
 3319TIP3    H1 9963   5.407   4.004   0.338  1.1456  0.6581  0.3424
 3319TIP3    H2 9964   5.278   3.945   0.390  1.1941 -0.3372 -0.6015
 3320TIP3   OH2 9965   3.600   1.115   1.007  0.2797  0.0623  0.3678
 3320TIP3    H1 9966   3.690   1.147   1.008  0.6094 -0.7693 -0.6160
 3320TIP3    H2 9967   3.546   1.194   1.007  1.0651  0.6426 -1.2394
 3321TIP3   OH2 9968   3.287   0.062   2.347 -0.0005  0.3524 -0.4715
 3321TIP3    H1 9969   3.366   0.072   2.399  0.3859 -0.3314 -0.9018
 3321TIP3    H2 9970   3.257  -0.028   2.365 -0.5791  0.5423 -0.4464
 3322TIP3   OH2 9971   3.719   3.693   3.427  0.3710  0.1695  0.0243
 3322TIP3    H1 9972   3.671   3.769   3.460 -0.4713  0.6634 -2.1302
 3322TIP3    H2 9973   3.687   3.682   3.337  2.4083 -1.1249 -0.6074
 3323TIP3   OH2 9974   1.917   0.520   4.835 -0.0290  0.2133  0.2628
 3323TIP3    H1 9975   1.834   0.543   4.793 -0.6506 -0.9649  0.8022
 3323TIP3    H2 9976   1.922   0.577   4.911 -1.5956 -1.3457  1.6332
 3324TIP3   OH2 9977   3.856   0.871   0.027  0.3929 -0.5269 -1.0573
 3324TIP3    H1 9978   3.809   0.947  -0.007  0.6383  0.3648  0.4925
 3324TIP3    H2 9979   3.946   0.902   0.041  0.4770 -1.0759 -0.3122
 3325TIP3   OH2 9980   5.128   5.355   1.211  0.3926  0.3018  0.6050
 3325TIP3    H1 9981   5.113   5.285   1.275  0.7386  0.9577  1.4219
 3325TIP3    H2 9982   5.040   5.389   1.194  0.4083  0.9302  1.6814
 3326TIP3   OH2 9983   0.947   0.201   2.637  0.3090 -0.0829  0.0453
 3326TIP3    H1 9984   0.986   0.271   2.689  2.1410  0.4081 -1.8875
 3326TIP3    H2 9985   1.006   0.190   2.563 -0.4034 -3.0675 -0.2001
 3327TIP3   OH2 9986   1.827   5.445   2.554 -0.5962  0.5983 -0.2030
 3327TIP3    H1 9987   1.791   5.358   2.537  1.6383 -0.7367  1.3563
 3327TIP3    H2 9988   1.813   5.493   2.472 -2.4954 -0.9516 -0.8709
 3328TIP3   OH2 9989   0.099   4.147   1.845 -0.3789 -0.0043 -0.1829
 3328TIP3    H1 9990   0.143   4.226   1.813 -0.1029 -0.3996 -0.7913
 3328TIP3    H2 9991   0.008   4.175   1.857 -0.4984  0.1642 -1.3342
 3329TIP3   OH2 9992   1.114   0.882   4.356 -0.0830  0.0355  0.1429
 3329TIP3    H1 9993   1.022   0.905   4.368 -0.0793  0.9580 -1.3585
 3329TIP3    H2 9994   1.129   0.890   4.262  1.0241 -2.1343  0.0585
 3330TIP3   OH2 9995   6.071   1.122   0.246  0.1738  0.0846 -0.0096
 3330TIP3    H1 9996   6.113   1.125   0.332 -0.5015 -1.0982  0.3972
 3330TIP3    H2 9997   6.018   1.042   0.249 -1.4116  1.0697 -0.8124
 3331TIP3   OH2 9998   4.029   2.650   0.354 -1.0380 -0.3289  0.5381
 3331TIP3    H1 9999   4.002   2.602   0.275  1.6599 -1.4833  0.2120
 3331TIP3    H210000   4.054   2.737   0.321 -0.5290 -0.5982  0.1898
 3332TIP3   OH210001   2.223   5.530   0.729 -0.2469 -0.1939 -0.8998
 3332TIP3    H110002   2.135   5.516   0.765  0.5687  0.7386  1.6037
 3332TIP3    H210003   2.252   5.443   0.702 -0.9213 -0.9549  0.7352
 3333TIP3   OH210004   1.744   5.081   1.022 -0.1121 -0.0023  0.0734
 3333TIP3    H110005   1.789   5.001   0.995 -0.0105 -0.3797  1.3081
 3333TIP3    H210006   1.738   5.133   0.942 -0.1987 -1.2455 -0.7631
 3334TIP3   OH210007   1.510   1.595   3.725  0.0975 -0.2461 -0.3643
 3334TIP3    H110008   1.587   1.538   3.725 -0.5187 -1.1724 -2.3470
 3334TIP3    H210009   1.541   1.677   3.685  0.1960 -0.4413 -0.6985
 3335TIP3   OH210010   3.216   1.371   3.354 -0.1112  0.6783 -0.8714
 3335TIP3    H110011   3.178   1.424   3.424  0.0558  2.3024 -1.9413
 3335TIP3    H210012   3.144   1.317   3.322 -0.0145 -0.6145  0.9892
 3336TIP3   OH210013   0.972   4.598   3.160 -0.6736 -0.2655 -0.1135
 3336TIP3    H110014   1.007   4.577   3.073 -0.0204  0.1092  0.0519
 3336TIP3    H210015   1.042   4.574   3.221 -1.0333 -0.2978  0.2934
 3337TIP3   OH210016   4.045   5.330   0.374  0.1826  0.2746 -0.2504
 3337TIP3    H110017   4.049   5.390   0.300  1.7325 -0.8285 -1.1275
 3337TIP3    H210018   4.090   5.251   0.343  1.0769 -0.1447  1.9252
 3338TIP3   OH210019   2.404   3.622   0.093 -0.0392  0.2068 -0.9337
 3338TIP3    H110020   2.330   3.595   0.149 -0.2793 -0.2479 -1.4580
 3338TIP3    H210021   2.472   3.557   0.111  0.6194  1.2016  0.3027
 3339TIP3   OH210022   0.690   0.338   2.256 -0.2141  0.0856  0.7036
 3339TIP3    H110023   0.671   0.402   2.187 -0.2579 -0.6211  0.0422
 3339TIP3    H210024   0.618   0.275   2.251  1.2056 -1.5348 -0.5253
 3340TIP3   OH210025   0.331   1.885   0.816 -0.0337  0.1359  0.1800
 3340TIP3    H110026   0.319   1.966   0.867  2.1920  0.0593  0.9323
 3340TIP3    H210027   0.362   1.915   0.731  0.4048  0.1183  0.3278
 3341TIP3   OH210028   0.984   4.738   3.491 -0.2011 -0.0755 -0.1089
 3341TIP3    H110029   1.006   4.805   3.556  1.4571 -0.4362 -0.2634
 3341TIP3    H210030   0.948   4.788   3.418 -0.7583  0.4584  0.5048
 3342TIP3   OH210031   4.794   4.221   0.726  0.0724  0.3167 -0.1334
 3342TIP3    H110032   4.757   4.133   0.713 -1.2419  0.6257  1.2360
 3342TIP3    H210033   4.740   4.260   0.795 -0.2163  2.6890 -1.5742
 3343TIP3   OH210034   2.837   2.227   3.182 -0.2777  0.0765  0.4104
 3343TIP3    H110035   2.924   2.262   3.201 -0.1814 -0.0867  0.2837
 3343TIP3    H210036   2.826   2.240   3.088 -0.3512  0.0145  0.4100
 3344TIP3   OH210037   1.306   4.715   2.607  0.3945 -0.1132  0.5008
 3344TIP3    H110038   1.252   4.642   2.639 -0.0149 -0.8935 -1.7569
 3344TIP3    H210039   1.246   4.766   2.553  1.5826 -0.2710 -1.0261
 3345TIP3   OH210040   4.077   5.122   1.751 -0.7444  0.6233 -0.4661
 3345TIP3    H110041   4.053   5.038   1.713 -1.4097  0.3793  0.4651
 3345TIP3    H210042   4.012   5.183   1.716 -0.8944  0.5482 -0.3185
 3346TIP3   OH210043   6.255   3.488   4.525  0.3263 -0.3799  0.2168
 3346TIP3    H110044   6.250   3.483   4.430  1.3677  0.0486  0.1215
 3346TIP3    H210045   6.245   3.397   4.554  1.5098 -0.7398 -0.4117
 3347TIP3   OH210046   4.606   2.363   0.076  0.2696 -0.3169  0.0806
 3347TIP3    H110047   4.700   2.367   0.092  0.1345  0.1303  0.7891
 3347TIP3    H210048   4.575   2.290   0.130 -0.1581  1.0826  1.7838
 3348TIP3   OH210049   4.243   4.400   2.708 -0.2302 -0.1127 -0.0219
 3348TIP3    H110050   4.285   4.348   2.639  3.2449  2.2402  0.0781
 3348TIP3    H210051   4.301   4.389   2.784 -1.5961  0.8119  1.2032
 3349TIP3   OH210052   3.675   2.875   1.431 -0.3799 -0.4872  0.5262
 3349TIP3    H110053   3.668   2.849   1.339 -0.9367 -1.2348  0.7656
 3349TIP3    H210054   3.679   2.791   1.478  0.4256 -0.1108  1.1465
 3350TIP3   OH210055   0.312   2.428   5.183 -0.2876 -0.5634 -0.6642
 3350TIP3    H110056   0.318   2.499   5.118  0.6443  0.7409  0.7640
 3350TIP3    H210057   0.229   2.444   5.227  0.1788  0.0080  0.0302
 3351TIP3   OH210058   2.109   3.862   2.901  0.4207 -1.0262  0.0679
 3351TIP3    H110059   2.028   3.834   2.857 -1.0404  0.5397  1.6399
 3351TIP3    H210060   2.178   3.812   2.856 -1.0662 -0.4739 -3.1533
 3352TIP3   OH210061   3.668   3.727   0.729 -0.1208 -0.5257  0.1604
 3352TIP3    H110062   3.619   3.697   0.652  1.1624 -2.0883 -0.1140
 3352TIP3    H210063   3.756   3.745   0.695  0.2024 -0.3165  1.0868
 3353TIP3   OH210064   4.158   5.820   4.854 -0.1917  0.6421 -0.4341
 3353TIP3    H110065   4.087   5.768   4.818  0.0449  1.4628 -2.2071
 3353TIP3    H210066   4.148   5.906   4.813  1.6691  0.8438 -0.5542
 3354TIP3   OH210067   5.572   1.199   2.562 -0.5429  0.0663 -0.3856
 3354TIP3    H110068   5.618   1.148   2.628  0.2630  0.1853 -0.8509
 3354TIP3    H210069   5.596   1.159   2.479  0.9144  1.7773 -0.8541
 3355TIP3   OH210070   4.634   1.807   3.708  0.1934 -0.5908 -0.1613
 3355TIP3    H110071   4.661   1.826   3.798 -1.3202 -0.9444  0.4038
 3355TIP3    H210072   4.625   1.893   3.668 -0.5820 -0.3507  0.4976
 3356TIP3   OH210073   2.787   4.815   0.068 -0.1251 -0.8472 -0.1754
 3356TIP3    H110074   2.745   4.738   0.029 -0.5077 -1.1065  0.7191
 3356TIP3    H210075   2.879   4.809   0.041 -0.2999 -1.2380 -0.6889
 3357TIP3   OH210076   3.819   1.285   4.595 -0.2748  0.4370 -0.5513
 3357TIP3    H110077   3.753   1.291   4.526  1.3383 -0.5634 -2.2471
 3357TIP3    H210078   3.826   1.374   4.629 -0.2268  1.2478 -2.5477
 3358TIP3   OH210079   5.518   2.265   3.615  0.6071  0.4222 -0.2984
 3358TIP3    H110080   5.592   2.325   3.617 -0.0644  1.2559  0.9691
 3358TIP3    H210081   5.505   2.247   3.522  2.1581  0.5358 -0.5736
 3359TIP3   OH210082   1.948   2.654   4.018  0.2354  0.1973 -0.1542
 3359TIP3    H110083   1.883   2.594   4.055  0.9833 -0.8855 -0.5399
 3359TIP3    H210084   1.903   2.696   3.945 -0.7389  1.1612  0.9645
 3360TIP3   OH210085   4.514   2.009   3.548  0.1580 -0.0563 -0.3109
 3360TIP3    H110086   4.487   2.097   3.575  1.3326  0.5291 -0.9652
 3360TIP3    H210087   4.578   2.023   3.478  0.0445 -1.4476 -0.7355
 3361TIP3   OH210088   1.606   3.810   4.918 -0.2420  0.0230 -0.4460
 3361TIP3    H110089   1.593   3.845   4.830  1.2082  1.6283 -0.0672
 3361TIP3    H210090   1.690   3.847   4.947 -0.5185 -0.7342  1.4754
 3362TIP3   OH210091   4.225   0.810   4.468 -0.3923  0.3015  0.0561
 3362TIP3    H110092   4.252   0.788   4.378 -1.8993  0.1886 -0.4018
 3362TIP3    H210093   4.270   0.747   4.523 -0.0324 -0.1152 -0.7021
 3363TIP3   OH210094   0.843   2.433   1.589 -0.3044 -0.2028 -0.3453
 3363TIP3    H110095   0.768   2.463   1.641 -0.2202 -1.0562  0.2998
 3363TIP3    H210096   0.920   2.463   1.638 -0.2261 -0.4866 -0.2934
 3364TIP3   OH210097   1.780   5.351   0.584  0.9125 -0.0545  0.7396
 3364TIP3    H110098   1.746   5.281   0.640  0.6064  0.4983  1.2605
 3364TIP3    H210099   1.753   5.432   0.628  1.7851  0.3972  0.4677
 3365TIP3   OH210100   4.026   0.693   1.254 -0.0747  0.1501  0.3147
 3365TIP3    H110101   4.102   0.699   1.312 -0.4237  1.0352  0.6925
 3365TIP3    H210102   3.952   0.721   1.308 -0.5361  0.1314 -0.2970
 3366TIP3   OH210103   4.958   2.116   2.179  0.1220  0.1523 -1.0227
 3366TIP3    H110104   4.955   2.135   2.273  1.3104  1.8944 -1.2918
 3366TIP3    H210105   4.918   2.193   2.138 -1.0019 -0.8816 -1.9397
 3367TIP3   OH210106   1.827   3.380   5.157 -0.2474 -0.1071  0.0756
 3367TIP3    H110107   1.809   3.293   5.122  1.3374 -1.1582  1.6978
 3367TIP3    H210108   1.906   3.409   5.110  0.4462 -0.4820  0.9634
 3368TIP3   OH210109   5.382   3.992   4.223 -0.6888 -0.1398  0.3882
 3368TIP3    H110110   5.334   3.910   4.219  0.3943 -0.7675 -0.3644
 3368TIP3    H210111   5.418   3.995   4.312 -1.3978 -0.0865  0.6725
 3369TIP3   OH210112   3.589   1.904   3.849 -0.3637 -0.4085 -0.8043
 3369TIP3    H110113   3.652   1.942   3.788 -0.8595  0.6980 -0.6481
 3369TIP3    H210114   3.578   1.970   3.917  0.7941 -1.9190  0.9679
 3370TIP3   OH210115   5.026   0.517   1.854  0.0846  0.1233  0.2724
 3370TIP3    H110116   5.028   0.568   1.935  1.3264  0.1906  0.2184
 3370TIP3    H210117   5.078   0.439   1.873  0.1870  0.0265 -0.3835
 3371TIP3   OH210118   1.472   2.020   4.646  0.5043 -0.0070  0.7031
 3371TIP3    H110119   1.399   2.054   4.698  0.1932 -0.6446  0.6915
 3371TIP3    H210120   1.549   2.030   4.702  0.2391 -0.3088  1.1190
 3372TIP3   OH210121   5.205   4.509   0.706 -0.6085 -0.1314 -0.1928
 3372TIP3    H110122   5.167   4.437   0.654  0.5808  0.9967 -2.8047
 3372TIP3    H210123   5.156   4.587   0.677  0.1490  0.5518  0.3396
 3373TIP3   OH210124   1.831   6.005   2.652  0.5259  0.2482  0.1221
 3373TIP3    H110125   1.829   5.919   2.609  0.3743  0.4492 -0.2746
 3373TIP3    H210126   1.875   5.989   2.736 -1.3093 -0.6501  0.9839
 3374TIP3   OH210127   2.014   2.773   3.529  0.4319 -0.2709  0.4869
 3374TIP3    H110128   1.991   2.810   3.443 -1.0953 -0.6292  0.7004
 3374TIP3    H210129   1.937   2.721   3.553  0.7335  0.0179  2.1906
 3375TIP3   OH210130   1.529   4.477   4.862  0.3020  0.5061  0.1394
 3375TIP3    H110131   1.470   4.453   4.790  0.3455  0.7560  0.0224
 3375TIP3    H210132   1.524   4.402   4.922 -0.7558  0.8767  0.5248
 3376TIP3   OH210133   2.879   2.404   1.858 -0.0260  0.8493  0.4427
 3376TIP3    H110134   2.944   2.398   1.927 -0.3091 -1.3981  0.5929
 3376TIP3    H210135   2.898   2.330   1.800 -1.0332  1.5018 -0.7708
 3377TIP3   OH210136   2.818   1.342   3.093 -0.5564  0.2027 -0.5751
 3377TIP3    H110137   2.737   1.388   3.116 -0.9091 -0.3905 -0.5885
 3377TIP3    H210138   2.862   1.328   3.177  1.1744  3.4089 -0.8317
 3378TIP3   OH210139   0.404   3.393   3.917  0.2865 -0.0421  0.3827
 3378TIP3    H110140   0.463   3.327   3.882 -1.4672 -2.0746  1.0849
 3378TIP3    H210141   0.415   3.388   4.012 -0.1274  0.4318  0.4639
 3379TIP3   OH210142   0.443   4.941   1.944  0.0308  0.6695 -0.5098
 3379TIP3    H110143   0.536   4.946   1.922  0.5610 -0.6891  1.2821
 3379TIP3    H210144   0.404   4.895   1.870  1.3214 -1.4790  0.0756
 3380TIP3   OH210145   6.221   5.044   2.078 -0.2004  0.1685  0.0685
 3380TIP3    H110146   6.163   5.040   2.154  1.2472 -1.1230  1.1782
 3380TIP3    H210147   6.273   4.964   2.083  1.2276  0.9486 -1.2392
 3381TIP3   OH210148   3.076   3.158   0.963  0.3640 -0.0116  0.1904
 3381TIP3    H110149   3.133   3.165   1.039 -1.9872 -0.4792  2.1544
 3381TIP3    H210150   3.035   3.072   0.972 -0.9247  0.4534 -0.8733
 3382TIP3   OH210151   3.208   3.417   1.419 -0.0937 -0.2099  0.4384
 3382TIP3    H110152   3.162   3.449   1.342 -1.2555 -3.9097 -0.5859
 3382TIP3    H210153   3.159   3.453   1.493 -0.7197  1.0450 -0.5546
 3383TIP3   OH210154   1.534   3.438   1.191  0.2925 -0.2535  0.0752
 3383TIP3    H110155   1.606   3.408   1.136  0.9647 -3.1976  2.3210
 3383TIP3    H210156   1.475   3.362   1.197  0.0714  0.0345  3.0206
 3384TIP3   OH210157   1.441   4.126   0.090 -0.2436  0.2354 -0.1021
 3384TIP3    H110158   1.448   4.031   0.080 -0.1658  0.2953 -0.6950
 3384TIP3    H210159   1.398   4.155   0.010 -0.3699  0.6901  0.1272
 3385TIP3   OH210160   0.976   5.999   3.745 -0.3746  0.0517  0.3597
 3385TIP3    H110161   0.983   5.948   3.826  0.3109  0.8550  0.8320
 3385TIP3    H210162   1.062   5.992   3.704 -0.5495  0.0972 -0.0216
 3386TIP3   OH210163   4.921   2.432   0.716  0.3596  0.2867 -0.6156
 3386TIP3    H110164   4.869   2.388   0.783  1.5846  0.7816  0.6979
 3386TIP3    H210165   4.988   2.368   0.692 -0.8591 -0.4080 -2.4182
 3387TIP3   OH210166   4.574   0.856   1.070  0.0412 -0.0042 -0.6139
 3387TIP3    H110167   4.650   0.830   1.122  0.1281  1.4948  0.0334
 3387TIP3    H210168   4.611   0.900   0.994 -0.1448  2.2973  0.5416
 3388TIP3   OH210169   6.013   5.864   2.420 -0.4220  0.5368 -0.1596
 3388TIP3    H110170   5.983   5.954   2.407 -1.5196  0.5423  1.9711
 3388TIP3    H210171   6.004   5.849   2.514  0.0720 -1.6918 -0.4091
 3389TIP3   OH210172   1.730   1.374   0.189  0.2885  0.2393 -0.7545
 3389TIP3    H110173   1.735   1.404   0.280  1.6931  1.1774 -1.1178
 3389TIP3    H210174   1.772   1.288   0.190  1.2722  0.7071 -0.6853
 3390TIP3   OH210175   5.379   0.906   2.367  0.4010 -0.1438 -0.2127
 3390TIP3    H110176   5.417   0.847   2.432  3.1596  1.9547  0.2562
 3390TIP3    H210177   5.445   0.912   2.298  0.6579  2.9717  0.1781
 3391TIP3   OH210178   3.909   3.380   3.800 -0.0538 -0.3056 -0.0762
 3391TIP3    H110179   4.001   3.400   3.815  0.3377 -2.0027 -0.0204
 3391TIP3    H210180   3.868   3.389   3.886  0.0923  0.2661 -0.0634
 3392TIP3   OH210181   0.031   5.828   0.298 -0.4261  0.2208  0.5141
 3392TIP3    H110182   0.080   5.859   0.374  1.6607 -0.4934 -0.4406
 3392TIP3    H210183   0.026   5.904   0.240 -2.1428  0.8046  1.3757
 3393TIP3   OH210184   0.753   3.618   4.216  0.0437  0.2679 -0.2969
 3393TIP3    H110185   0.730   3.530   4.245  2.2626 -0.4910 -0.6422
 3393TIP3    H210186   0.787   3.661   4.294  0.4744  0.2634 -0.4813
 3394TIP3   OH210187   0.312   0.768   4.070 -0.4172  0.1637 -0.4151
 3394TIP3    H110188   0.308   0.762   3.975 -0.7747  3.7974 -0.7631
 3394TIP3    H210189   0.404   0.787   4.089 -0.4536  0.0103 -0.0859
 3395TIP3   OH210190   3.853   4.757   3.909 -0.1877 -0.1439 -0.0791
 3395TIP3    H110191   3.758   4.752   3.897  0.1050 -1.7701 -2.5959
 3395TIP3    H210192   3.880   4.666   3.918  1.3546  0.0137 -2.3493
 3396TIP3   OH210193   6.076   1.509   2.732 -0.3479 -0.2513 -0.1732
 3396TIP3    H110194   5.984   1.514   2.760 -0.1429  0.9406  0.3501
 3396TIP3    H210195   6.071   1.508   2.636 -0.9217 -0.7413 -0.1500
 3397TIP3   OH210196   3.786   5.001   0.176 -0.2996  0.5563 -0.0247
 3397TIP3    H110197   3.782   5.093   0.151 -1.8493  0.6948  0.5957
 3397TIP3    H210198   3.791   4.953   0.094 -1.1412  1.1450 -0.4273
 3398TIP3   OH210199   6.213   4.585   1.120  0.4395 -0.0011 -0.2449
 3398TIP3    H110200   6.164   4.663   1.145  0.7457 -0.6936  3.0513
 3398TIP3    H210201   6.303   4.615   1.109  0.1203  0.5007 -1.7258
 3399TIP3   OH210202   0.956   2.215   3.119 -0.3982  0.1390 -0.0489
 3399TIP3    H110203   0.867   2.251   3.113  0.2912  1.6668 -3.0998
 3399TIP3    H210204   0.946   2.123   3.093 -1.0373  0.5167 -1.2363
 3400TIP3   OH210205   2.463   0.206   4.188  0.4254  0.1731 -0.1536
 3400TIP3    H110206   2.514   0.169   4.260 -1.3405 -1.4458  0.3409
 3400TIP3    H210207   2.501   0.166   4.109  1.5185  0.9540 -0.0515
 3401TIP3   OH210208   3.604   1.232   3.189 -0.4446 -0.3491 -0.0350
 3401TIP3    H110209   3.599   1.186   3.273 -0.4550  0.5210  0.4524
 3401TIP3    H210210   3.697   1.253   3.179 -0.6955  1.2953  0.7446
 3402TIP3   OH210211   3.901   4.519   0.579 -0.4071 -0.3654 -0.1465
 3402TIP3    H110212   3.974   4.457   0.574  0.3549  0.5700 -1.0034
 3402TIP3    H210213   3.933   4.587   0.639  0.0929  0.8541 -1.7199
 3403TIP3   OH210214   4.999   5.533   4.343 -0.3176 -0.3714  0.3814
 3403TIP3    H110215   5.015   5.549   4.436 -0.2622 -1.1036  0.5117
 3403TIP3    H210216   5.082   5.495   4.312 -0.6251 -0.9466  0.2458
 3404TIP3   OH210217   1.279   4.744   3.835  0.2143  0.2881 -0.5491
 3404TIP3    H110218   1.353   4.703   3.881 -1.4596 -1.3421  0.8696
 3404TIP3    H210219   1.304   4.836   3.827  2.4200 -0.2209 -0.2031
 3405TIP3   OH210220   1.175   0.778   1.062 -0.1677  0.7804  0.2138
 3405TIP3    H110221   1.242   0.712   1.047 -0.6766  0.2716  0.1459
 3405TIP3    H210222   1.173   0.830   0.982 -0.4648  0.2414 -0.1348
 3406TIP3   OH210223   1.310   4.040   2.161  0.3074  0.3889 -0.0840
 3406TIP3    H110224   1.225   4.045   2.204 -0.4854 -0.0662 -1.5191
 3406TIP3    H210225   1.298   3.975   2.091  2.3477 -1.0138  0.7779
 3407TIP3   OH210226   4.867   4.394   3.327 -0.4554 -0.2720  0.5110
 3407TIP3    H110227   4.951   4.433   3.303  0.0502 -1.1972  0.7113
 3407TIP3    H210228   4.803   4.463   3.313  0.4460  0.7259  1.1551
 3408TIP3   OH210229   4.125   2.930   4.363  0.3088 -0.1104 -0.3899
 3408TIP3    H110230   4.105   2.861   4.426  0.0607  1.5342  1.4437
 3408TIP3    H210231   4.220   2.942   4.371  0.3850 -0.3739 -0.8700
 3409TIP3   OH210232   3.930   3.578   1.729 -0.3261 -0.5874 -0.3461
 3409TIP3    H110233   3.857   3.538   1.682  0.5706  0.1380 -2.4935
 3409TIP3    H210234   4.007   3.527   1.702  0.2397 -0.0516  0.2196
 3410TIP3   OH210235   3.291   2.065   4.836  0.7420  0.1656 -0.2075
 3410TIP3    H110236   3.249   2.103   4.913 -1.6500 -0.1564 -1.2738
 3410TIP3    H210237   3.223   2.065   4.768  1.8534 -2.2387 -1.4692
 3411TIP3   OH210238   2.485   5.806   1.884 -0.0263 -0.2537  0.1980
 3411TIP3    H110239   2.491   5.899   1.904  0.2656 -0.4227  0.9202
 3411TIP3    H210240   2.561   5.767   1.926 -0.4391 -0.8983  0.3665
 3412TIP3   OH210241   0.179   0.764   1.991  0.2462  0.2763  0.1955
 3412TIP3    H110242   0.200   0.692   1.931  1.4686  0.6470  0.1516
 3412TIP3    H210243   0.148   0.834   1.935  1.1463  0.5348  0.0133
 3413TIP3   OH210244   5.416   2.786   1.486  0.1099  0.2053  0.2365
 3413TIP3    H110245   5.430   2.836   1.406 -0.0186  2.0490  1.3279
 3413TIP3    H210246   5.498   2.737   1.498  0.8201  1.2847 -0.0878
 3414TIP3   OH210247   2.633   3.542   3.519  1.5163  0.3682  0.0613
 3414TIP3    H110248   2.604   3.461   3.561 -0.3427  0.9342 -0.0292
 3414TIP3    H210249   2.695   3.580   3.581 -0.8990  1.0216  2.2641
 3415TIP3   OH210250   4.700   0.595   4.683  0.1633 -0.1116 -0.0507
 3415TIP3    H110251   4.704   0.547   4.600  2.0110 -2.1306  1.1139
 3415TIP3    H210252   4.717   0.686   4.658  1.8110 -0.8148 -1.7904
 3416TIP3   OH210253   3.283   5.705   3.951 -0.4757  0.0426 -0.3409
 3416TIP3    H110254   3.225   5.663   3.888 -1.1358  0.5258 -0.0694
 3416TIP3    H210255   3.226   5.764   4.000  0.2477  0.5171 -0.0585
 3417TIP3   OH210256   0.964   4.558   1.166  0.5681 -0.0995  0.2971
 3417TIP3    H110257   0.879   4.581   1.204  0.9820  0.7614  0.7398
 3417TIP3    H210258   1.026   4.575   1.237  1.1190 -0.6349 -0.0564
 3418TIP3   OH210259   0.184   0.378   5.113  0.1967 -0.1694 -0.0199
 3418TIP3    H110260   0.184   0.448   5.177 -0.6649 -2.0711  2.1859
 3418TIP3    H210261   0.197   0.422   5.029 -1.8289  2.7724  1.0582
 3419TIP3   OH210262   1.823   4.461   0.329  0.0408 -0.6514  0.3556
 3419TIP3    H110263   1.762   4.400   0.370 -1.0286  1.4013  2.0019
 3419TIP3    H210264   1.783   4.482   0.245 -0.4636 -0.9244  0.5202
 3420TIP3   OH210265   2.433   5.567   0.904 -0.4091  0.6448  0.7867
 3420TIP3    H110266   2.364   5.524   0.954  0.5699 -0.5910  1.1028
 3420TIP3    H210267   2.415   5.544   0.812 -0.9605  1.1271  0.7695
 3421TIP3   OH210268   6.181   5.547   4.420  0.3306  0.4142  0.3573
 3421TIP3    H110269   6.230   5.594   4.353  3.6024 -3.1522 -0.1091
 3421TIP3    H210270   6.121   5.491   4.371 -1.7288  2.0924  0.8122
 3422TIP3   OH210271   1.576   3.818   1.386  0.5223  0.0231  0.4093
 3422TIP3    H110272   1.643   3.816   1.317  0.2817  1.2809  0.1194
 3422TIP3    H210273   1.518   3.890   1.361 -1.2747 -1.3645  0.3736
 3423TIP3   OH210274   5.670   1.808   0.300 -0.0055 -0.1203  0.0722
 3423TIP3    H110275   5.719   1.813   0.217  1.2107 -0.0631  0.7717
 3423TIP3    H210276   5.657   1.715   0.314 -0.5629 -0.1171 -0.3648
 3424TIP3   OH210277   3.467   3.961   0.479 -0.0408 -0.2680 -0.1440
 3424TIP3    H110278   3.553   3.987   0.446  1.0457 -2.6683  0.5844
 3424TIP3    H210279   3.449   4.022   0.550  1.5762 -0.3619  0.3802
 3425TIP3   OH210280   1.428   4.123   4.584  0.2720 -0.3739 -0.2024
 3425TIP3    H110281   1.341   4.096   4.615  0.0053  0.1941 -0.4396
 3425TIP3    H210282   1.426   4.104   4.490 -0.4477  1.7236 -0.6740
 3426TIP3   OH210283   1.621   4.517   0.898  0.0358 -0.1578 -0.7173
 3426TIP3    H110284   1.548   4.455   0.896 -0.0687 -0.0407 -2.8703
 3426TIP3    H210285   1.671   4.498   0.818  1.1109  1.2333 -0.4176
 3427TIP3   OH210286   4.157   4.305   3.023 -0.1721 -0.3999 -0.2965
 3427TIP3    H110287   4.170   4.236   2.957  2.1439  1.8878 -2.4551
 3427TIP3    H210288   4.068   4.336   3.008 -0.8219 -2.0527 -0.0982
 3428TIP3   OH210289   5.982   0.737   1.697 -0.1622 -0.4207  0.1063
 3428TIP3    H110290   6.023   0.758   1.613 -2.6503  0.9116 -0.8536
 3428TIP3    H210291   5.942   0.819   1.725  1.6813 -0.4345  3.3433
 3429TIP3   OH210292   3.624   2.501   0.435  0.0661 -0.2299  0.0779
 3429TIP3    H110293   3.674   2.498   0.517 -0.5093  0.5781  0.4718
 3429TIP3    H210294   3.534   2.481   0.460 -0.1150  0.0320 -0.3504
 3430TIP3   OH210295   5.016   5.144   2.049 -0.4701  0.2620  0.3177
 3430TIP3    H110296   5.025   5.071   1.988 -1.5557 -0.8598  1.4318
 3430TIP3    H210297   5.102   5.187   2.047  0.5653 -1.6556  0.3509
 3431TIP3   OH210298   5.177   1.255   1.343 -0.2194  0.4027  0.1900
 3431TIP3    H110299   5.152   1.237   1.252  2.1284  0.4829 -0.5347
 3431TIP3    H210300   5.137   1.184   1.393  0.3827 -1.0020 -1.2346
 3432TIP3   OH210301   6.121   4.749   4.876 -0.3580  0.8682 -0.3795
 3432TIP3    H110302   6.118   4.828   4.929 -2.5923  0.3949  0.3231
 3432TIP3    H210303   6.059   4.765   4.805 -2.4887 -0.9516  0.9371
 3433TIP3   OH210304   1.554   1.563   1.502 -0.0129 -0.3345  0.5429
 3433TIP3    H110305   1.626   1.599   1.554  0.6208 -1.1421  0.2504
 3433TIP3    H210306   1.570   1.596   1.413 -0.2490 -0.1682  0.5618
 3434TIP3   OH210307   0.619   1.379   3.486 -0.5063  0.2174  0.1655
 3434TIP3    H110308   0.582   1.426   3.412 -2.2778  0.1670  0.9828
 3434TIP3    H210309   0.669   1.307   3.447 -0.2952  0.9659 -0.9911
 3435TIP3   OH210310   3.897   5.543   0.989 -0.0591 -0.2314  0.1993
 3435TIP3    H110311   3.898   5.638   0.974 -0.2774 -0.1327  0.7823
 3435TIP3    H210312   3.837   5.509   0.923 -1.0266  0.1986  0.8366
 3436TIP3   OH210313   3.358   3.079   2.003 -0.0730 -0.1233  0.7123
 3436TIP3    H110314   3.282   3.068   2.060 -0.3901  1.9477  0.7767
 3436TIP3    H210315   3.320   3.092   1.916  0.1743  0.8188  0.7287
 3437TIP3   OH210316   0.556   0.325   4.268 -0.0297 -0.0271 -0.4303
 3437TIP3    H110317   0.581   0.235   4.247  0.5606  0.4572 -1.9556
 3437TIP3    H210318   0.474   0.316   4.317  0.9417 -1.4619  1.0195
 3438TIP3   OH210319   0.615   4.267   0.564  0.1888  0.1726  0.3251
 3438TIP3    H110320   0.559   4.222   0.502  0.0049  1.2918 -0.3518
 3438TIP3    H210321   0.646   4.199   0.623 -1.3257 -0.5828  0.2946
 3439TIP3   OH210322   1.049   1.532   3.203  0.2699  0.3152 -0.0916
 3439TIP3    H110323   1.105   1.580   3.142 -0.1364  0.9895  0.0625
 3439TIP3    H210324   1.095   1.537   3.287  0.4869 -0.0274 -0.1845
 3440TIP3   OH210325   3.039   2.999   4.947 -0.1576  0.3949 -0.0859
 3440TIP3    H110326   3.126   3.022   4.914  0.5976 -1.0436  0.7848
 3440TIP3    H210327   3.053   2.917   4.995 -1.9136  0.3883  0.4745
 3441TIP3   OH210328   2.845   1.458   2.830 -0.0657  0.1784 -0.0991
 3441TIP3    H110329   2.934   1.456   2.797  0.5491  0.3125  1.4605
 3441TIP3    H210330   2.849   1.411   2.914 -1.3253  0.6825  0.2691
 3442TIP3   OH210331   5.953   1.520   3.105 -0.1779 -0.1527  0.8604
 3442TIP3    H110332   5.947   1.608   3.069 -0.3689  0.3215  1.9941
 3442TIP3    H210333   6.021   1.477   3.054  1.0159  1.1560  1.2833
 3443TIP3   OH210334   2.177   3.730   4.349 -0.4282 -0.2051 -0.6294
 3443TIP3    H110335   2.204   3.730   4.257 -0.2583 -0.6307 -0.5842
 3443TIP3    H210336   2.242   3.785   4.392 -2.2844  2.6627 -1.2311
 3444TIP3   OH210337   3.166   3.218   1.228 -0.2112 -0.1440 -0.2930
 3444TIP3    H110338   3.081   3.187   1.260  0.3802 -1.0558  0.4782
 3444TIP3    H210339   3.194   3.281   1.294 -0.0586 -0.2461 -0.2586
 3445TIP3   OH210340   2.586   1.758   0.597  0.0857 -0.4044 -0.0345
 3445TIP3    H110341   2.670   1.753   0.552 -0.6226 -0.4940 -1.4068
 3445TIP3    H210342   2.541   1.677   0.573 -0.3428 -0.4285  0.8075
 3446TIP3   OH210343   6.150   0.871   4.850 -0.1009  0.1828  0.0913
 3446TIP3    H110344   6.086   0.814   4.807  0.5222 -1.2050  0.9218
 3446TIP3    H210345   6.212   0.893   4.780  0.9416 -2.0972  0.1990
 3447TIP3   OH210346   1.286   3.538   4.071 -0.4253  0.4223 -0.1935
 3447TIP3    H110347   1.336   3.613   4.040 -1.8940  1.4838 -0.1252
 3447TIP3    H210348   1.291   3.475   3.999  2.6110 -0.3776  0.5973
 3448TIP3   OH210349   4.373   2.801   5.124  0.1352 -0.4566  0.9064
 3448TIP3    H110350   4.464   2.793   5.150  0.2275  0.2481  0.8207
 3448TIP3    H210351   4.366   2.745   5.046 -0.0400 -2.2047  2.1250
 3449TIP3   OH210352   2.287   3.942   1.125 -0.4656 -0.2640  0.3650
 3449TIP3    H110353   2.270   3.943   1.031 -1.8281 -1.1977  0.5711
 3449TIP3    H210354   2.286   4.034   1.150  1.0548  0.0751 -0.7016
 3450TIP3   OH210355   6.301   2.761   3.393  0.4043  0.1149  0.0991
 3450TIP3    H110356   6.372   2.812   3.353 -0.1914 -0.0247 -1.1896
 3450TIP3    H210357   6.295   2.682   3.339 -0.2558 -0.2193  0.6452
 3451TIP3   OH210358   2.352   4.367   3.893 -0.0266  0.1544 -0.0587
 3451TIP3    H110359   2.390   4.284   3.865  2.1532  0.3805  1.9690
 3451TIP3    H210360   2.417   4.433   3.868 -1.2863  1.1983 -0.7509
 3452TIP3   OH210361   2.727   0.178   1.326  0.1815  0.0913  0.1166
 3452TIP3    H110362   2.751   0.268   1.304 -0.8577 -0.1679 -2.3303
 3452TIP3    H210363   2.639   0.186   1.365  0.2873  0.1685  0.3426
 3453TIP3   OH210364   1.790   0.316   4.429  0.1242 -0.9313  0.2868
 3453TIP3    H110365   1.823   0.247   4.487 -0.6598  0.7507  2.9469
 3453TIP3    H210366   1.739   0.373   4.487 -2.4684 -0.1783 -2.4664
 3454TIP3   OH210367   3.096   4.297   4.290 -0.0499  0.1233 -0.2989
 3454TIP3    H110368   3.113   4.204   4.306  0.4399  0.1770 -0.5099
 3454TIP3    H210369   3.020   4.296   4.230  0.7052 -0.1813 -1.2766
 3455TIP3   OH210370   2.598   5.017   3.106 -0.0755  0.2542 -0.3621
 3455TIP3    H110371   2.588   4.948   3.171  0.3597  1.2008  0.7303
 3455TIP3    H210372   2.691   5.039   3.107  0.4540 -1.3441 -3.0517
 3456TIP3   OH210373   2.824   4.639   1.895  0.5822 -0.3286 -0.4744
 3456TIP3    H110374   2.789   4.658   1.808  0.5374  0.7267 -0.2421
 3456TIP3    H210375   2.910   4.681   1.896 -0.5805  2.2702  0.9478
 3457TIP3   OH210376   5.143   2.146   2.544 -0.4545  0.2179  0.0271
 3457TIP3    H110377   5.224   2.195   2.558 -1.3483  1.3626  1.3911
 3457TIP3    H210378   5.153   2.068   2.599 -0.3256  0.4081  0.2755
 3458TIP3   OH210379   4.952   1.755   4.488 -0.5912 -0.0944  0.2755
 3458TIP3    H110380   4.865   1.789   4.509 -1.4222 -0.2977 -2.4403
 3458TIP3    H210381   4.989   1.822   4.429 -0.0463 -1.2700 -0.7604
 3459TIP3   OH210382   4.849   0.901   0.134  0.3433 -0.3431 -0.3057
 3459TIP3    H110383   4.790   0.866   0.202  0.9810  0.1566  0.5173
 3459TIP3    H210384   4.797   0.896   0.054 -1.5518  1.7764  0.6668
 3460TIP3   OH210385   2.037   0.269   4.841  0.1029 -0.0294  0.0562
 3460TIP3    H110386   2.127   0.300   4.834  0.6038 -1.4754 -0.2139
 3460TIP3    H210387   1.984   0.349   4.840  1.2913  0.7754 -1.0636
 3461TIP3   OH210388   5.327   2.779   4.903 -0.1638 -0.3180 -0.1401
 3461TIP3    H110389   5.307   2.704   4.957  1.9558 -0.2905  0.7843
 3461TIP3    H210390   5.361   2.742   4.821 -1.0777 -0.3474 -0.5177
 3462TIP3   OH210391   4.366   4.477   0.867  0.2220  0.3203 -0.4097
 3462TIP3    H110392   4.272   4.464   0.862  0.4625 -2.5083  0.6536
 3462TIP3    H210393   4.379   4.569   0.843 -2.8214  0.9541 -0.0179
 3463TIP3   OH210394   1.393   0.859   4.045  0.0092 -0.5355 -0.3186
 3463TIP3    H110395   1.389   0.902   4.130 -0.1835 -1.1888  0.0136
 3463TIP3    H210396   1.484   0.830   4.036 -0.2604 -1.6335  0.2744
 3464TIP3   OH210397   1.543   3.058   4.395  0.3866 -0.1015  0.2458
 3464TIP3    H110398   1.475   3.121   4.418  0.4440 -0.8234  2.5908
 3464TIP3    H210399   1.599   3.052   4.472  1.8280 -1.2016 -0.8156
 3465TIP3   OH210400   5.752   2.950   3.186 -0.0057 -0.5617  0.5455
 3465TIP3    H110401   5.795   2.939   3.101  0.7242  0.6788  0.7150
 3465TIP3    H210402   5.736   3.044   3.192 -2.1917 -0.9026  0.7903
 3466TIP3   OH210403   4.188   2.702   4.065  0.1789 -0.7747  0.4242
 3466TIP3    H110404   4.107   2.754   4.063  1.0314  0.5903 -0.8769
 3466TIP3    H210405   4.201   2.675   3.974  1.1762 -1.0016  0.6260
 3467TIP3   OH210406   0.307   5.624   4.473 -0.1473  0.2537  0.0458
 3467TIP3    H110407   0.265   5.547   4.512 -0.1083  0.1815 -0.0539
 3467TIP3    H210408   0.269   5.698   4.520  0.4067  0.1333  0.7042
 3468TIP3   OH210409   6.381   5.419   0.217 -0.0490  0.8734 -0.3997
 3468TIP3    H110410   6.354   5.492   0.161 -0.1855  1.5279  0.4929
 3468TIP3    H210411   6.312   5.354   0.207 -0.2222  1.1075 -0.7556
 3469TIP3   OH210412   2.617   5.486   2.143  0.4437  0.4108 -0.2480
 3469TIP3    H110413   2.581   5.413   2.092  0.4635 -0.3556  0.7996
 3469TIP3    H210414   2.559   5.559   2.123  0.3231  0.0672 -1.1950
 3470TIP3   OH210415   0.539   5.533   3.762  0.1982 -0.3757  0.0605
 3470TIP3    H110416   0.621   5.534   3.713 -0.1142  0.3372 -0.4680
 3470TIP3    H210417   0.473   5.560   3.698 -0.4570 -0.9750  0.4722
 3471TIP3   OH210418   5.870   4.568   4.237 -0.3938 -0.0022  0.6690
 3471TIP3    H110419   5.848   4.475   4.244 -0.1381 -0.1251 -0.1232
 3471TIP3    H210420   5.879   4.584   4.143  1.9640  0.2538  0.8856
 3472TIP3   OH210421   2.417   3.538   3.950 -0.3812 -0.9514  0.5127
 3472TIP3    H110422   2.450   3.453   3.980 -1.0820 -1.2108  0.5530
 3472TIP3    H210423   2.337   3.518   3.902 -0.3928 -0.3385  0.2616
 3473TIP3   OH210424   1.675   0.027   4.502  0.2773  0.1274 -0.0559
 3473TIP3    H110425   1.747   0.074   4.544  0.3671  1.0182 -1.1711
 3473TIP3    H210426   1.606   0.025   4.569  0.0567  2.3768 -0.1441
 3474TIP3   OH210427   5.059   3.510   5.068  0.5016  0.2143  0.1191
 3474TIP3    H110428   4.994   3.458   5.020  0.6412  1.3621 -1.3900
 3474TIP3    H210429   5.141   3.494   5.023  1.6344 -2.0919  2.6708
 3475TIP3   OH210430   4.284   4.227   3.411 -0.1613  0.6189 -0.6474
 3475TIP3    H110431   4.191   4.245   3.414 -0.2352  0.7538 -2.4699
 3475TIP3    H210432   4.302   4.176   3.490 -1.8834  0.1071 -0.5579
 3476TIP3   OH210433   3.224   5.262   0.728  0.7006  0.4247 -0.0281
 3476TIP3    H110434   3.207   5.350   0.761 -0.0782  0.0159  0.7006
 3476TIP3    H210435   3.201   5.204   0.800 -1.1345 -0.5082 -1.2858
 3477TIP3   OH210436   1.303   0.433   2.552 -0.4966  0.6661  0.5907
 3477TIP3    H110437   1.384   0.417   2.601 -0.3976 -3.8132 -0.5897
 3477TIP3    H210438   1.259   0.504   2.600  2.1873  0.4965  3.6612
 3478TIP3   OH210439   5.462   3.879   0.187 -0.4507 -0.3041  0.0116
 3478TIP3    H110440   5.533   3.832   0.143  0.7287  0.9740  0.4408
 3478TIP3    H210441   5.448   3.957   0.133 -2.5791 -1.2154 -0.8563
 3479TIP3   OH210442   5.813   0.933   1.787  0.4098  0.4175 -0.0070
 3479TIP3    H110443   5.721   0.918   1.766  0.7497  1.7915 -3.0180
 3479TIP3    H210444   5.814   0.949   1.881 -1.9312 -2.7301  0.7446
 3480TIP3   OH210445   0.758   4.208   0.069  0.2324 -0.3409  0.2212
 3480TIP3    H110446   0.778   4.124   0.028 -0.4811 -0.1136 -0.6152
 3480TIP3    H210447   0.739   4.185   0.161  0.9154 -0.9698  0.2190
 3481TIP3   OH210448   0.412   4.234   2.745  0.1977  0.2674 -0.2901
 3481TIP3    H110449   0.330   4.248   2.793  0.2886  0.2193 -0.1194
 3481TIP3    H210450   0.394   4.159   2.688  0.5258 -0.5769  0.6914
 3482TIP3   OH210451   1.453   3.975   3.092 -0.4309 -0.1481  0.0575
 3482TIP3    H110452   1.365   3.990   3.058  0.2957  2.2232 -1.0000
 3482TIP3    H210453   1.447   3.893   3.141 -3.1025 -0.2564 -0.3401
 3483TIP3   OH210454   1.320   5.605   5.178  0.0571  0.0593 -0.3142
 3483TIP3    H110455   1.383   5.627   5.110  1.3328 -0.6783  0.5956
 3483TIP3    H210456   1.352   5.524   5.217 -1.6084 -0.5025  0.0096
 3484TIP3   OH210457   5.955   4.398   4.692  0.5861  0.1502  0.4267
 3484TIP3    H110458   6.047   4.410   4.667  0.4103 -1.1120 -0.9709
 3484TIP3    H210459   5.921   4.334   4.629 -0.5393 -1.4778  2.5493
 3485TIP3   OH210460   1.870   5.455   3.518  0.1654 -0.0162 -0.2550
 3485TIP3    H110461   1.843   5.367   3.495 -0.8120  0.0021  0.7656
 3485TIP3    H210462   1.814   5.480   3.592  0.3291  1.5014 -0.5973
 3486TIP3   OH210463   1.926   5.564   1.388  0.4103  0.2042 -0.3192
 3486TIP3    H110464   1.967   5.650   1.396  1.0613 -0.1887  0.7576
 3486TIP3    H210465   1.833   5.581   1.401  0.8244  0.3262  4.3278
 3487TIP3   OH210466   1.800   1.642   2.293  0.4966 -0.7038  0.1010
 3487TIP3    H110467   1.878   1.687   2.326  0.6355  0.3972 -1.5350
 3487TIP3    H210468   1.784   1.571   2.354  0.8628  1.0079  2.2977
 3488TIP3   OH210469   1.139   0.169   1.863  0.1406 -0.3134 -0.5885
 3488TIP3    H110470   1.083   0.101   1.899  0.7651 -0.1860  0.6742
 3488TIP3    H210471   1.126   0.244   1.921  1.9245 -0.4191 -0.0006
 3489TIP3   OH210472   1.015   4.828   2.483  0.5914  0.3429  0.2023
 3489TIP3    H110473   1.078   4.800   2.417 -0.2858 -0.1045 -0.4561
 3489TIP3    H210474   0.973   4.747   2.512  0.5631  0.5990  0.8920
 3490TIP3   OH210475   4.269   1.335   3.417 -0.4729 -0.1420  0.5639
 3490TIP3    H110476   4.320   1.365   3.493 -0.6822  0.4817  0.4579
 3490TIP3    H210477   4.203   1.276   3.455 -1.1477  0.8636  0.9801
 3491TIP3   OH210478   6.146   3.226   0.019  0.4413  0.7662  0.0485
 3491TIP3    H110479   6.236   3.218   0.051 -0.1368  2.3350  2.2749
 3491TIP3    H210480   6.133   3.148  -0.036  2.5202 -0.4860  1.2109
 3492TIP3   OH210481   5.295   1.443   2.089 -0.3689  0.1058  0.3424
 3492TIP3    H110482   5.201   1.428   2.079 -0.5966  1.2624  0.6882
 3492TIP3    H210483   5.319   1.499   2.016  0.0948 -0.3077  0.1669
 3493TIP3   OH210484   2.415   0.207   1.597 -0.1747 -0.0641  0.4509
 3493TIP3    H110485   2.377   0.295   1.591  0.9199  0.3465 -1.5457
 3493TIP3    H210486   2.430   0.194   1.690 -2.0036  1.1178  0.9766
 3494TIP3   OH210487   4.108   3.363   1.526 -0.0098 -0.5085  0.0116
 3494TIP3    H110488   4.183   3.313   1.557 -0.8579 -2.4360 -0.9114
 3494TIP3    H210489   4.146   3.442   1.487  1.5484 -1.5135 -0.5554
 3495TIP3   OH210490   1.859   2.850   4.369  0.0334 -0.2111  0.0298
 3495TIP3    H110491   1.902   2.803   4.440  0.1020  1.1266  0.9049
 3495TIP3    H210492   1.897   2.938   4.372  0.3308 -0.2195 -1.9233
 3496TIP3   OH210493   4.259   3.579   1.446 -0.1381 -0.1477  0.6586
 3496TIP3    H110494   4.342   3.572   1.494  0.5052 -0.5681 -0.4661
 3496TIP3    H210495   4.246   3.673   1.434  1.1051 -0.1041 -0.6624
 3497TIP3   OH210496   5.393   2.356   2.926  0.2028  0.3016  0.0598
 3497TIP3    H110497   5.396   2.262   2.944 -0.2906  0.5397  1.4854
 3497TIP3    H210498   5.485   2.383   2.930  0.3872 -0.1749 -0.7292
 3498TIP3   OH210499   6.287   3.376   0.803  0.6778  0.1012 -0.1780
 3498TIP3    H110500   6.289   3.471   0.819 -0.2804 -0.1064  1.3941
 3498TIP3    H210501   6.193   3.355   0.801  0.8882 -0.8216 -0.5298
 3499TIP3   OH210502   0.361   3.269   4.510 -0.1701 -0.3591  0.3119
 3499TIP3    H110503   0.450   3.269   4.546 -0.5447  1.2954  1.3411
 3499TIP3    H210504   0.329   3.180   4.524  1.5079 -1.1452 -0.5909
 3500TIP3   OH210505   4.075   1.981   0.737 -1.0645  0.3135 -0.3701
 3500TIP3    H110506   4.118   2.060   0.705 -0.8791  0.3621 -0.0015
 3500TIP3    H210507   3.981   2.001   0.736 -1.1063  0.1267 -1.4054
 3501TIP3   OH210508   2.605   1.513   3.602  0.3029 -0.0174 -0.2281
 3501TIP3    H110509   2.698   1.531   3.609 -0.4342  4.2822  1.7068
 3501TIP3    H210510   2.568   1.593   3.566 -2.9246 -0.5441  1.5543
 3502TIP3   OH210511   2.067   2.259   0.135 -0.1237 -0.3401 -0.4841
 3502TIP3    H110512   1.985   2.265   0.086  0.7248  1.0318 -1.8437
 3502TIP3    H210513   2.081   2.348   0.168 -0.7096 -1.2370  2.4237
 3503TIP3   OH210514   5.035   2.373   3.480 -0.6749  0.8635 -0.1833
 3503TIP3    H110515   5.096   2.305   3.509 -0.0911  1.0783 -0.8774
 3503TIP3    H210516   5.028   2.359   3.385 -0.0233  2.1947 -0.4378
 3504TIP3   OH210517   6.085   1.918   3.109 -0.7257 -0.2152  0.8812
 3504TIP3    H110518   6.022   1.975   3.152 -1.4614  1.4914 -2.2324
 3504TIP3    H210519   6.033   1.855   3.059  0.0136  0.0828 -0.3158
 3505TIP3   OH210520   6.319   3.758   2.579  0.5523  0.5206  0.3613
 3505TIP3    H110521   6.332   3.669   2.612 -0.6542  0.3785  0.4901
 3505TIP3    H210522   6.224   3.771   2.582  0.6219  1.3980 -0.7433
 3506TIP3   OH210523   5.217   2.483   0.909  0.1280  0.2889 -0.2876
 3506TIP3    H110524   5.278   2.427   0.957 -0.0797  1.1317  1.0258
 3506TIP3    H210525   5.181   2.427   0.841  3.7537  0.2143 -2.4272
 3507TIP3   OH210526   5.427   2.140   4.852 -0.7503 -0.0516 -0.3418
 3507TIP3    H110527   5.336   2.171   4.848 -0.3634  1.0162 -3.1030
 3507TIP3    H210528   5.427   2.061   4.797  0.0729  0.2022 -0.7126
 3508TIP3   OH210529   0.269   1.387   1.354 -0.0104  0.3745  0.0106
 3508TIP3    H110530   0.219   1.468   1.357 -1.3215 -0.3544 -1.0384
 3508TIP3    H210531   0.343   1.407   1.296 -0.7723  0.6051 -0.9104
 3509TIP3   OH210532   4.705   0.819   3.196 -0.2653 -0.2128 -0.1911
 3509TIP3    H110533   4.713   0.861   3.281 -2.4709 -0.3298  0.1414
 3509TIP3    H210534   4.659   0.737   3.213 -1.5612  0.1643 -1.5443
 3510TIP3   OH210535   3.820   5.354   4.506 -0.1172  0.3163 -0.0787
 3510TIP3    H110536   3.769   5.272   4.507  0.5965 -0.1991  3.1485
 3510TIP3    H210537   3.758   5.421   4.533  0.4422 -0.0625  2.3251
 3511TIP3   OH210538   1.616   5.037   5.142  0.0747  0.1856  0.3294
 3511TIP3    H110539   1.586   5.048   5.052  2.5178  0.4771 -0.5282
 3511TIP3    H210540   1.579   4.954   5.170 -1.2450  0.3974 -0.6996
 3512TIP3   OH210541   0.093   5.657   0.786 -0.0435  0.3760 -0.1629
 3512TIP3    H110542   0.050   5.676   0.703  1.1454  0.4725 -0.7804
 3512TIP3    H210543   0.077   5.563   0.800  1.0689 -0.0090 -1.3183
 3513TIP3   OH210544   3.134   2.380   3.180 -0.2842  0.6538  0.8216
 3513TIP3    H110545   3.222   2.349   3.157 -0.7619 -0.7211  0.8028
 3513TIP3    H210546   3.129   2.373   3.275 -1.2004 -1.6433  0.6560
 3514TIP3   OH210547   3.281   0.022   0.460  0.0420 -0.4785  0.2446
 3514TIP3    H110548   3.229   0.092   0.420  2.1599 -0.1098 -2.1263
 3514TIP3    H210549   3.256   0.023   0.552 -2.4110  1.1661 -0.3416
 3515TIP3   OH210550   5.547   1.539   3.908  0.0447 -0.3595 -0.3118
 3515TIP3    H110551   5.594   1.621   3.923  0.0698  0.1378 -2.7626
 3515TIP3    H210552   5.455   1.565   3.898  0.1232 -0.5055 -1.6620
 3516TIP3   OH210553   4.015   2.313   2.055  0.3749 -0.0808 -0.0815
 3516TIP3    H110554   4.048   2.361   1.979  0.3270  0.2437  0.0994
 3516TIP3    H210555   4.092   2.302   2.111  0.6464 -1.2564 -0.6491
 3517TIP3   OH210556   5.637   5.280   0.427 -0.1241 -0.3445  0.1023
 3517TIP3    H110557   5.679   5.205   0.467 -0.4124 -0.3701  0.3609
 3517TIP3    H210558   5.683   5.356   0.463 -0.9490 -0.3292  1.1689
 3518TIP3   OH210559   6.150   0.343   4.122  0.6534 -0.2542 -0.3161
 3518TIP3    H110560   6.126   0.345   4.030 -1.5842 -0.6539  0.2082
 3518TIP3    H210561   6.101   0.415   4.162  0.9764 -0.5733  0.6998
 3519TIP3   OH210562   4.438   3.114   2.011 -0.4658 -0.3636  0.0201
 3519TIP3    H110563   4.493   3.171   2.065  0.5802 -1.0683 -0.2757
 3519TIP3    H210564   4.355   3.109   2.059 -0.3398  0.8284  0.4068
 3520TIP3   OH210565   5.333   4.930   2.737  0.6177  0.7675 -0.0640
 3520TIP3    H110566   5.260   4.991   2.726  0.5830  1.0775  1.6177
 3520TIP3    H210567   5.292   4.847   2.764  0.7733  0.4624 -0.7589
 3521TIP3   OH210568   0.444   1.515   2.946 -0.2537 -0.7585  0.1830
 3521TIP3    H110569   0.362   1.477   2.915 -0.5720 -0.5426  0.7541
 3521TIP3    H210570   0.426   1.609   2.954 -0.0112 -0.7370  0.4958
 3522TIP3   OH210571   4.292   3.150   1.173 -0.1639 -0.0245  0.5242
 3522TIP3    H110572   4.276   3.102   1.092 -1.0286  1.3698 -0.1714
 3522TIP3    H210573   4.204   3.171   1.206  0.1669  1.7582  0.3531
 3523TIP3   OH210574   4.951   3.116   3.734  0.4383  0.8696  0.3837
 3523TIP3    H110575   4.952   3.062   3.655  0.6271 -0.2245  1.1108
 3523TIP3    H210576   4.865   3.100   3.773  0.4528  1.1792  0.5453
 3524TIP3   OH210577   4.644   1.303   1.321  0.2272 -0.0417 -0.2751
 3524TIP3    H110578   4.666   1.292   1.413  0.5169  0.2723 -0.3034
 3524TIP3    H210579   4.603   1.220   1.295  1.2251 -0.5795 -0.1721
 3525TIP3   OH210580   5.449   3.254   4.611 -0.4026  0.8235 -0.0633
 3525TIP3    H110581   5.498   3.218   4.685 -1.0603  0.7940  0.3711
 3525TIP3    H210582   5.379   3.305   4.652 -0.4070  1.3135 -0.6724
 3526TIP3   OH210583   5.515   3.964   4.489 -0.1370 -0.3204  0.1701
 3526TIP3    H110584   5.561   4.044   4.515  0.9832 -1.6970  2.8174
 3526TIP3    H210585   5.436   3.963   4.542  0.5292 -1.5904  1.1872
 3527TIP3   OH210586   2.979   0.166   4.307 -0.5636  0.2764 -0.2501
 3527TIP3    H110587   3.038   0.181   4.381 -1.5549  0.6359  0.4916
 3527TIP3    H210588   2.892   0.190   4.340 -1.0103  0.6027 -1.5801
 3528TIP3   OH210589   2.381   1.052   0.716 -0.0124  0.5151  0.4714
 3528TIP3    H110590   2.394   0.995   0.792  0.6577  0.6735  0.4806
 3528TIP3    H210591   2.362   0.992   0.644 -0.8375  0.3716  0.7876
 3529TIP3   OH210592   2.468   0.795   3.945 -0.5122 -0.4079 -0.1975
 3529TIP3    H110593   2.519   0.714   3.946 -2.9857 -2.1056 -1.0623
 3529TIP3    H210594   2.391   0.775   3.998 -0.3816  2.0100  1.0100
 3530TIP3   OH210595   4.620   1.338   4.055 -0.0133 -0.0947  0.5596
 3530TIP3    H110596   4.606   1.431   4.073  0.0715  0.3139 -1.2914
 3530TIP3    H210597   4.643   1.335   3.962  1.4442 -1.8314  0.9221
 3531TIP3   OH210598   5.272   0.159   0.507 -0.7353  0.2727 -0.2481
 3531TIP3    H110599   5.235   0.087   0.455 -0.4280 -0.6655  0.7963
 3531TIP3    H210600   5.244   0.141   0.596  0.2006  0.9002  0.1882
 3532TIP3   OH210601   5.505   5.726   2.624 -0.0864  0.4572 -0.4526
 3532TIP3    H110602   5.525   5.680   2.542 -1.2406 -0.9825  0.0129
 3532TIP3    H210603   5.527   5.817   2.607 -0.8603  0.3053 -2.5853
 3533TIP3   OH210604   5.880   2.959   0.126  0.5209 -0.0229 -0.2083
 3533TIP3    H110605   5.822   3.016   0.075  0.9012 -0.3353 -1.0019
 3533TIP3    H210606   5.894   3.007   0.208  0.0937  0.5985 -0.4918
 3534TIP3   OH210607   2.644   0.921   4.821  0.1793 -0.0790  0.5339
 3534TIP3    H110608   2.694   1.003   4.828  1.4764 -0.8912  1.0968
 3534TIP3    H210609   2.560   0.948   4.783  0.9894  1.3435 -0.3613
 3535TIP3   OH210610   5.531   0.444   2.633 -0.5574  0.1412  0.1740
 3535TIP3    H110611   5.539   0.497   2.713  1.3744  0.9620 -0.5278
 3535TIP3    H210612   5.619   0.412   2.616 -0.5841  1.1679 -2.4106
 3536TIP3   OH210613   1.978   0.250   1.722 -0.4371 -0.1427  0.4602
 3536TIP3    H110614   1.942   0.339   1.714 -0.9668 -0.4335 -0.5368
 3536TIP3    H210615   1.937   0.201   1.650 -0.3114 -1.2518  1.1229
 3537TIP3   OH210616   5.187   1.445   1.601 -0.5931 -0.2266  0.0457
 3537TIP3    H110617   5.202   1.402   1.517  1.5858  1.8181 -0.7113
 3537TIP3    H210618   5.230   1.388   1.665  1.2642  0.2002 -0.7789
 3538TIP3   OH210619   2.501   3.242   1.842  0.0721  0.6356  0.2449
 3538TIP3    H110620   2.413   3.223   1.874  0.0171  1.6374  0.7350
 3538TIP3    H210621   2.547   3.158   1.845 -1.5339 -0.4534 -2.3231
 3539TIP3   OH210622   3.312   4.723   1.262  0.0105 -0.7444  0.1172
 3539TIP3    H110623   3.256   4.735   1.185 -1.3153 -0.4072  1.0787
 3539TIP3    H210624   3.370   4.651   1.239 -0.5815 -0.8714 -1.0697
 3540TIP3   OH210625   4.182   4.873   4.123  0.3936  0.5966  0.6565
 3540TIP3    H110626   4.178   4.780   4.101  2.0243 -0.0626  2.8061
 3540TIP3    H210627   4.217   4.914   4.045 -2.0313 -0.2341 -1.0168
 3541TIP3   OH210628   1.138   4.939   3.360  0.1490  0.3703 -0.2537
 3541TIP3    H110629   1.149   4.928   3.266  1.5402  1.3168 -0.2456
 3541TIP3    H210630   1.182   4.863   3.399  1.3169  0.9628 -0.3605
 3542TIP3   OH210631   1.584   5.098   1.717 -0.3455  0.5055  0.7429
 3542TIP3    H110632   1.668   5.128   1.751 -0.1189 -0.3847  0.9926
 3542TIP3    H210633   1.600   5.082   1.624 -0.4725  1.1705  0.6055
 3543TIP3   OH210634   3.312   1.287   1.511  0.4716 -0.2679 -0.0143
 3543TIP3    H110635   3.353   1.278   1.425  0.7485 -2.6343  0.2937
 3543TIP3    H210636   3.221   1.259   1.497 -0.1163  1.5024  0.0420
 3544TIP3   OH210637   5.656   5.971   3.039  0.0920 -0.3533  0.2825
 3544TIP3    H110638   5.751   5.982   3.041  0.4284 -1.6993 -2.4596
 3544TIP3    H210639   5.630   6.007   2.954 -1.7445 -0.6484  0.6772
 3545TIP3   OH210640   4.084   5.902   2.564  0.4945  0.1815 -0.2205
 3545TIP3    H110641   4.025   5.950   2.506  0.2145 -0.9571 -0.9275
 3545TIP3    H210642   4.165   5.893   2.514  0.3072 -0.6637 -0.3871
 3546TIP3   OH210643   1.406   4.419   4.332 -0.0713 -0.0574  0.0508
 3546TIP3    H110644   1.498   4.396   4.348 -0.1078 -1.8130 -1.8237
 3546TIP3    H210645   1.356   4.362   4.391  0.0112  0.7483  0.9182
 3547TIP3   OH210646   0.195   1.822   5.100  0.2403 -0.1520  0.2453
 3547TIP3    H110647   0.265   1.795   5.160  2.1903  0.0060 -1.8088
 3547TIP3    H210648   0.234   1.894   5.050 -1.4674  0.0232 -0.8935
 3548TIP3   OH210649   3.873   1.873   0.217  0.1239 -0.5988  0.4012
 3548TIP3    H110650   3.845   1.909   0.133 -0.9093 -0.1092  0.9375
 3548TIP3    H210651   3.953   1.824   0.197 -0.2138 -0.6489 -0.8941
 3549TIP3   OH210652   5.303   5.809   1.647  0.3481 -0.1717 -0.6292
 3549TIP3    H110653   5.287   5.870   1.575 -0.2732 -1.0865 -1.2968
 3549TIP3    H210654   5.396   5.790   1.643  0.9376  2.0570  0.7013
 3550TIP3   OH210655   0.742   2.905   4.017 -0.5239  0.0180 -0.1617
 3550TIP3    H110656   0.819   2.918   4.073  0.3452 -1.1823 -1.0463
 3550TIP3    H210657   0.699   2.828   4.052 -1.2233  0.5534  0.1884
 3551TIP3   OH210658   0.702   4.690   3.315 -0.1066 -0.0993  0.2906
 3551TIP3    H110659   0.722   4.614   3.370 -2.3007 -1.2098 -0.3130
 3551TIP3    H210660   0.776   4.696   3.255  0.2831 -1.5612  0.5796
 3552TIP3   OH210661   4.319   1.430   0.885  0.1068 -0.5301 -0.1322
 3552TIP3    H110662   4.374   1.478   0.947 -0.9038 -0.2726  0.6071
 3552TIP3    H210663   4.229   1.450   0.913 -0.4407  0.6191 -2.4475
 3553TIP3   OH210664   5.340   2.943   3.708  0.9248 -0.3196  0.4186
 3553TIP3    H110665   5.266   2.927   3.767 -1.0607 -0.9481 -2.0546
 3553TIP3    H210666   5.360   2.857   3.671  0.7394  0.3500 -1.3113
 3554TIP3   OH210667   4.492   2.200   2.652 -0.1333 -0.7407 -0.2082
 3554TIP3    H110668   4.507   2.159   2.567  0.7966  1.5332 -1.1960
 3554TIP3    H210669   4.496   2.294   2.635  1.0543 -0.2068  2.5114
 3555TIP3   OH210670   2.354   1.818   0.146  0.3913 -0.5027 -0.0211
 3555TIP3    H110671   2.328   1.773   0.066  1.1756 -1.9570  0.5046
 3555TIP3    H210672   2.315   1.905   0.138 -0.9333 -1.1572 -1.2177
 3556TIP3   OH210673   2.926   0.233   0.120  0.3685 -0.1235  0.5511
 3556TIP3    H110674   2.901   0.151   0.078 -0.4402 -0.6545  2.0336
 3556TIP3    H210675   2.963   0.286   0.048 -0.5617 -1.1565 -0.7342
 3557TIP3   OH210676   4.322   0.725   2.897 -0.2709 -0.3489  0.1388
 3557TIP3    H110677   4.406   0.682   2.911  1.3800  2.3160 -0.7813
 3557TIP3    H210678   4.257   0.659   2.921  2.0125 -2.9785 -0.3387
 3558TIP3   OH210679   2.927   2.418   1.010 -0.2036 -0.5267 -0.1464
 3558TIP3    H110680   2.860   2.351   0.995 -1.7380  1.1824 -1.3679
 3558TIP3    H210681   3.002   2.389   0.958 -1.0357 -1.0401 -1.0968
 3559TIP3   OH210682   2.902   0.380   1.138  0.5469 -0.7377 -1.0566
 3559TIP3    H110683   2.950   0.326   1.201  0.3047 -1.4437 -1.4710
 3559TIP3    H210684   2.971   0.433   1.096  0.5310  1.0514  1.0020
 3560TIP3   OH210685   2.111   0.754   1.336  0.3396  0.2653 -0.1771
 3560TIP3    H110686   2.044   0.735   1.402 -2.3009  1.7575 -2.1959
 3560TIP3    H210687   2.076   0.716   1.255  1.9120  1.1584 -1.3366
 3561TIP3   OH210688   2.739   3.305   1.303 -0.3442  0.0390  0.0805
 3561TIP3    H110689   2.726   3.395   1.333 -0.4615 -0.4980  1.7422
 3561TIP3    H210690   2.771   3.314   1.214 -1.1831  1.7033 -0.0901
 3562TIP3   OH210691   2.822   1.869   2.355 -0.2256 -0.7553  0.5521
 3562TIP3    H110692   2.839   1.775   2.354 -0.7361 -0.8541  0.9742
 3562TIP3    H210693   2.732   1.878   2.324 -0.6677 -0.5230  1.8225
 3563TIP3   OH210694   0.923   3.902   3.736  0.3111  0.1455  0.0305
 3563TIP3    H110695   0.874   3.871   3.660  0.9575  1.0559 -0.7784
 3563TIP3    H210696   0.975   3.826   3.763  0.3924 -0.0695 -0.7064
 3564TIP3   OH210697   3.759   4.612   5.064  0.6310 -0.2172  0.8474
 3564TIP3    H110698   3.790   4.525   5.041  2.0768  0.0953  1.4910
 3564TIP3    H210699   3.805   4.670   5.003  1.3292  0.2588  1.7985
 3565TIP3   OH210700   1.876   1.976   2.988  0.1907 -1.1619 -1.1152
 3565TIP3    H110701   1.806   1.923   2.951 -3.2865  0.2027  2.6491
 3565TIP3    H210702   1.910   1.924   3.061 -0.8133  0.2179  0.4228
 3566TIP3   OH210703   0.282   5.278   0.337 -0.1278  0.1254  0.4487
 3566TIP3    H110704   0.319   5.238   0.258 -0.1309 -0.7599  0.8819
 3566TIP3    H210705   0.339   5.250   0.408 -0.2378  0.7568  0.7970
 3567TIP3   OH210706   2.175   0.047   0.137 -0.8988 -0.0295  0.0522
 3567TIP3    H110707   2.270   0.045   0.148 -1.1598 -0.9321  2.8345
 3567TIP3    H210708   2.157   0.134   0.102  0.9390  0.0909 -0.7237
 3568TIP3   OH210709   1.072   2.450   0.128 -0.6898 -0.5110  0.0749
 3568TIP3    H110710   1.148   2.410   0.172 -0.7166 -0.9471 -0.2642
 3568TIP3    H210711   1.110   2.493   0.051 -0.5292  0.9718  0.9497
 3569TIP3   OH210712   6.047   5.254   1.913 -0.1780  0.2966  0.8171
 3569TIP3    H110713   6.047   5.337   1.961 -2.7446  0.6184  0.4350
 3569TIP3    H210714   5.973   5.205   1.951  0.0858 -0.9971 -0.2645
 3570TIP3   OH210715   6.026   1.880   5.144  0.4983  0.3673 -0.0798
 3570TIP3    H110716   6.120   1.897   5.151  0.7385 -0.5959 -0.6942
 3570TIP3    H210717   6.006   1.826   5.220  0.7571 -0.6340 -0.7028
 3571TIP3   OH210718   2.535   5.124   1.435  0.1205  0.2348  0.1639
 3571TIP3    H110719   2.472   5.170   1.491 -0.4233  0.6686 -0.7928
 3571TIP3    H210720   2.531   5.170   1.351  0.6506 -0.6531 -0.3614
 3572TIP3   OH210721   2.917   5.950   3.394 -0.0685 -0.9858  0.5568
 3572TIP3    H110722   2.924   5.981   3.484 -0.2644  0.1731  0.1830
 3572TIP3    H210723   2.923   6.029   3.341 -0.0621 -1.6477 -0.4481
 3573TIP3   OH210724   0.251   3.650   1.730  0.0749 -0.6742 -0.1179
 3573TIP3    H110725   0.203   3.569   1.716  0.1087 -0.7495  0.1935
 3573TIP3    H210726   0.307   3.659   1.653 -0.7912 -0.3332 -0.7179
 3574TIP3   OH210727   5.088   3.687   4.404 -0.2320 -0.2798  0.2157
 3574TIP3    H110728   5.159   3.685   4.469 -0.4668  0.2331  0.4910
 3574TIP3    H210729   5.071   3.780   4.390 -0.3375 -0.3931 -0.4207
 3575TIP3   OH210730   6.067   5.171   1.572 -0.0681 -0.3888  0.3110
 3575TIP3    H110731   6.129   5.243   1.578  0.7403 -1.0581  0.2495
 3575TIP3    H210732   6.110   5.107   1.516 -2.2446  0.5156 -2.6181
 3576TIP3   OH210733   2.316   3.425   3.598  0.1709 -0.1474 -0.0812
 3576TIP3    H110734   2.245   3.360   3.594 -0.0331  0.1089 -3.1227
 3576TIP3    H210735   2.394   3.374   3.618 -0.3307 -1.0127 -0.2485
 3577TIP3   OH210736   3.310   0.073   3.579 -0.3101 -0.5139  0.3751
 3577TIP3    H110737   3.268   0.144   3.531 -0.7642 -1.2794 -0.3826
 3577TIP3    H210738   3.401   0.102   3.590 -0.4819  0.1737  0.0659
 3578TIP3   OH210739   5.006   4.648   4.556 -0.0423  0.3512 -0.6274
 3578TIP3    H110740   4.959   4.600   4.624  0.6552 -1.4889 -1.3753
 3578TIP3    H210741   4.953   4.639   4.477  1.2423 -1.3560 -1.3656
 3579TIP3   OH210742   4.904   3.421   3.489 -0.0069  0.2364  0.4631
 3579TIP3    H110743   4.851   3.400   3.566 -0.2735  0.3940  0.3229
 3579TIP3    H210744   4.842   3.457   3.426  0.1430 -0.2638  0.0210
 3580TIP3   OH210745   5.008   0.489   3.074  0.1914  0.1691  0.1541
 3580TIP3    H110746   4.954   0.413   3.054 -0.4337  0.5477  0.3686
 3580TIP3    H210747   5.057   0.464   3.152  2.7733 -1.3848 -1.8019
 3581TIP3   OH210748   5.771   5.844   0.223  0.4685 -0.6823  0.0754
 3581TIP3    H110749   5.795   5.916   0.165  1.2413  0.2122  1.4378
 3581TIP3    H210750   5.852   5.823   0.270 -0.2073 -1.1173  1.0889
 3582TIP3   OH210751   5.168   4.092   1.946 -0.0089  0.0223  0.4821
 3582TIP3    H110752   5.158   4.187   1.947 -1.7542 -0.1008 -0.8864
 3582TIP3    H210753   5.214   4.073   1.865  2.6402 -0.2049  1.9102
 3583TIP3   OH210754   0.751   1.981   0.762  0.5197 -0.2408  0.2032
 3583TIP3    H110755   0.818   2.048   0.747  0.8467 -0.8853 -1.3537
 3583TIP3    H210756   0.787   1.901   0.723 -1.6410 -0.3244 -1.8118
 3584TIP3   OH210757   5.760   0.938   4.104  0.0197  0.5834 -0.0458
 3584TIP3    H110758   5.771   1.031   4.124  1.9738  0.7797 -1.7431
 3584TIP3    H210759   5.697   0.936   4.032  2.2108  0.9444 -2.1084
 3585TIP3   OH210760   6.005   0.492   4.479  0.6305 -0.2765 -0.4627
 3585TIP3    H110761   6.029   0.404   4.509 -1.8702 -1.5386 -1.8665
 3585TIP3    H210762   6.021   0.490   4.385  0.8280  0.9212 -0.4656
 3586TIP3   OH210763   3.079   2.920   1.808  0.2194  0.1783 -0.1545
 3586TIP3    H110764   3.136   2.989   1.777  0.2231 -0.1556 -0.9045
 3586TIP3    H210765   3.135   2.866   1.864 -0.2300  1.8172  2.0398
 3587TIP3   OH210766   2.266   1.350   1.373  0.1053 -0.0522  0.5289
 3587TIP3    H110767   2.319   1.358   1.295 -1.0611  0.0568 -0.2787
 3587TIP3    H210768   2.314   1.397   1.441  1.2102 -0.3002 -0.0661
 3588TIP3   OH210769   2.438   5.449   2.433 -0.7683 -0.3213  0.0352
 3588TIP3    H110770   2.460   5.518   2.370 -0.8598 -0.5927 -0.2997
 3588TIP3    H210771   2.518   5.396   2.438 -1.0804 -0.8610 -0.5952
 3589TIP3   OH210772   0.816   1.140   3.930  0.0242  0.1583  0.3483
 3589TIP3    H110773   0.828   1.051   3.963 -0.0236  0.4390  1.1280
 3589TIP3    H210774   0.904   1.169   3.906  0.1289  0.1420  0.7149
 3590TIP3   OH210775   0.927   5.066   2.034 -0.0270  0.1772 -0.5699
 3590TIP3    H110776   0.911   5.133   2.101  1.4468  0.2288 -0.2305
 3590TIP3    H210777   1.018   5.039   2.049  0.1269 -0.2706 -2.1474
 3591TIP3   OH210778   4.274   3.921   0.206  0.4292  0.0358 -0.3858
 3591TIP3    H110779   4.268   3.827   0.189  0.3178 -0.3134  1.3532
 3591TIP3    H210780   4.332   3.954   0.138 -0.5573 -1.0504 -1.8086
 3592TIP3   OH210781   6.218   5.256   0.953  0.3011  0.3335 -0.2555
 3592TIP3    H110782   6.247   5.165   0.958 -0.8360 -0.0651 -0.4735
 3592TIP3    H210783   6.188   5.277   1.041  0.9164  0.6241 -0.1142
 3593TIP3   OH210784   1.152   0.646   2.674  0.3347 -0.1505 -0.0180
 3593TIP3    H110785   1.134   0.696   2.595  0.7766  0.8575  0.5021
 3593TIP3    H210786   1.203   0.706   2.729 -2.5530  0.3662  2.3598
 3594TIP3   OH210787   3.780   0.186   2.528  0.2828  0.2903  0.4991
 3594TIP3    H110788   3.825   0.115   2.573 -1.0470  0.1116  1.6275
 3594TIP3    H210789   3.764   0.251   2.597 -1.1208  0.3537  0.1351
 3595TIP3   OH210790   6.320   5.561   1.642 -0.3148 -0.2155  0.1070
 3595TIP3    H110791   6.363   5.607   1.569 -2.1119  0.3382 -0.6597
 3595TIP3    H210792   6.363   5.595   1.720  1.0986 -0.2042 -0.6316
 3596TIP3   OH210793   5.385   0.949   0.547  0.1374 -0.2789 -0.2289
 3596TIP3    H110794   5.290   0.950   0.534  0.3482 -0.2450 -1.9789
 3596TIP3    H210795   5.421   0.975   0.462  1.6894  1.1492  0.8038
 3597TIP3   OH210796   0.618   0.870   0.512  0.4005 -0.3186  0.3438
 3597TIP3    H110797   0.548   0.807   0.496  0.0999  0.1788 -0.3864
 3597TIP3    H210798   0.590   0.949   0.465  1.4446 -0.1143  0.0341
 3598TIP3   OH210799   6.195   0.072   1.452  0.1821 -0.0421  0.0959
 3598TIP3    H110800   6.131   0.120   1.400  0.4582  0.0989 -0.1190
 3598TIP3    H210801   6.259   0.041   1.388  0.4918  0.0811  0.3409
 3599TIP3   OH210802   2.020   1.475   0.174 -0.2686  0.0393 -0.8387
 3599TIP3    H110803   1.925   1.489   0.167 -0.5069 -1.0566 -0.0714
 3599TIP3    H210804   2.029   1.401   0.233  1.1151  0.7635 -0.0848
 3600TIP3   OH210805   2.375   5.359   3.955 -0.0728 -0.0231 -0.8256
 3600TIP3    H110806   2.383   5.277   4.004  0.7321 -0.3457 -1.4713
 3600TIP3    H210807   2.292   5.396   3.984 -1.1554 -1.7631 -1.5270
 3601TIP3   OH210808   1.773   4.536   0.658  0.5028 -0.2864  0.0428
 3601TIP3    H110809   1.834   4.482   0.608 -0.2314 -0.1114 -1.0752
 3601TIP3    H210810   1.687   4.498   0.640  0.0808  0.6589  0.0433
 3602TIP3   OH210811   3.378   4.710   3.488 -0.4118  0.1554  0.0344
 3602TIP3    H110812   3.283   4.709   3.496 -0.5242 -0.6793 -1.1678
 3602TIP3    H210813   3.400   4.801   3.469 -1.0756  0.1775 -0.6476
 3603TIP3   OH210814   2.635   2.354   1.033  0.1419  0.0550 -0.1142
 3603TIP3    H110815   2.540   2.338   1.035  0.2057 -0.2808  0.3964
 3603TIP3    H210816   2.644   2.442   0.997 -0.3196 -0.2694 -1.0648
 3604TIP3   OH210817   2.065   5.305   2.501  0.4222  0.1733  0.1627
 3604TIP3    H110818   1.992   5.363   2.525  1.1549  2.5327 -2.6713
 3604TIP3    H210819   2.029   5.246   2.435  0.5950 -0.0390  0.2552
 3605TIP3   OH210820   4.590   5.072   3.921  0.7355  0.1707 -0.1866
 3605TIP3    H110821   4.683   5.050   3.924  1.0062  1.1220 -1.1543
 3605TIP3    H210822   4.555   5.020   3.849  0.1443 -1.3923  1.1495
 3606TIP3   OH210823   0.278   3.228   0.581  0.4415  0.1298 -0.1653
 3606TIP3    H110824   0.210   3.291   0.561  1.6668  0.8297 -2.5413
 3606TIP3    H210825   0.265   3.157   0.517  1.4650 -0.0840 -0.1615
 3607TIP3   OH210826   2.958   4.492   2.485  0.2375 -0.6786 -0.5820
 3607TIP3    H110827   2.884   4.505   2.544 -0.9744 -1.4884 -1.8818
 3607TIP3    H210828   2.952   4.563   2.422  0.3536 -0.9365 -0.8890
 3608TIP3   OH210829   1.330   4.287   0.409 -0.4955 -0.1787  0.0786
 3608TIP3    H110830   1.315   4.355   0.474  1.7806  0.6287 -0.1352
 3608TIP3    H210831   1.246   4.277   0.364 -1.5265  0.7568  1.7096
 3609TIP3   OH210832   4.368   5.217   3.729 -0.0741 -0.2675 -0.1193
 3609TIP3    H110833   4.383   5.243   3.820  0.2399 -1.5320  0.2166
 3609TIP3    H210834   4.445   5.248   3.682 -0.5831  1.0598 -0.1185
 3610TIP3   OH210835   1.108   0.711   3.806  0.7635  0.0620 -0.1381
 3610TIP3    H110836   1.193   0.669   3.820  0.5567 -0.0484  0.9084
 3610TIP3    H210837   1.046   0.657   3.856  0.0266 -0.0229 -1.1195
 3611TIP3   OH210838   1.689   0.934   1.214 -0.0566 -0.0672  0.6778
 3611TIP3    H110839   1.700   0.981   1.296  1.9000 -1.3288  1.1980
 3611TIP3    H210840   1.686   0.842   1.239 -1.1177 -0.3964 -0.5382
 3612TIP3   OH210841   3.845   2.869   2.061 -0.8452  0.9067 -0.2477
 3612TIP3    H110842   3.910   2.916   2.009  0.1504 -0.9218 -0.7520
 3612TIP3    H210843   3.771   2.929   2.067 -0.1960  1.9557 -2.0577
 3613TIP3   OH210844   2.801   0.508   3.094  0.2615  0.5561  0.1891
 3613TIP3    H110845   2.849   0.534   3.172 -0.5818  0.0071  0.9137
 3613TIP3    H210846   2.868   0.499   3.026  1.4876 -2.0965  1.6243
 3614TIP3   OH210847   3.137   4.954   1.559  0.2911 -0.0106  0.6109
 3614TIP3    H110848   3.145   5.050   1.561 -2.1540  0.3082 -0.7850
 3614TIP3    H210849   3.067   4.935   1.622  1.1886 -0.9643  1.3382
 3615TIP3   OH210850   1.440   2.206   3.613 -0.4225  0.0367 -0.0438
 3615TIP3    H110851   1.397   2.282   3.574 -0.7271 -0.7417 -1.2782
 3615TIP3    H210852   1.530   2.209   3.580 -0.7372 -0.7399 -1.0239
 3616TIP3   OH210853   2.517   1.265   3.625 -0.0058  0.3533 -0.9719
 3616TIP3    H110854   2.542   1.232   3.712  0.1495 -0.4396 -1.3136
 3616TIP3    H210855   2.552   1.354   3.623  0.9108  0.0129 -0.6221
 3617TIP3   OH210856   4.929   2.084   5.040 -0.1146  0.0695  0.6235
 3617TIP3    H110857   4.965   2.100   5.128  2.3582  2.3753 -0.6389
 3617TIP3    H210858   4.888   2.167   5.015  1.1765  0.2327 -1.1763
 3618TIP3   OH210859   2.548   2.201   1.387 -0.3528 -0.4675 -0.1993
 3618TIP3    H110860   2.487   2.270   1.359 -0.5497 -0.8688 -0.7829
 3618TIP3    H210861   2.494   2.140   1.437 -0.2283 -0.3237  0.1113
 3619TIP3   OH210862   6.145   2.245   3.877 -0.4357  0.0424  0.3661
 3619TIP3    H110863   6.142   2.154   3.847 -0.0628  0.4302 -0.9109
 3619TIP3    H210864   6.148   2.238   3.973 -2.6278 -1.2136  0.4042
 3620TIP3   OH210865   6.263   2.699   2.741 -0.2030 -0.7254 -0.6159
 3620TIP3    H110866   6.262   2.683   2.836  0.2251  0.4162 -0.4080
 3620TIP3    H210867   6.247   2.793   2.732 -1.9066 -1.0730 -1.7627
 3621TIP3   OH210868   1.635   5.135   0.782  0.2181  0.0477 -0.2566
 3621TIP3    H110869   1.592   5.215   0.813 -0.4179 -1.2113  2.3341
 3621TIP3    H210870   1.570   5.066   0.795  1.4996 -1.2336 -0.4401
 3622TIP3   OH210871   5.467   4.475   2.760  0.0818 -0.4489 -0.2501
 3622TIP3    H110872   5.540   4.416   2.781  0.8438  0.4975 -0.1644
 3622TIP3    H210873   5.505   4.563   2.768 -0.7859  0.0313 -1.2629
 3623TIP3   OH210874   5.507   3.697   2.354 -0.0855 -0.3313 -0.3002
 3623TIP3    H110875   5.463   3.655   2.280 -0.6185  1.1601 -0.8518
 3623TIP3    H210876   5.597   3.709   2.325  0.0662 -1.0548 -0.1464
 3624TIP3   OH210877   4.148   2.735   2.279 -0.1892  0.3144  0.3229
 3624TIP3    H110878   4.241   2.731   2.301 -0.6431 -2.9822  2.3550
 3624TIP3    H210879   4.144   2.707   2.187  0.8255  0.8832  0.0921
 3625TIP3   OH210880   3.863   2.375   1.611 -0.9809 -0.0021  0.1535
 3625TIP3    H110881   3.800   2.362   1.682 -1.1960 -0.2284 -0.0786
 3625TIP3    H210882   3.907   2.291   1.601 -0.4934  0.2116  0.4522
 3626TIP3   OH210883   4.707   5.242   3.394 -0.5026  0.4560  0.9456
 3626TIP3    H110884   4.737   5.332   3.407 -0.3791  0.4542  0.6765
 3626TIP3    H210885   4.611   5.249   3.393 -0.5043  0.5242  1.3459
 3627TIP3   OH210886   0.535   4.580   4.307 -0.4960 -0.7646 -0.5609
 3627TIP3    H110887   0.529   4.523   4.384 -1.3100 -0.5231 -0.4333
 3627TIP3    H210888   0.497   4.663   4.336  2.3806  0.5290 -0.1450
 3628TIP3   OH210889   2.687   1.051   2.395  0.5528  0.0571 -0.2312
 3628TIP3    H110890   2.651   0.962   2.405 -0.7863  0.7395  1.6443
 3628TIP3    H210891   2.782   1.039   2.403  0.4648 -1.3086 -0.9850
 3629TIP3   OH210892   5.155   3.672   4.768  0.1026  0.6333  0.5796
 3629TIP3    H110893   5.233   3.673   4.823  2.6282 -0.5827 -2.6472
 3629TIP3    H210894   5.169   3.743   4.706 -0.8099 -0.2530 -0.6873
 3630TIP3   OH210895   6.092   2.115   1.998 -0.0176 -0.0603  0.3231
 3630TIP3    H110896   6.103   2.180   1.928  2.4253  0.3951  1.0210
 3630TIP3    H210897   6.096   2.166   2.079 -1.6690 -0.7144  0.8497
 3631TIP3   OH210898   2.105   0.386   1.396  0.1521  0.5926 -0.6488
 3631TIP3    H110899   2.176   0.415   1.453 -0.0948  0.0063 -0.0246
 3631TIP3    H210900   2.070   0.309   1.440  0.1697 -0.0720 -1.7653
 3632TIP3   OH210901   1.448   1.850   0.865  0.6505 -0.4140  0.0587
 3632TIP3    H110902   1.371   1.877   0.915 -0.2627 -2.7539  0.0616
 3632TIP3    H210903   1.499   1.797   0.926  2.2604  0.9845  0.0079
 3633TIP3   OH210904   1.840   0.604   1.386  0.3194 -0.1514 -0.5190
 3633TIP3    H110905   1.760   0.656   1.381 -0.9671 -1.9160  0.5479
 3633TIP3    H210906   1.809   0.514   1.395  2.3997 -0.7831  1.0742
 3634TIP3   OH210907   2.712   0.500   4.158 -0.6805 -0.2706  0.1920
 3634TIP3    H110908   2.733   0.433   4.094 -0.2786  0.9216 -0.9771
 3634TIP3    H210909   2.776   0.489   4.228  1.1818  0.6053 -1.2907
 3635TIP3   OH210910   4.580   1.573   2.636  0.4152  0.4977 -0.0152
 3635TIP3    H110911   4.643   1.513   2.595 -0.6334 -0.9021  0.3437
 3635TIP3    H210912   4.539   1.619   2.562  0.2723 -0.2208 -0.3904
 3636TIP3   OH210913   6.182   5.649   0.255  0.2242 -0.4964 -0.0191
 3636TIP3    H110914   6.211   5.587   0.321  2.1670  0.9268  0.5842
 3636TIP3    H210915   6.250   5.717   0.254 -0.4920  0.3182 -2.4251
 3637TIP3   OH210916   5.900   0.422   1.134  0.4614 -0.0049  0.4485
 3637TIP3    H110917   5.976   0.481   1.133  0.9339 -0.5994 -0.5386
 3637TIP3    H210918   5.839   0.461   1.071 -0.6529  1.1735  2.1581
 3638TIP3   OH210919   5.490   4.247   4.248 -0.1728  0.4472 -0.0977
 3638TIP3    H110920   5.435   4.169   4.248  0.2698  0.1333  0.3810
 3638TIP3    H210921   5.527   4.251   4.336  0.3973  0.7838 -0.3460
 3639TIP3   OH210922   2.162   1.631   1.076  0.4803  0.3580  0.0308
 3639TIP3    H110923   2.090   1.577   1.047 -0.5197  0.8715  1.4508
 3639TIP3    H210924   2.223   1.570   1.118  0.5618  0.0165 -0.5745
 3640TIP3   OH210925   1.978   3.200   3.241  0.7538 -0.0708  0.2328
 3640TIP3    H110926   2.024   3.283   3.254 -1.1977  0.8892  1.6899
 3640TIP3    H210927   2.034   3.134   3.281  1.3363  0.8905  1.0457
 3641TIP3   OH210928   0.063   4.484   5.062 -0.5852  0.2427 -0.0590
 3641TIP3    H110929  -0.028   4.514   5.059 -1.3564 -1.9473 -0.1862
 3641TIP3    H210930   0.058   4.394   5.092  1.7664  0.7321  2.1117
 3642TIP3   OH210931   1.957   3.893   3.740 -0.3246  0.3760  0.1071
 3642TIP3    H110932   2.029   3.946   3.704 -1.2675 -0.0281 -2.6384
 3642TIP3    H210933   1.881   3.950   3.736 -0.5676  0.1453  1.1225
 3643TIP3   OH210934   4.786   4.595   0.819 -0.3585  0.0289 -0.2889
 3643TIP3    H110935   4.777   4.551   0.735  0.3584  0.5381 -0.6433
 3643TIP3    H210936   4.861   4.553   0.860 -1.7320 -1.4102  0.8765
 3644TIP3   OH210937   4.752   3.066   0.262  0.3633 -0.0157 -0.4809
 3644TIP3    H110938   4.713   3.023   0.338 -2.0712  1.0516 -1.0365
 3644TIP3    H210939   4.738   3.005   0.190  4.0419 -1.7389  0.0314
 3645TIP3   OH210940   2.638   3.065   1.510 -0.3351 -0.1671 -0.0728
 3645TIP3    H110941   2.662   3.155   1.533 -3.0867  0.3042  1.3656
 3645TIP3    H210942   2.718   3.015   1.521  0.7872  1.7801  1.0571
 3646TIP3   OH210943   3.614   4.124   4.083  0.7553  0.5905 -0.3224
 3646TIP3    H110944   3.613   4.135   3.988  0.9113 -0.5819 -0.4836
 3646TIP3    H210945   3.677   4.053   4.098 -1.6148 -1.5504  0.3350
 3647TIP3   OH210946   5.280   5.928   1.896 -0.1958 -0.4091 -0.5737
 3647TIP3    H110947   5.350   5.894   1.952  0.4859  1.3093 -0.3269
 3647TIP3    H210948   5.304   5.899   1.808  1.9001  1.6132 -0.7886
 3648TIP3   OH210949   1.665   1.122   1.022  0.5246  0.3019  0.4186
 3648TIP3    H110950   1.700   1.040   0.987  0.4063 -0.1570  1.3553
 3648TIP3    H210951   1.692   1.123   1.114  0.6933  1.4089  0.3764
 3649TIP3   OH210952   0.251   2.265   1.376 -0.6911  0.2191  0.1609
 3649TIP3    H110953   0.222   2.337   1.319 -0.4091  1.3545  1.4043
 3649TIP3    H210954   0.181   2.200   1.369 -1.8408  1.3782  0.3439
 3650TIP3   OH210955   0.571   2.277   1.058  0.6474  0.1621 -0.3893
 3650TIP3    H110956   0.573   2.186   1.026 -0.2839  0.4794 -1.4030
 3650TIP3    H210957   0.663   2.298   1.073  0.9208 -0.8025 -0.5966
 3651TIP3   OH210958   6.084   0.224   4.346 -0.3624 -0.0736 -0.1576
 3651TIP3    H110959   6.170   0.183   4.357 -1.2280 -1.7403  0.7480
 3651TIP3    H210960   6.095   0.284   4.272  1.9519  0.8322  0.8430
 3652TIP3   OH210961   4.330   4.699   3.245  0.4965  0.4162 -0.2510
 3652TIP3    H110962   4.351   4.606   3.251  1.7828  0.7402  1.3790
 3652TIP3    H210963   4.296   4.712   3.157  0.0989 -1.6221 -0.4307
 3653TIP3   OH210964   0.731   1.752   4.558  0.1650  0.1660  0.4419
 3653TIP3    H110965   0.785   1.823   4.523 -0.5933 -0.0830 -1.3462
 3653TIP3    H210966   0.643   1.788   4.561 -0.0028 -0.2608  0.8965
 3654TIP3   OH210967   0.642   0.428   3.374  0.0880 -0.0598  0.2822
 3654TIP3    H110968   0.573   0.385   3.325 -0.0643  1.0984 -0.5378
 3654TIP3    H210969   0.633   0.521   3.354  0.2524  0.4243  2.2128
 3655TIP3   OH210970   3.262   2.396   2.604 -0.4855  0.0145  0.4499
 3655TIP3    H110971   3.222   2.324   2.556  0.4524 -0.6825  0.6841
 3655TIP3    H210972   3.303   2.354   2.680  2.0654  0.4209 -0.5887
 3656TIP3   OH210973   0.023   5.991   3.980  0.2049  0.3297 -0.1375
 3656TIP3    H110974   0.100   5.940   3.952 -0.2634 -0.3942 -0.1265
 3656TIP3    H210975  -0.046   5.967   3.918  0.2377  1.7365 -0.7581
 3657TIP3   OH210976   3.492   5.724   1.320  0.7482 -0.3802 -0.3742
 3657TIP3    H110977   3.529   5.741   1.406 -1.3310 -2.5125  1.0435
 3657TIP3    H210978   3.398   5.738   1.331  0.3808 -1.1427 -2.1931
 3658TIP3   OH210979   2.366   3.319   0.683  0.6917 -0.3859 -0.3089
 3658TIP3    H110980   2.295   3.381   0.669  1.4119  0.5723  0.1401
 3658TIP3    H210981   2.323   3.240   0.715 -0.2511 -0.1482 -0.9354
 3659TIP3   OH210982   0.338   1.373   0.426  0.2628  0.6010 -0.1649
 3659TIP3    H110983   0.357   1.393   0.335 -0.5552 -0.4810 -0.5983
 3659TIP3    H210984   0.418   1.331   0.458 -0.4678 -1.8404 -1.3140
 3660TIP3   OH210985   5.742   3.953   4.200  0.1390 -0.2075 -0.1977
 3660TIP3    H110986   5.783   3.987   4.279  0.3517  1.3640 -0.9277
 3660TIP3    H210987   5.664   3.908   4.231 -0.7436  1.8730  0.8513
 3661TIP3   OH210988   2.979   4.087   1.967 -0.6179  0.0534 -0.3821
 3661TIP3    H110989   2.984   4.070   2.061 -1.5630  0.4417 -0.2509
 3661TIP3    H210990   3.064   4.060   1.934 -0.3001 -0.1743  0.5706
 3662TIP3   OH210991   3.845   2.300   3.672  0.2063  0.1395 -0.3469
 3662TIP3    H110992   3.800   2.376   3.635 -0.9393 -0.1388  0.4315
 3662TIP3    H210993   3.935   2.307   3.639 -0.0323  1.5066 -0.7619
 3663TIP3   OH210994   6.031   4.872   1.666 -0.4648 -0.0479  0.1186
 3663TIP3    H110995   6.013   4.871   1.761  0.3230 -0.8464  0.2690
 3663TIP3    H210996   6.120   4.907   1.659 -0.5855  0.1664 -0.3474
 3664TIP3   OH210997   0.208   2.432   1.888 -0.2522  0.1966  0.1386
 3664TIP3    H110998   0.138   2.480   1.930 -0.5418 -1.2257  1.3583
 3664TIP3    H210999   0.184   2.430   1.795 -0.0921  2.5392 -0.0072
 3665TIP3   OH211000   0.733   5.373   2.394 -0.7971  0.0609  0.2019
 3665TIP3    H111001   0.756   5.284   2.422 -0.5544  0.3071  0.7966
 3665TIP3    H211002   0.773   5.430   2.460 -3.7015  0.4986  1.7573
 3666TIP3   OH211003   2.281   1.244   3.915  0.2584  0.2719  0.2825
 3666TIP3    H111004   2.369   1.231   3.952  0.1610  0.5989  0.6349
 3666TIP3    H211005   2.250   1.324   3.956  0.9003  1.7549 -1.9377
 3667TIP3   OH211006   3.229   1.918   2.049  0.0800 -0.3464  0.4148
 3667TIP3    H111007   3.139   1.893   2.069 -0.1901 -1.6018 -1.9710
 3667TIP3    H211008   3.274   1.835   2.034  1.4587  0.2955  0.8585
 3668TIP3   OH211009   4.795   4.570   4.121 -0.4113  0.0680 -0.1481
 3668TIP3    H111010   4.858   4.557   4.050  0.0068 -0.3253  0.2799
 3668TIP3    H211011   4.710   4.570   4.078 -0.3417 -2.3681 -0.4433
 3669TIP3   OH211012   1.212   3.482   3.320  0.4725 -0.4474  0.2495
 3669TIP3    H111013   1.189   3.448   3.406 -1.5283 -2.4719 -0.9612
 3669TIP3    H211014   1.297   3.442   3.301  0.4822 -0.7525  0.9057
 3670TIP3   OH211015   2.868   5.286   0.392 -0.2457  0.0096 -0.4895
 3670TIP3    H111016   2.811   5.348   0.437 -0.9640 -1.8617  1.3783
 3670TIP3    H211017   2.810   5.213   0.369  0.7136 -0.3341 -1.9158
 3671TIP3   OH211018   3.436   5.761   4.504 -0.1872  0.1498 -0.2620
 3671TIP3    H111019   3.375   5.781   4.434 -1.6411 -0.7848  0.6909
 3671TIP3    H211020   3.468   5.846   4.533 -1.5149  0.7104 -0.3761
 3672TIP3   OH211021   3.501   5.323   1.022  0.3908  0.0412 -0.8202
 3672TIP3    H111022   3.524   5.265   0.949  0.1185 -2.0183  0.6234
 3672TIP3    H211023   3.522   5.271   1.100  0.8585  2.2325  0.5931
 3673TIP3   OH211024   6.036   4.876   1.941  0.4095  0.3065  0.4331
 3673TIP3    H111025   6.117   4.847   1.984 -0.0874  0.7334  1.6715
 3673TIP3    H211026   5.988   4.923   2.008 -0.6420  0.5230 -0.4459
 3674TIP3   OH211027   4.301   1.223   0.024 -0.3074  0.4219  0.3032
 3674TIP3    H111028   4.360   1.167  -0.027 -0.1997  0.1043  0.7716
 3674TIP3    H211029   4.214   1.188   0.006 -0.3113  0.5770  0.0071
 3675TIP3   OH211030   4.634   3.660   2.423 -0.2582  0.4181 -0.0019
 3675TIP3    H111031   4.555   3.623   2.383  0.7191 -1.3487 -0.4205
 3675TIP3    H211032   4.666   3.723   2.359  0.2761 -1.0480 -1.2434
 3676TIP3   OH211033   3.335   4.686   0.758  0.3299  0.1230 -0.1393
 3676TIP3    H111034   3.361   4.624   0.691  2.4231 -1.0315  1.6485
 3676TIP3    H211035   3.330   4.635   0.839 -2.2086  1.4429  0.6705
 3677TIP3   OH211036   2.192   1.902   1.038  0.2563  0.7040 -0.4830
 3677TIP3    H111037   2.172   1.808   1.040 -0.3792  0.7128 -3.0938
 3677TIP3    H211038   2.281   1.908   1.072  0.3836 -0.8807 -0.4446
 3678TIP3   OH211039   2.559   1.965   0.278 -0.0525  0.0902  0.3377
 3678TIP3    H111040   2.498   1.902   0.239  1.3816 -1.0638 -0.1093
 3678TIP3    H211041   2.537   1.965   0.371  0.0477 -1.2257  0.3773
 3679TIP3   OH211042   0.644   1.539   3.699  0.1538  0.6583 -0.1631
 3679TIP3    H111043   0.628   1.467   3.638 -0.9923  0.0170  0.8477
 3679TIP3    H211044   0.733   1.568   3.680  0.5552 -0.8837 -0.7499
 3680TIP3   OH211045   0.054   0.084   0.639  0.0542  0.5378 -0.2511
 3680TIP3    H111046   0.014   0.057   0.721  0.6598 -0.5099 -0.2837
 3680TIP3    H211047  -0.016   0.074   0.574 -0.0935  0.2434 -0.0483
 3681TIP3   OH211048   1.575   3.716   4.463 -0.2550 -0.1164  0.1393
 3681TIP3    H111049   1.606   3.729   4.373  2.6366  0.2086  1.0733
 3681TIP3    H211050   1.567   3.621   4.472  1.7128 -0.3251  0.1481
 3682TIP3   OH211051   3.356   0.942   1.090  0.0300 -0.6004  0.0599
 3682TIP3    H111052   3.428   1.002   1.071 -0.0270 -0.5577 -0.0195
 3682TIP3    H211053   3.280   0.980   1.044 -0.2221 -0.2310  0.7581
 3683TIP3   OH211054   5.473   5.134   1.767 -0.6409  0.2775  0.5069
 3683TIP3    H111055   5.513   5.221   1.775  0.2325  0.0454 -1.0221
 3683TIP3    H211056   5.485   5.094   1.853 -1.0082  1.6342  1.2226
 3684TIP3   OH211057   4.581   5.230   4.274  0.0762 -0.4730  0.3572
 3684TIP3    H111058   4.588   5.323   4.295 -1.6438 -0.3620  0.5149
 3684TIP3    H211059   4.507   5.198   4.326 -0.4270 -1.5574 -0.9540
 3685TIP3   OH211060   2.343   4.713   1.639  0.6603  0.4686  0.6025
 3685TIP3    H111061   2.378   4.724   1.728  0.5427 -2.7147  1.1455
 3685TIP3    H211062   2.354   4.620   1.620 -0.7446  0.7690 -2.1496
 3686TIP3   OH211063   5.708   2.193   1.480 -0.9901 -0.0869  0.0351
 3686TIP3    H111064   5.639   2.130   1.458  0.8641 -2.9209  1.6784
 3686TIP3    H211065   5.695   2.212   1.572 -1.9520  2.7158 -0.5759
 3687TIP3   OH211066   5.611   4.526   1.644  0.2163 -0.6223 -0.8213
 3687TIP3    H111067   5.577   4.561   1.562  1.0307 -2.6964 -2.1403
 3687TIP3    H211068   5.605   4.598   1.706 -2.0038  0.5180 -2.2392
 3688TIP3   OH211069   0.424   1.111   4.266 -0.1601  0.1170  0.2537
 3688TIP3    H111070   0.461   1.150   4.187  0.0555  2.2122  1.3299
 3688TIP3    H211071   0.394   1.185   4.318 -0.7489 -1.2339  1.9365
 3689TIP3   OH211072   4.348   3.557   4.030  0.5392  0.5801  0.2149
 3689TIP3    H111073   4.388   3.470   4.021 -0.0784  0.1284  1.4913
 3689TIP3    H211074   4.421   3.615   4.052  0.8992  0.3150 -0.2610
 3690TIP3   OH211075   4.065   0.338   3.364 -0.0861  0.6150 -0.0536
 3690TIP3    H111076   4.007   0.302   3.296 -0.2777 -1.4880  1.1297
 3690TIP3    H211077   4.152   0.331   3.326 -0.1596 -0.8406 -0.0082
 3691TIP3   OH211078   4.283   1.479   4.141  0.1760 -0.0161  0.1146
 3691TIP3    H111079   4.293   1.476   4.046  1.2287 -1.3812  0.2334
 3691TIP3    H211080   4.195   1.514   4.155  0.1598  0.5978 -1.3359
 3692TIP3   OH211081   5.939   5.978   0.022 -0.0593 -0.2673 -0.4746
 3692TIP3    H111082   6.026   5.955   0.054  0.9306  3.1538 -0.2567
 3692TIP3    H211083   5.949   5.984  -0.073  0.0569  0.4145 -0.4255
 3693TIP3   OH211084   0.726   1.447   2.970  0.0823  0.5775  0.5567
 3693TIP3    H111085   0.638   1.479   2.950 -0.2068  0.1509  1.0971
 3693TIP3    H211086   0.711   1.366   3.020  0.7882  0.1912  0.1516
 3694TIP3   OH211087   5.714   0.385   0.257 -0.4146  0.1409  0.0301
 3694TIP3    H111088   5.785   0.381   0.321 -0.3277  1.3589  0.0155
 3694TIP3    H211089   5.661   0.460   0.284 -0.3782  0.6709 -1.3275
 3695TIP3   OH211090   3.429   3.712   1.494 -0.3333 -0.2114 -0.2020
 3695TIP3    H111091   3.354   3.753   1.452 -0.5885  1.4818  1.7520
 3695TIP3    H211092   3.484   3.785   1.523  1.6663 -1.3945 -0.8103
 3696TIP3   OH211093   4.768   5.180   2.169  0.3836 -0.4046 -0.2763
 3696TIP3    H111094   4.772   5.252   2.232 -0.3290  0.3235 -1.0374
 3696TIP3    H211095   4.852   5.181   2.125 -0.2878  1.2551 -1.6392
 3697TIP3   OH211096   4.089   3.995   4.532 -0.2503 -0.1056  0.3569
 3697TIP3    H111097   4.030   3.998   4.608  1.1389 -1.9981  1.6007
 3697TIP3    H211098   4.102   4.087   4.509 -2.4198  0.4306  1.0095
 3698TIP3   OH211099   4.856   4.999   2.466  0.1612 -0.3268  0.1144
 3698TIP3    H111100   4.901   4.921   2.500  0.7168  0.0749  0.3079
 3698TIP3    H211101   4.920   5.040   2.409  0.0759  0.3155  0.4784
 3699TIP3   OH211102   3.975   1.990   3.135  0.0396 -0.1891  0.0324
 3699TIP3    H111103   3.927   1.970   3.216 -0.2389 -1.4282 -0.4202
 3699TIP3    H211104   4.054   2.035   3.165 -0.3543 -0.0824  0.9503
 3700TIP3   OH211105   0.955   0.996   1.624  0.1070  0.3008 -0.3963
 3700TIP3    H111106   1.034   0.981   1.571  0.0852 -3.4157  0.3237
 3700TIP3    H211107   0.883   0.977   1.564  0.0320 -1.8519  0.2730
 3701TIP3   OH211108   5.122   2.718   1.180 -0.2318 -0.6810  0.3183
 3701TIP3    H111109   5.108   2.766   1.262 -2.2888  0.1187 -0.4215
 3701TIP3    H211110   5.132   2.627   1.207  0.9925 -0.2040  1.5671
 3702TIP3   OH211111   3.835   4.592   0.301  0.6859  0.3640 -0.1928
 3702TIP3    H111112   3.903   4.585   0.234  0.7893 -1.0022  0.0339
 3702TIP3    H211113   3.881   4.589   0.384  0.3553 -0.5472 -0.0367
 3703TIP3   OH211114   3.548   2.113   4.722  0.0027  0.6660  0.5343
 3703TIP3    H111115   3.622   2.094   4.779 -0.3297 -0.2359  0.6797
 3703TIP3    H211116   3.471   2.092   4.775 -0.3541  1.1893  0.2384
 3704TIP3   OH211117   5.717   4.936   3.114 -0.3575 -0.1975  0.0663
 3704TIP3    H111118   5.797   4.971   3.074 -0.0742 -1.1880 -0.2639
 3704TIP3    H211119   5.731   4.947   3.208 -1.4875  3.1310 -0.0581
 3705TIP3   OH211120   0.408   0.250   1.059  0.4969 -0.2176  0.1312
 3705TIP3    H111121   0.441   0.214   1.142  1.9097 -1.3785 -0.8717
 3705TIP3    H211122   0.368   0.176   1.014  0.6967  0.1440 -0.6746
 3706TIP3   OH211123   1.765   0.859   1.565  0.3940 -0.3484 -0.8116
 3706TIP3    H111124   1.775   0.944   1.524 -1.9188  1.6328  2.2671
 3706TIP3    H211125   1.706   0.810   1.507  0.7098  0.6204 -1.9701
 3707TIP3   OH211126   4.299   2.052   1.888  0.3251  0.9001  0.0637
 3707TIP3    H111127   4.265   2.012   1.808  2.2205 -0.7806  0.0039
 3707TIP3    H211128   4.289   2.146   1.874 -2.1734  0.5729 -0.8091
 3708TIP3   OH211129   1.647   5.930   4.968  0.2092  0.7090 -0.4153
 3708TIP3    H111130   1.615   5.943   4.879  0.6773  3.4518 -0.2793
 3708TIP3    H211131   1.739   5.955   4.965  1.0059 -1.8680  0.3251
 3709TIP3   OH211132   3.626   2.255   2.293 -0.7559 -0.7774  0.4285
 3709TIP3    H111133   3.581   2.329   2.332 -0.3922 -0.2385 -0.1367
 3709TIP3    H211134   3.718   2.282   2.292 -0.4672 -1.7034  1.2332
 3710TIP3   OH211135   1.234   1.444   2.898  0.0909  0.4314  0.3834
 3710TIP3    H111136   1.285   1.493   2.834  0.5954 -0.0749  0.3827
 3710TIP3    H211137   1.143   1.457   2.873  0.0887  2.6507  1.2962
 3711TIP3   OH211138   2.067   4.439   4.464  1.0198  0.0427  0.3792
 3711TIP3    H111139   2.034   4.369   4.521  1.1203  0.4683  0.9755
 3711TIP3    H211140   2.140   4.399   4.417 -0.4705 -0.9953 -1.1593
 3712TIP3   OH211141   0.770   4.708   2.881  0.1839 -0.3088 -0.1542
 3712TIP3    H111142   0.744   4.767   2.951  1.4533  0.3467 -0.2088
 3712TIP3    H211143   0.689   4.690   2.833 -0.2455  1.2757 -0.0635
 3713TIP3   OH211144   2.470   1.962   3.790  0.1540  0.3053 -0.3832
 3713TIP3    H111145   2.406   1.977   3.859  0.1214  2.1054 -0.7575
 3713TIP3    H211146   2.459   1.870   3.767  0.1312 -0.3369  1.9360
 3714TIP3   OH211147   1.180   2.184   4.687 -0.0064 -0.0677  0.3006
 3714TIP3    H111148   1.190   2.096   4.723 -1.5093  0.1803  1.4466
 3714TIP3    H211149   1.139   2.171   4.602 -0.0489 -0.4881  0.3814
 3715TIP3   OH211150   1.880   3.679   3.551 -0.4064 -0.6655 -0.2085
 3715TIP3    H111151   1.963   3.641   3.523 -0.3516 -0.2181 -0.6744
 3715TIP3    H211152   1.902   3.768   3.579 -0.4577 -1.0976  1.3172
 3716TIP3   OH211153   2.903   5.479   4.424 -0.3135 -0.2722  0.2734
 3716TIP3    H111154   2.858   5.396   4.407 -1.0431  0.0195  0.7342
 3716TIP3    H211155   2.835   5.536   4.460 -0.1534  0.9689 -1.2823
 3717TIP3   OH211156   5.204   0.392   4.308 -0.5435 -0.0167  0.1971
 3717TIP3    H111157   5.230   0.406   4.217 -0.9313  0.9813  0.2174
 3717TIP3    H211158   5.244   0.309   4.333 -0.7931 -0.5222 -1.0174
 3718TIP3   OH211159   2.595   1.855   0.862 -0.5265 -0.0877  0.0915
 3718TIP3    H111160   2.605   1.826   0.771  0.9862  1.4100 -0.2563
 3718TIP3    H211161   2.680   1.839   0.902 -0.9749 -0.0925  1.0702
 3719TIP3   OH211162   4.450   2.432   2.895  0.1926  0.4849  0.3108
 3719TIP3    H111163   4.528   2.385   2.864  0.5374  0.8514  0.6203
 3719TIP3    H211164   4.380   2.367   2.891  0.9379 -0.4850  2.0705
 3720TIP3   OH211165   2.631   1.679   2.174  0.0899  0.7425 -0.0634
 3720TIP3    H111166   2.592   1.766   2.187  0.1143  0.8457 -0.6385
 3720TIP3    H211167   2.646   1.646   2.263 -0.8637  0.8929  0.1658
 3721TIP3   OH211168   3.998   4.262   3.462  0.0262 -0.0783  0.3335
 3721TIP3    H111169   3.937   4.236   3.392 -0.3758 -1.1944  1.0664
 3721TIP3    H211170   3.955   4.235   3.543  0.1317  1.8989  1.0978
 3722TIP3   OH211171   0.177   0.248   2.185  0.1650 -0.3521  0.2038
 3722TIP3    H111172   0.121   0.223   2.112 -0.9010 -1.5357  1.3736
 3722TIP3    H211173   0.153   0.339   2.203 -1.1168 -0.6998  0.3995
 3723TIP3   OH211174   6.097   1.131   4.562 -0.6293 -0.5315 -0.0848
 3723TIP3    H111175   6.106   1.184   4.641 -0.6408  1.0531 -1.1010
 3723TIP3    H211176   6.155   1.056   4.577 -0.5663 -0.2280  1.3737
 3724TIP3   OH211177   1.750   2.810   3.843  0.2299  0.5846  0.4310
 3724TIP3    H111178   1.816   2.879   3.844  0.1632  0.6644 -0.0887
 3724TIP3    H211179   1.762   2.766   3.758 -0.3282  0.5519  0.3626
 3725TIP3   OH211180   3.528   2.258   1.045 -0.2074  0.5953 -0.1330
 3725TIP3    H111181   3.445   2.238   1.089 -1.2745 -0.4096 -2.4103
 3725TIP3    H211182   3.587   2.285   1.115 -0.9761 -3.3018  2.3366
 3726TIP3   OH211183   3.729   3.188   2.722 -0.2873 -0.2147  0.0577
 3726TIP3    H111184   3.707   3.279   2.740 -2.9279 -0.4749 -1.3971
 3726TIP3    H211185   3.745   3.184   2.628 -0.6478 -1.3275  0.0234
 3727TIP3   OH211186   1.133   1.213   0.735 -0.3242 -0.2922  0.1641
 3727TIP3    H111187   1.228   1.199   0.736 -0.2433  0.3060  1.3967
 3727TIP3    H211188   1.096   1.129   0.762 -0.1482 -0.4946 -0.2182
 3728TIP3   OH211189   2.459   2.203   4.936  0.1095  0.5268  0.0193
 3728TIP3    H111190   2.374   2.237   4.961  0.0077 -0.0965  0.5531
 3728TIP3    H211191   2.496   2.169   5.018  0.2796 -0.4658 -0.4487
 3729TIP3   OH211192   1.371   3.736   0.800 -0.4358  0.3583  0.1636
 3729TIP3    H111193   1.416   3.701   0.877 -0.8654  0.0322  0.2765
 3729TIP3    H211194   1.434   3.795   0.759 -0.0785  0.2641  0.5717
 3730TIP3   OH211195   1.045   3.893   2.534  0.6615  0.1077  0.6287
 3730TIP3    H111196   0.981   3.960   2.509  0.6968  0.2547  0.9282
 3730TIP3    H211197   1.041   3.828   2.464 -2.0200 -1.4517  2.0353
 3731TIP3   OH211198   4.333   5.218   4.838  0.2638  0.2405 -0.0653
 3731TIP3    H111199   4.289   5.145   4.881 -0.2771  0.6222  0.0404
 3731TIP3    H211200   4.335   5.288   4.904  0.5891  0.3923 -0.2330
 3732TIP3   OH211201   5.309   3.807   3.927  0.1056 -0.0089  0.2589
 3732TIP3    H111202   5.295   3.832   3.836  0.8337  0.5598  0.2963
 3732TIP3    H211203   5.382   3.745   3.924  0.0066 -0.1368  0.4398
 3733TIP3   OH211204   5.346   4.801   2.150  0.3915 -0.5821 -0.1559
 3733TIP3    H111205   5.361   4.889   2.185  0.3200 -1.1766  1.4635
 3733TIP3    H211206   5.252   4.788   2.161  0.4773 -1.0299  0.0581
 3734TIP3   OH211207   3.808   1.915   3.334  0.0116 -0.3975  0.3775
 3734TIP3    H111208   3.805   1.820   3.328 -0.1806 -0.4325  0.9620
 3734TIP3    H211209   3.721   1.940   3.365  0.0174 -0.0199  0.0940
 3735TIP3   OH211210   0.206   3.628   3.499  0.0705 -0.0539  0.0851
 3735TIP3    H111211   0.250   3.636   3.415 -0.9886  2.3124 -0.3278
 3735TIP3    H211212   0.127   3.577   3.480 -0.3716  0.8190 -0.4721
 3736TIP3   OH211213   5.181   2.437   1.226 -0.1130  0.3501 -0.4808
 3736TIP3    H111214   5.267   2.410   1.193 -0.2111 -0.5983 -0.0022
 3736TIP3    H211215   5.118   2.391   1.170 -0.2875 -0.4110  0.3201
 3737TIP3   OH211216   2.675   2.764   2.758  0.5850  0.4234  0.0555
 3737TIP3    H111217   2.757   2.772   2.806  0.3673  0.7771  0.3700
 3737TIP3    H211218   2.698   2.786   2.667  0.8962  0.2296  0.0872
 3738TIP3   OH211219   1.551   5.217   2.047  0.6450 -0.2715 -0.4181
 3738TIP3    H111220   1.524   5.274   1.975  1.7562 -0.3172 -0.8996
 3738TIP3    H211221   1.525   5.263   2.126  0.1463  0.1692 -0.8315
 3739TIP3   OH211222   3.110   3.064   4.585  0.1447  0.3192  0.2425
 3739TIP3    H111223   3.126   3.022   4.669 -3.9974  1.6618  1.9917
 3739TIP3    H211224   3.073   2.996   4.530 -0.5459  0.1938  0.8426
 3740TIP3   OH211225   0.375   3.921   2.673  0.4124  0.4365 -0.8192
 3740TIP3    H111226   0.459   3.916   2.719 -0.8244 -0.8846  1.4861
 3740TIP3    H211227   0.334   3.836   2.690 -1.6726  1.2869 -1.3121
 3741TIP3   OH211228   5.880   4.458   3.159 -0.3458  0.1657 -0.1030
 3741TIP3    H111229   5.785   4.473   3.167 -0.2597  0.6018  0.1775
 3741TIP3    H211230   5.913   4.472   3.248 -0.0297 -0.0839 -0.1805
 3742TIP3   OH211231   5.761   5.745   2.819  0.3136  0.1914  0.2530
 3742TIP3    H111232   5.678   5.751   2.865  0.4854 -0.3722  0.6441
 3742TIP3    H211233   5.827   5.759   2.887  0.5306  2.1860 -0.3095
 3743TIP3   OH211234   5.355   2.723   2.770  0.1491 -0.2953  0.3289
 3743TIP3    H111235   5.414   2.762   2.834 -1.0877  0.4009  1.0678
 3743TIP3    H211236   5.378   2.765   2.687  1.1269 -0.5250  0.4733
 3744TIP3   OH211237   2.342   2.684   1.483 -0.3799 -0.0683 -0.3531
 3744TIP3    H111238   2.311   2.774   1.494 -0.9076 -0.1596 -0.9893
 3744TIP3    H211239   2.410   2.673   1.549 -1.2064  0.3847  0.5968
 3745TIP3   OH211240   2.410   5.067   2.453 -0.4269  0.0346 -0.3877
 3745TIP3    H111241   2.339   5.005   2.470  0.9428 -1.3160  0.6620
 3745TIP3    H211242   2.396   5.137   2.516 -0.3421 -0.6573  0.4105
 3746TIP3   OH211243   4.245   5.583   0.409  0.5806 -0.3218 -0.2030
 3746TIP3    H111244   4.263   5.513   0.472  0.1605 -0.7713 -0.5795
 3746TIP3    H211245   4.155   5.611   0.429  0.1289 -1.0557 -1.1592
 3747TIP3   OH211246   0.628   0.551   2.079 -0.1730 -0.4174 -0.3641
 3747TIP3    H111247   0.653   0.606   2.153 -0.7450 -0.6575  0.0142
 3747TIP3    H211248   0.629   0.610   2.004 -0.0470 -0.0630 -0.0893
 3748TIP3   OH211249   1.955   5.803   2.825  0.5567 -0.0988 -0.0132
 3748TIP3    H111250   1.911   5.724   2.857  1.6525  0.1705  2.3416
 3748TIP3    H211251   1.982   5.781   2.736 -1.2588 -1.4773 -0.2957
 3749TIP3   OH211252   1.322   4.347   3.134 -0.7996  0.4086  0.2467
 3749TIP3    H111253   1.338   4.346   3.039 -1.1798 -0.3853  0.1863
 3749TIP3    H211254   1.234   4.313   3.144 -0.1297 -1.1944  1.0016
 3750TIP3   OH211255   1.398   0.629   3.539  0.2185 -0.6960 -0.6899
 3750TIP3    H111256   1.395   0.724   3.545 -1.0815 -0.7746  0.6779
 3750TIP3    H211257   1.397   0.600   3.631  0.7411 -2.0344 -1.0820
 3751TIP3   OH211258   1.460   3.324   2.292  0.0604 -0.0528 -0.3808
 3751TIP3    H111259   1.555   3.333   2.283  0.0947 -0.3835 -0.3357
 3751TIP3    H211260   1.437   3.387   2.361  0.1210  0.6771 -1.0048
 3752TIP3   OH211261   3.406   2.975   0.604 -0.4059 -0.5693 -0.3065
 3752TIP3    H111262   3.464   3.050   0.592 -1.3775  0.1085 -0.9538
 3752TIP3    H211263   3.461   2.899   0.585  0.2136  0.0637 -1.1477
 3753TIP3   OH211264   5.262   4.146   0.658  0.1952 -0.1740  0.3037
 3753TIP3    H111265   5.170   4.132   0.633  0.2102 -1.1023  0.7156
 3753TIP3    H211266   5.312   4.110   0.585  0.2418  0.3060  0.0932
 3754TIP3   OH211267   3.626   3.950   2.797 -0.6663  0.1561 -0.2317
 3754TIP3    H111268   3.642   3.987   2.710  0.1230  3.2225  1.1022
 3754TIP3    H211269   3.547   3.994   2.828 -0.2042  0.0852  1.1168
 3755TIP3   OH211270   1.464   0.584   4.344  0.5664 -0.3103  0.2014
 3755TIP3    H111271   1.418   0.638   4.409  1.4488  0.1344  0.4765
 3755TIP3    H211272   1.407   0.587   4.267 -0.3347 -0.5774  0.8395
 3756TIP3   OH211273   4.834   4.133   3.313  0.6788  0.7932  0.7547
 3756TIP3    H111274   4.925   4.102   3.315  0.4332  0.0928  2.5811
 3756TIP3    H211275   4.841   4.229   3.313  1.3970  0.8003 -1.2787
 3757TIP3   OH211276   6.006   5.411   0.837  0.0998  0.2724 -0.2463
 3757TIP3    H111277   6.064   5.353   0.887  0.5880  1.5809  0.7680
 3757TIP3    H211278   5.938   5.437   0.899 -2.7020 -2.5822 -1.8714
 3758TIP3   OH211279   2.221   0.968   2.542 -0.1770  0.1315  0.3320
 3758TIP3    H111280   2.291   1.030   2.525  1.0468 -1.4012 -0.4961
 3758TIP3    H211281   2.190   0.942   2.454 -0.2704 -0.8311  0.6307
 3759TIP3   OH211282   2.501   5.940   3.747  0.1344  0.4555 -0.6436
 3759TIP3    H111283   2.433   5.903   3.803  0.8206 -0.6307 -0.4962
 3759TIP3    H211284   2.524   6.023   3.787  0.2862 -0.0922  0.4283
 3760TIP3   OH211285   3.398   3.555   3.489 -0.1635 -0.1208  0.2949
 3760TIP3    H111286   3.480   3.566   3.441 -0.2877 -1.5908 -0.3061
 3760TIP3    H211287   3.388   3.636   3.539  2.2193 -0.3518  1.2658
 3761TIP3   OH211288   4.514   1.131   1.960 -0.4788  0.2960  0.3411
 3761TIP3    H111289   4.565   1.099   2.034 -0.5753 -0.3560  0.1285
 3761TIP3    H211290   4.551   1.086   1.884 -0.2176  1.1379 -0.0523
 3762TIP3   OH211291   5.274   2.508   5.048 -0.5534  0.0583  0.0525
 3762TIP3    H111292   5.294   2.541   5.136  0.0583 -0.4198  0.0931
 3762TIP3    H211293   5.357   2.512   5.001 -1.2075  1.9009 -1.0440
 3763TIP3   OH211294   2.637   5.132   1.169  0.1367  0.0093  0.1211
 3763TIP3    H111295   2.684   5.185   1.234  0.3433  0.7133 -0.5792
 3763TIP3    H211296   2.704   5.077   1.129  0.1270  0.0391  0.0634
 3764TIP3   OH211297   1.121   5.416   2.857  0.1926  0.0656 -0.1615
 3764TIP3    H111298   1.051   5.441   2.797 -0.2502  1.6736  0.9539
 3764TIP3    H211299   1.083   5.429   2.944  1.3081 -0.7700  0.4781
 3765TIP3   OH211300   5.726   2.801   2.813  0.4781 -0.6191 -0.7105
 3765TIP3    H111301   5.708   2.723   2.760 -0.7814 -0.3376 -0.7297
 3765TIP3    H211302   5.814   2.828   2.787 -0.1958 -0.3377 -2.8739
 3766TIP3   OH211303   0.557   5.327   2.717  0.4365 -0.1465  0.0981
 3766TIP3    H111304   0.589   5.416   2.707 -0.1647 -0.0685 -1.2866
 3766TIP3    H211305   0.463   5.335   2.726  0.5190 -0.5517  1.6553
 3767TIP3   OH211306   5.986   1.072   1.260  0.0796  0.6199  0.1016
 3767TIP3    H111307   5.939   1.097   1.180  0.2308 -0.3891 -0.3273
 3767TIP3    H211308   6.078   1.069   1.234  0.0991 -0.0107  0.2296
 3768TIP3   OH211309   4.716   4.841   0.336 -0.8540 -0.1535 -0.0556
 3768TIP3    H111310   4.784   4.830   0.270 -1.3272  0.1358 -0.5995
 3768TIP3    H211311   4.648   4.891   0.292 -0.6554  1.1018  1.0177
 3769TIP3   OH211312   0.834   3.505   4.485  0.3868 -0.1444  0.1786
 3769TIP3    H111313   0.863   3.433   4.541  0.1009  0.4597  1.1261
 3769TIP3    H211314   0.755   3.538   4.529 -1.5634 -1.4788 -2.0867
 3770TIP3   OH211315   5.473   4.460   2.254  0.0550  0.8212  0.6354
 3770TIP3    H111316   5.381   4.436   2.242  0.3172 -0.1953  0.5891
 3770TIP3    H211317   5.501   4.410   2.331  0.6455  0.9125  0.4817
 3771TIP3   OH211318   0.110   2.470   3.887 -0.0004 -0.1774 -0.0603
 3771TIP3    H111319   0.014   2.476   3.888  0.0286  0.2755  1.2575
 3771TIP3    H211320   0.129   2.388   3.933  0.3136  1.3252  2.6371
 3772TIP3   OH211321   5.400   4.095   3.467 -0.5251 -0.5939  0.1818
 3772TIP3    H111322   5.495   4.085   3.457 -0.7109 -1.7139 -0.6922
 3772TIP3    H211323   5.379   4.175   3.420  0.1320  0.3517  1.4318
 3773TIP3   OH211324   4.348   3.242   1.577 -0.4606 -0.0729 -0.3213
 3773TIP3    H111325   4.437   3.272   1.560  0.6823 -0.4540  3.7429
 3773TIP3    H211326   4.356   3.147   1.591 -1.8400 -0.3946 -1.4584
 3774TIP3   OH211327   4.307   2.204   2.133  0.1557 -1.1891 -0.2813
 3774TIP3    H111328   4.258   2.151   2.070  0.7950 -0.4644 -1.4251
 3774TIP3    H211329   4.389   2.155   2.146  0.6199 -0.6691 -1.1130
 3775TIP3   OH211330   5.514   1.253   3.836  0.4662 -0.1206  0.2316
 3775TIP3    H111331   5.533   1.346   3.848  2.6525 -0.2822 -1.3952
 3775TIP3    H211332   5.453   1.251   3.763  1.5930 -0.0019 -0.7357
 3776TIP3   OH211333   0.624   4.781   1.129  0.0008 -0.5469  0.1354
 3776TIP3    H111334   0.638   4.722   1.203 -0.5320 -2.2396 -1.0567
 3776TIP3    H211335   0.686   4.752   1.063 -0.6225 -0.0923 -0.6641
 3777TIP3   OH211336   3.354   3.968   2.087  0.3104  0.7100 -0.2836
 3777TIP3    H111337   3.401   3.923   2.017 -0.4519  1.1150 -1.0806
 3777TIP3    H211338   3.421   3.989   2.152  0.5444 -2.5216  0.6826
 3778TIP3   OH211339   5.806   2.509   3.926 -0.4466  0.5799  0.0742
 3778TIP3    H111340   5.839   2.597   3.943  0.2329  0.5426 -0.9303
 3778TIP3    H211341   5.726   2.522   3.875 -1.7273  0.6545  2.0086
 3779TIP3   OH211342   3.801   2.196   4.006 -0.1319  0.3131  0.3548
 3779TIP3    H111343   3.756   2.280   4.021  2.4884  1.7999  0.6815
 3779TIP3    H211344   3.853   2.211   3.927  0.7870 -0.8100  0.7227
 3780TIP3   OH211345   0.582   4.227   2.974 -0.0336 -0.1248 -0.0180
 3780TIP3    H111346   0.542   4.289   3.035  0.4838  0.9100 -0.7068
 3780TIP3    H211347   0.513   4.208   2.911 -0.4006 -0.7776  0.5701
 3781TIP3   OH211348   2.335   4.994   1.906  0.2353 -0.0959  0.3633
 3781TIP3    H111349   2.241   4.998   1.892  0.6824  1.4313 -3.6404
 3781TIP3    H211350   2.347   4.929   1.975 -3.7227  0.2702  1.6285
 3782TIP3   OH211351   6.215   3.858   1.851 -0.7674 -0.2911  0.3811
 3782TIP3    H111352   6.165   3.857   1.932  1.5443  0.4888  1.9064
 3782TIP3    H211353   6.306   3.846   1.878  0.2139  1.0342 -2.0038
 3783TIP3   OH211354   1.992   5.682   2.569  0.1650  0.4861 -0.4370
 3783TIP3    H111355   2.047   5.642   2.501  0.7957  2.2363 -0.9991
 3783TIP3    H211356   1.972   5.610   2.629  1.9115 -0.4891 -0.9655
 3784TIP3   OH211357   5.462   5.007   4.070 -0.2135  0.0599 -0.0361
 3784TIP3    H111358   5.529   4.953   4.028 -1.8568 -1.4995 -0.7970
 3784TIP3    H211359   5.479   5.095   4.039  0.6008 -0.5462 -1.3984
 3785TIP3   OH211360   5.778   5.299   4.472  0.5857 -0.6131 -0.4654
 3785TIP3    H111361   5.753   5.329   4.384  3.4750  1.4500 -0.7319
 3785TIP3    H211362   5.745   5.368   4.530  0.8536 -0.6875 -0.2233
 3786TIP3   OH211363   2.818   4.901   1.083  0.4540  0.0146 -0.5618
 3786TIP3    H111364   2.881   4.925   1.151 -0.4149  2.2307 -0.4641
 3786TIP3    H211365   2.749   4.854   1.130  0.9783 -0.5140 -0.3096
 3787TIP3   OH211366   1.683   1.671   0.131 -0.2379  0.1411  0.0714
 3787TIP3    H111367   1.611   1.618   0.165  0.3335 -1.5446 -1.1907
 3787TIP3    H211368   1.695   1.639   0.042  1.5667  0.9328 -0.0011
 3788TIP3   OH211369   1.955   2.333   1.182 -0.2300 -0.1986 -0.6343
 3788TIP3    H111370   1.876   2.319   1.130 -2.2860  1.6027  1.7270
 3788TIP3    H211371   1.970   2.427   1.178  1.7399 -0.4910 -0.8717
 3789TIP3   OH211372   4.903   0.288   5.139  0.1071  0.0912 -0.6618
 3789TIP3    H111373   4.813   0.314   5.161  0.1318 -0.0634 -0.3764
 3789TIP3    H211374   4.952   0.300   5.220  0.3856  0.3536 -0.8681
 3790TIP3   OH211375   1.498   4.872   3.115  0.0468 -0.1307 -0.0006
 3790TIP3    H111376   1.437   4.798   3.117  1.1803 -1.0868  2.2954
 3790TIP3    H211377   1.562   4.849   3.048 -2.2384  1.1356 -2.8611
 3791TIP3   OH211378   0.972   3.201   2.636 -0.2357 -0.1152 -0.0383
 3791TIP3    H111379   0.934   3.184   2.550  1.2975  1.1758 -1.0499
 3791TIP3    H211380   0.900   3.238   2.688 -1.1821 -0.9200 -0.7572
 3792TIP3   OH211381   2.141   1.038   4.316 -0.6380 -0.0171  0.0528
 3792TIP3    H111382   2.052   1.064   4.291 -0.4489  0.1943 -0.4221
 3792TIP3    H211383   2.172   1.109   4.372 -0.7408 -0.0570  0.1612
 3793TIP3   OH211384   2.420   4.410   0.228  0.2438  0.6358 -0.1178
 3793TIP3    H111385   2.437   4.446   0.141  1.0133 -0.7331 -0.5587
 3793TIP3    H211386   2.387   4.322   0.212  1.5329 -0.0837  0.9900
 3794TIP3   OH211387   2.856   0.137   3.689  0.3997  0.2406  0.5932
 3794TIP3    H111388   2.825   0.053   3.655 -1.0669 -0.2829  2.9466
 3794TIP3    H211389   2.931   0.114   3.744 -0.4050  0.3137  1.7726
 3795TIP3   OH211390   5.450   0.525   2.180  0.4822 -0.3229  0.3681
 3795TIP3    H111391   5.497   0.443   2.170  1.1594  0.1705 -0.6781
 3795TIP3    H211392   5.395   0.531   2.102 -0.3227 -0.2540  0.9267
 3796TIP3   OH211393   5.626   3.043   0.567 -0.0041 -0.2717 -0.4761
 3796TIP3    H111394   5.578   2.986   0.627  1.5876 -0.0798  1.0530
 3796TIP3    H211395   5.572   3.045   0.488 -1.0634 -2.3226  0.1278
 3797TIP3   OH211396   3.776   3.151   1.214 -0.2239 -0.3466 -0.0463
 3797TIP3    H111397   3.767   3.059   1.190  0.9574 -0.7545  0.9561
 3797TIP3    H211398   3.822   3.191   1.140 -2.2094 -0.1488 -1.2489
 3798TIP3   OH211399   4.465   5.927   1.788 -0.2306  0.1552 -0.3091
 3798TIP3    H111400   4.479   6.016   1.757  1.5451 -0.1368 -0.4832
 3798TIP3    H211401   4.372   5.910   1.774 -0.1793  1.2549 -2.2217
 3799TIP3   OH211402   2.526   1.153   1.043  0.1548 -0.3800  0.2116
 3799TIP3    H111403   2.468   1.087   1.007  0.6590 -0.9332  0.3907
 3799TIP3    H211404   2.576   1.107   1.111  1.4732 -0.1854 -0.5822
 3800TIP3   OH211405   1.642   3.167   4.625  0.0467 -0.3614 -0.2291
 3800TIP3    H111406   1.583   3.094   4.644 -0.8140  0.4089  0.1144
 3800TIP3    H211407   1.670   3.198   4.712 -0.1361  0.1526 -0.3538
 3801TIP3   OH211408   1.974   2.899   3.280 -0.2561 -0.3048 -0.2605
 3801TIP3    H111409   1.879   2.902   3.292 -0.2138 -0.0877  0.0424
 3801TIP3    H211410   1.987   2.919   3.188 -0.3149  3.4704  0.3781
 3802TIP3   OH211411   6.274   5.795   4.241  0.1068 -0.1767  0.1533
 3802TIP3    H111412   6.276   5.823   4.332  1.2091 -2.7914  1.0555
 3802TIP3    H211413   6.288   5.875   4.191 -0.8873  1.4003  2.2293
 3803TIP3   OH211414   4.731   3.056   5.064 -0.3693  0.1137 -0.4051
 3803TIP3    H111415   4.654   3.113   5.072 -0.9673 -0.8367  0.8760
 3803TIP3    H211416   4.702   2.984   5.008 -1.2334 -1.4471  1.8611
 3804TIP3   OH211417   4.269   5.435   0.671  0.0479  0.1179 -0.4641
 3804TIP3    H111418   4.283   5.517   0.719 -0.9951 -0.2092  0.4526
 3804TIP3    H211419   4.343   5.380   0.696 -0.4537 -0.0267  0.7587
 3805TIP3   OH211420   0.197   2.374   2.215 -0.0341  0.1949  0.1991
 3805TIP3    H111421   0.202   2.297   2.158 -1.1458 -1.1473  1.7889
 3805TIP3    H211422   0.116   2.419   2.188  1.0102  1.2997 -1.2421
 3806TIP3   OH211423   2.099   1.140   0.716  0.4823 -0.3407  0.6053
 3806TIP3    H111424   2.194   1.124   0.720  0.0341 -3.8941  0.3146
 3806TIP3    H211425   2.072   1.144   0.807  0.6034 -2.3176  0.7806
 3807TIP3   OH211426   1.517   0.471   2.326 -0.4881  0.1898  0.1664
 3807TIP3    H111427   1.470   0.434   2.401  0.2676 -1.5296 -0.1581
 3807TIP3    H211428   1.508   0.566   2.337 -2.6177 -0.0313  0.9941
 3808TIP3   OH211429   4.795   0.418   1.431  0.2599 -0.3691 -0.0689
 3808TIP3    H111430   4.847   0.350   1.474 -0.0834 -0.2096  0.6182
 3808TIP3    H211431   4.851   0.451   1.361  0.0090 -2.1091 -1.1271
 3809TIP3   OH211432   2.660   4.807   2.672  0.3619 -0.0138 -0.2533
 3809TIP3    H111433   2.592   4.808   2.739 -0.8505 -0.0880 -1.4367
 3809TIP3    H211434   2.709   4.726   2.689 -0.1520 -0.2098  0.3199
 3810TIP3   OH211435   1.072   1.724   2.308  0.0674  0.0213 -0.0121
 3810TIP3    H111436   1.084   1.639   2.351 -2.7614 -0.6186 -0.3003
 3810TIP3    H211437   1.015   1.705   2.234  1.6206  1.7861 -1.7572
 3811TIP3   OH211438   5.395   5.222   2.892 -0.0741  0.1484  0.0771
 3811TIP3    H111439   5.305   5.241   2.918  0.2956  1.1998  0.6377
 3811TIP3    H211440   5.434   5.308   2.876  0.5902 -0.3276 -1.0202
 3812TIP3   OH211441   5.123   5.716   0.793  0.2764 -0.7696 -0.0464
 3812TIP3    H111442   5.160   5.697   0.707 -0.2689 -0.3108 -0.3915
 3812TIP3    H211443   5.060   5.646   0.808  0.9873 -1.3320  0.3681
 3813TIP3   OH211444   5.835   5.106   1.973 -0.1207  0.8102 -0.3425
 3813TIP3    H111445   5.817   5.072   1.885  1.9891 -1.1871 -0.1208
 3813TIP3    H211446   5.814   5.032   2.031  1.8251  0.8475  0.4657
 3814TIP3   OH211447   5.128   0.199   3.034  0.1071 -0.0803  0.5870
 3814TIP3    H111448   5.067   0.161   3.097  2.0681 -3.0640  0.8599
 3814TIP3    H211449   5.120   0.143   2.957 -0.6471  2.2001 -1.1044
 3815TIP3   OH211450   3.466   5.306   3.216 -0.5347 -0.4851  0.2401
 3815TIP3    H111451   3.516   5.346   3.144  0.9906 -1.9663  0.4239
 3815TIP3    H211452   3.414   5.238   3.175 -0.0917 -0.9579  0.4582
 3816TIP3   OH211453   3.541   5.201   0.763  0.5173  0.1768  0.0641
 3816TIP3    H111454   3.464   5.236   0.718  0.6965 -0.5316 -0.8029
 3816TIP3    H211455   3.537   5.107   0.749  1.8247  0.1763 -0.4335
 3817TIP3   OH211456   3.684   4.710   0.846 -0.5876 -0.4090 -0.4823
 3817TIP3    H111457   3.612   4.652   0.872 -1.4290  0.2932 -1.1730
 3817TIP3    H211458   3.662   4.794   0.886 -0.5486  0.0021 -1.3199
 3818TIP3   OH211459   0.260   5.878   2.732  0.0925  0.1956  0.5971
 3818TIP3    H111460   0.248   5.971   2.715  1.7803  0.7174  2.0703
 3818TIP3    H211461   0.174   5.848   2.762 -0.3044  1.4086  0.7286
 3819TIP3   OH211462   5.254   5.635   4.641 -0.1124  0.1177  0.1431
 3819TIP3    H111463   5.187   5.567   4.633 -0.1992  0.1141  0.8283
 3819TIP3    H211464   5.210   5.715   4.611  0.2594 -0.2708 -1.4965
 3820TIP3   OH211465   3.438   1.886   4.517  0.0121  0.6033 -0.5030
 3820TIP3    H111466   3.468   1.819   4.579 -0.1923  3.4546  3.0184
 3820TIP3    H211467   3.477   1.967   4.550 -3.0011  2.8643 -2.0523
 3821TIP3   OH211468   2.395   1.394   1.136 -0.2597 -0.1017  0.4143
 3821TIP3    H111469   2.454   1.458   1.098 -1.8944 -0.0554 -2.2570
 3821TIP3    H211470   2.431   1.309   1.111 -0.6908 -0.1004 -0.2197
 3822TIP3   OH211471   3.900   5.267   4.048  0.7060  0.1868  0.7078
 3822TIP3    H111472   3.811   5.303   4.055  1.8613  3.0950  2.0345
 3822TIP3    H211473   3.891   5.176   4.078 -2.1838 -0.4058 -1.5124
 3823TIP3   OH211474   4.102   0.801   0.979 -1.1622  0.4563 -0.0418
 3823TIP3    H111475   4.082   0.781   1.071 -3.3846 -0.3244 -0.6249
 3823TIP3    H211476   4.130   0.892   0.980 -2.6500  0.9580  1.2563
 3824TIP3   OH211477   1.486   2.763   3.942 -0.0537 -0.0868  0.3009
 3824TIP3    H111478   1.480   2.795   4.032 -0.1331  0.0769  0.2383
 3824TIP3    H211479   1.580   2.755   3.925 -0.0508 -1.0260  0.7148
 3825TIP3   OH211480   3.581   5.328   4.022  0.0995 -0.1194  0.3828
 3825TIP3    H111481   3.504   5.277   4.049  0.8650 -1.5752 -0.0532
 3825TIP3    H211482   3.627   5.270   3.961  2.9859 -0.4536  2.6799
 3826TIP3   OH211483   4.604   3.855   2.928  0.0224 -0.0734  0.2799
 3826TIP3    H111484   4.519   3.899   2.930  0.5212  0.9329 -0.0249
 3826TIP3    H211485   4.653   3.902   2.861  0.1565 -1.9082 -0.9788
 3827TIP3   OH211486   2.000   2.070   2.752  0.0196 -0.3240 -0.4732
 3827TIP3    H111487   1.939   2.111   2.691  0.0279 -0.1259 -0.3497
 3827TIP3    H211488   1.945   2.039   2.824 -0.3107 -2.6516 -1.6464
 3828TIP3   OH211489   4.865   2.105   0.757 -0.0923  0.1721 -0.2045
 3828TIP3    H111490   4.820   2.082   0.838 -1.6270 -0.3321 -1.1642
 3828TIP3    H211491   4.816   2.061   0.688 -0.0496  2.1745 -1.6194
 3829TIP3   OH211492   5.892   5.365   1.679 -0.1074  0.3908 -0.0432
 3829TIP3    H111493   5.930   5.322   1.603 -1.3265 -1.8283  0.5270
 3829TIP3    H211494   5.934   5.323   1.754 -0.9040  0.5938  0.5277
 3830TIP3   OH211495   6.387   2.708   3.682 -0.3769 -0.1202  0.2680
 3830TIP3    H111496   6.296   2.728   3.705 -0.2190  0.1272  0.6840
 3830TIP3    H211497   6.390   2.719   3.587 -0.8362 -0.3508  0.2220
 3831TIP3   OH211498   1.031   0.413   0.614 -0.0895  0.5471 -0.1635
 3831TIP3    H111499   1.001   0.374   0.696 -1.1348  2.1359  0.2438
 3831TIP3    H211500   0.999   0.353   0.547 -0.3289 -0.0970  0.5100
 3832TIP3   OH211501   0.263   1.883   1.395 -0.0547 -0.3455 -0.5033
 3832TIP3    H111502   0.248   1.977   1.402 -0.4692 -0.3958 -0.6338
 3832TIP3    H211503   0.305   1.858   1.477  0.1763 -0.0255 -0.5242
 3833TIP3   OH211504   0.381   4.472   1.871  0.3121  0.0995 -0.0286
 3833TIP3    H111505   0.392   4.381   1.900  1.5792  0.1937 -0.1301
 3833TIP3    H211506   0.460   4.516   1.902  0.2188  0.9188 -0.9134
 3834TIP3   OH211507   3.713   1.912   1.972  0.1315  0.2791  0.0737
 3834TIP3    H111508   3.685   1.973   2.039  1.4758  0.5170  0.4575
 3834TIP3    H211509   3.636   1.898   1.917 -0.6824  0.9137  1.0340
 3835TIP3   OH211510   1.847   5.139   4.356 -0.3218  0.3144 -0.5313
 3835TIP3    H111511   1.935   5.114   4.385 -1.1393 -2.9091 -0.4028
 3835TIP3    H211512   1.819   5.205   4.420  0.9570 -0.7117  1.1947
 3836TIP3   OH211513   0.295   2.053   0.103  0.9482  0.4592 -0.1298
 3836TIP3    H111514   0.373   2.016   0.061  2.2222  0.6580  1.9149
 3836TIP3    H211515   0.311   2.148   0.102  0.8771  0.4798  0.5696
 3837TIP3   OH211516   1.827   5.913   3.151  0.7809  0.2349 -0.4295
 3837TIP3    H111517   1.859   5.984   3.206 -0.4611  0.2950  0.2592
 3837TIP3    H211518   1.896   5.900   3.086  1.8868  0.7513  0.6020
 3838TIP3   OH211519   2.670   3.335   4.475 -0.5714  0.5413 -0.3996
 3838TIP3    H111520   2.584   3.335   4.433 -0.5573 -3.3618 -0.8197
 3838TIP3    H211521   2.653   3.361   4.565 -3.0438 -3.3605  0.5312
 3839TIP3   OH211522   2.867   5.612   2.005 -0.2817 -0.0717  0.2265
 3839TIP3    H111523   2.798   5.546   1.994  0.3255 -0.5966 -0.4964
 3839TIP3    H211524   2.900   5.598   2.094 -0.0401 -0.8547  0.0162
 3840TIP3   OH211525   4.136   0.398   4.730 -0.3270  0.2052  0.2902
 3840TIP3    H111526   4.058   0.438   4.767  0.0051  0.4810  0.6947
 3840TIP3    H211527   4.170   0.342   4.800 -0.5422 -0.4552 -0.1165
 3841TIP3   OH211528   3.236   5.907   3.029 -0.3360 -0.6768  0.0176
 3841TIP3    H111529   3.325   5.931   3.055 -0.2785 -1.7417  0.8428
 3841TIP3    H211530   3.226   5.945   2.942  0.9529 -0.6077 -0.1221
 3842TIP3   OH211531   1.387   5.464   2.546  0.6410  0.2523 -0.2797
 3842TIP3    H111532   1.313   5.523   2.531 -1.0688 -1.5638  0.6054
 3842TIP3    H211533   1.420   5.444   2.458  1.2291  2.3913 -0.6071
 3843TIP3   OH211534   2.279   0.470   2.877  0.2653  0.5026  0.2318
 3843TIP3    H111535   2.263   0.394   2.821  0.7122  1.1993 -0.8492
 3843TIP3    H211536   2.198   0.521   2.873  0.0275  0.1908  0.8260
 3844TIP3   OH211537   2.200   0.967   3.854 -0.1505 -0.3867 -0.0920
 3844TIP3    H111538   2.218   1.051   3.897  0.5175 -0.3593 -0.4103
 3844TIP3    H211539   2.235   0.977   3.765 -2.5095 -0.0411 -1.0562
 3845TIP3   OH211540   2.615   0.741   4.507  0.3493  0.4908  0.1603
 3845TIP3    H111541   2.635   0.826   4.469  1.4193 -0.5172 -1.6801
 3845TIP3    H211542   2.634   0.751   4.600 -0.3621  2.4697  0.1424
 3846TIP3   OH211543   2.207   3.394   3.851  0.3772 -0.1026  0.1710
 3846TIP3    H111544   2.116   3.421   3.859  0.1840 -0.3588 -1.0257
 3846TIP3    H211545   2.221   3.383   3.757  1.6009 -0.2074  0.3489
 3847TIP3   OH211546   2.223   3.986   3.552 -0.3462 -0.1521  0.0342
 3847TIP3    H111547   2.267   3.906   3.524  0.3180 -0.1977  1.1714
 3847TIP3    H211548   2.170   4.012   3.476 -0.8328 -1.8379 -0.2404
 3848TIP3   OH211549   0.500   1.009   2.430  0.1124  0.3879 -0.6989
 3848TIP3    H111550   0.488   1.030   2.338 -1.2563 -1.8574 -1.1090
 3848TIP3    H211551   0.411   1.004   2.465  0.5682  0.2083  0.4857
 3849TIP3   OH211552   0.193   5.593   0.401 -0.3158  0.1602  0.6198
 3849TIP3    H111553   0.144   5.671   0.429  0.1005  0.8308 -0.4443
 3849TIP3    H211554   0.271   5.629   0.359 -0.9745 -0.7580 -1.5244
 3850TIP3   OH211555   2.364   1.679   3.363  0.0446 -0.3936 -0.1342
 3850TIP3    H111556   2.416   1.749   3.402  0.0666  0.3703 -1.4911
 3850TIP3    H211557   2.285   1.722   3.331 -0.0424 -1.0228 -0.7912
 3851TIP3   OH211558   1.366   4.807   1.483  0.6427 -0.5590 -0.1194
 3851TIP3    H111559   1.292   4.867   1.483 -0.0762 -1.3292 -2.3309
 3851TIP3    H211560   1.443   4.864   1.483  0.1125  0.2477  2.1134
 3852TIP3   OH211561   2.803   3.794   1.693  0.1986  0.2908  0.0840
 3852TIP3    H111562   2.756   3.816   1.774 -0.5349 -0.0888 -0.2296
 3852TIP3    H211563   2.778   3.864   1.632  0.1294  0.1518 -0.0474
 3853TIP3   OH211564   3.385   3.133   4.529 -0.1700  0.1277  0.4724
 3853TIP3    H111565   3.294   3.108   4.547 -0.0555  1.3401  3.1660
 3853TIP3    H211566   3.388   3.142   4.433 -2.3586 -1.7372  0.1375
 3854TIP3   OH211567   1.052   4.388   4.487  0.2219  0.4175 -0.1243
 3854TIP3    H111568   1.079   4.321   4.425  0.7298 -0.2540  0.7872
 3854TIP3    H211569   1.097   4.468   4.458  1.1715 -0.0976 -0.1043
 3855TIP3   OH211570   0.909   2.680   1.321 -0.5812  0.6733  0.2962
 3855TIP3    H111571   0.853   2.703   1.395 -1.1195  3.4906 -0.8406
 3855TIP3    H211572   0.855   2.697   1.244  1.1334  1.4302 -0.7989
 3856TIP3   OH211573   0.689   2.619   0.380 -0.0767  0.2617  0.1722
 3856TIP3    H111574   0.770   2.624   0.329 -0.5164  0.4651 -0.5247
 3856TIP3    H211575   0.698   2.687   0.446  0.8987 -0.6161  0.9692
 3857TIP3   OH211576   3.138   5.202   5.014 -0.1674 -0.3082  0.0768
 3857TIP3    H111577   3.076   5.145   4.968 -0.2709  0.9419 -1.3962
 3857TIP3    H211578   3.219   5.196   4.963  0.7247 -1.2961  1.5241
 3858TIP3   OH211579   3.073   5.051   0.190  0.1121 -0.1510 -0.9968
 3858TIP3    H111580   3.089   4.966   0.231  1.1285  0.2220 -0.6084
 3858TIP3    H211581   3.102   5.115   0.254 -2.9445  0.6163 -0.2093
 3859TIP3   OH211582   6.075   0.109   0.649 -0.5543  0.4514 -0.0031
 3859TIP3    H111583   6.100   0.192   0.610 -0.3087  0.2151 -0.3524
 3859TIP3    H211584   6.056   0.130   0.741  1.4797  0.5617  0.4500
 3860TIP3   OH211585   2.593   4.405   4.128  0.1969 -0.1316 -0.6982
 3860TIP3    H111586   2.555   4.444   4.050 -0.2375  0.2739 -0.2933
 3860TIP3    H211587   2.631   4.479   4.176  1.6573 -0.5364 -1.1680
 3861TIP3   OH211588   1.335   2.294   4.970 -0.5381  0.6522 -0.0113
 3861TIP3    H111589   1.431   2.292   4.966 -0.5871 -0.4969 -1.2935
 3861TIP3    H211590   1.316   2.320   5.060  0.9904 -0.6061  0.7363
 3862TIP3   OH211591   0.615   5.875   4.236 -0.0842  0.0818  0.8993
 3862TIP3    H111592   0.689   5.840   4.287 -0.7064 -0.5668  1.3680
 3862TIP3    H211593   0.546   5.890   4.300 -1.2345 -1.6953  0.1524
 3863TIP3   OH211594   5.981   2.539   3.167 -0.0256 -0.0649 -0.1979
 3863TIP3    H111595   5.926   2.616   3.159  0.7269  0.4400 -0.6851
 3863TIP3    H211596   5.974   2.512   3.259 -2.4228 -1.0526 -0.6120
 3864TIP3   OH211597   6.018   4.296   2.146  0.0568  0.5078  0.9451
 3864TIP3    H111598   5.957   4.305   2.073  0.5232  0.8264  0.5959
 3864TIP3    H211599   6.027   4.202   2.159  0.7330  0.4375 -0.0337
 3865TIP3   OH211600   2.556   3.062   0.702  0.1086 -0.5466 -0.3407
 3865TIP3    H111601   2.571   3.023   0.788 -0.7325 -0.7082 -0.2625
 3865TIP3    H211602   2.560   3.157   0.718  2.9412 -0.5092 -0.6676
 3866TIP3   OH211603   6.291   1.760   4.477  0.2903  0.3488  0.3312
 3866TIP3    H111604   6.223   1.730   4.538  1.0854  0.3251  1.2244
 3866TIP3    H211605   6.363   1.698   4.490  1.3603  1.6991  1.0770
 3867TIP3   OH211606   6.172   5.861   0.632 -0.0672 -0.5555  0.1557
 3867TIP3    H111607   6.166   5.928   0.564  0.8535 -2.0577 -1.4893
 3867TIP3    H211608   6.216   5.905   0.706  2.0422  0.2612 -1.4752
 3868TIP3   OH211609   5.608   2.026   0.736 -0.0283  0.4988 -0.3535
 3868TIP3    H111610   5.558   2.028   0.654 -0.2548  1.2877 -0.2014
 3868TIP3    H211611   5.674   2.094   0.725  0.7859 -0.2797 -0.3979
 3869TIP3   OH211612   1.966   2.608   1.258 -0.1056  0.0820 -0.2541
 3869TIP3    H111613   2.003   2.564   1.335 -2.9158 -0.9992  0.6247
 3869TIP3    H211614   2.024   2.682   1.242  2.1524 -1.2606  1.1701
 3870TIP3   OH211615   1.726   0.721   2.048  0.3553  0.3579  0.1658
 3870TIP3    H111616   1.666   0.784   2.088 -0.0388  0.0041  0.1422
 3870TIP3    H211617   1.766   0.768   1.975 -0.4342  0.3696 -0.2636
 3871TIP3   OH211618   3.096   2.573   2.810  0.2175  0.4820  0.1759
 3871TIP3    H111619   3.048   2.655   2.803  2.3605  1.8593  0.5007
 3871TIP3    H211620   3.080   2.529   2.726 -3.3372 -0.2835  1.0826
 3872TIP3   OH211621   0.980   2.305   4.836 -0.1044 -0.3569 -0.0150
 3872TIP3    H111622   1.046   2.251   4.792 -0.2375 -0.3992 -0.1597
 3872TIP3    H211623   1.008   2.307   4.927  0.6089  0.3612 -0.2311
 3873TIP3   OH211624   1.391   3.231   5.031  0.2453 -0.5136 -0.0504
 3873TIP3    H111625   1.390   3.297   5.101 -0.4130  0.9681 -1.3852
 3873TIP3    H211626   1.435   3.156   5.070 -0.5621  0.0515  2.1325
 3874TIP3   OH211627   3.172   1.989   3.595 -0.2151  0.2884  0.0296
 3874TIP3    H111628   3.097   1.958   3.646  1.4762 -0.0446  2.5168
 3874TIP3    H211629   3.175   1.931   3.519 -2.1971  0.0427  0.0889
 3875TIP3   OH211630   0.121   2.187   0.650 -0.4703 -0.2770  0.0139
 3875TIP3    H111631   0.176   2.207   0.725 -0.9226 -0.1468  0.3151
 3875TIP3    H211632   0.179   2.141   0.589 -0.4161 -1.5348  0.9830
 3876TIP3   OH211633   1.989   5.429   4.156  0.6848 -0.3493 -0.5929
 3876TIP3    H111634   2.041   5.492   4.205 -0.8729  4.3510 -4.2937
 3876TIP3    H211635   2.051   5.389   4.095  1.0670  0.4017 -0.7059
 3877TIP3   OH211636   2.649   2.214   4.261 -0.0599 -0.2223  0.1676
 3877TIP3    H111637   2.578   2.156   4.287 -0.7320  0.3124 -0.4082
 3877TIP3    H211638   2.667   2.267   4.339 -0.5083 -0.1592  0.2322
 3878TIP3   OH211639   1.976   4.664   0.097 -0.1060  0.2725 -0.1190
 3878TIP3    H111640   1.899   4.609   0.087 -0.4544  0.9125 -0.9758
 3878TIP3    H211641   1.999   4.655   0.190  0.7496 -2.4972 -0.4940
 3879TIP3   OH211642   6.160   4.039   1.632  0.6119 -0.2684 -0.0715
 3879TIP3    H111643   6.168   3.991   1.714 -0.1808 -0.8212 -0.3094
 3879TIP3    H211644   6.248   4.037   1.594  1.1455  0.5620  1.0615
 3880TIP3   OH211645   1.645   0.618   4.824 -0.1644 -0.3963  0.1107
 3880TIP3    H111646   1.589   0.569   4.764 -0.0830 -2.7198  1.8103
 3880TIP3    H211647   1.585   0.674   4.874 -0.6636 -1.0166  0.2096
 3881TIP3   OH211648   3.101   2.232   4.288 -0.2812 -0.3046  0.6852
 3881TIP3    H111649   3.162   2.159   4.277  0.4135  0.2998  0.4791
 3881TIP3    H211650   3.120   2.267   4.375 -0.7327 -0.4733  0.8546
 3882TIP3   OH211651   3.753   3.981   0.456 -0.3585 -0.9767  0.0550
 3882TIP3    H111652   3.814   3.927   0.406 -0.6829 -2.3641  1.1128
 3882TIP3    H211653   3.808   4.044   0.501 -0.0505  0.2854 -1.9488
 3883TIP3   OH211654   0.155   0.718   4.720  0.6373  0.0635 -0.4798
 3883TIP3    H111655   0.182   0.793   4.668 -1.9202  0.1828 -1.8059
 3883TIP3    H211656   0.077   0.685   4.675 -1.6307  0.0333  3.1169
 3884TIP3   OH211657   1.254   3.106   3.122  0.6770 -0.1896  0.3795
 3884TIP3    H111658   1.213   3.045   3.060  0.0500 -1.5708  2.0775
 3884TIP3    H211659   1.348   3.093   3.109  0.5549 -0.5652 -0.1839
 3885TIP3   OH211660   1.040   1.059   0.516 -0.0567 -0.4861  0.3569
 3885TIP3    H111661   1.095   1.126   0.556 -0.0375 -1.3241  1.7908
 3885TIP3    H211662   0.999   1.014   0.590  0.1052 -2.1978 -0.5468
 3886TIP3   OH211663   3.189   4.955   2.155  0.9578  0.3333 -0.0437
 3886TIP3    H111664   3.259   5.001   2.200  1.2973 -0.5880  0.4013
 3886TIP3    H211665   3.161   4.888   2.217  0.0069  0.3869 -0.4055
 3887TIP3   OH211666   1.437   1.461   2.705 -0.3745 -0.2487 -0.1732
 3887TIP3    H111667   1.437   1.516   2.627  0.3641 -1.7126 -1.2433
 3887TIP3    H211668   1.388   1.383   2.679  1.7921 -1.7606  0.0321
 3888TIP3   OH211669   3.895   4.523   3.414 -0.2581 -0.1332 -1.1834
 3888TIP3    H111670   3.949   4.580   3.469  0.5687 -0.2714 -1.8290
 3888TIP3    H211671   3.941   4.439   3.413 -0.2613 -0.1421 -2.0538
 3889TIP3   OH211672   5.818   1.536   2.797  0.2850  0.3875  0.0558
 3889TIP3    H111673   5.764   1.534   2.718 -1.9798 -0.3458  1.5143
 3889TIP3    H211674   5.812   1.626   2.828  2.4045  1.0678 -1.3211
 3890TIP3   OH211675   2.253   4.362   1.881 -0.6920 -0.3957 -0.5407
 3890TIP3    H111676   2.236   4.377   1.974 -0.6202 -2.1432 -0.2015
 3890TIP3    H211677   2.348   4.358   1.874 -0.6404  1.1861 -0.9686
 3891TIP3   OH211678   0.246   4.277   1.436  0.1860 -0.6199  1.1402
 3891TIP3    H111679   0.302   4.235   1.501  0.5936 -1.0863  0.4914
 3891TIP3    H211680   0.299   4.349   1.402 -0.7064  0.8412  2.6498
 3892TIP3   OH211681   2.261   5.811   0.708 -0.2472  0.6204  0.1807
 3892TIP3    H111682   2.357   5.818   0.713 -0.2957  1.2952  0.2472
 3892TIP3    H211683   2.243   5.719   0.726  0.3662  0.5685  0.5671
 3893TIP3   OH211684   4.994   5.947   4.305 -0.5676  0.1979 -0.2074
 3893TIP3    H111685   5.071   5.954   4.361 -0.8158  0.6698  0.0793
 3893TIP3    H211686   4.923   5.985   4.356 -1.4228 -1.9618  0.3032
 3894TIP3   OH211687   6.204   2.086   2.420  0.6269 -0.3776 -0.0173
 3894TIP3    H111688   6.129   2.052   2.371 -0.9997 -0.4583  2.3811
 3894TIP3    H211689   6.265   2.013   2.425  0.5840 -0.5299 -1.4089
 3895TIP3   OH211690   0.631   0.074   3.545 -0.0435  0.1401  0.1886
 3895TIP3    H111691   0.561   0.008   3.552  1.0590 -0.9119  2.7260
 3895TIP3    H211692   0.586   0.158   3.554 -1.1536 -0.4300  0.1426
 3896TIP3   OH211693   3.459   0.616   2.912  0.4982 -0.3523  0.2825
 3896TIP3    H111694   3.545   0.639   2.875 -0.5394  0.0885 -1.9892
 3896TIP3    H211695   3.466   0.642   3.004  2.5870  0.2724  0.0141
 3897TIP3   OH211696   5.109   0.238   4.962 -0.1265 -0.6713 -0.1439
 3897TIP3    H111697   5.097   0.290   4.882  1.4431  0.2001  0.1539
 3897TIP3    H211698   5.028   0.250   5.011 -1.5799 -2.0727 -2.0295
 3898TIP3   OH211699   0.705   5.048   1.229  0.1538 -0.0565 -0.5716
 3898TIP3    H111700   0.735   5.127   1.275  0.1498  0.8546 -2.0753
 3898TIP3    H211701   0.785   4.999   1.212  0.2719  0.1344 -0.5696
 3899TIP3   OH211702   2.489   2.134   0.915  0.0785  0.3295 -0.4636
 3899TIP3    H111703   2.522   2.044   0.912 -0.1009  0.2496 -0.0028
 3899TIP3    H211704   2.534   2.178   0.842 -1.0676 -0.5562 -1.7618
 3900TIP3   OH211705   2.424   1.430   2.524  0.3614 -0.3473  0.5448
 3900TIP3    H111706   2.421   1.334   2.516  1.4729 -0.4388  1.0371
 3900TIP3    H211707   2.509   1.454   2.488 -1.1336  0.8249 -2.5653
 3901TIP3   OH211708   0.862   4.642   1.881 -1.1500 -0.1403 -0.0066
 3901TIP3    H111709   0.932   4.591   1.840  1.6749  1.7072  2.1245
 3901TIP3    H211710   0.865   4.727   1.836  1.7483  1.7932  3.3566
 3902TIP3   OH211711   0.823   1.933   3.067 -0.6571  0.0996 -0.3811
 3902TIP3    H111712   0.905   1.934   3.117  0.2163  1.5822 -1.7458
 3902TIP3    H211713   0.786   1.846   3.083  1.1271 -0.5725  0.3359
 3903TIP3   OH211714   1.322   1.675   1.943 -0.4348  0.1154 -0.0917
 3903TIP3    H111715   1.270   1.594   1.941 -1.5032  0.7497  0.6070
 3903TIP3    H211716   1.345   1.691   1.851 -1.4752 -0.2050 -0.4263
 3904TIP3   OH211717   5.904   5.463   3.396 -0.2456 -0.0222  0.2245
 3904TIP3    H111718   5.970   5.490   3.460 -1.4603  4.5034 -0.0904
 3904TIP3    H211719   5.822   5.467   3.445 -0.7648 -0.8290 -0.5612
 3905TIP3   OH211720   1.956   0.549   4.005 -0.1817 -0.0280  0.4271
 3905TIP3    H111721   1.909   0.484   4.058 -0.5690 -0.7827 -0.7913
 3905TIP3    H211722   1.911   0.547   3.920  2.6469 -1.5478 -1.1874
 3906TIP3   OH211723   5.230   3.438   2.895 -0.3147  0.2914  0.1269
 3906TIP3    H111724   5.275   3.520   2.873 -2.1352  1.4736  0.6084
 3906TIP3    H211725   5.285   3.398   2.962 -0.5151  2.2873  1.5895
 3907TIP3   OH211726   1.798   4.269   1.064  0.4725  0.2549 -0.3491
 3907TIP3    H111727   1.771   4.350   1.108 -0.0764 -0.3692  0.4898
 3907TIP3    H211728   1.725   4.247   1.007  0.6903  0.4273 -0.7006
 3908TIP3   OH211729   4.769   2.554   1.880  0.2491  0.4887 -0.2781
 3908TIP3    H111730   4.792   2.646   1.866 -0.1629  0.6430  0.0217
 3908TIP3    H211731   4.679   2.547   1.850  0.7722 -0.1847 -1.7540
 3909TIP3   OH211732   5.129   0.072   4.058  0.0555 -0.6520  0.2816
 3909TIP3    H111733   5.071   0.137   4.098  0.4974  0.0130 -0.1238
 3909TIP3    H211734   5.199   0.059   4.122  0.6416  0.2421 -0.1540
 3910TIP3   OH211735   1.585   2.920   1.544 -0.3601  0.7297 -0.2131
 3910TIP3    H111736   1.532   2.976   1.601 -1.0175 -0.2536  0.1722
 3910TIP3    H211737   1.560   2.947   1.456 -2.5073 -0.5266 -0.0791
 3911TIP3   OH211738   4.277   4.935   3.850 -0.1420 -0.0322  0.2973
 3911TIP3    H111739   4.312   4.846   3.845  0.4244  0.1817  0.4630
 3911TIP3    H211740   4.333   4.986   3.792 -0.2681  0.2843  0.4518
 3912TIP3   OH211741   4.155   2.342   2.471  0.3707 -0.0681 -0.7359
 3912TIP3    H111742   4.130   2.291   2.548 -0.6761  2.3319  0.6543
 3912TIP3    H211743   4.215   2.409   2.505  0.3887  0.6686 -2.1360
 3913TIP3   OH211744   4.351   4.758   3.530 -0.3753  1.1182 -0.0278
 3913TIP3    H111745   4.413   4.808   3.584  0.1546 -0.8873  1.3379
 3913TIP3    H211746   4.388   4.763   3.441  0.9150  1.2458  0.4899
 3914TIP3   OH211747   0.323   1.838   3.163 -0.3411  0.0601 -0.0141
 3914TIP3    H111748   0.332   1.792   3.246 -0.8799  2.3204  1.4111
 3914TIP3    H211749   0.402   1.891   3.156 -0.3514 -0.0340 -0.8787
 3915TIP3   OH211750   3.221   2.753   0.979 -0.0245  0.5245  0.0428
 3915TIP3    H111751   3.137   2.798   0.986 -1.4672 -1.9844  0.0799
 3915TIP3    H211752   3.283   2.820   0.951 -2.0380  2.4445 -0.0096
 3916TIP3   OH211753   1.377   0.602   3.862 -0.0204  0.2527  0.4927
 3916TIP3    H111754   1.412   0.686   3.832  2.0244 -2.0248 -4.6125
 3916TIP3    H211755   1.449   0.561   3.910 -0.1429  0.4313  0.8310
 3917TIP3   OH211756   6.307   2.383   2.499 -0.0228  0.4535  0.5049
 3917TIP3    H111757   6.355   2.391   2.417 -1.2540  0.3082 -0.2592
 3917TIP3    H211758   6.326   2.295   2.531 -1.5943 -0.4864 -1.0049
 3918TIP3   OH211759   5.011   3.391   4.097 -0.1413 -0.2072  0.7142
 3918TIP3    H111760   5.029   3.298   4.107 -1.5160 -0.3862  1.7502
 3918TIP3    H211761   4.993   3.402   4.003 -1.5734 -1.3068  0.8323
 3919TIP3   OH211762   4.744   4.129   5.005 -0.0703 -0.2301  0.3323
 3919TIP3    H111763   4.729   4.082   5.088  1.2987 -1.1575  0.0932
 3919TIP3    H211764   4.686   4.086   4.942  0.1815 -0.7018  0.4213
 3920TIP3   OH211765   4.537   3.569   1.842  0.4274 -0.2214  0.7383
 3920TIP3    H111766   4.572   3.589   1.929 -0.2648  1.2660  0.6980
 3920TIP3    H211767   4.443   3.579   1.852  0.3764  0.3573 -0.2859
 3921TIP3   OH211768   2.068   4.909   3.889  0.6742 -0.0853 -0.6224
 3921TIP3    H111769   1.994   4.855   3.861 -0.3272  2.2131 -2.8390
 3921TIP3    H211770   2.061   4.911   3.985 -0.1727 -2.4720 -0.5558
 3922TIP3   OH211771   6.096   1.128   2.326 -0.2539 -0.4765  0.3612
 3922TIP3    H111772   6.084   1.166   2.239 -2.1701 -0.4037  0.6054
 3922TIP3    H211773   6.186   1.150   2.350  0.2998 -0.4657 -1.5690
 3923TIP3   OH211774   4.835   1.705   1.672 -0.3240 -0.2745 -0.1861
 3923TIP3    H111775   4.782   1.754   1.734  0.1639  1.4353 -1.0785
 3923TIP3    H211776   4.925   1.729   1.693 -0.0600 -0.8909 -0.5758
 3924TIP3   OH211777   2.559   3.690   2.548  0.5825  0.1060  0.6009
 3924TIP3    H111778   2.479   3.638   2.538  0.6753 -0.0992  0.9026
 3924TIP3    H211779   2.551   3.760   2.484  1.3264 -1.3710 -1.2184
 3925TIP3   OH211780   1.072   5.926   2.694  0.4943  0.1415 -0.1034
 3925TIP3    H111781   1.001   5.926   2.631  0.9804 -1.8091 -0.7261
 3925TIP3    H211782   1.064   6.009   2.740 -1.9883  0.1131 -0.3658
 3926TIP3   OH211783   3.594   3.725   2.962  0.1548  0.1127 -0.1698
 3926TIP3    H111784   3.584   3.780   2.885  0.8521 -0.1757 -0.4695
 3926TIP3    H211785   3.630   3.784   3.029 -1.1571  0.5498  0.1782
 3927TIP3   OH211786   3.028   0.989   1.228 -0.2317 -0.0013 -0.6268
 3927TIP3    H111787   3.009   0.969   1.320 -1.4020 -1.1718 -1.0963
 3927TIP3    H211788   3.007   1.082   1.219 -0.4924  0.0274  0.1880
 3928TIP3   OH211789   1.671   1.489   2.519  0.2473 -0.6419 -0.2612
 3928TIP3    H111790   1.591   1.501   2.469  1.4410  1.2206 -1.8525
 3928TIP3    H211791   1.671   1.396   2.542 -1.6607 -0.9801 -1.4129
 3929TIP3   OH211792   0.561   3.461   0.788 -0.1755 -0.1116  0.5627
 3929TIP3    H111793   0.481   3.418   0.819 -0.9472  1.6019  1.1005
 3929TIP3    H211794   0.624   3.450   0.859 -0.8034  0.7466  1.2837
 3930TIP3   OH211795   2.636   4.908   2.412 -0.0607 -0.5570  0.4516
 3930TIP3    H111796   2.562   4.967   2.430  1.3858  2.3318 -2.1938
 3930TIP3    H211797   2.663   4.878   2.498 -1.0997  2.4772  1.9937
 3931TIP3   OH211798   1.474   2.525   3.774  0.8932 -0.4934  0.1308
 3931TIP3    H111799   1.455   2.609   3.814 -0.4790 -0.9125  0.3973
 3931TIP3    H211800   1.500   2.468   3.846  0.4738 -0.6735  0.1413
 3932TIP3   OH211801   4.602   4.933   1.343 -0.0474  0.2864 -0.3097
 3932TIP3    H111802   4.589   5.015   1.391  1.8621 -1.1684  3.0833
 3932TIP3    H211803   4.677   4.949   1.286  1.9662  0.3404  2.1860
 3933TIP3   OH211804   0.812   0.639   4.722  0.6539 -0.7635 -0.0215
 3933TIP3    H111805   0.763   0.646   4.804 -0.1778 -0.6195 -0.5134
 3933TIP3    H211806   0.846   0.728   4.707 -2.5435  0.3489 -1.8094
 3934TIP3   OH211807   2.688   5.175   3.774  0.3465 -0.0493 -0.4839
 3934TIP3    H111808   2.637   5.099   3.800  0.2310  0.9413  2.5143
 3934TIP3    H211809   2.775   5.140   3.755 -0.0519 -1.0743 -0.4602
 3935TIP3   OH211810   0.849   5.007   3.395 -0.3356 -0.2473 -0.4595
 3935TIP3    H111811   0.926   5.012   3.338  0.1847 -1.8902  0.0458
 3935TIP3    H211812   0.787   4.953   3.347  0.0688 -1.5580  0.4322
 3936TIP3   OH211813   3.232   0.028   0.045 -0.5908 -0.0338  0.5377
 3936TIP3    H111814   3.139   0.027   0.067 -0.7267  0.2672  0.0019
 3936TIP3    H211815   3.238   0.087  -0.030 -0.1653 -1.0512 -0.2712
 3937TIP3   OH211816   0.061   1.000   3.819 -0.5566  0.2170  0.0390
 3937TIP3    H111817   0.066   0.966   3.730 -2.2597 -0.4777  0.1817
 3937TIP3    H211818   0.022   0.929   3.870  0.8386  0.4067  1.4701
 3938TIP3   OH211819   5.227   3.415   4.681  0.0237 -0.8537 -0.6910
 3938TIP3    H111820   5.204   3.508   4.694  0.1086 -0.7297 -1.4143
 3938TIP3    H211821   5.147   3.368   4.703 -0.5835 -0.4946 -2.0342
 3939TIP3   OH211822   4.477   1.406   1.886  0.7729 -0.4055 -0.2101
 3939TIP3    H111823   4.553   1.448   1.925  0.7266 -1.0440  0.5787
 3939TIP3    H211824   4.441   1.351   1.956  0.3423 -1.1038 -0.9657
 3940TIP3   OH211825   2.305   3.981   2.626 -0.1505 -0.5873 -0.4064
 3940TIP3    H111826   2.304   4.070   2.589 -2.5028  0.0938  1.0562
 3940TIP3    H211827   2.228   3.939   2.588 -0.2328 -1.2777  0.5016
 3941TIP3   OH211828   1.271   3.843   1.695  0.4495 -0.7940  0.0075
 3941TIP3    H111829   1.300   3.934   1.693 -0.2577 -0.5001  1.6182
 3941TIP3    H211830   1.344   3.796   1.737 -0.1966 -0.5268  1.4752
 3942TIP3   OH211831   3.934   5.849   4.327  0.1776  0.4783 -0.5239
 3942TIP3    H111832   3.982   5.930   4.310  1.9164 -0.4939 -0.5319
 3942TIP3    H211833   3.983   5.807   4.397  0.7777 -1.6709 -2.1308
 3943TIP3   OH211834   3.117   3.703   4.823 -0.0327  0.0617  0.2168
 3943TIP3    H111835   3.189   3.733   4.767 -1.1675 -1.1517 -2.0736
 3943TIP3    H211836   3.125   3.607   4.824 -1.5075 -0.0963 -0.0172
 3944TIP3   OH211837   4.634   2.028   4.762  0.5140 -0.0742  0.3625
 3944TIP3    H111838   4.570   1.958   4.772  0.2317  0.0198 -0.6558
 3944TIP3    H211839   4.652   2.057   4.851  0.9353 -1.7021  0.8436
 3945TIP3   OH211840   5.105   3.827   3.169 -0.0396 -0.1163  0.1773
 3945TIP3    H111841   5.065   3.745   3.198  0.1443  0.2557  1.5658
 3945TIP3    H211842   5.085   3.832   3.075 -1.6412 -0.8377  0.4494
 3946TIP3   OH211843   6.212   1.075   1.110 -0.1133 -0.8499  0.0742
 3946TIP3    H111844   6.291   1.092   1.161 -0.8144  0.7225  0.7194
 3946TIP3    H211845   6.227   1.118   1.026 -0.4056 -0.2259  0.3324
 3947TIP3   OH211846   4.933   1.086   4.369  0.3282 -0.1353 -0.0293
 3947TIP3    H111847   4.934   1.153   4.438  0.3009  1.9521 -1.9618
 3947TIP3    H211848   4.981   1.012   4.407  2.4800  1.8403  1.3649
 3948TIP3   OH211849   3.996   0.093   4.917  0.1478 -0.0295 -0.2443
 3948TIP3    H111850   3.937   0.134   4.853  0.8961  1.7058  0.1136
 3948TIP3    H211851   4.075   0.072   4.867 -0.0825 -0.7096 -0.3374
 3949TIP3   OH211852   5.317   2.569   4.079  0.1237 -0.0486 -0.3096
 3949TIP3    H111853   5.254   2.587   4.149  0.5674  0.4715 -0.0317
 3949TIP3    H211854   5.333   2.655   4.040 -0.4113 -0.3909 -1.3021
 3950TIP3   OH211855   3.534   0.043   4.425  0.5020  0.6669 -0.4987
 3950TIP3    H111856   3.591  -0.018   4.471 -0.3133  0.7469  0.6766
 3950TIP3    H211857   3.591   0.116   4.400  0.8511  0.9326  0.9944
 3951TIP3   OH211858   2.012   1.665   3.391  0.0022  0.6971 -0.3165
 3951TIP3    H111859   1.976   1.590   3.437  0.0903  0.1978 -1.0468
 3951TIP3    H211860   2.040   1.725   3.460 -0.1160  0.0827  0.2686
 3952TIP3   OH211861   2.046   2.835   1.769  0.3002 -0.0604  0.1216
 3952TIP3    H111862   1.990   2.913   1.767 -0.4816 -0.5970  0.2677
 3952TIP3    H211863   2.070   2.824   1.861  1.8984  1.0116 -0.1350
 3953TIP3   OH211864   5.147   1.081   2.444 -0.1616 -0.1605 -0.2425
 3953TIP3    H111865   5.211   1.027   2.398 -1.1800 -0.4127 -1.4352
 3953TIP3    H211866   5.141   1.043   2.531  2.2146  0.6585  0.3349
 3954TIP3   OH211867   0.348   2.538   4.264  0.3697  0.2921  0.1534
 3954TIP3    H111868   0.270   2.527   4.210 -0.0636  0.5449  0.7229
 3954TIP3    H211869   0.352   2.459   4.318  1.2824 -0.3693 -0.8218
 3955TIP3   OH211870   3.261   2.650   1.265 -0.6381 -0.3779 -0.4081
 3955TIP3    H111871   3.261   2.679   1.174  0.1428 -0.8801 -0.5791
 3955TIP3    H211872   3.338   2.594   1.272 -1.0160 -0.8105  0.4148
 3956TIP3   OH211873   2.393   0.925   0.951 -0.4331  0.4883 -0.8952
 3956TIP3    H111874   2.420   0.873   1.027 -0.0315  2.0405  0.0715
 3956TIP3    H211875   2.325   0.873   0.909  1.4706 -1.8588 -1.2845
 3957TIP3   OH211876   0.851   0.858   4.026  0.0779 -0.1820  0.1180
 3957TIP3    H111877   0.832   0.801   3.951 -1.5006  0.2459  0.1520
 3957TIP3    H211878   0.888   0.799   4.092 -0.0719 -0.8820 -0.4074
 3958TIP3   OH211879   6.253   4.971   0.871 -0.6373  0.3697 -0.6595
 3958TIP3    H111880   6.297   4.887   0.885 -0.7622  0.2483 -0.9733
 3958TIP3    H211881   6.271   4.992   0.779 -1.2618  0.2991 -0.8040
 3959TIP3   OH211882   5.446   1.343   3.293  0.3750 -0.1368  0.4677
 3959TIP3    H111883   5.376   1.296   3.248 -0.4900  1.0442  0.5212
 3959TIP3    H211884   5.503   1.375   3.223 -0.9301  1.6392  0.1311
 3960TIP3   OH211885   0.180   5.049   2.006  0.2815 -0.3489  0.7846
 3960TIP3    H111886   0.253   4.988   2.012  0.7592  0.0172 -0.8422
 3960TIP3    H211887   0.216   5.124   1.959 -1.1835 -0.2396 -0.2045
 3961TIP3   OH211888   0.615   2.252   1.611 -0.0233  0.1567 -0.4061
 3961TIP3    H111889   0.582   2.255   1.521  0.1555  2.3656 -0.4409
 3961TIP3    H211890   0.708   2.271   1.604 -0.1877  1.3254  0.3041
 3962TIP3   OH211891   0.568   2.143   4.574 -0.0640  0.2571  0.3515
 3962TIP3    H111892   0.575   2.136   4.670  1.6652  3.4403  0.5836
 3962TIP3    H211893   0.499   2.208   4.560  0.3942  0.5750 -0.5031
 3963TIP3   OH211894   5.399   4.009   3.004 -0.5322  0.1111  0.7185
 3963TIP3    H111895   5.471   4.062   3.038 -0.4099  0.0649  0.5384
 3963TIP3    H211896   5.438   3.922   2.993  0.2895  0.7340 -2.2281
 3964TIP3   OH211897   4.408   1.664   2.444  0.6435  0.2863  0.2295
 3964TIP3    H111898   4.487   1.690   2.396  0.6048  1.2521  0.6647
 3964TIP3    H211899   4.337   1.709   2.399  0.6370  1.3999  1.3286
 3965TIP3   OH211900   1.995   1.617   4.690 -0.1450 -0.4004  0.0760
 3965TIP3    H111901   1.920   1.576   4.646  0.2342 -1.3227  0.2684
 3965TIP3    H211902   1.968   1.624   4.782 -0.2718 -0.0579  0.0151
 3966TIP3   OH211903   5.501   5.883   0.473  0.5136 -0.0857  0.3066
 3966TIP3    H111904   5.477   5.888   0.381  2.0485  0.5428 -0.1004
 3966TIP3    H211905   5.562   5.809   0.479 -0.5172 -0.9029  1.0685
 3967TIP3   OH211906   5.178   5.231   3.371 -0.6543  0.1175 -0.4499
 3967TIP3    H111907   5.172   5.263   3.281 -1.2877  1.0497 -0.0916
 3967TIP3    H211908   5.261   5.183   3.374 -1.0206 -0.6413 -1.7400
 3968TIP3   OH211909   2.205   0.502   3.144  0.1435  0.4312 -0.0499
 3968TIP3    H111910   2.242   0.434   3.087  0.8156  2.1338 -1.7628
 3968TIP3    H211911   2.246   0.488   3.229  2.4940  0.4379 -1.1210
 3969TIP3   OH211912   0.891   4.714   0.068  0.2978 -0.3562  0.4194
 3969TIP3    H111913   0.853   4.710   0.156 -1.2794 -0.8413 -0.2421
 3969TIP3    H211914   0.816   4.700   0.009  0.6144  3.2668 -1.1297
 3970TIP3   OH211915   1.541   5.406   3.470  0.0826  0.1040 -0.1241
 3970TIP3    H111916   1.484   5.392   3.395 -0.3279 -0.6387  0.3158
 3970TIP3    H211917   1.591   5.325   3.478 -0.4202 -0.1320  0.8476
 3971TIP3   OH211918   5.201   4.747   1.503  0.1379 -0.2934 -0.0054
 3971TIP3    H111919   5.185   4.661   1.465 -1.5709  0.1215 -0.3026
 3971TIP3    H211920   5.137   4.804   1.460 -0.6380  0.5572  2.1565
 3972TIP3   OH211921   0.029   3.282   2.422  0.0025 -0.2683  0.2763
 3972TIP3    H111922  -0.027   3.288   2.345 -0.9394 -3.4293  0.5728
 3972TIP3    H211923   0.109   3.241   2.391  1.0330  1.5118  0.4305
 3973TIP3   OH211924   2.381   1.474   1.810  0.1424 -0.1473  0.8475
 3973TIP3    H111925   2.453   1.519   1.855  2.3189 -2.8700  0.3922
 3973TIP3    H211926   2.380   1.386   1.848 -1.1589 -1.0390 -1.0771
 3974TIP3   OH211927   4.455   3.171   5.069 -0.0802  0.1836  0.6788
 3974TIP3    H111928   4.458   3.208   4.981 -2.2527  0.2113  0.5557
 3974TIP3    H211929   4.434   3.246   5.125  0.6847  0.0537  1.1588
 3975TIP3   OH211930   4.325   5.561   3.059 -0.6875 -0.0506  0.2422
 3975TIP3    H111931   4.303   5.523   2.974 -1.6932  2.7637 -0.8968
 3975TIP3    H211932   4.240   5.581   3.099 -0.2142 -0.1666  1.3292
 3976TIP3   OH211933   2.588   4.716   3.276 -0.1908  0.1493 -0.3373
 3976TIP3    H111934   2.605   4.637   3.328 -1.4746 -0.6318 -1.0510
 3976TIP3    H211935   2.566   4.783   3.341  0.6862 -0.1356  0.2624
 3977TIP3   OH211936   4.904   3.010   3.021 -0.3703  0.4633 -0.4274
 3977TIP3    H111937   4.883   3.050   3.106  2.2159  1.8870 -0.3352
 3977TIP3    H211938   4.909   3.083   2.960 -0.3384 -0.3207 -1.3957
 3978TIP3   OH211939   5.861   1.742   1.926 -0.2584  0.6768  0.3680
 3978TIP3    H111940   5.814   1.722   2.007  0.7076  2.2241  1.3592
 3978TIP3    H211941   5.853   1.837   1.916 -0.7761  0.4810 -1.6566
 3979TIP3   OH211942   5.737   2.344   3.287 -0.4445  0.0365 -0.6572
 3979TIP3    H111943   5.792   2.276   3.248  1.1286  1.7010 -1.4704
 3979TIP3    H211944   5.654   2.299   3.307  0.5131 -2.0847 -1.1692
 3980TIP3   OH211945   4.181   4.083   2.144 -0.2370 -0.3231 -0.0759
 3980TIP3    H111946   4.103   4.035   2.171 -0.6885 -0.2382 -1.1732
 3980TIP3    H211947   4.209   4.039   2.062  1.2310 -0.7541  0.6116
 3981TIP3   OH211948   2.275   4.355   4.298  0.3163  0.3423  0.7587
 3981TIP3    H111949   2.271   4.269   4.256  0.6492  0.3030  0.8046
 3981TIP3    H211950   2.234   4.415   4.235  0.0735  0.1498  0.7323
 3982TIP3   OH211951   6.249   3.800   1.091 -0.1050 -0.2677 -0.7576
 3982TIP3    H111952   6.285   3.885   1.118 -0.8195  0.0858 -0.9051
 3982TIP3    H211953   6.224   3.757   1.172  0.9399 -0.6589 -0.6247
 3983TIP3   OH211954   1.004   5.675   2.973 -0.0788 -0.0535 -0.1240
 3983TIP3    H111955   1.001   5.595   3.024 -0.9798  0.5558  0.8230
 3983TIP3    H211956   0.993   5.745   3.037 -1.0669  0.7467 -1.1105
 3984TIP3   OH211957   5.506   0.787   0.883  0.0665 -0.4164  0.5271
 3984TIP3    H111958   5.600   0.790   0.899 -0.1685  0.4294  1.9232
 3984TIP3    H211959   5.484   0.876   0.855 -0.3917 -0.4798  0.6864
 3985TIP3   OH211960   0.275   2.081   4.259  0.0709  0.1496  0.3961
 3985TIP3    H111961   0.293   2.000   4.210  1.5308 -0.7673  2.2815
 3985TIP3    H211962   0.218   2.053   4.330  2.3220  0.2128  2.3572
 3986TIP3   OH211963   0.498   3.893   1.784 -0.2210  0.3791 -0.5116
 3986TIP3    H111964   0.523   3.884   1.692 -0.1278 -3.6178 -0.2606
 3986TIP3    H211965   0.403   3.887   1.784 -0.2834  1.2557 -0.3834
 3987TIP3   OH211966   4.872   0.065   4.848 -0.1423 -0.0727 -0.5629
 3987TIP3    H111967   4.829   0.070   4.933  1.6150 -0.0660  0.3669
 3987TIP3    H211968   4.870   0.154   4.814  1.9020  0.5959  0.9289
 3988TIP3   OH211969   6.004   0.271   2.226 -0.1555  0.4981 -0.1708
 3988TIP3    H111970   6.056   0.215   2.284 -1.1628  0.5907  0.8333
 3988TIP3    H211971   6.066   0.337   2.195  0.4457  0.3105  0.6069
 3989TIP3   OH211972   1.054   3.248   3.522 -0.6212  0.1223  0.1867
 3989TIP3    H111973   1.076   3.276   3.611 -0.8926  0.5543  0.1182
 3989TIP3    H211974   0.986   3.182   3.533 -0.5291  0.0468  0.3061
 3990TIP3   OH211975   1.838   4.965   3.577  0.2285  0.2877 -0.2614
 3990TIP3    H111976   1.839   4.986   3.671  0.4506  0.9175 -0.3994
 3990TIP3    H211977   1.903   4.895   3.568 -0.7261 -0.6879  0.2501
 3991TIP3   OH211978   0.475   1.486   2.239  0.0507 -0.2387 -0.5573
 3991TIP3    H111979   0.517   1.519   2.319  1.4699 -0.5351 -1.1565
 3991TIP3    H211980   0.418   1.558   2.211  1.1233  0.7044 -0.4124
 3992TIP3   OH211981   2.400   3.571   2.252 -0.0515 -0.2501 -0.0111
 3992TIP3    H111982   2.375   3.548   2.341 -1.6838  0.8797 -0.1328
 3992TIP3    H211983   2.469   3.509   2.230  1.9769  0.8251  2.8009
 3993TIP3   OH211984   0.460   2.312   0.103  0.2345  0.6013  0.1035
 3993TIP3    H111985   0.431   2.390   0.055 -3.8741 -1.0388 -0.5414
 3993TIP3    H211986   0.531   2.276   0.050 -0.4764  1.7893 -1.7715
 3994TIP3   OH211987   0.985   3.510   5.073 -0.1608 -0.0274 -0.8539
 3994TIP3    H111988   1.032   3.532   4.993  0.3738 -1.1814 -0.8802
 3994TIP3    H211989   0.896   3.488   5.043 -0.1349  0.1412 -1.0529
 3995TIP3   OH211990   3.328   5.261   4.262  0.0721  0.6685 -0.0412
 3995TIP3    H111991   3.245   5.217   4.278 -0.2749  0.9890 -0.9005
 3995TIP3    H211992   3.369   5.211   4.191 -0.8638  2.3266 -1.8753
 3996TIP3   OH211993   5.982   0.058   2.934 -0.0034 -1.3053  0.0562
 3996TIP3    H111994   6.075   0.076   2.947  0.6365 -3.8308 -0.6587
 3996TIP3    H211995   5.948   0.046   3.023  0.2518 -0.1569  0.3363
 3997TIP3   OH211996   5.944   1.088   4.849  0.2188 -0.2145 -0.0178
 3997TIP3    H111997   5.904   1.048   4.926 -0.2151 -0.4875 -0.3735
 3997TIP3    H211998   6.038   1.084   4.865  0.1196  0.0754  0.6601
 3998TIP3   OH211999   1.130   4.916   3.077 -0.1233 -0.2082  0.1554
 3998TIP3    H112000   1.129   4.973   3.000  2.6026  0.7677  0.7247
 3998TIP3    H212001   1.203   4.856   3.061 -1.2212 -1.7712  0.8167
 3999TIP3   OH212002   4.473   5.231   1.025 -0.2839 -0.0049 -0.0973
 3999TIP3    H112003   4.509   5.198   0.942  2.8712  1.4476  0.5365
 3999TIP3    H212004   4.506   5.321   1.031 -0.8937  0.1224  2.4876
 4000TIP3   OH212005   5.364   3.214   4.368  0.3938 -0.6044 -0.3337
 4000TIP3    H112006   5.392   3.207   4.459 -1.3675 -0.7717  0.2201
 4000TIP3    H212007   5.314   3.295   4.364  1.7009  0.2096 -1.5424
 4001TIP3   OH212008   4.622   0.053   4.703 -0.1841  0.4729  0.7420
 4001TIP3    H112009   4.565  -0.022   4.722 -0.5794  1.2476  2.9068
 4001TIP3    H212010   4.710   0.016   4.699 -0.6167 -0.5242 -1.2850
 4002TIP3   OH212011   1.684   4.417   2.148 -0.3286  0.1157  0.4944
 4002TIP3    H112012   1.652   4.333   2.182  1.0469 -0.2227  1.0313
 4002TIP3    H212013   1.687   4.405   2.053 -0.5491 -0.2847  0.5363
 4003TIP3   OH212014   5.081   5.762   3.029 -0.7913 -0.4144  0.5779
 4003TIP3    H112015   5.100   5.679   2.984 -1.8119 -0.1058 -0.4801
 4003TIP3    H212016   5.129   5.756   3.111 -0.8349 -2.0602  0.5194
 4004TIP3   OH212017   6.252   3.888   0.584 -0.0796 -0.6459 -0.0729
 4004TIP3    H112018   6.217   3.950   0.648 -0.9481 -1.8066  0.6173
 4004TIP3    H212019   6.337   3.861   0.621 -0.0289 -0.4121 -0.0175
 4005TIP3   OH212020   4.970   3.704   1.364  0.2686 -0.1943  0.1037
 4005TIP3    H112021   5.038   3.769   1.345  0.4514  0.0273  1.4009
 4005TIP3    H212022   5.009   3.620   1.339  1.5636 -0.2211  2.0158
 4006TIP3   OH212023   0.346   4.314   3.773  0.0535 -0.3438 -0.3616
 4006TIP3    H112024   0.340   4.233   3.823  0.5730  0.0361  0.3337
 4006TIP3    H212025   0.334   4.287   3.682  2.9564 -1.6096 -0.4710
 4007TIP3   OH212026   0.018   5.203   4.706 -0.4061 -0.5679 -0.4796
 4007TIP3    H112027   0.025   5.108   4.710 -0.3941 -0.5517 -0.1203
 4007TIP3    H212028   0.065   5.227   4.626 -0.1408 -0.8391 -0.4088
 4008TIP3   OH212029   0.016   2.942   0.836 -0.1426 -0.5598 -0.5968
 4008TIP3    H112030   0.005   2.867   0.777  0.5342 -0.6087 -0.6686
 4008TIP3    H212031   0.108   2.941   0.860 -0.1219  0.2659 -0.6050
 4009TIP3   OH212032   5.019   1.556   0.028  0.3527 -0.6886 -0.0222
 4009TIP3    H112033   5.035   1.649   0.016  0.9389 -0.5397  1.5950
 4009TIP3    H212034   5.094   1.513  -0.014  1.5507 -0.2774  1.6059
 4010TIP3   OH212035   4.778   4.229   2.357 -0.5301 -0.2464 -0.2201
 4010TIP3    H112036   4.791   4.292   2.286 -0.4899  0.1911  0.1754
 4010TIP3    H212037   4.691   4.192   2.340 -1.0469  0.7407  0.1805
 4011TIP3   OH212038   4.710   2.319   3.770 -0.6258 -0.2651 -0.9031
 4011TIP3    H112039   4.721   2.351   3.680 -1.2751  1.4780 -0.3895
 4011TIP3    H212040   4.632   2.364   3.802 -2.4888 -3.4503 -0.5623
 4012TIP3   OH212041   5.965   5.635   4.611  0.1012 -0.4223  0.1104
 4012TIP3    H112042   5.988   5.580   4.535  0.6854  2.1933 -1.7600
 4012TIP3    H212043   5.870   5.626   4.619  0.1967 -1.8218  0.0012
 4013TIP3   OH212044   3.427   4.113   0.699 -0.6292 -0.3850  0.1166
 4013TIP3    H112045   3.400   4.042   0.756 -1.2198 -0.7003 -0.5345
 4013TIP3    H212046   3.360   4.181   0.712 -0.2043 -0.0532  0.5548
 4014TIP3   OH212047   4.904   0.366   3.792  0.0370 -0.2310 -0.1100
 4014TIP3    H112048   4.918   0.457   3.767  1.0288  0.4918  2.7235
 4014TIP3    H212049   4.991   0.326   3.789 -0.0923 -0.5708  0.3925
 4015TIP3   OH212050   3.970   0.467   2.669 -1.0241 -0.1758  0.4284
 4015TIP3    H112051   3.874   0.465   2.678 -1.0974  1.5420  0.2589
 4015TIP3    H212052   3.993   0.559   2.680  0.5149 -0.4157 -0.5657
 4016TIP3   OH212053   2.556   1.920   2.260  0.5308 -0.4944  0.4615
 4016TIP3    H112054   2.462   1.910   2.253  0.6120 -1.3030  0.4193
 4016TIP3    H212055   2.572   2.013   2.243 -0.4802  0.1823  2.8056
 4017TIP3   OH212056   5.558   3.735   4.235 -0.5694 -0.0042 -0.1220
 4017TIP3    H112057   5.466   3.758   4.221 -0.7747 -0.8453 -0.2187
 4017TIP3    H212058   5.568   3.650   4.192  0.3956  0.3308 -0.5863
 4018TIP3   OH212059   4.881   2.766   2.844 -0.1688 -0.3783 -0.6131
 4018TIP3    H112060   4.904   2.825   2.916 -0.6734 -0.5913 -0.2608
 4018TIP3    H212061   4.815   2.814   2.794 -1.8460 -1.2508  0.6432
 4019TIP3   OH212062   5.097   0.885   4.439 -0.0665 -0.0777  0.1996
 4019TIP3    H112063   5.192   0.893   4.444  0.0884 -0.2425 -1.7064
 4019TIP3    H212064   5.082   0.810   4.381 -1.4223 -2.3717  3.1982
 4020TIP3   OH212065   0.966   3.781   1.813 -0.1083  0.2072 -0.7077
 4020TIP3    H112066   1.016   3.832   1.749  1.0177  0.6657  0.4901
 4020TIP3    H212067   1.015   3.699   1.823 -0.6969 -0.1844 -0.9893
 4021TIP3   OH212068   1.311   3.318   0.556 -0.3611 -0.7861  0.1859
 4021TIP3    H112069   1.321   3.252   0.625 -1.1171 -0.0374  1.0213
 4021TIP3    H212070   1.304   3.401   0.602  0.3337 -0.1226 -0.8493
 4022TIP3   OH212071   1.276   2.760   0.944  0.3539 -0.0162 -0.0693
 4022TIP3    H112072   1.273   2.730   0.853  0.3523 -1.7044  0.4528
 4022TIP3    H212073   1.361   2.805   0.951  3.2814 -4.9148  0.4596
 4023TIP3   OH212074   2.204   3.312   2.543  0.0306 -0.1507  0.3159
 4023TIP3    H112075   2.296   3.290   2.529  0.4744  0.6009  1.8905
 4023TIP3    H212076   2.173   3.249   2.607  0.2904  1.3695  2.0141
 4024TIP3   OH212077   5.323   5.945   3.883  0.4174 -0.4113  0.8722
 4024TIP3    H112078   5.289   5.971   3.798  2.1751 -2.4167 -0.5644
 4024TIP3    H212079   5.352   6.026   3.925  1.8057  0.4168 -1.5343
 4025TIP3   OH212080   4.434   4.101   3.209 -0.3781  0.0426 -0.4919
 4025TIP3    H112081   4.367   4.059   3.154 -0.6647  0.5984 -0.5774
 4025TIP3    H212082   4.384   4.139   3.281 -0.2679  1.1902 -0.9956
 4026TIP3   OH212083   4.908   5.619   5.094 -0.5987  0.1973 -0.3088
 4026TIP3    H112084   4.819   5.587   5.079 -1.2917  0.8655  1.9786
 4026TIP3    H212085   4.937   5.572   5.173  1.6898 -1.1024 -1.7952
 4027TIP3   OH212086   5.920   3.113   2.508 -0.1717  0.8157  0.2143
 4027TIP3    H112087   5.929   3.202   2.476 -0.9359  0.7849 -0.1101
 4027TIP3    H212088   6.001   3.069   2.482  0.6453  1.6605  1.2409
 4028TIP3   OH212089   2.724   1.496   4.279  0.5682 -0.7871  0.1070
 4028TIP3    H112090   2.739   1.406   4.306  1.3360 -0.3307  1.3037
 4028TIP3    H212091   2.631   1.500   4.257  0.5249 -1.8574  0.0409
 4029TIP3   OH212092   1.153   1.756   3.783  0.2989 -0.2890 -0.6340
 4029TIP3    H112093   1.133   1.726   3.872  0.6567 -1.6442 -0.9919
 4029TIP3    H212094   1.218   1.826   3.796 -1.4755  1.2897  0.2852
 4030TIP3   OH212095   6.009   3.984   1.389  0.2207  0.0475 -0.4845
 4030TIP3    H112096   5.918   4.014   1.394 -0.0074 -0.6527 -0.3532
 4030TIP3    H212097   6.034   3.966   1.480  0.1507 -0.7442 -0.6158
 4031TIP3   OH212098   1.410   0.371   2.086 -0.4085  0.6124  0.4301
 4031TIP3    H112099   1.352   0.296   2.096  0.9682 -0.5034  0.4360
 4031TIP3    H212100   1.461   0.374   2.167  2.1809 -0.8547 -0.9964
 4032TIP3   OH212101   0.535   1.773   3.537 -0.2812 -0.1542 -0.8808
 4032TIP3    H112102   0.628   1.790   3.519 -0.1501 -0.3732 -0.4129
 4032TIP3    H212103   0.535   1.700   3.599 -0.8459 -2.8118 -3.7309
 4033TIP3   OH212104   5.907   1.799   2.258 -0.2310 -0.1131 -0.1501
 4033TIP3    H112105   5.987   1.767   2.299 -0.9760  0.6800  2.0852
 4033TIP3    H212106   5.901   1.890   2.286 -3.2897 -0.8672  2.2001
 4034TIP3   OH212107   3.336   5.765   4.902  0.0649  0.6186 -0.4584
 4034TIP3    H112108   3.429   5.781   4.889  0.0253  1.6936  0.3846
 4034TIP3    H212109   3.293   5.846   4.874 -0.6518  0.0080 -1.1672
 4035TIP3   OH212110   0.863   3.713   1.468  0.0200 -0.1326 -0.0716
 4035TIP3    H112111   0.921   3.637   1.479  0.0114 -0.1436 -0.1023
 4035TIP3    H212112   0.915   3.787   1.500  0.3888 -0.0081 -0.9527
 4036TIP3   OH212113   4.697   3.140   3.856 -0.1371 -0.0258 -0.8566
 4036TIP3    H112114   4.702   3.132   3.951  1.1201 -0.6492 -0.9489
 4036TIP3    H212115   4.662   3.056   3.826 -0.7469  0.2529 -0.9383
 4037TIP3   OH212116   5.052   1.296   1.801  0.1009  0.1264 -0.0684
 4037TIP3    H112117   5.045   1.337   1.887  0.3661 -1.9899  1.0239
 4037TIP3    H212118   5.146   1.291   1.785  0.0862 -0.4634  0.0230
 4038TIP3   OH212119   0.902   2.515   4.707 -0.3220  0.2941 -0.0615
 4038TIP3    H112120   0.924   2.448   4.772 -4.0969 -0.1288  1.0643
 4038TIP3    H212121   0.917   2.474   4.623  0.0615 -0.9641  0.5982
 4039TIP3   OH212122   1.437   5.376   0.478  0.4628  0.0966  0.6470
 4039TIP3    H112123   1.446   5.395   0.571 -0.1823  1.1662  0.5129
 4039TIP3    H212124   1.472   5.454   0.434 -3.0958  1.5894  0.0684
 4040TIP3   OH212125   2.815   1.072   3.593 -0.2015 -0.3828  1.1833
 4040TIP3    H112126   2.731   1.031   3.613 -0.6569  0.4148  0.9705
 4040TIP3    H212127   2.874   1.039   3.660 -1.4258  1.3818  3.2628
 4041TIP3   OH212128   3.050   1.920   2.947 -0.4448 -0.1362  0.0118
 4041TIP3    H112129   3.128   1.933   2.893  0.4462 -0.5649  1.1687
 4041TIP3    H212130   3.063   1.835   2.988 -1.0126  0.2673  1.0545
 4042TIP3   OH212131   5.309   2.442   3.714  0.0100 -0.1661 -0.5819
 4042TIP3    H112132   5.292   2.515   3.654 -1.2652 -0.5579 -0.7248
 4042TIP3    H212133   5.371   2.386   3.667 -0.9936 -0.4856 -1.5793
 4043TIP3   OH212134   1.699   4.499   1.173 -0.4887  0.0373 -0.1877
 4043TIP3    H112135   1.681   4.527   1.084  0.1607 -1.2622 -0.7553
 4043TIP3    H212136   1.628   4.536   1.225 -1.4924 -0.1156 -1.4132
 4044TIP3   OH212137   4.296   3.346   1.888  0.1219  0.3863  0.3186
 4044TIP3    H112138   4.351   3.269   1.899  0.6409  0.8756  1.3243
 4044TIP3    H212139   4.258   3.361   1.975  0.8744  1.8626  0.4347
 4045TIP3   OH212140   2.527   5.781   0.617  0.3585 -0.1284 -1.0115
 4045TIP3    H112141   2.581   5.728   0.558  0.6564  1.1276 -1.9077
 4045TIP3    H212142   2.582   5.793   0.694  0.4835 -0.6949 -1.0037
 4046TIP3   OH212143   1.101   4.449   3.354  0.3982  0.5101  0.4996
 4046TIP3    H112144   1.153   4.370   3.347 -1.2195 -0.5963  0.4319
 4046TIP3    H212145   1.135   4.494   3.431  0.2919 -1.0709  1.5095
 4047TIP3   OH212146   0.727   3.568   0.241 -0.4688 -0.1784 -0.0584
 4047TIP3    H112147   0.697   3.555   0.331 -0.0936 -0.6185  0.0038
 4047TIP3    H212148   0.655   3.616   0.199 -0.4317  0.4928  0.6082
 4048TIP3   OH212149   3.268   4.164   1.890  0.0783  0.2576 -0.0105
 4048TIP3    H112150   3.313   4.120   1.962  0.4505 -0.3864 -0.6326
 4048TIP3    H212151   3.331   4.166   1.819 -0.7334 -0.3105 -0.7639
 4049TIP3   OH212152   4.176   1.041   2.558  0.6181  0.5774  0.2861
 4049TIP3    H112153   4.089   1.070   2.585 -1.1869 -1.5917 -2.5527
 4049TIP3    H212154   4.194   1.090   2.478 -0.3332 -2.2819 -1.8663
 4050TIP3   OH212155   5.603   4.262   1.656 -0.5186 -0.0769  0.2438
 4050TIP3    H112156   5.579   4.354   1.645  1.8204  0.4430 -1.0032
 4050TIP3    H212157   5.649   4.259   1.740  0.2253  0.0925 -0.1512
 4051TIP3   OH212158   3.094   0.838   3.270 -0.4104 -0.0824  0.4599
 4051TIP3    H112159   3.163   0.775   3.294  0.5796  0.4631 -0.8079
 4051TIP3    H212160   3.022   0.784   3.237  0.2000 -0.5983 -0.0615
 4052TIP3   OH212161   1.432   1.163   3.250  0.4257  0.1998 -0.5379
 4052TIP3    H112162   1.450   1.177   3.343  1.3717  0.6930 -0.7774
 4052TIP3    H212163   1.393   1.246   3.220  0.9667  0.3771 -0.7692
 4053TIP3   OH212164   1.470   4.310   0.933 -0.0366  0.0445  0.0672
 4053TIP3    H112165   1.494   4.229   0.979  0.8876  0.8820  1.1326
 4053TIP3    H212166   1.385   4.334   0.969 -0.6877 -0.8355 -0.8206
 4054TIP3   OH212167   0.117   0.964   3.545 -0.7073  0.3572 -0.0683
 4054TIP3    H112168   0.055   0.912   3.494  0.1935 -1.1598  0.3080
 4054TIP3    H212169   0.201   0.918   3.536  0.2999  2.1278 -0.2422
 4055TIP3   OH212170   4.370   0.061   2.395  0.0592  0.3752 -0.1094
 4055TIP3    H112171   4.422   0.053   2.475  1.0458  1.4223 -0.6158
 4055TIP3    H212172   4.380   0.152   2.368  0.6696 -0.1835 -2.0037
 4056TIP3   OH212173   5.589   5.658   1.818  0.0781  0.2078 -0.3568
 4056TIP3    H112174   5.684   5.645   1.824  0.0571  0.5842  1.1004
 4056TIP3    H212175   5.552   5.570   1.818  0.3302  0.0816  1.3873
 4057TIP3   OH212176   1.677   4.524   1.592 -0.1757 -0.3537  0.5445
 4057TIP3    H112177   1.719   4.465   1.529 -0.0318  0.0373  0.2686
 4057TIP3    H212178   1.744   4.590   1.610 -0.9431  0.7829 -0.5717
 4058TIP3   OH212179   2.926   1.959   3.702  0.1452 -0.4671 -0.4837
 4058TIP3    H112180   2.859   1.924   3.761 -1.5462 -0.1521 -2.1254
 4058TIP3    H212181   2.887   2.038   3.664  1.7173  0.1046 -0.9980
 4059TIP3   OH212182   1.576   1.386   3.936 -0.3997  0.0562  0.3317
 4059TIP3    H112183   1.503   1.441   3.907 -0.2102  1.0267  1.6161
 4059TIP3    H212184   1.540   1.297   3.938 -1.5280  0.5033  0.8530
 4060TIP3   OH212185   2.663   1.200   2.709  0.2121  0.3028 -0.0647
 4060TIP3    H112186   2.653   1.254   2.631 -0.9428 -0.0185 -0.1628
 4060TIP3    H212187   2.730   1.136   2.686 -0.3811 -0.0142 -0.9313
 4061TIP3   OH212188   4.535   5.385   0.714 -0.1087 -0.1652  0.0634
 4061TIP3    H112189   4.587   5.350   0.786  1.0873  0.5047 -0.4375
 4061TIP3    H212190   4.575   5.470   0.695 -1.6060  0.5189 -0.1369
 4062TIP3   OH212191   1.042   3.889   1.572 -0.5202 -0.4228 -0.1602
 4062TIP3    H112192   1.058   3.924   1.484 -1.0055 -0.0575 -0.1070
 4062TIP3    H212193   1.129   3.865   1.604 -0.1898  0.5529 -0.2806
 4063TIP3   OH212194   5.060   1.721   3.884 -0.3532  0.4747 -0.9159
 4063TIP3    H112195   5.019   1.722   3.797 -0.2088  2.5147 -0.9896
 4063TIP3    H212196   5.148   1.687   3.869 -0.6104  0.0176 -1.4248
 4064TIP3   OH212197   4.460   5.790   3.671  0.1930 -0.3353 -0.2299
 4064TIP3    H112198   4.435   5.728   3.739 -0.4960  1.2521  1.0258
 4064TIP3    H212199   4.553   5.809   3.687 -0.1645  0.6402  0.8149
 4065TIP3   OH212200   6.360   4.836   2.979 -0.6443 -0.1819 -0.1938
 4065TIP3    H112201   6.317   4.891   3.045 -0.6088  0.5124 -0.7377
 4065TIP3    H212202   6.390   4.759   3.028 -0.8389  0.2048  0.5537
 4066TIP3   OH212203   4.428   0.361   3.624 -0.4222 -0.1443  0.1536
 4066TIP3    H112204   4.373   0.299   3.671 -1.5706 -0.2820 -1.2732
 4066TIP3    H212205   4.368   0.433   3.600  0.1145 -0.0400 -0.9788
 4067TIP3   OH212206   1.066   2.466   1.368 -0.0783  0.2097 -0.1717
 4067TIP3    H112207   1.115   2.465   1.286 -1.3435 -1.2787 -0.9769
 4067TIP3    H212208   1.015   2.547   1.365  0.2765  0.4156 -0.6076
 4068TIP3   OH212209   2.871   1.231   3.945 -0.3458 -0.4108 -0.2121
 4068TIP3    H112210   2.937   1.246   4.012 -0.5403 -1.1264  0.1488
 4068TIP3    H212211   2.888   1.141   3.915 -1.4726 -0.7824  0.2417
 4069TIP3   OH212212  -0.020   1.964   2.907  0.0501  0.1409  0.1753
 4069TIP3    H112213   0.012   1.884   2.950  0.1986  0.2384  0.2457
 4069TIP3    H212214   0.050   2.028   2.920  0.2905  0.0410 -0.5924
 4070TIP3   OH212215   1.299   5.189   1.765 -0.3019  0.4523  0.0299
 4070TIP3    H112216   1.331   5.272   1.730 -0.0700  0.0034 -0.8358
 4070TIP3    H212217   1.378   5.138   1.783 -0.4456 -0.9748 -2.8647
 4071TIP3   OH212218   2.156   0.163   0.518 -0.2825  0.5476 -0.4348
 4071TIP3    H112219   2.235   0.200   0.479 -0.4434  0.4126 -0.8945
 4071TIP3    H212220   2.157   0.194   0.608 -0.3997  1.6555 -0.8018
 4072TIP3   OH212221   6.069   0.291   0.228 -0.7999 -0.4017  0.0667
 4072TIP3    H112222   6.161   0.317   0.222 -0.8862 -0.0208  0.3425
 4072TIP3    H212223   6.033   0.309   0.141 -1.0141  1.0322  0.4284
 4073TIP3   OH212224   5.354   0.696   3.543 -0.1579  0.1931 -0.2190
 4073TIP3    H112225   5.318   0.617   3.583 -0.8845  0.2240 -0.7867
 4073TIP3    H212226   5.449   0.685   3.550 -0.2241 -1.1415 -1.0680
 4074TIP3   OH212227   1.378   2.598   4.170 -0.8259 -0.1102 -0.5207
 4074TIP3    H112228   1.407   2.546   4.095 -0.5038  0.1977 -0.6121
 4074TIP3    H212229   1.459   2.626   4.213 -1.0061 -1.6225  0.8893
 4075TIP3   OH212230   3.965   0.723   0.350  0.5701 -0.6267  0.0848
 4075TIP3    H112231   3.934   0.650   0.404 -0.9257  0.9666  1.5156
 4075TIP3    H212232   3.898   0.732   0.282  0.6753 -0.5138 -0.0029
 4076TIP3   OH212233   4.817   5.434   2.737  0.0727 -0.1943 -0.5149
 4076TIP3    H112234   4.775   5.520   2.726  1.2551  0.4262 -0.3629
 4076TIP3    H212235   4.781   5.401   2.819  0.1967  0.5291 -0.1557
 4077TIP3   OH212236   0.553   4.788   0.593  0.1608  0.0228  0.3966
 4077TIP3    H112237   0.540   4.701   0.632  2.0376 -0.2134  0.5917
 4077TIP3    H212238   0.534   4.776   0.500 -0.5155 -0.3679  0.5839
 4078TIP3   OH212239   0.817   3.781   4.807 -0.0930  0.2070  0.1450
 4078TIP3    H112240   0.902   3.739   4.817  1.4381  3.3065  1.4658
 4078TIP3    H212241   0.798   3.775   4.714  2.2926  0.6610 -0.4296
 4079TIP3   OH212242   1.128   5.736   4.326 -0.4152 -0.2428 -0.8272
 4079TIP3    H112243   1.089   5.649   4.322 -0.0565 -0.4433 -0.2071
 4079TIP3    H212244   1.113   5.765   4.416  0.9604 -0.3926 -0.5223
 4080TIP3   OH212245   5.272   5.463   4.251  0.3148  0.2475  0.1048
 4080TIP3    H112246   5.274   5.367   4.258 -1.1385  0.1753 -0.2835
 4080TIP3    H212247   5.351   5.485   4.203  0.8948 -0.7167  0.5758
 4081TIP3   OH212248   2.057   3.822   3.167  0.3137  0.1422 -0.3109
 4081TIP3    H112249   2.100   3.815   3.082 -0.4843  0.3378 -0.7464
 4081TIP3    H212250   1.981   3.879   3.151 -0.9635 -1.3727  0.0705
 4082TIP3   OH212251   0.408   5.247   3.043  0.1169 -0.1127 -0.5705
 4082TIP3    H112252   0.442   5.325   3.088 -0.0554 -0.9636  1.1163
 4082TIP3    H212253   0.390   5.185   3.114 -1.9455 -0.8560 -1.6510
 4083TIP3   OH212254   2.322   5.109   1.646 -0.2992 -0.2714 -0.0168
 4083TIP3    H112255   2.333   5.062   1.728  0.1714 -0.4448 -0.1815
 4083TIP3    H212256   2.258   5.057   1.596  1.0717 -1.3759 -0.6788
 4084TIP3   OH212257   2.858   5.420   4.949  0.1915  0.9013 -0.1877
 4084TIP3    H112258   2.894   5.408   4.861 -2.0807  0.2353 -1.1096
 4084TIP3    H212259   2.859   5.515   4.963  1.2166  0.9658 -0.6232
 4085TIP3   OH212260   2.271   4.368   2.795 -0.1402 -0.1342  0.0208
 4085TIP3    H112261   2.362   4.347   2.818 -0.0545 -1.6169 -1.4855
 4085TIP3    H212262   2.222   4.289   2.816 -0.4098 -0.7487 -2.5665
 4086TIP3   OH212263   1.340   0.449   4.688  0.3277 -0.0091 -0.1703
 4086TIP3    H112264   1.317   0.525   4.634  1.6548  0.7827  0.3222
 4086TIP3    H212265   1.273   0.447   4.756  0.6461  1.1375  0.1937
 4087TIP3   OH212266   0.875   2.279   0.770 -0.2325 -0.5835 -0.3970
 4087TIP3    H112267   0.946   2.229   0.730 -0.4485 -0.2384 -1.2165
 4087TIP3    H212268   0.898   2.281   0.863  1.7004  0.9243 -0.8508
 4088TIP3   OH212269   1.777   0.293   2.583 -0.0195  0.3863 -0.5625
 4088TIP3    H112270   1.723   0.240   2.525 -1.1507  1.2974 -0.3838
 4088TIP3    H212271   1.841   0.335   2.525  0.3040 -0.4409 -0.8194
 4089TIP3   OH212272   3.349   2.629   3.497 -0.5649 -0.1480  0.6906
 4089TIP3    H112273   3.269   2.666   3.535 -1.2851  2.7866 -3.1294
 4089TIP3    H212274   3.322   2.545   3.461 -1.6630  0.2619  0.5084
 4090TIP3   OH212275   3.483   5.769   1.601 -0.1973  0.5005  0.0084
 4090TIP3    H112276   3.571   5.805   1.601 -0.0592  0.1930  0.9816
 4090TIP3    H212277   3.444   5.800   1.684 -0.9455  0.4991 -0.3293
 4091TIP3   OH212278   3.447   3.267   5.028 -0.3410 -0.5284  0.2921
 4091TIP3    H112279   3.486   3.202   4.969  0.1298  0.0158 -0.0064
 4091TIP3    H212280   3.393   3.321   4.970  0.4088  0.2317  0.2900
 4092TIP3   OH212281   4.707   4.574   3.481 -0.5844 -0.2893  0.0826
 4092TIP3    H112282   4.720   4.666   3.461  1.5554 -0.7454 -0.8421
 4092TIP3    H212283   4.616   4.569   3.511 -0.7322  2.1030  0.2211
 4093TIP3   OH212284   5.416   3.049   2.255 -0.1123 -0.2124  0.0858
 4093TIP3    H112285   5.323   3.026   2.260 -0.3381  0.6494  0.1674
 4093TIP3    H212286   5.456   2.979   2.204 -0.7805 -0.6792  0.1921
 4094TIP3   OH212287   2.132   2.459   3.319 -0.2125  0.2443  0.0343
 4094TIP3    H112288   2.071   2.492   3.253 -1.3497 -0.7228  0.5694
 4094TIP3    H212289   2.219   2.482   3.286 -0.8385  1.1413 -1.0242
 4095TIP3   OH212290   5.120   0.669   4.262 -0.2733 -0.4595  0.1317
 4095TIP3    H112291   5.123   0.655   4.167  0.1091 -0.9127  0.2066
 4095TIP3    H212292   5.181   0.604   4.297  1.2355  1.1351  0.5441
 4096TIP3   OH212293   2.243   3.701   3.692  0.3010 -0.6195  0.0166
 4096TIP3    H112294   2.189   3.686   3.615  1.7245  1.9090 -1.5970
 4096TIP3    H212295   2.323   3.651   3.676 -0.3325 -2.0713  1.0891
 4097TIP3   OH212296   3.907   0.814   4.437  0.6086 -0.5524  0.2775
 4097TIP3    H112297   4.003   0.813   4.433  0.5711 -0.6786 -1.0991
 4097TIP3    H212298   3.882   0.890   4.385 -0.0671 -1.5801 -0.9746
 4098TIP3   OH212299   2.306   3.718   2.020  0.0715  0.3679 -0.4719
 4098TIP3    H112300   2.342   3.687   2.103  2.9694 -0.7677 -1.9745
 4098TIP3    H212301   2.329   3.811   2.017 -0.7887  0.6182  0.3128
 4099TIP3   OH212302   4.479   0.845   3.670  0.1513 -0.4504 -0.1127
 4099TIP3    H112303   4.448   0.821   3.757  0.3079 -0.1433  0.0311
 4099TIP3    H212304   4.442   0.778   3.612  2.0445 -2.1206  0.4945
 4100TIP3   OH212305   3.717   0.523   5.204 -0.4279  0.3102  1.3866
 4100TIP3    H112306   3.701   0.471   5.124 -0.2519  1.4953  0.5532
 4100TIP3    H212307   3.807   0.501   5.228 -0.5011 -0.1063  1.2992
 4101TIP3   OH212308   4.536   1.896   0.385  0.5040  0.3198  0.1232
 4101TIP3    H112309   4.457   1.871   0.337  0.1555 -0.7137  1.1997
 4101TIP3    H212310   4.573   1.813   0.415  0.4502  0.9376  2.0274
 4102TIP3   OH212311   2.849   5.549   1.218  0.5542  0.3630  0.2712
 4102TIP3    H112312   2.821   5.629   1.263 -1.6411 -0.9462  1.3816
 4102TIP3    H212313   2.773   5.522   1.166  1.4692 -0.6911 -0.5883
 4103TIP3   OH212314   5.643   2.264   1.721 -0.2872  0.2052  0.4232
 4103TIP3    H112315   5.651   2.284   1.814 -0.1741 -0.0254  0.4623
 4103TIP3    H212316   5.590   2.184   1.718 -1.6844  1.1032  0.2151
 4104TIP3   OH212317   1.727   4.716   4.118  0.4661  0.0532 -0.2173
 4104TIP3    H112318   1.791   4.653   4.151  1.3561  1.1898  0.3253
 4104TIP3    H212319   1.728   4.787   4.183 -0.1738  0.8317 -1.0308
 4105TIP3   OH212320   2.560   3.291   3.638 -0.0070  0.5680 -0.5488
 4105TIP3    H112321   2.617   3.226   3.598 -0.9917 -0.7155  0.0832
 4105TIP3    H212322   2.575   3.282   3.732 -1.7072 -0.2868 -0.3105
 4106TIP3   OH212323   2.896   0.174   4.617 -0.0859  0.7390 -0.3420
 4106TIP3    H112324   2.856   0.261   4.627 -1.7987 -0.0729  0.2377
 4106TIP3    H212325   2.889   0.135   4.703  3.1043  0.9487  0.1147
 4107TIP3   OH212326   5.126   3.216   3.418  0.7688  0.2102  0.3618
 4107TIP3    H112327   5.185   3.203   3.492  2.4186  1.9930 -0.5653
 4107TIP3    H212328   5.071   3.290   3.443  0.9936  0.4983  0.0129
 4108TIP3   OH212329   2.090   0.133   4.212 -0.2495  0.2229  0.6962
 4108TIP3    H112330   2.177   0.144   4.251  0.2122  2.6780 -0.8661
 4108TIP3    H212331   2.107   0.109   4.121 -1.2318 -0.1216  0.5944
 4109TIP3   OH212332   5.814   3.462   2.409 -0.3359 -0.2075  0.1701
 4109TIP3    H112333   5.797   3.552   2.435 -0.3187 -0.0563 -0.3180
 4109TIP3    H212334   5.728   3.425   2.391 -0.3799 -0.4444  0.8592
 4110TIP3   OH212335   2.890   0.143   1.830 -0.0732 -0.1311  0.3506
 4110TIP3    H112336   2.911   0.202   1.758  1.3992  0.3922  1.1612
 4110TIP3    H212337   2.800   0.166   1.855  0.0338  0.8964 -0.1682
 4111TIP3   OH212338   6.245   2.180   3.099 -0.5563 -0.5806 -0.4997
 4111TIP3    H112339   6.226   2.210   3.010  0.3526 -2.8032 -1.5253
 4111TIP3    H212340   6.220   2.087   3.099  2.1912 -1.4218  0.6087
 4112TIP3   OH212341   0.496   0.490   4.720 -0.4444  0.2657  0.9740
 4112TIP3    H112342   0.485   0.462   4.630 -1.6264  0.8699  0.9205
 4112TIP3    H212343   0.481   0.584   4.719  1.2502  0.5944  1.5285
 4113TIP3   OH212344   4.959   3.939   0.076 -0.3921  0.0621  0.4706
 4113TIP3    H112345   4.964   3.899   0.163  0.4295  1.4262  1.0884
 4113TIP3    H212346   5.049   3.961   0.055 -0.8303  1.9949  0.4017
 4114TIP3   OH212347   2.872   3.254   2.074 -0.2546 -0.1259 -0.1679
 4114TIP3    H112348   2.946   3.230   2.130 -0.6092  0.5859  0.6266
 4114TIP3    H212349   2.857   3.176   2.020 -0.7110 -1.3366  1.6197
 4115TIP3   OH212350   3.586   3.953   3.533 -0.0386 -0.0422  0.1084
 4115TIP3    H112351   3.630   4.038   3.522 -0.6380  0.3511  0.6176
 4115TIP3    H212352   3.646   3.902   3.587 -0.2968  0.5863  1.0274
 4116TIP3   OH212353   0.525   2.177   1.364 -0.0157 -0.1152  0.2964
 4116TIP3    H112354   0.542   2.188   1.270 -0.3447  2.1856  0.4488
 4116TIP3    H212355   0.429   2.178   1.371 -0.0014 -0.6643  0.6378
 4117TIP3   OH212356   1.613   3.136   3.690 -0.1081  0.6988 -0.0793
 4117TIP3    H112357   1.568   3.170   3.613  0.1283  0.7451 -0.1968
 4117TIP3    H212358   1.576   3.049   3.703 -1.5000  1.3897  0.8604
 4118TIP3   OH212359   4.013   3.865   1.556 -0.4716 -0.3093 -0.4187
 4118TIP3    H112360   3.930   3.913   1.547 -0.6805 -0.7811 -1.0558
 4118TIP3    H212361   4.009   3.828   1.644 -0.8947 -0.2365 -0.4042
 4119TIP3   OH212362   3.097   1.102   1.920  0.0383  0.5677 -0.2072
 4119TIP3    H112363   3.010   1.067   1.902  0.7541 -0.3164 -2.2233
 4119TIP3    H212364   3.089   1.195   1.900 -1.1086  1.0948  2.3290
 4120TIP3   OH212365   0.625   1.211   0.938  0.4380 -0.7029  0.0073
 4120TIP3    H112366   0.719   1.197   0.952  0.7031  0.6382 -0.2747
 4120TIP3    H212367   0.604   1.157   0.862  0.6397 -2.1571  0.9451
 4121TIP3   OH212368   4.144   4.119   1.033  0.1110 -0.0033 -0.7055
 4121TIP3    H112369   4.141   4.185   0.964 -1.5331  1.8372  1.0183
 4121TIP3    H212370   4.234   4.122   1.066  0.4783  0.2098 -1.6954
 4122TIP3   OH212371   2.803   4.594   2.754  0.3132  0.0279  0.4754
 4122TIP3    H112372   2.895   4.565   2.760  0.0806 -0.7571  0.3160
 4122TIP3    H212373   2.752   4.518   2.783 -0.2665  0.6666  1.1595
 4123TIP3   OH212374   3.709   0.746   0.221 -0.2785  0.5678  0.6515
 4123TIP3    H112375   3.745   0.798   0.149  0.9692  0.0290  0.8596
 4123TIP3    H212376   3.699   0.658   0.184 -2.0752  0.8357  0.3979
 4124TIP3   OH212377   6.181   1.808   1.585  0.3924  0.0739 -0.3515
 4124TIP3    H112378   6.161   1.714   1.591  0.0514  0.1904  0.4411
 4124TIP3    H212379   6.102   1.851   1.617  1.5911  0.5660  2.1508
 4125TIP3   OH212380   0.896   1.183   2.892  0.2751 -0.2117  0.4140
 4125TIP3    H112381   0.898   1.105   2.836  1.2336 -0.5684  0.9188
 4125TIP3    H212382   0.898   1.256   2.831  0.6343 -0.5972 -0.0474
 4126TIP3   OH212383   5.142   3.552   0.589  0.1322  0.0474 -0.2544
 4126TIP3    H112384   5.066   3.592   0.633 -0.2054  0.7441 -1.4062
 4126TIP3    H212385   5.217   3.578   0.643 -0.2746  0.8260 -0.0361
 4127TIP3   OH212386   5.594   5.066   2.375  0.2421 -0.2588  0.6697
 4127TIP3    H112387   5.615   4.991   2.430  0.8243 -0.6579 -0.0792
 4127TIP3    H212388   5.506   5.092   2.401  0.4857 -0.4823  1.7313
 4128TIP3   OH212389   4.908   1.096   1.575 -0.1128 -0.0283  0.1093
 4128TIP3    H112390   4.824   1.141   1.582 -0.3135 -0.5264  1.0432
 4128TIP3    H212391   4.962   1.135   1.645  0.5841  0.5853 -0.7475
 4129TIP3   OH212392   2.944   1.664   1.872 -0.8714 -0.1713 -0.4222
 4129TIP3    H112393   2.928   1.753   1.903 -1.0586 -0.7089  1.0921
 4129TIP3    H212394   2.901   1.660   1.787 -3.1754  0.4044  0.6363
 4130TIP3   OH212395   5.423   4.468   0.384 -0.0673 -0.2779  0.0572
 4130TIP3    H112396   5.396   4.380   0.408 -1.5827  0.9271  3.4362
 4130TIP3    H212397   5.344   4.521   0.391  0.7079  1.3536 -2.2776
 4131TIP3   OH212398   1.511   4.761   0.661 -0.1321 -0.4405 -0.2082
 4131TIP3    H112399   1.498   4.681   0.712 -0.5745 -0.7077 -0.7292
 4131TIP3    H212400   1.455   4.826   0.703 -0.0133 -0.4848  0.0230
 4132TIP3   OH212401   6.214   3.209   2.619  0.0458  0.1992 -0.6458
 4132TIP3    H112402   6.145   3.275   2.613  1.5803  2.0866  0.8478
 4132TIP3    H212403   6.284   3.244   2.564  2.0606  1.5708  2.4839
 4133TIP3   OH212404   4.331   4.415   3.226 -0.4671  0.0285 -0.0938
 4133TIP3    H112405   4.312   4.350   3.293 -0.8162 -0.4537 -0.6499
 4133TIP3    H212406   4.262   4.404   3.161  0.1731  0.1014 -0.8103
 4134TIP3   OH212407   3.970   3.133   3.410 -0.6452  0.2594 -0.0769
 4134TIP3    H112408   4.055   3.102   3.380 -0.8070 -1.3231  0.9833
 4134TIP3    H212409   3.917   3.139   3.331  0.7555  2.4986 -0.9470
 4135TIP3   OH212410   4.037   1.658   0.117 -0.2790 -0.0561  0.3776
 4135TIP3    H112411   4.074   1.595   0.178  1.2577 -0.4924 -0.9400
 4135TIP3    H212412   4.061   1.624   0.031 -0.5569  1.6566 -0.4074
 4136TIP3   OH212413   0.618   3.954   3.163 -0.0393  0.0170  0.2818
 4136TIP3    H112414   0.566   3.902   3.225 -1.1806 -0.1393 -0.7657
 4136TIP3    H212415   0.562   3.963   3.086  2.1135 -1.6196 -1.6306
 4137TIP3   OH212416   3.861   1.695   2.411 -0.6111  0.0324  0.0211
 4137TIP3    H112417   3.902   1.608   2.408  0.0949  0.3459  0.4594
 4137TIP3    H212418   3.885   1.734   2.327  1.6731  0.9444  1.0097
 4138TIP3   OH212419   0.200   1.663   2.371  0.1476  0.1668 -0.2257
 4138TIP3    H112420   0.182   1.650   2.278  0.3979  2.0984 -0.5809
 4138TIP3    H212421   0.157   1.589   2.414 -0.6181 -0.3519 -1.8020
 4139TIP3   OH212422   0.558   2.876   1.252 -0.4667 -0.5693  0.5290
 4139TIP3    H112423   0.537   2.968   1.236 -0.0040 -0.5658 -0.1115
 4139TIP3    H212424   0.628   2.856   1.189 -0.1295 -1.1845  1.0853
 4140TIP3   OH212425   0.667   2.388   3.887  0.1409  0.0761  0.4367
 4140TIP3    H112426   0.675   2.428   3.974  1.9075  2.2652 -0.6450
 4140TIP3    H212427   0.711   2.449   3.828 -2.7539 -0.2784 -2.3877
 4141TIP3   OH212428   3.272   2.955   2.324 -0.7859  0.1518  0.0560
 4141TIP3    H112429   3.354   2.998   2.348 -1.4338  1.0634  0.7078
 4141TIP3    H212430   3.299   2.875   2.280  0.4557  0.3841  0.3567
 4142TIP3   OH212431   4.694   3.921   1.327  0.6968 -0.0311 -0.2472
 4142TIP3    H112432   4.702   3.972   1.407  1.2959  0.4292 -0.5916
 4142TIP3    H212433   4.688   3.830   1.356  1.8693  0.0549  0.2775
 4143TIP3   OH212434   2.268   2.167   0.428 -0.4643 -0.4659 -0.4586
 4143TIP3    H112435   2.345   2.112   0.445 -0.3574  0.2339  1.5545
 4143TIP3    H212436   2.198   2.105   0.408  0.5087 -1.1310 -1.9240
 4144TIP3   OH212437   0.390   4.599   4.692  0.5576  0.3902 -0.4105
 4144TIP3    H112438   0.376   4.530   4.627 -0.7235 -0.8914  1.1236
 4144TIP3    H212439   0.337   4.672   4.661 -1.6728 -0.8934  0.1126
 4145TIP3   OH212440   0.667   5.109   2.502 -0.3904  0.0367 -0.4476
 4145TIP3    H112441   0.656   5.018   2.527  0.0909  0.3760  1.0777
 4145TIP3    H212442   0.628   5.159   2.573  1.7501  1.0544  0.0988
 4146TIP3   OH212443   4.098   2.527   4.709 -0.0069  0.0427 -0.5745
 4146TIP3    H112444   4.012   2.485   4.721  0.0571 -0.3072 -1.2566
 4146TIP3    H212445   4.131   2.489   4.627  2.3073 -2.4543  1.3216
 4147TIP3   OH212446   4.313   5.096   3.277 -0.0760 -0.3284  0.1677
 4147TIP3    H112447   4.249   5.157   3.315  0.3918  0.2716  0.0121
 4147TIP3    H212448   4.278   5.075   3.191 -0.3832 -0.5036  0.3338
 4148TIP3   OH212449   2.301   3.109   2.013  0.3163 -0.1113 -0.1800
 4148TIP3    H112450   2.324   3.087   2.103 -1.4163  0.4887  0.4459
 4148TIP3    H212451   2.223   3.165   2.020 -1.4861 -2.1687 -2.1422
 4149TIP3   OH212452   6.017   5.451   2.323  0.6023 -0.2167  0.0824
 4149TIP3    H112453   5.970   5.388   2.378  0.4606  0.1008  0.3273
 4149TIP3    H212454   5.949   5.509   2.290  1.0906  3.0558  3.9420
 4150TIP3   OH212455   5.319   1.261   1.745  0.0160 -0.2184  1.2885
 4150TIP3    H112456   5.286   1.171   1.734 -1.2010  0.4593 -1.3876
 4150TIP3    H212457   5.413   1.254   1.730 -0.4214 -0.7339 -1.8301
 4151TIP3   OH212458   2.451   4.182   1.399  0.3843 -0.4425  0.1612
 4151TIP3    H112459   2.503   4.200   1.321 -0.1852 -0.1146 -0.1449
 4151TIP3    H212460   2.361   4.198   1.373  0.0536 -1.6587  0.4981
 4152TIP3   OH212461   0.299   1.781   4.177  0.0049  0.4182  0.9064
 4152TIP3    H112462   0.343   1.731   4.108  0.5570 -1.4607  2.5352
 4152TIP3    H212463   0.206   1.764   4.164 -0.0588  1.5455 -0.4051
 4153TIP3   OH212464   4.952   5.257   5.130  0.3656  0.7624 -0.4712
 4153TIP3    H112465   4.946   5.313   5.207 -1.5644  0.0873 -0.0812
 4153TIP3    H212466   4.888   5.293   5.069  2.1008  1.4950 -1.9394
 4154TIP3   OH212467   5.976   4.076   2.539 -0.4766  0.4594  0.0645
 4154TIP3    H112468   6.019   4.070   2.624  0.3556  0.1425 -0.3654
 4154TIP3    H212469   6.040   4.120   2.483  0.1063 -1.6779 -1.0711
 4155TIP3   OH212470   5.225   2.791   3.359 -0.1263 -0.0790  0.3329
 4155TIP3    H112471   5.279   2.825   3.287  1.0111  0.5910  1.4750
 4155TIP3    H212472   5.180   2.715   3.320 -1.7553  1.8700 -1.9092
 4156TIP3   OH212473   0.927   0.921   4.947 -0.3090  0.0585  0.2218
 4156TIP3    H112474   0.928   0.926   4.852 -0.8762  1.4496  0.2596
 4156TIP3    H212475   0.913   1.012   4.975  0.4751 -0.2414  1.6389
 4157TIP3   OH212476   0.013   5.786   4.790 -0.2008 -0.2866  0.1807
 4157TIP3    H112477   0.091   5.786   4.845 -0.0599 -0.4875 -0.0138
 4157TIP3    H212478   0.005   5.695   4.761  2.1492  0.4391 -3.4931
 4158TIP3   OH212479   3.257   2.036   2.295  0.4384 -0.5728  0.1953
 4158TIP3    H112480   3.321   1.978   2.336 -1.4851 -2.0773  1.2533
 4158TIP3    H212481   3.257   2.009   2.203  1.5202 -0.3369  0.1146
 4159TIP3   OH212482   1.676   4.498   2.448  0.6091 -0.6087  0.1163
 4159TIP3    H112483   1.663   4.501   2.354 -0.1227 -0.2555  0.2176
 4159TIP3    H212484   1.683   4.404   2.468 -0.9065 -0.7925 -0.0965
 4160TIP3   OH212485   0.260   0.522   4.888  0.5462 -0.4812  0.3631
 4160TIP3    H112486   0.235   0.592   4.828 -1.6921 -0.9280  0.7014
 4160TIP3    H212487   0.292   0.452   4.831 -0.6286 -0.5331 -0.2540
 4161TIP3   OH212488   2.081   0.979   1.585 -0.2072 -0.3445 -0.0331
 4161TIP3    H112489   2.012   1.043   1.602  0.9746  0.6639  1.2689
 4161TIP3    H212490   2.076   0.963   1.491 -0.8754  1.3175 -0.3277
 4162TIP3   OH212491   4.972   2.416   0.305 -0.3952 -0.6640  0.1164
 4162TIP3    H112492   5.030   2.440   0.376  1.1248 -0.3215 -1.1895
 4162TIP3    H212493   4.897   2.475   0.314  0.7117  0.7599  0.2390
 4163TIP3   OH212494   6.142   1.062   3.767 -0.4159 -0.2424  0.1720
 4163TIP3    H112495   6.232   1.048   3.797  0.0180 -0.9176 -1.3254
 4163TIP3    H212496   6.101   0.976   3.773 -0.1414 -0.5403 -1.6001
 4164TIP3   OH212497   5.358   0.238   3.187  0.2024  0.4801 -0.6030
 4164TIP3    H112498   5.299   0.304   3.223  0.2429  0.1952 -0.0092
 4164TIP3    H212499   5.306   0.195   3.118 -0.3765  0.0664  0.0767
 4165TIP3   OH212500   3.209   3.715   0.596  0.0029  0.3867  0.1899
 4165TIP3    H112501   3.223   3.699   0.689  1.1198 -0.3239 -0.0870
 4165TIP3    H212502   3.294   3.701   0.556  0.1315  3.0620 -0.6577
 4166TIP3   OH212503   0.956   0.502   2.275 -0.3283 -0.2497 -0.1884
 4166TIP3    H112504   0.932   0.580   2.224  1.5340 -0.4687 -1.4937
 4166TIP3    H212505   0.883   0.441   2.260 -0.2378  0.0181 -1.9417
 4167TIP3   OH212506   0.760   4.944   3.699 -1.3237 -0.1079 -0.0858
 4167TIP3    H112507   0.779   4.967   3.608 -1.1513  1.4674  0.3298
 4167TIP3    H212508   0.692   5.006   3.726  0.2929  1.0422  1.5632
 4168TIP3   OH212509   3.990   2.298   3.075  0.4731 -0.2097 -0.0589
 4168TIP3    H112510   3.914   2.249   3.106  0.7827  1.0323  3.0727
 4168TIP3    H212511   4.036   2.324   3.155  1.7615  2.8735 -1.6222
 4169TIP3   OH212512   2.307   0.835   4.941  0.3988  0.2065 -0.1456
 4169TIP3    H112513   2.324   0.886   4.862 -2.8338  2.3929  0.3576
 4169TIP3    H212514   2.301   0.745   4.911  1.8104  0.6510 -1.9043
 4170TIP3   OH212515   5.732   0.459   3.663  0.2419  0.0243 -0.3990
 4170TIP3    H112516   5.761   0.426   3.578 -2.0196 -0.2557 -1.1230
 4170TIP3    H212517   5.688   0.542   3.643 -0.4306 -0.1111  0.4634
 4171TIP3   OH212518   2.394   1.562   3.075 -0.1201 -0.4499  0.2566
 4171TIP3    H112519   2.459   1.626   3.105 -0.2921  0.2723 -0.8717
 4171TIP3    H212520   2.316   1.582   3.126 -0.2347  0.3875 -0.2218
 4172TIP3   OH212521   1.643   1.230   3.067 -0.6958  0.1991 -0.6863
 4172TIP3    H112522   1.571   1.187   3.113  0.3765 -1.4288 -0.4355
 4172TIP3    H212523   1.614   1.237   2.976 -1.4753  0.3045 -0.4333
 4173TIP3   OH212524   0.540   3.411   2.764 -0.0916 -0.4650  0.1135
 4173TIP3    H112525   0.580   3.497   2.777  0.0743 -0.5814  0.3809
 4173TIP3    H212526   0.536   3.401   2.669 -0.7577  0.1362  0.0727
 4174TIP3   OH212527   4.892   0.062   0.938  0.0226  0.2703  0.2645
 4174TIP3    H112528   4.946   0.100   1.007  0.5996  0.3149 -0.1949
 4174TIP3    H212529   4.923   0.104   0.858  0.1089 -0.5595 -0.1547
 4175TIP3   OH212530   0.335   1.659   3.383  0.0296  0.6427  0.0177
 4175TIP3    H112531   0.272   1.617   3.442 -0.6819  0.8315 -0.5873
 4175TIP3    H212532   0.408   1.683   3.439 -0.6577  0.8804  0.8338
 4176TIP3   OH212533   3.788   3.398   5.068 -0.0478  0.4487  0.0958
 4176TIP3    H112534   3.713   3.411   5.126 -0.6504  0.7971 -0.7497
 4176TIP3    H212535   3.806   3.485   5.032  0.5192  0.2935  0.0049
 4177TIP3   OH212536   4.531   5.796   1.384  0.3475 -0.1101  0.1930
 4177TIP3    H112537   4.513   5.703   1.370 -0.6733 -0.1006  1.2715
 4177TIP3    H212538   4.607   5.798   1.442  2.3598 -0.1837 -2.2597
 4178TIP3   OH212539   6.210   1.472   4.305 -0.3623  0.2328 -0.1626
 4178TIP3    H112540   6.152   1.515   4.243 -0.6905  0.3159  0.1970
 4178TIP3    H212541   6.215   1.381   4.274  0.5504  0.5762 -1.0801
 4179TIP3   OH212542   0.878   1.425   1.243  0.1236 -0.3079 -1.1723
 4179TIP3    H112543   0.943   1.444   1.311  0.1319  0.9413 -1.5175
 4179TIP3    H212544   0.887   1.331   1.228 -0.6202 -0.8582  1.3045
 4180TIP3   OH212545   2.303   3.219   0.304  0.9089  0.2326  0.6844
 4180TIP3    H112546   2.320   3.125   0.304 -1.7786 -0.4049  2.7222
 4180TIP3    H212547   2.352   3.252   0.380  0.0906 -0.0099  1.3444
 4181TIP3   OH212548   3.079   1.904   4.376 -0.0109 -0.0503  0.5420
 4181TIP3    H112549   3.060   1.824   4.327 -0.3318  0.2190  0.2167
 4181TIP3    H212550   3.136   1.955   4.318 -0.3368  0.2399  0.4704
 4182TIP3   OH212551   3.290   3.328   2.957  0.1912  0.1069 -0.4553
 4182TIP3    H112552   3.219   3.373   3.002  0.1815  0.1866 -0.5522
 4182TIP3    H212553   3.370   3.363   2.997  0.1648 -0.7435  0.4085
 4183TIP3   OH212554   4.722   0.607   3.570  0.1550  0.0397  0.3475
 4183TIP3    H112555   4.669   0.676   3.610  0.2933 -0.4813  1.4402
 4183TIP3    H212556   4.803   0.651   3.545  0.1930  0.3084  0.9230
 4184TIP3   OH212557   4.236   3.478   0.427  0.2775 -0.0996  0.1938
 4184TIP3    H112558   4.283   3.398   0.408  2.6398  1.2709 -0.1474
 4184TIP3    H212559   4.268   3.506   0.512 -0.2133  0.6755  0.1425
 4185TIP3   OH212560   1.934   1.235   2.761 -0.0207  0.6305 -0.1662
 4185TIP3    H112561   1.939   1.141   2.743  1.6422  1.0248 -2.2248
 4185TIP3    H212562   1.954   1.243   2.854 -3.3667 -1.2336  0.8716
 4186TIP3   OH212563   2.895   0.507   2.245  0.6355  0.1725 -0.0549
 4186TIP3    H112564   2.910   0.421   2.284  0.4444 -0.7577 -1.9247
 4186TIP3    H212565   2.981   0.549   2.243  1.1023 -0.7901 -0.9235
 4187TIP3   OH212566   4.395   1.815   2.826 -0.0352  0.4606  0.4011
 4187TIP3    H112567   4.304   1.789   2.838 -0.1929  1.1505  0.7598
 4187TIP3    H212568   4.398   1.849   2.736 -0.4046  1.4868  0.7598
 4188TIP3   OH212569   4.546   5.023   3.454  0.5093 -0.5288  0.1049
 4188TIP3    H112570   4.614   5.089   3.443  0.4373 -0.5110 -0.2200
 4188TIP3    H212571   4.468   5.061   3.415  0.5357 -0.9138 -0.3386
 4189TIP3   OH212572   3.279   1.079   0.299  0.6921 -0.6955  0.1556
 4189TIP3    H112573   3.207   1.077   0.362  0.5588 -0.9973  0.0002
 4189TIP3    H212574   3.353   1.040   0.345  0.9805  0.3326  0.5782
 4190TIP3   OH212575   1.839   2.529   4.452  0.5201  0.8743 -0.4489
 4190TIP3    H112576   1.903   2.590   4.489  0.9583  0.5303 -0.6340
 4190TIP3    H212577   1.758   2.547   4.500  0.7689  1.2791 -0.1789
 4191TIP3   OH212578   1.566   2.399   0.937 -0.5082 -0.5135  0.3043
 4191TIP3    H112579   1.503   2.385   0.866  0.3080 -0.0235 -0.5490
 4191TIP3    H212580   1.522   2.458   0.997 -1.0509 -0.5733 -0.0256
 4192TIP3   OH212581   1.303   2.437   2.986 -0.5245 -0.1361 -0.0863
 4192TIP3    H112582   1.294   2.370   3.053 -2.2276  0.2453  0.1003
 4192TIP3    H212583   1.391   2.472   3.000 -0.9694  0.2343  2.2662
 4193TIP3   OH212584   5.133   2.875   1.411  0.1357 -0.7225  0.1623
 4193TIP3    H112585   5.226   2.861   1.394  0.4854  0.2223  1.1715
 4193TIP3    H212586   5.129   2.908   1.501 -1.1513 -0.5168  0.0580
 4194TIP3   OH212587   3.896   5.566   1.816  0.0832 -0.0596 -0.0403
 4194TIP3    H112588   3.972   5.522   1.853  0.7166  0.6624 -0.4592
 4194TIP3    H212589   3.930   5.613   1.740 -0.3045  2.1880  1.0832
 4195TIP3   OH212590   5.281   3.502   3.778 -0.5675 -0.1607  0.2283
 4195TIP3    H112591   5.191   3.488   3.805  0.0216 -0.9260  1.9455
 4195TIP3    H212592   5.332   3.440   3.831  1.2138  1.9356  1.1163
 4196TIP3   OH212593   3.328   2.711   2.207  0.0538  0.3620  0.1198
 4196TIP3    H112594   3.419   2.706   2.179 -0.0689  0.6804 -0.3394
 4196TIP3    H212595   3.321   2.646   2.277  0.1518 -1.0683 -1.1635
 4197TIP3   OH212596   6.321   2.651   5.045  0.0927 -0.0509 -0.2088
 4197TIP3    H112597   6.337   2.688   4.958  3.0706  1.4932  0.8534
 4197TIP3    H212598   6.285   2.724   5.096  2.2174  0.3190  0.8561
 4198TIP3   OH212599   5.930   2.559   1.052 -0.5812 -0.0528 -0.0602
 4198TIP3    H112600   5.992   2.587   0.986 -1.6499  1.0290 -0.6434
 4198TIP3    H212601   5.981   2.556   1.133  0.1020  1.4440 -0.3930
 4199TIP3   OH212602   0.693   4.373   2.754  0.8379  0.7515 -0.6317
 4199TIP3    H112603   0.638   4.380   2.676  1.5598 -1.7573 -1.4876
 4199TIP3    H212604   0.640   4.322   2.816  0.7492  1.6550  0.0536
 4200TIP3   OH212605   4.621   5.378   3.730 -0.0751 -0.1983  0.2868
 4200TIP3    H112606   4.659   5.438   3.666 -0.3457 -0.1261  0.1898
 4200TIP3    H212607   4.693   5.321   3.755  0.4732  0.8422  1.1843
 4201TIP3   OH212608   0.205   0.978   3.236  0.2713  0.0659 -0.0264
 4201TIP3    H112609   0.283   1.031   3.222  0.8088 -0.6003  0.3543
 4201TIP3    H212610   0.176   1.000   3.325 -0.0294  0.3805 -0.2014
 4202TIP3   OH212611   4.762   3.267   3.183  0.3316  0.9080  0.1064
 4202TIP3    H112612   4.774   3.357   3.214  1.5584  0.7047  0.2808
 4202TIP3    H212613   4.796   3.212   3.254 -0.2977  0.3078 -0.0487
 4203TIP3   OH212614   1.373   2.405   0.745 -0.0145 -0.3056 -0.3653
 4203TIP3    H112615   1.349   2.497   0.755  0.1563 -0.1773 -1.0854
 4203TIP3    H212616   1.312   2.357   0.801  1.1384  0.3836  1.5760
 4204TIP3   OH212617   1.309   3.647   2.336 -0.0236  0.3464 -0.2018
 4204TIP3    H112618   1.346   3.734   2.350 -0.6821  0.8092 -1.2270
 4204TIP3    H212619   1.327   3.628   2.243  1.0496 -1.0775  0.2518
 4205TIP3   OH212620   0.693   5.447   4.027  0.0018 -0.1598 -0.4308
 4205TIP3    H112621   0.663   5.416   3.941 -0.8196  0.3142 -0.3216
 4205TIP3    H212622   0.743   5.527   4.008  2.0914 -1.4423 -0.7096
 4206TIP3   OH212623   3.123   2.014   4.622  0.1060  0.3295  0.4052
 4206TIP3    H112624   3.073   1.981   4.547 -0.0075  3.0632 -0.8523
 4206TIP3    H212625   3.063   2.075   4.665  1.3487  1.4736  0.5821
 4207TIP3   OH212626   4.302   5.197   4.316  0.0354  0.0100 -0.0484
 4207TIP3    H112627   4.238   5.127   4.333 -0.5312  0.6103  0.3302
 4207TIP3    H212628   4.264   5.248   4.245  1.2160 -0.9938 -1.4589
 4208TIP3   OH212629   1.066   0.496   1.200  0.2379  0.7071 -0.2099
 4208TIP3    H112630   1.149   0.453   1.218 -0.5208 -0.3707  0.9080
 4208TIP3    H212631   1.087   0.566   1.139  1.9730  0.5243  0.1467
 4209TIP3   OH212632   0.766   4.016   2.303  0.3004  0.4445 -0.1110
 4209TIP3    H112633   0.674   4.044   2.302  0.0293 -0.2483  1.9396
 4209TIP3    H212634   0.782   3.985   2.213 -1.9388 -0.8326 -0.1498
 4210TIP3   OH212635   4.102   4.235   4.710  0.3409 -0.3126  0.4040
 4210TIP3    H112636   4.091   4.329   4.722  0.8171 -0.2233  0.1760
 4210TIP3    H212637   4.169   4.227   4.642  0.4887 -0.8155  0.6017
 4211TIP3   OH212638   3.823   4.721   1.128 -0.5561  0.3681  0.0228
 4211TIP3    H112639   3.893   4.786   1.125  1.4386 -1.6919 -1.8871
 4211TIP3    H212640   3.777   4.731   1.045 -0.9347  0.0961  0.1986
 4212TIP3   OH212641   3.507   1.386   2.440  0.1930 -0.3273 -0.6584
 4212TIP3    H112642   3.544   1.468   2.473 -0.7332 -0.2046  0.1381
 4212TIP3    H212643   3.461   1.411   2.360 -0.5326  0.0529 -0.1394
 4213TIP3   OH212644   5.229   5.719   3.284  0.2406  0.4891 -0.2929
 4213TIP3    H112645   5.175   5.711   3.363  1.5882  2.0514  0.8466
 4213TIP3    H212646   5.262   5.808   3.286  2.3945 -0.2261 -1.2434
 4214TIP3   OH212647   0.763   4.084   0.704  1.0461 -0.4200  0.3862
 4214TIP3    H112648   0.855   4.063   0.717  1.4833  1.5876  0.9508
 4214TIP3    H212649   0.738   4.130   0.784 -0.0543  0.2794 -0.3373
 4215TIP3   OH212650   2.573   2.876   2.396  0.5711  0.1120  0.2347
 4215TIP3    H112651   2.642   2.906   2.454  0.7828  0.1967 -0.0563
 4215TIP3    H212652   2.505   2.841   2.454  0.3455  1.0892  0.5832
 4216TIP3   OH212653   0.829   2.013   4.033 -0.5286  0.0767 -0.2403
 4216TIP3    H112654   0.836   2.040   3.942 -0.8216 -2.8561 -1.2529
 4216TIP3    H212655   0.737   2.023   4.054 -1.0763 -2.0277 -1.3445
 4217TIP3   OH212656   2.487   3.697   0.922 -0.0635 -0.7343 -0.2632
 4217TIP3    H112657   2.461   3.670   1.010  0.2020 -1.6325 -0.4530
 4217TIP3    H212658   2.568   3.747   0.934 -0.1384 -0.6834  0.0209
 4218TIP3   OH212659   1.505   1.888   0.149 -0.5013  0.2977  0.1987
 4218TIP3    H112660   1.501   1.961   0.087 -0.0853  0.1004 -0.0714
 4218TIP3    H212661   1.583   1.839   0.122  0.9897  1.3912  2.1869
 4219TIP3   OH212662   0.539   1.084   2.979  0.0839 -0.7504 -0.4029
 4219TIP3    H112663   0.625   1.121   3.002 -0.9507  2.2105 -0.8402
 4219TIP3    H212664   0.498   1.064   3.063  0.1197  0.5651 -0.0544
 4220TIP3   OH212665   2.450   1.178   2.427 -0.2495  0.4582 -0.3430
 4220TIP3    H112666   2.542   1.155   2.417  0.1630  0.3744  2.6961
 4220TIP3    H212667   2.409   1.147   2.347  2.3365  0.4586 -1.7722
 4221TIP3   OH212668   5.086   5.194   0.825 -0.3524  0.4416 -0.4752
 4221TIP3    H112669   5.155   5.144   0.782 -0.6906 -0.2596 -0.2120
 4221TIP3    H212670   5.115   5.285   0.818  0.3257  0.2052 -0.8555
 4222TIP3   OH212671   4.518   0.596   2.228  0.4400  0.5162 -0.1642
 4222TIP3    H112672   4.462   0.614   2.152  0.0704  0.9249  0.2012
 4222TIP3    H212673   4.534   0.682   2.267  1.3114  0.4055 -0.2504
 4223TIP3   OH212674   5.250   1.011   1.704 -0.3055  0.4240 -0.4930
 4223TIP3    H112675   5.231   0.928   1.747 -1.7096  1.3577  0.8101
 4223TIP3    H212676   5.217   0.999   1.614 -1.0165 -0.2411 -0.1543
 4224TIP3   OH212677   0.530   3.340   2.000 -0.0425 -0.5398  0.1396
 4224TIP3    H112678   0.521   3.410   1.935 -0.4272  2.0456  2.7266
 4224TIP3    H212679   0.617   3.355   2.038  0.4820 -2.4577 -0.1922
 4225TIP3   OH212680   5.996   0.863   0.249 -0.1934  0.3370  0.5119
 4225TIP3    H112681   6.077   0.854   0.299 -0.2630 -0.3009  0.5118
 4225TIP3    H212682   6.003   0.797   0.180 -0.5676  0.5052  0.3120
 4226TIP3   OH212683   6.288   4.550   4.768 -0.2191  0.6509 -0.1536
 4226TIP3    H112684   6.216   4.598   4.808  0.5910  1.6440  0.1622
 4226TIP3    H212685   6.366   4.599   4.793  0.5094 -0.0271 -1.0377
 4227TIP3   OH212686   3.935   2.398   1.297  1.1830  0.1009 -0.6779
 4227TIP3    H112687   4.007   2.397   1.235  1.5451  0.6768 -0.2705
 4227TIP3    H212688   3.974   2.371   1.380  0.6549 -0.8944 -0.7408
 4228TIP3   OH212689   3.478   2.414   0.820 -0.1824 -0.1086  0.0182
 4228TIP3    H112690   3.406   2.374   0.771 -0.3940  0.1103  0.1485
 4228TIP3    H212691   3.487   2.360   0.898 -0.0185 -0.3034 -0.1366
 4229TIP3   OH212692   4.559   4.940   4.148 -0.3470 -0.2762 -0.3266
 4229TIP3    H112693   4.591   4.997   4.219 -1.2130 -0.4744  0.2310
 4229TIP3    H212694   4.548   4.999   4.074 -0.6960  0.1895  0.0843
 4230TIP3   OH212695   3.234   5.919   2.661  0.4642  0.2689  0.2191
 4230TIP3    H112696   3.261   5.998   2.707  1.1434  0.5821 -0.6916
 4230TIP3    H212697   3.147   5.940   2.626  0.9984  0.9306 -0.7400
 4231TIP3   OH212698   0.165   5.254   4.474  0.3276 -1.0203 -0.4104
 4231TIP3    H112699   0.114   5.213   4.405  0.5630  0.3892 -1.4657
 4231TIP3    H212700   0.255   5.254   4.441  0.0634  2.1993 -1.4578
 4232TIP3   OH212701   1.690   2.070   4.815 -0.1234 -0.4534  0.1932
 4232TIP3    H112702   1.734   2.140   4.863  0.4782 -0.5474 -0.2016
 4232TIP3    H212703   1.749   1.996   4.821 -1.2231 -1.2780  1.4834
 4233TIP3   OH212704   5.096   3.146   2.186 -0.1757 -0.2779 -0.0696
 4233TIP3    H112705   5.034   3.109   2.249 -1.6914 -1.6547 -2.2089
 4233TIP3    H212706   5.126   3.071   2.135  2.8635  0.4578  0.4678
 4234TIP3   OH212707   2.035   2.007   0.380  0.6807  0.5201  0.2610
 4234TIP3    H112708   1.995   2.090   0.355  1.1781  0.1155 -2.1623
 4234TIP3    H212709   2.011   1.946   0.310 -0.4761 -1.7258  2.4135
 4235TIP3   OH212710   4.923   2.486   2.930  0.4838  0.4284 -0.3761
 4235TIP3    H112711   4.878   2.560   2.889 -0.7613 -0.3575 -0.4876
 4235TIP3    H212712   5.014   2.513   2.935  0.3959  1.2049 -2.1799
 4236TIP3   OH212713   2.198   2.552   0.468  0.0481  0.0406  0.2004
 4236TIP3    H112714   2.118   2.518   0.508 -0.3006 -1.0529 -1.3378
 4236TIP3    H212715   2.170   2.632   0.423  0.3003  0.8799  1.4794
 4237TIP3   OH212716   2.488   2.868   5.183 -0.0557  0.3597  0.2402
 4237TIP3    H112717   2.534   2.834   5.106 -0.7123 -0.4902  0.1955
 4237TIP3    H212718   2.403   2.897   5.148 -0.5211 -0.4190  0.6912
 4238TIP3   OH212719   0.235   3.957   1.712 -0.1658  0.4027  0.9124
 4238TIP3    H112720   0.168   3.919   1.655  0.0496  1.0330  0.2200
 4238TIP3    H212721   0.186   4.011   1.774 -0.3619  0.1894  0.9450
 4239TIP3   OH212722   3.095   2.584   4.499  0.5521  0.3475  0.1151
 4239TIP3    H112723   3.069   2.631   4.579  2.3457 -0.4095  1.2329
 4239TIP3    H212724   3.143   2.507   4.532  0.8913 -0.2553 -1.6999
 4240TIP3   OH212725   4.185   4.824   2.708 -0.1955 -0.1300  0.0873
 4240TIP3    H112726   4.111   4.875   2.740 -0.4579  0.5016 -1.4037
 4240TIP3    H212727   4.145   4.747   2.668  0.0201 -0.2615  0.1239
 4241TIP3   OH212728   5.803   2.070   1.061 -0.6828 -1.4451 -0.2829
 4241TIP3    H112729   5.758   2.153   1.042 -0.0582 -0.7223  1.2226
 4241TIP3    H212730   5.741   2.002   1.033 -2.6580 -0.4871  1.4679
 4242TIP3   OH212731   1.246   5.073   2.286 -0.1947 -0.3840  0.4609
 4242TIP3    H112732   1.335   5.108   2.295 -0.7657  1.3776 -0.1938
 4242TIP3    H212733   1.242   5.043   2.195  0.1265 -1.7497  0.8741
 4243TIP3   OH212734   0.263   0.077   2.456  0.2639 -0.2498 -0.4197
 4243TIP3    H112735   0.211   0.157   2.450  1.6592  0.6011 -1.8598
 4243TIP3    H212736   0.321   0.092   2.532  1.9979  1.0942 -1.9188
 4244TIP3   OH212737   4.748   5.798   4.513 -0.4751  0.0485 -0.0444
 4244TIP3    H112738   4.693   5.843   4.449  0.0423 -0.3252 -0.7646
 4244TIP3    H212739   4.827   5.852   4.519 -0.4538 -0.0045  0.1663
 4245TIP3   OH212740   1.669   4.393   4.467  0.3560 -0.1883  0.4001
 4245TIP3    H112741   1.710   4.371   4.551 -1.3560  3.1532  2.2919
 4245TIP3    H212742   1.700   4.481   4.448  0.0346 -0.5589 -2.1132
 4246TIP3   OH212743   1.930   5.171   2.320  0.3599 -0.3572  0.3193
 4246TIP3    H112744   1.843   5.142   2.291  0.2985 -0.1896  0.3297
 4246TIP3    H212745   1.985   5.094   2.313  0.3640 -0.3070 -0.3210
 4247TIP3   OH212746   1.352   4.446   1.670  0.4629  0.4460  0.3618
 4247TIP3    H112747   1.351   4.436   1.765 -0.2480 -0.0496  0.3077
 4247TIP3    H212748   1.269   4.488   1.649 -0.5053 -1.6562 -0.2555
 4248TIP3   OH212749   5.261   0.108   4.601 -0.2493 -0.2027 -0.1970
 4248TIP3    H112750   5.202   0.172   4.640  0.4110  0.4432 -0.2276
 4248TIP3    H212751   5.311   0.073   4.675  0.3875  0.3757 -0.3444
 4249TIP3   OH212752   1.416   5.144   3.104  0.0589  0.2906  0.3750
 4249TIP3    H112753   1.447   5.056   3.124 -0.9957  0.2473  2.0262
 4249TIP3    H212754   1.350   5.132   3.037 -0.8416 -0.3338  1.3415
 4250TIP3   OH212755   2.311   1.973   4.010  0.2156 -0.0284 -0.2129
 4250TIP3    H112756   2.352   1.927   4.084 -0.4393 -0.8206 -0.3211
 4250TIP3    H212757   2.324   2.065   4.029 -1.1066 -0.1477  1.6370
 4251TIP3   OH212758   3.011   2.578   3.679  0.3824 -0.2392 -0.0430
 4251TIP3    H112759   3.023   2.669   3.649  1.3259 -0.4681 -0.4069
 4251TIP3    H212760   3.001   2.586   3.774  0.6383  0.2361 -0.0513
 4252TIP3   OH212761   6.263   1.333   0.960  0.2642  0.0849  0.0472
 4252TIP3    H112762   6.328   1.388   0.917  0.8071 -1.2030 -0.8444
 4252TIP3    H212763   6.181   1.353   0.914  0.5404 -0.1485 -0.5588
 4253TIP3   OH212764   1.600   1.772   2.982 -0.1312 -0.1701  0.1907
 4253TIP3    H112765   1.567   1.800   2.897  1.1242  0.5294 -0.0981
 4253TIP3    H212766   1.578   1.679   2.987 -2.8593  0.4092  0.4143
 4254TIP3   OH212767   4.260   3.912   1.927  0.0639 -0.3274 -0.0323
 4254TIP3    H112768   4.303   3.860   1.994  2.2021  0.7952 -0.4546
 4254TIP3    H212769   4.248   3.851   1.853 -0.0927 -0.9296  0.4812
 4255TIP3   OH212770   2.392   0.962   4.691  0.2518  0.5621 -0.5090
 4255TIP3    H112771   2.319   0.907   4.664  1.1360 -1.4805  0.9787
 4255TIP3    H212772   2.403   1.025   4.619 -1.6854 -0.3206 -1.6495
 4256TIP3   OH212773   2.474   1.468   1.523 -0.4654  0.2391  0.4939
 4256TIP3    H112774   2.442   1.493   1.610 -0.8913  2.2449 -0.1919
 4256TIP3    H212775   2.556   1.516   1.514  0.7894 -1.7345  0.6294
 4257TIP3   OH212776   4.808   5.182   4.130 -0.0219 -0.6505  0.2426
 4257TIP3    H112777   4.720   5.215   4.148  0.9663  2.1612  0.4469
 4257TIP3    H212778   4.841   5.154   4.215 -0.5289 -1.2901  0.2398
 4258TIP3   OH212779   3.390   0.311   2.646 -0.3026 -0.3680  0.1005
 4258TIP3    H112780   3.457   0.300   2.713  0.1237 -0.7419 -0.3843
 4258TIP3    H212781   3.424   0.266   2.569 -0.2020  1.1383 -0.7825
 4259TIP3   OH212782   3.146   5.903   1.455 -0.1192  0.0911  0.4366
 4259TIP3    H112783   3.078   5.882   1.390 -0.7326 -0.6765  1.3055
 4259TIP3    H212784   3.158   5.823   1.505  0.4350  0.6317  1.2024
 4260TIP3   OH212785   6.274   0.693   2.112 -0.1613  0.6322 -0.1351
 4260TIP3    H112786   6.211   0.723   2.177 -1.8671  0.2641 -1.5574
 4260TIP3    H212787   6.340   0.762   2.110 -0.8942  1.3953  0.8614
 4261TIP3   OH212788   4.420   4.903   0.226  0.5330 -0.1034 -0.6803
 4261TIP3    H112789   4.430   4.998   0.225 -0.2399  0.0270  0.7383
 4261TIP3    H212790   4.392   4.881   0.138 -0.0074  1.0766 -0.8256
 4262TIP3   OH212791   6.135   5.724   1.723 -0.0636  0.0556  0.5622
 4262TIP3    H112792   6.182   5.663   1.666  0.5964  1.8832 -0.9268
 4262TIP3    H212793   6.191   5.734   1.800  2.0379  2.0792 -1.1125
 4263TIP3   OH212794   0.534   2.803   2.002  0.0348  0.2538  0.4739
 4263TIP3    H112795   0.498   2.834   2.085 -0.4270  0.2443  0.2828
 4263TIP3    H212796   0.498   2.715   1.991  0.8423 -0.1187  0.7121
 4264TIP3   OH212797   2.365   2.394   1.015  0.1768 -0.0092 -0.4580
 4264TIP3    H112798   2.293   2.453   1.037  0.2524 -0.5915  1.5414
 4264TIP3    H212799   2.325   2.307   1.015  0.8548 -0.3562  0.8271
 4265TIP3   OH212800   2.144   0.318   0.086 -0.3715 -0.2448 -0.4172
 4265TIP3    H112801   2.057   0.331   0.047 -0.4613 -1.2583 -0.5890
 4265TIP3    H212802   2.184   0.405   0.086 -1.5401  0.3138  0.0379
 4266TIP3   OH212803   4.931   2.579   1.595  0.2218 -0.0103  0.5355
 4266TIP3    H112804   5.026   2.575   1.594  0.3119  1.3109 -0.6794
 4266TIP3    H212805   4.910   2.642   1.664  0.0869 -1.7866  2.1902
 4267TIP3   OH212806   5.875   2.805   3.854  0.1310  0.5358 -0.4246
 4267TIP3    H112807   5.843   2.763   3.774  0.6661 -1.0213  0.1419
 4267TIP3    H212808   5.913   2.887   3.824 -4.6120  2.7954 -1.1307
 4268TIP3   OH212809   4.389   2.710   1.827  0.0213  0.4854  0.5331
 4268TIP3    H112810   4.423   2.659   1.753  0.8339  1.2089  0.3948
 4268TIP3    H212811   4.313   2.755   1.791 -0.7084 -0.6045  0.6565
 4269TIP3   OH212812   2.761   3.355   1.629 -0.0918  0.5228 -0.0255
 4269TIP3    H112813   2.674   3.351   1.669  0.0067 -1.3400  0.0993
 4269TIP3    H212814   2.768   3.444   1.596 -1.3427  1.2606  1.5203
 4270TIP3   OH212815   3.574   4.779   3.934 -0.8252  0.3542  0.1331
 4270TIP3    H112816   3.553   4.685   3.930 -1.2920  0.4007  1.1062
 4270TIP3    H212817   3.493   4.820   3.966 -1.0009  1.2424 -1.3399
 4271TIP3   OH212818   3.524   3.693   0.955  0.0587  0.0635  0.0326
 4271TIP3    H112819   3.580   3.670   1.029  1.4605  2.5752 -0.1225
 4271TIP3    H212820   3.584   3.698   0.881 -0.4324  2.0969 -0.2891
 4272TIP3   OH212821   4.965   0.620   3.714  0.2544  0.0436  0.4258
 4272TIP3    H112822   4.958   0.598   3.621 -0.7898 -3.1809  1.1435
 4272TIP3    H212823   4.885   0.668   3.734  0.1981  0.2151 -0.2046
 4273TIP3   OH212824   6.061   0.270   3.877  0.1874  0.4014 -0.0577
 4273TIP3    H112825   6.069   0.312   3.791  2.2425 -0.6647 -0.4428
 4273TIP3    H212826   6.045   0.178   3.856  0.9494  0.0961  0.6996
 4274TIP3   OH212827   4.039   0.002   1.089  0.0507  0.3252 -0.3412
 4274TIP3    H112828   4.046   0.091   1.055 -0.1577  0.4530 -0.0569
 4274TIP3    H212829   4.012   0.013   1.180  1.2884  0.0135  0.0853
 4275TIP3   OH212830   0.484   3.630   1.564 -0.4494  0.0110 -0.1433
 4275TIP3    H112831   0.452   3.542   1.548 -1.4818  0.1214  1.0877
 4275TIP3    H212832   0.560   3.618   1.621 -2.2573 -0.0470  2.4335
 4276TIP3   OH212833   5.028   1.480   0.579 -0.2472 -0.6667 -0.1896
 4276TIP3    H112834   5.026   1.400   0.632 -2.9707  0.0537  1.0261
 4276TIP3    H212835   5.004   1.451   0.491 -0.3826 -1.2967  0.0455
 4277TIP3   OH212836   6.138   1.210   3.399  0.2366 -0.1441 -0.2567
 4277TIP3    H112837   6.095   1.295   3.405 -0.7669 -0.7209  1.8075
 4277TIP3    H212838   6.066   1.147   3.404  1.0419 -1.1429 -0.7596
 4278TIP3   OH212839   3.728   5.696   2.941  0.2835 -0.5967  0.2089
 4278TIP3    H112840   3.822   5.686   2.956  0.2266 -0.6729  0.5336
 4278TIP3    H212841   3.721   5.763   2.874  0.5440  0.0228  0.7872
 4279TIP3   OH212842   5.831   4.483   0.876 -0.0039  0.2948  0.1519
 4279TIP3    H112843   5.863   4.396   0.900  0.2264  0.4561  0.4427
 4279TIP3    H212844   5.905   4.525   0.832 -0.8255 -0.4613 -2.0920
 4280TIP3   OH212845   3.229   4.959   0.861  0.4140  0.6458  0.1997
 4280TIP3    H112846   3.304   4.948   0.802  0.5738 -0.0972  0.5203
 4280TIP3    H212847   3.165   4.896   0.829  0.0764  1.0043  0.1666
 4281TIP3   OH212848   5.848   1.617   2.498 -0.3845  0.5152  0.0142
 4281TIP3    H112849   5.937   1.637   2.470  0.3647 -1.5514  0.7216
 4281TIP3    H212850   5.812   1.701   2.525  1.1739  1.4691 -0.7265
 4282TIP3   OH212851   3.052   0.391   1.829  0.1355 -0.1599  0.0094
 4282TIP3    H112852   2.963   0.405   1.860  0.6265  2.6349  0.4498
 4282TIP3    H212853   3.041   0.360   1.739 -1.2557 -0.2862  0.1994
 4283TIP3   OH212854   2.393   2.826   0.735 -0.1405  0.1111  0.1864
 4283TIP3    H112855   2.480   2.840   0.771  1.0631 -1.3882 -1.9257
 4283TIP3    H212856   2.368   2.739   0.765 -0.2015 -0.1147 -0.4960
 4284TIP3   OH212857   2.322   0.454   1.566  0.2766  0.0391 -0.1483
 4284TIP3    H112858   2.395   0.514   1.549  1.2858 -0.6818  1.3702
 4284TIP3    H212859   2.287   0.482   1.651  1.5935 -2.1981  1.2390
 4285TIP3   OH212860   1.047   3.717   3.879  0.0846  0.8864  0.4996
 4285TIP3    H112861   1.108   3.725   3.806  1.0671  0.8269  1.2919
 4285TIP3    H212862   1.027   3.624   3.883 -0.7195  1.0075 -0.2626
 4286TIP3   OH212863   1.671   0.709   0.726  0.6417 -0.3424  0.1551
 4286TIP3    H112864   1.683   0.710   0.632  0.2040 -0.9169  0.0876
 4286TIP3    H212865   1.576   0.708   0.738  0.6626  1.2748  0.6265
 4287TIP3   OH212866   4.226   4.049   2.604 -0.0368  0.0707  0.1542
 4287TIP3    H112867   4.261   3.961   2.588  0.5119  0.1155  1.0609
 4287TIP3    H212868   4.208   4.051   2.698 -2.0155  0.2306 -0.1844
 4288TIP3   OH212869   3.734   5.658   2.490  0.0188  0.1612  0.0258
 4288TIP3    H112870   3.644   5.627   2.485 -0.4154  1.1588  1.1028
 4288TIP3    H212871   3.782   5.604   2.427 -0.9810 -1.6007  0.6798
 4289TIP3   OH212872   0.276   3.670   2.718  0.0557  0.2275  0.2684
 4289TIP3    H112873   0.304   3.641   2.805 -0.9944  0.6992  0.7869
 4289TIP3    H212874   0.231   3.593   2.681  0.0662  0.1840  0.3448
 4290TIP3   OH212875   5.626   2.998   1.988  0.1340  0.4727 -0.4996
 4290TIP3    H112876   5.684   2.958   1.923  0.3171  1.6025 -1.0682
 4290TIP3    H212877   5.541   3.003   1.943  0.5036  2.2166 -1.0986
 4291TIP3   OH212878   0.112   1.667   1.268 -0.0436 -1.0414  0.2057
 4291TIP3    H112879   0.086   1.709   1.186 -0.1946 -1.4814  0.0278
 4291TIP3    H212880   0.151   1.738   1.319 -1.0321 -0.4910  0.2334
 4292TIP3   OH212881   0.325   3.687   3.856  0.3002 -0.3270 -0.3135
 4292TIP3    H112882   0.289   3.715   3.941 -0.4936 -1.1607 -0.3577
 4292TIP3    H212883   0.367   3.603   3.875 -1.0725 -1.2030 -0.9820
 4293TIP3   OH212884   4.383   2.518   2.022  0.4283 -0.5746 -0.2641
 4293TIP3    H112885   4.384   2.596   1.965  1.3138 -0.4347 -0.0832
 4293TIP3    H212886   4.297   2.518   2.062  0.0464 -0.2670 -1.0643
 4294TIP3   OH212887   1.781   5.442   4.338  0.0647 -0.3530 -0.1498
 4294TIP3    H112888   1.698   5.420   4.295 -1.2745  1.7320  1.1684
 4294TIP3    H212889   1.846   5.438   4.268 -1.6302  0.6778 -1.8767
 4295TIP3   OH212890   0.916   1.005   2.418  0.0227  0.3600 -0.4870
 4295TIP3    H112891   0.868   1.057   2.354  1.0661 -1.3897 -2.8552
 4295TIP3    H212892   0.994   1.057   2.439 -0.8260  1.3924  0.2103
 4296TIP3   OH212893   3.844   2.022   4.383 -0.0187 -0.2278  0.5082
 4296TIP3    H112894   3.813   1.993   4.297 -2.9371 -0.4641  1.5228
 4296TIP3    H212895   3.858   1.941   4.432  0.2693 -0.0647  0.7009
 4297TIP3   OH212896   3.557   2.653   4.207  0.4411 -0.3184  0.1188
 4297TIP3    H112897   3.515   2.648   4.121 -0.2588 -0.8534  0.4915
 4297TIP3    H212898   3.651   2.654   4.187  0.2953  1.6519 -0.7605
 4298TIP3   OH212899   1.692   3.709   4.203 -0.0305 -0.9332 -0.7819
 4298TIP3    H112900   1.730   3.727   4.117 -0.1371 -0.6869 -0.7775
 4298TIP3    H212901   1.730   3.776   4.260  0.8700 -1.7415 -0.4065
 4299TIP3   OH212902   4.795   0.561   1.180  0.7934  0.0682  0.1235
 4299TIP3    H112903   4.794   0.655   1.166  1.5848  0.0581 -0.0594
 4299TIP3    H212904   4.712   0.542   1.223  1.3112  1.0931  1.6729
 4300TIP3   OH212905   2.251   1.650   3.622 -0.1093  0.2065  0.1077
 4300TIP3    H112906   2.285   1.563   3.645  0.5895  0.8257  1.5152
 4300TIP3    H212907   2.280   1.664   3.532 -0.8121 -1.2792 -0.3983
 4301TIP3   OH212908   6.081   0.057   4.079  0.0165  0.0490  0.0546
 4301TIP3    H112909   6.094   0.152   4.082  0.3536 -0.0135  0.8301
 4301TIP3    H212910   6.139   0.027   4.009  0.9603  0.2589  0.7289
 4302TIP3   OH212911   0.740   5.610   4.519 -0.1840 -0.1706  0.1221
 4302TIP3    H112912   0.811   5.594   4.457 -1.6130  0.9882 -1.9022
 4302TIP3    H212913   0.782   5.606   4.605  2.1921 -0.1660 -0.9749
 4303TIP3   OH212914   0.752   5.329   4.404  0.5684 -0.2591 -0.3144
 4303TIP3    H112915   0.708   5.283   4.332  0.5536 -1.0027  0.1521
 4303TIP3    H212916   0.681   5.365   4.456  0.5822  0.3760 -0.7264
 4304TIP3   OH212917   0.876   5.917   2.171  0.4497 -0.6815 -0.4932
 4304TIP3    H112918   0.793   5.954   2.202  0.5975 -0.8128  0.0726
 4304TIP3    H212919   0.899   5.851   2.237  1.8350  0.4835  0.2339
 4305TIP3   OH212920   2.815   1.496   4.008 -0.3098 -0.2005  0.1242
 4305TIP3    H112921   2.785   1.502   4.099 -0.7697  0.1933 -0.0506
 4305TIP3    H212922   2.837   1.403   3.996  1.6422  0.0674  1.2110
 4306TIP3   OH212923   0.545   3.901   4.882  1.0432  0.5580  0.3464
 4306TIP3    H112924   0.483   3.928   4.814  3.3090  0.7691 -1.7795
 4306TIP3    H212925   0.584   3.821   4.848  0.3815 -0.8423  2.6972
 4307TIP3   OH212926   3.806   2.079   1.049 -0.6412 -0.0431  0.0541
 4307TIP3    H112927   3.778   2.168   1.072  2.1347  1.0830 -0.5545
 4307TIP3    H212928   3.767   2.064   0.962  0.0609  1.2047 -0.5007
 4308TIP3   OH212929   6.143   2.698   1.232  0.6030  0.3562  0.5221
 4308TIP3    H112930   6.140   2.765   1.164 -2.1583  0.9374  1.1225
 4308TIP3    H212931   6.131   2.746   1.314  2.5692 -0.4895  1.3897
 4309TIP3   OH212932   2.631   5.191   2.733 -0.1140 -0.1546 -0.0514
 4309TIP3    H112933   2.623   5.268   2.788  0.5580 -1.8821  2.6569
 4309TIP3    H212934   2.541   5.172   2.705 -0.9528 -0.6745  2.6884
 4310TIP3   OH212935   1.706   0.871   5.135  0.0979  0.2342  0.1786
 4310TIP3    H112936   1.656   0.792   5.112 -0.5382  0.9662 -1.0140
 4310TIP3    H212937   1.678   0.890   5.225 -0.6286 -0.2348  0.0660
 4311TIP3   OH212938   1.280   1.670   0.711  0.6868 -0.1522  0.1761
 4311TIP3    H112939   1.342   1.734   0.677  0.3617 -0.2217 -0.5614
 4311TIP3    H212940   1.335   1.600   0.747  1.0366  0.2511  0.4345
 4312TIP3   OH212941   3.760   2.868   2.479  0.3347  0.1910 -0.3636
 4312TIP3    H112942   3.816   2.805   2.434  0.1715  0.2700 -0.6765
 4312TIP3    H212943   3.755   2.835   2.569  0.1076 -0.3475 -0.5680
 4313TIP3   OH212944   5.332   1.272   2.702  0.1710  0.0941  0.0111
 4313TIP3    H112945   5.266   1.203   2.700 -0.4567  0.6496 -2.6991
 4313TIP3    H212946   5.402   1.241   2.644  0.0072  1.5646 -1.0316
 4314TIP3   OH212947   6.293   1.437   1.224 -0.0404 -0.2754 -0.1928
 4314TIP3    H112948   6.370   1.491   1.238 -0.6153  0.5119  0.0391
 4314TIP3    H212949   6.301   1.407   1.134 -0.6661  1.8315 -1.0190
 4315TIP3   OH212950   3.078   2.213   1.959  0.0440  0.2525 -0.7080
 4315TIP3    H112951   3.132   2.197   1.881  0.2397  1.4599 -0.8394
 4315TIP3    H212952   3.125   2.280   2.008 -1.3378  1.3825 -0.8494
 4316TIP3   OH212953   3.953   0.491   0.710  0.1940 -0.1468 -0.4080
 4316TIP3    H112954   3.963   0.585   0.696 -0.5595 -0.0339 -0.2258
 4316TIP3    H212955   4.041   0.461   0.734  0.4047  0.5393 -0.3036
 4317TIP3   OH212956   2.503   1.271   3.319 -0.6200  0.0592  0.3566
 4317TIP3    H112957   2.409   1.288   3.306 -0.2775  1.6770 -0.2371
 4317TIP3    H212958   2.511   1.251   3.412 -1.3271  1.7264  0.8076
 4318TIP3   OH212959   0.101   1.544   0.981 -0.1133  0.7306  0.6030
 4318TIP3    H112960   0.196   1.536   0.974  0.0921  2.2602  1.1703
 4318TIP3    H212961   0.077   1.603   0.909 -0.9003 -1.0377 -0.6532
 4319TIP3   OH212962   2.149   5.700   3.158 -0.2682 -0.2438  0.0343
 4319TIP3    H112963   2.140   5.769   3.093 -1.7607  2.3010  2.7118
 4319TIP3    H212964   2.060   5.669   3.172 -0.1181 -0.0910  1.4690
 4320TIP3   OH212965   6.116   4.377   2.696  0.0066  0.2528  0.0442
 4320TIP3    H112966   6.113   4.290   2.657  1.7419 -0.4387  1.3563
 4320TIP3    H212967   6.082   4.365   2.784  0.7952  0.7913  0.4293
 4321TIP3   OH212968   3.444   0.016   0.866 -0.0093 -0.2154 -0.4194
 4321TIP3    H112969   3.382   0.033   0.795  0.3234  0.3130 -0.5947
 4321TIP3    H212970   3.527  -0.002   0.821  0.7283  2.1690 -0.1889
 4322TIP3   OH212971   2.604   2.921   0.470 -0.0881 -0.0213 -0.4570
 4322TIP3    H112972   2.681   2.967   0.436 -1.4757  0.6345 -3.0071
 4322TIP3    H212973   2.580   2.970   0.549  2.6484 -0.9056  1.0620
 4323TIP3   OH212974   0.475   3.068   0.706 -0.2579  0.6676  0.6605
 4323TIP3    H112975   0.413   3.117   0.653 -1.6144 -2.5730 -1.0571
 4323TIP3    H212976   0.559   3.081   0.662 -1.0080 -0.3228 -1.1796
 4324TIP3   OH212977   0.573   2.555   5.030 -0.0487  0.8879  0.4222
 4324TIP3    H112978   0.556   2.589   5.117 -2.0874  1.3850 -0.1278
 4324TIP3    H212979   0.488   2.557   4.985  0.7415 -0.2645 -1.2621
 4325TIP3   OH212980   1.525   0.082   0.540 -0.3560 -0.1763 -0.4572
 4325TIP3    H112981   1.596   0.040   0.588 -0.4835  0.1232 -0.0102
 4325TIP3    H212982   1.464   0.011   0.520 -0.9776 -0.0890  1.0111
 4326TIP3   OH212983   3.338   1.610   5.110  0.5763  0.0806 -0.1547
 4326TIP3    H112984   3.409   1.555   5.076 -0.3009 -1.5568  0.5767
 4326TIP3    H212985   3.342   1.689   5.056  1.6267 -0.8457 -1.5165
 4327TIP3   OH212986   2.588   1.957   4.385  0.3201  0.0646 -0.1414
 4327TIP3    H112987   2.669   1.952   4.435  1.0568  1.2690 -1.1473
 4327TIP3    H212988   2.528   2.007   4.440  0.7760  0.4897 -0.0309
 4328TIP3   OH212989   0.696   1.281   0.347 -0.0150  0.6195 -0.3845
 4328TIP3    H112990   0.706   1.372   0.319  0.9206  0.6746  0.0848
 4328TIP3    H212991   0.760   1.233   0.296 -3.1319 -0.5089 -3.6181
 4329TIP3   OH212992   0.717   1.149   4.391  0.4196 -0.0830 -0.5122
 4329TIP3    H112993   0.789   1.206   4.420 -0.3205 -0.1711  1.7418
 4329TIP3    H212994   0.647   1.209   4.366  0.9517 -0.0100 -1.9288
 4330TIP3   OH212995   0.084   0.195   1.655  0.1492  0.1653 -0.0933
 4330TIP3    H112996   0.079   0.128   1.587 -0.8304 -1.2899  1.3313
 4330TIP3    H212997   0.009   0.252   1.638  0.9390  0.8882 -1.2652
 4331TIP3   OH212998   1.849   0.811   1.818  0.0289 -0.1045  1.1293
 4331TIP3    H112999   1.795   0.846   1.747  0.2594  0.5065  1.2500
 4331TIP3    H213000   1.929   0.781   1.776  0.0348 -0.0345  1.0914
 4332TIP3   OH213001   2.182   2.177   1.104  0.3719 -0.2692  0.9242
 4332TIP3    H113002   2.091   2.200   1.083  0.9778  1.0778 -0.4144
 4332TIP3    H213003   2.192   2.087   1.075 -0.2833 -0.1282  0.2362
 4333TIP3   OH213004   0.245   3.990   3.433 -0.0015 -0.2246  0.4095
 4333TIP3    H113005   0.272   4.074   3.470 -0.1378 -0.7641  1.8241
 4333TIP3    H213006   0.274   3.926   3.498  1.8182 -1.4725 -1.5426
 4334TIP3   OH213007   0.254   2.908   3.030 -0.2150 -0.8507 -0.8536
 4334TIP3    H113008   0.301   2.825   3.017  0.6042 -0.4111 -0.7454
 4334TIP3    H213009   0.309   2.974   2.988 -0.7862 -0.3352 -0.8056
 4335TIP3   OH213010   1.057   2.177   4.115  0.2248 -0.6140  0.0130
 4335TIP3    H113011   0.979   2.126   4.093  0.2599 -0.2244 -1.0868
 4335TIP3    H213012   1.047   2.258   4.064  0.6007  0.0979  1.0482
 4336TIP3   OH213013   6.278   3.700   5.102  0.1291  0.8297 -0.3009
 4336TIP3    H113014   6.273   3.764   5.173 -1.1930 -2.2717  2.7066
 4336TIP3    H213015   6.371   3.697   5.078  1.1541  0.2740  3.2007
 4337TIP3   OH213016   3.419   0.919   3.434 -0.0191 -0.2236 -0.2927
 4337TIP3    H113017   3.411   0.879   3.520 -1.0997  0.5119 -0.0338
 4337TIP3    H213018   3.407   1.012   3.449  0.6669  0.0229 -1.1333
 4338TIP3   OH213019   4.331   2.815   0.435  0.4567 -0.0289 -0.1644
 4338TIP3    H113020   4.361   2.880   0.499  0.1465  0.2808 -0.3314
 4338TIP3    H213021   4.247   2.784   0.470  1.1052 -1.1372  0.4747
 4339TIP3   OH213022   2.533   3.374   0.471 -0.3098 -0.0930  0.1652
 4339TIP3    H113023   2.547   3.467   0.453 -0.3168  0.0184  0.7267
 4339TIP3    H213024   2.472   3.372   0.544 -0.7736 -0.5508 -0.2267
 4340TIP3   OH213025   2.732   1.101   2.965 -0.0196 -0.4036 -0.2766
 4340TIP3    H113026   2.799   1.163   2.994 -2.1117  1.4570  0.9111
 4340TIP3    H213027   2.689   1.145   2.891 -0.8437 -0.9233 -0.1185
 4341TIP3   OH213028   0.936   2.952   1.935 -0.0685 -0.5710 -0.2467
 4341TIP3    H113029   0.969   2.878   1.885  0.4335 -0.4528 -0.1045
 4341TIP3    H213030   0.842   2.950   1.923 -0.0175 -0.9794 -0.5911
 4342TIP3   OH213031   1.743   2.046   0.270  0.5684 -0.3653 -0.0778
 4342TIP3    H113032   1.702   2.016   0.350 -0.8469  0.8522 -0.3023
 4342TIP3    H213033   1.748   2.141   0.279  0.9025 -0.2537 -1.1956
 4343TIP3   OH213034   1.451   3.467   2.020 -0.2411 -0.0315 -0.5681
 4343TIP3    H113035   1.444   3.420   2.103 -1.0280 -0.0506 -0.6328
 4343TIP3    H213036   1.361   3.494   2.000  0.3134  2.6207  0.0879
 4344TIP3   OH213037   2.581   3.181   0.042  0.4027 -0.1192 -0.4234
 4344TIP3    H113038   2.529   3.259   0.023 -1.1857 -1.1163 -0.2877
 4344TIP3    H213039   2.601   3.188   0.135 -1.4618 -0.8427  0.0686
 4345TIP3   OH213040   1.679   0.754   0.461 -0.3452 -0.7494 -0.0797
 4345TIP3    H113041   1.730   0.818   0.411  0.8506 -1.3793  0.2836
 4345TIP3    H213042   1.678   0.676   0.406 -1.2890 -0.6149 -0.2618
 4346TIP3   OH213043   5.737   5.649   3.873  0.2415  0.2254  0.2943
 4346TIP3    H113044   5.652   5.671   3.911  0.4725 -0.6069  1.3519
 4346TIP3    H213045   5.797   5.715   3.908 -0.0844  1.2511 -1.0319
 4347TIP3   OH213046   2.120   0.657   3.717  0.1022 -0.3332 -0.3967
 4347TIP3    H113047   2.084   0.656   3.628  0.3700 -0.3228 -0.5046
 4347TIP3    H213048   2.060   0.712   3.766 -0.3891 -0.8246 -0.4308
 4348TIP3   OH213049   3.219   2.385   0.362  0.0113  0.0122 -0.3822
 4348TIP3    H113050   3.197   2.393   0.269 -1.0389  3.3098  0.0420
 4348TIP3    H213051   3.135   2.372   0.406  0.4750 -1.2365  0.1776
 4349TIP3   OH213052   4.782   4.811   4.680 -0.0876  0.0684  0.4252
 4349TIP3    H113053   4.752   4.807   4.770  2.1242  0.2698  1.2131
 4349TIP3    H213054   4.792   4.719   4.654 -1.6041 -0.0225  0.0058
 4350TIP3   OH213055   0.879   3.922   2.065 -0.4021 -0.1802 -0.1518
 4350TIP3    H113056   0.784   3.931   2.063 -0.6473 -1.6826  1.8909
 4350TIP3    H213057   0.901   3.881   1.982 -1.3473  1.2773 -1.1816
 4351TIP3   OH213058   2.945   2.427   2.298  0.3389 -0.0708 -0.6580
 4351TIP3    H113059   2.934   2.337   2.329  0.7538  0.1056  0.0202
 4351TIP3    H213060   2.858   2.467   2.307  0.6230  0.2535  1.2224
 4352TIP3   OH213061   2.436   5.780   3.148  0.2148 -0.8182 -0.0422
 4352TIP3    H113062   2.352   5.737   3.159 -2.0830  2.7296 -1.8717
 4352TIP3    H213063   2.478   5.773   3.234 -2.1882 -2.1908  1.1215
 4353TIP3   OH213064   6.011   4.017   2.165  0.1576 -0.4363  0.2001
 4353TIP3    H113065   6.095   3.985   2.131 -0.5728  1.0683 -3.3972
 4353TIP3    H213066   5.948   3.950   2.139 -0.0820 -0.6227  1.2013
 4354TIP3   OH213067   2.262   4.473   4.906 -0.2381 -0.2848 -0.3101
 4354TIP3    H113068   2.262   4.552   4.961  0.2721 -0.3722 -0.1779
 4354TIP3    H213069   2.246   4.402   4.968  1.8269 -0.5442 -0.0106
 4355TIP3   OH213070   3.546   1.029   5.152 -0.7284 -0.3131  0.0762
 4355TIP3    H113071   3.561   0.935   5.141 -0.6135 -0.3463  0.5018
 4355TIP3    H213072   3.633   1.065   5.171 -1.0708 -0.4247  2.0354
 4356TIP3   OH213073   0.702   5.024   0.495 -0.2084  0.1369 -0.0683
 4356TIP3    H113074   0.640   4.958   0.524  1.0602 -0.2159  2.0546
 4356TIP3    H213075   0.772   4.973   0.453  0.5091  0.1306  1.0886
 4357TIP3   OH213076   1.293   4.939   4.238  0.0676  0.2274 -0.0190
 4357TIP3    H113077   1.316   4.949   4.331 -0.1925 -0.8410  0.1824
 4357TIP3    H213078   1.292   4.844   4.224  0.6850  0.3869 -1.2785
 4358TIP3   OH213079   0.329   4.260   3.502 -0.3683  0.1524  0.1812
 4358TIP3    H113080   0.387   4.297   3.434 -2.4396 -1.2011 -2.5139
 4358TIP3    H213081   0.244   4.302   3.486 -1.3767 -1.6181  0.6961
 4359TIP3   OH213082   1.516   3.519   2.478 -0.7898 -0.4194  0.1448
 4359TIP3    H113083   1.595   3.560   2.515 -2.2666  1.3779  1.4557
 4359TIP3    H213084   1.476   3.587   2.425 -0.3185 -2.0467 -2.4902
 4360TIP3   OH213085   1.973   1.015   0.473 -0.0399  0.3120 -0.0820
 4360TIP3    H113086   1.997   0.927   0.444  1.8949  1.2731 -1.7129
 4360TIP3    H213087   1.990   1.015   0.567 -2.3107 -1.6660  0.4223
 4361TIP3   OH213088   5.014   2.938   3.548 -0.0945 -0.7521  0.1986
 4361TIP3    H113089   5.096   2.970   3.511 -0.4273 -1.9829 -1.7718
 4361TIP3    H213090   5.023   2.842   3.547 -2.4489 -1.0742 -2.5089
 4362TIP3   OH213091   2.899   0.062   1.126  0.4384  0.2722  0.7378
 4362TIP3    H113092   2.825   0.095   1.177 -0.0284  1.1391 -0.4547
 4362TIP3    H213093   2.964   0.133   1.128  0.2834  0.4496 -0.1148
 4363TIP3   OH213094   3.662   2.406   1.796  0.4011 -0.1022 -0.2109
 4363TIP3    H113095   3.597   2.401   1.866  0.5106 -3.9739 -0.1738
 4363TIP3    H213096   3.728   2.467   1.829 -2.3939  2.9584  0.2971
 4364TIP3   OH213097   1.856   1.860   5.115  0.3722 -0.1583  0.1868
 4364TIP3    H113098   1.761   1.857   5.122  0.2772  0.7900 -0.4869
 4364TIP3    H213099   1.876   1.953   5.101  1.3584 -0.4033 -0.1135
 4365TIP3   OH213100   4.448   5.498   4.742  0.0659  0.0405  0.3436
 4365TIP3    H113101   4.425   5.420   4.691 -0.9840 -0.3316  1.3295
 4365TIP3    H213102   4.434   5.471   4.833  1.0028  0.9738  0.7706
 4366TIP3   OH213103   2.785   0.526   1.443  0.0837  0.3639 -0.1458
 4366TIP3    H113104   2.878   0.526   1.465  0.1745 -0.8327 -0.4644
 4366TIP3    H213105   2.741   0.491   1.520 -0.1376  1.1331  0.0886
 4367TIP3   OH213106   4.702   3.013   0.964 -0.0557 -0.4891 -0.2892
 4367TIP3    H113107   4.699   3.028   1.058  0.8376 -4.2853  0.4957
 4367TIP3    H213108   4.784   2.967   0.949  0.8150  1.7217 -3.3159
 4368TIP3   OH213109   3.075   5.003   3.964 -0.7897  0.0882  0.4856
 4368TIP3    H113110   3.068   5.087   3.919  2.0902  0.4031  0.4452
 4368TIP3    H213111   3.114   4.945   3.899 -0.3844 -0.5787  1.3096
 4369TIP3   OH213112   1.873   0.626   4.437  0.3553  0.3794 -0.1483
 4369TIP3    H113113   1.817   0.633   4.359  1.0330  0.4269 -0.6462
 4369TIP3    H213114   1.951   0.581   4.405  1.1769  1.5019  0.2069
 4370TIP3   OH213115   3.329   0.161   4.137  0.0504  0.1213  0.6240
 4370TIP3    H113116   3.274   0.105   4.191  0.2600 -0.8342 -0.1233
 4370TIP3    H213117   3.393   0.101   4.097 -0.3794  0.7081 -1.0277
 4371TIP3   OH213118   1.502   5.044   2.712  0.7688  0.2644 -0.3593
 4371TIP3    H113119   1.430   5.084   2.663  2.5960  2.6114 -1.2645
 4371TIP3    H213120   1.551   5.117   2.749  2.1740 -1.2947  1.0889
 4372TIP3   OH213121   2.251   4.245   1.207  0.1890  0.3881 -0.8279
 4372TIP3    H113122   2.264   4.335   1.238 -0.3299  0.1546  0.1115
 4372TIP3    H213123   2.220   4.255   1.117 -1.2294  1.2149 -0.2788
 4373TIP3   OH213124   4.184   4.881   1.936  0.1443  0.1515 -0.1199
 4373TIP3    H113125   4.237   4.917   1.865 -0.7477  1.6928 -0.0383
 4373TIP3    H213126   4.093   4.897   1.909 -0.2015  1.0972  1.5060
 4374TIP3   OH213127   2.549   0.842   0.435 -0.3214 -0.4271 -0.2718
 4374TIP3    H113128   2.602   0.909   0.477 -0.1588 -0.8474  0.2044
 4374TIP3    H213129   2.603   0.763   0.437 -1.2811 -1.0940  1.0164
 4375TIP3   OH213130   3.460   5.862   2.128  0.1888  0.2496  0.1100
 4375TIP3    H113131   3.367   5.885   2.130 -0.1080 -0.7650 -0.8667
 4375TIP3    H213132   3.504   5.937   2.168 -0.9639  1.1485 -0.2388
 4376TIP3   OH213133   3.308   0.795   2.037 -0.5142  0.0426  0.0288
 4376TIP3    H113134   3.364   0.860   2.079 -2.5190  2.1194 -0.3314
 4376TIP3    H213135   3.325   0.805   1.943 -2.3226  1.6356 -0.1933
 4377TIP3   OH213136   1.300   3.936   4.094  0.4696 -0.1743 -0.0702
 4377TIP3    H113137   1.331   3.859   4.047 -0.8363 -0.0224 -1.2280
 4377TIP3    H213138   1.206   3.922   4.105  0.4683  0.5775  1.0371
 4378TIP3   OH213139   5.377   1.922   4.670 -0.5339  0.2311 -0.2351
 4378TIP3    H113140   5.452   1.937   4.612  0.3323 -0.1081  0.7605
 4378TIP3    H213141   5.390   1.833   4.703 -0.1325  0.9551  1.6778
 4379TIP3   OH213142   1.065   4.499   5.160  0.0807  0.4183 -0.3447
 4379TIP3    H113143   1.044   4.411   5.191 -0.8896  0.4747 -0.7891
 4379TIP3    H213144   1.139   4.487   5.102 -0.5398 -0.2292 -1.0227
 4380TIP3   OH213145   0.724   0.096   4.756  0.2928 -0.0335  0.5091
 4380TIP3    H113146   0.707   0.182   4.718  0.1804 -0.8726 -1.5002
 4380TIP3    H213147   0.664   0.090   4.830 -1.4872  0.6972 -0.7942
 4381TIP3   OH213148   3.067   1.389   0.267  0.2503  1.1907  0.0293
 4381TIP3    H113149   3.080   1.370   0.174  0.0102  0.2572  0.1808
 4381TIP3    H213150   3.079   1.305   0.311 -1.7552  1.1597  0.6336
 4382TIP3   OH213151   1.748   1.020   4.415  0.1393  0.0373 -0.3416
 4382TIP3    H113152   1.783   1.102   4.449 -3.1098  1.1158  0.7871
 4382TIP3    H213153   1.752   0.960   4.490 -0.9372  0.3539 -0.0231
 4383TIP3   OH213154   3.324   3.136   3.164 -0.1531 -0.2353 -0.1771
 4383TIP3    H113155   3.318   3.171   3.075 -0.7654  0.1990  0.0296
 4383TIP3    H213156   3.344   3.211   3.219 -0.7224 -0.3304  0.1700
 4384TIP3   OH213157   1.929   2.903   0.974  0.2476  0.2976 -0.0390
 4384TIP3    H113158   1.912   2.872   0.885 -0.2617 -1.6017  0.6755
 4384TIP3    H213159   2.025   2.905   0.981  0.3636 -2.1609  0.1481
 4385TIP3   OH213160   2.468   0.731   1.131  0.3355  0.1386  0.0357
 4385TIP3    H113161   2.532   0.670   1.166 -0.1383 -0.2624  0.2238
 4385TIP3    H213162   2.425   0.767   1.208  0.1880  0.2391 -0.0925
 4386TIP3   OH213163   1.911   3.202   2.916  0.5358 -0.8417  0.0220
 4386TIP3    H113164   1.955   3.184   3.000 -1.0025  2.4858  1.7553
 4386TIP3    H213165   1.819   3.182   2.932 -0.0935  1.5673 -0.1175
 4387TIP3   OH213166   3.309   0.908   5.007 -0.2007  0.9940  0.0762
 4387TIP3    H113167   3.302   0.816   5.031 -2.9725  1.5116  1.6814
 4387TIP3    H213168   3.341   0.951   5.086 -1.2876  1.6908  0.1560
 4388TIP3   OH213169   0.052   3.489   1.814 -0.1164  0.1205 -0.1026
 4388TIP3    H113170  -0.023   3.437   1.785  0.0658  0.5877 -1.4634
 4388TIP3    H213171   0.078   3.449   1.897 -1.5028 -0.4047  0.0988
 4389TIP3   OH213172   5.011   3.245   4.673 -0.2448 -0.4279 -0.3914
 4389TIP3    H113173   5.042   3.161   4.640  1.2434  0.9499 -2.7575
 4389TIP3    H213174   4.931   3.262   4.624  0.2616  0.1871 -1.0215
 4390TIP3   OH213175   4.638   0.363   2.369  0.1397 -0.0169 -0.3552
 4390TIP3    H113176   4.619   0.456   2.360 -0.0442 -0.0825 -0.6378
 4390TIP3    H213177   4.721   0.350   2.323  0.6722  0.1877  0.5139
 4391TIP3   OH213178   0.517   5.503   4.215  0.0941  0.1347 -0.2334
 4391TIP3    H113179   0.534   5.474   4.304  0.9588 -1.8517 -0.9830
 4391TIP3    H213180   0.601   5.495   4.170 -0.4560  0.5056 -1.3741
 4392TIP3   OH213181   2.820   4.209   0.410  0.3319 -0.3626  0.3430
 4392TIP3    H113182   2.847   4.258   0.333  0.8200 -2.9591 -1.2404
 4392TIP3    H213183   2.748   4.154   0.379 -2.6892  1.7305  2.9069
 4393TIP3   OH213184   2.124   2.994   5.035  0.1878  0.1383 -0.6308
 4393TIP3    H113185   2.080   2.962   5.114  1.8893  0.6535  0.5730
 4393TIP3    H213186   2.160   2.914   4.995 -1.5944 -0.2650 -1.5309
 4394TIP3   OH213187   3.553   0.266   3.330 -0.8534 -0.1823 -0.2730
 4394TIP3    H113188   3.510   0.201   3.274  0.5807 -0.7578 -0.7563
 4394TIP3    H213189   3.595   0.215   3.398 -1.2187  0.4014  0.4078
 4395TIP3   OH213190   3.411   2.361   3.374 -0.0316  0.2362  0.1102
 4395TIP3    H113191   3.434   2.335   3.464  0.1279  0.1331  0.0407
 4395TIP3    H213192   3.451   2.293   3.319  0.3521  0.6022 -0.0705
 4396TIP3   OH213193   4.981   1.706   1.007 -0.4102 -0.0891 -0.0024
 4396TIP3    H113194   4.934   1.722   0.925  0.8346 -0.9841 -0.9296
 4396TIP3    H213195   4.921   1.651   1.057 -0.4257 -1.1405 -1.1217
 4397TIP3   OH213196   2.908   5.834   0.636  0.4496 -0.1598 -0.0725
 4397TIP3    H113197   2.974   5.765   0.637 -2.1487 -2.8470 -0.9392
 4397TIP3    H213198   2.837   5.800   0.691 -0.3743  2.5497  0.7324
 4398TIP3   OH213199   2.784   0.831   2.675  0.3758 -0.9361 -0.1305
 4398TIP3    H113200   2.842   0.764   2.640  0.8732 -0.5220 -0.0963
 4398TIP3    H213201   2.828   0.914   2.657 -0.2569 -0.6084 -0.2121
 4399TIP3   OH213202   5.436   3.779   1.703  0.0925  0.6041  0.0208
 4399TIP3    H113203   5.417   3.720   1.630  2.0737 -0.4857  0.3373
 4399TIP3    H213204   5.374   3.752   1.771 -0.0417 -0.1024 -0.3643
 4400TIP3   OH213205   4.950   0.509   4.860  0.5652  0.1289 -0.1771
 4400TIP3    H113206   5.008   0.548   4.924 -0.9517 -0.2826  1.5438
 4400TIP3    H213207   4.949   0.571   4.787  3.1472  0.0969 -0.3276
 4401TIP3   OH213208   3.441   0.804   4.649 -0.0704 -0.5347 -0.5852
 4401TIP3    H113209   3.521   0.763   4.681 -0.2823 -0.6515 -0.1893
 4401TIP3    H213210   3.375   0.734   4.654 -0.0968 -0.5631 -1.3251
 4402TIP3   OH213211   5.372   1.852   2.164 -0.0217 -0.3425  0.0356
 4402TIP3    H113212   5.346   1.775   2.215 -1.2094 -0.2132 -0.3547
 4402TIP3    H213213   5.349   1.830   2.074  1.1206 -0.1581 -0.3209
 4403TIP3   OH213214   4.426   4.271   3.762  0.2212  0.2970 -0.3117
 4403TIP3    H113215   4.507   4.290   3.714 -1.1991  0.4740 -2.8110
 4403TIP3    H213216   4.389   4.195   3.717 -0.3345 -0.6977  1.7025
 4404TIP3   OH213217   1.593   4.963   1.462 -0.2955  0.1042  0.6489
 4404TIP3    H113218   1.620   4.992   1.375 -1.5377  1.8436  0.7864
 4404TIP3    H213219   1.672   4.926   1.500  1.0170  1.8649 -0.1990
 4405TIP3   OH213220   0.694   2.605   4.426  0.2275 -0.0026  0.1165
 4405TIP3    H113221   0.717   2.628   4.516 -0.1281 -0.3168  0.2892
 4405TIP3    H213222   0.643   2.680   4.394 -0.7477 -0.4448  0.6065
 4406TIP3   OH213223   2.178   3.856   3.903 -0.0636 -0.5226  1.0334
 4406TIP3    H113224   2.086   3.860   3.878  0.0230  2.7816  0.8510
 4406TIP3    H213225   2.222   3.815   3.828 -0.9778  0.9265 -0.3274
 4407TIP3   OH213226   2.400   4.793   1.370 -0.0109  0.2498 -0.5315
 4407TIP3    H113227   2.417   4.885   1.390 -0.6698  0.1178  0.7074
 4407TIP3    H213228   2.372   4.754   1.453  0.8358 -1.2218 -0.8893
 4408TIP3   OH213229   1.699   2.221   3.479  0.0137 -0.0241  0.0170
 4408TIP3    H113230   1.690   2.184   3.391 -1.1358 -1.1207  0.5696
 4408TIP3    H213231   1.787   2.258   3.480 -0.6723  1.9149 -2.2787
 4409TIP3   OH213232   1.901   1.841   0.592  0.5443 -0.0562 -0.3329
 4409TIP3    H113233   1.961   1.907   0.558  0.3665  0.3848  0.2029
 4409TIP3    H213234   1.827   1.891   0.627 -0.8341 -0.6239 -2.2440
 4410TIP3   OH213235   0.125   2.538   2.905  0.0010  0.0257  0.2288
 4410TIP3    H113236   0.170   2.623   2.896 -1.7563  1.1703  1.5626
 4410TIP3    H213237   0.034   2.561   2.922 -0.6678 -2.1811 -0.1176
 4411TIP3   OH213238   2.119   2.551   1.490  0.2874 -0.1588 -0.1251
 4411TIP3    H113239   2.133   2.457   1.493  2.0952  0.0990  1.1349
 4411TIP3    H213240   2.207   2.589   1.497 -0.4943  1.6282  0.6689
 4412TIP3   OH213241   2.398   4.752   3.611  0.3467 -0.0953 -0.0840
 4412TIP3    H113242   2.484   4.769   3.574 -0.1312 -0.1239 -1.2704
 4412TIP3    H213243   2.384   4.658   3.599  0.5029 -0.2589  0.9198
 4413TIP3   OH213244   3.218   1.691   1.596 -0.1081 -0.0023 -0.0616
 4413TIP3    H113245   3.301   1.706   1.552  0.1195 -1.5168 -0.1858
 4413TIP3    H213246   3.231   1.611   1.646 -0.6068  1.2414  2.1999
 4414TIP3   OH213247   4.336   3.332   0.118  0.7534  0.4201  0.5189
 4414TIP3    H113248   4.425   3.355   0.145  0.6773 -1.7588  3.0133
 4414TIP3    H213249   4.328   3.238   0.136 -2.3961  0.7514  1.4790
 4415TIP3   OH213250   2.987   4.056   2.258 -0.0986  0.1171 -0.1493
 4415TIP3    H113251   3.015   4.006   2.335 -0.6493 -0.5923 -0.4005
 4415TIP3    H213252   2.943   4.133   2.293  0.9525  0.5502  0.2466
 4416TIP3   OH213253   2.229   0.693   2.620 -0.5182  0.0836 -0.4726
 4416TIP3    H113254   2.176   0.651   2.552 -1.3494  1.0774 -0.4755
 4416TIP3    H213255   2.235   0.785   2.592 -0.3556  0.3718  0.4698
 4417TIP3   OH213256   5.158   5.585   4.903  0.0975  0.0774 -0.2015
 4417TIP3    H113257   5.176   5.516   4.967  1.0454 -0.2901 -0.8388
 4417TIP3    H213258   5.190   5.550   4.820  2.1039  1.8626 -0.2877
 4418TIP3   OH213259   4.116   5.785   5.153 -0.5020  0.3228  0.4690
 4418TIP3    H113260   4.076   5.857   5.201  1.4871  0.0806  2.6674
 4418TIP3    H213261   4.153   5.825   5.074 -1.1262  1.3132  0.6712
 4419TIP3   OH213262   2.411   1.313   5.167  0.0336 -0.6016 -0.0155
 4419TIP3    H113263   2.345   1.286   5.104 -0.3216 -2.7356  1.1718
 4419TIP3    H213264   2.493   1.277   5.133  0.0850 -0.4907 -0.0082
 4420TIP3   OH213265   5.191   0.608   1.257  0.2440  0.2086  0.4798
 4420TIP3    H113266   5.278   0.590   1.220  1.1581  1.8040  1.6691
 4420TIP3    H213267   5.162   0.525   1.293  0.6166 -0.6873 -1.1807
 4421TIP3   OH213268   1.633   2.202   2.165  0.5044 -0.5874 -0.3107
 4421TIP3    H113269   1.561   2.143   2.147 -2.0046  1.8341  0.9889
 4421TIP3    H213270   1.674   2.167   2.244 -1.2966 -0.3737  0.7768
 4422TIP3   OH213271   2.023   5.724   4.079  0.2635 -0.3710  0.7834
 4422TIP3    H113272   1.966   5.648   4.078 -2.4973  1.5506  2.0172
 4422TIP3    H213273   2.060   5.725   4.167  0.9249 -0.6797  0.5175
 4423TIP3   OH213274   6.154   3.164   0.493 -0.4211 -0.0914  0.2807
 4423TIP3    H113275   6.199   3.119   0.422 -0.7056 -0.4104  0.3043
 4423TIP3    H213276   6.184   3.255   0.486  1.5105 -0.5995  1.3041
 4424TIP3   OH213277   5.870   2.610   5.055 -0.2682 -0.4202 -1.0885
 4424TIP3    H113278   5.930   2.547   5.094 -0.9312  0.1701  0.9733
 4424TIP3    H213279   5.911   2.695   5.068 -1.2313 -0.0727 -0.2380
 4425TIP3   OH213280   0.508   4.091   5.077  0.0852  0.4093  0.0961
 4425TIP3    H113281   0.540   4.026   5.014  0.2505  0.6639 -0.0866
 4425TIP3    H213282   0.421   4.059   5.102 -0.6932  1.1326 -1.4954
 4426TIP3   OH213283   6.196   0.479   5.062 -0.2399 -0.5097 -0.1909
 4426TIP3    H113284   6.153   0.475   4.977 -0.3845  1.1927 -0.2228
 4426TIP3    H213285   6.217   0.388   5.083 -0.4856 -0.9788 -1.8952
 4427TIP3   OH213286   4.784   3.711   1.572  0.4767  0.4277 -0.3804
 4427TIP3    H113287   4.784   3.635   1.630  0.3563 -0.0198 -0.9603
 4427TIP3    H213288   4.856   3.695   1.511  0.5742  0.8717 -0.3829
 4428TIP3   OH213289   4.046   1.543   3.916  0.8058 -0.5178 -0.0851
 4428TIP3    H113290   4.020   1.462   3.871  2.3126 -0.4189 -1.1967
 4428TIP3    H213291   4.048   1.520   4.008  1.5359 -1.8488 -0.4153
 4429TIP3   OH213292   0.415   3.868   4.321 -0.4230  0.1473  0.4313
 4429TIP3    H113293   0.461   3.889   4.402 -0.9693  0.5928  0.6381
 4429TIP3    H213294   0.448   3.782   4.296  1.3916  0.9623 -0.0774
 4430TIP3   OH213295   5.554   1.824   4.896 -0.1731  0.1950  0.9655
 4430TIP3    H113296   5.465   1.803   4.925 -0.3174 -0.5726  0.0174
 4430TIP3    H213297   5.610   1.763   4.944 -0.1500  0.6207  1.4974
 4431TIP3   OH213298   2.346   5.817   3.947  0.4248  0.1267 -0.4564
 4431TIP3    H113299   2.264   5.769   3.950  0.4680  0.0627 -0.2741
 4431TIP3    H213300   2.413   5.748   3.949  0.4821  0.1318 -1.4532
 4432TIP3   OH213301   6.378   5.097   4.290  0.1550  0.0070 -0.3567
 4432TIP3    H113302   6.358   5.006   4.310  0.1354  0.1721  0.3939
 4432TIP3    H213303   6.307   5.126   4.233 -3.0441  1.1407  3.7222
 4433TIP3   OH213304   4.063   3.231   1.280  0.5127  0.4218 -0.4828
 4433TIP3    H113305   4.062   3.293   1.352 -0.0763  0.1760 -0.2690
 4433TIP3    H213306   3.979   3.244   1.235  0.7671  0.4048 -0.9768
 4434TIP3   OH213307   0.858   1.283   0.713  0.2319  0.1857  0.3305
 4434TIP3    H113308   0.949   1.290   0.682  0.0727  0.0642 -0.1836
 4434TIP3    H213309   0.861   1.220   0.784  0.2704 -1.2334 -0.8863
 4435TIP3   OH213310   0.577   2.089   4.112  0.3645 -0.1550  0.4513
 4435TIP3    H113311   0.530   2.135   4.042 -1.1371 -0.1351  1.4193
 4435TIP3    H213312   0.613   2.159   4.167  0.6733 -0.1623  0.2584
 4436TIP3   OH213313   1.527   0.068   2.685  0.3310 -0.3334 -0.2694
 4436TIP3    H113314   1.434   0.087   2.693  0.2014 -1.1113  0.2111
 4436TIP3    H213315   1.545   0.072   2.591 -0.3565 -0.9073 -0.4328
 4437TIP3   OH213316   5.758   4.061   2.272 -0.0672 -0.0590 -0.0207
 4437TIP3    H113317   5.852   4.054   2.287  0.0323  1.6684  0.3813
 4437TIP3    H213318   5.744   4.154   2.256 -1.8130 -0.1847  0.6122
 4438TIP3   OH213319   2.987   0.703   2.890 -0.1704  0.4494  0.2952
 4438TIP3    H113320   2.911   0.750   2.923 -0.8187 -0.4432  0.1325
 4438TIP3    H213321   3.037   0.768   2.841 -1.5979  0.7431 -0.8292
 4439TIP3   OH213322   4.777   2.119   3.475 -0.2805  0.1429 -0.2371
 4439TIP3    H113323   4.760   2.213   3.477 -1.3033 -0.0072 -1.1029
 4439TIP3    H213324   4.790   2.094   3.567 -0.0543  1.1114 -0.0023
 4440TIP3   OH213325   5.506   1.975   2.356  0.4599 -0.0971  0.1770
 4440TIP3    H113326   5.479   2.067   2.359  2.7644  0.7337 -1.5620
 4440TIP3    H213327   5.463   1.940   2.279 -0.2153 -0.4432  0.6974
 4441TIP3   OH213328   4.777   2.564   1.244  0.5653 -0.0076  0.3172
 4441TIP3    H113329   4.799   2.644   1.292 -0.8405  0.9890 -0.6153
 4441TIP3    H213330   4.782   2.494   1.309  0.0991  1.1004  1.5739
 4442TIP3   OH213331   2.963   5.907   1.236  0.2756  0.2327  0.0840
 4442TIP3    H113332   3.016   5.878   1.161  0.5015  1.0955 -0.1049
 4442TIP3    H213333   2.960   6.002   1.227 -1.2128  0.2178  0.1705
 4443TIP3   OH213334   6.036   0.149   0.931  0.0943 -0.2560  0.0557
 4443TIP3    H113335   6.090   0.216   0.971  0.5303  0.1241 -1.1227
 4443TIP3    H213336   6.054   0.070   0.982  1.2357  0.0317  0.1376
 4444TIP3   OH213337   1.744   5.026   0.372  0.1646 -0.2867  0.0040
 4444TIP3    H113338   1.820   5.030   0.431  0.1250  0.9691 -0.0092
 4444TIP3    H213339   1.709   4.938   0.385  1.6208 -0.9005  0.0037
 4445TIP3   OH213340   5.150   4.990   3.937  0.0074 -0.1006  0.1320
 4445TIP3    H113341   5.198   4.921   3.982 -1.5147 -0.3026  1.5402
 4445TIP3    H213342   5.196   5.071   3.961 -0.5147 -0.2544  1.7330
 4446TIP3   OH213343   0.454   1.644   4.015  1.1775  0.2076 -0.1829
 4446TIP3    H113344   0.425   1.554   4.001  0.2492 -0.1502  3.2776
 4446TIP3    H213345   0.549   1.636   4.023  1.1419 -0.3853 -0.2463
 4447TIP3   OH213346   2.686   2.373   2.055 -0.4677  0.1635 -0.5361
 4447TIP3    H113347   2.762   2.356   2.000  0.5038 -0.1508  0.8320
 4447TIP3    H213348   2.675   2.468   2.053  0.5299  0.3047 -0.0635
 4448TIP3   OH213349   4.074   1.007   5.104  0.3062 -0.0319 -0.0311
 4448TIP3    H113350   4.151   0.960   5.136 -0.3939 -1.2099 -0.0177
 4448TIP3    H213351   4.087   1.013   5.010 -0.6001 -2.2562 -0.3640
 4449TIP3   OH213352   3.047   3.497   3.089  0.0281 -0.2395  0.5344
 4449TIP3    H113353   3.093   3.420   3.121  0.6124 -0.8209 -1.5071
 4449TIP3    H213354   2.994   3.464   3.016 -2.0307  0.7940  1.4657
 4450TIP3   OH213355   5.673   2.145   2.870  0.2029 -0.0732  0.3509
 4450TIP3    H113356   5.578   2.134   2.869 -0.0482  1.8300  0.7375
 4450TIP3    H213357   5.704   2.084   2.937 -0.8516  0.0483  0.9623
 4451TIP3   OH213358   2.321   5.217   2.701  0.1570  0.0484  0.2434
 4451TIP3    H113359   2.273   5.145   2.742  1.0964  0.1121  1.4916
 4451TIP3    H213360   2.263   5.293   2.711 -0.2740 -0.2558  0.0862
 4452TIP3   OH213361   1.672   0.033   3.112  0.5742  0.4246 -0.1564
 4452TIP3    H113362   1.700   0.012   3.201  0.5533  0.3088 -0.1765
 4452TIP3    H213363   1.753   0.037   3.061  0.4867 -1.2961 -0.5105
 4453TIP3   OH213364   0.083   3.596   4.677 -0.1732  0.9202  0.1958
 4453TIP3    H113365   0.054   3.682   4.647  0.2508  1.2964  0.8534
 4453TIP3    H213366   0.035   3.534   4.621 -0.8375  1.5664  0.0354
 4454TIP3   OH213367   6.310   5.961   2.576  0.2459 -0.2381 -0.2422
 4454TIP3    H113368   6.337   6.035   2.522 -0.5659  0.5441  0.4061
 4454TIP3    H213369   6.233   5.992   2.623  0.2030 -1.3220  0.4349
 4455TIP3   OH213370   1.360   4.364   2.860 -0.8521 -0.2223 -0.4621
 4455TIP3    H113371   1.347   4.271   2.844 -0.2675 -0.1692 -1.2729
 4455TIP3    H213372   1.453   4.379   2.841 -1.1636  0.7111 -1.3153
 4456TIP3   OH213373   3.585   1.213   4.443  0.4317  0.1209 -0.2458
 4456TIP3    H113374   3.541   1.258   4.516  0.0431 -0.1228 -0.3232
 4456TIP3    H213375   3.581   1.120   4.467 -1.0116 -0.1157 -1.2432
 4457TIP3   OH213376   5.585   3.339   1.623 -0.4507  0.5156 -0.0916
 4457TIP3    H113377   5.542   3.359   1.706 -0.1189 -0.7538  0.4114
 4457TIP3    H213378   5.666   3.389   1.625  1.0100 -1.7618  1.7392
 4458TIP3   OH213379   5.917   3.228   3.169 -0.1165 -0.1557  0.0854
 4458TIP3    H113380   5.938   3.281   3.246 -0.1730 -0.3509  0.2330
 4458TIP3    H213381   5.996   3.176   3.153 -0.6191 -1.1945  0.8851
 4459TIP3   OH213382   4.372   4.501   1.133 -0.2287 -0.2293 -0.0674
 4459TIP3    H113383   4.350   4.483   1.042  0.1811 -1.1782  0.0103
 4459TIP3    H213384   4.375   4.596   1.139 -0.0686 -0.1649 -1.0853
 4460TIP3   OH213385   6.072   1.503   0.818 -0.3125 -0.6037 -0.1610
 4460TIP3    H113386   5.980   1.489   0.839  0.0336 -2.3715  0.3612
 4460TIP3    H213387   6.088   1.595   0.838 -2.2164  0.0294 -1.3182
 4461TIP3   OH213388   0.096   3.366   2.049  0.1372 -0.0033  1.2540
 4461TIP3    H113389   0.190   3.347   2.043  0.1859  0.4006  0.6428
 4461TIP3    H213390   0.059   3.287   2.089  0.6173 -0.5548  0.6484
 4462TIP3   OH213391   2.521  -0.012   2.453  0.5317  0.3081 -0.5579
 4462TIP3    H113392   2.488  -0.023   2.364  0.5382 -1.0105 -0.4107
 4462TIP3    H213393   2.468   0.059   2.490 -0.1498  0.1858 -1.2876
 4463TIP3   OH213394   3.732   3.740   1.190  0.5525 -0.0361  0.4347
 4463TIP3    H113395   3.673   3.671   1.222 -1.6274  1.5276 -0.0186
 4463TIP3    H213396   3.810   3.733   1.246  0.9212 -3.4952 -0.2399
 4464TIP3   OH213397   3.827   1.926   4.110  0.6231 -0.4791 -0.7800
 4464TIP3    H113398   3.774   1.855   4.073  0.3958 -0.6011 -0.2213
 4464TIP3    H213399   3.795   2.005   4.065  0.2936 -0.6142 -0.7867
 4465TIP3   OH213400   0.740   3.659   3.947  0.3056 -0.1202 -0.4380
 4465TIP3    H113401   0.752   3.637   4.039  0.1379 -0.6034 -0.5259
 4465TIP3    H213402   0.803   3.729   3.930 -1.3423  1.7031  0.6469
 4466TIP3   OH213403   5.162   5.598   3.999 -0.5224  0.2671  0.2465
 4466TIP3    H113404   5.080   5.617   4.046  0.0265  0.4788  1.1396
 4466TIP3    H213405   5.179   5.506   4.018 -0.0205  0.4913  0.9226
 4467TIP3   OH213406   5.274   4.490   1.391  0.2553  0.0901 -0.4606
 4467TIP3    H113407   5.265   4.435   1.468  0.3510  1.2065  0.3812
 4467TIP3    H213408   5.369   4.499   1.379  0.2604 -0.9244 -1.3606
 4468TIP3   OH213409   5.026   1.924   1.479 -0.1818  0.2655  0.6479
 4468TIP3    H113410   5.058   1.839   1.450 -0.9596  0.2717 -0.2476
 4468TIP3    H213411   5.002   1.910   1.571 -0.2620 -0.4661  0.5206
 4469TIP3   OH213412   3.171   1.839   0.064 -0.0803  0.3634  0.1185
 4469TIP3    H113413   3.156   1.910   0.001 -0.6612  1.3158  1.2755
 4469TIP3    H213414   3.256   1.861   0.104  1.0621 -1.0903 -1.3725
 4470TIP3   OH213415   3.812   1.414   2.133  0.3645 -0.3370 -0.4137
 4470TIP3    H113416   3.831   1.507   2.120  0.2143 -0.3761 -0.9665
 4470TIP3    H213417   3.870   1.386   2.203  2.1176 -0.3764 -1.8048
 4471TIP3   OH213418   3.505   1.140   0.119  1.1399 -0.5303  0.1773
 4471TIP3    H113419   3.455   1.182   0.189  0.7873  0.2629 -0.5370
 4471TIP3    H213420   3.461   1.055   0.107  0.3389 -0.0974 -0.0264
 4472TIP3   OH213421   5.890   1.297   5.062  0.2597 -0.3007  0.1634
 4472TIP3    H113422   5.801   1.261   5.066 -0.0914  0.5495  0.2424
 4472TIP3    H213423   5.935   1.243   4.997 -0.7620  0.2032 -1.0072
 4473TIP3   OH213424   1.399   3.380   3.161 -0.1831  0.0285 -0.0162
 4473TIP3    H113425   1.417   3.384   3.067 -1.5631  0.4529 -0.2893
 4473TIP3    H213426   1.364   3.293   3.176  0.5482 -0.2307  0.2124
 4474TIP3   OH213427   3.601   4.001   5.168 -0.0120 -0.0198  0.3315
 4474TIP3    H113428   3.611   4.037   5.256  0.2115 -0.0041  0.3007
 4474TIP3    H213429   3.578   4.077   5.114  1.2803  0.2385  0.1137
 4475TIP3   OH213430   4.869   5.736   4.829 -0.2936  0.0047 -0.4550
 4475TIP3    H113431   4.855   5.652   4.786  0.7456 -1.2940  1.5487
 4475TIP3    H213432   4.785   5.782   4.823 -1.3488 -1.8259 -0.2864
 4476TIP3   OH213433   3.134   0.640   2.216 -0.1535  0.3438 -0.8841
 4476TIP3    H113434   3.206   0.667   2.158 -0.6457  2.4524 -0.6186
 4476TIP3    H213435   3.149   0.690   2.297 -1.0233 -0.4181 -0.2333
 4477TIP3   OH213436   3.526   2.734   3.691 -0.0691  0.2268  1.1217
 4477TIP3    H113437   3.512   2.676   3.616  0.2649 -0.5254  1.6269
 4477TIP3    H213438   3.472   2.811   3.673  0.1244  0.1278  0.0361
 4478TIP3   OH213439   3.504   1.806   3.221 -0.4330 -0.0846 -0.7579
 4478TIP3    H113440   3.428   1.747   3.215 -1.7497  1.3070  1.0942
 4478TIP3    H213441   3.573   1.751   3.258 -2.1256 -0.2424  2.6285
 4479TIP3   OH213442   5.825   1.200   4.186 -0.4151  0.5270  0.8499
 4479TIP3    H113443   5.814   1.256   4.109 -0.2805  0.2590  0.6350
 4479TIP3    H213444   5.920   1.187   4.193 -0.5262 -1.3258 -0.3072
 4480TIP3   OH213445   1.243   4.003   0.723  0.3910 -0.0606  0.1278
 4480TIP3    H113446   1.164   4.057   0.716 -0.7887 -1.6718  0.3237
 4480TIP3    H213447   1.251   3.962   0.637  0.8014 -0.1968  0.2311
 4481TIP3   OH213448   5.990   5.545   0.065  0.5269 -0.6024 -0.2708
 4481TIP3    H113449   6.045   5.476   0.028  2.0417  0.6543 -0.4604
 4481TIP3    H213450   6.045   5.587   0.131 -0.5188  0.1548  0.1518
 4482TIP3   OH213451   1.627   2.822   4.593  0.2352  0.5243  0.0882
 4482TIP3    H113452   1.532   2.813   4.600  0.3985 -0.3698  1.7987
 4482TIP3    H213453   1.655   2.744   4.545 -0.0959  2.2666 -3.1882
 4483TIP3   OH213454   4.082   4.777   5.138  0.0613 -0.3989 -0.0352
 4483TIP3    H113455   4.074   4.852   5.196 -0.4145 -1.9556  2.0569
 4483TIP3    H213456   4.009   4.786   5.077  1.1261  1.7855 -1.0646
 4484TIP3   OH213457   3.657   4.934   2.660 -0.0763 -0.1637  0.5154
 4484TIP3    H113458   3.601   5.010   2.677  0.1729  0.3623 -0.8891
 4484TIP3    H213459   3.705   4.957   2.581  0.1550 -1.7135  0.1743
 4485TIP3   OH213460   3.335   5.384   1.380 -0.2390 -0.4110 -0.3214
 4485TIP3    H113461   3.273   5.402   1.310 -0.1929 -0.2197 -0.3127
 4485TIP3    H213462   3.314   5.447   1.449  0.0943 -0.2125 -0.4009
 4486TIP3   OH213463   5.261   3.873   4.592  0.6602  0.5960  0.0313
 4486TIP3    H113464   5.247   3.911   4.679 -1.0196  0.3489 -0.0935
 4486TIP3    H213465   5.259   3.948   4.532  1.0365  0.6846  0.1291
 4487TIP3   OH213466   3.995   1.073   1.228  0.1569 -0.0079  0.2313
 4487TIP3    H113467   4.066   1.050   1.289  1.2548  2.0497 -0.1796
 4487TIP3    H213468   4.040   1.098   1.147 -1.0058  1.5225  0.0185
 4488TIP3   OH213469   6.226   0.100   4.835 -0.3809 -0.5167  0.0200
 4488TIP3    H113470   6.242   0.175   4.778  0.9139 -1.3047 -0.7050
 4488TIP3    H213471   6.297   0.105   4.900  0.7288 -1.9863 -1.0051
 4489TIP3   OH213472   6.383   1.836   1.044 -0.3178 -0.2417  0.1203
 4489TIP3    H113473   6.379   1.817   0.951  1.6853 -0.8795  0.1122
 4489TIP3    H213474   6.291   1.843   1.071 -1.0214 -2.1957 -1.4686
 4490TIP3   OH213475   1.366   1.892   3.910 -0.1735 -0.2996  0.6676
 4490TIP3    H113476   1.402   1.812   3.949  1.4864  0.1173  0.0504
 4490TIP3    H213477   1.397   1.963   3.965  0.9948  0.1703 -0.5444
 4491TIP3   OH213478   1.117   4.471   2.629 -0.0512  0.3807  0.1901
 4491TIP3    H113479   1.062   4.520   2.690 -0.3761  1.5812 -1.0101
 4491TIP3    H213480   1.058   4.405   2.592  0.2276 -0.5513  1.3678
 4492TIP3   OH213481   3.219   0.094   0.741 -0.3301 -0.2679 -0.2559
 4492TIP3    H113482   3.145   0.050   0.782 -0.0369  0.2612  0.8742
 4492TIP3    H213483   3.198   0.187   0.747  0.1924 -0.1381 -0.3742
 4493TIP3   OH213484   1.670   2.537   4.987  0.1576 -0.6877  0.1834
 4493TIP3    H113485   1.607   2.609   4.989 -1.1750 -1.8245  0.9452
 4493TIP3    H213486   1.756   2.580   4.983 -0.5789  0.9440  1.1402
 4494TIP3   OH213487   4.771   5.813   2.308  0.4203 -0.4532 -0.0773
 4494TIP3    H113488   4.854   5.777   2.339 -1.1323 -3.0539  1.4653
 4494TIP3    H213489   4.719   5.824   2.387 -1.6413 -1.5348 -1.2152
 4495TIP3   OH213490   3.816   3.936   1.018 -0.5223  0.3582 -0.2013
 4495TIP3    H113491   3.772   3.873   1.075 -0.8626  1.7744  1.1883
 4495TIP3    H213492   3.746   3.976   0.966 -0.4320  0.2343 -0.4178
 4496TIP3   OH213493   0.638   5.796   0.216 -0.3952 -0.0618  0.2224
 4496TIP3    H113494   0.692   5.871   0.237  0.9675 -1.7517  3.3788
 4496TIP3    H213495   0.548   5.825   0.231 -0.1844  1.7436 -1.6488
 4497TIP3   OH213496   5.234   2.296   2.254 -0.0080 -0.1890  0.4762
 4497TIP3    H113497   5.221   2.231   2.185 -0.7529  0.0021  0.4229
 4497TIP3    H213498   5.151   2.344   2.257  0.7305  1.1478  0.1310
 4498TIP3   OH213499   1.812   3.726   3.928 -0.4195  0.5841 -0.2818
 4498TIP3    H113500   1.751   3.688   3.865 -0.5099  2.3499 -1.3377
 4498TIP3    H213501   1.883   3.762   3.874  0.2461  0.8517  0.7330
 4499TIP3   OH213502   1.557   5.874   4.576 -0.8022  0.3478 -0.6605
 4499TIP3    H113503   1.647   5.906   4.579 -0.9345  0.8025 -1.3866
 4499TIP3    H213504   1.565   5.786   4.539 -0.7867  0.9593 -2.1845
 4500TIP3   OH213505   3.158   4.761   1.043 -0.1511  0.1639 -0.3011
 4500TIP3    H113506   3.198   4.843   1.012  0.2915  0.6095  1.3569
 4500TIP3    H213507   3.118   4.723   0.965 -1.9293  2.8441 -0.8096
 4501TIP3   OH213508   1.803   3.645   2.432  0.1232  0.3732  0.0511
 4501TIP3    H113509   1.775   3.735   2.448 -1.3286 -0.2843  1.4657
 4501TIP3    H213510   1.806   3.605   2.518  1.5425 -0.7403 -0.4748
 4502TIP3   OH213511   3.108   1.814   0.668 -0.1502 -0.3153 -0.7495
 4502TIP3    H113512   3.171   1.885   0.654 -0.6883  0.3793  0.2072
 4502TIP3    H213513   3.124   1.753   0.596  1.6289 -0.1799 -0.5128
 4503TIP3   OH213514   5.454   1.475   4.545 -0.3323  0.1382 -0.0067
 4503TIP3    H113515   5.472   1.559   4.502  0.3337  0.5396  1.0341
 4503TIP3    H213516   5.386   1.495   4.609 -0.7705 -0.2966 -0.3303
 4504TIP3   OH213517   6.014   2.144   2.902 -0.2730  0.3494  0.1721
 4504TIP3    H113518   5.959   2.164   2.826 -0.8081 -0.6617  0.2688
 4504TIP3    H213519   6.036   2.051   2.891 -0.0458  0.2891  1.0552
 4505TIP3   OH213520   5.410   5.484   1.322  0.1094  0.2228  0.5313
 4505TIP3    H113521   5.483   5.542   1.297  1.8841 -1.6507  1.1047
 4505TIP3    H213522   5.363   5.468   1.241  1.7747 -0.3901 -0.3644
 4506TIP3   OH213523   4.256   0.394   0.179  0.0941 -0.3144  0.1135
 4506TIP3    H113524   4.300   0.397   0.264  0.8724 -2.5631 -0.1590
 4506TIP3    H213525   4.318   0.351   0.121 -0.8357  0.2468 -1.3583
 4507TIP3   OH213526   4.974   2.924   0.978 -0.0539  0.1667  0.3836
 4507TIP3    H113527   4.962   2.837   1.017  0.7306  0.3548  1.0887
 4507TIP3    H213528   4.978   2.908   0.884  1.9439 -0.8382  0.5699
 4508TIP3   OH213529   1.902   1.895   1.509  0.7230 -0.1199 -0.2535
 4508TIP3    H113530   1.989   1.857   1.512  1.8352  2.2920  1.1990
 4508TIP3    H213531   1.906   1.958   1.438 -0.9053 -2.1390 -2.2618
 4509TIP3   OH213532   5.161   2.040   0.506 -0.5324  0.0262  0.6884
 4509TIP3    H113533   5.242   1.992   0.486 -1.6217 -1.1526 -1.2388
 4509TIP3    H213534   5.159   2.046   0.601  1.4512 -0.5491  0.8131
 4510TIP3   OH213535   4.981   0.634   0.462  0.1553 -1.1224 -0.4679
 4510TIP3    H113536   4.986   0.691   0.386  1.2173  0.3805  0.6679
 4510TIP3    H213537   5.009   0.548   0.430  0.9302 -0.4368 -1.6968
 4511TIP3   OH213538   4.965   5.279   2.562  0.4156  0.3642 -0.1902
 4511TIP3    H113539   4.906   5.316   2.628  0.3148 -1.2850  0.6862
 4511TIP3    H213540   4.956   5.184   2.572  1.5636  0.0857 -1.5452
 4512TIP3   OH213541   0.900   3.798   0.671  0.1303 -0.6632 -0.0245
 4512TIP3    H113542   0.994   3.778   0.670  0.4501  0.7406 -1.0296
 4512TIP3    H213543   0.857   3.712   0.674  1.4335 -1.3490 -0.3779
 4513TIP3   OH213544   0.296   4.799   2.172 -0.1266 -0.4605  0.6463
 4513TIP3    H113545   0.208   4.793   2.209 -0.6443 -0.0897 -0.4662
 4513TIP3    H213546   0.288   4.758   2.086 -0.0060  2.1923 -0.7497
 4514TIP3   OH213547   3.316   0.661   0.698 -0.3215 -0.3038 -0.1776
 4514TIP3    H113548   3.272   0.745   0.709 -0.4178 -0.4804  0.9138
 4514TIP3    H213549   3.285   0.628   0.613 -0.1898  0.8047 -0.6696
 4515TIP3   OH213550   6.145   2.829   0.988  0.6181  0.0594 -0.1046
 4515TIP3    H113551   6.220   2.880   0.957  0.9797 -0.0092  0.6487
 4515TIP3    H213552   6.070   2.869   0.944  1.0725  0.2213 -0.7523
 4516TIP3   OH213553   0.693   3.356   1.003 -0.3734  0.2772 -0.3902
 4516TIP3    H113554   0.683   3.282   0.944 -2.0052  0.4799 -0.4188
 4516TIP3    H213555   0.782   3.349   1.036  0.3370 -0.2350 -2.3235
 4517TIP3   OH213556   0.542   4.391   4.530 -0.0540 -0.0815 -0.0587
 4517TIP3    H113557   0.566   4.310   4.485  0.1927 -0.7467  1.1979
 4517TIP3    H213558   0.624   4.423   4.566 -0.2739  0.3214  0.0865
 4518TIP3   OH213559   1.226   5.798   3.590  0.4668  0.2757 -0.2659
 4518TIP3    H113560   1.307   5.754   3.563  0.1800 -0.0123 -0.6678
 4518TIP3    H213561   1.235   5.888   3.557  0.6381  0.2558 -0.2738
 4519TIP3   OH213562   0.386   2.136   2.572  0.3603  0.0794  0.6052
 4519TIP3    H113563   0.383   2.105   2.481  1.1439 -1.3281  1.0338
 4519TIP3    H213564   0.300   2.114   2.607  0.1898  0.2705  0.3089
 4520TIP3   OH213565   4.827   5.283   2.992 -0.1430 -0.2218  0.0044
 4520TIP3    H113566   4.770   5.218   3.032  0.8343 -1.3114 -0.3231
 4520TIP3    H213567   4.815   5.362   3.046 -1.0215 -0.7944  0.6639
 4521TIP3   OH213568   0.058   4.221   4.402 -0.2419  0.2087 -0.4358
 4521TIP3    H113569   0.114   4.148   4.375 -2.6318 -0.9538 -2.7609
 4521TIP3    H213570   0.031   4.200   4.491  1.5643 -0.0917  0.0664
 4522TIP3   OH213571   1.415   5.474   2.832  0.6586  0.4388 -0.0865
 4522TIP3    H113572   1.421   5.459   2.738  0.1396  1.9825 -0.3831
 4522TIP3    H213573   1.321   5.472   2.850  0.6031  2.2518  0.0017
 4523TIP3   OH213574   5.185   3.932   2.573  0.6188 -0.0638 -0.1272
 4523TIP3    H113575   5.178   3.883   2.491  0.3484  1.2895 -0.9437
 4523TIP3    H213576   5.121   3.891   2.631 -0.3177 -0.0492 -1.1252
 4524TIP3   OH213577   5.292   4.792   1.747  0.4151 -0.0871  0.0258
 4524TIP3    H113578   5.364   4.852   1.729  1.2328 -1.2456 -0.6973
 4524TIP3    H213579   5.260   4.766   1.660 -0.5733  0.0261  0.3356
 4525TIP3   OH213580   1.196   1.087   2.053 -0.3969  0.3856  0.8743
 4525TIP3    H113581   1.173   0.996   2.070 -0.8609  0.4593  0.6555
 4525TIP3    H213582   1.219   1.122   2.139  1.8887 -0.4960  0.6760
 4526TIP3   OH213583   4.180   5.602   3.557 -0.2042  0.1715  0.2172
 4526TIP3    H113584   4.165   5.643   3.642 -1.2070  0.9375 -0.3163
 4526TIP3    H213585   4.190   5.509   3.577  1.4583  0.5439  1.3700
 4527TIP3   OH213586   5.789   5.251   0.210  0.2606  0.1182  0.5452
 4527TIP3    H113587   5.720   5.219   0.267 -0.7595  0.7846 -0.2844
 4527TIP3    H213588   5.765   5.341   0.191 -0.3994 -0.5498 -2.2906
 4528TIP3   OH213589   1.934   2.379   3.500  0.2664  0.3203  0.2334
 4528TIP3    H113590   2.000   2.408   3.437  1.0044 -0.5477  0.5783
 4528TIP3    H213591   1.952   2.430   3.579 -0.4520  1.1727 -0.1347
 4529TIP3   OH213592   4.716   1.442   2.040 -0.6392 -0.1971  0.4357
 4529TIP3    H113593   4.705   1.374   2.106 -1.9267 -0.7155 -0.2902
 4529TIP3    H213594   4.762   1.513   2.086  1.4662 -1.8294  0.9791
 4530TIP3   OH213595   0.679   2.843   2.703  0.2715 -0.2125  0.5180
 4530TIP3    H113596   0.628   2.918   2.735 -0.6230 -0.5644 -0.0369
 4530TIP3    H213597   0.763   2.850   2.748 -0.4228  0.1316  1.8048
 4531TIP3   OH213598   4.635   2.148   4.111 -0.2017 -0.7029 -0.0330
 4531TIP3    H113599   4.637   2.243   4.107  1.6656 -0.7109  0.0109
 4531TIP3    H213600   4.726   2.121   4.102 -0.7408 -2.5201 -0.5909
 4532TIP3   OH213601   4.716   2.054   2.835 -0.3646 -0.1049  0.1958
 4532TIP3    H113602   4.652   2.021   2.898 -1.1548 -0.4232 -0.7481
 4532TIP3    H213603   4.669   2.056   2.751  0.5129  0.7615 -0.3034
 4533TIP3   OH213604   5.120   0.984   5.161  0.2799 -0.2352  0.0903
 4533TIP3    H113605   5.192   0.968   5.222  0.6914  1.6210  0.1591
 4533TIP3    H213606   5.152   0.951   5.077  0.9061 -0.0975  0.2716
 4534TIP3   OH213607   4.183   2.719   0.672  0.2938 -0.0612  0.0359
 4534TIP3    H113608   4.129   2.760   0.739  0.3780  0.8873 -0.4647
 4534TIP3    H213609   4.258   2.683   0.720  0.5103  0.8823  0.4265
 4535TIP3   OH213610   4.681   0.968   2.113  0.9871 -0.2581  0.3194
 4535TIP3    H113611   4.606   0.960   2.171  1.4438  0.9877  1.1198
 4535TIP3    H213612   4.707   0.877   2.095  0.0810 -0.6806  1.0625
 4536TIP3   OH213613   4.936   5.015   1.705  0.2422 -0.3440 -0.3012
 4536TIP3    H113614   4.904   5.102   1.681  1.7635 -0.1505 -1.9066
 4536TIP3    H213615   5.032   5.023   1.698  0.4195 -2.0318 -0.0804
 4537TIP3   OH213616   3.611   0.046   0.032 -0.0225 -0.3541 -0.1606
 4537TIP3    H113617   3.553  -0.020  -0.004 -0.6365 -0.4316  0.9325
 4537TIP3    H213618   3.575   0.066   0.118  0.7494  0.6470 -0.0464
 4538TIP3   OH213619   0.443   5.679  -0.015  0.4274 -0.3191  0.1496
 4538TIP3    H113620   0.492   5.705   0.063  0.9544  1.5034 -0.7141
 4538TIP3    H213621   0.393   5.602   0.011  1.5191 -0.4652  1.9122
 4539TIP3   OH213622   0.308   2.712   3.710  0.3616  0.1226  0.8706
 4539TIP3    H113623   0.215   2.719   3.733 -0.9505  1.9461 -3.7991
 4539TIP3    H213624   0.347   2.794   3.739 -0.2517  0.6239  0.3093
 4540TIP3   OH213625   3.927   4.479   1.090  0.4398 -0.6796 -0.0184
 4540TIP3    H113626   3.912   4.574   1.083 -2.0902 -1.0812 -1.2298
 4540TIP3    H213627   3.841   4.443   1.111  1.4721 -2.6953  1.0297
 4541TIP3   OH213628   3.598   1.223   4.911 -0.1145 -0.5415 -0.3267
 4541TIP3    H113629   3.541   1.160   4.866 -0.8376 -0.6081  0.6596
 4541TIP3    H213630   3.675   1.172   4.935  1.6988  0.1261 -4.0095
 4542TIP3   OH213631   4.644   2.272   0.770  0.4736  0.5301 -0.1359
 4542TIP3    H113632   4.712   2.214   0.805  0.0884  0.1930  0.0743
 4542TIP3    H213633   4.586   2.288   0.845 -0.6929 -0.6782 -0.7343
 4543TIP3   OH213634   3.597   2.470   3.771  0.0076 -0.1104  0.2533
 4543TIP3    H113635   3.662   2.459   3.840 -0.3461  1.1825  0.8257
 4543TIP3    H213636   3.637   2.531   3.710  0.5325 -1.6466 -1.0175
 4544TIP3   OH213637   4.199   3.267   4.917  0.1425  0.4564  0.0181
 4544TIP3    H113638   4.124   3.278   4.858 -2.0373  3.3342  2.9722
 4544TIP3    H213639   4.182   3.183   4.961  1.2150 -1.1619 -2.4165
 4545TIP3   OH213640   0.875   1.771   0.614  0.1456 -0.2560  0.0056
 4545TIP3    H113641   0.874   1.676   0.622 -0.4270 -0.5028 -2.2507
 4545TIP3    H213642   0.933   1.800   0.684 -0.8466 -2.1194  1.7123
 4546TIP3   OH213643   4.737   4.640   0.532 -0.5182  0.1645 -0.0314
 4546TIP3    H113644   4.709   4.706   0.467 -1.5431  1.2345  1.4213
 4546TIP3    H213645   4.688   4.562   0.508 -0.1110  0.2281 -1.1424
 4547TIP3   OH213646   0.929   2.131   2.388 -0.1835 -0.0295  0.8580
 4547TIP3    H113647   0.846   2.176   2.406 -0.1497  0.6171 -0.4969
 4547TIP3    H213648   0.923   2.049   2.437 -2.5213 -0.9566 -0.7744
 4548TIP3   OH213649   4.211   3.717   4.328  0.1885 -0.1346 -0.4399
 4548TIP3    H113650   4.241   3.721   4.418 -1.5992  0.3797  0.1870
 4548TIP3    H213651   4.270   3.655   4.285  0.8032 -0.7285  1.1874
 4549TIP3   OH213652   4.013   0.124   2.232  0.3947  0.5872 -0.2216
 4549TIP3    H113653   3.953   0.049   2.223  0.0054  0.7231  1.1276
 4549TIP3    H213654   4.070   0.101   2.305 -2.0615  3.0735  2.7628
 4550TIP3   OH213655   3.614   1.671   4.261  0.3516 -0.3369 -0.5343
 4550TIP3    H113656   3.520   1.683   4.250  0.0337 -0.0634  1.9069
 4550TIP3    H213657   3.649   1.675   4.173 -1.7676  0.8887 -1.4017
 4551TIP3   OH213658   2.857   4.179   2.852  0.3536  0.0943 -0.5407
 4551TIP3    H113659   2.874   4.106   2.793  0.2126  1.5897 -2.5470
 4551TIP3    H213660   2.774   4.216   2.821 -0.2186  0.3738  1.2202
 4552TIP3   OH213661   3.566   3.533   3.249 -0.0970  0.0085 -0.4329
 4552TIP3    H113662   3.585   3.440   3.234 -0.9440  0.1590 -2.9126
 4552TIP3    H213663   3.492   3.552   3.192 -1.4671  1.6988  1.7591
 4553TIP3   OH213664   1.311   1.283   1.678  0.1545  0.3582  0.0993
 4553TIP3    H113665   1.350   1.203   1.642 -2.0982  0.0448 -1.8673
 4553TIP3    H213666   1.246   1.252   1.741  0.1475  0.6878  0.2562
 4554TIP3   OH213667   3.342   2.114   1.880  0.2699 -0.1178  0.0132
 4554TIP3    H113668   3.399   2.077   1.813  1.0939  0.2714  0.4773
 4554TIP3    H213669   3.294   2.039   1.916  2.2792 -0.8688  1.3023
 4555TIP3   OH213670   3.076   2.295   3.889  0.2165 -0.1005  0.1614
 4555TIP3    H113671   3.021   2.295   3.967 -0.7738  0.9399 -0.4883
 4555TIP3    H213672   3.098   2.387   3.875  1.7973 -0.4626  0.1606
 4556TIP3   OH213673   1.889   4.045   3.099  0.1838 -0.5140  1.3903
 4556TIP3    H113674   1.800   4.080   3.101 -0.5770 -2.1383 -0.7873
 4556TIP3    H213675   1.908   4.032   3.006  2.5805 -0.5444  1.8246
 4557TIP3   OH213676   1.461   4.975   3.364 -0.1644 -0.2793 -0.3775
 4557TIP3    H113677   1.536   4.937   3.410 -0.7441 -1.0942 -0.0795
 4557TIP3    H213678   1.458   4.929   3.280 -1.8767 -2.1999  0.6471
 4558TIP3   OH213679   1.134   1.828   0.307 -0.1579  0.1576 -0.1260
 4558TIP3    H113680   1.046   1.790   0.300  0.1360 -0.6069  0.1839
 4558TIP3    H213681   1.119   1.922   0.320 -0.9024  0.1807 -1.0525
 4559TIP3   OH213682   1.045   1.214   4.298  0.1166  0.2566 -0.3466
 4559TIP3    H113683   1.028   1.123   4.271 -0.0377  0.7396 -1.9942
 4559TIP3    H213684   1.130   1.235   4.260  0.6917  0.4615  1.0041
 4560TIP3   OH213685   4.301   5.058   0.479 -0.0165  0.1201  0.4705
 4560TIP3    H113686   4.248   5.061   0.399 -1.8345  1.2525  1.6402
 4560TIP3    H213687   4.345   5.143   0.481 -0.9862  0.6213  1.2849
 4561TIP3   OH213688   0.416   3.053   3.207  0.2612  0.0167  0.1497
 4561TIP3    H113689   0.354   3.005   3.263 -1.7858  1.7039 -0.5133
 4561TIP3    H213690   0.457   3.116   3.266  0.2593 -0.1490  0.3286
 4562TIP3   OH213691   1.635   5.410   4.770  0.2942 -0.1750 -0.3148
 4562TIP3    H113692   1.594   5.367   4.845  0.6253  1.3614  0.7938
 4562TIP3    H213693   1.728   5.388   4.778  0.6557  1.5213  0.9017
 4563TIP3   OH213694   2.953   5.439   4.676 -0.0306  0.4527  0.0347
 4563TIP3    H113695   2.933   5.432   4.582 -1.3672  0.4732  0.2909
 4563TIP3    H213696   3.043   5.469   4.679  0.0049  0.5530 -1.2509
 4564TIP3   OH213697   3.707   2.453   4.057 -0.8009 -0.2932 -0.7536
 4564TIP3    H113698   3.758   2.506   4.119 -0.8231 -1.9584  0.7958
 4564TIP3    H213699   3.644   2.406   4.112 -1.5144 -1.0795 -2.1825
 4565TIP3   OH213700   6.319   5.522   4.661 -0.0990 -0.0572  0.1512
 4565TIP3    H113701   6.261   5.449   4.681 -2.4725  1.9433  1.1126
 4565TIP3    H213702   6.287   5.557   4.578  0.3301  0.5193  0.2179
 4566TIP3   OH213703   5.342   3.668   3.226 -0.0025  0.0403  0.6123
 4566TIP3    H113704   5.286   3.640   3.299  0.5066 -0.0758  0.9585
 4566TIP3    H213705   5.285   3.724   3.173 -0.6558 -0.6193  0.5936
 4567TIP3   OH213706   4.147   0.834   0.154  0.4218  0.4787  0.2262
 4567TIP3    H113707   4.227   0.861   0.199  0.9356  0.9861 -0.9311
 4567TIP3    H213708   4.098   0.784   0.219  1.8215 -0.1128  0.8637
 4568TIP3   OH213709   2.121   2.917   0.578  0.7861  0.0826 -0.2330
 4568TIP3    H113710   2.109   2.985   0.645 -1.2485 -0.4243 -0.0186
 4568TIP3    H213711   2.215   2.901   0.577  1.0215  1.0748  1.5444
 4569TIP3   OH213712   1.840   4.862   4.908  0.1401 -0.1283  0.1220
 4569TIP3    H113713   1.801   4.817   4.983 -0.3967 -1.7665 -1.0901
 4569TIP3    H213714   1.928   4.886   4.938 -0.8239  1.3659  2.0364
 4570TIP3   OH213715   4.900   4.593   1.954  0.4881  0.1950  0.0363
 4570TIP3    H113716   4.864   4.663   1.899  0.7518 -0.2976 -0.7783
 4570TIP3    H213717   4.977   4.562   1.906  0.8739 -0.0735  0.8146
 4571TIP3   OH213718   2.627   2.028   1.698 -0.1956 -0.0717  0.1163
 4571TIP3    H113719   2.536   2.012   1.672  0.1826 -0.1805 -1.1655
 4571TIP3    H213720   2.619   2.071   1.784 -1.4266 -0.6611  0.3216
 4572TIP3   OH213721  -0.006   3.875   4.004  0.4432  0.1093  0.3078
 4572TIP3    H113722   0.062   3.836   4.059  1.6337  0.6645 -0.7499
 4572TIP3    H213723   0.002   3.830   3.920  0.9942  1.7057 -0.5234
 4573TIP3   OH213724   5.606   0.016   0.303 -0.1022 -0.2754 -0.9028
 4573TIP3    H113725   5.664  -0.056   0.327 -0.6163 -0.6420 -0.7644
 4573TIP3    H213726   5.595   0.066   0.385  1.2993  0.7246 -1.2790
 4574TIP3   OH213727   1.645   0.583   5.167 -0.0351  0.2517 -0.1306
 4574TIP3    H113728   1.663   0.506   5.220 -1.8399 -0.4178 -0.3977
 4574TIP3    H213729   1.549   0.589   5.165  0.0464  2.5606 -0.0578
 4575TIP3   OH213730   2.278   5.283   0.637 -0.3046  0.0089  0.0669
 4575TIP3    H113731   2.184   5.268   0.630 -0.4778 -0.6529  2.6363
 4575TIP3    H213732   2.312   5.268   0.549 -2.4608 -0.7486 -0.7002
 4576TIP3   OH213733   0.647   0.897   2.823 -0.4578  0.3156 -0.7498
 4576TIP3    H113734   0.658   0.895   2.728 -1.5185 -0.8697 -0.8749
 4576TIP3    H213735   0.588   0.971   2.838  1.0148  1.5510 -0.8286
 4577TIP3   OH213736   3.753   2.837   2.762  0.0972 -0.4199 -0.0646
 4577TIP3    H113737   3.742   2.802   2.850 -1.7596  0.9866  0.3049
 4577TIP3    H213738   3.808   2.914   2.773  3.8928 -2.7203 -0.8398
 4578TIP3   OH213739   1.852   1.435   3.070 -0.5680  0.8484  0.5206
 4578TIP3    H113740   1.805   1.496   3.128 -0.5377  1.5840 -0.2186
 4578TIP3    H213741   1.894   1.491   3.005 -1.9278 -0.0393 -1.2007
 4579TIP3   OH213742   2.184   0.575   4.143 -0.5015 -0.4593  0.0786
 4579TIP3    H113743   2.103   0.563   4.093 -1.4054 -1.4076  1.6926
 4579TIP3    H213744   2.212   0.664   4.121 -1.1775 -0.6178 -1.6160
 4580TIP3   OH213745   3.392   3.926   3.841  0.3852 -0.3904  1.3541
 4580TIP3    H113746   3.402   3.857   3.775 -0.5997  0.5313  0.1970
 4580TIP3    H213747   3.451   3.900   3.912  1.1542 -1.6356  0.3023
 4581TIP3   OH213748   2.051   2.369   2.732  0.0610 -0.0723 -0.3013
 4581TIP3    H113749   2.124   2.394   2.790 -1.3732 -1.8114  2.4591
 4581TIP3    H213750   2.050   2.273   2.736 -0.8055 -0.1953 -2.4235
 4582TIP3   OH213751   3.012   3.270   4.398 -0.3169  0.1405  1.0152
 4582TIP3    H113752   2.927   3.269   4.443 -0.0893  0.2175  1.4484
 4582TIP3    H213753   3.075   3.241   4.464 -0.0646 -0.3625  0.5616
 4583TIP3   OH213754   4.184   5.419   2.220 -0.0969 -0.0472  0.3730
 4583TIP3    H113755   4.251   5.472   2.263  1.3579 -0.8858 -0.7635
 4583TIP3    H213756   4.147   5.477   2.153  1.4450 -0.3798 -0.8264
 4584TIP3   OH213757   4.034   1.700   4.394  0.2644 -0.0875  0.1040
 4584TIP3    H113758   4.107   1.693   4.456 -0.6069 -3.0711  0.9775
 4584TIP3    H213759   3.960   1.728   4.446  0.0760 -0.2328 -0.0839
 4585TIP3   OH213760   1.029   1.060   3.603  0.8863  0.1189  0.5638
 4585TIP3    H113761   1.008   1.153   3.591  0.0609 -0.0444  0.7232
 4585TIP3    H213762   1.014   1.021   3.517  2.3888  0.3383  0.1794
 4586TIP3   OH213763   1.641   0.553   1.723  0.0104  0.1263 -0.2486
 4586TIP3    H113764   1.672   0.518   1.806 -0.4850  2.1732  0.8719
 4586TIP3    H213765   1.710   0.613   1.695 -0.1373 -0.0349 -0.9930
 4587TIP3   OH213766   5.435   1.535   5.063 -0.3400 -0.1256  0.0747
 4587TIP3    H113767   5.438   1.522   5.158 -0.5018  2.3436  0.4942
 4587TIP3    H213768   5.401   1.624   5.052  0.1652 -0.1545 -2.2896
 4588TIP3   OH213769   6.030   3.277   0.866 -0.1354 -1.1977  0.3304
 4588TIP3    H113770   5.993   3.348   0.918 -0.1646 -1.2581  0.3912
 4588TIP3    H213771   5.970   3.268   0.792 -0.5225 -1.6398  0.6953
 4589TIP3   OH213772   4.165   2.765   0.986  0.1682  0.0217 -0.4546
 4589TIP3    H113773   4.100   2.783   1.054 -0.1951  0.6889 -0.9662
 4589TIP3    H213774   4.218   2.845   0.983  0.1663  0.0067 -0.9686
 4590TIP3   OH213775   2.575   2.401   0.570 -0.0649  0.0544 -0.9772
 4590TIP3    H113776   2.576   2.497   0.578 -0.2210  0.1673 -2.1461
 4590TIP3    H213777   2.490   2.375   0.606 -0.0658  0.3597 -0.7508
 4591TIP3   OH213778   1.833   2.911   1.389 -0.7518  0.0101 -0.7373
 4591TIP3    H113779   1.763   2.863   1.344 -1.6670 -0.0410  0.6943
 4591TIP3    H213780   1.805   2.916   1.480 -0.4447  2.7578 -0.6821
 4592TIP3   OH213781   3.970   1.535   3.296 -0.3822 -0.3171  0.1257
 4592TIP3    H113782   4.039   1.560   3.234 -0.8026 -0.6565 -0.5006
 4592TIP3    H213783   4.003   1.560   3.382  0.2939  0.0008 -0.2245
 4593TIP3   OH213784   3.281   2.270   0.704  0.3907  0.0474  0.1144
 4593TIP3    H113785   3.235   2.354   0.704  1.1968  0.5493 -1.8553
 4593TIP3    H213786   3.226   2.212   0.652 -1.1933 -1.3566  3.1058
 4594TIP3   OH213787   0.511   1.980   0.581  0.1747  0.2907 -0.0214
 4594TIP3    H113788   0.547   2.034   0.511  0.7329 -0.8379 -0.6272
 4594TIP3    H213789   0.588   1.954   0.632 -0.3138  2.0546  1.7564
 4595TIP3   OH213790   4.910   5.103   3.291 -0.3491 -0.0796 -0.0324
 4595TIP3    H113791   4.996   5.115   3.331  0.5808 -1.3165 -1.5303
 4595TIP3    H213792   4.853   5.164   3.338  1.1618  0.2379  1.5127
 4596TIP3   OH213793   4.943   3.921   0.724  0.1984 -0.0411 -0.5050
 4596TIP3    H113794   4.848   3.933   0.718  0.3726  1.2720 -0.8410
 4596TIP3    H213795   4.966   3.950   0.812  0.1623 -1.4390 -0.0058
 4597TIP3   OH213796   1.538   1.545   5.097  0.4100  0.1499 -0.0819
 4597TIP3    H113797   1.458   1.543   5.150  0.0280  1.1904 -0.5844
 4597TIP3    H213798   1.569   1.635   5.104  1.2658 -0.1167 -0.3013
 4598TIP3   OH213799   6.041   0.630   0.118 -0.5510 -0.9343  0.5357
 4598TIP3    H113800   6.017   0.572   0.046 -0.1965 -1.3910  0.7785
 4598TIP3    H213801   6.121   0.592   0.153  0.8920  0.8672 -0.6268
 4599TIP3   OH213802   1.032   0.415   2.796 -0.1108 -0.1189  0.4092
 4599TIP3    H113803   1.059   0.420   2.887 -0.2621  0.6922  0.4190
 4599TIP3    H213804   1.072   0.492   2.754 -0.6705 -0.0537 -0.0298
 4600TIP3   OH213805   2.349   1.010   3.569 -0.8935 -0.0221 -0.2522
 4600TIP3    H113806   2.407   0.939   3.595  0.2214  1.3775  1.2974
 4600TIP3    H213807   2.407   1.087   3.563 -2.2889  1.0489 -0.4357
 4601TIP3   OH213808   2.846   1.126   4.888  0.2253  0.1561  0.1628
 4601TIP3    H113809   2.910   1.074   4.936  2.1973  1.3960 -0.9669
 4601TIP3    H213810   2.874   1.217   4.902 -2.5551  0.9377  1.3147
 4602TIP3   OH213811   5.355   4.443   1.011 -0.3222  0.7764 -0.2554
 4602TIP3    H113812   5.333   4.529   0.975  1.5902  1.2217 -0.4413
 4602TIP3    H213813   5.450   4.436   1.002 -0.4091 -1.2810 -0.0485
 4603TIP3   OH213814   5.987   1.683   4.495 -0.1303 -0.4641 -0.3362
 4603TIP3    H113815   6.031   1.735   4.428  0.8933 -1.3359 -0.3692
 4603TIP3    H213816   5.979   1.595   4.457 -0.3880 -0.7349  0.3191
 4604TIP3   OH213817   6.233   5.174   2.844  0.2771  0.0653 -0.5611
 4604TIP3    H113818   6.161   5.120   2.811  0.5036  0.0948 -1.1165
 4604TIP3    H213819   6.309   5.147   2.792  0.6019  0.2452 -0.1853
 4605TIP3   OH213820   5.191   1.723   2.916 -0.1392 -0.0296  0.0080
 4605TIP3    H113821   5.170   1.730   3.009  2.1325 -0.9245  0.6633
 4605TIP3    H213822   5.110   1.690   2.875 -0.9802 -0.2291  1.7518
 4606TIP3   OH213823   5.440   1.759   4.392 -0.4828  0.0993 -0.6564
 4606TIP3    H113824   5.513   1.723   4.343 -0.0974  1.2814 -0.9926
 4606TIP3    H213825   5.429   1.848   4.358 -0.3257  0.8983  1.2417
 4607TIP3   OH213826   0.732   0.026   1.284  0.1351 -0.5917 -0.0566
 4607TIP3    H113827   0.759  -0.062   1.257 -0.7983 -0.4991 -1.4290
 4607TIP3    H213828   0.754   0.082   1.209 -1.1791 -0.0312 -0.0529
 4608TIP3   OH213829   4.194   0.392   0.780  0.1294  0.0293 -0.3115
 4608TIP3    H113830   4.204   0.403   0.875  0.6973  0.3433 -0.4012
 4608TIP3    H213831   4.274   0.346   0.753  0.4064  0.7510 -0.7658
 4609TIP3   OH213832   4.419   3.063   0.114 -0.6269 -0.0323  0.1410
 4609TIP3    H113833   4.499   3.044   0.064 -0.1922  2.0705 -0.0901
 4609TIP3    H213834   4.348   3.055   0.050 -0.3620  0.0179 -0.1649
 4610TIP3   OH213835   0.198   4.708   3.809  0.5001  0.0206 -0.3025
 4610TIP3    H113836   0.175   4.615   3.817  0.7859 -0.0199  0.0330
 4610TIP3    H213837   0.236   4.731   3.893  3.1840 -0.3267 -1.3334
 4611TIP3   OH213838   4.892   0.268   1.769  0.3431  0.0799  0.2703
 4611TIP3    H113839   4.893   0.364   1.768  0.6068  0.1078  1.3182
 4611TIP3    H213840   4.920   0.243   1.681 -1.5536  0.9381 -0.6391
 4612TIP3   OH213841   2.943   1.319   3.543  0.1458  0.3599 -0.3756
 4612TIP3    H113842   2.882   1.246   3.553 -0.3716  0.7534 -0.5914
 4612TIP3    H213843   2.962   1.321   3.449  0.8840 -0.0656 -0.2434
 4613TIP3   OH213844   0.763   2.757   1.544 -0.4359 -0.2202  0.3840
 4613TIP3    H113845   0.770   2.741   1.638 -0.4293 -0.2124  0.3848
 4613TIP3    H213846   0.673   2.786   1.531 -0.7020 -1.0681  0.2646
 4614TIP3   OH213847   5.733   1.600   4.777 -0.1620  1.0072  0.5723
 4614TIP3    H113848   5.697   1.514   4.756 -0.9304  1.3450  0.4780
 4614TIP3    H213849   5.795   1.583   4.848 -0.0045  0.3242  0.2825
 4615TIP3   OH213850   1.122   0.182   4.014 -0.2825  0.4197  0.2217
 4615TIP3    H113851   1.196   0.240   4.036  0.6925 -1.3565  1.9419
 4615TIP3    H213852   1.067   0.185   4.092 -0.9545  0.1045 -0.2399
 4616TIP3   OH213853   1.824   1.282   4.428 -0.4289 -0.2080  0.6048
 4616TIP3    H113854   1.797   1.283   4.336 -1.1189  1.2183  0.7925
 4616TIP3    H213855   1.795   1.367   4.462  1.1434 -0.0998  1.7680
 4617TIP3   OH213856   4.078   0.860   3.617 -0.5558  0.0724 -0.2494
 4617TIP3    H113857   4.049   0.779   3.574 -0.9686  0.6310 -1.0470
 4617TIP3    H213858   4.054   0.848   3.709 -0.8646 -0.6021 -0.4122
 4618TIP3   OH213859   0.873   4.837   0.872  0.4332  0.0896 -0.0379
 4618TIP3    H113860   0.954   4.835   0.821  1.3399  0.2643  1.3498
 4618TIP3    H213861   0.853   4.745   0.888 -0.0894  0.0170 -1.0386
 4619TIP3   OH213862   3.988   4.177   4.978 -0.4928 -0.1935 -0.1098
 4619TIP3    H113863   3.902   4.219   4.984 -0.9246 -1.1892  1.6756
 4619TIP3    H213864   4.046   4.234   5.029 -0.7307 -0.8671  0.9626
 4620TIP3   OH213865   0.924   5.197   1.005  0.4025 -0.2126 -0.1677
 4620TIP3    H113866   0.956   5.120   1.053  0.0313 -0.3278 -0.0956
 4620TIP3    H213867   0.900   5.163   0.919  1.9978  0.1821 -0.7845
 4621TIP3   OH213868   3.325   2.046   3.303 -0.2008 -0.0667 -0.1224
 4621TIP3    H113869   3.280   1.961   3.307  1.5599 -1.1995 -2.1824
 4621TIP3    H213870   3.270   2.099   3.245  0.2139 -0.8700 -1.2794
 4622TIP3   OH213871   2.178   4.884   4.711  0.1411 -0.2772 -0.0795
 4622TIP3    H113872   2.166   4.969   4.670  1.4614  0.1906  0.4517
 4622TIP3    H213873   2.114   4.883   4.782 -0.7440 -0.2620 -0.8570
 4623TIP3   OH213874   5.591   1.178   3.037  0.1127  0.3034  0.7954
 4623TIP3    H113875   5.668   1.202   2.985 -0.0290  2.5349  1.5121
 4623TIP3    H213876   5.519   1.228   2.999 -0.1102  1.5256  2.6858
 4624TIP3   OH213877   2.099   3.791   5.065 -0.2283  0.3187 -0.2639
 4624TIP3    H113878   2.165   3.753   5.007 -0.0133  0.6758 -0.2564
 4624TIP3    H213879   2.120   3.756   5.152 -0.6995 -0.4104 -0.4350
 4625TIP3   OH213880   0.982   4.382   0.039 -0.1068 -0.2096  0.7015
 4625TIP3    H113881   0.913   4.316   0.036  0.0375 -0.3440 -2.7939
 4625TIP3    H213882   0.943   4.461   0.002  1.1224  0.1931  0.1932
 4626TIP3   OH213883   1.613   1.095   4.973 -0.0639  0.4005  0.8817
 4626TIP3    H113884   1.519   1.076   4.969 -0.3307  1.7137 -2.3767
 4626TIP3    H213885   1.651   1.020   5.018 -2.3736 -1.6817 -0.3937
 4627TIP3   OH213886   5.789   5.687   5.136  0.5138  0.2351 -0.0329
 4627TIP3    H113887   5.854   5.646   5.079 -0.7417 -2.4676  0.3309
 4627TIP3    H213888   5.788   5.633   5.215 -2.8012 -0.5177 -0.4200
 4628TIP3   OH213889   2.369   4.244   2.139  0.1529  0.0056  1.0546
 4628TIP3    H113890   2.415   4.294   2.206 -0.2944 -0.0472  1.4068
 4628TIP3    H213891   2.277   4.267   2.151  0.2247  1.5896 -0.8451
 4629TIP3   OH213892   0.184   5.142   0.054  0.8556 -1.1429  0.1884
 4629TIP3    H113893   0.152   5.200  -0.016  1.2190  0.5486  1.3851
 4629TIP3    H213894   0.277   5.161   0.060  0.8651 -1.4392  0.9918
 4630TIP3   OH213895   0.679   1.478   4.635 -0.1380 -0.3043 -0.8909
 4630TIP3    H113896   0.749   1.435   4.587  1.6558  1.4845 -0.0059
 4630TIP3    H213897   0.687   1.571   4.612  0.3058  0.5259  2.1568
 4631TIP3   OH213898   5.298   4.839   0.899 -0.4213 -0.5757 -0.2317
 4631TIP3    H113899   5.343   4.755   0.903 -0.4432 -0.5548  1.9992
 4631TIP3    H213900   5.311   4.877   0.986  0.5025  2.2405 -1.4766
 4632TIP3   OH213901   5.017   3.359   3.820 -0.3655  0.1302 -0.1857
 4632TIP3    H113902   5.014   3.266   3.798 -0.2544  0.0210  0.2491
 4632TIP3    H213903   4.932   3.393   3.792 -0.5946 -0.2028  0.0947
 4633TIP3   OH213904   4.236   0.770   4.040  0.4723  0.6284  0.3150
 4633TIP3    H113905   4.268   0.697   4.093  0.0882 -0.2487 -0.6220
 4633TIP3    H213906   4.145   0.748   4.022  0.6713  0.7432 -0.9415
 4634TIP3   OH213907   1.521   2.505   0.291 -0.9479 -0.0994 -0.6768
 4634TIP3    H113908   1.609   2.478   0.318 -0.2232  0.7902 -2.0357
 4634TIP3    H213909   1.463   2.453   0.346  0.4193 -0.1029  0.8494
 4635TIP3   OH213910   3.970   1.582   2.826 -0.2996  0.0068 -0.5606
 4635TIP3    H113911   3.922   1.611   2.904  1.5331  0.4363  0.4722
 4635TIP3    H213912   4.006   1.662   2.789  1.1960 -0.4651 -0.1912
 4636TIP3   OH213913   0.586   5.097   3.219 -0.4302  0.3895 -0.0621
 4636TIP3    H113914   0.585   5.041   3.296  1.6475  0.1051 -0.1775
 4636TIP3    H213915   0.659   5.064   3.166 -1.6061  0.7718 -2.0152
 4637TIP3   OH213916   2.936   2.537   4.926  0.4335  0.5118  0.1425
 4637TIP3    H113917   2.936   2.618   4.977 -0.0402  0.8323 -0.3534
 4637TIP3    H213918   2.854   2.493   4.949  1.0065 -0.1783  0.9357
 4638TIP3   OH213919   5.053   1.487   1.222  0.1077  0.5785  0.1371
 4638TIP3    H113920   5.136   1.535   1.222  1.5862 -1.8485  0.0779
 4638TIP3    H213921   5.056   1.434   1.302 -0.5721 -0.8293 -0.7334
 4639TIP3   OH213922   5.981   2.382   0.621  0.3560 -0.4195 -1.0042
 4639TIP3    H113923   5.981   2.463   0.569  0.7389 -0.7102 -1.4674
 4639TIP3    H213924   6.063   2.339   0.597  2.0597  0.8134  2.0326
 4640TIP3   OH213925   5.788   2.227   0.759  0.8788 -0.5255 -0.2920
 4640TIP3    H113926   5.865   2.270   0.721  1.2069 -0.0278  0.8791
 4640TIP3    H213927   5.774   2.272   0.842 -0.1079 -1.2531 -0.0421
 4641TIP3   OH213928   4.043   0.607   1.857  0.0077 -0.1302 -0.5083
 4641TIP3    H113929   4.137   0.606   1.872  0.3843 -0.6584 -2.5292
 4641TIP3    H213930   4.008   0.666   1.923  1.9728  1.3744 -0.7304
 4642TIP3   OH213931   5.019   4.670   3.473  0.4899  0.6254 -0.0556
 4642TIP3    H113932   4.932   4.634   3.489  0.7525  0.9135  2.2738
 4642TIP3    H213933   5.036   4.652   3.380 -1.1244 -1.4121 -0.0039
 4643TIP3   OH213934   5.183   3.884   1.348  0.3361  0.1946 -0.5943
 4643TIP3    H113935   5.173   3.979   1.338 -0.9594 -0.0258 -1.5378
 4643TIP3    H213936   5.249   3.861   1.282  0.0823  0.3312 -0.8989
 4644TIP3   OH213937   1.690   1.797   3.955  0.4527  0.2174  0.1624
 4644TIP3    H113938   1.748   1.755   4.018  2.5330  2.6632  0.0448
 4644TIP3    H213939   1.610   1.746   3.958  0.9028 -0.5449  3.8398
 4645TIP3   OH213940   4.984   1.441   4.901 -0.3562  0.2931 -0.2959
 4645TIP3    H113941   4.947   1.457   4.987 -0.3246 -1.4076  0.0748
 4645TIP3    H213942   5.072   1.406   4.919 -0.4466 -0.3271 -0.9900
 4646TIP3   OH213943   4.423   3.589   2.203 -0.0408 -0.1034 -0.3802
 4646TIP3    H113944   4.436   3.665   2.146 -0.6214  1.0093  0.9088
 4646TIP3    H213945   4.330   3.592   2.227  0.1685 -0.5653  0.5714
 4647TIP3   OH213946   5.047   1.966   1.179 -0.3567 -0.3252  0.0151
 4647TIP3    H113947   4.977   1.930   1.124 -0.2205 -2.0852  0.9376
 4647TIP3    H213948   5.007   1.979   1.264  0.4007 -1.3640  0.5577
 4648TIP3   OH213949   1.694   2.181   0.576  0.7164  0.2412 -0.2422
 4648TIP3    H113950   1.776   2.167   0.624 -0.4373  1.6059  2.3265
 4648TIP3    H213951   1.629   2.131   0.625 -0.2373  0.2187 -1.4931
 4649TIP3   OH213952   4.218   3.000   2.158  0.4915 -0.2022 -0.0978
 4649TIP3    H113953   4.199   3.075   2.215 -1.0492 -1.0015  0.4836
 4649TIP3    H213954   4.177   2.925   2.202  2.5535 -1.5463 -0.3157
 4650TIP3   OH213955   4.169   4.451   2.358  0.6217  0.2002 -0.7048
 4650TIP3    H113956   4.202   4.468   2.270 -0.0755 -0.6913 -1.1563
 4650TIP3    H213957   4.231   4.387   2.395 -0.3484 -1.2281 -1.4347
 4651TIP3   OH213958   1.463   4.695   5.035  0.2517 -0.0898  0.2257
 4651TIP3    H113959   1.401   4.730   4.971  0.4140 -0.8206 -0.3427
 4651TIP3    H213960   1.526   4.645   4.983 -1.1850 -3.0658  1.1117
 4652TIP3   OH213961   0.032   5.076   0.323  0.0203  0.4300 -0.2259
 4652TIP3    H113962  -0.007   5.162   0.339 -1.9722 -0.1919 -1.3762
 4652TIP3    H213963   0.018   5.061   0.229  0.8783 -0.8888 -0.1622
 4653TIP3   OH213964   4.048   4.483   1.638 -0.7989  0.1295  0.2820
 4653TIP3    H113965   4.042   4.528   1.554 -0.1392  0.0828  0.2015
 4653TIP3    H213966   4.124   4.523   1.681  1.0848 -2.2371 -0.6305
 4654TIP3   OH213967   1.712   5.793   0.052 -0.3426  0.0503 -0.3781
 4654TIP3    H113968   1.670   5.718   0.093 -0.5644 -0.0288 -0.7423
 4654TIP3    H213969   1.673   5.869   0.096  0.3681 -0.0485  0.4555
 4655TIP3   OH213970   2.038   5.421   5.141 -0.4680  0.4763  0.3369
 4655TIP3    H113971   1.968   5.477   5.174 -1.5349 -0.7645  0.2552
 4655TIP3    H213972   2.106   5.427   5.207 -1.2777  0.5095  1.1912
 4656TIP3   OH213973   0.397   3.421   3.607 -0.1715 -0.1052 -0.4751
 4656TIP3    H113974   0.347   3.500   3.630  1.3445  1.2923 -1.7038
 4656TIP3    H213975   0.341   3.375   3.545 -0.4051  0.8860 -1.0260
 4657TIP3   OH213976   5.217   2.587   1.605  0.4856 -0.4346 -0.1089
 4657TIP3    H113977   5.275   2.525   1.560  2.2125  0.2891  0.9877
 4657TIP3    H213978   5.253   2.673   1.584  0.0172  0.0191  0.8857
 4658TIP3   OH213979   1.670   3.603   3.744 -0.4358 -0.0154  0.3058
 4658TIP3    H113980   1.609   3.543   3.701 -0.8419  0.1118  0.6995
 4658TIP3    H213981   1.736   3.622   3.677 -1.3909  0.6604 -0.4526
 4659TIP3   OH213982   1.942   2.730   0.736 -0.4801 -0.5215  0.2975
 4659TIP3    H113983   2.000   2.774   0.674  0.7221  0.9085  2.2856
 4659TIP3    H213984   1.946   2.638   0.712  0.1764 -0.0595 -1.5167
 4660TIP3   OH213985   0.475   3.205   0.247  0.0291 -0.2620  0.0964
 4660TIP3    H113986   0.449   3.258   0.172  1.3830  0.7383  0.2859
 4660TIP3    H213987   0.497   3.269   0.315 -0.1267 -1.1266  0.9829
 4661TIP3   OH213988   3.123   2.427   3.443  0.1466  0.0528 -0.0437
 4661TIP3    H113989   3.086   2.481   3.514 -0.0813  0.7412 -0.6738
 4661TIP3    H213990   3.119   2.338   3.477 -0.1307  0.3494  0.7426
 4662TIP3   OH213991   2.047   1.944   1.753 -0.2308 -0.1436 -0.1890
 4662TIP3    H113992   1.977   1.972   1.693  0.4133  0.9821 -0.4389
 4662TIP3    H213993   2.062   1.852   1.730 -0.7585 -0.0419 -1.0063
 4663TIP3   OH213994   3.118   5.636   1.788  0.0304 -0.3967 -0.1944
 4663TIP3    H113995   3.111   5.542   1.769 -2.0493 -0.8684  2.3617
 4663TIP3    H213996   3.051   5.652   1.854 -0.1741  3.0875 -1.0537
 4664TIP3   OH213997   2.272   3.036   2.262 -0.4793  0.3047 -0.0604
 4664TIP3    H113998   2.182   3.054   2.237 -0.1331  1.1028 -0.7637
 4664TIP3    H213999   2.266   3.008   2.353 -1.3317  1.4454  0.2630
 4665TIP3   OH214000   1.201   1.937   4.793 -0.2638 -0.1896 -0.5923
 4665TIP3    H114001   1.156   1.894   4.866  0.8336  0.1682  0.3112
 4665TIP3    H214002   1.239   1.865   4.742 -0.3646 -0.3990 -0.3712
 4666TIP3   OH214003   5.540   4.580   4.510  0.4095 -0.6228  0.7733
 4666TIP3    H114004   5.588   4.641   4.566 -0.6712  2.1082 -1.0369
 4666TIP3    H214005   5.448   4.601   4.525  0.0665 -0.5054 -1.2035
 4667TIP3   OH214006   5.102   1.901   4.303 -0.2733  0.2944 -0.0769
 4667TIP3    H114007   5.193   1.887   4.275 -0.3394  0.1388 -0.2155
 4667TIP3    H214008   5.059   1.939   4.227 -0.2178  0.7972  0.1361
 4668TIP3   OH214009   5.222   3.792   2.296  0.1606 -0.0308  0.2087
 4668TIP3    H114010   5.317   3.787   2.287  0.2051  0.8638 -0.0115
 4668TIP3    H214011   5.192   3.821   2.209 -0.5408 -2.4666 -0.4173
 4669TIP3   OH214012   3.840   2.636   2.256 -0.2211  0.7173  0.3498
 4669TIP3    H114013   3.854   2.707   2.193  1.2893  0.7785  0.7178
 4669TIP3    H214014   3.907   2.649   2.323  1.6137 -2.3195 -0.7210
 4670TIP3   OH214015   2.713   3.475   2.656  0.2345 -0.1035 -0.3153
 4670TIP3    H114016   2.677   3.561   2.633 -0.4835 -0.6302 -1.2623
 4670TIP3    H214017   2.771   3.492   2.729  0.5941  1.2926 -0.8879
 4671TIP3   OH214018   3.403   2.659   1.790  0.6860  0.5256  0.1354
 4671TIP3    H114019   3.345   2.670   1.865  0.5291  0.2825  0.0522
 4671TIP3    H214020   3.462   2.734   1.794  1.1242  0.1490  0.9021
 4672TIP3   OH214021   1.373   0.597   1.011 -0.3237  0.4498  0.2006
 4672TIP3    H114022   1.466   0.618   1.017 -0.3295  0.9147 -1.0150
 4672TIP3    H214023   1.361   0.524   1.071  1.2559 -0.9685 -1.0937
 4673TIP3   OH214024   4.095   2.438   5.005  0.1216  0.6864  0.2678
 4673TIP3    H114025   4.034   2.364   4.999  0.0341  0.8560 -1.4550
 4673TIP3    H214026   4.107   2.466   4.915  2.2705  1.0713  0.6309
 4674TIP3   OH214027   4.540   0.568   2.966  0.0928 -0.0700 -0.5165
 4674TIP3    H114028   4.533   0.571   3.061 -0.8265  0.2713 -0.5762
 4674TIP3    H214029   4.524   0.476   2.944  0.0614 -0.1036 -0.3579
 4675TIP3   OH214030   3.447   0.274   3.872  0.4882  0.2404 -0.1563
 4675TIP3    H114031   3.382   0.301   3.937  0.4592 -0.3370  0.0631
 4675TIP3    H214032   3.403   0.288   3.788  1.1573  2.6745 -0.1756
 4676TIP3   OH214033   1.842   5.842   5.150  0.4338 -1.0660 -0.0447
 4676TIP3    H114034   1.826   5.748   5.152  1.1676 -1.2373  2.9282
 4676TIP3    H214035   1.756   5.881   5.165 -0.0528 -1.1606 -2.3196
 4677TIP3   OH214036   6.093   5.482   2.067  0.2471  0.1306 -0.2772
 4677TIP3    H114037   6.051   5.455   2.149  1.6559  0.6719  0.6366
 4677TIP3    H214038   6.136   5.565   2.087  1.8435 -0.4504 -1.1479
 4678TIP3   OH214039   2.693   2.662   2.045 -0.0556  0.0197  0.1270
 4678TIP3    H114040   2.770   2.712   2.019  1.8127 -2.0981  1.1668
 4678TIP3    H214041   2.625   2.727   2.060  1.6581  2.0204 -0.3683
 4679TIP3   OH214042   2.945   1.805   1.496 -0.3335  0.3092 -0.0120
 4679TIP3    H114043   3.026   1.756   1.512 -0.4969 -0.0791 -0.3566
 4679TIP3    H214044   2.954   1.884   1.550  0.5763  0.6054 -0.5727
 4680TIP3   OH214045   1.700   2.496   1.281  0.2219 -0.3476  0.0286
 4680TIP3    H114046   1.784   2.515   1.239  0.9519 -1.0059  1.1444
 4680TIP3    H214047   1.655   2.580   1.283  0.9418  0.0639 -0.3812
 4681TIP3   OH214048   5.186   2.648   4.288 -0.0140  0.0705  0.2181
 4681TIP3    H114049   5.264   2.620   4.336 -1.4208 -0.9867  2.0155
 4681TIP3    H214050   5.163   2.733   4.326  0.4410  0.5696 -0.5820
 4682TIP3   OH214051   6.197   1.342   5.109  0.0049 -0.1190  0.5095
 4682TIP3    H114052   6.160   1.428   5.129  2.2788  0.8144  1.1205
 4682TIP3    H214053   6.223   1.347   5.017 -0.5022 -0.4311  0.3440
 4683TIP3   OH214054   3.665   4.062   2.561  0.4175 -0.0459  0.7259
 4683TIP3    H114055   3.754   4.063   2.525  0.8088 -0.8146  1.6403
 4683TIP3    H214056   3.644   4.154   2.576  0.1065  0.3501 -1.7306
 4684TIP3   OH214057   3.029   4.520   1.195  0.2060 -0.5067  0.2812
 4684TIP3    H114058   2.994   4.576   1.265  1.2048 -0.5400  0.8217
 4684TIP3    H214059   3.066   4.581   1.132  0.2116 -0.5132  0.2783
 4685TIP3   OH214060   5.624   2.875   3.430 -0.4860 -0.1040 -0.2791
 4685TIP3    H114061   5.591   2.959   3.463  1.8772  1.2951 -1.2335
 4685TIP3    H214062   5.657   2.895   3.343  0.1248 -2.0602 -0.5347
 4686TIP3   OH214063   2.532   5.438   1.454  0.0959 -0.1241  0.5928
 4686TIP3    H114064   2.536   5.494   1.532 -0.4873  0.8430 -0.0529
 4686TIP3    H214065   2.448   5.393   1.462 -0.1380  0.2655  0.3292
 4687TIP3   OH214066   0.024   5.330   3.423  0.3011 -0.0661  0.4727
 4687TIP3    H114067   0.032   5.237   3.401 -1.8982  0.1163 -1.5061
 4687TIP3    H214068   0.099   5.372   3.380  1.7299 -0.9479  1.9976
 4688TIP3   OH214069   3.059   2.334   2.926  0.4201 -0.1008 -0.0980
 4688TIP3    H114070   3.064   2.427   2.901 -0.5964  0.1995  0.7404
 4688TIP3    H214071   3.086   2.333   3.018 -0.9109 -0.4283  0.3074
 4689TIP3   OH214072   2.849   0.295   0.444 -0.1569 -0.1241 -0.1388
 4689TIP3    H114073   2.855   0.260   0.533 -1.8153 -0.9891 -0.3272
 4689TIP3    H214074   2.773   0.352   0.446  0.8796  1.3305 -0.5718
 4690TIP3   OH214075   3.217   2.852   0.398 -0.8164 -0.2268  0.6243
 4690TIP3    H114076   3.272   2.882   0.471  0.1183 -4.4143  1.9152
 4690TIP3    H214077   3.220   2.924   0.335  4.9252  0.6307  1.2723
 4691TIP3   OH214078   2.828   3.663   2.855  0.9048 -0.3590  0.0286
 4691TIP3    H114079   2.861   3.574   2.871  1.6855  0.1558  1.5085
 4691TIP3    H214080   2.898   3.707   2.807 -0.0545 -0.9052 -1.9798
 4692TIP3   OH214081   5.313   1.169   2.145  0.4042  0.4209 -0.1334
 4692TIP3    H114082   5.377   1.147   2.213  2.0690  1.4835 -1.2552
 4692TIP3    H214083   5.322   1.264   2.133  0.7251  0.1778 -2.3028
 4693TIP3   OH214084   4.299   5.808   0.694 -0.4114 -0.2411  0.5425
 4693TIP3    H114085   4.303   5.791   0.600  0.0175 -1.1717  0.7097
 4693TIP3    H214086   4.390   5.801   0.723 -0.5726 -0.2106  1.0623
 4694TIP3   OH214087   0.176   4.580   2.380  0.4310  0.0284 -0.3067
 4694TIP3    H114088   0.098   4.636   2.382  0.2253 -0.1053  3.4528
 4694TIP3    H214089   0.142   4.491   2.389  0.9383 -0.1146  0.2633
 4695TIP3   OH214090   1.221   5.908   3.080 -0.2330  0.1577 -0.2983
 4695TIP3    H114091   1.257   5.838   3.134  1.1064  2.5588  2.1851
 4695TIP3    H214092   1.128   5.911   3.104 -0.0741 -0.0800  0.3629
 4696TIP3   OH214093   5.088   1.591   3.250 -0.1174  0.1250 -0.1803
 4696TIP3    H114094   5.006   1.599   3.299  0.1795  0.4633  0.2692
 4696TIP3    H214095   5.095   1.674   3.202 -0.6065 -0.3650 -1.1195
 4697TIP3   OH214096   4.442   2.973   1.576  0.2213  0.0187 -0.6238
 4697TIP3    H114097   4.505   2.981   1.648  0.4218 -1.1353 -0.6458
 4697TIP3    H214098   4.462   2.888   1.537  0.3794  0.7966 -2.3023
 4698TIP3   OH214099   2.927   3.403   2.837  0.3700 -0.6869 -0.6167
 4698TIP3    H114100   2.877   3.322   2.827  0.2305 -0.3606 -3.0924
 4698TIP3    H214101   2.989   3.402   2.764  1.6328  0.5793  0.3948
 4699TIP3   OH214102   0.005   4.378   1.373  0.1018 -0.1587  0.0231
 4699TIP3    H114103   0.084   4.332   1.401  0.4212  0.2975 -0.1171
 4699TIP3    H214104  -0.042   4.314   1.319 -0.4313 -0.9858  1.4122
 4700TIP3   OH214105   5.357   2.569   4.710 -0.1841 -0.2353  0.5563
 4700TIP3    H114106   5.261   2.568   4.703 -0.1466 -2.3830 -0.5316
 4700TIP3    H214107   5.381   2.476   4.716  1.7688  0.3145  2.2930
 4701TIP3   OH214108   5.063   1.275   0.374 -0.4345 -0.0876  0.4061
 4701TIP3    H114109   5.111   1.199   0.340 -1.7540 -0.6915 -0.1482
 4701TIP3    H214110   4.971   1.255   0.357 -0.8731  1.1945  1.1675
 4702TIP3   OH214111   6.244   2.240   1.638  0.6258  0.5900  0.4179
 4702TIP3    H114112   6.295   2.164   1.666 -1.4688 -1.2107 -0.3677
 4702TIP3    H214113   6.198   2.209   1.560  0.2650  2.9409 -0.3605
 4703TIP3   OH214114   0.850   1.958   4.385 -0.1260  0.5109 -0.0613
 4703TIP3    H114115   0.891   2.007   4.456  1.5987  0.2478 -0.8205
 4703TIP3    H214116   0.797   2.022   4.338 -1.4871  0.6347  1.5557
 4704TIP3   OH214117   5.671   4.791   4.091  0.0576  0.0157  0.0510
 4704TIP3    H114118   5.697   4.835   4.010 -1.0791 -2.5269 -1.8264
 4704TIP3    H214119   5.723   4.834   4.159  1.1031  2.2289 -1.9981
 4705TIP3   OH214120   2.054   1.420   0.583 -0.5229 -0.1449 -0.5696
 4705TIP3    H114121   2.119   1.420   0.513  1.1679 -0.3830  0.9343
 4705TIP3    H214122   2.052   1.330   0.614 -2.0020 -0.2661 -0.9240
 4706TIP3   OH214123   5.400   5.504   1.598 -0.3835 -0.0431  0.0937
 4706TIP3    H114124   5.315   5.535   1.629 -0.8219 -2.1006  1.1228
 4706TIP3    H214125   5.401   5.525   1.505 -1.7922  0.5119  0.1843
 4707TIP3   OH214126   4.490   2.509   3.848  0.6723 -0.0056 -0.0576
 4707TIP3    H114127   4.499   2.562   3.768  0.9267  0.8190  0.5049
 4707TIP3    H214128   4.541   2.556   3.913 -0.7362  0.1355  0.9838
 4708TIP3   OH214129   3.675   1.483   0.996 -0.8886  0.4341 -0.4267
 4708TIP3    H114130   3.674   1.573   1.029 -0.1254  0.3637 -0.1918
 4708TIP3    H214131   3.745   1.482   0.931 -0.9350  0.0239 -0.4716
 4709TIP3   OH214132   2.550   1.207   0.572  0.0802 -0.3986  0.0999
 4709TIP3    H114133   2.603   1.257   0.634 -1.5193  1.7135 -0.1024
 4709TIP3    H214134   2.478   1.173   0.624  0.9299 -2.2368  0.1466
 4710TIP3   OH214135   4.805   3.482   1.762 -0.0625  0.6289 -0.7850
 4710TIP3    H114136   4.882   3.516   1.807 -0.8286 -0.6409  1.6804
 4710TIP3    H214137   4.731   3.511   1.814 -0.9594 -1.5842 -0.6878
 4711TIP3   OH214138   0.728   4.300   5.073 -0.5046  0.4629  0.2483
 4711TIP3    H114139   0.719   4.367   5.141 -2.4854  0.9512 -0.4179
 4711TIP3    H214140   0.648   4.247   5.082 -0.6196  0.3143 -1.4359
 4712TIP3   OH214141   3.135   2.461   0.096  0.5663 -0.0720  0.2486
 4712TIP3    H114142   3.186   2.482   0.018  0.0522 -1.1242 -0.3916
 4712TIP3    H214143   3.079   2.537   0.110  0.5220  0.0445 -0.5273
 4713TIP3   OH214144   4.670   5.347   0.013 -0.3864  0.4651 -0.6593
 4713TIP3    H114145   4.696   5.259  -0.012  1.8784  1.3626 -1.7861
 4713TIP3    H214146   4.581   5.338   0.047 -1.2310 -1.8544 -3.1672
 4714TIP3   OH214147   4.452   3.311   0.804  0.1324 -0.6084 -0.1944
 4714TIP3    H114148   4.487   3.329   0.891 -0.2141 -1.4261  0.1220
 4714TIP3    H214149   4.392   3.237   0.817 -0.9524  0.1252 -0.8899
 4715TIP3   OH214150   3.690   0.374   4.960  0.4015  0.6284  0.1427
 4715TIP3    H114151   3.646   0.292   4.983  0.8147  0.3610 -0.0038
 4715TIP3    H214152   3.631   0.416   4.897  0.9542 -0.3568 -1.0841
 4716TIP3   OH214153   0.230   0.420   0.477 -0.3070 -0.5519 -0.0974
 4716TIP3    H114154   0.276   0.365   0.413  0.0536  0.7624 -1.0280
 4716TIP3    H214155   0.196   0.493   0.425 -0.1087  0.5002  1.1925
 4717TIP3   OH214156   4.839   3.567   4.452  0.0388  0.4176 -0.3983
 4717TIP3    H114157   4.837   3.608   4.538  0.7312  1.4686 -0.8581
 4717TIP3    H214158   4.924   3.593   4.415 -0.3017  0.1055 -1.4472
 4718TIP3   OH214159   5.777   5.997   4.733 -0.1313 -0.2229  0.0666
 4718TIP3    H114160   5.724   5.924   4.764 -0.9260  0.6204  0.7616
 4718TIP3    H214161   5.822   6.029   4.811  0.0263  0.1727 -0.1830
 4719TIP3   OH214162   2.659   5.180   4.626 -0.1047 -0.7602 -0.2725
 4719TIP3    H114163   2.752   5.161   4.612  0.1337 -0.4343  0.7258
 4719TIP3    H214164   2.623   5.099   4.661 -0.3453 -1.0809 -1.2375
 4720TIP3   OH214165   5.754   0.859   4.743  0.3938  0.3315 -0.2101
 4720TIP3    H114166   5.817   0.798   4.781 -0.6042  0.4531  1.8288
 4720TIP3    H214167   5.803   0.940   4.732  0.7743  0.2478  0.7439
 4721TIP3   OH214168   0.782   2.286   2.556  0.0510 -0.2208 -0.1171
 4721TIP3    H114169   0.775   2.283   2.651 -0.8240  0.9063 -0.1319
 4721TIP3    H214170   0.743   2.370   2.531  1.1780 -0.0377 -1.3943
 4722TIP3   OH214171   3.506   1.170   2.792  0.1149 -0.5741  0.1975
 4722TIP3    H114172   3.586   1.220   2.809 -0.1226 -0.0212 -0.3139
 4722TIP3    H214173   3.452   1.184   2.869  0.9359 -1.8123  1.0335
 4723TIP3   OH214174   4.460   0.977   2.301 -0.0211 -0.2407  0.0541
 4723TIP3    H114175   4.491   0.918   2.369  2.8195  0.3156 -0.6288
 4723TIP3    H214176   4.368   0.954   2.289  0.1506 -2.2839  2.0427
 4724TIP3   OH214177   1.885   2.563   0.090  0.2556 -0.6331  0.4153
 4724TIP3    H114178   1.873   2.593   0.180  1.3315 -0.2919  0.4578
 4724TIP3    H214179   1.931   2.635   0.047  1.0191 -1.3711 -0.0257
 4725TIP3   OH214180   3.827   4.140   4.311 -0.2329  0.0359  0.2145
 4725TIP3    H114181   3.755   4.104   4.362 -0.7915  0.9538  0.0878
 4725TIP3    H214182   3.845   4.225   4.350  3.3905 -1.6229  2.7838
 4726TIP3   OH214183   0.398   2.794   0.635  0.3802 -0.7064 -0.0107
 4726TIP3    H114184   0.423   2.881   0.665 -1.2418 -0.3261  0.3451
 4726TIP3    H214185   0.419   2.794   0.542 -0.7068  0.5206 -0.2879
 4727TIP3   OH214186   2.018   3.373   2.356  0.0679  0.2958  0.1562
 4727TIP3    H114187   2.039   3.462   2.328 -0.4623  0.4752  0.3125
 4727TIP3    H214188   2.082   3.354   2.425  0.5403  0.3396 -0.2643
 4728TIP3   OH214189   5.697   1.037   2.754  0.6500 -0.0184  0.7816
 4728TIP3    H114190   5.684   0.977   2.828  0.5866 -0.6305  0.2806
 4728TIP3    H214191   5.783   1.012   2.719 -0.5198 -1.6318 -1.0742
 4729TIP3   OH214192   3.575   1.719   1.779 -0.0208  0.4239  0.0122
 4729TIP3    H114193   3.511   1.655   1.811  0.2126  0.0473 -0.2563
 4729TIP3    H214194   3.653   1.666   1.759 -0.0327  0.7039 -0.7908
 4730TIP3   OH214195   0.850   4.593   2.587 -0.1439 -0.0205  0.2196
 4730TIP3    H114196   0.798   4.553   2.657 -0.4787 -0.4041 -0.2428
 4730TIP3    H214197   0.844   4.530   2.515  0.0013  0.4882 -0.2341
 4731TIP3   OH214198   2.769   6.024   3.656 -0.2670 -0.2300 -0.3993
 4731TIP3    H114199   2.837   5.979   3.707  0.8109  0.7810 -0.9040
 4731TIP3    H214200   2.690   5.972   3.671 -0.1155  0.2215  2.6145
 4732TIP3   OH214201   6.309   2.605   1.850 -0.3773  0.4745  0.0133
 4732TIP3    H114202   6.392   2.651   1.834 -0.0553  0.4262  1.4205
 4732TIP3    H214203   6.282   2.575   1.763  1.7253 -0.6344 -0.3426
 4733TIP3   OH214204   0.195   3.631   1.392 -0.1626  0.0605  0.2499
 4733TIP3    H114205   0.192   3.587   1.307  0.3240  1.0208 -0.2828
 4733TIP3    H214206   0.173   3.722   1.372  0.8147  0.4819  1.0191
 4734TIP3   OH214207   6.380   4.900   4.673  0.3403 -0.7344 -0.3952
 4734TIP3    H114208   6.361   4.855   4.755  1.5715  0.4019  0.5642
 4734TIP3    H214209   6.298   4.895   4.623 -0.4851 -1.3255  0.9560
 4735TIP3   OH214210   4.757   4.066   3.881  0.0144 -0.3404  0.1964
 4735TIP3    H114211   4.777   3.973   3.896 -0.3926 -0.3930  0.4133
 4735TIP3    H214212   4.664   4.074   3.901 -0.3816 -0.2498 -1.5320
 4736TIP3   OH214213   4.107   5.090   2.305 -0.5505 -0.0179  0.3329
 4736TIP3    H114214   4.109   4.995   2.299 -0.6208 -0.0095  0.1557
 4736TIP3    H214215   4.079   5.109   2.394 -2.1566 -0.1663 -0.1188
 4737TIP3   OH214216   2.523   2.123   3.552  0.8355  0.8971 -0.5571
 4737TIP3    H114217   2.616   2.146   3.554  0.9852  0.2520  1.3622
 4737TIP3    H214218   2.503   2.090   3.640 -0.7641 -0.7408 -1.4388
 4738TIP3   OH214219   4.524   4.493   2.497 -0.4823  0.6768 -0.4470
 4738TIP3    H114220   4.463   4.421   2.514  0.3042  0.3460  1.2709
 4738TIP3    H214221   4.527   4.501   2.402 -3.1129  0.6633 -0.6149
 4739TIP3   OH214222   6.283   5.274   2.304 -0.1493  0.3214 -0.0531
 4739TIP3    H114223   6.233   5.308   2.230  0.5180  0.9345 -0.2293
 4739TIP3    H214224   6.350   5.341   2.321 -1.9269  1.5448  2.8439
 4740TIP3   OH214225   0.634   3.006   0.334 -0.4888  0.1960 -0.3609
 4740TIP3    H114226   0.684   3.046   0.405  0.2861 -1.3400  0.0045
 4740TIP3    H214227   0.581   3.078   0.299  0.2665  1.3460  0.7408
 4741TIP3   OH214228   5.775   5.854   2.162 -0.1103 -0.4044 -0.1485
 4741TIP3    H114229   5.828   5.868   2.084 -1.0995 -1.0402 -0.9679
 4741TIP3    H214230   5.835   5.867   2.235  0.7838  0.4172 -1.0089
 4742TIP3   OH214231   0.225   1.453   1.913  0.7116  0.3061 -0.3818
 4742TIP3    H114232   0.210   1.523   1.850 -1.3855  0.7994  0.5732
 4742TIP3    H214233   0.231   1.498   1.997 -0.4714 -0.5965  0.2206
 4743TIP3   OH214234   2.146   0.760   4.627 -0.4176  0.0495 -0.4126
 4743TIP3    H114235   2.097   0.823   4.680 -0.4485 -0.2190 -0.1143
 4743TIP3    H214236   2.172   0.692   4.690 -1.2447 -0.7447 -0.9058
 4744TIP3   OH214237   0.818   3.036   0.038 -0.3073 -0.0389 -0.2070
 4744TIP3    H114238   0.786   3.055   0.126  1.6984  1.7848  0.1928
 4744TIP3    H214239   0.829   3.122  -0.003  0.2909 -0.7837 -1.6910
 4745TIP3   OH214240   3.762   0.185   1.718 -0.3553 -0.2625  1.1039
 4745TIP3    H114241   3.708   0.136   1.656  0.5773  0.4790 -0.3495
 4745TIP3    H214242   3.850   0.150   1.707 -0.1107  0.1328  1.7585
 4746TIP3   OH214243   4.320   3.962   4.274  0.2321  0.0045  0.1255
 4746TIP3    H114244   4.396   3.944   4.330  0.1404 -0.0124  0.2460
 4746TIP3    H214245   4.273   3.878   4.270  0.6447 -0.2033 -0.6010
 4747TIP3   OH214246   4.246   2.554   1.438 -0.3217  0.0646 -0.1367
 4747TIP3    H114247   4.272   2.472   1.480  1.4556  0.1809 -0.9221
 4747TIP3    H214248   4.252   2.536   1.344 -0.3954  0.9438 -0.3153
 4748TIP3   OH214249   1.133   3.315   2.182 -0.8484 -0.1906  0.1769
 4748TIP3    H114250   1.163   3.321   2.272 -0.6375  0.4515  0.0735
 4748TIP3    H214251   1.206   3.274   2.135 -0.1791  1.1563 -0.0309
 4749TIP3   OH214252   1.132   0.436   4.869 -0.2342 -0.4199  0.1179
 4749TIP3    H114253   1.037   0.435   4.855 -0.6010  0.1273  2.1813
 4749TIP3    H214254   1.149   0.361   4.926  0.2942  0.4984  1.2022
 4750TIP3   OH214255   2.498   1.469   2.799  0.3215 -0.5197  0.5850
 4750TIP3    H114256   2.529   1.558   2.815  0.2995 -0.4596  0.3029
 4750TIP3    H214257   2.510   1.456   2.705  1.0299 -1.0811  0.7455
 4751TIP3   OH214258   3.037   1.683   0.247 -0.0730 -0.0892 -0.0634
 4751TIP3    H114259   3.049   1.592   0.220  0.5330 -0.4943  1.4988
 4751TIP3    H214260   3.070   1.734   0.172  1.9854 -1.1652  0.0183
 4752TIP3   OH214261   3.084   2.934   3.075  0.0422  0.0392  0.3685
 4752TIP3    H114262   3.102   2.846   3.107 -0.1297 -0.1871 -0.1580
 4752TIP3    H214263   3.169   2.970   3.051  0.1954  0.2717  1.2192
 4753TIP3   OH214264   5.996   5.851   0.351  0.0479  0.3454  0.3508
 4753TIP3    H114265   6.061   5.794   0.311 -0.5841 -1.0584  1.2045
 4753TIP3    H214266   6.041   5.934   0.365  1.2015 -0.1368 -0.3796
 4754TIP3   OH214267   0.279   5.335   1.500 -0.3930 -0.1937 -0.0333
 4754TIP3    H114268   0.370   5.347   1.526 -0.3344 -1.4107  0.3567
 4754TIP3    H214269   0.262   5.408   1.440  0.6712  0.3429  0.2903
 4755TIP3   OH214270   4.733   5.586   0.528 -0.3000  0.2976  0.4322
 4755TIP3    H114271   4.646   5.625   0.519 -0.6117 -0.3878  0.3830
 4755TIP3    H214272   4.757   5.560   0.439 -0.6635 -0.7845  0.6311
 4756TIP3   OH214273   5.500   4.021   2.275 -0.0581  0.4251  0.1163
 4756TIP3    H114274   5.467   3.990   2.191 -0.6812 -0.7209  0.7587
 4756TIP3    H214275   5.595   4.023   2.264 -0.2070  2.1105 -1.2066
 4757TIP3   OH214276   2.666   2.739   4.278 -0.1570  0.3159  0.6328
 4757TIP3    H114277   2.705   2.687   4.348  2.1683  1.4433  0.2610
 4757TIP3    H214278   2.615   2.676   4.227 -0.6832 -0.7939  2.4551
 4758TIP3   OH214279   4.340   0.218   1.585 -0.5998  0.0627 -0.3829
 4758TIP3    H114280   4.345   0.133   1.627  0.9227  1.0806  1.6698
 4758TIP3    H214281   4.425   0.229   1.541  0.6128  1.7756  2.1591
 4759TIP3   OH214282   1.690   0.071   1.650  0.1840 -0.2384  0.3234
 4759TIP3    H114283   1.649   0.156   1.640  0.1140 -0.1020  1.6574
 4759TIP3    H214284   1.623   0.009   1.619  0.3434  0.1898 -0.9183
 4760TIP3   OH214285   2.753   1.939   3.384 -0.1458  0.0783  0.5408
 4760TIP3    H114286   2.788   1.946   3.296  0.4052 -0.1321  0.7380
 4760TIP3    H214287   2.737   2.030   3.411 -0.2549  0.1462  0.2494
 4761TIP3   OH214288   0.107   5.912   1.655 -0.2385 -0.3134 -0.0422
 4761TIP3    H114289   0.111   5.925   1.560  0.4698 -1.2970 -0.1644
 4761TIP3    H214290   0.195   5.935   1.685 -0.2209 -0.7865  0.2689
 4762TIP3   OH214291   3.996   0.779   2.083  0.5318  0.0810  0.1473
 4762TIP3    H114292   4.073   0.832   2.105  0.5079 -0.2711  1.1470
 4762TIP3    H214293   3.922   0.828   2.120  0.4104 -0.1697  0.2410
 4763TIP3   OH214294   4.368   1.491   3.218 -0.2114  0.3709 -0.8202
 4763TIP3    H114295   4.346   1.435   3.292 -0.9008  0.1715 -1.1669
 4763TIP3    H214296   4.404   1.431   3.152 -0.2740  0.4404 -0.9182
 4764TIP3   OH214297   2.406   0.085   3.072 -0.8087  0.0151 -0.1331
 4764TIP3    H114298   2.324   0.081   3.122 -2.0484  0.4331 -2.0467
 4764TIP3    H214299   2.443  -0.003   3.081 -1.3147 -0.1070  0.9671
 4765TIP3   OH214300   3.378   2.508   0.547 -0.3182 -0.2885  0.2132
 4765TIP3    H114301   3.321   2.448   0.498 -0.6917  1.7725 -2.1101
 4765TIP3    H214302   3.324   2.541   0.618 -1.0292 -0.6543 -0.1500
 4766TIP3   OH214303   4.980   3.058   5.128  0.2844 -0.2549  0.6967
 4766TIP3    H114304   4.889   3.031   5.120  0.3477 -0.0053 -2.1574
 4766TIP3    H214305   5.023   3.018   5.052  2.4964 -0.0770  1.7702
 4767TIP3   OH214306   0.877   1.562   5.221  0.4917  0.1133 -0.5124
 4767TIP3    H114307   0.877   1.527   5.132 -1.3401  0.9686 -0.8954
 4767TIP3    H214308   0.899   1.654   5.211 -0.3488  0.3597 -0.1583
 4768TIP3   OH214309   4.028   1.639   1.055  0.2318 -0.5346  0.0695
 4768TIP3    H114310   3.963   1.661   1.122 -0.9173 -1.7324 -0.5866
 4768TIP3    H214311   3.986   1.665   0.973  1.5529  0.7703 -0.2271
 4769TIP3   OH214312   4.219   2.441   2.220  0.7657  0.1996 -0.5541
 4769TIP3    H114313   4.186   2.419   2.307  0.8607 -1.9758 -1.0162
 4769TIP3    H214314   4.275   2.368   2.196  1.4934  1.1938 -2.0868
 4770TIP3   OH214315   0.016   5.946   2.162 -0.5796  0.0056 -0.1175
 4770TIP3    H114316   0.091   5.947   2.103 -0.7783  1.1357 -0.3653
 4770TIP3    H214317  -0.041   6.015   2.130 -1.0042  0.1964  0.9985
 4771TIP3   OH214318   1.130   5.781   2.434 -0.1356  0.3082  0.0815
 4771TIP3    H114319   1.147   5.774   2.528  0.1009  0.0513  0.0174
 4771TIP3    H214320   1.107   5.693   2.406 -0.4782  0.4346 -0.0515
 4772TIP3   OH214321   4.711   4.517   5.037  0.1521 -0.2871  1.0312
 4772TIP3    H114322   4.739   4.430   5.064  0.6564 -0.3254  0.4132
 4772TIP3    H214323   4.789   4.558   5.000  0.2020  0.8542  2.3110
 4773TIP3   OH214324   6.262   5.486   1.152 -0.4425  0.0205 -0.1128
 4773TIP3    H114325   6.221   5.568   1.123  1.3956  0.4112 -1.8143
 4773TIP3    H214326   6.191   5.436   1.191 -1.8506  1.9611 -0.0386
 4774TIP3   OH214327   5.903   1.693   4.131 -0.0335 -0.4138  0.4767
 4774TIP3    H114328   5.974   1.634   4.105 -0.0207 -0.1940  0.0089
 4774TIP3    H214329   5.863   1.719   4.049 -1.1194 -1.1049  0.7698
 4775TIP3   OH214330   3.181   2.465   1.496  0.1538  0.0082 -0.3395
 4775TIP3    H114331   3.248   2.452   1.563 -1.2256  0.6240  1.2283
 4775TIP3    H214332   3.173   2.560   1.488 -1.3710 -0.0367  0.4149
 4776TIP3   OH214333   5.351   2.369   2.619 -0.3300  0.2517  0.0285
 4776TIP3    H114334   5.281   2.433   2.609  0.7971  1.8330  1.5875
 4776TIP3    H214335   5.370   2.369   2.713  0.9013 -1.0787 -0.1785
 4777TIP3   OH214336   3.165   6.008   1.835 -0.3738 -0.3757 -0.4693
 4777TIP3    H114337   3.175   5.913   1.830 -2.1412 -0.5457 -1.5480
 4777TIP3    H214338   3.255   6.042   1.832  0.2440 -1.9681 -0.8816
 4778TIP3   OH214339   5.717   4.761   0.862  0.0266 -0.0122 -0.0426
 4778TIP3    H114340   5.677   4.768   0.775 -2.0246 -1.4407  0.7052
 4778TIP3    H214341   5.736   4.668   0.872  1.5816  0.3424  0.5110
 4779TIP3   OH214342   5.609   3.433   4.491 -0.2123 -0.2674 -0.3993
 4779TIP3    H114343   5.569   3.369   4.550  0.5077  1.9569  2.7188
 4779TIP3    H214344   5.546   3.505   4.488  0.3433  0.1912 -1.4095
 4780TIP3   OH214345   0.377   3.764   0.170 -0.0447  0.3835 -0.4863
 4780TIP3    H114346   0.428   3.724   0.240 -1.9467 -1.7852 -0.2189
 4780TIP3    H214347   0.383   3.858   0.185  2.0421  0.0896  0.7689
 4781TIP3   OH214348   4.027   4.664   0.117 -0.1482  0.5036  0.2873
 4781TIP3    H114349   4.092   4.611   0.071 -0.8942  0.0692 -0.2869
 4781TIP3    H214350   3.995   4.725   0.051 -2.1060 -0.9201 -0.1448
 4782TIP3   OH214351   3.281   4.132   2.558  0.7225 -0.0036 -0.6281
 4782TIP3    H114352   3.278   4.188   2.481 -1.6441  0.9716  0.0861
 4782TIP3    H214353   3.361   4.157   2.604  1.1531  0.7616 -1.7753
 4783TIP3   OH214354   2.471   5.815   1.250 -0.6042 -0.0382  0.2722
 4783TIP3    H114355   2.556   5.839   1.287 -0.6920  0.8840 -0.0983
 4783TIP3    H214356   2.457   5.878   1.179 -0.9386 -1.0810 -0.6167
 4784TIP3   OH214357   3.338   3.742   0.215  0.3155  0.4000 -0.6344
 4784TIP3    H114358   3.271   3.749   0.146 -0.0296 -0.4732 -0.3991
 4784TIP3    H214359   3.361   3.649   0.216  1.3975  0.6614 -0.5747
 4785TIP3   OH214360   0.448   3.735   2.161  0.2775 -0.6087  0.7290
 4785TIP3    H114361   0.533   3.741   2.206  1.1407 -1.8013 -0.6716
 4785TIP3    H214362   0.469   3.703   2.073 -1.4457  0.8325 -0.2776
 4786TIP3   OH214363   4.147   4.156  -0.007 -0.6167  0.1921 -0.1085
 4786TIP3    H114364   4.122   4.120   0.078  0.4142 -2.6904 -0.9100
 4786TIP3    H214365   4.171   4.080  -0.059  0.9305  2.0346 -2.2984
 4787TIP3   OH214366   0.334   5.477   3.974 -0.4331  0.0710  0.4304
 4787TIP3    H114367   0.366   5.521   4.053  1.8507 -0.9540  0.1696
 4787TIP3    H214368   0.403   5.492   3.910  0.0238 -3.0199  0.0658
 4788TIP3   OH214369   0.963   3.090   2.189 -0.2187 -0.2603  0.0749
 4788TIP3    H114370   1.023   3.164   2.174  0.0658 -0.5169 -0.0693
 4788TIP3    H214371   0.964   3.042   2.107  0.0736 -0.7642  0.3663
 4789TIP3   OH214372   3.957   0.751   4.039  0.2416  0.0052 -0.2074
 4789TIP3    H114373   3.897   0.826   4.045  1.3418  1.1213 -2.0901
 4789TIP3    H214374   3.935   0.710   3.956 -0.0386 -1.5286  0.5996
 4790TIP3   OH214375   3.173   3.769   1.039 -0.2865 -0.7369 -0.1311
 4790TIP3    H114376   3.211   3.802   1.121  1.6147 -0.6404 -1.0013
 4790TIP3    H214377   3.180   3.674   1.046 -3.6178 -1.0266  1.3642
 4791TIP3   OH214378   4.566   1.550   3.672  0.5916 -0.2481 -0.3102
 4791TIP3    H114379   4.581   1.645   3.669  0.0270 -0.1286  0.3859
 4791TIP3    H214380   4.643   1.516   3.717  0.7526 -0.1143 -0.4787
 4792TIP3   OH214381   3.648   4.853   1.757 -0.2159 -0.1159  0.1974
 4792TIP3    H114382   3.677   4.944   1.763 -0.1128 -0.0549 -0.9652
 4792TIP3    H214383   3.555   4.859   1.736 -0.1555 -0.2620 -0.1283
 4793TIP3   OH214384   1.573   0.357   3.461  0.8109  0.2316 -0.3180
 4793TIP3    H114385   1.502   0.376   3.523  0.4303 -0.6036 -0.4809
 4793TIP3    H214386   1.611   0.275   3.493  0.1961 -0.5598 -1.5295
 4794TIP3   OH214387   1.369   3.121   3.963  0.1062  0.2787 -0.2929
 4794TIP3    H114388   1.346   3.084   4.049  0.8933  1.7906  0.6136
 4794TIP3    H214389   1.306   3.081   3.903 -0.1593 -1.1940  0.8892
 4795TIP3   OH214390   4.239   3.803   2.459  0.2111 -0.7487 -0.2021
 4795TIP3    H114391   4.188   3.724   2.442  0.6258 -0.7643 -1.4707
 4795TIP3    H214392   4.287   3.785   2.540 -1.0449 -1.1009  0.4848
 4796TIP3   OH214393   3.456   1.059   0.758 -0.4137 -0.1788  0.4504
 4796TIP3    H114394   3.519   1.092   0.693 -1.1987 -2.2398 -1.4716
 4796TIP3    H214395   3.511   1.034   0.832  1.1847 -2.1549 -1.2590
 4797TIP3   OH214396   3.553   4.356   1.518 -0.1089  0.2816  0.3140
 4797TIP3    H114397   3.510   4.428   1.565  1.6832  1.8613 -0.3200
 4797TIP3    H214398   3.545   4.379   1.426 -1.1007 -1.3257 -0.0391
 4798TIP3   OH214399   6.174   3.979   4.199  0.0537 -0.5068 -0.1113
 4798TIP3    H114400   6.083   3.983   4.171 -0.6813 -1.6016  1.8845
 4798TIP3    H214401   6.216   3.922   4.135 -0.6662 -0.0997 -0.9782
 4799TIP3   OH214402   3.993   5.865   0.318  0.2185  0.3865 -0.1380
 4799TIP3    H114403   3.912   5.916   0.318 -0.4808 -0.6976  0.6895
 4799TIP3    H214404   3.979   5.798   0.384  1.7180  0.0477 -0.1390
 4800TIP3   OH214405   2.266   1.643   0.807 -0.4138  0.2861 -0.4720
 4800TIP3    H114406   2.182   1.630   0.850 -0.4610  0.1864 -0.5939
 4800TIP3    H214407   2.330   1.636   0.878 -0.6279  2.4697 -0.0043
 4801TIP3   OH214408   1.188   4.716   2.285 -0.4009  0.0541  0.2747
 4801TIP3    H114409   1.270   4.750   2.250  0.7194 -1.0280  1.7128
 4801TIP3    H214410   1.136   4.694   2.208  1.4443 -1.0318 -0.7211
 4802TIP3   OH214411   4.436   5.221   0.085  0.4167  0.2278  0.2063
 4802TIP3    H114412   4.367   5.209   0.021  0.6848 -2.1575  0.2817
 4802TIP3    H214413   4.399   5.281   0.150 -0.9041  0.3904 -0.6687
 4803TIP3   OH214414   5.129   2.684   0.644  0.1750  0.3281  0.0253
 4803TIP3    H114415   5.143   2.590   0.642 -1.2466  0.0975 -0.0987
 4803TIP3    H214416   5.131   2.707   0.737  0.4762  0.1705  0.0587
 4804TIP3   OH214417   5.314   4.841   4.226 -0.2151 -0.0756 -0.2113
 4804TIP3    H114418   5.388   4.785   4.250  0.6923  1.8093  1.6999
 4804TIP3    H214419   5.350   4.901   4.161 -0.6869 -0.4941 -0.8741
 4805TIP3   OH214420   0.344   4.684   0.829 -0.2405 -0.2196 -0.3856
 4805TIP3    H114421   0.260   4.645   0.850 -0.3327 -1.6007 -2.9821
 4805TIP3    H214422   0.350   4.680   0.734  1.9617  1.5930 -0.4164
 4806TIP3   OH214423   0.019   5.113   2.593  0.0430  0.7204  0.4707
 4806TIP3    H114424   0.055   5.118   2.504 -0.7333  0.3026  0.1264
 4806TIP3    H214425   0.089   5.074   2.645 -0.7695 -2.6829 -0.7206
 4807TIP3   OH214426   5.077   5.570   1.679  0.4014 -0.1220  0.7604
 4807TIP3    H114427   5.076   5.517   1.758  3.1665  1.4727  2.0150
 4807TIP3    H214428   5.075   5.661   1.710  0.3236  0.5460 -1.0531
 4808TIP3   OH214429   3.662   5.793   3.732 -0.3629  0.3583 -0.4420
 4808TIP3    H114430   3.613   5.720   3.772 -0.3260  0.8774  0.5919
 4808TIP3    H214431   3.608   5.820   3.658 -2.0934  1.4059  1.1010
 4809TIP3   OH214432   6.116   1.689   2.375 -0.3575 -0.0392 -0.2386
 4809TIP3    H114433   6.199   1.735   2.384 -0.8540  0.5514  1.7872
 4809TIP3    H214434   6.135   1.600   2.406 -0.7566  0.4788  1.6242
 4810TIP3   OH214435   5.656   3.242   3.093  0.1591 -0.0573  0.4511
 4810TIP3    H114436   5.747   3.235   3.123  0.5692 -1.0315 -0.9457
 4810TIP3    H214437   5.624   3.323   3.133  1.9517  0.8194  0.1840
 4811TIP3   OH214438   1.894   5.109   3.199  0.2502 -0.2392 -0.0108
 4811TIP3    H114439   1.920   5.020   3.176  0.4633 -0.7400  1.9958
 4811TIP3    H214440   1.977   5.157   3.206  0.0754  0.6508 -2.8200
 4812TIP3   OH214441   0.502   5.661   4.698 -0.0010  0.2377  0.0876
 4812TIP3    H114442   0.448   5.739   4.710  0.1931  0.1417  1.7531
 4812TIP3    H214443   0.444   5.588   4.721  0.5534  0.0774  1.0196
 4813TIP3   OH214444   1.757   0.267   0.440  0.0709 -0.5384  0.0911
 4813TIP3    H114445   1.715   0.334   0.495  0.4834 -0.1705 -0.0388
 4813TIP3    H214446   1.711   0.274   0.356  0.5744  0.0642 -0.1436
 4814TIP3   OH214447   1.018   5.442   3.142 -0.6658  0.2172  0.1665
 4814TIP3    H114448   1.075   5.450   3.218  0.0201 -0.5995 -0.2427
 4814TIP3    H214449   0.988   5.351   3.144 -2.4429  0.7826  0.7030
 4815TIP3   OH214450   1.568   3.507   0.581  0.2703 -0.3980 -0.4273
 4815TIP3    H114451   1.567   3.520   0.676 -2.4465 -1.6221 -0.1800
 4815TIP3    H214452   1.650   3.460   0.565  0.7174 -0.3195  1.3461
 4816TIP3   OH214453   5.986   1.433   1.317 -0.2564  0.4511 -0.4182
 4816TIP3    H114454   6.045   1.408   1.246  1.0166  1.0111  0.4045
 4816TIP3    H214455   6.000   1.527   1.329 -2.3576  0.9190 -1.0981
 4817TIP3   OH214456   1.380   0.678   2.994 -0.2855 -0.3902 -0.2506
 4817TIP3    H114457   1.343   0.732   2.924  0.7332 -0.8159 -1.1243
 4817TIP3    H214458   1.389   0.739   3.068  1.6606  0.9108 -1.4723
 4818TIP3   OH214459   3.781   3.253   4.429 -0.1631 -0.1751  0.1426
 4818TIP3    H114460   3.736   3.182   4.476 -0.2051 -1.2509 -1.4586
 4818TIP3    H214461   3.827   3.210   4.357  1.8077  1.1553  0.5219
 4819TIP3   OH214462   0.532   0.466   4.994  0.0167  0.1735 -0.5118
 4819TIP3    H114463   0.553   0.485   4.903 -1.2484  0.0195 -0.8584
 4819TIP3    H214464   0.444   0.501   5.006  0.4349  0.8230  0.8620
 4820TIP3   OH214465   4.682   0.429   4.476 -0.0775  0.2712  0.1507
 4820TIP3    H114466   4.670   0.509   4.425  2.1562  1.0131  0.7080
 4820TIP3    H214467   4.776   0.411   4.471 -0.2841 -1.3721  1.4501
 4821TIP3   OH214468   5.470   3.607   4.837 -0.2905  0.0070 -0.0877
 4821TIP3    H114469   5.477   3.537   4.771  2.3645 -0.3409  0.4353
 4821TIP3    H214470   5.509   3.683   4.794 -1.2728  0.6183  0.0787
 4822TIP3   OH214471   1.850   4.072   2.779  0.1369  0.2289 -0.4364
 4822TIP3    H114472   1.786   4.028   2.723  1.0366  1.1989 -2.3184
 4822TIP3    H214473   1.814   4.160   2.793  0.3104  0.2608 -0.1748
 4823TIP3   OH214474   5.452   5.488   3.832  0.1781  0.3267  0.5056
 4823TIP3    H114475   5.366   5.447   3.834  1.1780 -2.1018 -1.3826
 4823TIP3    H214476   5.446   5.559   3.896 -4.2227  2.4284 -1.7543
 4824TIP3   OH214477   2.364   3.655   5.028  0.3403  0.5621  0.3085
 4824TIP3    H114478   2.369   3.584   4.963  0.5163  1.8135 -1.1018
 4824TIP3    H214479   2.432   3.634   5.092  0.4108 -0.5219 -0.1049
 4825TIP3   OH214480   4.604   3.388   4.949 -0.6315  0.4458 -0.2804
 4825TIP3    H114481   4.568   3.412   4.863 -3.0656 -1.4302  0.1241
 4825TIP3    H214482   4.695   3.365   4.931 -0.5155  1.9763 -1.9752
 4826TIP3   OH214483   5.879   4.798   2.345  0.3272  0.1582  0.5203
 4826TIP3    H114484   5.851   4.800   2.436  2.0315  0.4331  1.0711
 4826TIP3    H214485   5.942   4.726   2.340 -0.0070 -0.0853 -0.5326
 4827TIP3   OH214486   2.889   2.170   0.842 -0.1704  0.2139  0.3325
 4827TIP3    H114487   2.899   2.095   0.900 -1.2263 -1.0212 -1.0003
 4827TIP3    H214488   2.808   2.153   0.794  0.5438  1.2684 -1.3557
 4828TIP3   OH214489   3.437   0.014   0.223  0.4706  0.3496  0.0141
 4828TIP3    H114490   3.374   0.035   0.154 -0.1199 -1.5368 -0.0671
 4828TIP3    H214491   3.383   0.000   0.301  0.8792 -0.1973  0.2036
 4829TIP3   OH214492   0.414   4.157   1.614  0.1997  0.8108  0.0666
 4829TIP3    H114493   0.477   4.168   1.686  1.2832 -0.2918 -0.6679
 4829TIP3    H214494   0.357   4.086   1.643  0.6814  0.3168 -0.1644
 4830TIP3   OH214495   6.156   4.989   1.377 -0.4681 -0.0277  0.0133
 4830TIP3    H114496   6.181   4.959   1.290 -1.1210 -0.7522  0.0662
 4830TIP3    H214497   6.090   4.926   1.406 -1.2084  0.9560  0.5037
 4831TIP3   OH214498   0.331   5.771   0.830  0.0155 -0.2429 -0.2465
 4831TIP3    H114499   0.340   5.849   0.775 -0.0382 -0.1948 -0.1865
 4831TIP3    H214500   0.241   5.741   0.815 -1.0339  1.4826  2.1088
 4832TIP3   OH214501   4.452   3.958   1.244  0.6071 -0.6172  0.8066
 4832TIP3    H114502   4.444   4.053   1.246 -0.0757 -0.6304 -0.2884
 4832TIP3    H214503   4.542   3.940   1.273  1.0570  0.4224  0.1206
 4833TIP3   OH214504   3.686   1.711   4.002  0.1839  0.9481  0.5905
 4833TIP3    H114505   3.607   1.759   3.978 -0.4008  0.3983  1.3377
 4833TIP3    H214506   3.730   1.693   3.918 -1.5711 -0.5607 -0.0787
 4834TIP3   OH214507   3.596   2.579   1.072  0.0716 -0.0371  0.4285
 4834TIP3    H114508   3.663   2.515   1.051  0.7656  0.7122  0.3047
 4834TIP3    H214509   3.601   2.588   1.167 -0.6800 -0.8494  0.5616
 4835TIP3   OH214510   3.559   2.988   2.315  0.3095  0.0696  0.2116
 4835TIP3    H114511   3.609   2.924   2.367  0.1221 -0.3440 -0.1117
 4835TIP3    H214512   3.590   2.975   2.226  0.3588  0.5211  0.1629
 4836TIP3   OH214513   1.472   0.368   3.744  0.4311  0.4193  0.8518
 4836TIP3    H114514   1.423   0.313   3.682  0.2401  2.2316 -0.6975
 4836TIP3    H214515   1.411   0.383   3.816  0.3550 -1.0325  1.1282
 4837TIP3   OH214516   4.948   4.318   4.923  0.0014 -0.3661 -0.5892
 4837TIP3    H114517   4.974   4.301   4.832 -0.3299 -1.8779 -0.4265
 4837TIP3    H214518   4.877   4.256   4.939 -1.0775  1.0352  0.1950
 4838TIP3   OH214519   4.896   2.143   2.448  0.1418  0.1283 -0.1301
 4838TIP3    H114520   4.973   2.138   2.505 -1.6538 -2.5032  2.3493
 4838TIP3    H214521   4.849   2.220   2.478 -0.4260 -0.8382  1.5992
 4839TIP3   OH214522   0.663   2.490   2.440 -0.1099  0.5910 -0.1104
 4839TIP3    H114523   0.573   2.458   2.434  0.0062  0.2639 -0.1216
 4839TIP3    H214524   0.654   2.583   2.459 -0.4456  0.3544  0.9502
 4840TIP3   OH214525   0.231   3.148   2.252 -0.0711  0.1702 -0.1993
 4840TIP3    H114526   0.208   3.144   2.159  0.4485  1.7413 -0.4124
 4840TIP3    H214527   0.325   3.129   2.254  0.5231  2.7586 -0.3293
 4841TIP3   OH214528   3.985   5.324   1.166 -0.5192  0.0871  0.4631
 4841TIP3    H114529   4.057   5.369   1.209  0.1452 -0.1367 -0.4021
 4841TIP3    H214530   3.943   5.390   1.112  0.4779 -0.3122 -0.8345
 4842TIP3   OH214531   0.588   4.116   1.394  0.1933  0.3464 -0.1510
 4842TIP3    H114532   0.576   4.021   1.395 -2.4590  0.6046  0.8694
 4842TIP3    H214533   0.527   4.149   1.460  0.8703  2.7879 -0.6423
 4843TIP3   OH214534   0.403   0.877   1.295 -0.3775  0.0461 -0.1127
 4843TIP3    H114535   0.353   0.798   1.315 -1.9472  1.3134  1.2624
 4843TIP3    H214536   0.488   0.863   1.337 -0.4266 -1.1270 -0.3714
 4844TIP3   OH214537   1.262   5.209   2.646 -0.1726  0.1302  0.2672
 4844TIP3    H114538   1.299   5.206   2.557  0.4763 -0.1301  0.5372
 4844TIP3    H214539   1.234   5.299   2.658  1.5961  0.6829  0.5291
 4845TIP3   OH214540   6.366   2.697   4.389  0.2292 -0.0200 -0.0571
 4845TIP3    H114541   6.380   2.640   4.313 -0.0476 -0.7713  0.4489
 4845TIP3    H214542   6.319   2.642   4.452 -0.6759  0.9882  0.1646
 4846TIP3   OH214543   5.668   2.398   1.267  0.1331  0.1748 -0.1141
 4846TIP3    H114544   5.734   2.464   1.286  0.1026  0.3692 -0.6547
 4846TIP3    H214545   5.673   2.336   1.340  0.3245  0.6484  0.2745
 4847TIP3   OH214546   6.249   3.861   2.837 -0.4617 -0.3113  0.1007
 4847TIP3    H114547   6.256   3.778   2.884  2.3592 -0.5043 -0.5377
 4847TIP3    H214548   6.288   3.844   2.751 -0.1352  1.5792 -0.1646
 4848TIP3   OH214549   0.814   4.503   2.305  0.6123 -0.2494  0.5191
 4848TIP3    H114550   0.719   4.517   2.306  0.6683  0.1565  1.0678
 4848TIP3    H214551   0.851   4.590   2.288  0.8560 -0.6743 -1.2644
 4849TIP3   OH214552   4.357   5.313   2.580  0.2887 -0.2822  0.1104
 4849TIP3    H114553   4.298   5.257   2.632 -0.3759  0.8485  0.5991
 4849TIP3    H214554   4.374   5.262   2.501  0.6418 -1.6851  1.0406
 4850TIP3   OH214555   2.271   4.268   4.708  0.1827  0.0791 -0.6319
 4850TIP3    H114556   2.327   4.210   4.759  0.8229  0.7170 -0.5809
 4850TIP3    H214557   2.247   4.337   4.770  1.1343  0.9700 -1.2145
 4851TIP3   OH214558   3.046   0.013   3.404 -0.1224  0.1556  0.0668
 4851TIP3    H114559   3.112  -0.036   3.452 -1.6409 -0.2940  1.8070
 4851TIP3    H214560   3.067   0.104   3.420  1.1669  0.0928 -1.0169
 4852TIP3   OH214561   0.947   2.798   4.210 -0.4424 -0.1569  0.1153
 4852TIP3    H114562   0.968   2.740   4.283  1.9121 -0.2098 -0.5180
 4852TIP3    H214563   1.020   2.788   4.149 -0.6500  2.3903 -0.6997
 4853TIP3   OH214564   4.925   1.758   3.653  0.1824 -0.6492  0.3482
 4853TIP3    H114565   4.841   1.742   3.697  0.7942 -0.1236  1.7372
 4853TIP3    H214566   4.903   1.755   3.559 -2.0896  2.8083  0.6078
 4854TIP3   OH214567   6.073   0.613   1.937  0.0133  0.0640 -0.0565
 4854TIP3    H114568   6.151   0.654   1.973 -1.0987  0.6714  1.8014
 4854TIP3    H214569   6.075   0.636   1.844  1.9580  0.1490 -0.0352
 4855TIP3   OH214570   4.111   5.710   0.874 -0.5750  0.4212  0.5481
 4855TIP3    H114571   4.175   5.738   0.809 -0.4012 -1.8418 -0.3493
 4855TIP3    H214572   4.156   5.642   0.924 -1.7193 -0.0131  1.0143
 4856TIP3   OH214573   2.504   0.945   4.344  0.1000 -0.4351 -0.4396
 4856TIP3    H114574   2.503   1.024   4.399 -0.8901 -2.3009  2.4041
 4856TIP3    H214575   2.421   0.902   4.362  0.4621 -1.9888 -2.2166
 4857TIP3   OH214576   0.778   2.613   3.695  0.1566 -0.2189  0.5445
 4857TIP3    H114577   0.817   2.699   3.709  0.9482  0.1401 -2.9230
 4857TIP3    H214578   0.838   2.569   3.634 -1.5988 -2.1675  0.1038
 4858TIP3   OH214579   2.743   3.482   4.254 -0.1414 -0.1553 -0.7335
 4858TIP3    H114580   2.689   3.561   4.257 -0.8938 -0.6637 -0.3488
 4858TIP3    H214581   2.703   3.423   4.318  1.2127 -0.3513 -0.0304
 4859TIP3   OH214582   1.738   4.641   3.249 -0.2339  0.1548  0.5299
 4859TIP3    H114583   1.694   4.685   3.321 -0.1914 -1.2735  1.4849
 4859TIP3    H214584   1.678   4.570   3.225  0.7120 -0.7065  0.6368
 4860TIP3   OH214585   2.697   4.549   0.267 -0.3857 -0.3068 -0.5708
 4860TIP3    H114586   2.788   4.520   0.263  0.3703  1.3090  2.1066
 4860TIP3    H214587   2.647   4.475   0.232  1.7964 -2.2229  0.0960
 4861TIP3   OH214588   5.298   4.201   3.719 -0.1995 -0.0450 -0.4071
 4861TIP3    H114589   5.359   4.169   3.652  0.2704  1.3204 -0.6684
 4861TIP3    H214590   5.334   4.285   3.746 -0.3755 -0.5711  1.6034
 4862TIP3   OH214591   2.439   3.698   3.431 -0.6989  0.3383  0.3722
 4862TIP3    H114592   2.508   3.642   3.466 -0.7100  1.0335  1.5408
 4862TIP3    H214593   2.471   3.724   3.344  0.4401  0.5196  0.8265
 4863TIP3   OH214594   1.578   2.736   1.331 -0.4392 -0.3672 -0.1838
 4863TIP3    H114595   1.535   2.806   1.283 -2.3191 -0.3519  1.3787
 4863TIP3    H214596   1.575   2.765   1.422 -1.5877 -2.5591  0.5581
 4864TIP3   OH214597   5.512   1.072   1.941  0.7516 -0.4007 -0.0221
 4864TIP3    H114598   5.434   1.126   1.958  0.0459 -0.9789 -1.2890
 4864TIP3    H214599   5.582   1.135   1.924  0.8403  0.1518  2.0566
 4865TIP3   OH214600   4.592   0.103   1.927  0.2039 -0.3338  0.2957
 4865TIP3    H114601   4.655   0.101   1.999  0.0762  3.3421  0.6883
 4865TIP3    H214602   4.510   0.132   1.968 -0.3656 -0.0233 -1.0302
 4866TIP3   OH214603   5.371   4.054   2.745  0.2094  0.2150 -0.4713
 4866TIP3    H114604   5.311   3.996   2.698  2.9832 -2.1243 -1.4250
 4866TIP3    H214605   5.388   4.010   2.828  2.2239 -0.3576 -1.1346
 4867TIP3   OH214606   2.714   4.189   1.970  0.1171 -0.1165 -0.4079
 4867TIP3    H114607   2.794   4.137   1.976  0.1613  0.1121  1.8349
 4867TIP3    H214608   2.679   4.169   1.883  0.8061 -2.8936 -0.1459
 4868TIP3   OH214609   4.924   0.443   0.965 -0.4152  0.1267 -0.2082
 4868TIP3    H114610   4.956   0.496   0.893 -0.5581  0.4258 -0.0555
 4868TIP3    H214611   4.902   0.507   1.033 -0.6410 -0.1253 -0.0450
 4869TIP3   OH214612   3.851   4.862   3.064  1.1100  0.3244 -0.0187
 4869TIP3    H114613   3.884   4.941   3.106  0.3832  0.5598  0.1301
 4869TIP3    H214614   3.911   4.793   3.091  0.3780  0.3610  1.8652
 4870TIP3   OH214615   1.486   2.508   1.849  0.6177  0.4320  0.3136
 4870TIP3    H114616   1.423   2.531   1.780 -0.4329 -0.6193  0.8945
 4870TIP3    H214617   1.482   2.582   1.910  0.7356  0.8534 -0.1753
 4871TIP3   OH214618   0.459   2.988   4.177 -0.0875 -0.2772 -0.0006
 4871TIP3    H114619   0.382   2.959   4.225  0.1341 -1.7943 -0.5053
 4871TIP3    H214620   0.528   2.996   4.243  0.0753 -1.8263  0.0516
 4872TIP3   OH214621   3.357   3.724   4.229  0.0823  0.1465  0.3334
 4872TIP3    H114622   3.398   3.784   4.291 -1.1436  1.6927 -0.2678
 4872TIP3    H214623   3.356   3.640   4.274  1.8938  0.5438  1.2003
 4873TIP3   OH214624   0.194   4.005   1.065 -0.3769  0.0748  0.1543
 4873TIP3    H114625   0.108   4.037   1.036 -0.0176 -0.6694 -1.9808
 4873TIP3    H214626   0.256   4.048   1.007  0.4280 -1.4923 -0.2127
 4874TIP3   OH214627   4.042   1.360   0.137  0.4550  0.5039  0.2926
 4874TIP3    H114628   4.065   1.383   0.228  0.8093  0.4340  0.2242
 4874TIP3    H214629   4.117   1.308   0.107 -0.2348 -0.5652  0.3755
 4875TIP3   OH214630   3.354   3.404   4.260  0.0103  0.5913  0.4922
 4875TIP3    H114631   3.416   3.415   4.333  1.0149 -0.4448 -0.1756
 4875TIP3    H214632   3.365   3.313   4.233 -1.1097  0.6760 -0.2903
 4876TIP3   OH214633   2.329   2.543   2.067 -0.1407  0.4782 -0.7350
 4876TIP3    H114634   2.394   2.597   2.112 -0.8490 -0.2728  1.2581
 4876TIP3    H214635   2.275   2.606   2.019 -0.6165  1.5465  1.1061
 4877TIP3   OH214636   5.506   4.740   4.995  0.4393  0.1599  0.2522
 4877TIP3    H114637   5.531   4.678   5.065 -0.8199  0.4731  1.0105
 4877TIP3    H214638   5.419   4.712   4.969  0.2333  1.0566 -0.0432
 4878TIP3   OH214639  -0.010   0.041   3.629  0.4652 -0.7789  0.2933
 4878TIP3    H114640   0.045  -0.029   3.593 -1.1719 -1.3232 -1.3386
 4878TIP3    H214641   0.052   0.107   3.660  2.0430 -1.4066 -1.3252
 4879TIP3   OH214642   6.206   4.888   1.145 -0.1100 -0.2541  0.1034
 4879TIP3    H114643   6.280   4.873   1.086 -1.2098 -1.1337 -1.1371
 4879TIP3    H214644   6.129   4.871   1.090 -1.2351  0.6818  1.3311
 4880TIP3   OH214645   3.663   5.102   3.833  0.1950  0.0370  0.6735
 4880TIP3    H114646   3.607   5.043   3.883  0.5981 -0.5746  0.4039
 4880TIP3    H214647   3.728   5.046   3.792 -0.4854  0.4408 -1.0550
 4881TIP3   OH214648   2.863   1.010   1.873  0.5591 -0.1447  0.6629
 4881TIP3    H114649   2.847   0.915   1.875  1.0718 -0.3276 -1.3815
 4881TIP3    H214650   2.776   1.049   1.871  0.1839 -0.8214 -2.8079
 4882TIP3   OH214651   3.558   0.804   4.282 -0.2849  0.0887  0.0228
 4882TIP3    H114652   3.515   0.721   4.302 -2.3230  1.6414  2.7530
 4882TIP3    H214653   3.501   0.847   4.219  0.5688 -0.3691 -1.0940
 4883TIP3   OH214654   0.492   3.693   0.403  0.5771  0.2740 -1.3510
 4883TIP3    H114655   0.547   3.740   0.466 -0.2846  1.2519 -1.2907
 4883TIP3    H214656   0.443   3.630   0.457  0.6456  0.3513 -1.1964
 4884TIP3   OH214657   5.090   2.140   2.993  0.4453 -0.1374  0.3532
 4884TIP3    H114658   5.005   2.171   3.022  0.2756  0.9097 -1.1361
 4884TIP3    H214659   5.071   2.078   2.922  0.9148  0.4250 -0.2800
 4885TIP3   OH214660   5.529   2.545   3.869 -0.1874 -0.1308 -0.3818
 4885TIP3    H114661   5.503   2.629   3.907  1.0022 -0.0800  0.3744
 4885TIP3    H214662   5.446   2.500   3.852 -0.8093  0.2797  1.3039
 4886TIP3   OH214663   1.340   2.746   2.886  0.0253  0.6639  0.5790
 4886TIP3    H114664   1.252   2.712   2.903 -0.0773  0.2800 -0.6031
 4886TIP3    H214665   1.399   2.678   2.918 -0.1261  0.6429  0.8138
 4887TIP3   OH214666   4.402   4.688   2.006 -0.1843  0.1600 -0.3682
 4887TIP3    H114667   4.496   4.703   2.017 -0.1714 -0.5834  0.6409
 4887TIP3    H214668   4.363   4.775   2.015  0.2285  0.2000  1.4323
 4888TIP3   OH214669   4.493   2.693   4.474  0.2958  0.0016  0.5715
 4888TIP3    H114670   4.437   2.623   4.441  0.9942 -1.1842  1.7968
 4888TIP3    H214671   4.434   2.751   4.522 -0.3082  0.3532 -0.5588
 4889TIP3   OH214672   2.396   2.605   1.772 -0.7873  0.8410 -0.5104
 4889TIP3    H114673   2.392   2.701   1.772  1.5204  1.1112 -3.3792
 4889TIP3    H214674   2.489   2.585   1.782 -1.1106 -1.0602 -0.8725
 4890TIP3   OH214675   1.624   3.444   1.736  0.8973  0.4568  0.1431
 4890TIP3    H114676   1.604   3.362   1.691  0.8718  1.6077 -2.0801
 4890TIP3    H214677   1.715   3.463   1.714  1.6985 -0.1489  2.6648
 4891TIP3   OH214678   2.613   0.275   0.707 -0.3430  0.5199 -0.3224
 4891TIP3    H114679   2.641   0.293   0.797 -1.9552 -1.6769  0.7175
 4891TIP3    H214680   2.539   0.333   0.693 -0.1305  0.8188 -0.2198
 4892TIP3   OH214681   0.564   5.401   2.185  0.1330  0.3992 -0.2716
 4892TIP3    H114682   0.585   5.385   2.277 -0.3751  2.7957  0.3217
 4892TIP3    H214683   0.541   5.315   2.151 -1.5817 -0.2982  2.3565
 4893TIP3   OH214684   1.083   0.496   3.062  0.6915 -0.3734 -0.1439
 4893TIP3    H114685   1.143   0.494   3.137 -0.9085 -0.3226  1.1873
 4893TIP3    H214686   1.054   0.587   3.056 -0.4784 -0.7079  0.2525
 4894TIP3   OH214687   3.729   0.218   2.262 -0.5406  0.1996 -0.1742
 4894TIP3    H114688   3.815   0.215   2.220 -0.7906  0.2607 -0.7042
 4894TIP3    H214689   3.746   0.197   2.354 -0.1769 -1.3856 -0.5836
 4895TIP3   OH214690   2.428   0.435   3.762  0.7803  0.3684 -0.3505
 4895TIP3    H114691   2.385   0.424   3.847  0.6755 -0.3392 -0.4862
 4895TIP3    H214692   2.397   0.520   3.731 -3.4710 -1.5220 -2.0774
 4896TIP3   OH214693   0.733   4.257   2.006 -0.2357 -0.0330  0.3082
 4896TIP3    H114694   0.688   4.172   2.012 -0.5927  0.2355  1.6754
 4896TIP3    H214695   0.748   4.269   1.912  0.7029 -2.0607  0.1395
 4897TIP3   OH214696   3.153   3.076   0.246 -0.3696 -0.1501  0.1816
 4897TIP3    H114697   3.076   3.133   0.244 -0.6186 -0.4986 -0.6290
 4897TIP3    H214698   3.222   3.130   0.284 -0.9106  0.2976  0.5442
 4898TIP3   OH214699   1.372   2.345   0.459  0.1009 -0.6902 -0.4981
 4898TIP3    H114700   1.409   2.343   0.548  1.4475  1.3081 -0.9443
 4898TIP3    H214701   1.278   2.360   0.473  0.3486 -0.0328  0.6092
 4899TIP3   OH214702   3.818   2.735   3.239 -0.3603 -0.0379 -0.2849
 4899TIP3    H114703   3.884   2.705   3.302 -0.7215 -0.9017 -0.3053
 4899TIP3    H214704   3.735   2.727   3.286 -0.6167 -0.5266 -0.8208
 4900TIP3   OH214705   4.254   5.020   5.033 -0.0742 -0.0329 -0.5178
 4900TIP3    H114706   4.197   4.957   5.078  0.4554 -1.9253 -2.3697
 4900TIP3    H214707   4.295   5.070   5.104 -0.3496 -1.9212  1.0393
 4901TIP3   OH214708   3.171   2.728   4.912 -0.2512 -0.0096  0.2675
 4901TIP3    H114709   3.233   2.678   4.965 -0.5762 -1.2350 -0.4602
 4901TIP3    H214710   3.219   2.808   4.890  1.4959 -1.3276 -1.0703
 4902TIP3   OH214711   2.716   1.785   1.697  0.0727 -0.0257 -0.4138
 4902TIP3    H114712   2.744   1.778   1.606  0.4162 -0.6874 -0.2605
 4902TIP3    H214713   2.681   1.874   1.704 -0.1363 -0.0303 -1.2401
 4903TIP3   OH214714   0.096   3.361   3.456 -0.0591 -0.1461 -0.6283
 4903TIP3    H114715   0.063   3.271   3.463 -0.5765 -0.1797 -2.6581
 4903TIP3    H214716   0.040   3.412   3.514  0.8290 -1.2454  1.2584
 4904TIP3   OH214717   0.864   4.510   3.449 -0.4933  0.0323 -0.3913
 4904TIP3    H114718   0.911   4.461   3.382 -0.2988 -0.8724  0.3840
 4904TIP3    H214719   0.928   4.572   3.484 -0.8903  1.2602 -1.7495
 4905TIP3   OH214720   2.871   2.258   4.108 -0.4179 -0.3313  0.5113
 4905TIP3    H114721   2.950   2.230   4.155 -0.2255  1.4024  1.3106
 4905TIP3    H214722   2.800   2.239   4.169 -0.4209 -0.2520  0.5329
 4906TIP3   OH214723   0.888   5.339   2.155  0.6636 -0.3253  0.0498
 4906TIP3    H114724   0.953   5.400   2.191  1.7625 -1.2303 -0.3360
 4906TIP3    H214725   0.824   5.327   2.226  0.9577  0.5174  0.4680
 4907TIP3   OH214726   5.998   2.876   1.388  0.5162  0.0260  0.0767
 4907TIP3    H114727   5.984   2.959   1.433  0.3014 -0.0070  0.0731
 4907TIP3    H214728   5.916   2.862   1.339  0.6009 -0.1242 -0.0209
 4908TIP3   OH214729   2.816   1.900   4.557 -0.3149  0.0630 -0.0924
 4908TIP3    H114730   2.806   1.829   4.621  2.5397  0.5274  0.9909
 4908TIP3    H214731   2.888   1.873   4.501  0.8015  2.0033  0.3048
 4909TIP3   OH214732   6.199   2.798   4.209  0.2331  0.1388  0.2623
 4909TIP3    H114733   6.120   2.755   4.242 -0.1557  2.6926  3.0264
 4909TIP3    H214734   6.263   2.788   4.280  1.3980  0.7702 -0.6624
 4910TIP3   OH214735   0.493   2.701   2.568  0.4432  0.2730 -0.2073
 4910TIP3    H114736   0.567   2.736   2.617  0.1692  1.4397 -0.5852
 4910TIP3    H214737   0.417   2.720   2.622  0.0626  2.1488 -1.2846
 4911TIP3   OH214738   3.060   0.972   1.534  0.5558 -0.3035  0.0863
 4911TIP3    H114739   2.976   1.011   1.557  1.3275  0.9467  0.9565
 4911TIP3    H214740   3.115   0.986   1.611  1.3624 -1.7254 -0.1958
 4912TIP3   OH214741   5.734   1.825   2.809  0.0251 -0.1865  0.0879
 4912TIP3    H114742   5.714   1.828   2.715 -0.3925 -1.9343  0.0753
 4912TIP3    H214743   5.653   1.793   2.849 -0.5778  2.6895  1.3682
 4913TIP3   OH214744   4.377   5.759   4.672  0.6395  0.0142  0.2829
 4913TIP3    H114745   4.322   5.789   4.744  1.8202  2.4123  0.2897
 4913TIP3    H214746   4.421   5.681   4.707 -0.3548 -0.0864  1.3918
 4914TIP3   OH214747   0.423   1.684   0.482  0.0456  0.3966 -1.1112
 4914TIP3    H114748   0.388   1.605   0.441 -0.6525  0.7332 -1.1749
 4914TIP3    H214749   0.356   1.750   0.467 -0.1520  0.5716  0.4007
 4915TIP3   OH214750   5.046   0.134   2.499 -0.0346  0.1430 -0.7147
 4915TIP3    H114751   5.116   0.197   2.486 -0.5148  0.5825 -1.2524
 4915TIP3    H214752   4.974   0.186   2.536  1.4144 -1.1062  4.6033
 4916TIP3   OH214753   1.279   2.176   1.526 -0.0683 -0.1429 -0.0193
 4916TIP3    H114754   1.360   2.218   1.498 -0.0691 -0.4615 -0.5183
 4916TIP3    H214755   1.267   2.205   1.616 -0.4501  1.4782 -0.5661
 4917TIP3   OH214756   0.105   2.665   2.498 -0.1542  0.2512  0.2078
 4917TIP3    H114757   0.116   2.757   2.473  1.7446  0.1757  0.6406
 4917TIP3    H214758   0.017   2.661   2.537 -0.6877  1.6345 -0.7855
 4918TIP3   OH214759   4.180   4.507   4.338 -0.7047 -0.5535 -0.2516
 4918TIP3    H114760   4.220   4.582   4.382 -3.1063  0.9429 -0.4632
 4918TIP3    H214761   4.160   4.538   4.250 -2.3296 -1.2204 -0.1476
 4919TIP3   OH214762   1.142   3.672   0.610 -0.1004  0.4015 -0.2702
 4919TIP3    H114763   1.107   3.586   0.634 -1.8848  0.4183 -2.4643
 4919TIP3    H214764   1.218   3.684   0.667  0.4552 -2.7975 -0.1407
 4920TIP3   OH214765   1.749   1.688   1.654  0.2616 -0.3976  0.1988
 4920TIP3    H114766   1.797   1.640   1.722  0.6456 -0.4692 -0.1141
 4920TIP3    H214767   1.814   1.748   1.618  0.7121 -1.8444 -1.5704
 4921TIP3   OH214768   1.366   4.964   4.524 -0.7189  0.1278  0.1034
 4921TIP3    H114769   1.364   4.875   4.559  0.2063  0.0894  0.0993
 4921TIP3    H214770   1.449   5.001   4.556 -0.5646  0.6019 -0.7931
 4922TIP3   OH214771   4.432   3.203   3.493 -0.4689  0.1156  0.2574
 4922TIP3    H114772   4.482   3.283   3.481 -0.4721  0.0271 -0.3489
 4922TIP3    H214773   4.483   3.135   3.451 -0.9604 -0.0220 -0.1305
 4923TIP3   OH214774   0.403   2.481   0.933 -0.3705 -0.1082  0.3792
 4923TIP3    H114775   0.476   2.431   0.970 -0.4914 -0.9971 -0.5227
 4923TIP3    H214776   0.326   2.429   0.957 -0.6147  0.2945  0.4620
 4924TIP3   OH214777   2.989   3.046   2.195 -0.3646  0.3712  0.9198
 4924TIP3    H114778   2.953   2.964   2.163  0.5868  0.2745  0.0445
 4924TIP3    H214779   3.081   3.027   2.215  0.5742  1.7126 -1.5696
 4925TIP3   OH214780   4.585   3.976   3.499 -0.0575 -0.0313  0.1225
 4925TIP3    H114781   4.608   4.054   3.550 -0.6134 -0.0404  0.3965
 4925TIP3    H214782   4.638   3.983   3.419  0.5180  0.1910  0.5148
 4926TIP3   OH214783   5.097   4.527   3.249 -0.5025  0.3093  0.2103
 4926TIP3    H114784   5.186   4.503   3.275  0.0467  1.1874 -0.8034
 4926TIP3    H214785   5.092   4.503   3.156 -1.1337  0.7851  0.1184
 4927TIP3   OH214786   4.693   3.962   1.594 -0.2113 -0.3663 -0.2041
 4927TIP3    H114787   4.692   3.993   1.685  0.7935  1.2392 -0.7066
 4927TIP3    H214788   4.759   3.893   1.593 -0.6613 -0.8201  0.3975
 4928TIP3   OH214789   0.908   1.590   4.905 -0.4394  0.4693  0.1271
 4928TIP3    H114790   0.933   1.586   4.813 -0.7221  0.1041  0.0658
 4928TIP3    H214791   0.988   1.565   4.953 -0.1835  1.0294 -0.0010
 4929TIP3   OH214792   5.714   5.318   3.091 -0.2265 -0.3314 -0.1261
 4929TIP3    H114793   5.662   5.272   3.157 -0.9470 -1.4666 -1.4572
 4929TIP3    H214794   5.650   5.362   3.036  0.2789 -0.6521 -0.9928
 4930TIP3   OH214795   2.093   4.931   4.991  0.5694  0.3182  0.0518
 4930TIP3    H114796   2.109   4.888   5.075 -1.3932  0.4573  0.5353
 4930TIP3    H214797   2.181   4.954   4.960  1.4041 -0.4961  1.6362
 4931TIP3   OH214798   3.450   1.225   3.419 -0.0696  0.6151 -0.3504
 4931TIP3    H114799   3.363   1.263   3.411  0.1300  1.1454 -0.0462
 4931TIP3    H214800   3.493   1.276   3.488  1.0035  1.3438 -1.4981
 4932TIP3   OH214801   1.151   4.465   4.132  0.1981  0.2614  0.0689
 4932TIP3    H114802   1.119   4.464   4.042  1.0414 -1.2938 -0.2585
 4932TIP3    H214803   1.210   4.540   4.136  0.1538  0.3430 -0.6984
 4933TIP3   OH214804   2.614   0.244   2.557 -0.4171 -0.5649  0.5589
 4933TIP3    H114805   2.633   0.185   2.631  0.0029 -2.1503 -0.7388
 4933TIP3    H214806   2.521   0.232   2.540 -0.3316 -0.8797  0.2946
 4934TIP3   OH214807   4.344   2.655   4.892 -1.0519  0.5587 -0.3505
 4934TIP3    H114808   4.375   2.706   4.817  0.1544  0.5031  0.0960
 4934TIP3    H214809   4.271   2.604   4.858  0.0245 -0.1154 -1.7126
 4935TIP3   OH214810   6.291   5.940   4.472  0.6121 -0.1527  0.3227
 4935TIP3    H114811   6.223   5.953   4.538  0.9957 -0.8892  0.8823
 4935TIP3    H214812   6.327   6.028   4.457 -3.0980  1.1040 -3.0010
 4936TIP3   OH214813   0.169   3.340   4.715 -0.2372  0.4048 -0.3512
 4936TIP3    H114814   0.157   3.435   4.716 -0.7997  0.3372  0.5717
 4936TIP3    H214815   0.249   3.326   4.665  0.5982  1.4556  0.6345
 4937TIP3   OH214816   4.210   2.594   5.197 -0.0511  0.4710 -0.2893
 4937TIP3    H114817   4.167   2.556   5.121  1.1803  1.6003 -1.6124
 4937TIP3    H214818   4.239   2.680   5.168  1.9391  0.2843  0.9016
 4938TIP3   OH214819   4.064   5.008   0.715 -0.2506 -0.1835 -0.2110
 4938TIP3    H114820   4.079   5.089   0.763  2.4550 -1.7052  1.8106
 4938TIP3    H214821   4.102   5.024   0.628 -0.2314  0.8533 -0.0213
 4939TIP3   OH214822   1.922   1.040   1.948 -0.3619 -0.6843 -0.1119
 4939TIP3    H114823   1.920   0.952   1.912 -0.3505 -0.2138 -1.3286
 4939TIP3    H214824   1.834   1.074   1.934 -0.9024 -1.1121  2.0118
 4940TIP3   OH214825   3.273   1.650   2.679 -0.3739  0.2666  0.5514
 4940TIP3    H114826   3.340   1.717   2.662  0.9124 -1.0188  0.3523
 4940TIP3    H214827   3.294   1.618   2.767 -0.1205 -0.8070  0.1133
 4941TIP3   OH214828   1.383   5.796   1.093  0.3000  0.4699  0.4794
 4941TIP3    H114829   1.305   5.850   1.081  0.2157  0.6038  1.5601
 4941TIP3    H214830   1.456   5.856   1.077  0.2007  0.5057  0.1327
 4942TIP3   OH214831   5.790   1.557   0.443  0.1817  0.1253  0.4593
 4942TIP3    H114832   5.824   1.505   0.369  0.3419 -0.7188  1.1106
 4942TIP3    H214833   5.742   1.493   0.496  0.2600  0.6854  1.2040
 4943TIP3   OH214834   3.263   1.250   0.620 -0.7586  0.7522 -0.4079
 4943TIP3    H114835   3.356   1.242   0.641 -0.3921 -0.5061 -2.2062
 4943TIP3    H214836   3.218   1.221   0.699  0.4684 -1.7271 -0.5203
 4944TIP3   OH214837   0.128   3.736   0.352 -0.5483  0.0406  0.0097
 4944TIP3    H114838   0.132   3.718   0.446 -0.5652  0.6743  0.1339
 4944TIP3    H214839   0.123   3.832   0.345  0.1647  0.0367 -0.6627
 4945TIP3   OH214840   1.721   3.274   4.868  0.0699  0.3231 -0.5316
 4945TIP3    H114841   1.733   3.228   4.950 -1.0300 -0.4373 -0.7771
 4945TIP3    H214842   1.777   3.352   4.875  1.1516 -0.5061  0.3014
 4946TIP3   OH214843   0.069   1.940   4.683  0.2519 -0.0836 -0.0934
 4946TIP3    H114844  -0.016   1.899   4.694  0.5345 -1.0640 -1.2786
 4946TIP3    H214845   0.132   1.869   4.694  1.0318  0.8553  2.0366
 4947TIP3   OH214846   1.816   5.810   3.466 -0.0638  0.9714 -0.5368
 4947TIP3    H114847   1.892   5.866   3.482 -1.3982  2.3274  1.4297
 4947TIP3    H214848   1.814   5.749   3.540  0.9687 -1.3699 -2.2972
 4948TIP3   OH214849   4.800   2.145   0.166 -0.2049 -0.1601 -0.0444
 4948TIP3    H114850   4.804   2.054   0.196 -0.5757  0.2167  1.2387
 4948TIP3    H214851   4.874   2.187   0.211 -1.2359  0.5944  1.0160
 4949TIP3   OH214852   1.715   1.130   0.583 -0.3886  0.3850 -0.2228
 4949TIP3    H114853   1.656   1.077   0.529 -0.3542  0.9555 -0.8448
 4949TIP3    H214854   1.766   1.067   0.634 -0.8563 -0.1439 -0.4060
 4950TIP3   OH214855   1.481   5.108   0.443 -0.0431 -0.2530 -0.6103
 4950TIP3    H114856   1.576   5.118   0.435 -0.0312  1.5776  1.0814
 4950TIP3    H214857   1.447   5.197   0.441 -1.9133 -0.9047 -2.4705
 4951TIP3   OH214858   5.056   0.743   0.211  0.2690  0.3755 -0.7953
 4951TIP3    H114859   5.140   0.785   0.191 -0.3035  2.9223  1.6052
 4951TIP3    H214860   4.991   0.796   0.164 -0.2586  0.5894  0.1596
 4952TIP3   OH214861   4.188   2.154   3.994  0.2400 -0.4789  0.2514
 4952TIP3    H114862   4.197   2.147   4.089  1.2396  0.4535  0.2372
 4952TIP3    H214863   4.261   2.103   3.959 -0.5262 -1.4049 -0.0515
 4953TIP3   OH214864   6.069   3.073   3.533  0.0247 -1.0200 -0.4495
 4953TIP3    H114865   6.095   3.002   3.592  1.8590  0.5289  0.7263
 4953TIP3    H214866   5.987   3.106   3.570 -0.3140 -1.8611 -0.4286
 4954TIP3   OH214867   5.230   2.125   3.258  0.4553 -0.5742 -0.0134
 4954TIP3    H114868   5.213   2.134   3.164 -0.5190 -0.4214  0.1613
 4954TIP3    H214869   5.150   2.085   3.293  1.9483 -3.5264  0.3205
 4955TIP3   OH214870   2.650   3.037   4.489 -0.3094 -0.3405 -0.0683
 4955TIP3    H114871   2.663   3.130   4.507 -0.6671 -0.2469 -0.2769
 4955TIP3    H214872   2.656   3.030   4.394 -3.7817  0.0794 -0.4646
 4956TIP3   OH214873   4.019   5.121   4.832  0.2623  0.4300 -0.1552
 4956TIP3    H114874   4.032   5.201   4.780  0.8938  0.9116  0.7055
 4956TIP3    H214875   4.038   5.149   4.922 -1.3167 -0.2477  0.4144
 4957TIP3   OH214876   3.947   1.303   4.852 -0.2849  0.1757  0.3937
 4957TIP3    H114877   3.900   1.271   4.775 -1.6608  1.1439  0.8045
 4957TIP3    H214878   3.968   1.394   4.831 -0.3370  0.3332  1.0153
 4958TIP3   OH214879   2.541   1.803   5.091  0.8590  0.3284  0.5515
 4958TIP3    H114880   2.503   1.744   5.156  0.0808  1.3961  1.0854
 4958TIP3    H214881   2.557   1.746   5.015  1.1286 -0.7843  1.4083
 4959TIP3   OH214882   3.213   4.533   0.385  0.2949  0.4265 -0.0560
 4959TIP3    H114883   3.281   4.512   0.449  0.4216 -0.1195 -0.3643
 4959TIP3    H214884   3.224   4.469   0.315  0.1805  1.0341 -0.6493
 4960TIP3   OH214885   4.244   0.556   3.657 -0.2762  0.5138  0.1697
 4960TIP3    H114886   4.153   0.530   3.645  0.1187 -0.6945 -0.4550
 4960TIP3    H214887   4.269   0.518   3.741  0.4304 -1.7201 -0.9430
 4961TIP3   OH214888   1.408   1.559   4.503  0.0300 -0.7415 -0.1605
 4961TIP3    H114889   1.384   1.651   4.506  3.3254  0.2230 -0.2924
 4961TIP3    H214890   1.454   1.543   4.586 -0.2354 -2.1986 -0.2663
 4962TIP3   OH214891   5.658   4.897   2.141 -0.5329  0.6622 -0.5507
 4962TIP3    H114892   5.669   4.803   2.127  0.9315  0.8941 -1.1250
 4962TIP3    H214893   5.686   4.911   2.232 -3.2864  0.2042  0.4713
 4963TIP3   OH214894   1.456   5.599   3.094 -0.1626 -0.0494 -0.0473
 4963TIP3    H114895   1.452   5.537   3.021  1.1685 -0.9940  0.6310
 4963TIP3    H214896   1.522   5.663   3.068 -0.7342  0.4619 -0.2714
 4964TIP3   OH214897   0.807   3.305   0.189  0.0987  0.7742  0.2012
 4964TIP3    H114898   0.783   3.398   0.195  0.1037  0.7436  0.7553
 4964TIP3    H214899   0.881   3.296   0.249 -0.1211  0.3422  0.4103
 4965TIP3   OH214900   3.359   4.181   1.291 -0.4733  0.1908 -0.4376
 4965TIP3    H114901   3.303   4.196   1.368 -0.7759 -0.8437 -0.4434
 4965TIP3    H214902   3.314   4.226   1.220 -0.6557  0.4050 -0.1910
 4966TIP3   OH214903   5.941   5.693   3.263  0.2691 -0.3366 -0.0028
 4966TIP3    H114904   5.912   5.607   3.293  1.6424  0.1077  2.9003
 4966TIP3    H214905   5.897   5.755   3.321 -1.2009  1.0572 -2.4440
 4967TIP3   OH214906   5.150   1.310   4.503  0.2274 -0.3247  0.2954
 4967TIP3    H114907   5.238   1.277   4.488 -0.2715 -2.2350  1.2960
 4967TIP3    H214908   5.161   1.383   4.563  1.1831  0.0442 -0.3081
 4968TIP3   OH214909   2.426   5.934   1.018  0.0214 -0.0191  0.1915
 4968TIP3    H114910   2.461   5.972   0.937 -0.6311  1.5027  0.5826
 4968TIP3    H214911   2.336   5.911   0.997  0.3115 -1.0976  0.0586
 4969TIP3   OH214912   1.458   1.434   4.745 -0.2899 -0.1474  0.5515
 4969TIP3    H114913   1.465   1.409   4.837 -1.3172 -1.7638  0.2289
 4969TIP3    H214914   1.382   1.387   4.713 -1.5165  2.3803 -0.5246
 4970TIP3   OH214915   0.824   3.058   3.553  0.2481  0.7677 -0.3525
 4970TIP3    H114916   0.814   2.986   3.491  0.3939 -0.0235  0.5266
 4970TIP3    H214917   0.738   3.100   3.554  0.3026  0.9294 -1.2374
 4971TIP3   OH214918   5.757   0.529   3.116 -0.5827 -0.7571 -0.0191
 4971TIP3    H114919   5.749   0.454   3.057 -0.3511 -0.8227  0.0319
 4971TIP3    H214920   5.840   0.570   3.092 -1.0538 -0.0818 -0.5520
 4972TIP3   OH214921   2.582   0.193   3.748 -0.2268 -0.4776 -0.2659
 4972TIP3    H114922   2.674   0.190   3.774 -0.6801 -0.7792  1.3856
 4972TIP3    H214923   2.549   0.274   3.785 -1.1779 -1.4831  1.1915
 4973TIP3   OH214924   5.683   2.676   4.275 -0.4467  0.3073  0.0450
 4973TIP3    H114925   5.622   2.648   4.343 -2.4050 -0.1900 -1.8034
 4973TIP3    H214926   5.722   2.595   4.243 -0.2009  0.4545 -0.0319
 4974TIP3   OH214927   1.626   2.409   3.972 -0.2860  0.1614 -0.2776
 4974TIP3    H114928   1.695   2.359   3.928 -0.3998 -1.1061  0.9233
 4974TIP3    H214929   1.661   2.427   4.059 -1.4800 -0.5540  0.3749
 4975TIP3   OH214930   2.273   5.185   3.465  0.1785 -0.2026  0.6580
 4975TIP3    H114931   2.350   5.221   3.421  1.6736 -1.5734  1.9684
 4975TIP3    H214932   2.251   5.250   3.532 -0.5258  0.7120 -0.4389
 4976TIP3   OH214933   4.878   1.187   0.712  0.1966  0.3552 -0.6407
 4976TIP3    H114934   4.814   1.170   0.643  1.6210 -1.1877 -1.6811
 4976TIP3    H214935   4.828   1.183   0.794 -1.1320 -0.0751 -1.4525
 4977TIP3   OH214936   4.619   5.107   0.811  0.1138 -0.4916 -0.1906
 4977TIP3    H114937   4.713   5.110   0.795  0.2864 -1.7766  0.4953
 4977TIP3    H214938   4.584   5.048   0.744  0.0668 -1.4395  0.6432
 4978TIP3   OH214939   2.335   3.819   4.706  0.2848  0.0996 -0.7714
 4978TIP3    H114940   2.293   3.897   4.671  1.4679  0.9508 -0.3593
 4978TIP3    H214941   2.377   3.848   4.787 -2.0656 -1.7324  1.2610
 4979TIP3   OH214942   3.335   2.220   1.221  0.2820 -0.6392 -0.1626
 4979TIP3    H114943   3.243   2.247   1.227 -0.3447 -2.5758 -0.3770
 4979TIP3    H214944   3.354   2.181   1.306  0.2886 -2.0081 -0.7798
 4980TIP3   OH214945   2.065   4.833   1.831 -0.2248  0.3418 -0.6517
 4980TIP3    H114946   2.111   4.762   1.876 -2.4150 -0.4456  0.4984
 4980TIP3    H214947   2.037   4.794   1.748 -1.4413 -0.2093 -0.0135
 4981TIP3   OH214948   3.423   0.404   4.406  0.6098  0.2558  0.1140
 4981TIP3    H114949   3.483   0.333   4.384  0.3543 -0.6257  2.0789
 4981TIP3    H214950   3.478   0.472   4.443  0.5101 -0.2279  1.1743
 4982TIP3   OH214951   0.430   2.861   4.855 -0.0254 -0.0667 -0.0208
 4982TIP3    H114952   0.448   2.783   4.802 -0.0406 -1.1917  1.5569
 4982TIP3    H214953   0.408   2.826   4.941 -0.9599  1.6631  0.4786
 4983TIP3   OH214954   4.181   3.496   3.801  0.4544  0.3418 -0.3407
 4983TIP3    H114955   4.219   3.564   3.746 -1.3911  0.9567 -0.9104
 4983TIP3    H214956   4.220   3.511   3.888  0.0001  2.2006 -0.4234
 4984TIP3   OH214957   3.834   3.945   3.202  0.6981  0.2073 -0.7401
 4984TIP3    H114958   3.747   3.908   3.185  0.4580  0.8509 -0.9423
 4984TIP3    H214959   3.849   3.929   3.295  0.5968 -0.3927 -0.8258
 4985TIP3   OH214960   3.518   1.370   0.638  0.3700 -0.3540 -0.9486
 4985TIP3    H114961   3.550   1.407   0.556  0.9745 -0.4229 -0.7489
 4985TIP3    H214962   3.587   1.310   0.666  0.0734 -0.4903 -0.5010
 4986TIP3   OH214963   0.544   0.086   1.949  0.0791  0.3902  0.0765
 4986TIP3    H114964   0.586   0.081   1.863 -1.1962 -0.1919 -0.5423
 4986TIP3    H214965   0.589   0.020   2.002 -0.5883 -0.8332 -0.8314
 4987TIP3   OH214966   2.002   5.290   0.230  0.8201  0.2120 -0.3597
 4987TIP3    H114967   1.972   5.224   0.167  0.1094  0.8390 -0.6834
 4987TIP3    H214968   2.039   5.238   0.302 -1.4618 -0.6227  0.2884
 4988TIP3   OH214969   4.543   2.629   2.458  0.0195  0.2229  0.5032
 4988TIP3    H114970   4.532   2.549   2.406  0.1893  0.3395  0.2847
 4988TIP3    H214971   4.534   2.700   2.394  0.0883  0.3718  0.6591
 4989TIP3   OH214972   5.062   2.507   4.802 -0.3656 -0.3160 -0.1008
 4989TIP3    H114973   5.107   2.424   4.818  1.0652  0.0155 -1.9628
 4989TIP3    H214974   5.072   2.556   4.883  0.7775 -1.0916  0.2535
 4990TIP3   OH214975   4.548   5.009   5.037 -0.8603 -0.5711 -0.6295
 4990TIP3    H114976   4.455   4.986   5.039 -0.4373 -2.6019  2.5822
 4990TIP3    H214977   4.558   5.076   5.105 -0.0721  0.2874 -1.5603
 4991TIP3   OH214978   5.672   1.501   3.093  0.4078 -0.3312 -0.2252
 4991TIP3    H114979   5.638   1.456   3.015  0.3856 -1.8682  0.6187
 4991TIP3    H214980   5.767   1.492   3.086  0.5781  1.8579 -1.3722
 4992TIP3   OH214981   4.783   1.197   0.304  0.2124 -0.5824  0.1450
 4992TIP3    H114982   4.706   1.206   0.249  0.1085 -0.3195  0.3312
 4992TIP3    H214983   4.748   1.183   0.392  0.3346  1.5471  0.5873
 4993TIP3   OH214984   5.244   3.934   3.685 -0.0659  0.8439  0.4218
 4993TIP3    H114985   5.154   3.902   3.695  0.2750  0.4163  2.6815
 4993TIP3    H214986   5.235   4.023   3.653 -1.3411  1.0781  1.3665
 4994TIP3   OH214987   2.211   3.472   0.208  0.2850  0.2638  0.4611
 4994TIP3    H114988   2.261   3.390   0.216 -1.5126 -1.0705 -0.9953
 4994TIP3    H214989   2.135   3.458   0.265 -0.6027  0.4332 -0.6661
 4995TIP3   OH214990   4.947   3.614   0.768  0.2450 -0.1050  0.5389
 4995TIP3    H114991   4.921   3.705   0.749 -1.6302 -0.5464  0.7825
 4995TIP3    H214992   4.930   3.604   0.862  0.5355 -0.6687  0.5316
 4996TIP3   OH214993   4.640   0.269   1.137  0.1937  0.1145 -0.4183
 4996TIP3    H114994   4.672   0.358   1.123  0.0368  0.1546 -0.5213
 4996TIP3    H214995   4.717   0.214   1.124  1.0753  0.4359  2.6661
 4997TIP3   OH214996   2.164   1.217   2.198 -0.2632  0.2961  0.2160
 4997TIP3    H114997   2.142   1.284   2.134 -0.5477  0.0575  0.0577
 4997TIP3    H214998   2.107   1.235   2.273  0.2878  0.7617  0.5331
 4998TIP3   OH214999   1.340   0.135   1.517  0.0522 -0.4094 -0.3939
 4998TIP3    H115000   1.359   0.217   1.563 -1.1012  0.3869 -1.2836
 4998TIP3    H215001   1.335   0.069   1.587  1.9509  0.0577  0.2430
 4999TIP3   OH215002   3.524   0.908   2.314  0.1394 -0.2440  0.3129
 4999TIP3    H115003   3.542   0.926   2.407  1.1516  0.8287 -0.0635
 4999TIP3    H215004   3.522   0.813   2.309 -0.7308 -0.3198  1.5712
 5000TIP3   OH215005   3.252   3.335   3.679 -0.2426 -0.3368 -0.1468
 5000TIP3    H115006   3.229   3.366   3.766 -0.4371 -1.7652  0.3446
 5000TIP3    H215007   3.274   3.414   3.630 -0.3763  0.5146  1.1173
 5001TIP3   OH215008   0.981   3.289   0.403  0.1184 -0.4383 -0.3110
 5001TIP3    H115009   1.035   3.339   0.464  0.1963  0.2863 -0.9556
 5001TIP3    H215010   0.926   3.234   0.459 -0.2013  0.6047  0.4410
 5002TIP3   OH215011   6.150   2.171   1.382  0.2249  0.0727  0.2886
 5002TIP3    H115012   6.141   2.262   1.357  1.3129  0.1712  0.2106
 5002TIP3    H215013   6.079   2.126   1.337 -1.4957  1.1424  1.8151
 5003TIP3   OH215014   1.882   3.510   1.652  0.5467 -0.2904 -0.1417
 5003TIP3    H115015   1.840   3.508   1.566 -1.3899  0.6758  0.7397
 5003TIP3    H215016   1.956   3.571   1.641  1.5727 -1.7181 -1.6045
 5004TIP3   OH215017   5.517   3.925   5.199  0.0432 -0.1642 -0.3460
 5004TIP3    H115018   5.592   3.875   5.167 -0.2538 -0.4577 -0.5998
 5004TIP3    H215019   5.446   3.901   5.139 -0.3338 -0.1431  0.0872
 5005TIP3   OH215020   3.987   3.212   1.009  0.4029  0.2943 -0.0776
 5005TIP3    H115021   4.076   3.244   1.000  1.2059 -2.2713 -3.8044
 5005TIP3    H215022   3.944   3.235   0.926 -1.1500 -1.6973  0.0796
 5006TIP3   OH215023   1.595   4.070   2.235  0.4556 -0.1285  0.2352
 5006TIP3    H115024   1.501   4.050   2.239  0.7555 -1.5254  1.9712
 5006TIP3    H215025   1.621   4.047   2.146 -1.0134  1.2778 -0.6060
 5007TIP3   OH215026   5.792   4.277   2.603  0.2081 -0.6533 -0.1403
 5007TIP3    H115027   5.759   4.236   2.683  2.5765 -1.0058  0.7519
 5007TIP3    H215028   5.858   4.215   2.570  1.0216  0.6136 -0.9954
 5008TIP3   OH215029   0.189   5.420   1.036 -0.1180 -0.6462  0.4759
 5008TIP3    H115030   0.239   5.400   0.956  0.2540  2.2468 -0.1306
 5008TIP3    H215031   0.098   5.406   1.011 -0.0381  0.5590 -0.6487
 5009TIP3   OH215032   1.847   4.881   1.612 -0.1224 -0.2578  0.5856
 5009TIP3    H115033   1.922   4.840   1.568  0.1998 -0.1196  1.0052
 5009TIP3    H215034   1.884   4.957   1.657 -0.7923  0.8214 -0.6146
 5010TIP3   OH215035   0.240   2.124   2.944  0.0286 -0.2016  0.2453
 5010TIP3    H115036   0.328   2.089   2.955  0.4286  0.8740  0.6573
 5010TIP3    H215037   0.213   2.147   3.033 -1.9691 -3.4052  0.6348
 5011TIP3   OH215038   5.904   0.583   2.754  0.3491 -0.0992 -0.7043
 5011TIP3    H115039   5.901   0.602   2.660  1.4671 -0.5130 -0.8433
 5011TIP3    H215040   5.987   0.621   2.783 -0.4915  1.0038  0.3579
 5012TIP3   OH215041   1.314   4.432   0.130 -0.0067  0.3837 -0.9285
 5012TIP3    H115042   1.265   4.363   0.175  0.0025  0.7151 -0.3879
 5012TIP3    H215043   1.365   4.473   0.200  0.0119  0.9123 -1.2488
 5013TIP3   OH215044   2.767   0.860   0.173 -0.1179 -0.5999  0.2450
 5013TIP3    H115045   2.824   0.821   0.106  0.0933  0.2909 -0.1031
 5013TIP3    H215046   2.828   0.897   0.238 -0.2449  1.1129 -0.5540
 5014TIP3   OH215047   2.531   0.119   0.323 -0.4854 -0.0230 -0.8629
 5014TIP3    H115048   2.462   0.154   0.379  1.3089  1.2401  0.6702
 5014TIP3    H215049   2.554   0.191   0.265  1.9210  0.8500  1.0337
 5015TIP3   OH215050   3.660   1.835   1.424  0.2985  0.1082  0.2552
 5015TIP3    H115051   3.569   1.806   1.418  0.6591 -0.9040 -0.6431
 5015TIP3    H215052   3.660   1.923   1.385 -0.3476  0.2639  0.5888
 5016TIP3   OH215053   3.185   4.779   3.811 -0.4158  0.1693  0.5828
 5016TIP3    H115054   3.110   4.721   3.799  1.0169 -1.5425 -0.6945
 5016TIP3    H215055   3.178   4.843   3.740  0.5194 -1.4214 -1.0183
 5017TIP3   OH215056   0.640   0.618   3.598  0.3188 -0.3458 -0.7271
 5017TIP3    H115057   0.645   0.531   3.559  2.7578  0.6744 -3.0060
 5017TIP3    H215058   0.621   0.676   3.524 -1.5208  1.0919  0.7754
 5018TIP3   OH215059   3.582   0.862   0.428  0.4792 -0.2980  0.3467
 5018TIP3    H115060   3.614   0.815   0.351  1.1710  2.1142 -0.9695
 5018TIP3    H215061   3.624   0.820   0.502  1.7931 -1.1429 -0.8254
 5019TIP3   OH215062   2.379   1.710   2.646  0.1045 -0.0103  0.0164
 5019TIP3    H115063   2.355   1.625   2.611 -0.5981  0.1828  0.0165
 5019TIP3    H215064   2.315   1.771   2.609  1.0577  0.6511 -0.5982
 5020TIP3   OH215065   5.024   1.538   2.772  0.4505 -0.2344 -0.1768
 5020TIP3    H115066   5.078   1.463   2.749  1.3762  0.4218 -0.1615
 5020TIP3    H215067   4.943   1.500   2.806  0.5166 -1.2209 -1.0960
 5021TIP3   OH215068   6.048   2.167   2.619 -0.0195  0.0786 -0.0843
 5021TIP3    H115069   6.087   2.138   2.536 -1.3188  1.8793 -1.3976
 5021TIP3    H215070   6.067   2.260   2.623 -1.0821  0.2687  1.0432
 5022TIP3   OH215071   3.853   0.819   1.400  0.4557 -0.0565  0.1690
 5022TIP3    H115072   3.762   0.813   1.428  0.4334 -1.7049 -0.1831
 5022TIP3    H215073   3.900   0.843   1.480 -0.4102  2.3399  0.0503
 5023TIP3   OH215074   4.498   5.047   1.864  0.1351 -0.1604  0.2343
 5023TIP3    H115075   4.516   5.054   1.958  0.7395  0.8330  0.0499
 5023TIP3    H215076   4.516   5.134   1.829 -3.3578  0.5406 -0.2619
 5024TIP3   OH215077   2.898   4.776   3.628 -0.4586  0.5782 -0.5909
 5024TIP3    H115078   2.838   4.718   3.581  1.2391  0.9454 -3.3961
 5024TIP3    H215079   2.979   4.725   3.638 -0.3539  0.9651  0.9111
 5025TIP3   OH215080   4.251   2.367   3.837  0.3320 -0.3546 -0.4639
 5025TIP3    H115081   4.256   2.311   3.915 -1.5944  2.5862  2.0048
 5025TIP3    H215082   4.334   2.415   3.837  0.7837 -1.1039 -0.9243
 5026TIP3   OH215083   4.530   2.597   1.128  0.0822 -0.3272  0.2095
 5026TIP3    H115084   4.524   2.540   1.052  0.5573  0.6506 -0.5840
 5026TIP3    H215085   4.614   2.573   1.168 -0.3162 -1.0670  0.6353
 5027TIP3   OH215086   4.609   2.943   0.467  0.0109 -0.7238  0.3168
 5027TIP3    H115087   4.611   2.976   0.556 -2.1487 -2.1979  0.9994
 5027TIP3    H215088   4.603   2.848   0.476  0.4972 -0.9611 -1.4210
 5028TIP3   OH215089   5.998   2.644   0.777  0.2130 -0.4602  0.6572
 5028TIP3    H115090   6.080   2.681   0.811  0.8525 -0.8167 -0.4678
 5028TIP3    H215091   6.019   2.616   0.688 -1.7233  1.5978 -0.5655
 5029TIP3   OH215092   3.972   1.794   3.879  0.5533  0.2467  0.7516
 5029TIP3    H115093   4.008   1.710   3.908  0.4351 -0.0871 -0.0417
 5029TIP3    H215094   3.968   1.847   3.959  2.6286  0.2495  0.9194
 5030TIP3   OH215095   4.506   4.102   3.997  0.0173 -0.6386 -0.6069
 5030TIP3    H115096   4.469   4.175   4.047 -0.3459 -1.6257  0.6309
 5030TIP3    H215097   4.430   4.047   3.976  0.3029 -0.7300 -1.4171
 5031TIP3   OH215098   4.361   1.780   3.602  0.0400 -0.3203 -0.0960
 5031TIP3    H115099   4.375   1.868   3.569  0.7797 -0.8184 -1.1737
 5031TIP3    H215100   4.444   1.755   3.642 -0.3055 -0.3721  0.6091
 5032TIP3   OH215101   1.369   0.080   2.388  0.0997  0.3801 -0.3930
 5032TIP3    H115102   1.306   0.097   2.319  1.1926  1.5598 -1.1261
 5032TIP3    H215103   1.318   0.088   2.469 -1.4265 -2.0028 -1.0103
 5033TIP3   OH215104   0.385   4.435   3.075 -0.4236  0.3063 -0.1685
 5033TIP3    H115105   0.375   4.479   3.160 -1.4109 -0.8729  0.3567
 5033TIP3    H215106   0.358   4.501   3.011 -1.7988  0.5280  0.5924
 5034TIP3   OH215107   5.927   3.831   1.960 -0.1308  0.1214  0.2894
 5034TIP3    H115108   5.978   3.773   1.903 -1.2736 -0.9356  0.3040
 5034TIP3    H215109   5.856   3.862   1.904  0.4749  1.5614  0.2757
 5035TIP3   OH215110   4.841   2.075   3.746 -0.8881  0.5258  0.1231
 5035TIP3    H115111   4.910   2.086   3.812 -0.0537 -0.2722 -0.5858
 5035TIP3    H215112   4.783   2.149   3.759  0.1762  1.2843  0.6730
 5036TIP3   OH215113   4.347   2.530   0.338  0.3087  0.5666  0.2631
 5036TIP3    H115114   4.300   2.598   0.386  0.5337  1.1611 -0.3485
 5036TIP3    H215115   4.415   2.577   0.290  0.4592 -0.0887 -0.1783
 5037TIP3   OH215116   4.951   4.212   1.386  0.0959 -0.1777  0.5904
 5037TIP3    H115117   5.043   4.239   1.383 -0.5096  2.1716  1.3917
 5037TIP3    H215118   4.932   4.201   1.479 -0.4047 -0.8297  0.4177
 5038TIP3   OH215119   2.712   0.599   0.585  0.3616  0.4882  0.2579
 5038TIP3    H115120   2.722   0.649   0.666 -0.1885  2.5251 -0.8489
 5038TIP3    H215121   2.791   0.618   0.535 -0.7618  2.0169 -1.0353
 5039TIP3   OH215122   0.266   3.114   1.962  0.8458  0.2547 -0.2726
 5039TIP3    H115123   0.352   3.121   1.919  0.5652  0.3458 -0.8203
 5039TIP3    H215124   0.203   3.117   1.890  0.4417 -1.6839 -0.0443
 5040TIP3   OH215125   1.480   5.817   2.518 -0.3031 -0.3343  0.3460
 5040TIP3    H115126   1.449   5.786   2.603 -0.8821  2.7449  1.4054
 5040TIP3    H215127   1.575   5.809   2.522 -0.2657  0.4768  1.6284
 5041TIP3   OH215128   4.617   5.432   2.527 -0.3142  0.3223  0.6641
 5041TIP3    H115129   4.523   5.435   2.513 -0.2152 -0.3448 -0.3336
 5041TIP3    H215130   4.632   5.349   2.573 -0.1597  0.0731  0.1780
 5042TIP3   OH215131   3.579   0.105   3.627 -0.0276  0.2651 -0.6069
 5042TIP3    H115132   3.609   0.090   3.716  0.8585 -0.4612 -1.0039
 5042TIP3    H215133   3.616   0.032   3.577  0.8457  1.5271 -1.8622
 5043TIP3   OH215134   0.251   2.048   0.461 -0.3079 -0.4418  0.3005
 5043TIP3    H115135   0.319   2.044   0.529  1.6229  2.1714 -1.2903
 5043TIP3    H215136   0.257   1.963   0.417  0.9188 -0.8220  1.1344
 5044TIP3   OH215137   3.286   0.575   3.820 -0.1178 -0.0512 -0.1388
 5044TIP3    H115138   3.236   0.498   3.850 -1.4202  0.2956 -1.2901
 5044TIP3    H215139   3.359   0.581   3.881 -0.3031 -1.8610  0.3449
 5045TIP3   OH215140   0.181   3.093   3.937  0.1532  0.1052  0.1747
 5045TIP3    H115141   0.258   3.036   3.943  0.6806  0.8461  0.4590
 5045TIP3    H215142   0.131   3.074   4.016  0.1081 -0.2608  0.0653
 5046TIP3   OH215143   4.113   5.482   4.964 -0.0110 -0.3770 -0.1398
 5046TIP3    H115144   4.100   5.471   4.869 -2.0352 -2.2593  0.2612
 5046TIP3    H215145   4.065   5.562   4.985 -1.5104 -1.1471 -0.4404
 5047TIP3   OH215146   3.649   2.865   1.091 -0.2759  0.3327  0.3374
 5047TIP3    H115147   3.613   2.780   1.067 -0.1118 -0.4813  2.6598
 5047TIP3    H215148   3.738   2.864   1.055 -0.7349  0.1330 -0.8394
 5048TIP3   OH215149   6.153   1.369   2.963 -0.1970  0.6759  0.0441
 5048TIP3    H115150   6.139   1.419   2.882  0.5524 -1.2664 -1.3702
 5048TIP3    H215151   6.245   1.345   2.960 -0.8215 -1.9888 -0.1337
 5049TIP3   OH215152   0.997   3.884   4.075  0.2920 -0.0231 -0.8556
 5049TIP3    H115153   1.009   3.824   4.002 -1.9908 -1.3552 -0.2416
 5049TIP3    H215154   1.013   3.831   4.153 -1.0409  0.3103 -0.3161
 5050TIP3   OH215155   4.938   3.381   0.515  0.0542 -0.5676 -0.3131
 5050TIP3    H115156   4.913   3.347   0.601 -0.3552 -1.4084 -0.7614
 5050TIP3    H215157   5.016   3.435   0.533  0.2616 -1.1228  0.5179
 5051TIP3   OH215158   4.821   3.047   3.363  0.6016  0.0792 -0.2181
 5051TIP3    H115159   4.908   3.083   3.380  0.8678 -0.8597  0.5781
 5051TIP3    H215160   4.822   2.963   3.409  0.6560 -1.8272 -3.3942
 5052TIP3   OH215161   5.928   0.397   0.423  0.1259  0.2981 -0.3210
 5052TIP3    H115162   5.985   0.360   0.356 -0.0435  1.8083 -1.3492
 5052TIP3    H215163   5.985   0.407   0.500  0.4190 -1.0948 -0.3265
 5053TIP3   OH215164   0.697   3.738   2.270 -0.5582 -0.1524  0.0178
 5053TIP3    H115165   0.740   3.811   2.315  1.1310  0.2433 -2.0267
 5053TIP3    H215166   0.683   3.673   2.338 -1.0238  1.5804  1.6860
 5054TIP3   OH215167   5.891   3.383   2.155  0.3999 -0.1770  0.1013
 5054TIP3    H115168   5.930   3.299   2.180 -0.7612 -0.5854  0.5584
 5054TIP3    H215169   5.865   3.423   2.237 -0.5987 -0.1311 -0.2302
 5055TIP3   OH215170   2.255   0.172   2.015  1.0060 -0.1080  0.1199
 5055TIP3    H115171   2.322   0.202   2.077  0.5389  0.3207  0.4321
 5055TIP3    H215172   2.301   0.162   1.932  1.5157 -0.1072  0.3974
 5056TIP3   OH215173   2.318   3.722   2.801  0.0331  0.3258 -0.2417
 5056TIP3    H115174   2.346   3.734   2.710 -2.1022 -0.0108 -1.0098
 5056TIP3    H215175   2.343   3.632   2.822 -1.7493 -0.5148 -1.4523
 5057TIP3   OH215176   5.052   3.843   4.033 -0.7114  0.8874 -0.1322
 5057TIP3    H115177   5.041   3.934   4.005  1.7737  1.5154  0.6705
 5057TIP3    H215178   5.133   3.814   3.989 -2.1950 -1.4764 -1.5358
 5058TIP3   OH215179   4.370   0.910   2.683 -0.3550 -0.4049  0.6418
 5058TIP3    H115180   4.295   0.950   2.638  0.1128  0.9656  1.0238
 5058TIP3    H215181   4.332   0.869   2.761 -0.9094 -1.1307  0.0051
 5059TIP3   OH215182   0.767   5.325   1.892 -0.8173  0.3587 -0.2981
 5059TIP3    H115183   0.816   5.246   1.870 -0.1032  0.8470 -0.5060
 5059TIP3    H215184   0.805   5.355   1.975 -1.1072  0.4599 -0.2006
 5060TIP3   OH215185   5.505   5.502   0.799 -0.3321  0.3090 -0.3180
 5060TIP3    H115186   5.582   5.450   0.773 -0.2606 -0.2692  0.9358
 5060TIP3    H215187   5.541   5.587   0.822 -0.0110 -0.0413  0.5210
 5061TIP3   OH215188   3.402   4.971   3.414  0.2634  0.7183  0.3828
 5061TIP3    H115189   3.420   5.052   3.463 -1.3977  2.3943 -1.5846
 5061TIP3    H215190   3.456   4.979   3.335  0.4369 -0.3556  0.3832
 5062TIP3   OH215191   5.355   5.000   3.354  0.5025  0.3406 -0.3146
 5062TIP3    H115192   5.356   4.975   3.262  1.2081  1.8620 -0.7503
 5062TIP3    H215193   5.442   5.037   3.370  0.4551 -0.0715  1.0158
 5063TIP3   OH215194   6.175   2.425   1.271 -0.0746 -0.2557  0.3904
 5063TIP3    H115195   6.190   2.518   1.260  1.0260 -0.4418  0.2360
 5063TIP3    H215196   6.232   2.383   1.207  0.5667 -1.0750  1.4662
 5064TIP3   OH215197   3.490   2.721   2.730 -0.1730  0.3300 -0.2267
 5064TIP3    H115198   3.473   2.657   2.799  0.1072  0.8960  0.3834
 5064TIP3    H215199   3.585   2.735   2.733 -0.0297 -0.2871 -1.3183
 5065TIP3   OH215200   0.932   5.868   3.155  0.0909 -0.2369  0.0203
 5065TIP3    H115201   0.933   5.891   3.248  0.2953  1.0912 -0.2847
 5065TIP3    H215202   0.848   5.899   3.122 -0.2702 -1.3217 -0.1020
 5066TIP3   OH215203   5.722   1.737   1.579  0.0991  0.2703 -0.0223
 5066TIP3    H115204   5.791   1.791   1.540  1.3182 -0.3730  1.1666
 5066TIP3    H215205   5.742   1.648   1.550 -1.5045  0.2950 -1.4050
 5067TIP3   OH215206   6.221   2.096   3.543 -0.2505 -0.8059 -0.4747
 5067TIP3    H115207   6.269   2.176   3.522 -1.2007 -0.1597 -0.2394
 5067TIP3    H215208   6.289   2.034   3.572  0.6322 -0.5101 -1.8395
 5068TIP3   OH215209   2.247   2.932   1.536 -0.3260 -0.2001  0.6305
 5068TIP3    H115210   2.277   3.002   1.479 -1.0995 -0.6510 -0.3691
 5068TIP3    H215211   2.176   2.971   1.587 -2.0234 -0.7018 -1.2396
 5069TIP3   OH215212   4.484   4.570   4.143  0.0847 -0.2408 -0.1750
 5069TIP3    H115213   4.481   4.609   4.230 -1.6266  0.9867 -0.7436
 5069TIP3    H215214   4.453   4.480   4.156 -2.6817  0.6920  0.1542
 5070TIP3   OH215215   5.518   3.885   3.669 -0.1266  0.0612  0.2820
 5070TIP3    H115216   5.424   3.897   3.680 -0.4105 -0.5248 -1.2581
 5070TIP3    H215217   5.544   3.957   3.611 -0.0627 -1.0644 -1.1272
 5071TIP3   OH215218   5.271   1.838   4.063  0.2380  0.0213  0.4144
 5071TIP3    H115219   5.314   1.923   4.071 -1.1525  0.7445  0.4582
 5071TIP3    H215220   5.220   1.844   3.982  1.7934 -1.5730 -0.7808
 5072TIP3   OH215221   6.331   5.929   5.177  0.2928  0.4226 -0.2336
 5072TIP3    H115222   6.314   5.844   5.218  1.3632  0.4929  0.3993
 5072TIP3    H215223   6.350   5.908   5.086 -1.6859  0.2212 -0.6420
 5073TIP3   OH215224   5.612   4.227   4.528  0.4377  0.0701 -0.1272
 5073TIP3    H115225   5.706   4.232   4.549  0.0839 -0.1109  1.6595
 5073TIP3    H215226   5.572   4.297   4.578 -0.3202  0.6726 -1.5129
 5074TIP3   OH215227   0.799   4.549   0.380  0.0012 -0.2361 -0.4598
 5074TIP3    H115228   0.847   4.623   0.418 -1.2256  1.1982 -1.6104
 5074TIP3    H215229   0.842   4.472   0.416  2.6302  0.9809 -0.7901
 5075TIP3   OH215230   4.918   0.352   2.291  0.0288 -0.3744 -0.4547
 5075TIP3    H115231   4.931   0.323   2.381  0.8658  0.7541 -0.1837
 5075TIP3    H215232   4.963   0.286   2.238 -0.0334 -0.7735 -0.0156
 5076TIP3   OH215233   2.505   3.211   2.980  0.4128  0.1219 -0.0219
 5076TIP3    H115234   2.594   3.246   2.992  0.7620 -0.7206 -0.0693
 5076TIP3    H215235   2.504   3.131   3.033 -1.0198  1.2175  1.7248
 5077TIP3   OH215236   1.121   4.554   1.589 -0.2029 -0.1317 -0.3926
 5077TIP3    H115237   1.090   4.515   1.671  1.6796 -0.8276  0.0421
 5077TIP3    H215238   1.065   4.517   1.522 -1.7945  0.4525  0.5552
 5078TIP3   OH215239   2.106   0.729   0.403  0.1780 -0.3552  0.1752
 5078TIP3    H115240   2.183   0.732   0.460  0.0456  0.4987  0.3239
 5078TIP3    H215241   2.137   0.763   0.319  0.6920 -2.7385 -0.7098
 5079TIP3   OH215242   4.289   2.155   0.478  0.0600  0.0684  0.0801
 5079TIP3    H115243   4.294   2.060   0.488  1.0279  0.1996  1.0669
 5079TIP3    H215244   4.368   2.177   0.428  0.3558  0.4380  0.6974
 5080TIP3   OH215245   3.010   4.807   0.769  0.1493 -0.4004  0.7857
 5080TIP3    H115246   2.921   4.803   0.804  0.3421 -2.2799  1.1438
 5080TIP3    H215247   3.017   4.729   0.714  2.0418 -1.1006  1.9456
 5081TIP3   OH215248   2.339   3.103   2.803  0.3386 -0.5149 -0.5832
 5081TIP3    H115249   2.401   3.070   2.738  2.2737  2.1059 -0.2341
 5081TIP3    H215250   2.389   3.168   2.853 -2.1783  0.3470  1.0005
 5082TIP3   OH215251   2.919   2.851   4.422  0.2143  0.1914 -0.0575
 5082TIP3    H115252   2.897   2.791   4.351 -1.5513  0.4825  0.1877
 5082TIP3    H215253   2.838   2.900   4.438  1.2517  1.7735  0.5852
 5083TIP3   OH215254   0.800   0.166   1.067  0.5686  0.0121  0.2081
 5083TIP3    H115255   0.789   0.261   1.061 -0.5965 -0.2056 -2.1298
 5083TIP3    H215256   0.872   0.146   1.007 -0.1601 -0.7046 -0.4495
 5084TIP3   OH215257   6.242   0.356   1.023  0.4790  0.3772  0.1573
 5084TIP3    H115258   6.292   0.377   0.944  0.6188  0.3043  0.2265
 5084TIP3    H215259   6.300   0.379   1.095  1.5236 -2.2772  0.2642
 5085TIP3   OH215260   0.957   5.888   4.183  0.2811 -0.3535  0.0805
 5085TIP3    H115261   0.885   5.883   4.246 -1.0619 -0.9020 -1.4103
 5085TIP3    H215262   1.024   5.830   4.218 -0.1973 -0.2208  1.2644
 5086TIP3   OH215263   4.362   0.957   5.098  0.0120 -0.3542 -0.4208
 5086TIP3    H115264   4.378   1.050   5.115  1.5458 -0.4600 -1.1025
 5086TIP3    H215265   4.395   0.943   5.009  1.1980 -1.8323  0.2011
 5087TIP3   OH215266   0.888   0.288   3.376  0.0082  0.1155 -0.0067
 5087TIP3    H115267   0.929   0.305   3.460 -1.0894  1.0079  0.3659
 5087TIP3    H215268   0.810   0.343   3.375 -3.0575 -3.7190  0.6897
 5088TIP3   OH215269   0.904   0.653   0.019  0.1982 -0.1925  0.2190
 5088TIP3    H115270   0.944   0.580  -0.029 -0.4032  0.0015 -0.6024
 5088TIP3    H215271   0.974   0.719   0.024  0.2996 -0.2452 -0.3410
 5089TIP3   OH215272   4.922   2.645   2.586  0.2629  0.0826 -0.2695
 5089TIP3    H115273   4.928   2.663   2.679  0.3635  0.1485 -0.2882
 5089TIP3    H215274   4.850   2.699   2.555 -0.4776 -0.7505 -0.0331
 5090TIP3   OH215275   3.191   0.077   1.619  0.1122  0.3492 -0.6955
 5090TIP3    H115276   3.253   0.059   1.690  0.1469 -0.5834 -0.9526
 5090TIP3    H215277   3.243   0.124   1.554 -0.2273  2.3955  0.4158
 5091TIP3   OH215278   3.562   1.471   3.111 -0.1950 -0.5221  0.3472
 5091TIP3    H115279   3.492   1.492   3.174 -1.9362  0.3672 -1.7113
 5091TIP3    H215280   3.561   1.376   3.104  0.5792 -0.7020  2.1800
 5092TIP3   OH215281   5.454   2.468   1.485 -0.3293 -0.4401 -0.6013
 5092TIP3    H115282   5.528   2.514   1.525 -1.3170  1.2169 -0.6161
 5092TIP3    H215283   5.494   2.417   1.414  0.8451  0.1371 -0.3809
 5093TIP3   OH215284   4.370   2.808   2.831  0.0744  0.6392  0.5849
 5093TIP3    H115285   4.321   2.859   2.895  1.7046  1.7538  1.0210
 5093TIP3    H215286   4.414   2.740   2.883 -0.2358  0.2379  0.3327
 5094TIP3   OH215287   4.987   5.355   3.935  0.5348 -0.3664 -0.9910
 5094TIP3    H115288   4.925   5.324   3.869  0.3835  0.0960 -1.0727
 5094TIP3    H215289   4.942   5.340   4.018  0.8280 -1.1812 -0.9709
 5095TIP3   OH215290   0.439   1.286   1.872 -0.3344  0.3964 -0.2285
 5095TIP3    H115291   0.507   1.345   1.838 -0.4114 -0.4052 -1.8332
 5095TIP3    H215292   0.367   1.345   1.894  0.2941  1.0958  0.0386
 5096TIP3   OH215293   2.175   1.459   4.219 -0.2967 -0.5750  0.0431
 5096TIP3    H115294   2.271   1.456   4.217 -0.2337  0.9030 -0.0418
 5096TIP3    H215295   2.149   1.442   4.129 -0.0731 -0.2026 -0.0962
 5097TIP3   OH215296   0.921   1.861   2.527  0.2963 -0.0680  0.3624
 5097TIP3    H115297   0.877   1.783   2.561 -0.7859  0.0247 -0.7636
 5097TIP3    H215298   0.965   1.830   2.448  0.9429  0.1973  0.6113
 5098TIP3   OH215299   5.286   5.037   0.720  0.2036 -0.4648 -0.0703
 5098TIP3    H115300   5.293   4.999   0.633 -1.1192  1.2211 -0.9799
 5098TIP3    H215301   5.280   4.962   0.779  3.0098 -1.6593 -1.1872
 5099TIP3   OH215302   3.137   3.972   2.916 -0.3863 -0.1265 -0.4337
 5099TIP3    H115303   3.129   3.887   2.959  0.2435 -0.4773 -0.9891
 5099TIP3    H215304   3.093   3.960   2.832  0.5821 -0.2302 -0.9447
 5100TIP3   OH215305   0.194   2.995   2.677 -0.1304  0.0740 -0.3447
 5100TIP3    H115306   0.239   3.077   2.695 -0.3025 -0.2502  1.8698
 5100TIP3    H215307   0.188   2.991   2.582  0.7480  2.1397 -0.5374
 5101TIP3   OH215308   0.315   0.353   1.667 -0.3252  0.3571 -0.0214
 5101TIP3    H115309   0.253   0.281   1.681 -0.9328  0.7062 -0.8868
 5101TIP3    H215310   0.337   0.348   1.574  2.1467 -0.7063  0.5482
 5102TIP3   OH215311   5.679   4.640   3.526  0.0323 -0.4262 -0.5967
 5102TIP3    H115312   5.694   4.563   3.581 -2.3138 -1.7450 -1.6992
 5102TIP3    H215313   5.656   4.709   3.588 -1.7473 -1.6701  0.2152
 5103TIP3   OH215314   2.682   4.661   4.173 -0.0719 -0.2484  0.0421
 5103TIP3    H115315   2.757   4.670   4.114 -0.3621 -1.8579 -0.6246
 5103TIP3    H215316   2.609   4.700   4.124 -0.4740 -2.2627 -1.0518
 5104TIP3   OH215317   6.131   1.680   1.919 -0.4012 -0.3871 -0.3606
 5104TIP3    H115318   6.138   1.587   1.942 -0.5277 -0.9766 -2.4711
 5104TIP3    H215319   6.042   1.688   1.885 -1.1954  1.0635  1.8421
 5105TIP3   OH215320   2.409   3.400   1.425  0.9138 -0.0828  0.4024
 5105TIP3    H115321   2.388   3.306   1.423  0.4425  0.0298 -0.1665
 5105TIP3    H215322   2.450   3.413   1.510 -1.5241 -0.2780  1.6905
 5106TIP3   OH215323   5.488   4.614   4.252  0.0258 -0.1948 -0.1459
 5106TIP3    H115324   5.537   4.591   4.330  0.3131 -3.0011 -1.0291
 5106TIP3    H215325   5.542   4.679   4.207  0.2390  0.8356  1.5308
 5107TIP3   OH215326   3.318   1.587   0.612 -0.0400  0.1716  0.0296
 5107TIP3    H115327   3.370   1.507   0.612  0.7087  0.4742 -3.5632
 5107TIP3    H215328   3.377   1.653   0.648  1.3811  0.0551 -1.9083
 5108TIP3   OH215329   1.259   4.476   2.394 -0.5112 -0.2325  0.0382
 5108TIP3    H115330   1.262   4.566   2.361 -0.1798 -0.5218 -0.7357
 5108TIP3    H215331   1.236   4.486   2.487 -1.2850  0.6054 -0.2261
 5109TIP3   OH215332   5.380   3.641   2.629 -0.0230 -0.2917 -0.0661
 5109TIP3    H115333   5.341   3.576   2.571 -1.6446 -0.8662  1.5836
 5109TIP3    H215334   5.415   3.708   2.570 -1.7981 -0.7247 -1.6901
 5110TIP3   OH215335   0.130   2.758   3.960 -0.0583  0.2009  0.1039
 5110TIP3    H115336   0.073   2.744   3.885  1.3123  2.0441 -1.3954
 5110TIP3    H215337   0.182   2.678   3.966 -2.0962 -1.1407  0.9531
 5111TIP3   OH215338   3.534   4.775   5.076  0.6483  0.0491  0.4878
 5111TIP3    H115339   3.473   4.771   5.149  0.6285  0.1129  0.4749
 5111TIP3    H215340   3.608   4.721   5.103 -0.2547 -1.6203 -0.2872
 5112TIP3   OH215341   4.402   0.271   1.017  0.1681  0.5645 -0.0395
 5112TIP3    H115342   4.425   0.364   1.009  0.7991  0.6217  1.8590
 5112TIP3    H215343   4.486   0.228   1.030 -0.1342 -0.2911 -0.8346
 5113TIP3   OH215344   4.514   0.236   4.540  0.2121 -0.0975 -0.0475
 5113TIP3    H115345   4.560   0.171   4.593 -0.8927 -1.1526 -0.3306
 5113TIP3    H215346   4.583   0.282   4.492  1.2375  0.7886  2.1397
 5114TIP3   OH215347   6.298   2.272   1.099 -0.2876  0.2313 -0.3703
 5114TIP3    H115348   6.377   2.261   1.045 -1.0518  1.2726 -1.7291
 5114TIP3    H215349   6.229   2.295   1.038 -1.5750 -0.1677  0.8663
 5115TIP3   OH215350   4.641   3.407   4.237 -0.3965  0.4349 -0.7419
 5115TIP3    H115351   4.598   3.396   4.152 -0.5345  2.1914 -0.9295
 5115TIP3    H215352   4.734   3.413   4.217 -0.5160  2.1749 -0.9644
 5116TIP3   OH215353   4.276   2.549   2.574 -0.0210  0.3154 -0.1585
 5116TIP3    H115354   4.246   2.636   2.601  1.1848  1.2804 -1.7398
 5116TIP3    H215355   4.369   2.561   2.554  0.7893 -1.9023  1.7966
 5117TIP3   OH215356   3.625   3.251   3.227 -0.3410  0.3189 -0.2101
 5117TIP3    H115357   3.705   3.199   3.219  0.7495  1.6762  1.2859
 5117TIP3    H215358   3.570   3.203   3.289  0.5784  0.7950  1.0161
 5118TIP3   OH215359   5.868   1.867   0.844 -0.0085 -0.2109 -0.1679
 5118TIP3    H115360   5.776   1.889   0.830 -0.1583 -0.9098 -0.3116
 5118TIP3    H215361   5.894   1.818   0.766  0.9318  1.2736 -0.8501
 5119TIP3   OH215362   3.064   1.565   0.508 -0.1114 -0.0034 -0.4210
 5119TIP3    H115363   3.155   1.561   0.535  0.0420 -0.4128 -0.9956
 5119TIP3    H215364   3.055   1.496   0.442 -0.9876 -0.3990  0.0899
 5120TIP3   OH215365   2.094   3.345   5.054 -0.6377 -0.2218 -0.1899
 5120TIP3    H115366   2.106   3.305   4.969 -2.1394 -0.2004 -0.4410
 5120TIP3    H215367   2.162   3.413   5.059 -0.5081 -0.2508 -1.3444
 5121TIP3   OH215368   5.105   3.479   2.654 -0.0448 -0.5425  0.2090
 5121TIP3    H115369   5.068   3.557   2.695  0.9633  0.2799 -0.3956
 5121TIP3    H215370   5.161   3.441   2.722 -1.3569 -1.3712  0.8695
 5122TIP3   OH215371   3.054   4.763   1.988 -0.1318 -0.2963 -0.1254
 5122TIP3    H115372   3.054   4.834   2.052 -0.9257 -1.0784  0.7788
 5122TIP3    H215373   3.129   4.709   2.012 -0.6092 -0.7578  0.3571
 5123TIP3   OH215374   5.663   2.863   2.334  0.3165 -0.1158 -0.3952
 5123TIP3    H115375   5.681   2.932   2.398  0.4150 -0.4831 -0.0269
 5123TIP3    H215376   5.699   2.897   2.252 -0.0783  0.4833 -0.3246
 5124TIP3   OH215377   1.243   4.033   1.387  0.7148 -0.0166 -0.3596
 5124TIP3    H115378   1.230   4.122   1.355 -1.4588 -0.1598  0.0191
 5124TIP3    H215379   1.275   4.044   1.477  2.9356  0.3450 -1.1272
 5125TIP3   OH215380   0.740   2.722   1.080 -0.3365 -0.3817 -0.1076
 5125TIP3    H115381   0.687   2.715   1.000 -0.3363 -0.3574 -0.1100
 5125TIP3    H215382   0.830   2.725   1.049 -0.3351 -0.3985 -0.1050
 5126TIP3   OH215383   1.053   2.679   2.855  0.2144 -0.4723 -0.1723
 5126TIP3    H115384   1.064   2.687   2.760 -0.4786 -0.5638 -0.2717
 5126TIP3    H215385   1.012   2.593   2.866 -0.7614  0.0187  0.1111
 5127TIP3   OH215386   5.843  -0.005   1.919 -0.2046 -0.0100 -0.3908
 5127TIP3    H115387   5.812   0.030   1.835 -1.5634  0.9180  0.4543
 5127TIP3    H215388   5.938   0.001   1.915 -0.1221 -1.5205 -2.5067
 5128TIP3   OH215389   5.121   0.964   0.472 -0.1780  0.8007 -0.0798
 5128TIP3    H115390   5.134   0.940   0.380  0.3133 -2.1678  0.6334
 5128TIP3    H215391   5.027   0.951   0.486  0.0958 -1.0113  0.3180
 5129TIP3   OH215392   4.418   5.586   1.981  0.3246 -0.4806  0.0383
 5129TIP3    H115393   4.436   5.543   1.898  0.2052 -0.9697  0.2562
 5129TIP3    H215394   4.504   5.601   2.020  0.5070  1.6803 -1.0987
 5130TIP3   OH215395   2.600   0.422   4.528 -0.1360  0.4584 -0.3181
 5130TIP3    H115396   2.577   0.435   4.436 -2.7164  0.9916  0.3033
 5130TIP3    H215397   2.615   0.510   4.562 -0.9327  0.4364  0.1274
 5131TIP3   OH215398   3.561   1.302   3.965  0.3572 -0.4515  0.0554
 5131TIP3    H115399   3.549   1.313   4.059 -1.2579 -1.0119 -0.0478
 5131TIP3    H215400   3.474   1.317   3.927  0.9177 -0.4857 -1.3185
 5132TIP3   OH215401   3.774   5.890   1.244  0.0411  0.4176 -0.3546
 5132TIP3    H115402   3.710   5.854   1.182  1.5961 -0.8441 -1.3050
 5132TIP3    H215403   3.748   5.981   1.254 -1.7849  0.0050 -0.8386
 5133TIP3   OH215404   3.829   1.008   4.265 -0.3194  0.0114  0.3253
 5133TIP3    H115405   3.798   1.002   4.174 -2.3621 -0.6037  1.0120
 5133TIP3    H215406   3.750   1.019   4.316  0.7543 -0.2582  2.1165
 5134TIP3   OH215407   5.543   5.894   3.389  0.4486  0.1517 -0.0160
 5134TIP3    H115408   5.635   5.892   3.414  0.5213  0.9006 -0.2013
 5134TIP3    H215409   5.523   5.987   3.377 -0.5064  0.0478  0.6679
 5135TIP3   OH215410   3.651   5.631   0.096  0.5603 -0.3934  0.6648
 5135TIP3    H115411   3.590   5.672   0.158 -0.1310  1.3637 -1.0846
 5135TIP3    H215412   3.614   5.543   0.081 -1.3798  0.4937 -0.0555
 5136TIP3   OH215413   6.343   2.744   0.264 -0.4421 -0.3793 -0.1432
 5136TIP3    H115414   6.249   2.727   0.253 -0.5828 -0.4768  1.0373
 5136TIP3    H215415   6.381   2.730   0.177 -1.8876  2.2543 -1.2989
 5137TIP3   OH215416   2.275   0.443   3.394 -0.0537 -0.1336  0.5178
 5137TIP3    H115417   2.368   0.465   3.388  0.1202 -0.4526  1.6737
 5137TIP3    H215418   2.273   0.347   3.389 -0.4917 -0.0660 -1.1560
 5138TIP3   OH215419   0.850   2.232   0.466  0.3280 -0.1853  0.0817
 5138TIP3    H115420   0.891   2.182   0.536  0.3862 -0.1110  0.1019
 5138TIP3    H215421   0.774   2.181   0.440  0.0823 -0.0155  0.4682
 5139TIP3   OH215422   0.960   1.333   3.597 -0.4923  0.0243 -0.0932
 5139TIP3    H115423   1.002   1.406   3.551 -2.6852  0.7574 -1.0705
 5139TIP3    H215424   0.997   1.335   3.685 -1.1905  3.0017  0.2350
 5140TIP3   OH215425   3.163   1.817   3.377 -0.4074 -0.2542 -0.2719
 5140TIP3    H115426   3.214   1.736   3.384 -0.0977  0.0125  0.6968
 5140TIP3    H215427   3.074   1.790   3.397 -0.4218 -0.4828 -0.6410
 5141TIP3   OH215428   4.236   4.797   2.421 -0.1081 -0.1717 -0.7192
 5141TIP3    H115429   4.315   4.839   2.453 -0.0747 -0.3915 -0.5122
 5141TIP3    H215430   4.191   4.766   2.499 -0.7691  0.5889 -0.7807
 5142TIP3   OH215431   2.598   1.698   2.461  0.2404 -0.8338 -0.3989
 5142TIP3    H115432   2.646   1.670   2.539  1.5075  0.2320 -0.7641
 5142TIP3    H215433   2.524   1.748   2.495  0.4494 -0.8863  0.1401
 5143TIP3   OH215434   5.609   5.894   4.515  0.2499 -0.2161  0.2764
 5143TIP3    H115435   5.616   5.989   4.511  0.1329 -0.1605  1.1460
 5143TIP3    H215436   5.518   5.878   4.540  0.5572 -0.5059  1.2732
 5144TIP3   OH215437   3.660   0.257   4.292  0.0915 -0.3695  0.8860
 5144TIP3    H115438   3.718   0.332   4.301 -0.6619  0.3308  0.1560
 5144TIP3    H215439   3.651   0.244   4.197  0.4241 -1.5607  0.9945
 5145TIP3   OH215440   3.798   5.863   5.073  0.1341 -0.0156  0.3482
 5145TIP3    H115441   3.849   5.878   5.153 -1.1680  0.1685  1.1973
 5145TIP3    H215442   3.731   5.799   5.100 -0.2947  0.0129 -0.6114
 5146TIP3   OH215443   6.040   0.717   4.626  0.0986  0.3496  0.5100
 5146TIP3    H115444   5.998   0.645   4.578  0.0352  0.0352  1.0234
 5146TIP3    H215445   6.131   0.716   4.596 -0.2505  1.0501 -0.6289
 5147TIP3   OH215446   5.542   5.397   5.100  0.4725  0.0757 -0.3627
 5147TIP3    H115447   5.534   5.487   5.132  0.0774  0.4668 -1.4925
 5147TIP3    H215448   5.622   5.398   5.047  2.1676 -1.0252  2.0054
 5148TIP3   OH215449   2.919   1.760   3.510 -1.0093 -0.1341 -0.3568
 5148TIP3    H115450   2.866   1.839   3.495 -1.6459  0.2690  3.2801
 5148TIP3    H215451   2.883   1.722   3.590  1.7703 -2.0344  0.1049
 5149TIP3   OH215452   2.178   5.477   0.094 -0.6161  0.5286  0.4248
 5149TIP3    H115453   2.127   5.425   0.156 -2.3286 -1.3961 -2.3836
 5149TIP3    H215454   2.115   5.540   0.058  0.1090  1.0284  0.0154
 5150TIP3   OH215455   4.728   4.691   1.344  0.5044  0.1489 -0.1296
 5150TIP3    H115456   4.705   4.655   1.258 -0.2635 -2.0947  0.9413
 5150TIP3    H215457   4.670   4.767   1.354  0.9701  0.7756 -1.7697
 5151TIP3   OH215458   1.557   5.888   3.454  0.4223  0.3420 -0.0681
 5151TIP3    H115459   1.549   5.811   3.510  0.8151  0.4710  0.1729
 5151TIP3    H215460   1.649   5.887   3.426  0.1446  0.0834 -0.9924
 5152TIP3   OH215461   5.042   5.835   4.644 -0.5837  0.3359 -0.0586
 5152TIP3    H115462   4.970   5.779   4.675 -0.3513 -0.1846 -0.4533
 5152TIP3    H215463   5.024   5.920   4.684 -1.5130  0.2548 -0.2741
 5153TIP3   OH215464   0.529   4.125   4.160  0.1381 -0.5008  0.3910
 5153TIP3    H115465   0.572   4.174   4.090  1.2740  0.0806  1.4642
 5153TIP3    H215466   0.575   4.041   4.161 -0.4638 -0.8464 -0.1167
 5154TIP3   OH215467   5.781   0.073   3.472 -0.0129 -0.0590  0.4030
 5154TIP3    H115468   5.846   0.016   3.514 -2.0264 -2.0926  0.9952
 5154TIP3    H215469   5.703   0.018   3.464 -1.9221  2.4613  0.4042
 5155TIP3   OH215470   6.123   0.541   2.432 -0.7327  0.4661  0.1833
 5155TIP3    H115471   6.032   0.554   2.459 -1.0247  0.1110 -0.6179
 5155TIP3    H215472   6.139   0.609   2.366 -0.5271  0.2992  0.0616
 5156TIP3   OH215473   5.697   1.999   3.473  0.2612  0.3245  0.3073
 5156TIP3    H115474   5.651   2.053   3.410 -1.1571 -0.9115  0.2287
 5156TIP3    H215475   5.780   1.977   3.430  0.1894  1.1581 -0.2769
 5157TIP3   OH215476   5.447   0.046   4.787 -0.0602 -0.1804  0.2765
 5157TIP3    H115477   5.539   0.041   4.763 -0.2903  0.0740 -0.7036
 5157TIP3    H215478   5.444   0.109   4.859  0.5332 -0.1845  0.3059
 5158TIP3   OH215479   4.507   4.408   2.198 -0.5306 -0.6917  0.3889
 5158TIP3    H115480   4.564   4.480   2.172  0.5075 -1.5821  0.1432
 5158TIP3    H215481   4.429   4.418   2.142 -1.3525  1.4120  1.7698
 5159TIP3   OH215482   5.864   0.620   2.476  0.1732  0.1649  0.2046
 5159TIP3    H115483   5.779   0.578   2.467 -0.1766  0.8730  0.1235
 5159TIP3    H215484   5.872   0.675   2.398  0.8790 -0.1843  0.0141
 5160TIP3   OH215485   0.110   5.866   3.704 -0.6234 -0.2902  0.4643
 5160TIP3    H115486   0.147   5.806   3.768  3.5831 -0.8093 -2.1301
 5160TIP3    H215487   0.148   5.951   3.725  1.0424 -0.5226 -1.3763
 5161TIP3   OH215488   2.830   3.394   3.992  0.0497  0.3762 -0.4431
 5161TIP3    H115489   2.881   3.319   4.023  0.6077  1.3311  1.0801
 5161TIP3    H215490   2.823   3.451   4.069 -2.0915  0.9610 -1.0010
 5162TIP3   OH215491   6.300   5.642   0.523  0.2764 -0.0283  0.0385
 5162TIP3    H115492   6.238   5.571   0.539  0.4080  0.2112  1.8381
 5162TIP3    H215493   6.261   5.718   0.567  2.0777 -0.0005  1.7032
 5163TIP3   OH215494   1.156   5.414   1.197  0.0934  0.4116 -0.7681
 5163TIP3    H115495   1.156   5.502   1.234  0.2589  0.6027 -1.2115
 5163TIP3    H215496   1.121   5.426   1.108 -1.9408 -0.2826 -0.1066
 5164TIP3   OH215497   4.835   0.828   0.770 -0.0352 -0.0161  0.1287
 5164TIP3    H115498   4.840   0.858   0.679  0.2132  1.2351  0.5276
 5164TIP3    H215499   4.890   0.750   0.773 -1.3927 -1.0742 -1.1522
 5165TIP3   OH215500   3.588   4.182   3.802 -0.2566  0.0851 -0.0180
 5165TIP3    H115501   3.500   4.208   3.778  0.2426 -0.6067 -3.0437
 5165TIP3    H215502   3.644   4.254   3.771  0.2472  1.0884  2.9355
 5166TIP3   OH215503   4.794   5.435   1.656  0.0035  0.0529 -0.0180
 5166TIP3    H115504   4.875   5.480   1.682 -0.1424 -1.2167  3.1844
 5166TIP3    H215505   4.724   5.494   1.685 -0.1923 -0.2370  0.1045
 5167TIP3   OH215506   3.723   2.530   0.157 -0.3791  0.4439  0.0161
 5167TIP3    H115507   3.695   2.510   0.246  0.1289  0.1319  0.1127
 5167TIP3    H215508   3.722   2.446   0.112  0.8773  0.3358  0.1651
 5168TIP3   OH215509   1.042   4.999   4.155  0.3034 -0.2727  0.1068
 5168TIP3    H115510   1.134   4.973   4.155  0.3418 -0.2244  1.5981
 5168TIP3    H215511   0.996   4.923   4.118  0.7514 -1.1334  1.2496
 5169TIP3   OH215512   3.863   5.591   3.803  0.8067 -0.3896  0.1078
 5169TIP3    H115513   3.808   5.625   3.733  2.4079  1.0004 -0.5365
 5169TIP3    H215514   3.914   5.521   3.762  2.3454  0.9755 -0.3912
 5170TIP3   OH215515   0.541   2.545   3.315 -0.0462  0.2446 -0.1594
 5170TIP3    H115516   0.483   2.590   3.375 -1.6563 -3.3072  1.2319
 5170TIP3    H215517   0.498   2.461   3.298  3.4915 -1.6095 -1.0211
 5171TIP3   OH215518   0.094   1.546   4.426 -0.1798  0.2216 -0.1183
 5171TIP3    H115519   0.161   1.501   4.375  0.5087  1.1673 -0.0671
 5171TIP3    H215520   0.015   1.541   4.371  0.1892 -0.0044 -0.6336
 5172TIP3   OH215521   5.068   1.068   0.077  0.0907  0.4724  0.1546
 5172TIP3    H115522   5.078   1.022  -0.006 -0.4767 -1.3911  1.0594
 5172TIP3    H215523   4.979   1.046   0.106  0.5780  0.3491  1.6564
 5173TIP3   OH215524   2.654   4.931   4.819  0.0224 -0.2009 -0.0125
 5173TIP3    H115525   2.738   4.898   4.787  0.5009 -0.1252  1.1141
 5173TIP3    H215526   2.597   4.854   4.818  0.9537 -0.9884  2.0126
 5174TIP3   OH215527   4.990   0.226   1.493  0.6608  0.1993 -0.2879
 5174TIP3    H115528   4.996   0.158   1.426  1.7919  0.2222 -0.2329
 5174TIP3    H215529   5.078   0.230   1.531  0.3583  1.0329  0.3653
 5175TIP3   OH215530   1.011   4.727   0.624  0.2851 -0.2417 -0.2864
 5175TIP3    H115531   1.058   4.681   0.554  0.0177 -2.0386  0.6553
 5175TIP3    H215532   1.030   4.819   0.609  1.0080 -0.6426 -2.1615
 5176TIP3   OH215533   5.719   3.722   2.610 -0.8358  0.6898  0.3993
 5176TIP3    H115534   5.684   3.677   2.687 -1.5429  0.7502  0.1165
 5176TIP3    H215535   5.649   3.781   2.583 -0.6903  0.4849 -0.4449
 5177TIP3   OH215536   2.972   1.902   2.098 -0.1890 -0.1888 -0.2444
 5177TIP3    H115537   2.906   1.953   2.050 -0.9774  0.2549  1.2571
 5177TIP3    H215538   2.957   1.923   2.190 -0.1084 -2.6549  0.4013
 5178TIP3   OH215539   0.732   2.771   2.220 -0.6321  0.1891  0.0603
 5178TIP3    H115540   0.676   2.847   2.234  0.2507  1.5041 -2.7332
 5178TIP3    H215541   0.696   2.729   2.141  1.7337  0.6444 -1.3743
 5179TIP3   OH215542   3.045   2.227   3.613 -0.1181  0.0570  0.1731
 5179TIP3    H115543   3.124   2.175   3.595 -0.5952 -0.9236  0.8230
 5179TIP3    H215544   3.039   2.230   3.708 -1.3723 -0.6843  0.1375
 5180TIP3   OH215545   0.393   3.408   2.264 -0.0223 -0.7620 -0.7851
 5180TIP3    H115546   0.334   3.478   2.233  0.2601 -0.4816 -0.6891
 5180TIP3    H215547   0.436   3.377   2.184  1.7217  0.8893 -0.5426
 5181TIP3   OH215548   3.499   0.701   0.982  0.0874 -0.1340 -0.1893
 5181TIP3    H115549   3.533   0.718   0.894 -1.3081  0.5608 -0.6254
 5181TIP3    H215550   3.457   0.783   1.007  1.8062  0.2354  1.8169
 5182TIP3   OH215551   1.559   0.626   3.306  0.2744 -0.5162  0.5207
 5182TIP3    H115552   1.556   0.578   3.389 -0.1737  0.0237  0.8196
 5182TIP3    H215553   1.501   0.701   3.320  0.3194 -0.3426 -0.2303
 5183TIP3   OH215554   5.554   2.607   1.813 -0.3926  0.3045  0.3205
 5183TIP3    H115555   5.574   2.569   1.898  1.0895 -0.0723 -0.1772
 5183TIP3    H215556   5.522   2.533   1.760 -0.8832  0.4532  0.3996
 5184TIP3   OH215557   5.545   4.794   0.623  0.2223  0.4228 -0.1189
 5184TIP3    H115558   5.516   4.712   0.662  0.6353  0.4992  0.3488
 5184TIP3    H215559   5.465   4.835   0.591 -0.1260  0.3801  0.6854
 5185TIP3   OH215560   4.278   3.801   0.848  0.4535  0.0440  0.3550
 5185TIP3    H115561   4.245   3.835   0.931 -0.4613 -0.6943  0.3163
 5185TIP3    H215562   4.279   3.706   0.859  2.3384  0.0155  0.2364
 5186TIP3   OH215563   6.086   0.589   1.018 -0.1837  0.0406  0.0688
 5186TIP3    H115564   6.106   0.659   1.079  1.2551  1.0588 -1.4863
 5186TIP3    H215565   6.149   0.520   1.038 -0.3256 -0.0215  0.3121
 5187TIP3   OH215566   5.889   0.919   4.441  0.2232  0.1782  0.0739
 5187TIP3    H115567   5.824   0.881   4.501  0.4295 -0.5673 -0.1599
 5187TIP3    H215568   5.941   0.978   4.496  0.0277 -0.0353  0.4945
 5188TIP3   OH215569   4.883   3.454   1.029 -0.3197  0.0338 -0.0908
 5188TIP3    H115570   4.934   3.409   1.097  1.3742 -0.1877 -1.4331
 5188TIP3    H215571   4.886   3.546   1.054  2.9992  0.4249 -1.3634
 5189TIP3   OH215572   5.216   1.509   4.688  0.1631 -0.0731 -0.3495
 5189TIP3    H115573   5.168   1.592   4.693  1.7245  0.8408  0.1718
 5189TIP3    H215574   5.214   1.474   4.777  2.6074  1.2871  0.3263
 5190TIP3   OH215575   5.164   5.025   4.647  0.3071  0.0537 -0.4099
 5190TIP3    H115576   5.257   5.003   4.647  0.6035  1.2484 -0.2018
 5190TIP3    H215577   5.130   4.984   4.567  0.7534 -1.3504  0.0807
 5191TIP3   OH215578   1.844   3.402   4.233  0.3043  0.8418  0.0909
 5191TIP3    H115579   1.939   3.408   4.225  0.5957  0.4569  2.5731
 5191TIP3    H215580   1.815   3.493   4.234  0.6305  0.9636 -0.6794
 5192TIP3   OH215581   2.732   0.773   4.181 -0.3534 -0.0554  0.2352
 5192TIP3    H115582   2.656   0.798   4.232  0.8659 -0.4584  2.4128
 5192TIP3    H215583   2.724   0.678   4.171 -0.4259 -0.0192 -0.0778
 5193TIP3   OH215584   1.172   2.887   4.903 -0.8564 -0.3693  0.0043
 5193TIP3    H115585   1.142   2.867   4.814 -1.3382 -0.4338  0.1789
 5193TIP3    H215586   1.175   2.802   4.947  0.5793 -0.5008 -0.3070
 5194TIP3   OH215587   4.166   1.974   1.670  0.0109 -0.0080  0.5693
 5194TIP3    H115588   4.189   1.901   1.612 -0.5121  1.2553 -1.2976
 5194TIP3    H215589   4.077   1.954   1.699  0.1372 -0.4550  0.6711
 5195TIP3   OH215590   1.397   2.044   4.361 -0.2770  0.1548  0.2165
 5195TIP3    H115591   1.446   2.060   4.441 -0.3298  1.7870 -0.0478
 5195TIP3    H215592   1.461   2.004   4.302  0.3928  1.0056  0.3382
 5196TIP3   OH215593   2.704   3.902   5.044  0.3995  0.6549 -0.6137
 5196TIP3    H115594   2.747   3.970   5.096  1.2331 -0.3895  0.1164
 5196TIP3    H215595   2.764   3.885   4.972  0.7510 -0.0727 -0.1703
 5197TIP3   OH215596   3.741   5.397   0.812  0.3364 -0.0300 -0.1888
 5197TIP3    H115597   3.664   5.351   0.779 -0.0011  1.1353 -1.0978
 5197TIP3    H215598   3.802   5.397   0.739  1.3253 -1.1389  0.5946
 5198TIP3   OH215599   3.411   4.341   0.233  0.2017  0.0966 -0.4564
 5198TIP3    H115600   3.480   4.364   0.296 -0.5526  1.8589 -0.2112
 5198TIP3    H215601   3.426   4.248   0.213  2.2737  0.2860  0.0273
 5199TIP3   OH215602   6.324   5.310   1.544 -0.3280  0.0592 -0.1355
 5199TIP3    H115603   6.331   5.398   1.579 -1.9936  0.3685 -0.4803
 5199TIP3    H215604   6.412   5.289   1.513  0.6486  0.6661  2.0467
 5200TIP3   OH215605   1.371   2.395   4.694  0.5848 -0.1816 -0.1493
 5200TIP3    H115606   1.323   2.359   4.769  1.6296 -1.8939 -0.2431
 5200TIP3    H215607   1.314   2.377   4.619  0.4516 -0.3334 -0.0121
 5201TIP3   OH215608   3.322   3.777   3.234 -0.2434 -0.1666  0.7913
 5201TIP3    H115609   3.228   3.782   3.222 -0.7543 -2.2597  3.2126
 5201TIP3    H215610   3.337   3.814   3.322  0.7475 -2.5514  1.6981
 5202TIP3   OH215611   5.759   4.624   0.465 -0.3916 -0.8710 -0.0559
 5202TIP3    H115612   5.681   4.672   0.491 -1.1308 -1.7756 -0.5521
 5202TIP3    H215613   5.750   4.612   0.371 -0.9226 -3.1288  0.2214
 5203TIP3   OH215614   2.884   4.826   4.692  0.9381  0.5956  0.0156
 5203TIP3    H115615   2.965   4.777   4.681  0.2711 -0.7300  0.7158
 5203TIP3    H215616   2.819   4.777   4.641 -0.0567 -0.1132  1.8521
 5204TIP3   OH215617   0.191   5.065   1.109 -0.1494  0.3140 -0.0644
 5204TIP3    H115618   0.287   5.068   1.102 -0.1613 -0.5406 -0.7299
 5204TIP3    H215619   0.172   5.115   1.188  0.8398  0.5788  0.0286
 5205TIP3   OH215620   5.777   1.651   5.125  0.3662 -0.0039 -0.2210
 5205TIP3    H115621   5.697   1.600   5.130  0.8800 -0.7265  3.7397
 5205TIP3    H215622   5.748   1.742   5.134 -0.1500  0.0647 -2.1040
 5206TIP3   OH215623   1.379   5.577   4.842 -0.2795 -0.2050  0.1040
 5206TIP3    H115624   1.380   5.671   4.825  4.2348  0.0728  0.4896
 5206TIP3    H215625   1.371   5.537   4.755 -1.0705  0.5627 -0.1843
 5207TIP3   OH215626   3.579   2.887   1.784  0.7704 -0.0984  0.5029
 5207TIP3    H115627   3.540   2.966   1.745 -0.1514  0.8646  3.1581
 5207TIP3    H215628   3.662   2.876   1.738  0.3531  1.7031 -0.7862
 5208TIP3   OH215629   5.809   0.173   1.189  0.1627  0.0004  0.2210
 5208TIP3    H115630   5.735   0.148   1.134  0.5199 -2.5890  0.7835
 5208TIP3    H215631   5.822   0.267   1.171  0.1590 -0.5954 -3.9898
 5209TIP3   OH215632   5.411   5.506   2.185  0.0457  0.1107  0.0340
 5209TIP3    H115633   5.465   5.470   2.115 -0.5945 -0.0516 -0.3924
 5209TIP3    H215634   5.472   5.525   2.256  1.1209  2.5369 -1.4009
 5210TIP3   OH215635   4.100   1.671   3.522  0.4551 -0.0616 -0.3320
 5210TIP3    H115636   4.019   1.663   3.572  1.1582 -0.5204  0.8056
 5210TIP3    H215637   4.169   1.673   3.590  1.3342  1.2300 -1.2110
 5211TIP3   OH215638   5.868   2.864   4.182 -0.1489  0.5218 -0.5907
 5211TIP3    H115639   5.864   2.769   4.197  1.3934  0.6048  0.4916
 5211TIP3    H215640   5.820   2.877   4.100 -1.0154 -1.0943 -0.3815
 5212TIP3   OH215641   1.174   4.227   4.266  0.0978 -0.4843 -0.1873
 5212TIP3    H115642   1.259   4.195   4.236  0.0741 -1.8329  1.0505
 5212TIP3    H215643   1.158   4.306   4.214  2.0927 -0.1986 -0.4577
 5213TIP3   OH215644   6.065   2.371   1.863  0.2759  0.2378  0.3146
 5213TIP3    H115645   6.123   2.353   1.788  1.2199 -0.4258  1.1771
 5213TIP3    H215646   6.001   2.433   1.829  0.3724 -0.4400 -1.1953
 5214TIP3   OH215647   2.157   5.285   1.900 -0.4590  0.7597 -0.6736
 5214TIP3    H115648   2.237   5.256   1.942  1.5812  1.9746 -3.4116
 5214TIP3    H215649   2.088   5.235   1.943  1.3780  1.4432  3.5079
 5215TIP3   OH215650   5.276   0.458   2.532 -0.0511 -0.1109  0.4680
 5215TIP3    H115651   5.354   0.427   2.577  0.5767  1.0688  0.2202
 5215TIP3    H215652   5.230   0.510   2.598 -0.6349 -0.7870  0.6087
 5216TIP3   OH215653   3.128   5.816   4.219  0.0897 -0.1611  0.0143
 5216TIP3    H115654   3.066   5.840   4.289 -0.3543 -1.4962  0.1033
 5216TIP3    H215655   3.153   5.726   4.239 -0.5963 -0.8341 -1.9317
 5217TIP3   OH215656   1.102   3.574   1.546 -0.2962 -0.0793 -0.1847
 5217TIP3    H115657   1.168   3.642   1.558 -1.6909  1.5996 -1.5705
 5217TIP3    H215658   1.142   3.513   1.484  0.5382  0.0421  0.2167
 5218TIP3   OH215659   4.999   4.751   2.530  0.1589  0.2999  0.1718
 5218TIP3    H115660   5.062   4.685   2.501  0.4574 -0.0817  1.6027
 5218TIP3    H215661   4.963   4.715   2.611 -0.2676  1.5351  0.5416
 5219TIP3   OH215662   5.575   3.150   4.844  0.5151  0.3663  0.6586
 5219TIP3    H115663   5.655   3.154   4.792 -0.9180  1.1801 -1.6552
 5219TIP3    H215664   5.569   3.059   4.872  0.9045 -0.3353 -1.4058
 5220TIP3   OH215665   0.512   4.462   2.502 -0.1785 -0.3339 -0.5325
 5220TIP3    H115666   0.510   4.500   2.414 -1.9833 -0.4681 -0.5981
 5220TIP3    H215667   0.455   4.385   2.495 -0.1865 -0.4585  0.7022
 5221TIP3   OH215668   4.233   1.065   1.381 -0.3977 -0.0525 -0.1661
 5221TIP3    H115669   4.317   1.021   1.381  0.4793  1.5409  0.4900
 5221TIP3    H215670   4.207   1.067   1.473 -1.3589 -0.8628 -0.3992
 5222TIP3   OH215671   3.608   4.360   2.850 -0.0447 -0.4585  0.2921
 5222TIP3    H115672   3.542   4.321   2.908  1.1328 -1.0068  1.3339
 5222TIP3    H215673   3.691   4.328   2.885  0.8490  1.2197 -0.2060
 5223TIP3   OH215674   2.724   3.135   3.463 -0.4215  0.5232 -0.0168
 5223TIP3    H115675   2.738   3.047   3.429 -0.8866  0.8613 -1.1058
 5223TIP3    H215676   2.794   3.188   3.424 -0.4892  0.7624  0.1801
 5224TIP3   OH215677   5.491   3.640   2.869  0.5379  0.2877 -0.3637
 5224TIP3    H115678   5.524   3.550   2.877 -1.5873 -0.4450  1.0391
 5224TIP3    H215679   5.455   3.644   2.781 -0.1142 -0.5457 -0.1540
 5225TIP3   OH215680   5.131   3.583   3.425  0.1456 -0.1227  0.1530
 5225TIP3    H115681   5.061   3.568   3.488 -0.3403  0.6840 -0.1750
 5225TIP3    H215682   5.204   3.618   3.477  0.1422 -0.5184  0.4250
 5226TIP3   OH215683   3.776   1.203   1.309 -0.3129 -0.0589 -0.2035
 5226TIP3    H115684   3.850   1.163   1.264  0.7500  0.9293  0.6191
 5226TIP3    H215685   3.784   1.174   1.400 -0.3540  0.8566  0.1010
 5227TIP3   OH215686   2.133   4.145   4.083  0.4087  0.3488 -0.4998
 5227TIP3    H115687   2.086   4.191   4.013  0.1496 -0.9618 -1.2205
 5227TIP3    H215688   2.194   4.088   4.037  0.9876  0.2493  0.3810
 5228TIP3   OH215689   3.518   5.597   3.865 -0.4553  0.1313  0.5782
 5228TIP3    H115690   3.439   5.632   3.905  0.5933  0.7453  2.2459
 5228TIP3    H215691   3.525   5.508   3.900  0.1817  0.4811  1.3671
 5229TIP3   OH215692   2.898   1.614   2.341 -0.2353  0.0264  0.4963
 5229TIP3    H115693   2.878   1.593   2.250 -1.6709  0.4836  0.6738
 5229TIP3    H215694   2.988   1.587   2.353 -0.1434 -0.3900 -0.9583
 5230TIP3   OH215695   1.964   5.300   1.348 -0.1776 -0.1437  0.4000
 5230TIP3    H115696   1.964   5.388   1.385  2.2256 -0.8290  2.3271
 5230TIP3    H215697   2.019   5.306   1.270  0.6326 -0.0514  0.9641
 5231TIP3   OH215698   6.023   2.660   4.383  0.0317 -0.2071 -0.3498
 5231TIP3    H115699   5.981   2.585   4.342  1.8937 -1.6485  0.2141
 5231TIP3    H215700   5.958   2.693   4.445 -1.0307 -0.9842 -1.0138
 5232TIP3   OH215701   6.156   0.427   0.594  0.4417  0.2702  0.1522
 5232TIP3    H115702   6.242   0.405   0.632  1.6384  2.0275 -1.3860
 5232TIP3    H215703   6.145   0.520   0.612 -1.5425 -0.0764  0.9771
 5233TIP3   OH215704   0.029   3.261   0.172  0.2727  0.3979 -0.1261
 5233TIP3    H115705   0.098   3.313   0.214  0.3426 -0.3190  0.6747
 5233TIP3    H215706   0.024   3.181   0.225 -0.8491  0.2318 -0.4608
 5234TIP3   OH215707   3.093   3.534   1.654  0.0548 -0.5468 -0.1335
 5234TIP3    H115708   3.161   3.569   1.712  0.9708 -2.7262  0.2142
 5234TIP3    H215709   3.035   3.485   1.712 -2.6381  2.2321 -0.2324
 5235TIP3   OH215710   3.520   5.178   1.269 -0.0395 -0.8771 -0.1098
 5235TIP3    H115711   3.515   5.091   1.310 -0.1271 -0.1485  1.5104
 5235TIP3    H215712   3.453   5.229   1.315  0.4092  0.2059 -0.6334
 5236TIP3   OH215713   6.159   5.247   0.359 -0.3031  0.0179  0.0824
 5236TIP3    H115714   6.107   5.255   0.439 -1.2168 -0.0433 -0.4961
 5236TIP3    H215715   6.095   5.243   0.289  0.4208 -1.3510 -0.5506
 5237TIP3   OH215716   5.519   3.446   3.250 -0.0353  0.1001  0.1777
 5237TIP3    H115717   5.468   3.365   3.259  0.3771 -0.3756 -1.4136
 5237TIP3    H215718   5.453   3.516   3.253 -0.3427 -0.1931  2.2058
 5238TIP3   OH215719   6.286   1.986   0.696 -0.3119  0.4489 -0.3300
 5238TIP3    H115720   6.209   2.004   0.751 -0.6464  0.0330 -0.6534
 5238TIP3    H215721   6.336   2.068   0.698 -0.5788  0.6056  0.1765
 5239TIP3   OH215722   3.963   1.152   2.674 -0.1403 -0.2869  0.4714
 5239TIP3    H115723   3.873   1.162   2.643  0.2020 -0.8878 -0.8105
 5239TIP3    H215724   3.975   1.224   2.736 -1.9531 -1.0845  1.8267
 5240TIP3   OH215725   4.275   1.875   0.542 -0.3159  0.6739  0.2709
 5240TIP3    H115726   4.211   1.862   0.612  0.3033 -1.8744  0.4681
 5240TIP3    H215727   4.356   1.901   0.587 -0.0176 -0.6021  0.5002
 5241TIP3   OH215728   3.775   1.661   3.041 -0.4902 -0.2462  0.2369
 5241TIP3    H115729   3.688   1.625   3.025 -0.2989  0.0724 -1.8415
 5241TIP3    H215730   3.799   1.629   3.128 -2.3832 -0.9042  0.5654
 5242TIP3   OH215731   0.126   1.682   1.816 -0.2367 -0.5481  0.2610
 5242TIP3    H115732   0.177   1.752   1.857 -0.2498  0.6990 -1.7555
 5242TIP3    H215733   0.037   1.695   1.851 -0.3276  0.7162 -0.3671
 5243TIP3   OH215734   4.741   2.760   3.396 -0.1693  0.6124  0.1797
 5243TIP3    H115735   4.808   2.722   3.454  1.3790  2.0565 -0.5664
 5243TIP3    H215736   4.733   2.696   3.325  0.0774  0.2052  0.5060
 5244TIP3   OH215737   3.472   4.872   2.207 -0.3696  0.0782 -0.0124
 5244TIP3    H115738   3.446   4.792   2.253 -1.6311  0.4805  0.0301
 5244TIP3    H215739   3.400   4.933   2.223 -0.9786  0.1854 -2.6374
 5245TIP3   OH215740   4.998   2.429   0.032 -0.1719  0.0892 -0.4689
 5245TIP3    H115741   4.937   2.502   0.024  0.9555  1.0689 -0.4629
 5245TIP3    H215742   5.023   2.428   0.124 -2.7666 -2.5389  0.3777
 5246TIP3   OH215743   5.261   5.711   0.546 -0.2580 -0.2961  0.6059
 5246TIP3    H115744   5.335   5.651   0.540 -0.4629 -0.4927  0.0369
 5246TIP3    H215745   5.283   5.783   0.487 -1.1639 -1.0526 -0.7013
 5247TIP3   OH215746   5.064   3.750   5.174 -0.2106 -0.2860  0.3437
 5247TIP3    H115747   5.144   3.776   5.218 -0.0169  0.1922 -0.2642
 5247TIP3    H215748   5.085   3.666   5.133  0.2204  0.1748 -0.4089
 5248TIP3   OH215749   1.604   2.283   5.034 -0.2696 -0.2750  0.1031
 5248TIP3    H115750   1.641   2.363   4.998  0.2071 -0.8604 -0.7510
 5248TIP3    H215751   1.631   2.283   5.126 -0.7020  0.7733  0.2503
 5249TIP3   OH215752   4.535   3.200   4.418 -0.1813  0.4389 -0.2694
 5249TIP3    H115753   4.468   3.147   4.374  0.3957  0.0587 -0.7077
 5249TIP3    H215754   4.569   3.257   4.349 -1.4202  2.0515  0.3907
 5250TIP3   OH215755   1.575   4.107   1.313 -0.2861  0.1423 -0.1393
 5250TIP3    H115756   1.649   4.085   1.368  0.3395  1.0183 -0.6013
 5250TIP3    H215757   1.534   4.182   1.357 -1.1477 -0.5815  0.3257
 5251TIP3   OH215758   0.333   3.248   2.707  0.0407 -0.0361 -0.0712
 5251TIP3    H115759   0.270   3.313   2.676  1.3050  0.2266 -2.3768
 5251TIP3    H215760   0.412   3.299   2.726  0.8211 -0.7694 -1.2233
 5252TIP3   OH215761   5.511   1.831   3.591  0.2001 -0.1077  0.0544
 5252TIP3    H115762   5.559   1.887   3.530  1.2230 -0.8114  0.1787
 5252TIP3    H215763   5.419   1.852   3.576  0.4041 -0.4907 -1.9554
 5253TIP3   OH215764   3.234   4.438   2.483  0.4699  0.5853  0.2887
 5253TIP3    H115765   3.260   4.503   2.418  0.0324  1.4589  0.9644
 5253TIP3    H215766   3.142   4.420   2.463  0.5729  0.1982  0.1399
 5254TIP3   OH215767   2.587   5.450   2.874 -0.5170 -0.2295 -0.4210
 5254TIP3    H115768   2.494   5.432   2.887 -0.4339 -0.0681  0.5028
 5254TIP3    H215769   2.595   5.545   2.883 -0.3166 -0.1996 -0.8817
 5255TIP3   OH215770   3.510   3.698   5.089 -0.2756 -0.3037 -0.4644
 5255TIP3    H115771   3.568   3.700   5.013  0.6214 -1.2039  0.1515
 5255TIP3    H215772   3.549   3.761   5.150  0.0224 -0.8550 -0.0772
 5256TIP3   OH215773   0.648   3.101   1.501 -0.0257  0.7715 -0.2429
 5256TIP3    H115774   0.677   3.170   1.442  0.2864  2.0276  1.2960
 5256TIP3    H215775   0.721   3.040   1.504  0.1095  0.8975 -0.8436
 5257TIP3   OH215776   4.329   5.280   4.562 -0.0504  0.2550 -0.4169
 5257TIP3    H115777   4.325   5.210   4.498 -0.4152 -0.2239  0.1207
 5257TIP3    H215778   4.329   5.236   4.647  1.5918  0.8157 -0.0881
 5258TIP3   OH215779   3.511   5.757   3.145  0.1656 -0.3657 -0.3811
 5258TIP3    H115780   3.534   5.850   3.148 -0.2984 -0.2619  0.0462
 5258TIP3    H215781   3.547   5.726   3.062  0.5161  0.1450 -0.4218
 5259TIP3   OH215782   2.995   4.614   0.592  0.1377 -0.2046  0.4530
 5259TIP3    H115783   2.929   4.546   0.578 -2.5052  2.2836 -0.3026
 5259TIP3    H215784   3.032   4.629   0.505  1.6937 -1.4854  0.8492
 5260TIP3   OH215785   3.108   2.735   1.586  0.0133 -0.1513 -0.6286
 5260TIP3    H115786   3.193   2.778   1.582 -0.2197  0.2477 -1.4869
 5260TIP3    H215787   3.076   2.752   1.675  0.9841 -0.6199 -0.1816
 5261TIP3   OH215788   2.842   5.302   1.912 -0.3953 -0.4337  0.3381
 5261TIP3    H115789   2.763   5.248   1.897 -0.1266 -0.6895 -0.2090
 5261TIP3    H215790   2.914   5.247   1.882  0.0348 -0.3448  1.2020
 5262TIP3   OH215791   4.408   1.137   0.329 -0.0392  0.6337 -0.2560
 5262TIP3    H115792   4.456   1.174   0.256  0.2896 -2.7907 -1.9619
 5262TIP3    H215793   4.470   1.139   0.402  1.0458  0.5338 -1.1526
 5263TIP3   OH215794   3.725   1.175   0.683  0.1689  0.0624  0.0522
 5263TIP3    H115795   3.745   1.092   0.727 -3.2314 -0.1103  1.5557
 5263TIP3    H215796   3.807   1.224   0.687  1.5794 -2.2228  1.4270
 5264TIP3   OH215797   5.984   3.145   1.162  0.1100  1.0484  0.0798
 5264TIP3    H115798   5.915   3.206   1.190 -0.3012  0.3884  0.5469
 5264TIP3    H215799   5.938   3.078   1.111  0.5137  0.9822 -0.2027
 5265TIP3   OH215800   1.491   2.964   0.340  0.1178  0.3670  0.5155
 5265TIP3    H115801   1.473   3.056   0.326 -1.4460 -0.2300 -1.9315
 5265TIP3    H215802   1.516   2.930   0.254  1.1415 -1.4172  1.4381
 5266TIP3   OH215803   5.338   0.271   2.325  0.7989  0.6426  0.3273
 5266TIP3    H115804   5.394   0.218   2.382  1.1366  0.2331 -0.3675
 5266TIP3    H215805   5.329   0.355   2.370 -1.2772 -0.5846  2.3907
 5267TIP3   OH215806   4.140   3.628   2.178 -0.0119 -0.2939  0.2324
 5267TIP3    H115807   4.079   3.696   2.207  0.6844 -0.7097  3.0335
 5267TIP3    H215808   4.095   3.546   2.200  0.1645 -0.6943 -0.8653
 5268TIP3   OH215809   2.983   1.230   1.078 -0.2172 -0.4352  0.3341
 5268TIP3    H115810   3.047   1.210   1.010 -1.5515  0.2158 -1.1848
 5268TIP3    H215811   2.910   1.269   1.031 -0.2092  2.4087  2.3835
 5269TIP3   OH215812   1.882   0.489   3.363 -0.1835  0.5636 -0.4836
 5269TIP3    H115813   1.889   0.422   3.296 -1.0835  0.4968 -0.5241
 5269TIP3    H215814   1.874   0.441   3.445 -1.5718  0.5866 -0.5839
 5270TIP3   OH215815   0.782   4.289   1.732 -0.7115  0.5165 -0.1473
 5270TIP3    H115816   0.766   4.198   1.707 -0.8853 -0.0521  1.8466
 5270TIP3    H215817   0.717   4.340   1.684 -0.7183 -0.4236 -1.1540
 5271TIP3   OH215818   0.617   1.155   1.269  0.0417 -0.3225 -0.3870
 5271TIP3    H115819   0.592   1.146   1.361  1.0265 -1.4441 -0.1982
 5271TIP3    H215820   0.713   1.151   1.270  0.1965  2.0553 -1.2412
 5272TIP3   OH215821   1.287   4.341   2.169  0.4807  0.4164 -0.0343
 5272TIP3    H115822   1.264   4.384   2.251  1.0646  1.9393 -0.6194
 5272TIP3    H215823   1.271   4.248   2.185 -0.4449  0.7893  1.4332
 5273TIP3   OH215824   3.029   5.667   3.065  0.2801 -0.0046 -0.1277
 5273TIP3    H115825   3.119   5.701   3.062  0.0668  0.6725  0.7014
 5273TIP3    H215826   2.997   5.692   3.151 -0.6970 -0.2882 -0.3953
 5274TIP3   OH215827   3.919   4.667   4.277 -0.3318  0.0906  0.1320
 5274TIP3    H115828   3.919   4.702   4.188  0.4711  0.2867  0.2087
 5274TIP3    H215829   4.011   4.653   4.298 -0.5232 -0.0838  0.8807
 5275TIP3   OH215830   2.290   0.117   3.765 -0.2126  0.2750 -0.0436
 5275TIP3    H115831   2.285   0.146   3.856 -0.5822 -0.3063  0.1189
 5275TIP3    H215832   2.374   0.153   3.734  0.8045 -1.0315  1.0539
 5276TIP3   OH215833   2.965   5.712   5.038 -0.4009  0.2710 -0.6031
 5276TIP3    H115834   2.974   5.785   4.976 -0.2176  0.8238  0.0698
 5276TIP3    H215835   3.020   5.736   5.112 -1.2599  0.0000  0.1400
 5277TIP3   OH215836   3.689   4.644   1.367 -0.3054  0.4334 -0.2861
 5277TIP3    H115837   3.730   4.682   1.444  0.5005 -2.0312  0.5697
 5277TIP3    H215838   3.757   4.646   1.300 -0.8742  2.1785 -0.8783
 5278TIP3   OH215839   6.214   0.981   4.115  0.4404 -0.6207 -0.2401
 5278TIP3    H115840   6.162   0.929   4.177  1.6791 -2.5470 -0.7257
 5278TIP3    H215841   6.212   0.930   4.034  0.3142  0.9793 -1.2867
 5279TIP3   OH215842   3.423   2.324   4.955  0.3077  0.6217 -0.5757
 5279TIP3    H115843   3.373   2.260   5.006 -1.5476  0.1951 -2.7723
 5279TIP3    H215844   3.490   2.271   4.911  0.6916  0.6895 -0.0810
 5280TIP3   OH215845   1.608   1.875   0.421  0.1141 -0.0639  0.0693
 5280TIP3    H115846   1.587   1.781   0.421 -0.4749  0.0584 -0.7733
 5280TIP3    H215847   1.597   1.902   0.330  1.7179  0.5119  0.0064
 5281TIP3   OH215848   0.537   4.703   3.094 -0.6399 -0.6717 -0.0512
 5281TIP3    H115849   0.568   4.620   3.057  2.1954  0.3613 -0.2237
 5281TIP3    H215850   0.574   4.706   3.182 -0.9045  0.3158  0.0399
 5282TIP3   OH215851   1.338   0.926   3.152  0.3169 -0.7882 -0.5458
 5282TIP3    H115852   1.337   1.022   3.153 -0.4448 -0.7893  1.0055
 5282TIP3    H215853   1.398   0.902   3.222  0.5860 -1.4603 -0.9964
 5283TIP3   OH215854   1.073   1.838   0.794  0.1520  0.3436 -0.4729
 5283TIP3    H115855   1.131   1.781   0.743 -0.9281 -0.9653 -0.3198
 5283TIP3    H215856   1.117   1.847   0.879  0.4740 -0.0534 -0.5946
 5284TIP3   OH215857   2.541   0.395   0.226 -0.0572 -0.5220  0.3466
 5284TIP3    H115858   2.465   0.410   0.169  1.1079 -0.7140 -1.3417
 5284TIP3    H215859   2.598   0.470   0.208  0.4934 -0.7802  1.0026
 5285TIP3   OH215860   0.416   2.566   2.025  0.0762  0.0705 -0.1279
 5285TIP3    H115861   0.355   2.515   1.972 -0.3381 -0.2720  0.6590
 5285TIP3    H215862   0.376   2.568   2.112  0.7085  0.6759  0.1568
 5286TIP3   OH215863   0.020   4.270   2.638  0.1641 -0.1590 -0.6761
 5286TIP3    H115864   0.067   4.268   2.721  0.2180  1.4979 -0.6455
 5286TIP3    H215865  -0.068   4.300   2.660 -1.8264 -5.1966 -0.4010
 5287TIP3   OH215866   4.035   1.105   3.236 -0.5023 -0.4322 -0.2035
 5287TIP3    H115867   4.001   1.023   3.201 -0.1866 -0.8588  0.4755
 5287TIP3    H215868   4.119   1.116   3.192  0.3376 -1.4559  1.0763
 5288TIP3   OH215869   0.648   2.961   3.121 -0.0000 -0.4566 -0.1539
 5288TIP3    H115870   0.560   2.997   3.137  0.4401  1.1239 -1.0955
 5288TIP3    H215871   0.657   2.892   3.187 -1.1987  0.6461  1.2517
 5289TIP3   OH215872   3.522   1.365   4.656  0.0642  0.0737 -0.0800
 5289TIP3    H115873   3.589   1.341   4.720 -1.1253 -0.7696  0.8806
 5289TIP3    H215874   3.527   1.461   4.651 -0.5930  0.2847  2.1885
 5290TIP3   OH215875   4.041   2.457   0.118  0.5617  0.8007 -0.2477
 5290TIP3    H115876   4.115   2.401   0.141  0.4629  1.1106  0.9115
 5290TIP3    H215877   3.965   2.400   0.127  0.2129  1.5874  3.2294
 5291TIP3   OH215878   4.599   3.271   0.074 -0.1946  0.6141 -0.1872
 5291TIP3    H115879   4.658   3.234   0.139  1.0534  1.9738 -0.4832
 5291TIP3    H215880   4.606   3.212  -0.001  1.7889  1.3961 -0.6742
 5292TIP3   OH215881   4.292   0.884   1.821  0.6263 -0.4189  0.0009
 5292TIP3    H115882   4.373   0.929   1.848  1.1210  0.0137 -1.9797
 5292TIP3    H215883   4.304   0.794   1.850  0.5803  0.2153  2.1401
 5293TIP3   OH215884   5.693   3.964   3.241  0.0645  0.2694  0.6072
 5293TIP3    H115885   5.743   4.006   3.171  0.2142 -0.3776  0.3158
 5293TIP3    H215886   5.648   3.891   3.197 -1.8316  1.3280  0.6624
 5294TIP3   OH215887   2.466   4.492   4.751  0.0680  0.0238  0.4708
 5294TIP3    H115888   2.453   4.443   4.669  2.5261  1.6784 -1.0407
 5294TIP3    H215889   2.383   4.483   4.797 -1.3279 -1.2789 -2.0348
 5295TIP3   OH215890   3.823   4.956   1.316  0.4569 -0.0215 -0.2997
 5295TIP3    H115891   3.814   4.916   1.402 -0.1176  2.2931  0.7844
 5295TIP3    H215892   3.734   4.962   1.283  0.4950  0.6903 -0.2809
 5296TIP3   OH215893   4.678   3.066   1.736  0.0894  0.3020 -0.0617
 5296TIP3    H115894   4.683   3.143   1.679 -1.5418 -0.5456 -1.4402
 5296TIP3    H215895   4.688   3.101   1.824  0.3823  1.9570 -0.7116
 5297TIP3   OH215896   2.128   2.145   3.277  0.3726 -0.2157 -0.4280
 5297TIP3    H115897   2.141   2.238   3.296  1.0840  0.2870 -2.9602
 5297TIP3    H215898   2.154   2.135   3.185  0.4427 -2.9552 -0.2110
 5298TIP3   OH215899   4.205   3.348   4.369  0.2664 -0.6466 -0.1134
 5298TIP3    H115900   4.287   3.396   4.379  0.0383 -0.3008  0.0726
 5298TIP3    H215901   4.140   3.398   4.418 -0.0604 -0.9174 -0.2619
 5299TIP3   OH215902   4.393   5.424   5.013 -0.8601  0.2857  0.0187
 5299TIP3    H115903   4.442   5.450   5.091  1.5641 -0.1646 -1.2581
 5299TIP3    H215904   4.308   5.466   5.024 -0.0243  1.6351  2.0850
 5300TIP3   OH215905   5.713   5.551   4.598 -0.0233  0.3482  0.2002
 5300TIP3    H115906   5.663   5.616   4.549  1.5097  0.2689 -1.6036
 5300TIP3    H215907   5.660   5.533   4.675 -1.3856  2.3262 -0.1903
 5301TIP3   OH215908   3.692   4.317   1.158  0.0926  0.0330  0.4413
 5301TIP3    H115909   3.773   4.284   1.196  0.9724 -0.3418 -1.6602
 5301TIP3    H215910   3.633   4.242   1.157  1.0560 -0.7675 -1.5112
 5302TIP3   OH215911   0.225   3.848   4.103 -0.0650  0.6170  0.6696
 5302TIP3    H115912   0.219   3.943   4.117 -1.7807  0.4590  1.2953
 5302TIP3    H215913   0.294   3.820   4.163 -0.1983  1.3588  1.1894
 5303TIP3   OH215914   5.597   3.666   1.065 -0.3183 -0.0636  0.6093
 5303TIP3    H115915   5.604   3.575   1.036 -1.8505  0.1670 -0.5954
 5303TIP3    H215916   5.610   3.718   0.986 -0.9208  0.7119  0.9968
 5304TIP3   OH215917   2.694   2.968   3.795 -0.0937  0.1083 -0.1208
 5304TIP3    H115918   2.647   2.940   3.717 -0.1794  0.0232 -0.0396
 5304TIP3    H215919   2.625   2.985   3.860  0.0234 -0.8964  0.2855
 5305TIP3   OH215920   1.567   2.202   2.440  0.4817  0.0348 -0.1272
 5305TIP3    H115921   1.535   2.224   2.527 -0.2326  2.6868 -0.9505
 5305TIP3    H215922   1.493   2.219   2.382  1.2552 -0.6437 -1.3619
 5306TIP3   OH215923   5.810   3.722   2.942  0.2490  0.5327 -0.4561
 5306TIP3    H115924   5.888   3.774   2.959  0.7502 -0.0493 -0.9210
 5306TIP3    H215925   5.749   3.745   3.012  0.8518  0.9634 -0.0726
 5307TIP3   OH215926   0.319   0.776   3.491  0.1415  0.5133 -0.1572
 5307TIP3    H115927   0.273   0.694   3.474 -0.0470  0.2083  1.5764
 5307TIP3    H215928   0.408   0.761   3.459  0.1339 -0.4188  0.2153
 5308TIP3   OH215929   4.885   1.195   4.646  0.3235 -0.4944  0.5470
 5308TIP3    H115930   4.816   1.199   4.712  0.0418  0.4663  0.2130
 5308TIP3    H215931   4.894   1.285   4.615  0.6774 -0.8700 -0.4909
 5309TIP3   OH215932   6.094   2.287   3.325 -0.3396 -0.2642  0.1129
 5309TIP3    H115933   6.041   2.307   3.247 -4.0864 -1.0973  2.2136
 5309TIP3    H215934   6.152   2.216   3.297 -0.0488  0.8656 -2.4193
 5310TIP3   OH215935   2.361   2.256   4.081 -0.6944  0.0883  0.2705
 5310TIP3    H115936   2.353   2.236   4.175 -0.5414 -2.9561 -0.2532
 5310TIP3    H215937   2.454   2.242   4.062 -0.5940  1.3410 -0.2426
 5311TIP3   OH215938   5.447   5.562   0.441  0.4711 -0.5041  0.3047
 5311TIP3    H115939   5.536   5.536   0.463  0.6163 -0.5391 -0.3222
 5311TIP3    H215940   5.427   5.515   0.360  0.2897  0.3871 -0.1735
 5312TIP3   OH215941   2.277   1.395   0.388  0.1218  0.5687  0.3710
 5312TIP3    H115942   2.251   1.465   0.328  1.1915  0.6001 -0.0854
 5312TIP3    H215943   2.340   1.343   0.338  2.8233  1.9018  2.1651
 5313TIP3   OH215944   0.529   0.652   2.596 -0.1049  0.3643  0.2263
 5313TIP3    H115945   0.606   0.707   2.607 -0.6458  0.8956  1.4997
 5313TIP3    H215946   0.563   0.571   2.558  0.6350  1.7395 -2.2644
 5314TIP3   OH215947   5.203   1.372   3.136  0.5645 -0.0519 -0.3679
 5314TIP3    H115948   5.115   1.335   3.135  0.4681  0.1806 -0.7674
 5314TIP3    H215949   5.190   1.462   3.167  0.7671 -0.2684  0.3681
 5315TIP3   OH215950   0.858   0.059   3.646 -0.4666  0.2433  0.5353
 5315TIP3    H115951   0.910  -0.013   3.611  0.0246 -0.6587  2.9216
 5315TIP3    H215952   0.778   0.060   3.594 -0.1327 -1.5181 -0.0515
 5316TIP3   OH215953   4.817   5.361   2.347 -0.4846 -0.0182  0.0093
 5316TIP3    H115954   4.746   5.406   2.392  0.8488  1.7816  0.4262
 5316TIP3    H215955   4.880   5.339   2.417 -0.4241 -1.2236 -0.3979
 5317TIP3   OH215956   1.247   1.162   2.933 -0.3525 -0.2397  0.2408
 5317TIP3    H115957   1.244   1.255   2.911  0.7322 -0.6050 -1.7084
 5317TIP3    H215958   1.156   1.133   2.929 -0.6279  0.5911  0.2183
 5318TIP3   OH215959   3.672   3.246   1.915  0.0888  0.3237  0.1317
 5318TIP3    H115960   3.752   3.277   1.957  0.4215  0.5097 -0.6156
 5318TIP3    H215961   3.624   3.201   1.985 -0.2919  2.2687  1.1757
 5319TIP3   OH215962   4.380   0.975   0.707 -0.4832 -0.3710 -0.0979
 5319TIP3    H115963   4.332   0.921   0.644 -0.6010  1.4184 -1.6416
 5319TIP3    H215964   4.444   1.022   0.654  0.8766 -0.3706  1.4714
 5320TIP3   OH215965   1.425   3.407   4.814 -0.4704  0.0326  0.1148
 5320TIP3    H115966   1.487   3.348   4.769 -1.8583 -0.4244 -1.2908
 5320TIP3    H215967   1.406   3.362   4.896  1.0858  0.2112  0.6090
 5321TIP3   OH215968   3.173   4.546   4.252  0.1504  0.5096 -0.2507
 5321TIP3    H115969   3.252   4.525   4.201  1.5430  1.0269  1.5915
 5321TIP3    H215970   3.141   4.461   4.283  1.8576  0.4723  1.5927
 5322TIP3   OH215971   3.309   5.505   1.045  0.3363 -0.3627 -0.0065
 5322TIP3    H115972   3.221   5.472   1.063  0.3178  0.3202  1.3309
 5322TIP3    H215973   3.364   5.426   1.041 -0.2234 -0.7473 -0.1823
 5323TIP3   OH215974   3.657   5.730   2.013  0.3053 -0.0610  0.1959
 5323TIP3    H115975   3.586   5.775   2.059  1.2214  0.4115  1.1931
 5323TIP3    H215976   3.711   5.800   1.977 -0.8230 -0.4058 -2.4216
 5324TIP3   OH215977   5.837   4.121   0.311  0.4777  0.1723  0.1880
 5324TIP3    H115978   5.760   4.178   0.304  2.5379  3.2171  0.2542
 5324TIP3    H215979   5.877   4.125   0.225  0.6744 -1.2511  0.2009
 5325TIP3   OH215980   4.688   0.680   4.382 -0.4116  0.6633 -0.0374
 5325TIP3    H115981   4.598   0.699   4.358 -0.4442  0.2986 -0.2102
 5325TIP3    H215982   4.735   0.763   4.370 -0.2439  0.3204 -2.1713
 5326TIP3   OH215983   0.145   0.388   2.524  0.6072  0.4255  0.1366
 5326TIP3    H115984   0.152   0.443   2.446 -0.2578  1.2723  0.6363
 5326TIP3    H215985   0.051   0.380   2.539  0.6661 -1.7856 -0.3130
 5327TIP3   OH215986   2.669   0.778   1.393  0.2717  1.1008  0.1077
 5327TIP3    H115987   2.584   0.769   1.437 -0.3964  0.5990 -1.2355
 5327TIP3    H215988   2.717   0.699   1.418 -0.0515  0.8832  0.0493
 5328TIP3   OH215989   6.227   4.499   2.082 -0.4100 -0.0829  0.2736
 5328TIP3    H115990   6.309   4.452   2.072 -0.3474 -0.0618  0.6877
 5328TIP3    H215991   6.167   4.436   2.122 -0.7647 -0.2780 -0.5553
 5329TIP3   OH215992   2.313   5.123   3.778 -0.5417  0.1729  0.4535
 5329TIP3    H115993   2.265   5.062   3.721  0.9409 -1.2004  0.6002
 5329TIP3    H215994   2.288   5.210   3.746 -0.7892 -0.5320 -1.4366
 5330TIP3   OH215995   5.615   0.135   2.871  0.4687 -0.3197 -0.4380
 5330TIP3    H115996   5.526   0.144   2.836  0.1457  0.8427  0.5872
 5330TIP3    H215997   5.652   0.060   2.824 -1.4297 -1.5410 -0.1040
 5331TIP3   OH215998   5.932   1.609   3.825  0.2449 -0.7002 -0.0196
 5331TIP3    H115999   5.875   1.668   3.775 -0.2202 -0.7268  0.4626
 5331TIP3    H216000   5.978   1.667   3.886  0.1539 -0.7760  0.1209
 5332TIP3   OH216001   0.080   4.869   2.380 -0.3380 -0.7649  0.3612
 5332TIP3    H116002   0.099   4.953   2.336 -1.4811 -0.4850  0.3675
 5332TIP3    H216003   0.111   4.881   2.469 -1.8830  0.2566  0.8112
 5333TIP3   OH216004   5.911   3.431   4.426  0.0889  0.6315 -0.0689
 5333TIP3    H116005   5.848   3.368   4.390 -0.5071  0.4905  1.1636
 5333TIP3    H216006   5.862   3.478   4.494  1.0978  1.0317  0.4022
 5334TIP3   OH216007   5.590   3.093   4.225 -0.5838 -0.2442 -0.4169
 5334TIP3    H116008   5.517   3.122   4.280  0.4881  0.4431  0.6904
 5334TIP3    H216009   5.659   3.069   4.287 -0.4716 -2.6595 -1.3786
 5335TIP3   OH216010   0.168   4.330   4.783  0.2080 -0.3390 -0.3991
 5335TIP3    H116011   0.258   4.341   4.814  0.1134  0.1346 -0.2885
 5335TIP3    H216012   0.125   4.277   4.850  0.2498 -0.0824 -0.1713
 5336TIP3   OH216013   1.428   2.882   0.583 -0.1811  0.5155  0.2552
 5336TIP3    H116014   1.377   2.802   0.572 -0.0128  0.2250  1.5265
 5336TIP3    H216015   1.459   2.902   0.494 -2.1494  0.4938 -0.4973
 5337TIP3   OH216016   0.511   2.595   1.313  0.4336  0.2063 -0.4634
 5337TIP3    H116017   0.593   2.547   1.299  1.4724  1.9587 -0.6819
 5337TIP3    H216018   0.531   2.685   1.287 -0.4288  1.5636  3.0588
 5338TIP3   OH216019   2.658   3.008   1.811 -0.8914  0.0634  0.4112
 5338TIP3    H116020   2.708   3.020   1.730  0.6400 -1.3521  1.0895
 5338TIP3    H216021   2.603   2.932   1.794  1.8648 -2.3869  1.7066
 5339TIP3   OH216022   4.748   1.377   2.541  0.0601 -0.0839 -0.5037
 5339TIP3    H116023   4.807   1.409   2.473 -0.0682  0.6561 -0.2723
 5339TIP3    H216024   4.685   1.322   2.494 -1.3074  2.0745 -1.3441
 5340TIP3   OH216025   0.717   2.628   1.787  1.0369  0.1051  0.2052
 5340TIP3    H116026   0.624   2.616   1.805  0.9978 -0.6439 -0.4348
 5340TIP3    H216027   0.759   2.624   1.872  0.6317 -1.0540  0.3644
 5341TIP3   OH216028   2.945   3.216   0.170 -0.0228  0.4661  0.7085
 5341TIP3    H116029   2.890   3.211   0.092  0.5261  0.7865  0.2976
 5341TIP3    H216030   2.944   3.308   0.195  1.0428  0.6383  0.1673
 5342TIP3   OH216031   2.982   2.510   4.242 -0.0845 -0.2498 -0.5296
 5342TIP3    H116032   2.996   2.560   4.323  0.0601 -0.7012 -0.2758
 5342TIP3    H216033   2.938   2.430   4.270 -1.7879  0.4307 -1.1248
 5343TIP3   OH216034   0.692   2.900   5.130 -0.3000  0.4992 -0.2301
 5343TIP3    H116035   0.715   2.825   5.076  0.8917  0.0789  0.8251
 5343TIP3    H216036   0.633   2.866   5.196 -0.4519  0.6737 -0.2740
 5344TIP3   OH216037   5.084   2.497   3.926 -0.1876 -0.1800  0.0531
 5344TIP3    H116038   5.094   2.494   4.022 -1.0391 -1.3783  0.1322
 5344TIP3    H216039   5.173   2.508   3.894  0.2845 -1.0742  0.9704
 5345TIP3   OH216040   5.104   5.168   1.409 -0.2015  0.0926 -0.2223
 5345TIP3    H116041   5.116   5.156   1.503 -1.5094  1.2228  0.1161
 5345TIP3    H216042   5.112   5.080   1.372 -1.7949 -0.7017  1.2132
 5346TIP3   OH216043   3.673   2.034   2.466 -0.0521 -1.0856 -0.0154
 5346TIP3    H116044   3.709   2.082   2.541  2.1441 -1.1697 -0.9239
 5346TIP3    H216045   3.662   2.100   2.398 -1.8027 -1.0529  0.2613
 5347TIP3   OH216046   0.177   0.725   0.595 -0.6621  0.5561  0.8142
 5347TIP3    H116047   0.097   0.718   0.544  0.0199 -0.4709 -0.1543
 5347TIP3    H216048   0.151   0.704   0.685 -1.3225 -0.6231  0.3650
 5348TIP3   OH216049   0.564   2.018   3.067  0.7365 -0.4572  0.2689
 5348TIP3    H116050   0.651   1.980   3.081  0.6498 -0.5688  0.5119
 5348TIP3    H216051   0.567   2.053   2.978  0.4355 -2.0988 -0.4176
 5349TIP3   OH216052   0.186   0.801   1.100 -0.3656  0.2133  0.6417
 5349TIP3    H116053   0.103   0.799   1.147 -1.1764 -1.3108 -0.7304
 5349TIP3    H216054   0.216   0.710   1.101  1.8398  0.8744  1.9526
 5350TIP3   OH216055   2.643   2.768   3.303  0.1178  0.3264 -0.5928
 5350TIP3    H116056   2.631   2.673   3.296 -0.2633  0.4396 -1.6744
 5350TIP3    H216057   2.736   2.778   3.324  0.3320 -0.2806 -1.1809
 5351TIP3   OH216058   6.125   3.240   4.582 -0.3849  0.1571 -0.0496
 5351TIP3    H116059   6.072   3.285   4.517 -0.8920  0.1473  0.3472
 5351TIP3    H216060   6.078   3.253   4.665 -1.3608 -2.3607 -0.1442
 5352TIP3   OH216061   4.202   5.689   3.879  0.1051  0.2165 -0.3764
 5352TIP3    H116062   4.279   5.634   3.863 -0.3601 -0.7506  0.5991
 5352TIP3    H216063   4.155   5.644   3.950  0.3013  2.4539  1.2778
 5353TIP3   OH216064   2.778   3.168   2.838 -0.4111 -0.4341 -0.1369
 5353TIP3    H116065   2.754   3.085   2.879 -0.0211 -0.5630 -0.1639
 5353TIP3    H216066   2.699   3.195   2.791 -0.9106 -0.2016  0.8311
 5354TIP3   OH216067   1.592   1.514   2.962  0.4071 -0.1211  0.2634
 5354TIP3    H116068   1.572   1.479   2.875  1.3072  0.8720 -0.3580
 5354TIP3    H216069   1.677   1.476   2.984  0.1325 -0.4501  0.7646
 5355TIP3   OH216070   0.876   0.875   1.859  0.1662 -0.1723 -0.2232
 5355TIP3    H116071   0.897   0.898   1.769  0.0651 -1.4889 -0.6110
 5355TIP3    H216072   0.839   0.955   1.897  0.7054  0.5444 -1.1827
 5356TIP3   OH216073   2.326   0.770   2.872 -0.8401  0.1432  0.3313
 5356TIP3    H116074   2.391   0.817   2.820 -0.1348 -1.1160  0.0257
 5356TIP3    H216075   2.275   0.721   2.808 -1.0356 -0.1289  0.6893
 5357TIP3   OH216076   0.878   5.852   4.734 -0.5862  0.1606 -0.7407
 5357TIP3    H116077   0.867   5.768   4.778 -1.2283  1.0293  0.8102
 5357TIP3    H216078   0.801   5.903   4.759  0.1855  1.4958 -0.9884
 5358TIP3   OH216079   2.639   5.646   1.061 -0.0285  0.6250  0.5669
 5358TIP3    H116080   2.617   5.702   1.136  0.2887  1.7432 -0.1707
 5358TIP3    H216081   2.554   5.623   1.023 -0.1490  0.7388  0.7676
 5359TIP3   OH216082   3.860   1.275   0.383 -0.6524 -0.0283 -0.2745
 5359TIP3    H116083   3.857   1.332   0.307 -0.7066 -0.3835 -0.5412
 5359TIP3    H216084   3.947   1.235   0.380 -1.7695 -2.5987 -2.0560
 5360TIP3   OH216085   6.014   2.411   3.719 -0.1528 -0.1809 -0.1557
 5360TIP3    H116086   5.935   2.436   3.767 -0.5528 -1.3321 -0.1893
 5360TIP3    H216087   6.066   2.361   3.782  0.4100  0.2800 -0.2362
 5361TIP3   OH216088   3.746   0.574   1.736 -0.1737  0.5244 -0.1565
 5361TIP3    H116089   3.717   0.660   1.767  2.1446  1.7211 -0.9956
 5361TIP3    H216090   3.689   0.555   1.662 -0.9378  1.1861  0.2462
 5362TIP3   OH216091   5.134   0.194   2.147 -0.2272 -0.1761  0.4462
 5362TIP3    H116092   5.194   0.227   2.214  0.4703  1.6327 -0.9847
 5362TIP3    H216093   5.164   0.235   2.066 -1.5422 -1.6525 -0.8536
 5363TIP3   OH216094   5.614   3.527   0.547 -0.4909  0.5409  0.2680
 5363TIP3    H116095   5.565   3.460   0.499  1.0041 -0.1433 -0.3799
 5363TIP3    H216096   5.585   3.609   0.509 -1.0447  0.1442 -0.1880
 5364TIP3   OH216097   4.472   2.839   2.282 -0.3553  0.0750  0.2393
 5364TIP3    H116098   4.457   2.933   2.287 -0.3759  0.1719 -1.2564
 5364TIP3    H216099   4.495   2.823   2.191  0.1911 -1.2971  0.5960
 5365TIP3   OH216100   4.475   1.565   4.345  0.1094 -0.1190 -0.0720
 5365TIP3    H116101   4.564   1.532   4.332  0.3741  0.8452 -0.7853
 5365TIP3    H216102   4.455   1.613   4.265 -0.6699  0.5318  0.4984
 5366TIP3   OH216103   4.509   4.906   3.711  0.1418 -0.6529  0.0464
 5366TIP3    H116104   4.592   4.859   3.723  0.9905  0.8566  0.3811
 5366TIP3    H216105   4.518   4.949   3.625 -0.2691 -0.4180  0.1179
 5367TIP3   OH216106   1.942   2.692   2.169  0.4231 -0.7872 -0.6427
 5367TIP3    H116107   1.857   2.722   2.135  0.6709 -1.0329 -1.5100
 5367TIP3    H216108   1.946   2.600   2.143  0.0712 -1.3684  1.1769
 5368TIP3   OH216109   3.061   3.344   5.019 -0.4959  0.4311 -0.8917
 5368TIP3    H116110   3.135   3.349   4.959 -0.9691  0.7580 -1.4531
 5368TIP3    H216111   3.005   3.276   4.982  0.5897 -1.4804  0.7598
 5369TIP3   OH216112   4.429   0.881   1.448 -0.0057  0.6565 -0.2128
 5369TIP3    H116113   4.514   0.840   1.433  0.3343  1.3170 -0.1300
 5369TIP3    H216114   4.365   0.811   1.433  0.4175  0.6737 -2.5704
 5370TIP3   OH216115   2.135   0.490   4.411 -0.0812  0.2882 -0.3884
 5370TIP3    H116116   2.209   0.540   4.446  1.0058 -1.9128  0.6681
 5370TIP3    H216117   2.151   0.487   4.317  0.5582  0.8195 -0.3024
 5371TIP3   OH216118   2.336   4.671   0.981 -0.3811 -0.4259  0.4777
 5371TIP3    H116119   2.351   4.760   0.948 -0.7294 -0.3928  0.4077
 5371TIP3    H216120   2.304   4.622   0.905  1.2138 -0.9983  0.1346
 5372TIP3   OH216121   4.463   0.911   3.968  0.3673  0.0882 -0.8942
 5372TIP3    H116122   4.488   0.978   4.032  0.4436  1.2410 -2.0950
 5372TIP3    H216123   4.418   0.844   4.020 -0.3389  1.3908  0.2442
 5373TIP3   OH216124   5.569   5.111   3.811  0.4764 -0.0167  0.1230
 5373TIP3    H116125   5.478   5.081   3.805  0.4335  0.0169  0.5628
 5373TIP3    H216126   5.583   5.160   3.730  0.0457  0.1283  0.1314
 5374TIP3   OH216127   4.648   5.916   2.859  0.1262 -0.3825 -0.0545
 5374TIP3    H116128   4.645   5.884   2.949  0.4221  0.7923  0.3927
 5374TIP3    H216129   4.560   5.901   2.824 -0.2509 -0.0101  0.7324
 5375TIP3   OH216130   0.902   4.833   1.645 -1.1279 -0.2556  0.4448
 5375TIP3    H116131   0.986   4.815   1.686 -0.7570  0.7585  0.1509
 5375TIP3    H216132   0.923   4.882   1.566 -2.0203  0.4596  0.6302
 5376TIP3   OH216133   2.730   1.343   0.999  0.5584 -0.5283  0.0664
 5376TIP3    H116134   2.730   1.409   1.068  0.6836 -0.4285 -0.0301
 5376TIP3    H216135   2.666   1.278   1.029 -0.8474  0.4741 -0.6535
 5377TIP3   OH216136   4.554   1.262   0.139  0.0772 -0.3705 -0.0115
 5377TIP3    H116137   4.462   1.283   0.125  0.0758 -0.4995 -0.1928
 5377TIP3    H216138   4.602   1.337   0.103 -0.0268  1.2622  2.8959
 5378TIP3   OH216139   2.979   5.936   4.893  0.1402  0.6579  0.0016
 5378TIP3    H116140   2.898   5.972   4.858  0.5429  0.4687 -1.1580
 5378TIP3    H216141   3.011   6.004   4.953 -1.5101  0.1909  1.5119
 5379TIP3   OH216142   3.264   3.364   4.825  0.3839 -0.0362 -0.1051
 5379TIP3    H116143   3.180   3.387   4.786  0.4724  2.7220  1.1212
 5379TIP3    H216144   3.329   3.392   4.761  0.4273  1.7738  0.6539
 5380TIP3   OH216145   1.751   1.962   4.417  0.2986  0.1808  0.4789
 5380TIP3    H116146   1.719   2.009   4.340  1.9005  0.1862 -0.2153
 5380TIP3    H216147   1.783   2.031   4.476  2.3060  0.0540 -0.3823
 5381TIP3   OH216148   2.808   5.159   0.070  0.0199 -0.0077 -0.8559
 5381TIP3    H116149   2.846   5.206  -0.005  0.9251  1.3345  0.4018
 5381TIP3    H216150   2.882   5.115   0.111 -0.5947 -1.3719 -1.1482
 5382TIP3   OH216151   2.633   4.114   1.698  0.1122  0.1874  0.1308
 5382TIP3    H116152   2.610   4.028   1.661  2.3579 -0.9292  1.1339
 5382TIP3    H216153   2.637   4.172   1.622 -0.9721 -0.6668 -0.6349
 5383TIP3   OH216154   3.141   0.931   3.562 -0.0861  0.3466  0.3236
 5383TIP3    H116155   3.133   0.850   3.613 -0.6321 -1.1262 -1.9299
 5383TIP3    H216156   3.193   0.906   3.486 -0.2742  2.1279 -0.4361
 5384TIP3   OH216157   6.009   5.412   4.212 -0.5231  0.0812  0.4148
 5384TIP3    H116158   6.012   5.500   4.176  0.2943  0.4005  1.2188
 5384TIP3    H216159   5.981   5.357   4.139  0.2646  0.8205 -0.4730
 5385TIP3   OH216160   2.244   1.328   3.349  0.0955  0.0528  0.4208
 5385TIP3    H116161   2.201   1.392   3.291  0.6001 -0.0329 -0.0595
 5385TIP3    H216162   2.227   1.360   3.437 -1.6250 -0.3922  0.2956
 5386TIP3   OH216163   1.639   2.499   2.111 -0.0857 -0.3541  0.4818
 5386TIP3    H116164   1.687   2.509   2.029  0.0150 -0.5373  0.5160
 5386TIP3    H216165   1.616   2.406   2.114 -4.0991  0.3763 -1.5461
 5387TIP3   OH216166   4.801   2.395   4.155  0.3645  0.4918 -0.3591
 5387TIP3    H116167   4.838   2.310   4.130 -2.0752 -1.1340  1.0925
 5387TIP3    H216168   4.857   2.425   4.227 -0.2829 -1.3484  1.0209
 5388TIP3   OH216169   4.103   4.440   0.896 -0.0287 -0.0550 -0.1469
 5388TIP3    H116170   4.021   4.404   0.864  0.5486 -2.1173  0.5509
 5388TIP3    H216171   4.082   4.477   0.981 -0.6563  1.4780 -0.9314
 5389TIP3   OH216172   1.252   5.700   3.982 -0.0218 -0.6951  0.5592
 5389TIP3    H116173   1.263   5.794   3.968 -0.6158 -0.6603  0.2900
 5389TIP3    H216174   1.300   5.682   4.063  0.3783 -0.2232  0.4286
 5390TIP3   OH216175   1.903   0.071   3.693 -0.0996 -0.0469  0.0703
 5390TIP3    H116176   1.957   0.069   3.613  2.4003 -1.2570  1.6424
 5390TIP3    H216177   1.902  -0.020   3.723 -1.8595  0.2141  0.9028
 5391TIP3   OH216178   3.926   5.501   2.651  0.3013  0.1091 -0.1341
 5391TIP3    H116179   3.866   5.569   2.619  0.4861  0.1614 -0.3736
 5391TIP3    H216180   3.964   5.464   2.572 -2.7149 -3.0558 -0.3431
 5392TIP3   OH216181   1.976   3.525   3.117  0.4405  0.3467  0.5711
 5392TIP3    H116182   1.998   3.615   3.091  0.5201 -0.0320 -0.7159
 5392TIP3    H216183   1.891   3.533   3.160  1.2190  1.2623  2.0152
 5393TIP3   OH216184   2.068   4.363   1.024  0.0710  0.2775  0.1805
 5393TIP3    H116185   2.042   4.434   0.965 -0.7289 -1.5014 -1.7071
 5393TIP3    H216186   1.991   4.308   1.032  1.0837 -1.1755  0.4006
 5394TIP3   OH216187   3.654   4.944   4.241 -0.5159  0.2356 -0.0341
 5394TIP3    H116188   3.599   4.893   4.182 -0.6476 -0.3676  0.6016
 5394TIP3    H216189   3.735   4.958   4.193 -0.6820 -0.1114 -0.4164
 5395TIP3   OH216190   4.992   2.932   0.685 -0.5002 -0.0471  0.1149
 5395TIP3    H116191   4.988   3.003   0.622  2.1932  0.2384  0.1684
 5395TIP3    H216192   5.044   2.864   0.642  0.7443 -0.1470  1.6822
 5396TIP3   OH216193   5.395   0.617   4.197 -0.1333 -0.0197  0.0364
 5396TIP3    H116194   5.389   0.699   4.148  0.0572  0.3411  0.5976
 5396TIP3    H216195   5.478   0.623   4.243 -0.5252 -0.1233  0.7818
 5397TIP3   OH216196   3.360   0.797   3.689  0.0374  0.2794  0.1129
 5397TIP3    H116197   3.318   0.716   3.716  1.8895 -0.4208  1.0736
 5397TIP3    H216198   3.323   0.864   3.746 -0.9919  0.0061 -0.2156
 5398TIP3   OH216199   3.778   0.939   0.812 -0.0722  0.3375  0.5646
 5398TIP3    H116200   3.783   0.941   0.908  1.1524 -0.9734  0.5647
 5398TIP3    H216201   3.707   0.878   0.793 -0.6114  0.9396  0.6293
 5399TIP3   OH216202   5.275   0.428   4.021 -0.8161 -0.0110 -0.1896
 5399TIP3    H116203   5.223   0.380   3.956 -0.5126 -1.2270  0.4368
 5399TIP3    H216204   5.251   0.520   4.008 -2.3505 -0.4357 -0.6089
 5400TIP3   OH216205   5.467   2.268   2.402 -0.1499  0.0190 -0.3093
 5400TIP3    H116206   5.436   2.302   2.486  0.4300  2.7225 -1.0889
 5400TIP3    H216207   5.398   2.291   2.340  0.0827 -0.6318 -0.8158
 5401TIP3   OH216208   0.782   0.534   4.323  0.3516 -0.1280  0.1609
 5401TIP3    H116209   0.696   0.501   4.298  0.3927 -0.3854  0.3466
 5401TIP3    H216210   0.765   0.616   4.368  0.2190 -0.0691  0.0008
 5402TIP3   OH216211   3.233   1.967   2.746  0.0651  0.1377  0.3468
 5402TIP3    H116212   3.168   1.961   2.676 -0.2860 -0.2680  0.7092
 5402TIP3    H216213   3.315   1.941   2.704  0.1040  1.1357 -0.2424
 5403TIP3   OH216214   0.754   2.438   1.326 -0.2556 -0.4274  0.2716
 5403TIP3    H116215   0.796   2.353   1.309  0.3417  0.0800 -0.9123
 5403TIP3    H216216   0.791   2.466   1.409  1.7304 -0.0511 -0.6801
 5404TIP3   OH216217   4.065   1.884   2.071 -0.6451 -0.5385  0.4168
 5404TIP3    H116218   4.068   1.926   1.986 -2.1992 -0.8603  0.1702
 5404TIP3    H216219   4.045   1.954   2.132  0.6566 -0.2735  0.5777
 5405TIP3   OH216220   2.793   2.603   4.470 -0.5533  0.0475  0.3907
 5405TIP3    H116221   2.729   2.619   4.540  0.3058  0.5476  1.0941
 5405TIP3    H216222   2.866   2.662   4.491 -0.2618  0.1806 -0.9196
 5406TIP3   OH216223   0.788   5.247   3.510 -0.3155  0.5550 -0.3142
 5406TIP3    H116224   0.865   5.265   3.564 -1.7013 -0.6127  2.2234
 5406TIP3    H216225   0.811   5.167   3.463 -0.8686 -1.5264  2.6397
 5407TIP3   OH216226   1.308   5.273   4.383 -0.0354  0.2558  0.1794
 5407TIP3    H116227   1.360   5.193   4.377  0.4586  0.5726  0.2327
 5407TIP3    H216228   1.248   5.268   4.309  0.9151  0.4872 -0.6186
 5408TIP3   OH216229   3.795   1.228   1.931 -0.1525  0.9153  0.1015
 5408TIP3    H116230   3.801   1.276   2.014  0.2903  1.0393  0.0019
 5408TIP3    H216231   3.886   1.217   1.904 -0.0751 -1.7938  1.1730
 5409TIP3   OH216232   1.773   3.096   0.538  0.6981  0.6154 -0.1617
 5409TIP3    H116233   1.831   3.080   0.613  0.2289 -0.9924 -0.0936
 5409TIP3    H216234   1.699   3.037   0.553  0.7094  0.0797 -2.0031
 5410TIP3   OH216235   0.446   5.656   1.516 -0.0615  0.0669  0.4148
 5410TIP3    H116236   0.537   5.630   1.498  0.1700  1.1492 -0.0480
 5410TIP3    H216237   0.429   5.728   1.456 -2.0017 -1.5379 -1.0926
 5411TIP3   OH216238   0.554   0.937   3.832  0.2281 -0.1568  0.1492
 5411TIP3    H116239   0.474   0.895   3.800 -0.6839  1.8200 -0.2799
 5411TIP3    H216240   0.623   0.874   3.811 -1.0437 -1.3542 -0.6278
 5412TIP3   OH216241   3.877   4.111   2.222  0.2434  0.3310 -0.2829
 5412TIP3    H116242   3.941   4.043   2.243  1.4674  1.5578  0.1602
 5412TIP3    H216243   3.914   4.191   2.260 -0.5869  1.4599 -1.7266
 5413TIP3   OH216244   2.688   5.433   3.690  0.0555  0.6887  0.1737
 5413TIP3    H116245   2.763   5.451   3.634  0.4290 -0.1020  0.4013
 5413TIP3    H216246   2.700   5.341   3.716 -1.3442  0.3490 -0.3214
 5414TIP3   OH216247   2.309   0.982   2.265 -0.6117 -0.1425 -0.2700
 5414TIP3    H116248   2.265   1.058   2.227  2.0624  0.8052 -1.8002
 5414TIP3    H216249   2.267   0.906   2.223  0.0039  0.7629 -2.7162
 5415TIP3   OH216250   3.884   4.288   2.618  0.1042 -0.1618  0.4822
 5415TIP3    H116251   3.900   4.371   2.663  3.5168  0.4314 -1.4569
 5415TIP3    H216252   3.898   4.221   2.685  0.0218  0.7567  1.4469
 5416TIP3   OH216253   0.721   3.598   3.077 -0.0414 -0.2083  0.0324
 5416TIP3    H116254   0.788   3.561   3.135 -0.7462 -2.0146 -0.2240
 5416TIP3    H216255   0.672   3.658   3.132  0.2437 -0.7557  0.9130
 5417TIP3   OH216256   4.550   0.176   4.966  0.0840 -0.5383 -0.4385
 5417TIP3    H116257   4.481   0.196   4.903 -0.3999  0.1382  0.2908
 5417TIP3    H216258   4.631   0.177   4.914 -0.0587  1.9637 -0.7303
 5418TIP3   OH216259   1.547   1.604   0.509 -0.3034 -0.2957  0.5001
 5418TIP3    H116260   1.517   1.566   0.592 -1.3124 -0.1921  0.2027
 5418TIP3    H216261   1.630   1.560   0.491 -1.1659 -1.9843  0.4400
 5419TIP3   OH216262   1.896   4.173   1.902 -0.2960  0.8342  0.0941
 5419TIP3    H116263   1.946   4.146   1.825 -0.3882  1.9816 -0.3856
 5419TIP3    H216264   1.889   4.268   1.895 -1.0027  0.8826  1.1017
 5420TIP3   OH216265   6.258   3.389   4.280  0.3346  0.1792 -0.3178
 5420TIP3    H116266   6.315   3.313   4.284  0.4166  0.1917 -1.0466
 5420TIP3    H216267   6.187   3.363   4.222 -0.6158  0.0349  0.8691
 5421TIP3   OH216268   1.718   3.134   5.102 -0.2959 -0.1163 -0.1760
 5421TIP3    H116269   1.641   3.153   5.156 -0.5684  1.4748 -1.0639
 5421TIP3    H216270   1.728   3.039   5.108 -1.5960 -0.2184  0.9311
 5422TIP3   OH216271   4.628   1.676   2.885  0.4052  0.4503  0.5278
 5422TIP3    H116272   4.644   1.649   2.794  0.9649 -0.8316  0.9906
 5422TIP3    H216273   4.556   1.739   2.878  1.3322  1.4226 -0.9446
 5423TIP3   OH216274   5.863   3.418   1.685 -0.2704 -0.0431  0.2424
 5423TIP3    H116275   5.851   3.449   1.595 -1.1289  1.6304  0.8704
 5423TIP3    H216276   5.942   3.462   1.715  0.8041 -1.6735 -0.0887
 5424TIP3   OH216277   0.922   3.606   0.050  0.6821 -0.4155 -0.2241
 5424TIP3    H116278   1.004   3.562   0.074  1.3880 -0.0672 -1.8489
 5424TIP3    H216279   0.861   3.583   0.120  1.9095 -1.4293  0.5581
 5425TIP3   OH216280   0.021   1.737   0.759 -0.1954  1.0853  0.4998
 5425TIP3    H116281  -0.027   1.819   0.750 -0.8896  0.5677 -0.9977
 5425TIP3    H216282   0.107   1.754   0.722 -0.4602  1.0550 -0.1399
 5426TIP3   OH216283   0.366   2.164   5.196 -0.3030 -0.3588 -0.3015
 5426TIP3    H116284   0.413   2.148   5.115  2.9046 -0.8539  1.4947
 5426TIP3    H216285   0.346   2.258   5.195  0.2451 -0.2458 -1.3491
 5427TIP3   OH216286   4.990   2.702   2.129  0.2403  0.1784 -0.1985
 5427TIP3    H116287   4.939   2.679   2.206  2.0019  0.2086  1.0209
 5427TIP3    H216288   4.945   2.778   2.092 -0.0731  0.7779  1.3587
 5428TIP3   OH216289   2.619   1.238   1.621  0.5176  0.4392  0.0909
 5428TIP3    H116290   2.564   1.161   1.637  2.4963 -1.0981 -0.0879
 5428TIP3    H216291   2.574   1.286   1.552 -0.7639 -0.5618  0.1918
 5429TIP3   OH216292   3.977   2.278   0.815  0.9879 -0.2006  0.1113
 5429TIP3    H116293   3.939   2.337   0.880 -1.8204 -0.0250 -1.5103
 5429TIP3    H216294   3.908   2.213   0.798  1.7931 -0.5389 -2.2625
 5430TIP3   OH216295   0.712   1.089   3.609 -0.0725  0.0817 -0.5839
 5430TIP3    H116296   0.683   1.084   3.700 -0.3518  2.6956 -0.4425
 5430TIP3    H216297   0.807   1.083   3.614 -0.1641 -1.6453 -0.3517
 5431TIP3   OH216298   3.387   0.433   1.073 -0.1570  0.0087  0.5240
 5431TIP3    H116299   3.453   0.366   1.055 -0.2063 -0.2009  1.1013
 5431TIP3    H216300   3.415   0.509   1.021 -0.5177 -0.6902 -0.7425
 5432TIP3   OH216301   1.443   4.935   0.852  0.1848 -0.4315 -0.0641
 5432TIP3    H116302   1.374   4.998   0.869 -0.5157 -0.9034 -1.0772
 5432TIP3    H216303   1.431   4.868   0.920 -0.7225 -0.7854 -0.5431
 5433TIP3   OH216304   3.686   5.982   3.941 -0.2912  0.2558  0.6740
 5433TIP3    H116305   3.615   6.047   3.931  1.4763  2.0115 -1.4669
 5433TIP3    H216306   3.668   5.917   3.874  0.5078  1.1523 -0.4500
 5434TIP3   OH216307   1.637   4.086   1.952  0.6763  0.6772 -0.2342
 5434TIP3    H116308   1.727   4.110   1.929  0.3188  1.2371 -1.1108
 5434TIP3    H216309   1.593   4.077   1.868 -0.0788  0.3399  0.1897
 5435TIP3   OH216310   5.297   2.017   1.667  0.1051  0.1243 -0.2193
 5435TIP3    H116311   5.280   2.022   1.573 -1.6004 -0.4629  0.0152
 5435TIP3    H216312   5.391   2.002   1.675  0.2703  0.2274 -1.8196
 5436TIP3   OH216313   3.046   4.507   1.556 -0.0969  0.0330  0.3055
 5436TIP3    H116314   3.133   4.541   1.537  0.2308 -2.0125 -2.7064
 5436TIP3    H216315   3.060   4.441   1.624  0.6701  0.0109  0.1324
 5437TIP3   OH216316   1.678   3.219   1.562  0.0763 -0.7636 -0.6824
 5437TIP3    H116317   1.687   3.266   1.479  0.1257 -1.5745 -1.1504
 5437TIP3    H216318   1.602   3.163   1.550 -0.6941  0.0397  0.2923
 5438TIP3   OH216319   0.358   5.577   2.190  0.2053 -0.3335  0.1212
 5438TIP3    H116320   0.396   5.632   2.258 -0.1472  1.6403 -1.1944
 5438TIP3    H216321   0.427   5.515   2.168  0.7302 -0.2521  1.4493
 5439TIP3   OH216322   0.616   2.343   1.986 -0.0896  0.2539  0.2308
 5439TIP3    H116323   0.610   2.437   2.004  1.4959  0.4564 -0.1404
 5439TIP3    H216324   0.704   2.318   2.016 -1.2104 -1.5950  2.2776
 5440TIP3   OH216325   2.197   2.780   3.981  0.3650  0.3448 -0.1201
 5440TIP3    H116326   2.167   2.699   4.023  1.4141 -0.1047 -0.1959
 5440TIP3    H216327   2.127   2.804   3.921  1.2811 -2.2562 -2.4674
 5441TIP3   OH216328   0.560   5.139   2.206  0.0267  0.0519 -0.4952
 5441TIP3    H116329   0.566   5.099   2.293  1.5181 -0.1848 -0.6856
 5441TIP3    H216330   0.496   5.085   2.159 -0.4875 -0.0623  0.3168
 5442TIP3   OH216331   5.763   3.004   4.412  0.3098 -0.3728  0.0172
 5442TIP3    H116332   5.713   2.939   4.462 -1.8741  0.3799 -1.0740
 5442TIP3    H216333   5.799   2.954   4.338  2.5028 -1.2167  1.5352
 5443TIP3   OH216334   6.013   0.811   4.214  0.4537  0.0842 -0.1109
 5443TIP3    H116335   5.956   0.828   4.289  1.7027  0.5862  0.7577
 5443TIP3    H216336   5.956   0.819   4.138 -0.8224 -0.3059  0.7647
 5444TIP3   OH216337   2.807   4.535   5.155  0.1600 -0.0998  0.6474
 5444TIP3    H116338   2.728   4.537   5.101  0.7619 -0.0257 -0.2471
 5444TIP3    H216339   2.867   4.476   5.109  1.0684  0.7721  0.6718
 5445TIP3   OH216340   3.050   2.738   0.181 -0.2102  0.3559  0.1268
 5445TIP3    H116341   3.080   2.770   0.266  0.1533  1.3937 -0.3695
 5445TIP3    H216342   3.069   2.810   0.121  0.8956 -0.9153 -1.0986
 5446TIP3   OH216343   1.732   4.745   1.852 -0.0517  0.3787  0.4139
 5446TIP3    H116344   1.694   4.816   1.903  0.5502  1.9543 -1.2584
 5446TIP3    H216345   1.735   4.778   1.763 -0.0286 -1.8722 -0.4837
 5447TIP3   OH216346   3.833   1.248   3.927  0.2224 -0.1146 -0.2775
 5447TIP3    H116347   3.904   1.280   3.983 -0.2285 -0.5082  0.5519
 5447TIP3    H216348   3.756   1.299   3.954  0.4789  1.4240 -2.2606
 5448TIP3   OH216349   5.231   1.944   2.694 -0.6193  0.1834 -0.1593
 5448TIP3    H116350   5.172   1.915   2.763 -0.3750  0.8322  0.3318
 5448TIP3    H216351   5.311   1.893   2.708 -0.4054  0.6421  0.3291
 5449TIP3   OH216352   5.247   0.681   3.004  0.8150 -0.7109 -0.4985
 5449TIP3    H116353   5.326   0.701   3.054  0.4131  0.6092 -0.3579
 5449TIP3    H216354   5.175   0.704   3.063  0.3293  0.5218 -1.5278
 5450TIP3   OH216355   5.888   3.456   1.000  0.1026  0.1714 -0.1214
 5450TIP3    H116356   5.907   3.542   0.964 -1.0537  1.3932  1.9968
 5450TIP3    H216357   5.793   3.455   1.011  0.2075 -0.9503  0.8681
 5451TIP3   OH216358   6.128   1.413   1.859  0.0295  0.2802 -1.2092
 5451TIP3    H116359   6.205   1.383   1.812 -1.1915 -2.7725 -1.5050
 5451TIP3    H216360   6.059   1.352   1.833 -1.2742 -0.2406  2.8164
 5452TIP3   OH216361   0.292   3.393   3.260  0.5142 -0.1185 -0.2690
 5452TIP3    H116362   0.280   3.327   3.191  0.5114  0.1364 -0.5148
 5452TIP3    H216363   0.236   3.363   3.331 -1.2126  0.7480 -1.1866
 5453TIP3   OH216364   5.250   3.987   4.833  0.4221  0.2546  0.0208
 5453TIP3    H116365   5.315   4.034   4.885  0.1944  0.9732 -0.3297
 5453TIP3    H216366   5.167   4.001   4.878  0.4334 -0.2947  0.2261
 5454TIP3   OH216367   3.395   5.068   4.545  0.0730 -0.0372 -0.6043
 5454TIP3    H116368   3.371   5.160   4.549 -0.7294 -0.2659  0.1920
 5454TIP3    H216369   3.325   5.023   4.593  0.0515 -1.1365 -1.6075
 5455TIP3   OH216370   3.466   5.571   2.419 -0.4309  0.2272  0.1958
 5455TIP3    H116371   3.419   5.579   2.502 -0.2655 -1.3336  0.4730
 5455TIP3    H216372   3.492   5.479   2.415 -0.0969  0.3645 -1.4138
 5456TIP3   OH216373   4.121   2.686   1.999  0.3170  0.3616  0.5089
 5456TIP3    H116374   4.033   2.652   1.982  0.4056 -0.4996  1.6521
 5456TIP3    H216375   4.131   2.759   1.938 -0.6436 -0.4369 -0.6385
 5457TIP3   OH216376   6.005   1.413   4.512  0.1832 -0.1669  0.4104
 5457TIP3    H116377   6.062   1.355   4.462 -1.4446 -0.8117 -0.7853
 5457TIP3    H216378   6.026   1.395   4.604  1.3328 -0.9268  0.0260
 5458TIP3   OH216379   1.047   5.951   4.998  0.1648  0.2437  0.5402
 5458TIP3    H116380   1.058   5.857   4.982 -1.4259  0.2813 -1.1279
 5458TIP3    H216381   0.966   5.957   5.049  0.0133  0.7209  0.2503
 5459TIP3   OH216382   4.105   5.605   3.232 -0.1062 -0.1651  0.2094
 5459TIP3    H116383   4.144   5.692   3.236  0.1925 -0.3063  0.4507
 5459TIP3    H216384   4.103   5.576   3.323  0.2115 -0.5882  0.0873
 5460TIP3   OH216385   6.009   3.969   4.423 -0.2890 -0.4062  0.0208
 5460TIP3    H116386   6.008   3.876   4.402  1.3440 -0.5974  0.6282
 5460TIP3    H216387   6.081   4.004   4.371 -2.1194  0.9634 -1.7525
 5461TIP3   OH216388   5.832   5.775   4.395 -0.9971  0.3624 -0.1764
 5461TIP3    H116389   5.879   5.817   4.466 -1.9065 -0.1606  0.7626
 5461TIP3    H216390   5.740   5.801   4.408 -1.5878 -1.8427  0.4284
 5462TIP3   OH216391   4.291   3.525   0.688  0.2740 -0.0375 -0.4994
 5462TIP3    H116392   4.221   3.517   0.753 -0.7413 -2.2880 -1.7947
 5462TIP3    H216393   4.361   3.469   0.721  0.6021  0.4508 -0.3432
 5463TIP3   OH216394   5.011   5.973   0.368 -0.0218 -0.2086  0.5769
 5463TIP3    H116395   4.939   6.035   0.371  0.0167 -0.1794  0.9635
 5463TIP3    H216396   4.974   5.891   0.401 -0.2404 -0.5702 -0.5139
 5464TIP3   OH216397   4.163   0.353   0.469  0.2826 -0.3782  0.2734
 5464TIP3    H116398   4.180   0.378   0.560  0.6086  1.1426 -0.1679
 5464TIP3    H216399   4.246   0.318   0.438  1.1464  1.9766 -0.2916
 5465TIP3   OH216400   4.646   1.123   3.791  0.4623  0.2752  0.0125
 5465TIP3    H116401   4.639   1.140   3.697 -2.5821  2.4417  0.4818
 5465TIP3    H216402   4.580   1.055   3.808  0.2304  0.6747  0.7292
 5466TIP3   OH216403   5.138   2.227   4.853 -0.3043 -0.4134 -0.3270
 5466TIP3    H116404   5.126   2.235   4.948  0.0945  0.5798 -0.3487
 5466TIP3    H216405   5.069   2.166   4.826 -0.5165 -0.6011  0.5785
 5467TIP3   OH216406   3.418   4.964   1.502 -0.0521  0.4675  0.1637
 5467TIP3    H116407   3.404   4.934   1.592 -1.5678  0.2853 -0.1012
 5467TIP3    H216408   3.332   4.956   1.461  0.8404 -0.4706 -1.6204
 5468TIP3   OH216409   4.930   1.438   1.486  0.4469  0.0742 -0.1319
 5468TIP3    H116410   4.977   1.519   1.502 -1.3489  0.9336  1.1385
 5468TIP3    H216411   4.973   1.373   1.541  0.1701  0.8397  1.0123
 5469TIP3   OH216412   6.160   0.082   3.445 -0.4927 -0.1526 -0.7440
 5469TIP3    H116413   6.249   0.087   3.479 -0.5942  0.6210 -0.5787
 5469TIP3    H216414   6.118   0.015   3.499 -0.7848  1.3821  1.0314
 5470TIP3   OH216415   5.128   3.893   1.647 -0.0471  0.2233 -0.0207
 5470TIP3    H116416   5.137   3.881   1.552 -1.6780  0.1688 -0.1867
 5470TIP3    H216417   5.210   3.935   1.673  1.6680 -2.2921 -0.9776
 5471TIP3   OH216418   0.637   1.542   0.239  0.7962 -0.1266 -0.1195
 5471TIP3    H116419   0.684   1.612   0.285  1.0868 -0.5656  0.2581
 5471TIP3    H216420   0.678   1.539   0.153 -0.5387  1.5040 -0.8725
 5472TIP3   OH216421   1.096   4.319   0.272 -0.0348 -0.1929 -0.1988
 5472TIP3    H116422   1.039   4.248   0.302  1.3304 -1.0500  0.4914
 5472TIP3    H216423   1.060   4.343   0.187 -2.4544  0.5294  0.9324
 5473TIP3   OH216424   2.733   2.999   4.243  0.9517  0.0746  0.5896
 5473TIP3    H116425   2.690   2.913   4.241 -1.6501  1.2862 -1.3580
 5473TIP3    H216426   2.821   2.982   4.210  0.4763 -1.8507  0.1422
 5474TIP3   OH216427   3.868   0.754   3.476  0.6798 -0.2973  0.1978
 5474TIP3    H116428   3.842   0.845   3.460  1.2718  0.1949  1.8227
 5474TIP3    H216429   3.817   0.703   3.414 -1.1020  0.9826  0.5382
 5475TIP3   OH216430   0.087   2.992   5.101 -0.0839  0.2768 -0.2981
 5475TIP3    H116431   0.141   2.928   5.147  1.3673  2.3522  0.9833
 5475TIP3    H216432   0.140   3.019   5.027 -0.7917 -0.1018 -0.9663
 5476TIP3   OH216433   1.612   4.158   1.659  0.3312 -0.0541 -0.8789
 5476TIP3    H116434   1.695   4.115   1.637  1.9444  2.1422  0.4429
 5476TIP3    H216435   1.600   4.223   1.589  0.4706  0.5219 -0.3813
 5477TIP3   OH216436   4.606   3.331   1.018 -0.8701 -0.0704 -0.4614
 5477TIP3    H116437   4.647   3.245   1.014  0.1989  0.2401  2.0636
 5477TIP3    H216438   4.678   3.392   1.027 -1.6850  0.9607 -0.6906
 5478TIP3   OH216439   5.701   1.658   4.331  0.4448 -0.1284 -0.3322
 5478TIP3    H116440   5.692   1.567   4.359  2.6155 -0.2087  0.2486
 5478TIP3    H216441   5.755   1.654   4.252 -0.3829  0.5905 -0.9532
 5479TIP3   OH216442   2.179   3.200   3.570 -0.3290 -0.0297 -0.0472
 5479TIP3    H116443   2.087   3.183   3.590 -0.8032  0.6006 -1.5539
 5479TIP3    H216444   2.192   3.159   3.484  0.6838  0.2655 -0.0377
 5480TIP3   OH216445   4.140   3.049   0.518  0.5840 -0.2282  0.4944
 5480TIP3    H116446   4.117   2.993   0.444 -1.5427  0.0965  0.8313
 5480TIP3    H216447   4.124   3.138   0.486  0.5819 -0.0305  1.0419
 5481TIP3   OH216448   5.803   2.629   2.327 -0.1196  0.2182 -0.0366
 5481TIP3    H116449   5.762   2.697   2.381 -0.2719 -0.3459  0.5829
 5481TIP3    H216450   5.840   2.676   2.252 -2.5536  0.6849 -1.0349
 5482TIP3   OH216451   4.587   1.050   3.092 -0.7001  0.3640 -0.5449
 5482TIP3    H116452   4.510   0.994   3.105 -1.0240  1.0489  0.5955
 5482TIP3    H216453   4.658   0.989   3.072 -1.2083 -0.3974 -0.0658
 5483TIP3   OH216454   2.394   5.272   4.897 -0.3955 -0.3716 -0.3318
 5483TIP3    H116455   2.472   5.321   4.871  0.6433 -1.2012  1.1045
 5483TIP3    H216456   2.321   5.331   4.875  0.6441  0.6305 -1.2414
 5484TIP3   OH216457   5.330   4.357   4.656  0.9087  0.0089  0.8133
 5484TIP3    H116458   5.352   4.361   4.749  0.0828  2.7924  0.9713
 5484TIP3    H216459   5.325   4.448   4.628  0.3185 -0.7253 -1.7965
 5485TIP3   OH216460   1.612   2.936   4.879 -0.0774 -0.4537  0.3030
 5485TIP3    H116461   1.610   3.029   4.905  0.3315 -0.2493 -0.3817
 5485TIP3    H216462   1.703   2.920   4.854 -0.6047 -0.3987 -1.8329
 5486TIP3   OH216463   0.384   4.114   4.648 -0.5876 -0.2866  0.3586
 5486TIP3    H116464   0.427   4.195   4.621 -3.0990  1.2361  0.6341
 5486TIP3    H216465   0.357   4.073   4.566 -0.2126 -0.3601  0.2658
 5487TIP3   OH216466   5.746   0.371   4.108  0.2161  0.2456 -0.8147
 5487TIP3    H116467   5.732   0.346   4.016 -0.2349 -1.2425 -0.3798
 5487TIP3    H216468   5.658   0.383   4.143  0.4078  1.8534 -0.8076
 5488TIP3   OH216469   1.454   3.983   5.081 -0.0345 -0.3774 -0.4746
 5488TIP3    H116470   1.504   3.918   5.033  0.3254 -0.9034  0.5738
 5488TIP3    H216471   1.444   3.946   5.169 -1.2114  0.2669 -0.3097
 5489TIP3   OH216472   5.775   2.687   0.258  0.3717  1.0520 -0.1821
 5489TIP3    H116473   5.762   2.773   0.219 -0.3983  1.3928  0.7781
 5489TIP3    H216474   5.742   2.696   0.348  1.6137  0.1539  0.3891
 5490TIP3   OH216475   6.266   4.640   1.489 -0.1865 -0.8267  0.0864
 5490TIP3    H116476   6.281   4.553   1.454 -1.1808 -0.6366 -0.8705
 5490TIP3    H216477   6.171   4.652   1.484 -0.0621  0.3472  0.1084
 5491TIP3   OH216478   2.402   3.707   1.184  0.2042  0.1070  0.3005
 5491TIP3    H116479   2.329   3.655   1.218  0.9316 -1.3457 -0.2913
 5491TIP3    H216480   2.364   3.794   1.169 -0.7929  0.0794  2.2839
 5492TIP3   OH216481   4.582   5.328   2.028 -0.4902 -0.0348 -0.2209
 5492TIP3    H116482   4.641   5.269   2.074 -1.3482  0.4244  1.5473
 5492TIP3    H216483   4.613   5.416   2.050 -0.1030  0.2190 -1.6554
 5493TIP3   OH216484   3.755   5.260   0.118 -0.1657 -0.1961 -0.0309
 5493TIP3    H116485   3.707   5.274   0.200  0.8367  1.1828  0.3588
 5493TIP3    H216486   3.836   5.309   0.130  0.3059 -0.5647 -1.5901
 5494TIP3   OH216487   3.231   4.604   2.997  0.3912 -0.5453 -0.3077
 5494TIP3    H116488   3.140   4.588   3.022  0.1130 -1.4592 -1.7525
 5494TIP3    H216489   3.230   4.599   2.901  1.9286 -0.3510 -0.3540
 5495TIP3   OH216490   6.279   4.501   0.693  0.0838  0.1144 -0.2850
 5495TIP3    H116491   6.270   4.587   0.653 -1.8332 -0.3305 -0.8923
 5495TIP3    H216492   6.249   4.439   0.626 -0.3413 -0.8802  0.7846
 5496TIP3   OH216493   2.865   5.380   2.847 -0.1693 -0.2739 -0.1447
 5496TIP3    H116494   2.892   5.430   2.771  1.9718  1.4840  1.6385
 5496TIP3    H216495   2.772   5.400   2.857  0.1787  1.7580 -0.6667
 5497TIP3   OH216496   2.967   0.078   2.829 -0.0938 -0.5401  0.3012
 5497TIP3    H116497   3.055   0.116   2.822 -0.3279  0.1486  0.9412
 5497TIP3    H216498   2.908   0.153   2.819 -0.5503 -0.5445  2.5965
 5498TIP3   OH216499   0.141   3.680   0.629  0.2747 -0.6480 -0.0113
 5498TIP3    H116500   0.150   3.587   0.612 -0.9513 -0.6206 -0.8904
 5498TIP3    H216501   0.088   3.685   0.709  0.1047 -0.6996 -0.1212
 5499TIP3   OH216502   3.871   3.421   0.544  0.2147 -0.3226 -0.3563
 5499TIP3    H116503   3.910   3.352   0.491  0.3963 -0.2362 -0.3396
 5499TIP3    H216504   3.881   3.500   0.491  1.0123 -0.1142  0.0826
 5500TIP3   OH216505   2.065   4.096   5.044 -0.0780 -0.3107  0.3018
 5500TIP3    H116506   2.093   4.004   5.043  1.7550  0.1952  1.1953
 5500TIP3    H216507   1.982   4.096   4.995  1.1699 -1.9929 -2.0146
 5501TIP3   OH216508   2.762   3.416   0.789  0.2555  0.0760  0.3686
 5501TIP3    H116509   2.788   3.339   0.739  0.5866 -0.8237  1.8662
 5501TIP3    H216510   2.787   3.490   0.734  1.1586 -0.8697 -0.5234
 5502TIP3   OH216511   2.901   0.873   2.360 -0.2520 -0.1700  0.4828
 5502TIP3    H116512   2.876   0.796   2.412  0.6401  0.6316  2.1956
 5502TIP3    H216513   2.982   0.848   2.316 -0.4966 -0.5361  0.2383
 5503TIP3   OH216514   5.009   3.406   0.082  0.0699  0.3651 -0.0651
 5503TIP3    H116515   4.988   3.365   0.166  1.4146  0.0063  0.1242
 5503TIP3    H216516   4.953   3.483   0.078  0.1631  0.5322  1.2885
 5504TIP3   OH216517   3.841   3.934   5.051 -0.9012  0.2305 -0.3404
 5504TIP3    H116518   3.761   3.951   5.101 -0.2925  1.1289  0.3435
 5504TIP3    H216519   3.896   4.011   5.065  0.0327 -0.3058 -0.9260
 5505TIP3   OH216520   0.964   4.345   2.453  0.0444  0.1557 -0.0710
 5505TIP3    H116521   1.044   4.324   2.404  0.1193  0.5252 -0.1121
 5505TIP3    H216522   0.911   4.395   2.391 -1.2197 -1.9852 -0.8358
 5506TIP3   OH216523   2.545   4.543   5.052 -0.0295  0.0306  0.0389
 5506TIP3    H116524   2.529   4.525   4.959 -3.5817 -2.3034  0.8822
 5506TIP3    H216525   2.491   4.619   5.071 -0.0838 -0.0914  0.3728
 5507TIP3   OH216526   1.924   0.537   1.645 -0.1159  0.3182 -0.1365
 5507TIP3    H116527   1.909   0.546   1.551  0.2051 -1.3015 -0.3741
 5507TIP3    H216528   2.007   0.582   1.660 -0.0786  0.4349 -0.6544
 5508TIP3   OH216529   4.227   1.079   4.548 -0.1221  0.1297  0.2532
 5508TIP3    H116530   4.221   1.121   4.463  1.8506  0.7093  0.3611
 5508TIP3    H216531   4.217   0.985   4.529 -0.8248  0.3395 -0.4507
 5509TIP3   OH216532   1.431   5.746   2.231  0.1546  0.3864  0.4650
 5509TIP3    H116533   1.449   5.778   2.320 -0.4801  0.5243  0.5507
 5509TIP3    H216534   1.433   5.825   2.177  0.2523  0.3416  0.4031
 5510TIP3   OH216535   3.821   2.680   4.195 -0.2266 -0.5592  1.0963
 5510TIP3    H116536   3.889   2.620   4.228  0.3201 -1.2495 -1.1221
 5510TIP3    H216537   3.855   2.710   4.110 -1.7631  0.7576  0.9050
 5511TIP3   OH216538   2.230   0.839   4.089  0.1552  0.3378  0.0733
 5511TIP3    H116539   2.209   0.874   4.002 -0.9840  1.0789  0.6160
 5511TIP3    H216540   2.181   0.895   4.150 -1.9128 -2.2323  1.0170
 5512TIP3   OH216541   3.809   3.427   0.216 -0.0268 -0.3185  0.1843
 5512TIP3    H116542   3.854   3.502   0.254  0.7577 -0.5766 -0.1971
 5512TIP3    H216543   3.874   3.356   0.219 -1.1109 -1.2939  1.5302
 5513TIP3   OH216544   4.487   4.443   2.970  0.0747 -0.2819  0.4597
 5513TIP3    H116545   4.465   4.437   3.063  0.2625 -1.2116  0.4455
 5513TIP3    H216546   4.504   4.353   2.943  2.1720  0.1930  0.0363
 5514TIP3   OH216547   3.533   2.074   2.124  0.1338 -0.0802 -0.1419
 5514TIP3    H116548   3.468   2.107   2.061  1.9178  0.6102 -1.7238
 5514TIP3    H216549   3.544   2.146   2.186 -2.6786 -1.2886  1.9398
 5515TIP3   OH216550   3.712   5.464   4.870  0.5192  0.1289 -0.1431
 5515TIP3    H116551   3.675   5.467   4.781 -2.3508 -0.1132  0.9385
 5515TIP3    H216552   3.743   5.374   4.880 -1.6202 -0.6551 -0.0498
 5516TIP3   OH216553   3.342   3.624   2.349  0.1565  0.2124  0.5115
 5516TIP3    H116554   3.376   3.708   2.380  1.2923 -0.2583  0.5980
 5516TIP3    H216555   3.349   3.565   2.424 -0.2245 -0.0753  0.3303
 5517TIP3   OH216556   4.423   4.159   0.971  0.0444 -0.2183  0.8163
 5517TIP3    H116557   4.476   4.229   0.931 -1.6918  0.9742  0.4761
 5517TIP3    H216558   4.416   4.184   1.063  1.4118 -1.2718  1.2334
 5518TIP3   OH216559   5.805   4.876   2.816  0.6614 -0.1984 -0.3418
 5518TIP3    H116560   5.818   4.969   2.838  4.0676 -0.4606 -0.6366
 5518TIP3    H216561   5.796   4.875   2.721  1.2136 -0.1900 -0.3980
 5519TIP3   OH216562   2.103   3.602   3.422 -0.3302  0.2051 -0.4375
 5519TIP3    H116563   2.105   3.649   3.339 -2.3862  0.7481 -0.2328
 5519TIP3    H216564   2.140   3.516   3.402  0.5933  0.8306 -1.5449
 5520TIP3   OH216565   4.951   4.430   0.980  0.1609  0.1922 -0.0884
 5520TIP3    H116566   4.995   4.425   1.065 -1.7984 -1.6734  0.8970
 5520TIP3    H216567   4.969   4.345   0.939 -0.6177  0.2852 -0.6338
 5521TIP3   OH216568   5.498   2.683   1.182  0.3238  0.7574  0.3796
 5521TIP3    H116569   5.497   2.633   1.100 -1.4599  0.8496  0.2988
 5521TIP3    H216570   5.505   2.616   1.251 -1.0635  0.4352  0.2347
 5522TIP3   OH216571   6.324   2.530   3.243 -0.0681 -0.2390  0.2658
 5522TIP3    H116572   6.247   2.473   3.245  0.7699 -1.5023 -1.0975
 5522TIP3    H216573   6.394   2.475   3.277  0.9193 -0.3113 -1.7788
 5523TIP3   OH216574   0.149   0.453   4.461 -0.1890  0.2074  0.3487
 5523TIP3    H116575   0.124   0.376   4.410  0.6395  1.4351 -2.0248
 5523TIP3    H216576   0.216   0.497   4.409  1.1944  1.2473  2.8023
 5524TIP3   OH216577   0.118   4.634   3.150 -0.0045 -0.5186 -0.3757
 5524TIP3    H116578   0.077   4.548   3.141 -2.1705  0.5421 -1.3879
 5524TIP3    H216579   0.187   4.620   3.216 -1.2880 -2.6774  0.6488
 5525TIP3   OH216580   1.132   5.557   4.615  0.6236 -0.3874  0.1564
 5525TIP3    H116581   1.209   5.501   4.611  0.0066 -1.3282  1.0599
 5525TIP3    H216582   1.058   5.498   4.600 -0.1990 -0.2461  3.1041
 5526TIP3   OH216583   4.190   1.788   4.881 -0.6004 -0.1430 -0.0380
 5526TIP3    H116584   4.106   1.753   4.852 -0.5716  0.8878 -1.4475
 5526TIP3    H216585   4.168   1.871   4.924 -0.2744  0.2946 -0.7125
 5527TIP3   OH216586   5.405   2.875   0.748 -0.5279 -0.5149 -0.2507
 5527TIP3    H116587   5.479   2.836   0.794 -0.0724  1.4521  0.8433
 5527TIP3    H216588   5.328   2.828   0.781 -0.0167 -0.5045  1.0181
 5528TIP3   OH216589   3.077   0.403   2.583  0.0700 -0.9588  0.0157
 5528TIP3    H116590   3.164   0.421   2.619  0.0976 -1.1507  0.0457
 5528TIP3    H216591   3.092   0.341   2.512  0.3316  1.3916 -2.1340
 5529TIP3   OH216592   3.442   4.547   0.074  0.3307 -0.2197 -0.7624
 5529TIP3    H116593   3.387   4.619   0.105  0.2734 -0.3497 -0.5608
 5529TIP3    H216594   3.425   4.476   0.136  2.4047  0.4297  0.6392
 5530TIP3   OH216595   1.385   3.309   1.780  0.1783  0.0846 -0.0134
 5530TIP3    H116596   1.432   3.351   1.851 -0.6143 -0.2220  0.7077
 5530TIP3    H216597   1.300   3.284   1.818 -1.3371  2.2519 -1.7102
 5531TIP3   OH216598   3.378   2.801   4.718  0.3720  0.4329 -0.1744
 5531TIP3    H116599   3.472   2.818   4.722  0.2980  0.6355  1.8436
 5531TIP3    H216600   3.367   2.741   4.644  2.1965 -0.2575  0.0712
 5532TIP3   OH216601   2.537   2.073   5.186  0.7627  0.1883 -0.3588
 5532TIP3    H116602   2.535   1.988   5.142  0.6960  0.3109 -0.5929
 5532TIP3    H216603   2.455   2.075   5.237  1.6116 -0.6454  1.0907
 5533TIP3   OH216604   5.745   0.174   0.075 -0.3366  0.1335  0.8259
 5533TIP3    H116605   5.715   0.095   0.119 -1.1835  0.5699  1.0629
 5533TIP3    H216606   5.750   0.240   0.144  1.0896  0.1226  0.7713
 5534TIP3   OH216607   5.764   3.517   5.127 -0.3103 -0.7896 -0.1160
 5534TIP3    H116608   5.744   3.503   5.220 -1.6452 -0.6550 -0.3524
 5534TIP3    H216609   5.787   3.431   5.094 -0.6560 -0.9929  0.1653
 5535TIP3   OH216610   4.952   2.253   4.581  0.0095  0.3327  0.3239
 5535TIP3    H116611   4.990   2.166   4.588 -1.6740 -0.6419 -1.7253
 5535TIP3    H216612   5.026   2.313   4.596  1.8902 -1.4538 -1.2818
 5536TIP3   OH216613   0.401   5.851   0.332  0.4826 -0.1507 -0.0228
 5536TIP3    H116614   0.389   5.945   0.316  0.9017  0.2452  1.7734
 5536TIP3    H216615   0.413   5.844   0.427 -0.3350 -2.1183 -0.0140
 5537TIP3   OH216616   1.978   0.994   0.086 -0.0931 -0.1337  0.5746
 5537TIP3    H116617   2.056   0.958   0.127  0.1365 -0.0583  0.2117
 5537TIP3    H216618   1.993   0.982  -0.008 -0.6181 -0.3220  0.5151
 5538TIP3   OH216619   1.675   0.349   1.375 -0.3582  0.0205 -0.0508
 5538TIP3    H116620   1.616   0.413   1.336 -0.2370 -1.6446 -3.3794
 5538TIP3    H216621   1.618   0.292   1.426 -0.9092  0.9933  0.4461
 5539TIP3   OH216622   5.291   4.295   3.256 -0.4528  0.1958 -0.3231
 5539TIP3    H116623   5.247   4.213   3.234 -0.1799  0.2803 -1.1874
 5539TIP3    H216624   5.349   4.313   3.183 -0.5219  1.1740 -0.1602
 5540TIP3   OH216625   3.641   3.736   4.859  0.6071  0.1485  0.1506
 5540TIP3    H116626   3.639   3.828   4.833  1.4023  0.6247  1.6795
 5540TIP3    H216627   3.572   3.695   4.807  1.1344  1.3202 -1.5464
 5541TIP3   OH216628   0.882   2.775   3.183  0.2369 -0.1491  0.0124
 5541TIP3    H116629   0.830   2.769   3.264 -0.6515  0.6240 -0.4773
 5541TIP3    H216630   0.891   2.869   3.168  0.9876 -0.2891 -0.4226
 5542TIP3   OH216631   3.026   0.153   4.048 -0.4409 -0.1589 -0.3870
 5542TIP3    H116632   2.987   0.158   4.136  1.5013  1.9547  0.4673
 5542TIP3    H216633   3.062   0.065   4.043 -1.5412 -0.6830  0.4872
 5543TIP3   OH216634   2.482   3.945   3.187 -0.7055 -0.0108 -0.4380
 5543TIP3    H116635   2.406   3.989   3.150 -0.5331  0.7989  0.1376
 5543TIP3    H216636   2.470   3.853   3.164 -0.6527  0.4401 -2.3881
 5544TIP3   OH216637   3.665   4.752   3.625 -0.3701 -0.0371  0.5439
 5544TIP3    H116638   3.618   4.751   3.708  1.3369  0.8663  1.5805
 5544TIP3    H216639   3.724   4.828   3.632  0.6228 -0.6206 -1.0138
 5545TIP3   OH216640   1.068   5.492   5.082  0.1706  0.0439  0.3717
 5545TIP3    H116641   1.018   5.553   5.028  0.0192  0.3786  0.8867
 5545TIP3    H216642   1.141   5.544   5.117  1.3903 -0.6365 -1.0499
 5546TIP3   OH216643   0.703   1.524   2.003  0.2919 -0.2865  0.1747
 5546TIP3    H116644   0.655   1.525   1.920 -0.8850  1.4637  0.8153
 5546TIP3    H216645   0.635   1.536   2.070  1.0732 -2.7346  1.5381
 5547TIP3   OH216646   4.645   2.016   5.054  0.2794 -0.2789  0.0800
 5547TIP3    H116647   4.700   1.973   5.119  0.9568 -0.8282 -0.8253
 5547TIP3    H216648   4.567   1.962   5.047 -0.1995  0.2671  1.0614
 5548TIP3   OH216649   1.752   0.020   3.373  0.2223  0.1844  0.1660
 5548TIP3    H116650   1.727   0.061   3.456  0.0830 -0.9205  0.6899
 5548TIP3    H216651   1.794  -0.062   3.399 -0.0489 -0.2909 -0.8664
 5549TIP3   OH216652   0.339   3.018   4.635 -0.0785 -0.3752 -0.4150
 5549TIP3    H116653   0.391   2.967   4.697 -1.3742 -1.3744 -0.1176
 5549TIP3    H216654   0.276   2.956   4.599 -0.3093  0.5311 -1.6467
 5550TIP3   OH216655   1.043   2.747   1.785  0.5055  0.2108 -0.8621
 5550TIP3    H116656   1.132   2.733   1.816  0.5495  0.2417 -0.9738
 5550TIP3    H216657   1.013   2.660   1.759 -0.0148 -0.0508  0.5364
 5551TIP3   OH216658   1.862   1.791   2.693  0.0661 -0.3742 -0.4569
 5551TIP3    H116659   1.886   1.713   2.643 -2.6664 -1.4549 -0.2731
 5551TIP3    H216660   1.799   1.837   2.636 -1.9632 -0.8420  1.2920
 5552TIP3   OH216661   0.451   2.923   3.788 -0.0986  0.1438  0.7320
 5552TIP3    H116662   0.506   2.973   3.849 -0.0848  1.1929 -0.1079
 5552TIP3    H216663   0.406   2.990   3.737 -1.1260 -0.7146  0.4818
 5553TIP3   OH216664   3.247   0.502   1.977 -0.2002  0.0007 -0.4040
 5553TIP3    H116665   3.233   0.487   2.071  0.2387 -0.9200 -0.4768
 5553TIP3    H216666   3.195   0.435   1.934  0.2378 -0.0880 -0.8036
 5554TIP3   OH216667   6.054   0.018   1.682 -0.3279  0.1200  0.6033
 5554TIP3    H116668   6.097   0.049   1.602 -1.1696 -1.3045 -0.4567
 5554TIP3    H216669   6.014   0.096   1.719 -0.5413  0.7108 -0.7816
 5555TIP3   OH216670   4.974   2.016   3.314 -0.2918  0.3535 -0.1237
 5555TIP3    H116671   4.927   2.055   3.241 -1.4635 -0.1906  0.3128
 5555TIP3    H216672   4.924   2.041   3.392 -0.4591 -1.0639  0.2611
 5556TIP3   OH216673   2.097   4.164   2.269  0.4280  0.1807 -0.5013
 5556TIP3    H116674   2.059   4.238   2.223 -2.7577 -1.8959 -1.5300
 5556TIP3    H216675   2.062   4.169   2.357  1.7475  0.8824  0.0078
 5557TIP3   OH216676   2.532   4.221   4.376  0.4439  0.0409  0.2628
 5557TIP3    H116677   2.584   4.266   4.309 -0.2173  2.4483  1.2559
 5557TIP3    H216678   2.473   4.164   4.327  0.8904  0.7224 -1.1303
 5558TIP3   OH216679   0.194   5.175   0.844 -0.1805  0.0011  0.1016
 5558TIP3    H116680   0.263   5.127   0.799 -1.1838  0.6963 -2.3979
 5558TIP3    H216681   0.189   5.136   0.931  2.7989 -0.5712  0.1118
 5559TIP3   OH216682   2.108   2.740   0.283  0.2278 -0.3734 -0.1609
 5559TIP3    H116683   2.054   2.817   0.304  1.3206  0.2521  0.4718
 5559TIP3    H216684   2.110   2.737   0.188  0.6933  0.7827 -0.2040
 5560TIP3   OH216685   3.085   5.331   3.974  0.4954  0.3052 -0.5230
 5560TIP3    H116686   3.051   5.321   4.063  0.4415 -0.3475 -0.6092
 5560TIP3    H216687   3.071   5.423   3.953 -2.3326 -0.1459 -1.0022
 5561TIP3   OH216688   2.715   1.366   2.271  0.0772 -0.6246  0.2893
 5561TIP3    H116689   2.794   1.316   2.291  0.0051 -0.9227 -0.1611
 5561TIP3    H216690   2.727   1.449   2.317  0.6045 -0.7102  0.3136
 5562TIP3   OH216691   1.929   2.238   1.746 -0.1286  0.3375 -0.3248
 5562TIP3    H116692   1.993   2.234   1.676 -1.1541 -1.2260 -1.2197
 5562TIP3    H216693   1.844   2.227   1.702 -0.8164 -0.3932  1.1152
 5563TIP3   OH216694   3.406   1.398   2.171  0.1342 -0.4272 -0.4536
 5563TIP3    H116695   3.430   1.337   2.101 -1.3738 -0.0235 -1.3622
 5563TIP3    H216696   3.450   1.480   2.149 -2.0116  0.3579 -2.2022
 5564TIP3   OH216697   2.962   2.896   1.023 -0.4322 -0.4775  0.1977
 5564TIP3    H116698   2.929   2.806   1.022  1.2782 -1.1462 -0.3159
 5564TIP3    H216699   2.904   2.942   1.084 -2.5369 -1.4278 -0.9857
 5565TIP3   OH216700   5.687   4.983   5.048  0.0188 -0.7322  0.6595
 5565TIP3    H116701   5.661   5.074   5.056 -1.2958 -1.0969  0.6830
 5565TIP3    H216702   5.605   4.934   5.048  0.7394 -2.0353  2.2337
 5566TIP3   OH216703   2.661   4.093   3.294  0.1208 -0.4533  0.0897
 5566TIP3    H116704   2.589   4.049   3.247 -1.1467  0.0278  1.5084
 5566TIP3    H216705   2.652   4.062   3.384  0.9344  0.5920  0.5374
 5567TIP3   OH216706   0.691   0.760   3.051 -0.0865 -0.1934  0.5154
 5567TIP3    H116707   0.691   0.788   2.959  0.9947 -0.0304  0.5581
 5567TIP3    H216708   0.602   0.727   3.065 -0.5764  0.7062 -0.3079
 5568TIP3   OH216709   3.354   1.697   1.977  0.3626  0.4709  0.2598
 5568TIP3    H116710   3.425   1.681   2.041  1.9063 -2.0778 -1.8623
 5568TIP3    H216711   3.314   1.611   1.965  0.7840  0.6224 -2.8748
 5569TIP3   OH216712   1.363   0.296   0.884 -0.8063  0.0217 -0.3929
 5569TIP3    H116713   1.342   0.339   0.967 -1.5989  0.4282 -0.7920
 5569TIP3    H216714   1.311   0.343   0.819 -1.4307 -1.3115 -0.8902
 5570TIP3   OH216715   1.677   5.319   0.020 -0.1477  0.3074  0.1190
 5570TIP3    H116716   1.748   5.383   0.010  0.0476  0.0701 -0.0093
 5570TIP3    H216717   1.720   5.241   0.054 -0.3417  0.1533  0.0094
 5571TIP3   OH216718   5.812   0.973   0.899 -0.7893 -0.2785  0.4820
 5571TIP3    H116719   5.810   0.998   0.991  0.8301 -0.7187  0.6604
 5571TIP3    H216720   5.730   1.009   0.863 -1.5994 -0.3583  2.1300
 5572TIP3   OH216721   2.302   0.135   2.835 -0.8517 -0.2095 -0.2955
 5572TIP3    H116722   2.233   0.177   2.886  0.0217  1.0619 -0.1118
 5572TIP3    H216723   2.363   0.101   2.900  0.8619  2.4190 -0.3793
 5573TIP3   OH216724   0.031   0.788   0.837  0.5169 -0.2586  0.0130
 5573TIP3    H116725  -0.004   0.876   0.849 -2.1550 -1.0200 -1.4727
 5573TIP3    H216726   0.097   0.780   0.905 -1.6079  1.6661  2.5247
 5574TIP3   OH216727   4.481   1.276   2.427 -0.5494 -0.1332  0.3696
 5574TIP3    H116728   4.455   1.239   2.511 -1.9625 -1.5748 -0.6633
 5574TIP3    H216729   4.535   1.208   2.386  0.1139  0.5528  0.0643
 5575TIP3   OH216730   5.368   0.581   0.352 -0.4434 -0.3970 -0.5418
 5575TIP3    H116731   5.348   0.672   0.373  0.2610 -0.8950  3.0053
 5575TIP3    H216732   5.286   0.546   0.315 -1.3838  1.1683 -0.0295
 5576TIP3   OH216733   5.381   2.101   2.991 -0.1922  0.0635 -0.6420
 5576TIP3    H116734   5.291   2.106   2.958 -0.4814  0.4442  0.1631
 5576TIP3    H216735   5.380   2.025   3.050  0.1557 -0.2536 -1.0459
 5577TIP3   OH216736   5.202   2.854   0.429 -0.5124  0.0553  0.1296
 5577TIP3    H116737   5.186   2.775   0.481 -1.0814  0.1837  0.1576
 5577TIP3    H216738   5.133   2.915   0.456 -0.4094  0.3610 -0.2872
 5578TIP3   OH216739   4.533   2.649   0.565  0.7382 -0.8257  0.1826
 5578TIP3    H116740   4.611   2.593   0.565  1.8746  0.6671 -1.3773
 5578TIP3    H216741   4.509   2.657   0.473 -0.2621  0.0819  0.4994
 5579TIP3   OH216742   4.308   1.301   4.362  0.1993 -0.3355 -0.3626
 5579TIP3    H116743   4.359   1.358   4.419 -0.9245 -0.6903  1.0708
 5579TIP3    H216744   4.310   1.345   4.276  1.8846  0.2382 -0.0648
 5580TIP3   OH216745   3.258   3.037   4.824 -0.1330  0.2465  0.0850
 5580TIP3    H116746   3.324   2.986   4.777 -1.3602  0.1387 -1.5873
 5580TIP3    H216747   3.303   3.118   4.846  0.6730  0.0411 -0.7268
 5581TIP3   OH216748   3.572   2.005   3.426 -0.2412 -0.0999 -0.1338
 5581TIP3    H116749   3.501   1.988   3.364 -1.4804  0.9986  0.9163
 5581TIP3    H216750   3.534   2.065   3.490  1.3756 -0.2051  0.9864
 5582TIP3   OH216751   3.381   1.579   0.309  0.1322  0.2721 -0.4765
 5582TIP3    H116752   3.460   1.548   0.353 -0.1003 -0.5345 -0.6236
 5582TIP3    H216753   3.332   1.625   0.378 -0.8884 -2.1451  0.5299
 5583TIP3   OH216754   1.517   0.960   0.476 -0.1143  0.0997 -0.0003
 5583TIP3    H116755   1.428   0.927   0.469  0.3987 -1.4624  0.3472
 5583TIP3    H216756   1.572   0.882   0.469  1.2177  1.0078 -0.0344
 5584TIP3   OH216757   3.758   1.789   4.467 -0.3102  0.0243 -0.0769
 5584TIP3    H116758   3.700   1.799   4.543  0.5292 -1.8951  0.8722
 5584TIP3    H216759   3.703   1.747   4.401 -0.0490 -1.8707  0.8504
 5585TIP3   OH216760   2.704   5.640   4.529 -0.1480  0.7753  0.1037
 5585TIP3    H116761   2.702   5.726   4.570  0.0255  0.1655  1.4511
 5585TIP3    H216762   2.637   5.589   4.575 -1.2886  0.5957 -1.6733
 5586TIP3   OH216763   2.164   3.847   0.582 -0.5371  0.4298  0.1263
 5586TIP3    H116764   2.117   3.813   0.506 -0.7748  1.3597 -0.1582
 5586TIP3    H216765   2.240   3.789   0.591  0.0531  0.8857 -1.4608
 5587TIP3   OH216766   4.558   1.980   4.336 -0.2315 -0.2299  0.3988
 5587TIP3    H116767   4.501   1.925   4.283  0.1267 -0.3177  0.0935
 5587TIP3    H216768   4.602   2.036   4.272  1.6226 -1.6177  0.3803
 5588TIP3   OH216769   0.383   1.857   1.142  0.4439 -0.0581 -0.8624
 5588TIP3    H116770   0.355   1.875   1.232  0.6501  1.5082 -1.0721
 5588TIP3    H216771   0.364   1.764   1.128  1.1814 -0.5317  1.0581
 5589TIP3   OH216772   4.948   3.806   2.694 -0.0927  0.1925  0.0454
 5589TIP3    H116773   4.890   3.731   2.698  0.9480 -0.7846 -1.9931
 5589TIP3    H216774   4.896   3.875   2.652 -0.0284 -0.4471 -1.1048
 5590TIP3   OH216775   5.301   3.122   0.683 -0.2444 -0.0000 -0.1929
 5590TIP3    H116776   5.350   3.040   0.689 -1.0971 -0.6219 -1.4677
 5590TIP3    H216777   5.209   3.096   0.692 -0.5055  0.8592 -0.2872
 5591TIP3   OH216778   4.287   2.414   4.527  0.7909  0.1609  0.3194
 5591TIP3    H116779   4.263   2.486   4.468 -0.5752  1.9041  2.8421
 5591TIP3    H216780   4.349   2.362   4.476 -0.3299  1.4884 -2.6680
 5592TIP3   OH216781   0.486   2.928   2.263  0.2898 -0.3729 -0.9023
 5592TIP3    H116782   0.493   2.977   2.345 -0.2864 -0.2877 -0.9057
 5592TIP3    H216783   0.434   2.851   2.284  1.1189 -0.9548 -0.9202
 5593TIP3   OH216784   6.060   2.438   2.913 -0.2576 -0.5237 -0.1206
 5593TIP3    H116785   5.988   2.459   2.973 -0.9617  2.4162 -1.7792
 5593TIP3    H216786   6.056   2.344   2.902 -1.1580 -0.9807  3.0487
 5594TIP3   OH216787   5.990   1.168   1.769 -0.5317  0.2065  0.2060
 5594TIP3    H116788   5.941   1.086   1.765  0.7918 -0.5510 -1.4072
 5594TIP3    H216789   6.014   1.186   1.679  2.7738  0.1431  0.9590
 5595TIP3   OH216790   5.426   4.967   4.593 -0.0546  0.3173  0.4912
 5595TIP3    H116791   5.511   4.971   4.638  0.0678  1.5595  0.1769
 5595TIP3    H216792   5.444   4.997   4.504 -0.6516 -0.3449  0.1366
 5596TIP3   OH216793   1.727   5.670   2.056  0.6301 -0.0771  0.2402
 5596TIP3    H116794   1.638   5.703   2.040  0.9141  0.0387 -1.3075
 5596TIP3    H216795   1.743   5.609   1.983  1.3079 -1.1889  1.2917
 5597TIP3   OH216796   4.233   0.648   1.453  0.6432 -0.2178  0.0867
 5597TIP3    H116797   4.217   0.566   1.405 -3.6423  0.8578 -0.7444
 5597TIP3    H216798   4.234   0.622   1.545 -0.6320 -1.2303 -0.1593
 5598TIP3   OH216799   1.645   0.114   2.392  0.1108  0.3518  0.7859
 5598TIP3    H116800   1.686   0.164   2.321  0.4212 -0.0387  0.6878
 5598TIP3    H216801   1.556   0.098   2.361 -0.1274  1.2064  1.0006
 5599TIP3   OH216802   2.991   4.435   2.816 -0.0870 -0.8724 -0.6728
 5599TIP3    H116803   3.040   4.412   2.737 -0.4585 -1.3868 -0.7620
 5599TIP3    H216804   2.966   4.350   2.854 -1.6434 -0.6354 -1.0976
 5600TIP3   OH216805   3.406   4.938   0.659  0.1576 -0.3419  0.1632
 5600TIP3    H116806   3.353   4.914   0.582 -1.0094 -0.8123  1.0813
 5600TIP3    H216807   3.412   4.857   0.709  2.9110 -0.6576 -0.5289
 5601TIP3   OH216808   0.033   3.108   4.577  0.4091  0.2796 -0.0461
 5601TIP3    H116809  -0.055   3.136   4.555 -0.2198 -1.2851  0.3248
 5601TIP3    H216810   0.055   3.157   4.656  0.3266  1.4778 -0.7411
 5602TIP3   OH216811   5.157   2.269   1.738 -0.2527  0.1788 -0.0493
 5602TIP3    H116812   5.223   2.233   1.679  0.3274  0.8619  0.1638
 5602TIP3    H216813   5.083   2.290   1.681  0.3088  0.8490 -0.5603
 5603TIP3   OH216814   4.852   1.341   2.289  0.1101  0.2129  0.3549
 5603TIP3    H116815   4.944   1.335   2.315  0.2275 -0.8493 -0.2537
 5603TIP3    H216816   4.816   1.254   2.306 -0.5806  0.3924 -0.1479
 5604TIP3   OH216817   2.163   4.172   3.767 -0.0268  0.3235 -0.4125
 5604TIP3    H116818   2.218   4.247   3.791 -0.4745  0.2046  1.0624
 5604TIP3    H216819   2.208   4.132   3.693  0.0477  2.2462 -1.4730
 5605TIP3   OH216820   4.555   1.356   4.584 -0.5478 -0.4533 -0.2616
 5605TIP3    H116821   4.621   1.354   4.516 -0.9139 -0.7603 -0.6156
 5605TIP3    H216822   4.565   1.273   4.630  0.9731  0.5481  1.3128
 5606TIP3   OH216823   0.562   5.804   2.011 -0.5661  0.0928  0.5178
 5606TIP3    H116824   0.517   5.790   1.928  1.9855  3.4395 -1.6785
 5606TIP3    H216825   0.504   5.861   2.061 -1.2281 -0.3152  0.2248
 5607TIP3   OH216826   3.365   5.289   2.075  0.1709 -0.2096 -0.3743
 5607TIP3    H116827   3.336   5.378   2.094 -0.9357 -0.1899 -1.9240
 5607TIP3    H216828   3.448   5.300   2.028 -0.7354  0.1443 -1.9783
 5608TIP3   OH216829   3.826   3.354   4.058  0.5206 -0.5970  0.6895
 5608TIP3    H116830   3.916   3.385   4.075  0.4112  0.0181  0.2033
 5608TIP3    H216831   3.780   3.369   4.140  0.4304  0.7303  0.4172
 5609TIP3   OH216832   0.519   1.877   2.467  0.3385 -0.6395 -0.3920
 5609TIP3    H116833   0.444   1.923   2.427  0.4576 -1.2429 -1.3413
 5609TIP3    H216834   0.492   1.861   2.557 -0.7314 -0.9350 -0.7489
 5610TIP3   OH216835   5.855   3.886   4.677 -0.2956  0.2441 -0.6710
 5610TIP3    H116836   5.945   3.854   4.679 -0.4892 -0.2788  0.1114
 5610TIP3    H216837   5.817   3.844   4.600  0.6459  1.9707 -2.1604
 5611TIP3   OH216838   2.425   5.542   3.681 -0.4521 -0.0390  0.3944
 5611TIP3    H116839   2.517   5.531   3.707 -0.2606  0.3080 -0.1261
 5611TIP3    H216840   2.381   5.466   3.718  0.0081 -0.1027  0.8288
 5612TIP3   OH216841   4.090   5.270   3.285  0.1628  0.5183 -0.2052
 5612TIP3    H116842   4.037   5.335   3.239 -1.2014  0.2044  0.8571
 5612TIP3    H216843   4.083   5.295   3.377 -0.2539 -1.0402  0.2034
 5613TIP3   OH216844   4.063   3.434   5.142  0.5427  0.0244 -0.1595
 5613TIP3    H116845   4.065   3.529   5.146  1.2387  0.0069  0.0958
 5613TIP3    H216846   3.980   3.413   5.100  0.0080  0.7215  0.5259
 5614TIP3   OH216847   1.573   4.949   1.950 -0.1216  0.0303 -0.1928
 5614TIP3    H116848   1.546   4.978   1.863 -0.2924  0.2270 -0.0739
 5614TIP3    H216849   1.564   5.027   2.005  1.5255  0.3704 -0.3287
 5615TIP3   OH216850   3.809   4.061   1.456  0.0432  1.0585 -0.0825
 5615TIP3    H116851   3.807   4.154   1.481 -0.0703  1.4001 -1.3236
 5615TIP3    H216852   3.872   4.057   1.384  0.3248  0.0976  0.2003
 5616TIP3   OH216853   5.498   4.373   4.936 -0.7203 -0.3375  0.0444
 5616TIP3    H116854   5.586   4.395   4.906 -0.7437 -0.8269 -0.4026
 5616TIP3    H216855   5.469   4.450   4.985 -0.3367  0.1297 -0.4511
 5617TIP3   OH216856   3.144   5.201   3.750 -0.5904  0.2912 -0.2377
 5617TIP3    H116857   3.132   5.250   3.831 -1.7729 -1.6686  0.8600
 5617TIP3    H216858   3.239   5.185   3.745 -0.2737  2.0245 -0.2804
 5618TIP3   OH216859   1.564   1.672   1.039 -0.0178 -0.4817 -0.2238
 5618TIP3    H116860   1.609   1.678   1.123 -1.3108  1.6666  0.3859
 5618TIP3    H216861   1.473   1.652   1.062 -0.3850  0.1438 -1.0954
 5619TIP3   OH216862   5.773   0.342   2.601 -0.5512 -0.8121  0.1659
 5619TIP3    H116863   5.824   0.296   2.667 -1.3998 -0.9716  0.7333
 5619TIP3    H216864   5.835   0.361   2.531  0.7993  0.7833  1.6856
 5620TIP3   OH216865   5.880   0.239   1.460 -0.4701  0.0539 -0.3150
 5620TIP3    H116866   5.829   0.316   1.434  0.2829  0.7604  0.2337
 5620TIP3    H216867   5.878   0.182   1.383  1.1276  1.7814 -1.7576
 5621TIP3   OH216868   3.691   3.613   1.516  0.5111 -0.1839 -0.2996
 5621TIP3    H116869   3.598   3.609   1.494  0.4901  0.3517 -0.3077
 5621TIP3    H216870   3.698   3.684   1.579  1.0419  0.3709 -0.9614
 5622TIP3   OH216871   1.955   3.525   0.344 -0.0247 -0.1414  0.2232
 5622TIP3    H116872   1.916   3.448   0.385  1.8073 -1.9013 -1.0850
 5622TIP3    H216873   1.888   3.557   0.283 -1.1834 -0.0473  1.5119
 5623TIP3   OH216874   4.050   5.714   4.604  0.1422 -0.3498  0.0833
 5623TIP3    H116875   3.978   5.661   4.640  1.6595 -1.9305  0.9775
 5623TIP3    H216876   4.110   5.650   4.565  2.0464  0.6676  1.1563
 5624TIP3   OH216877   4.443   5.014   4.692  0.2121 -0.3496  0.3591
 5624TIP3    H116878   4.432   5.081   4.760  1.8813  0.2955  0.0515
 5624TIP3    H216879   4.491   4.943   4.736  2.1780  0.4877 -0.3261
 5625TIP3   OH216880   1.754   3.468   2.648 -0.2456 -0.4431 -0.1072
 5625TIP3    H116881   1.777   3.494   2.737 -1.8361 -0.2131  0.2590
 5625TIP3    H216882   1.777   3.375   2.643 -0.9258 -0.6696  0.8210
 5626TIP3   OH216883   6.268   3.743   1.609 -0.2688  0.0896 -0.0730
 5626TIP3    H116884   6.304   3.821   1.566 -2.0902  1.2840  0.4849
 5626TIP3    H216885   6.261   3.767   1.701  0.1926 -1.1746  0.3202
 5627TIP3   OH216886   4.661   2.474   1.520  0.2893 -0.7591  0.0533
 5627TIP3    H116887   4.629   2.483   1.610  0.0910  3.5520 -0.2625
 5627TIP3    H216888   4.756   2.467   1.530  0.2710 -0.3033  0.6429
 5628TIP3   OH216889   5.751   4.873   3.385  0.1197 -0.6046  0.5540
 5628TIP3    H116890   5.837   4.835   3.367  0.8033  1.2166 -0.2585
 5628TIP3    H216891   5.709   4.811   3.444  1.0941 -2.6856 -0.8149
 5629TIP3   OH216892   2.425   1.952   3.276 -0.1664  0.5654 -0.2625
 5629TIP3    H116893   2.389   1.971   3.362 -0.5558  0.6784 -0.4452
 5629TIP3    H216894   2.455   2.037   3.243  0.2122  0.4819 -0.1374
 5630TIP3   OH216895   5.275   5.876   0.285 -0.1368  0.3700  0.0482
 5630TIP3    H116896   5.301   5.956   0.238 -0.2476  1.5475  1.8691
 5630TIP3    H216897   5.180   5.878   0.285 -0.1436  0.0513 -0.1934
 5631TIP3   OH216898   0.103   2.457   0.134 -0.0080  0.0628 -0.2101
 5631TIP3    H116899   0.179   2.508   0.158 -1.3405  1.3880  1.4195
 5631TIP3    H216900   0.121   2.369   0.167  0.9692  0.2652 -0.1898
 5632TIP3   OH216901   1.366   5.576   0.906  0.2730  0.4279 -0.0518
 5632TIP3    H116902   1.370   5.650   0.967  1.4216  0.0217  0.4100
 5632TIP3    H216903   1.274   5.553   0.902 -0.0158  1.4450  0.3305
 5633TIP3   OH216904   1.437   2.559   2.630  0.5481  0.1781  0.1733
 5633TIP3    H116905   1.435   2.465   2.649  0.1388  0.1724  0.1274
 5633TIP3    H216906   1.478   2.565   2.544  0.4120  0.0231  0.0949
 5634TIP3   OH216907   3.108   1.741   3.761 -0.1776 -0.0480 -0.1138
 5634TIP3    H116908   3.198   1.772   3.746 -0.4476  0.5203 -0.5893
 5634TIP3    H216909   3.053   1.805   3.717 -0.8900  0.3373  1.3125
 5635TIP3   OH216910   0.641   3.695   0.993 -0.0405  0.0723 -0.0384
 5635TIP3    H116911   0.583   3.680   0.919  1.0580 -0.3549 -0.8318
 5635TIP3    H216912   0.631   3.617   1.048 -0.6614  0.2769  0.1513
 5636TIP3   OH216913   2.134   2.086   3.706 -0.0532 -0.4995  0.5785
 5636TIP3    H116914   2.075   2.160   3.716  0.5496  0.1519 -0.4487
 5636TIP3    H216915   2.221   2.123   3.718  0.2921 -0.9119 -0.5249
 5637TIP3   OH216916   5.734   1.911   3.083  0.2987 -0.4214  0.0142
 5637TIP3    H116917   5.693   1.880   3.164  1.1035 -0.7505  0.3118
 5637TIP3    H216918   5.674   1.884   3.014 -0.4374 -0.0708  0.5013
 5638TIP3   OH216919   2.693   2.138   1.168 -0.1900  0.2296  0.7024
 5638TIP3    H116920   2.664   2.181   1.248 -3.1220  1.3879 -0.8337
 5638TIP3    H216921   2.668   2.198   1.097  2.2748 -0.7330 -1.1470
 5639TIP3   OH216922   3.205   4.922   4.687 -0.5012  0.5234 -0.1753
 5639TIP3    H116923   3.178   4.831   4.699 -1.6177  0.8607 -0.0111
 5639TIP3    H216924   3.282   4.932   4.744 -0.5164 -0.2443 -0.0127
 5640TIP3   OH216925   4.525   5.187   2.790 -0.0935 -0.4571  0.0793
 5640TIP3    H116926   4.467   5.187   2.714 -0.2180 -1.7525  0.1411
 5640TIP3    H216927   4.610   5.213   2.756 -0.4230  0.2207 -0.2478
 5641TIP3   OH216928   0.914   3.181   5.169  0.1891 -0.7624 -0.8527
 5641TIP3    H116929   0.953   3.203   5.085  0.3977  0.4536 -0.4554
 5641TIP3    H216930   0.964   3.231   5.233 -2.3432  1.3549 -0.3775
 5642TIP3   OH216931   2.518   0.880   2.704  0.0510  0.5319 -0.1005
 5642TIP3    H116932   2.510   0.871   2.609 -0.1328 -2.8224  0.1322
 5642TIP3    H216933   2.612   0.877   2.721  0.1294  1.9192 -0.1874
 5643TIP3   OH216934   5.806   4.554   0.137  0.2750 -0.1408  0.1280
 5643TIP3    H116935   5.838   4.498   0.066 -2.0001 -2.6056  0.8882
 5643TIP3    H216936   5.781   4.635   0.093 -0.3154 -1.2950 -1.8059
 5644TIP3   OH216937   1.958   4.977   0.598 -0.3095  0.1874 -0.0544
 5644TIP3    H116938   2.030   4.914   0.590 -0.7697 -0.3510 -0.0459
 5644TIP3    H216939   1.905   4.942   0.670 -1.1264  0.0284 -0.7245
 5645TIP3   OH216940   1.369   0.572   1.767 -0.3098 -0.1594 -0.1541
 5645TIP3    H116941   1.459   0.564   1.737 -0.3050 -1.0263  0.0608
 5645TIP3    H216942   1.376   0.586   1.862 -0.4061 -0.4440 -0.1050
 5646TIP3   OH216943   5.957   1.962   1.648  0.5730  0.2462 -0.6253
 5646TIP3    H116944   5.992   2.050   1.640  0.9857  0.3318  1.4917
 5646TIP3    H216945   5.892   1.968   1.718 -0.9254 -0.7281 -1.8451
 5647TIP3   OH216946   5.244   4.796   3.135  0.4808  0.6971  0.3213
 5647TIP3    H116947   5.205   4.883   3.131  0.4743  0.6933  0.2957
 5647TIP3    H216948   5.335   4.809   3.107  0.4503  0.6777  0.2116
 5648TIP3   OH216949   4.341   0.925   3.101  0.2025  0.3706 -0.0144
 5648TIP3    H116950   4.354   0.849   3.045 -2.3269 -0.5703  0.5533
 5648TIP3    H216951   4.295   0.988   3.046 -0.3111  0.3224  0.3549
 5649TIP3   OH216952   3.782   5.274   1.380 -0.4789 -0.4225  0.1820
 5649TIP3    H116953   3.704   5.249   1.330  0.6054 -0.5851 -1.5051
 5649TIP3    H216954   3.853   5.272   1.316  0.6439  1.3401  1.2985
 5650TIP3   OH216955   5.524   3.914   2.557 -0.0961 -0.1513  0.8335
 5650TIP3    H116956   5.446   3.955   2.594 -0.0730  1.0644 -0.3688
 5650TIP3    H216957   5.511   3.920   2.462  1.1385 -0.5683  0.6218
 5651TIP3   OH216958   0.337   3.344   0.855 -0.2188 -0.3782  0.6865
 5651TIP3    H116959   0.281   3.268   0.872 -0.4436  0.0265  1.8398
 5651TIP3    H216960   0.297   3.415   0.904 -1.7395  1.3210 -2.6685
 5652TIP3   OH216961   6.212   2.837   2.039  0.6231 -0.1256  0.3664
 5652TIP3    H116962   6.224   2.767   1.975 -1.4309 -1.2293  1.0798
 5652TIP3    H216963   6.238   2.917   1.993 -1.7544 -0.7157 -2.3074
 5653TIP3   OH216964   2.845   5.009   2.752 -0.3406 -0.6872  0.0674
 5653TIP3    H116965   2.791   4.931   2.739  0.7600 -1.3809 -0.5176
 5653TIP3    H216966   2.787   5.082   2.732 -0.9526 -1.4328 -0.9635
 5654TIP3   OH216967   5.317   4.914   0.480  0.0041 -0.1062 -0.2312
 5654TIP3    H116968   5.308   4.994   0.427 -2.5593  0.4666  0.9396
 5654TIP3    H216969   5.266   4.848   0.433  1.2143 -0.7998 -0.6194
 5655TIP3   OH216970   2.630   1.033   1.258  0.4190 -0.5572 -0.7481
 5655TIP3    H116971   2.654   0.949   1.296  1.8848  0.7570  1.5154
 5655TIP3    H216972   2.554   1.062   1.310  0.3803 -0.1751 -1.0149
 5656TIP3   OH216973   1.420   1.553   2.438  0.7399 -0.8723 -0.6637
 5656TIP3    H116974   1.419   1.585   2.348 -2.5089  0.2537 -0.3592
 5656TIP3    H216975   1.328   1.557   2.466  1.2385 -3.5801  1.8949
 5657TIP3   OH216976   4.965   1.950   2.819 -0.0016  0.2006 -0.0336
 5657TIP3    H116977   4.880   1.993   2.812  1.2972  2.8077 -1.0403
 5657TIP3    H216978   4.980   1.912   2.732 -0.4022 -0.9109  0.3590
 5658TIP3   OH216979   1.762   2.060   3.956  0.3564 -0.2358 -0.1768
 5658TIP3    H116980   1.853   2.046   3.981  0.2298 -0.9377 -0.1100
 5658TIP3    H216981   1.727   1.973   3.940  0.0059  0.1001 -1.3245
 5659TIP3   OH216982   4.352   5.846   2.485 -0.2506 -0.1226  0.5777
 5659TIP3    H116983   4.397   5.807   2.559  1.5080 -0.3329 -0.5316
 5659TIP3    H216984   4.404   5.924   2.464  0.4125 -1.0561 -1.5264
 5660TIP3   OH216985   2.730   1.812   4.170  0.2928  0.0810  0.2882
 5660TIP3    H116986   2.776   1.752   4.230  1.3457  0.3811 -0.1806
 5660TIP3    H216987   2.681   1.870   4.227  0.8462  0.0210  0.8442
 5661TIP3   OH216988   4.241   4.409  -0.003 -0.4472  0.0353 -0.1833
 5661TIP3    H116989   4.314   4.408   0.059  0.2951 -1.2620 -1.0263
 5661TIP3    H216990   4.218   4.316  -0.016 -1.5910  0.3622 -0.6927
 5662TIP3   OH216991   6.279   4.414   3.638  0.0353 -0.2188  0.0352
 5662TIP3    H116992   6.213   4.480   3.659  1.1998  1.0234 -0.0685
 5662TIP3    H216993   6.334   4.409   3.716  2.0517  1.5602 -1.1582
 5663TIP3   OH216994   4.139   2.767   1.708 -0.0737 -0.2600 -0.1538
 5663TIP3    H116995   4.050   2.796   1.729  0.2616  1.3434 -0.7564
 5663TIP3    H216996   4.165   2.823   1.635  0.3556 -2.7190 -1.9883
 5664TIP3   OH216997   2.448   5.324   3.284 -0.2151  0.6119 -0.1077
 5664TIP3    H116998   2.436   5.297   3.193 -0.8480 -0.7652  0.3530
 5664TIP3    H216999   2.541   5.308   3.302 -0.6008 -1.6085  0.2081
 5665TIP3   OH217000   0.177   4.881   0.101  0.3129  0.1660 -0.2403
 5665TIP3    H117001   0.161   4.972   0.077 -0.9196 -0.3220 -1.4263
 5665TIP3    H217002   0.180   4.835   0.017  0.0612 -1.0017  0.3706
 5666TIP3   OH217003   0.203   1.661   2.818 -0.3568 -0.1951 -0.2425
 5666TIP3    H117004   0.149   1.691   2.745 -1.4530  0.2573  0.7177
 5666TIP3    H217005   0.160   1.580   2.847  0.2871 -0.5710 -0.3265
 5667TIP3   OH217006   1.096   3.021   3.842 -0.3556 -0.2705 -0.3871
 5667TIP3    H117007   1.119   2.975   3.761  0.5626 -0.5019 -0.0140
 5667TIP3    H217008   1.052   2.955   3.896 -1.3003 -0.0146 -0.8390
 5668TIP3   OH217009   2.336   4.156   0.257 -0.1163  0.0643 -0.1567
 5668TIP3    H117010   2.261   4.115   0.215 -0.8803 -0.5419  1.7307
 5668TIP3    H217011   2.308   4.173   0.347  1.8352  0.2794  0.4620
 5669TIP3   OH217012   1.254   0.960   2.443 -0.1605 -0.1303 -0.0836
 5669TIP3    H117013   1.217   1.011   2.515 -0.8691 -1.0436  0.2280
 5669TIP3    H217014   1.179   0.910   2.409  0.7436 -1.9369  0.4825
 5670TIP3   OH217015   4.398   1.271   5.175  0.2275 -0.4212  0.2192
 5670TIP3    H117016   4.353   1.280   5.091  2.6500  0.6452 -1.0515
 5670TIP3    H217017   4.336   1.307   5.238 -1.2089 -0.1834 -1.2454
 5671TIP3   OH217018   4.929   3.722   1.065  0.1269  0.1792  0.1734
 5671TIP3    H117019   4.916   3.809   1.029  1.8007  0.5246  0.3254
 5671TIP3    H217020   4.922   3.733   1.159 -0.7329 -0.0689  0.1482
 5672TIP3   OH217021   1.786   1.089   1.431  0.6014 -0.3516 -0.4758
 5672TIP3    H117022   1.845   1.151   1.388 -0.5479  1.9177  1.0272
 5672TIP3    H217023   1.715   1.143   1.465 -0.8391 -2.6152  0.3486
 5673TIP3   OH217024   1.760   3.520   1.404 -0.3276 -0.5252 -0.0703
 5673TIP3    H117025   1.681   3.571   1.386  0.9254  1.8574  0.6609
 5673TIP3    H217026   1.780   3.477   1.320 -0.7663  1.2412 -1.1431
 5674TIP3   OH217027   2.934   1.654   4.357  0.3698 -0.6385  0.0698
 5674TIP3    H117028   3.003   1.597   4.322  0.1248  0.9619 -3.4075
 5674TIP3    H217029   2.852   1.613   4.329  0.1756  0.8886 -1.7735
 5675TIP3   OH217030   5.189   3.646   0.983  0.7333 -0.0263 -0.0835
 5675TIP3    H117031   5.209   3.696   0.904  2.0195  0.6862  0.6714
 5675TIP3    H217032   5.099   3.670   1.005  1.8189  3.3856  1.2249
 5676TIP3   OH217033   0.792   3.015   1.088  0.3859  0.0226 -0.4168
 5676TIP3    H117034   0.746   3.054   1.013 -1.7988  1.0642  1.3068
 5676TIP3    H217035   0.876   2.987   1.053 -1.4017 -1.7665 -3.7900
 5677TIP3   OH217036   0.391   4.901   4.954 -0.0846 -0.3255 -0.4262
 5677TIP3    H117037   0.479   4.864   4.946 -0.1064 -1.3516  2.5033
 5677TIP3    H217038   0.334   4.834   4.915  0.3314 -0.4154 -0.8870
 5678TIP3   OH217039   3.978   3.592   0.368  0.3283 -0.3248  0.3522
 5678TIP3    H117040   4.060   3.548   0.387  0.9440  1.0058  0.8928
 5678TIP3    H217041   3.995   3.684   0.387 -1.0733  0.0810 -0.2219
 5679TIP3   OH217042   2.123   3.434   1.026  0.1320  0.2499 -0.2599
 5679TIP3    H117043   2.180   3.358   1.035  0.3061  0.3719 -0.3300
 5679TIP3    H217044   2.082   3.422   0.939 -0.5582 -0.2480  0.1175
 5680TIP3   OH217045   5.443   3.400   1.845 -0.0861  0.7270  0.5649
 5680TIP3    H117046   5.529   3.398   1.887 -0.0271  1.7373  0.5259
 5680TIP3    H217047   5.390   3.339   1.895  1.0012 -0.8994 -0.1974
 5681TIP3   OH217048   4.222   1.161   3.032 -0.0820 -0.2955  0.1178
 5681TIP3    H117049   4.294   1.215   3.063  0.3115 -1.0953  0.6643
 5681TIP3    H217050   4.171   1.217   2.974 -0.7199  1.2346  2.0431
 5682TIP3   OH217051   1.956   0.697   1.065  0.3065 -0.4055  0.2818
 5682TIP3    H117052   2.000   0.626   1.018 -0.3492 -1.2839  0.9500
 5682TIP3    H217053   1.864   0.689   1.039  0.2749  0.3957  0.1362
 5683TIP3   OH217054   4.450   2.860   1.002  0.3395  0.3414 -0.0643
 5683TIP3    H117055   4.538   2.889   0.979 -0.3476  0.8205 -2.3479
 5683TIP3    H217056   4.464   2.783   1.058  2.1652  1.2432  0.8250
 5684TIP3   OH217057   2.751   0.650   4.867  0.0692 -0.7600 -0.6594
 5684TIP3    H117058   2.728   0.741   4.846  1.2254 -0.2357  0.2627
 5684TIP3    H217059   2.676   0.618   4.919  0.4398  0.2593  0.5422
 5685TIP3   OH217060   3.058   4.142   4.815 -0.3034  0.7100 -0.1268
 5685TIP3    H117061   3.022   4.198   4.747 -0.0897 -0.9115 -1.6615
 5685TIP3    H217062   3.027   4.054   4.792  0.5451 -0.0180  1.3541
 5686TIP3   OH217063   0.774   4.039   1.640 -0.3276 -0.0774 -0.2578
 5686TIP3    H117064   0.718   4.008   1.569 -1.4085 -1.5017  1.1367
 5686TIP3    H217065   0.828   3.963   1.662 -0.8521 -0.0586  1.1999
 5687TIP3   OH217066   0.849   0.533   0.849  0.1582  0.1454 -0.1628
 5687TIP3    H117067   0.810   0.460   0.802 -0.6917  0.3359  0.2238
 5687TIP3    H217068   0.828   0.516   0.941 -0.1673  0.9320 -0.0834
 5688TIP3   OH217069   0.665   3.029   1.903  0.1595 -0.3079  0.0247
 5688TIP3    H117070   0.602   2.957   1.902 -0.1666 -0.0185 -0.9987
 5688TIP3    H217071   0.629   3.092   1.965 -0.4668 -0.2321 -0.4113
 5689TIP3   OH217072   4.529   2.325   1.289 -0.2905  0.0045  0.3657
 5689TIP3    H117073   4.513   2.233   1.312  2.0833 -1.2387 -2.3279
 5689TIP3    H217074   4.571   2.362   1.366 -0.7045 -1.3388  1.2841
 5690TIP3   OH217075   2.345   0.197   2.539  0.0772  0.3425 -0.0010
 5690TIP3    H117076   2.310   0.211   2.627 -0.5854  0.0670 -0.2197
 5690TIP3    H217077   2.269   0.199   2.482  0.2458 -1.4293 -0.3469
 5691TIP3   OH217078   5.843   5.076   0.521  0.0172 -0.3261 -0.0625
 5691TIP3    H117079   5.908   5.020   0.563  0.3349 -0.0639 -0.1967
 5691TIP3    H217080   5.774   5.086   0.586 -0.6734 -1.9436 -0.5099
 5692TIP3   OH217081   5.845   2.020   1.906  0.2803 -0.6440 -0.3223
 5692TIP3    H117082   5.929   2.028   1.952  1.4103 -0.9854 -2.1778
 5692TIP3    H217083   5.789   2.087   1.945  1.3059 -0.6067  1.1752
 5693TIP3   OH217084   3.886   3.971   0.181 -0.2891 -1.0647 -0.1797
 5693TIP3    H117085   3.954   3.905   0.176  0.6231 -0.0519 -3.2592
 5693TIP3    H217086   3.931   4.050   0.211 -0.5486 -0.8747 -0.2824
 5694TIP3   OH217087   1.598   5.746   1.690 -0.3195  0.4878 -0.5543
 5694TIP3    H117088   1.581   5.678   1.625 -0.7882 -0.0549  0.1231
 5694TIP3    H217089   1.692   5.743   1.705 -0.4503 -0.5700  0.0738
 5695TIP3   OH217090   6.135   5.055   3.472 -0.0137  0.3798  0.3515
 5695TIP3    H117091   6.117   5.072   3.379  1.1941 -0.9040 -0.1546
 5695TIP3    H217092   6.225   5.023   3.473 -0.5708 -1.2796  1.7606
 5696TIP3   OH217093   4.293   3.765   0.583 -0.4735  0.2204 -0.0157
 5696TIP3    H117094   4.252   3.807   0.659 -1.9372  0.6129 -0.9708
 5696TIP3    H217095   4.299   3.673   0.607 -0.7088  0.3736  0.6639
 5697TIP3   OH217096   0.819   1.300   1.672 -0.7588  0.0444 -0.2395
 5697TIP3    H117097   0.851   1.258   1.751  0.0032  1.2121  0.1026
 5697TIP3    H217098   0.883   1.370   1.654 -1.0129 -0.0769 -1.7777
 5698TIP3   OH217099   0.582   3.937   3.875  0.0496  0.4583 -0.3016
 5698TIP3    H117100   0.651   3.920   3.811  0.2150  1.3310 -0.3697
 5698TIP3    H217101   0.620   3.911   3.959  0.2901  0.4950 -0.3980
 5699TIP3   OH217102   5.819   3.474   2.826  0.3383 -0.0199  0.0881
 5699TIP3    H117103   5.816   3.566   2.850 -0.0698  0.6130 -2.1490
 5699TIP3    H217104   5.727   3.446   2.827  0.5750 -0.8736  2.2561
 5700TIP3   OH217105   0.945   0.239   0.391 -0.2187  0.0411 -0.5576
 5700TIP3    H117106   1.026   0.233   0.339  0.6896 -3.1522  0.9570
 5700TIP3    H217107   0.919   0.148   0.405 -2.4657  0.8948  1.4586
 5701TIP3   OH217108   6.066   3.548   2.025 -0.4142 -0.0718 -0.1320
 5701TIP3    H117109   6.021   3.482   2.077  2.2074 -0.8640  1.3217
 5701TIP3    H217110   6.059   3.628   2.077  0.7828 -0.4825  0.7290
 5702TIP3   OH217111   3.099   2.328   1.277  0.3159 -0.2786  0.2494
 5702TIP3    H117112   3.135   2.389   1.342  0.2153  2.0813 -1.7428
 5702TIP3    H217113   3.005   2.348   1.274  0.0459 -1.4476  0.4415
 5703TIP3   OH217114   5.251   4.669   3.602 -0.0322 -0.1440  0.1314
 5703TIP3    H117115   5.303   4.664   3.522 -1.0100  0.1851 -0.5422
 5703TIP3    H217116   5.161   4.683   3.572 -0.6245 -1.3146  1.2330
 5704TIP3   OH217117   1.513   0.391   2.724  0.2793  0.4318  0.4451
 5704TIP3    H117118   1.601   0.355   2.713 -0.2530 -0.9153  0.3277
 5704TIP3    H217119   1.494   0.381   2.817 -0.8270 -2.0861  0.0444
 5705TIP3   OH217120   3.310   1.579   3.199  0.2652  0.2434  0.3078
 5705TIP3    H117121   3.232   1.615   3.157  0.3060 -0.8997 -0.8390
 5705TIP3    H217122   3.276   1.513   3.259  0.3197 -0.1884 -0.1230
 5706TIP3   OH217123   2.074   2.279   4.681  0.5663  0.6646  0.5405
 5706TIP3    H117124   2.007   2.272   4.750  0.9950 -1.2617  0.8089
 5706TIP3    H217125   2.096   2.372   4.679 -1.6807  1.2630  0.8580
 5707TIP3   OH217126   4.515   0.731   5.104  0.6447 -0.0059  0.2417
 5707TIP3    H117127   4.460   0.808   5.118  0.1341  0.4396 -3.4184
 5707TIP3    H217128   4.583   0.737   5.172 -1.4174  1.6448  2.2939
 5708TIP3   OH217129   5.236   3.379   1.045  0.5217 -0.3147 -0.0903
 5708TIP3    H117130   5.213   3.469   1.024  1.3975 -0.0361  0.1483
 5708TIP3    H217131   5.163   3.327   1.010  0.3206  0.4265 -0.7851
 5709TIP3   OH217132   6.311   2.971   3.029  0.1641 -0.1909  0.1505
 5709TIP3    H117133   6.403   2.945   3.031  0.3389  0.3956  0.0887
 5709TIP3    H217134   6.287   2.969   2.936  0.5416  1.0626  0.0091
 5710TIP3   OH217135   1.313   3.344   1.493  0.6548 -0.0359 -0.0662
 5710TIP3    H117136   1.351   3.308   1.573  0.4083  0.9690  0.5233
 5710TIP3    H217137   1.346   3.433   1.488 -1.5373  0.8709  0.4494
 5711TIP3   OH217138   6.243   4.115   3.558  0.1603 -0.3718  0.2826
 5711TIP3    H117139   6.334   4.089   3.574 -0.3037 -1.0499  1.9836
 5711TIP3    H217140   6.240   4.207   3.580  0.0048 -0.8183  2.2680
 5712TIP3   OH217141   3.277   0.103   4.546 -0.2554  0.0397 -0.7931
 5712TIP3    H117142   3.367   0.119   4.516 -0.3618 -0.1915 -1.2401
 5712TIP3    H217143   3.273   0.009   4.561  1.1965  0.5064  4.4975
 5713TIP3   OH217144   1.186   0.712   4.762 -0.0488  0.2803  0.3282
 5713TIP3    H117145   1.147   0.636   4.804  1.7458 -0.3559  0.9331
 5713TIP3    H217146   1.155   0.709   4.672  1.2455 -2.1430 -0.1098
 5714TIP3   OH217147   4.963   5.911   0.925  0.6418 -0.9044  0.3979
 5714TIP3    H117148   5.017   5.934   1.000  0.3045 -0.5953  0.5490
 5714TIP3    H217149   5.026   5.897   0.854  0.9058 -0.2398  0.4903
 5715TIP3   OH217150   5.374   3.218   5.034 -0.1300  0.0630  0.0037
 5715TIP3    H117151   5.377   3.310   5.060  1.8375  0.9023 -2.7328
 5715TIP3    H217152   5.446   3.209   4.972  0.1697 -3.5379  0.6972
 5716TIP3   OH217153   5.359   2.110   3.801  0.7491  0.2618  0.3080
 5716TIP3    H117154   5.268   2.111   3.772  0.9287 -0.0444 -0.2733
 5716TIP3    H217155   5.408   2.151   3.730  1.2715 -1.0538 -0.1115
 5717TIP3   OH217156   0.382   3.500   0.575  0.1075 -0.3119 -0.0059
 5717TIP3    H117157   0.303   3.452   0.598  0.7137 -1.3255  0.0231
 5717TIP3    H217158   0.436   3.498   0.654  0.5821 -0.4981 -0.3265
 5718TIP3   OH217159   1.284   2.265   0.169 -0.2620  0.9083 -0.2536
 5718TIP3    H117160   1.271   2.180   0.125  2.8684  0.6472 -0.9321
 5718TIP3    H217161   1.323   2.242   0.253 -0.5998  1.6419  0.1068
 5719TIP3   OH217162   0.274   3.078   1.316  0.1390 -0.1454  0.3789
 5719TIP3    H117163   0.203   3.017   1.297 -1.3071  1.7697 -0.6185
 5719TIP3    H217164   0.345   3.022   1.349 -1.3305 -2.2639  0.1392
 5720TIP3   OH217165   1.946   2.891   2.381 -0.0447 -0.8485  0.1938
 5720TIP3    H117166   1.944   2.819   2.318 -0.1464 -1.4889  0.9107
 5720TIP3    H217167   1.883   2.865   2.448  1.3039 -1.0054  1.4417
 5721TIP3   OH217168   5.809   2.559   2.670  0.8205 -0.5151 -0.1072
 5721TIP3    H117169   5.904   2.546   2.673  0.6449 -1.7466  0.4542
 5721TIP3    H217170   5.789   2.567   2.577  1.3881 -0.9180 -0.2674
 5722TIP3   OH217171   4.658   4.235   3.575  0.3721  0.5450  0.4505
 5722TIP3    H117172   4.734   4.286   3.605 -0.6101  1.8173  0.8678
 5722TIP3    H217173   4.632   4.277   3.493  0.5499 -0.3496 -0.0733
 5723TIP3   OH217174   5.083   1.032   3.007 -0.0432 -0.0594 -0.2599
 5723TIP3    H117175   5.058   0.946   3.041 -0.6310  0.5099  0.7923
 5723TIP3    H217176   5.014   1.091   3.038  1.1045  1.0468  0.2847
 5724TIP3   OH217177   4.959   3.230   2.446  0.1925 -0.0619  0.0870
 5724TIP3    H117178   5.049   3.249   2.422  0.3613 -1.1356 -0.1785
 5724TIP3    H217179   4.941   3.288   2.521  1.2026 -0.0833  0.3579
 5725TIP3   OH217180   4.830   5.301   1.407  0.0937  0.3199  0.4260
 5725TIP3    H117181   4.816   5.356   1.484 -0.9318  1.3687 -0.4675
 5725TIP3    H217182   4.921   5.274   1.413  0.7610  2.5024  0.6748
 5726TIP3   OH217183   4.667   1.941   3.934  0.8478 -0.0104 -0.5765
 5726TIP3    H117184   4.640   2.001   4.003  2.4079  0.9883 -0.7632
 5726TIP3    H217185   4.750   1.978   3.902  1.2013 -1.5757 -1.5787
 5727TIP3   OH217186   0.174   3.684   4.925  0.2745 -0.2791 -0.1791
 5727TIP3    H117187   0.221   3.758   4.887  1.4161 -1.6476 -1.5589
 5727TIP3    H217188   0.123   3.647   4.853 -1.3190 -0.0982  0.8010
 5728TIP3   OH217189   6.183   0.771   0.451 -0.0613  0.3803 -0.0500
 5728TIP3    H117190   6.142   0.780   0.537 -1.6810  0.6186 -0.8025
 5728TIP3    H217191   6.230   0.688   0.456  0.1530  0.5516  1.1659
 5729TIP3   OH217192   5.091   0.297   3.491  0.0185  0.0733 -0.2563
 5729TIP3    H117193   5.138   0.231   3.542 -1.3835  0.1511  1.1928
 5729TIP3    H217194   4.999   0.272   3.498 -0.3032  0.6482 -1.9734
 5730TIP3   OH217195   5.719   5.535   0.468  0.6328  0.0177  0.4185
 5730TIP3    H117196   5.785   5.567   0.531  0.1333  1.7546  0.1220
 5730TIP3    H217197   5.746   5.574   0.384 -1.2641  1.5863  0.4706
 5731TIP3   OH217198   0.298   1.660   2.090  0.9938  0.1366  0.0560
 5731TIP3    H117199   0.379   1.707   2.110  1.0876  0.4579 -1.0516
 5731TIP3    H217200   0.231   1.729   2.088  0.5822 -0.1796  1.4188
 5732TIP3   OH217201   3.806   5.828   2.279 -0.1007  0.2313  0.1333
 5732TIP3    H117202   3.752   5.797   2.351  1.3704  0.4752  1.3797
 5732TIP3    H217203   3.766   5.789   2.201 -1.2402 -0.6999  1.1454
 5733TIP3   OH217204   6.035   2.967   4.906  0.2091  0.2948 -0.0422
 5733TIP3    H117205   6.070   2.896   4.852 -0.0043  0.3765 -0.2903
 5733TIP3    H217206   6.058   2.943   4.995  2.1578  1.0287 -0.2869
 5734TIP3   OH217207   0.701   4.300   1.235  0.2578  0.7123  0.4724
 5734TIP3    H117208   0.648   4.238   1.285  0.8499  1.5094  2.1526
 5734TIP3    H217209   0.791   4.274   1.253  0.4996  1.7250  0.7616
 5735TIP3   OH217210   0.990   2.742   0.975  0.0867  0.4179 -0.0807
 5735TIP3    H117211   0.967   2.678   0.908 -0.1348  0.5219 -0.1041
 5735TIP3    H217212   1.085   2.750   0.968  0.0799  0.3272 -0.2910
 5736TIP3   OH217213   3.826   3.079   3.932  0.1806  0.3651 -0.1275
 5736TIP3    H117214   3.868   3.079   3.846  0.7510  1.0782  0.1378
 5736TIP3    H217215   3.822   3.172   3.957 -3.9721  0.6714 -1.2534
 5737TIP3   OH217216   3.509   1.241   1.959  0.4592  0.0958  0.2840
 5737TIP3    H117217   3.602   1.254   1.977  0.6245 -0.7382  0.0973
 5737TIP3    H217218   3.508   1.173   1.892 -0.2043  1.8813 -1.6167
 5738TIP3   OH217219   3.597   1.183   0.406  0.3634 -0.1654  0.1173
 5738TIP3    H117220   3.606   1.098   0.363  0.3865 -0.3453  0.4740
 5738TIP3    H217221   3.685   1.205   0.434  0.3074 -0.1736  0.3032
 5739TIP3   OH217222   4.657   4.201   3.122 -0.0584  0.3778 -0.4616
 5739TIP3    H117223   4.717   4.170   3.189  0.3811  3.1103  0.4990
 5739TIP3    H217224   4.571   4.168   3.150  0.4456 -0.4741  0.1350
 5740TIP3   OH217225   4.771   4.784   1.793 -0.3647 -0.0052  0.2730
 5740TIP3    H117226   4.716   4.737   1.730  0.2267  0.4687 -0.6122
 5740TIP3    H217227   4.821   4.846   1.740  2.2004 -1.4530  0.8225
 5741TIP3   OH217228   4.278   2.272   1.499  0.4486  0.3409  0.0988
 5741TIP3    H117229   4.299   2.206   1.433 -2.2871  1.5245 -2.1279
 5741TIP3    H217230   4.279   2.224   1.582  1.5095 -1.7770 -1.0587
 5742TIP3   OH217231   0.154   2.892   4.506  0.1144 -0.2812 -0.7232
 5742TIP3    H117232   0.103   2.968   4.533  1.2734  0.1438  0.3989
 5742TIP3    H217233   0.089   2.827   4.480 -0.9902  0.3345  0.4035
 5743TIP3   OH217234   5.875   3.996   4.913  0.0405  0.3241 -0.5577
 5743TIP3    H117235   5.881   4.091   4.912  1.8573  0.2465 -1.6173
 5743TIP3    H217236   5.870   3.971   4.820  0.0484 -0.6358 -0.3136
 5744TIP3   OH217237   6.212   3.256   1.680  0.3286 -0.1383  0.1648
 5744TIP3    H117238   6.167   3.319   1.736 -0.6134 -0.5305 -0.1189
 5744TIP3    H217239   6.215   3.299   1.594  0.6562 -0.0390  0.2267
 5745TIP3   OH217240   6.314   0.691   2.570  0.6094 -0.4272 -0.8961
 5745TIP3    H117241   6.371   0.629   2.615 -0.1326  0.4256  1.3713
 5745TIP3    H217242   6.237   0.640   2.545  0.2319 -0.5823  0.4986
 5746TIP3   OH217243   2.237   4.491   2.545  0.0252 -0.2448  0.2628
 5746TIP3    H117244   2.144   4.514   2.553 -0.3092 -1.7315  0.9860
 5746TIP3    H217245   2.256   4.441   2.624  1.3103 -0.4203 -0.1356
 5747TIP3   OH217246   4.572   3.611   1.321 -0.2256 -0.1680 -0.1594
 5747TIP3    H117247   4.647   3.553   1.326  0.8637  1.1880 -0.0851
 5747TIP3    H217248   4.542   3.620   1.411  0.0896 -0.0185 -0.0681
 5748TIP3   OH217249   5.155   0.678   3.904 -0.6183  0.4198  0.2654
 5748TIP3    H117250   5.224   0.733   3.868 -0.2666  0.7445  1.3879
 5748TIP3    H217251   5.095   0.664   3.831  0.8361 -0.2297 -0.8615
 5749TIP3   OH217252   4.651   5.475   4.368 -0.4455 -0.3465  0.3534
 5749TIP3    H117253   4.739   5.460   4.333 -0.5762  0.7376 -0.5099
 5749TIP3    H217254   4.664   5.536   4.441 -0.4030 -0.7989  0.7235
 5750TIP3   OH217255   0.056   1.398   4.024  0.3267 -0.3291 -0.0985
 5750TIP3    H117256   0.072   1.328   4.087 -0.0221  1.3108  1.8867
 5750TIP3    H217257   0.008   1.355   3.953 -0.3795 -1.9912  1.3167
 5751TIP3   OH217258   5.432   2.756   2.144  0.2205 -0.3371  0.2715
 5751TIP3    H117259   5.370   2.705   2.197 -0.3924 -1.4209 -1.4260
 5751TIP3    H217260   5.518   2.728   2.175 -0.1082 -2.1351 -0.3389
 5752TIP3   OH217261   4.548   2.872   2.025  0.0786  0.8543 -0.5599
 5752TIP3    H117262   4.475   2.831   1.979 -0.8147  1.8208 -0.0418
 5752TIP3    H217263   4.529   2.966   2.023  1.4876  1.1572 -0.7080
 5753TIP3   OH217264   1.412   0.816   4.641  0.1088 -0.6523  0.2375
 5753TIP3    H117265   1.364   0.815   4.723 -1.5788  0.5515 -0.6713
 5753TIP3    H217266   1.360   0.762   4.581  1.9441 -2.5476  0.2176
 5754TIP3   OH217267   2.729   2.660   3.996  0.9539 -0.0846 -1.0599
 5754TIP3    H117268   2.643   2.617   4.000  0.6668  0.5613  0.1940
 5754TIP3    H217269   2.717   2.730   3.932  0.4906  0.1021 -0.7784
 5755TIP3   OH217270   3.029   5.191   4.260  0.1625  0.4397 -0.3944
 5755TIP3    H117271   2.953   5.243   4.285  0.3334  0.7389 -0.4786
 5755TIP3    H217272   2.994   5.106   4.236  0.0138  0.1205  0.9365
 5756TIP3   OH217273   5.175   3.021   4.909 -0.3981 -0.1637 -0.1696
 5756TIP3    H117274   5.212   3.081   4.972 -2.3778  0.9068  0.0683
 5756TIP3    H217275   5.240   2.952   4.899  1.8627  1.8742 -0.2900
 5757TIP3   OH217276   5.625   5.104  -0.002 -0.6634  0.3879 -0.0826
 5757TIP3    H117277   5.692   5.157   0.042 -2.1130  1.8388  0.5079
 5757TIP3    H217278   5.575   5.064   0.070 -0.2746 -0.9241 -0.5137
 5758TIP3   OH217279   4.714   5.362   4.993 -0.5402  0.2989 -0.3126
 5758TIP3    H117280   4.661   5.437   4.965 -0.6096  0.1470 -0.5999
 5758TIP3    H217281   4.684   5.344   5.082 -1.3942 -0.1424 -0.6717
 5759TIP3   OH217282   1.588   1.811   1.868  0.1446 -0.1377  0.8578
 5759TIP3    H117283   1.655   1.760   1.914  0.1000 -1.7205 -0.7413
 5759TIP3    H217284   1.616   1.811   1.777  0.3501  3.1392  0.7944
 5760TIP3   OH217285   2.274   2.268   1.919  0.2728  0.4328  0.6442
 5760TIP3    H117286   2.278   2.358   1.888 -0.1725  0.0245 -0.6716
 5760TIP3    H217287   2.189   2.236   1.890  0.0265 -0.1474  1.9154
 5761TIP3   OH217288   4.401   3.288   4.633  0.1073  0.1947  0.0527
 5761TIP3    H117289   4.309   3.268   4.619 -0.1257  2.0442 -1.4994
 5761TIP3    H217290   4.447   3.234   4.569  0.0794 -0.3391  0.4734
 5762TIP3   OH217291   0.788   5.807   2.845  0.0475  0.0430 -0.2780
 5762TIP3    H117292   0.810   5.900   2.839  1.8629 -0.2485  1.2204
 5762TIP3    H217293   0.863   5.767   2.888 -2.1309 -1.5597  2.3142
 5763TIP3   OH217294   4.560   0.578   3.259 -0.5035  0.3013  0.0476
 5763TIP3    H117295   4.468   0.578   3.283 -0.4027  1.6025  0.5029
 5763TIP3    H217296   4.600   0.514   3.319 -0.7580  1.3107  1.3365
 5764TIP3   OH217297   2.633   5.388   0.183 -0.3041  0.3621  0.8534
 5764TIP3    H117298   2.668   5.302   0.158 -0.8732  0.2136  0.5603
 5764TIP3    H217299   2.544   5.389   0.148 -1.2155  0.0679  3.0003
 5765TIP3   OH217300   1.563   2.954   0.863  0.3746 -0.2605 -0.7778
 5765TIP3    H117301   1.602   3.041   0.874 -0.0932 -0.2089  0.7718
 5765TIP3    H217302   1.558   2.941   0.769 -2.1931  2.6087 -1.1716
 5766TIP3   OH217303   1.168   4.605   1.322  0.6436 -1.1614  0.4185
 5766TIP3    H117304   1.195   4.679   1.268 -1.0598 -1.0564 -0.3273
 5766TIP3    H217305   1.178   4.637   1.412  2.7376 -1.0729  0.2149
 5767TIP3   OH217306   0.458   0.781   4.709  0.2769 -0.1689  0.5121
 5767TIP3    H117307   0.411   0.845   4.656  0.4109  0.0354  0.6377
 5767TIP3    H217308   0.475   0.826   4.792  2.4058  0.4816 -0.1966
 5768TIP3   OH217309   4.114   0.254   1.076 -0.1775  0.0003 -0.2959
 5768TIP3    H117310   4.100   0.348   1.086 -0.7840 -0.0222 -0.8249
 5768TIP3    H217311   4.208   0.242   1.086 -0.1079  0.6481 -0.1259
 5769TIP3   OH217312   5.893   4.869   3.682  0.3294 -0.2311  0.0296
 5769TIP3    H117313   5.803   4.872   3.651  0.5566 -0.1433 -0.6601
 5769TIP3    H217314   5.894   4.922   3.761  0.2432  1.7778 -1.2430
 5770TIP3   OH217315   1.627   0.310   0.724  0.2683 -0.2463  0.5135
 5770TIP3    H117316   1.629   0.223   0.684  0.3745  0.2213 -0.5180
 5770TIP3    H217317   1.595   0.294   0.813  2.2099 -1.6063  1.0500
 5771TIP3   OH217318   4.767   2.595   3.894  0.1777 -0.2372  0.6926
 5771TIP3    H117319   4.754   2.538   3.818  0.9796  1.5406 -0.8642
 5771TIP3    H217320   4.861   2.588   3.913  0.0401 -0.4141  1.3342
 5772TIP3   OH217321   4.918   5.486   2.123 -0.1895  0.4523 -0.1026
 5772TIP3    H117322   4.891   5.429   2.195 -0.9184  0.4918 -0.3364
 5772TIP3    H217323   5.004   5.518   2.149  1.1843 -2.3027 -0.8300
 5773TIP3   OH217324   5.572   5.268   4.135 -0.1095  0.1669  0.1611
 5773TIP3    H117325   5.591   5.282   4.042  1.4563  0.5441  0.5022
 5773TIP3    H217326   5.608   5.345   4.178 -1.9434  0.6126  1.0018
 5774TIP3   OH217327   1.307   0.126   2.066 -0.0451 -0.2677 -0.1516
 5774TIP3    H117328   1.287   0.158   1.978 -0.4923 -0.6791 -0.1984
 5774TIP3    H217329   1.294   0.032   2.062  0.9357 -0.4253  0.0860
 5775TIP3   OH217330   2.291   2.215   4.343  0.2601 -0.0376  0.7696
 5775TIP3    H117331   2.321   2.187   4.430 -0.4813 -1.8714  0.4861
 5775TIP3    H217332   2.232   2.288   4.361  1.0562  0.3996  1.7058
 5776TIP3   OH217333   2.710   3.888   0.418 -0.0139 -0.3790 -0.6919
 5776TIP3    H117334   2.631   3.886   0.364  0.8820  0.5151 -2.0835
 5776TIP3    H217335   2.677   3.888   0.508 -1.5955 -0.0239 -1.2400
 5777TIP3   OH217336   4.829   1.373   1.101 -0.3786  0.2884 -0.4517
 5777TIP3    H117337   4.776   1.323   1.164 -0.3407  0.6577 -0.1272
 5777TIP3    H217338   4.887   1.427   1.155  1.5840 -1.3702 -0.7620
 5778TIP3   OH217339   1.271   3.078   0.716  0.0302 -0.1141 -0.9491
 5778TIP3    H117340   1.192   3.067   0.664 -1.5303 -1.6896  1.5219
 5778TIP3    H217341   1.330   3.010   0.685  0.0209  0.3710 -2.0812
 5779TIP3   OH217342   3.509   3.665   3.759 -0.4916 -0.8973 -0.3192
 5779TIP3    H117343   3.551   3.581   3.740  0.1762 -0.5648 -0.3349
 5779TIP3    H217344   3.540   3.688   3.847 -2.3543 -1.6870  0.6021
 5780TIP3   OH217345   5.947   3.665   0.761  0.0832 -0.1895 -0.1759
 5780TIP3    H117346   5.908   3.597   0.705 -1.3222  1.8083 -1.7778
 5780TIP3    H217347   5.915   3.747   0.724  2.0986  1.3982  1.3979
 5781TIP3   OH217348   5.298   3.630   1.905  0.1908  0.0893 -0.1013
 5781TIP3    H117349   5.207   3.601   1.912 -0.3760  1.3944 -1.4677
 5781TIP3    H217350   5.348   3.549   1.897 -0.5451 -0.7842  2.8622
 5782TIP3   OH217351   1.117   0.393   3.709  0.3193  0.0701 -0.2125
 5782TIP3    H117352   1.046   0.457   3.703 -1.8299 -2.2452 -1.5807
 5782TIP3    H217353   1.111   0.359   3.798  0.8048  1.0069  0.1922
 5783TIP3   OH217354   3.096   1.422   4.273  0.7413  0.7467  0.3057
 5783TIP3    H117355   3.071   1.421   4.366  0.6737  2.4947  0.3429
 5783TIP3    H217356   3.073   1.335   4.241  0.5242  0.1993  1.8650
 5784TIP3   OH217357   2.394   5.638   4.386 -0.0778 -0.1075 -0.1961
 5784TIP3    H117358   2.489   5.637   4.369  0.4505  0.0572  2.4545
 5784TIP3    H217359   2.385   5.599   4.472 -2.5546 -0.8824 -0.7401
 5785TIP3   OH217360   5.055   5.507   3.564 -0.3433  0.1163 -0.0601
 5785TIP3    H117361   5.099   5.423   3.555 -0.1211  0.0915  1.0775
 5785TIP3    H217362   5.112   5.558   3.622 -0.6278  0.9467 -0.4873
 5786TIP3   OH217363   1.299   2.395   2.083  0.2454  0.1247 -0.5139
 5786TIP3    H117364   1.296   2.480   2.127 -1.5824 -0.3394  0.3692
 5786TIP3    H217365   1.326   2.334   2.151 -0.6087 -0.3045 -0.5485
 5787TIP3   OH217366   1.786   5.106   0.114  0.0943  0.0110  0.8871
 5787TIP3    H117367   1.759   5.036   0.055 -0.7015 -0.4836  1.8054
 5787TIP3    H217368   1.760   5.076   0.201  1.9084  0.3812  1.6080
 5788TIP3   OH217369   1.055   1.294   3.865  0.6524  0.2114  0.2897
 5788TIP3    H117370   1.116   1.368   3.866  0.9241 -0.0105  0.4103
 5788TIP3    H217371   1.109   1.220   3.837  0.0044  0.3870 -1.5593
 5789TIP3   OH217372   0.123   5.343   4.945 -0.4882  0.3002  0.1945
 5789TIP3    H117373   0.070   5.318   4.869 -0.0048 -1.0188  0.2756
 5789TIP3    H217374   0.132   5.263   4.996 -0.2553  1.0234  1.3229
 5790TIP3   OH217375   5.237   1.405   3.975 -0.3976  0.8021 -0.1169
 5790TIP3    H117376   5.239   1.471   4.044  1.8422  0.2551  0.4098
 5790TIP3    H217377   5.328   1.379   3.963 -0.8508 -0.0002 -2.4621
 5791TIP3   OH217378   4.148  -0.016   3.484 -0.1894 -0.2160 -0.5022
 5791TIP3    H117379   4.176   0.034   3.407  1.9165 -0.4228  0.0795
 5791TIP3    H217380   4.144   0.048   3.555 -0.2986 -0.3639 -0.3733
 5792TIP3   OH217381   2.650   5.031   4.139  0.2363 -0.2464  0.3048
 5792TIP3    H117382   2.658   5.061   4.048 -0.6225 -0.4108  0.1623
 5792TIP3    H217383   2.722   4.970   4.150 -0.0251 -0.7284 -0.4899
 5793TIP3   OH217384   1.577   5.291   3.801  0.5731  0.2186  0.1109
 5793TIP3    H117385   1.557   5.251   3.717  2.0602 -0.1787 -0.0672
 5793TIP3    H217386   1.502   5.348   3.818  0.2578  0.3299 -1.4822
 5794TIP3   OH217387   1.020   2.776   4.679  0.3094  0.1752 -0.1513
 5794TIP3    H117388   0.945   2.834   4.666 -0.3600 -0.6951 -0.2595
 5794TIP3    H217389   0.988   2.689   4.655  1.5207 -0.1254 -0.7381
 5795TIP3   OH217390   5.554   1.977   1.362  0.4646 -0.0369  0.0680
 5795TIP3    H117391   5.477   1.921   1.349  0.2533  0.4204 -0.7328
 5795TIP3    H217392   5.626   1.927   1.325  0.2636  0.2332 -0.7130
 5796TIP3   OH217393   0.496   1.595   4.880  0.7306  0.2306  0.3422
 5796TIP3    H117394   0.533   1.533   4.817 -2.4355 -0.4015 -1.1167
 5796TIP3    H217395   0.401   1.586   4.869  0.0290  1.2002  4.2270
 5797TIP3   OH217396   4.127   1.866   2.909 -0.1841  0.0705  0.2991
 5797TIP3    H117397   4.145   1.936   2.847  1.9154  0.6107  1.4356
 5797TIP3    H217398   4.091   1.912   2.986  1.4073  0.0025  1.1333
 5798TIP3   OH217399   0.303   4.813   1.321  0.2197  0.1753  0.1276
 5798TIP3    H117400   0.301   4.818   1.225 -0.6103 -0.0201  0.1279
 5798TIP3    H217401   0.257   4.891   1.350  0.9738  0.5369  0.3928
 5799TIP3   OH217402   4.713   4.479   2.725 -0.6971 -0.3618 -0.0654
 5799TIP3    H117403   4.742   4.395   2.691 -2.1237 -0.4061 -1.2316
 5799TIP3    H217404   4.643   4.507   2.667 -0.5634  1.4386  0.5515
 5800TIP3   OH217405   5.591   0.876   3.860  0.2227 -0.0751 -0.3952
 5800TIP3    H117406   5.627   0.802   3.909  0.5177  1.5792  2.0717
 5800TIP3    H217407   5.668   0.921   3.824  0.0892 -0.5164 -1.2668
 5801TIP3   OH217408   1.357   2.991   2.781  0.3505 -0.1658  0.2693
 5801TIP3    H117409   1.275   2.980   2.732  0.8904  0.3423 -0.7957
 5801TIP3    H217410   1.364   2.911   2.833 -1.2013  0.1249  0.9903
 5802TIP3   OH217411   3.131   3.453   3.905  0.2783  0.4837  0.2160
 5802TIP3    H117412   3.116   3.405   3.986 -2.2252  1.8503  0.6635
 5802TIP3    H217413   3.156   3.541   3.933  1.7483  0.3383 -0.5499
 5803TIP3   OH217414   0.169   2.689   1.035  0.2879 -1.1546  0.0823
 5803TIP3    H117415   0.233   2.737   0.982  0.5714 -1.7195 -0.0887
 5803TIP3    H217416   0.186   2.597   1.016 -1.0315 -1.2990 -0.5149
 5804TIP3   OH217417   5.097   2.248   3.773 -0.0780 -0.4475  0.0247
 5804TIP3    H117418   5.047   2.244   3.855 -0.8974 -0.1419 -0.4571
 5804TIP3    H217419   5.163   2.316   3.789  1.7133 -2.3716  1.4787
 5805TIP3   OH217420   1.393   1.416   3.132 -0.2922 -0.2781 -0.3958
 5805TIP3    H117421   1.480   1.449   3.109  1.8476 -3.6951  1.8977
 5805TIP3    H217422   1.349   1.404   3.048  1.1140  2.1320 -1.5991
 5806TIP3   OH217423   3.276   3.733   2.707  0.2342 -0.1314  0.2159
 5806TIP3    H117424   3.200   3.741   2.650  0.2627 -0.9045  0.0627
 5806TIP3    H217425   3.244   3.760   2.793  0.2542  1.2856 -0.1966
 5807TIP3   OH217426   4.711   3.654   4.701 -0.3625 -0.5435 -0.0529
 5807TIP3    H117427   4.741   3.733   4.655 -0.5485 -0.0969  0.5859
 5807TIP3    H217428   4.733   3.670   4.792  0.0612 -1.4591  0.0085
 5808TIP3   OH217429   6.303   0.426   3.150 -0.0594 -0.2524  0.4507
 5808TIP3    H117430   6.339   0.391   3.231 -1.5922 -1.1845  0.7823
 5808TIP3    H217431   6.356   0.387   3.081  0.4394 -0.4872  0.9629
 5809TIP3   OH217432   3.898   0.868   3.095 -0.3664 -0.0568 -0.1504
 5809TIP3    H117433   3.938   0.872   3.008 -0.1131  0.2324 -0.0224
 5809TIP3    H217434   3.921   0.781   3.128  0.6186  0.3039  0.1389
 5810TIP3   OH217435   4.801   5.007   3.061 -0.1721  0.0212 -0.2810
 5810TIP3    H117436   4.831   5.068   3.127 -2.4607  0.0455  0.8472
 5810TIP3    H217437   4.833   4.922   3.090  0.8277  0.3229 -0.4600
 5811TIP3   OH217438   2.911   2.916   0.424  0.0284  0.4082 -0.0937
 5811TIP3    H117439   2.990   2.919   0.479  0.9476  0.1163 -1.3642
 5811TIP3    H217440   2.894   2.823   0.412 -0.9023  0.4668  0.7015
 5812TIP3   OH217441   3.700   0.449   0.237  0.6638  1.0728 -0.1090
 5812TIP3    H117442   3.763   0.451   0.309 -0.4597  0.4343  0.9386
 5812TIP3    H217443   3.706   0.360   0.202  0.8683  1.2375 -0.5015
 5813TIP3   OH217444   2.611   1.254   3.898  0.3102  0.5924  0.5392
 5813TIP3    H117445   2.706   1.247   3.901  0.2138 -1.0918  0.9473
 5813TIP3    H217446   2.580   1.176   3.944 -1.2744  0.1359 -1.1801
 5814TIP3   OH217447   2.612   3.798   1.901 -0.1794  0.2453  0.3369
 5814TIP3    H117448   2.534   3.854   1.891 -1.3060 -1.4124 -0.8545
 5814TIP3    H217449   2.649   3.823   1.986 -2.7955  0.1917  1.5927
 5815TIP3   OH217450   2.199   2.569   2.316 -0.1758  0.3035 -0.3461
 5815TIP3    H117451   2.204   2.540   2.224 -1.1445  0.7921 -0.5606
 5815TIP3    H217452   2.106   2.585   2.331  0.0117  0.5014  0.6486
 5816TIP3   OH217453   0.920   5.507   2.607 -0.7223 -0.6092 -0.0814
 5816TIP3    H117454   0.829   5.523   2.631 -0.8770  1.5207 -1.7278
 5816TIP3    H217455   0.970   5.574   2.654 -0.1445 -1.1052  0.0224
 5817TIP3   OH217456   6.217   4.389   4.568  0.5324 -0.4770  0.0466
 5817TIP3    H117457   6.249   4.445   4.639  1.6899 -1.7556  0.5821
 5817TIP3    H217458   6.260   4.422   4.490 -1.5811  1.6467 -0.3530
 5818TIP3   OH217459   2.452   3.854   0.337  0.1101 -0.5043  0.0117
 5818TIP3    H117460   2.381   3.797   0.366  0.5707 -2.1782 -1.9628
 5818TIP3    H217461   2.419   3.896   0.257  0.7148  0.0316  0.0296
 5819TIP3   OH217462   0.807   2.154   1.261  0.5620  0.2053 -0.2554
 5819TIP3    H117463   0.746   2.084   1.286 -0.8274  1.0633 -1.0734
 5819TIP3    H217464   0.870   2.158   1.333  0.7931 -1.9766 -0.2673
 5820TIP3   OH217465   6.197   2.198   5.070  0.0243 -0.1785  0.0444
 5820TIP3    H117466   6.267   2.177   5.131 -0.8043 -0.0390  1.0715
 5820TIP3    H217467   6.204   2.132   5.001 -0.6401 -2.0048  1.6410
 5821TIP3   OH217468   0.664   4.567   1.285 -0.3856 -0.6447  0.3892
 5821TIP3    H117469   0.689   4.481   1.250  0.6411  0.7093 -2.5626
 5821TIP3    H217470   0.568   4.562   1.292 -0.5430 -1.4793 -1.5757
 5822TIP3   OH217471   1.407   1.953   3.629 -0.1622  0.1408  0.0145
 5822TIP3    H117472   1.403   2.049   3.631  0.3547  0.1626  1.0335
 5822TIP3    H217473   1.391   1.927   3.720 -0.1851 -0.7317 -0.2339
 5823TIP3   OH217474   1.360   3.667   4.869  0.0177 -0.3139  0.0277
 5823TIP3    H117475   1.447   3.695   4.897 -0.2133  2.4001 -1.5767
 5823TIP3    H217476   1.369   3.574   4.850  2.9457  0.1495 -1.3316
 5824TIP3   OH217477   3.373   2.821   1.564 -0.2146 -0.0674  0.2271
 5824TIP3    H117478   3.391   2.758   1.633 -2.5400  1.2736  2.2483
 5824TIP3    H217479   3.456   2.865   1.549  0.3900 -0.4566  2.1789
 5825TIP3   OH217480   0.843   3.855   4.427 -0.5401 -0.7330 -0.8426
 5825TIP3    H117481   0.888   3.923   4.477 -0.6670  0.1266 -1.8650
 5825TIP3    H217482   0.910   3.817   4.371 -0.9211  0.1279 -1.9194
 5826TIP3   OH217483   2.419   5.556   1.690 -0.0091 -0.5973  0.2557
 5826TIP3    H117484   2.377   5.596   1.614 -0.5976 -0.2471  0.7516
 5826TIP3    H217485   2.410   5.622   1.760 -2.1941 -2.0697  1.4823
 5827TIP3   OH217486   5.876   3.733   3.441 -0.1704  0.0331  0.2848
 5827TIP3    H117487   5.867   3.768   3.530 -1.9632 -1.4117  0.7433
 5827TIP3    H217488   5.924   3.800   3.393 -0.5103  1.5491  1.9557
 5828TIP3   OH217489   3.123   0.334   4.545  0.0370  0.2695 -0.0956
 5828TIP3    H117490   3.053   0.326   4.611 -1.0903 -2.4752 -1.4629
 5828TIP3    H217491   3.180   0.259   4.562  0.0113 -0.1898 -1.8630
 5829TIP3   OH217492   4.102   3.848   0.407 -0.1588 -0.0859 -0.0038
 5829TIP3    H117493   4.156   3.893   0.341  1.0211 -2.4825 -0.7976
 5829TIP3    H217494   4.166   3.814   0.470 -0.9460 -0.9267  0.3534
 5830TIP3   OH217495   5.917   3.848   0.203  0.3102  0.5374  0.2634
 5830TIP3    H117496   5.948   3.935   0.177 -1.3225  1.9037  2.5141
 5830TIP3    H217497   5.953   3.836   0.290 -2.8175  0.8910  1.7224
 5831TIP3   OH217498   2.999   1.286   2.265 -0.2997  0.4957 -0.2049
 5831TIP3    H117499   3.014   1.365   2.215  0.4182 -0.3010 -1.2910
 5831TIP3    H217500   3.082   1.269   2.311 -0.7361  0.8522  0.7459
 5832TIP3   OH217501   4.793   4.508   0.175 -0.2312  0.6384 -0.1822
 5832TIP3    H117502   4.847   4.430   0.167  0.1224  0.7250  1.1174
 5832TIP3    H217503   4.787   4.523   0.269 -1.5722  1.3002 -0.3608
 5833TIP3   OH217504   4.520   3.153   1.344 -0.3160  0.3011  0.1151
 5833TIP3    H117505   4.492   3.109   1.424 -1.6829  0.7846 -0.0507
 5833TIP3    H217506   4.440   3.158   1.291  0.3182  0.9496 -0.8104
 5834TIP3   OH217507   0.141   2.357   1.627 -0.1516  0.4914 -0.2166
 5834TIP3    H117508   0.060   2.315   1.653 -0.0639  0.0971 -0.5690
 5834TIP3    H217509   0.185   2.293   1.571  0.8049  0.3646  0.6457
 5835TIP3   OH217510   1.503   1.188   2.829  0.1523 -0.0173 -0.0727
 5835TIP3    H117511   1.465   1.267   2.791  0.0558  0.5815  1.2058
 5835TIP3    H217512   1.428   1.135   2.855  0.2003  0.2341  0.5885
 5836TIP3   OH217513   2.202   4.864   0.560  0.7021  0.2978 -0.0496
 5836TIP3    H117514   2.188   4.829   0.472  1.3560 -0.0051 -0.0460
 5836TIP3    H217515   2.259   4.940   0.547 -0.1099  0.9302  0.0141
 5837TIP3   OH217516   2.668   3.560   3.812  0.1824  0.2563 -0.0456
 5837TIP3    H117517   2.579   3.528   3.822 -0.2344  1.5662  0.6949
 5837TIP3    H217518   2.716   3.523   3.886 -0.3978  1.5905  1.0512
 5838TIP3   OH217519   1.834   2.971   1.693 -0.0075 -0.2765  0.1133
 5838TIP3    H117520   1.792   3.039   1.640 -1.3826 -1.0563  0.1291
 5838TIP3    H217521   1.781   2.967   1.773  0.3089 -1.0534  0.2908
 5839TIP3   OH217522   2.676   5.020   0.279  0.0097  0.2996  0.0772
 5839TIP3    H117523   2.715   4.933   0.272 -1.9752 -0.5121 -2.1983
 5839TIP3    H217524   2.724   5.074   0.216  0.4277  0.5467  0.5972
 5840TIP3   OH217525   0.063   0.251   3.925  0.2701 -0.2369 -0.0972
 5840TIP3    H117526   0.064   0.284   3.835  0.4771  0.5061  0.1719
 5840TIP3    H217527  -0.027   0.219   3.937 -0.3521  1.4812  0.0664
 5841TIP3   OH217528   0.086   5.793   2.386 -0.7528 -0.0175  0.1986
 5841TIP3    H117529   0.061   5.852   2.456 -0.9208  0.9494 -0.6583
 5841TIP3    H217530   0.042   5.827   2.308 -1.3334 -1.6089 -0.2108
 5842TIP3   OH217531   5.087   5.557   2.810 -0.0882  0.7179 -0.2338
 5842TIP3    H117532   5.145   5.483   2.830 -0.2270  1.3698  3.2269
 5842TIP3    H217533   4.999   5.518   2.805 -0.1679  0.5425  1.6193
 5843TIP3   OH217534   0.392   5.034   0.729 -0.1475  0.0007  0.5831
 5843TIP3    H117535   0.461   4.989   0.777  1.7630  2.8346  0.7629
 5843TIP3    H217536   0.395   4.997   0.641  0.3218 -1.1932  1.0872
 5844TIP3   OH217537   5.298   5.947   2.461  1.0623 -0.1025 -0.0726
 5844TIP3    H117538   5.237   5.998   2.407  0.6563 -2.4190 -1.9474
 5844TIP3    H217539   5.242   5.894   2.517  1.4548  0.1874  0.6131
 5845TIP3   OH217540   2.166   2.457   1.753 -0.4123 -0.2943  0.1665
 5845TIP3    H117541   2.249   2.503   1.742  0.3938 -1.5867  0.5855
 5845TIP3    H217542   2.100   2.526   1.755  0.7096  0.8057  0.4505
 5846TIP3   OH217543   1.028   1.346   0.989 -0.2313  0.3024 -0.2564
 5846TIP3    H117544   0.960   1.282   0.967 -1.9373  2.5521 -2.0703
 5846TIP3    H217545   1.087   1.346   0.914  1.8792 -1.5714  1.2697
 5847TIP3   OH217546   0.837   4.688   3.883  0.0480  0.2708 -0.5422
 5847TIP3    H117547   0.772   4.641   3.935  0.3331 -0.5782 -0.9396
 5847TIP3    H217548   0.786   4.738   3.820 -0.2258 -0.6824 -1.0985
 5848TIP3   OH217549   4.766   4.634   4.396  0.2872 -0.1153  0.7311
 5848TIP3    H117550   4.768   4.590   4.311 -0.4863 -1.6649  1.4649
 5848TIP3    H217551   4.674   4.656   4.410  0.1315 -1.3376  1.8379
 5849TIP3   OH217552   4.865   1.881   4.863  0.0296  0.0965 -0.1074
 5849TIP3    H117553   4.792   1.904   4.805  1.1053  0.6613 -1.2990
 5849TIP3    H217554   4.888   1.964   4.906 -0.9433 -0.3756  1.3962
 5850TIP3   OH217555   4.680   2.532   3.263  0.1628  0.2442  0.1792
 5850TIP3    H117556   4.600   2.572   3.229  1.2917  0.4122 -2.5324
 5850TIP3    H217557   4.668   2.438   3.248  0.5033  0.2779 -0.3074
 5851TIP3   OH217558   0.532   2.727   4.122  0.1778  1.1032 -0.1517
 5851TIP3    H117559   0.476   2.804   4.130 -0.9368  0.2802  0.4360
 5851TIP3    H217560   0.475   2.654   4.149  1.2078  0.0881 -0.6346
 5852TIP3   OH217561   3.970   4.974   2.825 -0.7066  0.0315  0.0525
 5852TIP3    H117562   3.909   4.905   2.849 -1.7309  0.7632 -0.3418
 5852TIP3    H217563   3.973   5.032   2.901  0.6572 -0.7709  0.6340
 5853TIP3   OH217564   4.188   1.533   0.327  0.3035 -0.0400 -0.1081
 5853TIP3    H117565   4.260   1.500   0.381 -0.0494 -0.9136 -0.1551
 5853TIP3    H217566   4.144   1.598   0.382  0.6378 -0.0980  0.2271
 5854TIP3   OH217567   4.258   5.515   0.980  0.6964  0.0392  0.1971
 5854TIP3    H117568   4.229   5.463   1.055  0.8554 -1.6867 -0.8950
 5854TIP3    H217569   4.351   5.530   0.996  0.9245 -1.0596 -0.0621
 5855TIP3   OH217570   3.351   5.182   3.002 -0.1608  0.2632  0.5071
 5855TIP3    H117571   3.334   5.089   3.020  0.8166 -0.2280 -0.9045
 5855TIP3    H217572   3.268   5.214   2.966 -0.8541  0.2429  2.0280
 5856TIP3   OH217573   0.566   5.551   0.848  0.5611  0.5429  0.4182
 5856TIP3    H117574   0.490   5.608   0.838  0.5380  0.4242 -0.1078
 5856TIP3    H217575   0.528   5.463   0.855  0.6809  0.3526 -0.9689
 5857TIP3   OH217576   3.670   2.115   4.987 -0.6928 -0.1793 -0.0203
 5857TIP3    H117577   3.596   2.113   5.048 -0.9591 -0.3566 -0.3490
 5857TIP3    H217578   3.739   2.066   5.031 -1.3193 -1.4728 -0.4267
 5858TIP3   OH217579   0.645   4.511   1.991  0.2157 -0.0161 -0.0373
 5858TIP3    H117580   0.670   4.420   2.008  0.0543 -0.0932 -0.2115
 5858TIP3    H217581   0.717   4.545   1.938 -0.3538 -0.4357 -1.1079
 5859TIP3   OH217582   3.898   5.540   4.308 -0.6847  0.2703 -0.2183
 5859TIP3    H117583   3.804   5.547   4.290 -1.0275 -0.9383  0.9216
 5859TIP3    H217584   3.903   5.487   4.387  0.9269  1.2279  0.3693
 5860TIP3   OH217585   4.833   5.017   1.151 -0.4887 -0.7960  0.3397
 5860TIP3    H117586   4.806   4.976   1.069  0.0184 -0.3230 -0.0719
 5860TIP3    H217587   4.823   5.111   1.136  0.5296 -0.6497  0.4707
 5861TIP3   OH217588   2.493   5.967   2.177 -0.4650  0.5645  0.3163
 5861TIP3    H117589   2.562   5.911   2.143 -2.1241  0.0443 -2.5367
 5861TIP3    H217590   2.478   5.935   2.266  0.6438 -1.5645 -0.1850
 5862TIP3   OH217591   5.647   0.409   1.724 -0.7299 -0.1454 -0.3366
 5862TIP3    H117592   5.685   0.461   1.795 -1.9037  1.3012 -0.7123
 5862TIP3    H217593   5.663   0.460   1.645 -1.3255 -0.6705 -0.8146
 5863TIP3   OH217594   5.525   0.411   4.772 -0.3962 -0.6548 -0.4553
 5863TIP3    H117595   5.477   0.493   4.765  0.3035 -0.2936 -1.1643
 5863TIP3    H217596   5.528   0.377   4.683 -0.5710 -1.3886 -0.1872
 5864TIP3   OH217597   1.178   2.539   1.093 -0.1301  0.3920  0.0842
 5864TIP3    H117598   1.266   2.510   1.117 -0.3736 -1.0861 -0.7012
 5864TIP3    H217599   1.188   2.631   1.072  0.8922  0.6940  1.6664
 5865TIP3   OH217600   2.929   5.452   3.531 -0.0843  0.3462 -0.1076
 5865TIP3    H117601   2.929   5.537   3.487  0.7433  0.1090 -0.5896
 5865TIP3    H217602   3.011   5.411   3.504  0.7341  0.4194  2.1045
 5866TIP3   OH217603   1.158   2.493   2.370 -0.2055  0.0617 -0.6558
 5866TIP3    H117604   1.179   2.413   2.418  0.7293  1.5600  1.5735
 5866TIP3    H217605   1.069   2.478   2.336  0.5835 -2.5702 -1.8665
 5867TIP3   OH217606   4.035   0.954   2.852  0.2319 -0.5818 -0.0790
 5867TIP3    H117607   3.986   1.011   2.792 -0.6566  1.8446  2.7079
 5867TIP3    H217608   4.123   0.992   2.855  1.0031 -2.1098 -1.4882
 5868TIP3   OH217609   1.165   3.207   0.189  0.4591 -0.2538  0.2097
 5868TIP3    H117610   1.204   3.277   0.137 -0.7417 -1.1534 -2.0543
 5868TIP3    H217611   1.112   3.253   0.255 -1.3467  1.0866 -2.0180
 5869TIP3   OH217612   5.556   4.946   0.240  0.3452 -0.1148 -0.5665
 5869TIP3    H117613   5.507   5.003   0.298  1.5950  0.3489  0.0649
 5869TIP3    H217614   5.495   4.875   0.218  0.1099 -0.7826  1.9984
 5870TIP3   OH217615   0.863   2.095   3.402 -0.0911 -0.4769 -0.2912
 5870TIP3    H117616   0.938   2.116   3.346  0.4111 -1.2035  0.0881
 5870TIP3    H217617   0.801   2.166   3.388  1.4231  1.1205  0.7584
 5871TIP3   OH217618   5.075   5.186   3.602 -0.2343  0.4710 -0.7626
 5871TIP3    H117619   5.115   5.222   3.523 -0.1824  1.1880 -0.4199
 5871TIP3    H217620   5.077   5.091   3.589  1.7884  0.4536 -0.6714
 5872TIP3   OH217621   1.083   2.388   3.277 -0.2607  0.0301 -0.0438
 5872TIP3    H117622   1.148   2.330   3.318 -1.4808 -0.8224  0.7612
 5872TIP3    H217623   1.056   2.341   3.197 -0.4849 -0.0158  0.0576
 5873TIP3   OH217624   0.091   0.606   4.017 -0.2361  0.0285  0.0349
 5873TIP3    H117625   0.177   0.642   4.039  0.8740 -2.6117  0.4111
 5873TIP3    H217626   0.089   0.607   3.921 -0.6665  1.8849  0.0211
 5874TIP3   OH217627   1.743   0.027   1.134 -0.3902 -0.4806  0.0429
 5874TIP3    H117628   1.835   0.054   1.139 -0.4712 -0.2147  0.1207
 5874TIP3    H217629   1.712   0.032   1.224 -1.0180  1.3571 -0.2292
 5875TIP3   OH217630   6.259   4.187   4.901 -0.1703 -0.0216 -0.1378
 5875TIP3    H117631   6.259   4.280   4.882  0.5531  0.2837  1.2071
 5875TIP3    H217632   6.301   4.147   4.825  1.1918  0.9605  0.0599
 5876TIP3   OH217633   0.162   1.114   0.939 -0.1223  0.5542 -0.1144
 5876TIP3    H117634   0.131   1.030   0.906 -0.8828  0.4991  0.7228
 5876TIP3    H217635   0.154   1.174   0.864 -1.1653  0.2726 -0.2309
 5877TIP3   OH217636   0.134   5.908   0.538  0.2411 -0.2550 -0.6577
 5877TIP3    H117637   0.066   5.974   0.521 -0.2344 -0.4602  0.3435
 5877TIP3    H217638   0.184   5.945   0.611  0.4112 -0.6851 -0.5574
 5878TIP3   OH217639   4.804   3.772   2.221  0.1316 -0.2489  0.4882
 5878TIP3    H117640   4.741   3.775   2.149 -0.2315 -0.2439  0.8050
 5878TIP3    H217641   4.883   3.812   2.185 -0.3222  0.5511  0.3517
 5879TIP3   OH217642   4.221   5.805   1.903  0.5147  0.7182 -0.1901
 5879TIP3    H117643   4.162   5.863   1.952 -1.1372 -1.7755  1.0155
 5879TIP3    H217644   4.287   5.778   1.968 -0.2421 -0.6749  0.0512
 5880TIP3   OH217645   0.633   3.429   1.414 -0.1690  0.0252  0.0659
 5880TIP3    H117646   0.637   3.523   1.396 -0.0100 -0.1343 -0.7474
 5880TIP3    H217647   0.685   3.389   1.345 -3.2001 -0.9779 -1.8243
 5881TIP3   OH217648   1.628   3.564   5.018  0.4368 -0.0611  0.0586
 5881TIP3    H117649   1.625   3.650   4.975  0.0188 -0.5263 -0.8663
 5881TIP3    H217650   1.714   3.528   4.994  1.1975  0.6354  1.5661
 5882TIP3   OH217651   2.855   0.750   1.708 -0.2664 -0.0276 -0.5573
 5882TIP3    H117652   2.933   0.727   1.759 -0.3879 -0.6766 -0.6488
 5882TIP3    H217653   2.889   0.798   1.633 -0.0774  0.8612  0.0759
 5883TIP3   OH217654   3.186   3.952   1.638  0.4666  0.5168  0.4678
 5883TIP3    H117655   3.204   4.022   1.576  3.0959  0.7830  1.4099
 5883TIP3    H217656   3.207   3.989   1.724 -1.1859 -0.4506  1.3400
 5884TIP3   OH217657   0.195   1.224   1.568  0.1529  0.3201 -0.8719
 5884TIP3    H117658   0.251   1.153   1.600  0.5151  0.4112 -1.3053
 5884TIP3    H217659   0.253   1.279   1.515  0.1135  1.4652  0.2087
 5885TIP3   OH217660   3.834   0.096   4.472 -0.2077  0.4431  0.2139
 5885TIP3    H117661   3.791   0.181   4.460 -0.9093  0.3794  1.9089
 5885TIP3    H217662   3.915   0.117   4.518 -0.9518  0.1324  1.7318
 5886TIP3   OH217663   2.034   0.933   5.001  0.6981 -0.2180 -0.5961
 5886TIP3    H117664   1.998   0.950   4.914  2.2271  2.0912 -0.8624
 5886TIP3    H217665   2.126   0.910   4.985  1.4430  1.8444  0.4295
 5887TIP3   OH217666   4.839   1.114   4.036 -0.3977 -0.5724  0.2742
 5887TIP3    H117667   4.855   1.086   3.945 -0.3485  2.1088 -0.6356
 5887TIP3    H217668   4.756   1.161   4.032  0.9079  1.9668  0.9595
 5888TIP3   OH217669   3.618   5.163   0.427  0.0085 -0.5435  0.2158
 5888TIP3    H117670   3.676   5.152   0.503  0.1152 -0.1170  0.1986
 5888TIP3    H217671   3.568   5.082   0.423 -0.1487 -0.4861  0.8734
 5889TIP3   OH217672   1.129   2.120   4.401 -0.4286  0.1814 -0.2693
 5889TIP3    H117673   1.220   2.090   4.398 -0.3466  0.3733  0.1221
 5889TIP3    H217674   1.097   2.112   4.311  0.0671  0.3849 -0.4658
 5890TIP3   OH217675   4.982   1.776   0.705 -0.5866 -0.1383  0.1258
 5890TIP3    H117676   4.917   1.828   0.657  0.2774 -0.2606 -1.2492
 5890TIP3    H217677   4.984   1.692   0.658 -2.1168 -1.5633  2.4228
 5891TIP3   OH217678   2.963   2.709   4.717  0.6619 -0.3119  0.0150
 5891TIP3    H117679   3.035   2.731   4.776 -0.0227  1.2876  0.2873
 5891TIP3    H217680   2.922   2.632   4.756  2.4870 -1.5790 -0.4063
 5892TIP3   OH217681   3.964   0.886   1.650  0.1374 -0.6550  0.2838
 5892TIP3    H117682   4.046   0.930   1.627 -0.4484 -0.2275 -1.1095
 5892TIP3    H217683   3.991   0.807   1.695  1.3003 -0.1676  0.4730
 5893TIP3   OH217684   0.990   5.733   3.932 -0.3819 -0.5057  0.0860
 5893TIP3    H117685   1.082   5.721   3.957 -0.0526  0.3886 -0.6536
 5893TIP3    H217686   0.946   5.757   4.014  0.6363  2.1698 -0.0608
 5894TIP3   OH217687   6.076   1.257   1.538 -0.3193 -0.6013  0.1692
 5894TIP3    H117688   6.033   1.301   1.464 -1.0909 -0.0511  0.9248
 5894TIP3    H217689   6.124   1.184   1.498  0.4248  0.5109 -1.0334
 5895TIP3   OH217690   4.739   0.747   0.347  0.0948  0.4071 -0.4085
 5895TIP3    H117691   4.650   0.717   0.359 -0.4583  1.9863 -0.2574
 5895TIP3    H217692   4.793   0.680   0.389 -1.0763 -0.0783  0.3754
 5896TIP3   OH217693   3.792   5.137   0.945  0.2796  0.1775 -0.1191
 5896TIP3    H117694   3.850   5.153   1.019 -0.6409 -0.1193  0.6892
 5896TIP3    H217695   3.776   5.224   0.909  2.3593  0.1471 -1.2847
 5897TIP3   OH217696   3.195   1.005   3.917 -0.0403  0.1586  0.3228
 5897TIP3    H117697   3.120   0.980   3.972 -1.7284 -2.5879 -2.7854
 5897TIP3    H217698   3.161   1.074   3.860 -0.2723 -1.0036 -1.0105
 5898TIP3   OH217699   0.491   4.531   3.870 -0.0875  0.6725 -0.2688
 5898TIP3    H117700   0.454   4.447   3.842 -1.0227  1.3263 -1.0666
 5898TIP3    H217701   0.563   4.546   3.809  0.5220  0.1331  0.3072
 5899TIP3   OH217702   1.621   0.526   0.286  0.2371  0.0958  0.3122
 5899TIP3    H117703   1.640   0.441   0.247 -2.4069  0.1141 -1.2239
 5899TIP3    H217704   1.545   0.510   0.341  0.4869  1.2377  1.0069
 5900TIP3   OH217705   3.715   0.012   0.769 -0.1310  0.0921 -0.3950
 5900TIP3    H117706   3.770   0.085   0.797 -0.2469  0.1703 -0.3722
 5900TIP3    H217707   3.684   0.037   0.682 -1.3297  0.7179  0.1965
 5901TIP3   OH217708   4.424   5.530   2.739 -0.1934  0.5539 -0.0802
 5901TIP3    H117709   4.404   5.483   2.658  0.1652  0.3905 -0.0777
 5901TIP3    H217710   4.408   5.467   2.809 -2.0281  1.1717  0.1022
 5902TIP3   OH217711   5.405   3.336   2.575  0.0059  0.3558 -0.8978
 5902TIP3    H117712   5.413   3.241   2.578  0.9020  0.4173  2.9823
 5902TIP3    H217713   5.331   3.352   2.517 -1.1983 -2.7908 -0.3993
 5903TIP3   OH217714   5.663   3.149   0.076 -0.2217  0.1878  0.7982
 5903TIP3    H117715   5.569   3.149   0.059 -0.1216 -0.4174  0.2141
 5903TIP3    H217716   5.679   3.230   0.125 -0.6831  1.5434 -1.1834
 5904TIP3   OH217717   5.790   0.311   2.983  0.1956  0.3967 -0.5214
 5904TIP3    H117718   5.875   0.269   2.975  0.5972  0.7236  1.4832
 5904TIP3    H217719   5.726   0.240   2.973  0.7858 -0.2679  0.3768
 5905TIP3   OH217720   0.178   0.016   3.184 -0.2099 -0.8903 -0.2137
 5905TIP3    H117721   0.157   0.107   3.202  0.9823 -0.5739 -0.3179
 5905TIP3    H217722   0.197  -0.022   3.270 -3.3535 -1.8174  0.2026
 5906TIP3   OH217723   0.210   0.019   4.978 -0.5546  0.5138  0.0424
 5906TIP3    H117724   0.164   0.081   5.034  2.0459  1.1415  1.6940
 5906TIP3    H217725   0.186  -0.067   5.012 -2.8867  0.6133 -1.1950
 5907TIP3   OH217726   4.472   1.945   1.077  0.0129  0.2038 -0.2560
 5907TIP3    H117727   4.421   2.025   1.069  0.8212  0.7834  0.3163
 5907TIP3    H217728   4.407   1.876   1.089 -0.5948  1.0814  1.7288
 5908TIP3   OH217729   3.556   2.967   3.223 -0.5487 -0.1178 -0.0074
 5908TIP3    H117730   3.586   2.923   3.143  1.4233  0.5150  0.3316
 5908TIP3    H217731   3.473   3.007   3.198 -1.4549 -2.4097 -0.8503
 5909TIP3   OH217732   0.950   5.914   1.886  0.0570 -0.0852  0.0132
 5909TIP3    H117733   0.937   5.920   1.981 -1.4020  0.9023 -0.2116
 5909TIP3    H217734   0.890   5.980   1.850 -1.3736 -2.2220 -1.7328
 5910TIP3   OH217735   1.966   4.208   2.495  0.2346  0.4856 -0.0054
 5910TIP3    H117736   1.878   4.209   2.458  0.1663 -0.0151  0.1373
 5910TIP3    H217737   1.972   4.290   2.545 -0.7493 -0.2407  1.3532
 5911TIP3   OH217738   5.126   5.779   2.637  0.0043 -0.6365 -0.2259
 5911TIP3    H117739   5.156   5.699   2.680  0.4480 -0.3645 -0.0202
 5911TIP3    H217740   5.045   5.802   2.684 -0.2521 -1.0894 -0.4426
 5912TIP3   OH217741   5.687   0.671   3.340  0.3246 -0.5971  0.0848
 5912TIP3    H117742   5.709   0.612   3.267  1.3326 -0.3271  0.1563
 5912TIP3    H217743   5.739   0.749   3.323 -3.0585  1.5473 -1.5958
 5913TIP3   OH217744   3.645   0.942   3.006 -0.0367 -0.6891  0.5525
 5913TIP3    H117745   3.642   1.032   3.039  0.4726 -0.9330  1.2848
 5913TIP3    H217746   3.728   0.907   3.038 -1.0800 -2.0291  1.9167
 5914TIP3   OH217747   2.008   2.907   3.795  0.7492 -0.3617 -0.3267
 5914TIP3    H117748   2.077   2.970   3.778 -0.8004  0.9724 -2.0936
 5914TIP3    H217749   2.008   2.849   3.719 -0.3995  0.0121 -0.6360
 5915TIP3   OH217750   0.474   5.897   1.337 -0.1981 -0.1820 -0.6252
 5915TIP3    H117751   0.474   5.882   1.242  2.2486  1.0966 -0.8889
 5915TIP3    H217752   0.564   5.881   1.364 -0.3627  1.5723  1.1266
 5916TIP3   OH217753   0.966   4.391   2.101 -0.5057  0.3858 -0.2619
 5916TIP3    H117754   0.889   4.351   2.062 -0.2788  1.0067 -1.3831
 5916TIP3    H217755   0.932   4.445   2.173 -1.0589  0.2195 -0.3993
 5917TIP3   OH217756   2.976   1.866   1.242  0.6405 -0.6296  0.0815
 5917TIP3    H117757   2.961   1.880   1.336  3.0168 -1.5836  0.6592
 5917TIP3    H217758   2.993   1.953   1.207  0.7166 -0.3779  0.7329
 5918TIP3   OH217759   4.408   3.425   1.204 -0.0540 -0.2676  0.1804
 5918TIP3    H117760   4.333   3.392   1.254 -0.7601  0.6478 -0.2253
 5918TIP3    H217761   4.439   3.350   1.154 -1.4111 -0.4147 -0.4902
 5919TIP3   OH217762   2.612   2.378   0.290  0.2958  1.0365 -0.8165
 5919TIP3    H117763   2.599   2.406   0.380  0.8386 -0.1104 -0.3660
 5919TIP3    H217764   2.529   2.399   0.246 -0.7588 -0.2439  0.4560
 5920TIP3   OH217765   0.776   2.166   2.844 -0.3302 -0.1847  0.0709
 5920TIP3    H117766   0.717   2.200   2.910 -1.0352 -1.9470  0.3995
 5920TIP3    H217767   0.734   2.086   2.812  1.1020 -0.6238 -0.8424
 5921TIP3   OH217768   2.548   1.908   2.776 -0.3643  0.0609 -0.3780
 5921TIP3    H117769   2.597   1.856   2.841  1.6344  1.3858 -0.7217
 5921TIP3    H217770   2.487   1.846   2.737 -0.0147 -1.3345  1.1667
 5922TIP3   OH217771   3.046   1.597   1.296  0.2510 -0.1835  0.5764
 5922TIP3    H117772   3.019   1.688   1.293  0.3161 -0.0587  2.4687
 5922TIP3    H217773   3.136   1.597   1.263 -0.0329  0.2869 -0.2237
 5923TIP3   OH217774   3.374   0.919   2.879  0.0928 -0.1553 -0.2873
 5923TIP3    H117775   3.401   0.863   2.952 -1.4338 -1.1066 -0.3989
 5923TIP3    H217776   3.449   0.977   2.864  0.0762  0.8614  2.7623
 5924TIP3   OH217777   0.830   2.155   3.791 -0.2398  0.2525  0.1462
 5924TIP3    H117778   0.791   2.079   3.747  0.6157 -0.9546  1.4048
 5924TIP3    H217779   0.758   2.217   3.799 -0.7601 -0.0549 -1.6688
 5925TIP3   OH217780   1.731   4.880   4.325  0.8398  0.2767 -0.2381
 5925TIP3    H117781   1.763   4.835   4.404 -1.2920  0.7266  0.9625
 5925TIP3    H217782   1.755   4.972   4.339  1.3961  0.1949 -0.6358
 5926TIP3   OH217783   1.929   2.922   0.389 -0.0742  0.3311 -0.2026
 5926TIP3    H117784   2.006   2.926   0.447  0.2909  1.2899 -0.7399
 5926TIP3    H217785   1.877   2.998   0.414 -1.5222 -0.9731  1.0265
 5927TIP3   OH217786   3.249   2.080   0.943 -0.4001  0.0389  0.4078
 5927TIP3    H117787   3.166   2.065   0.986 -0.5667 -1.8771 -0.4822
 5927TIP3    H217788   3.233   2.153   0.884 -1.0497  0.5599  1.2119
 5928TIP3   OH217789   2.928   4.561   3.074 -0.1305  0.3897  0.1130
 5928TIP3    H117790   2.930   4.550   2.979 -2.6564  1.9488 -0.2315
 5928TIP3    H217791   2.875   4.488   3.106 -0.3195  0.5474  0.1640
 5929TIP3   OH217792   6.227   5.635   4.000  0.0901  0.4496 -0.5962
 5929TIP3    H117793   6.221   5.685   4.081 -0.8961 -0.9748  0.2674
 5929TIP3    H217794   6.289   5.565   4.019 -0.0249  0.1959 -1.1182
 5930TIP3   OH217795   5.939   2.074   2.336 -0.6495  0.3529 -0.3696
 5930TIP3    H117796   5.925   2.123   2.255  0.6035  1.0659 -0.1805
 5930TIP3    H217797   5.884   2.118   2.401 -1.0373  0.2782 -0.6458
 5931TIP3   OH217798   3.163   3.321   0.389  0.1968  0.3788  1.0517
 5931TIP3    H117799   3.117   3.294   0.469 -3.0318  0.3234 -0.7066
 5931TIP3    H217800   3.140   3.413   0.378  0.9554  0.4963  0.3730
 5932TIP3   OH217801   5.493   4.085   4.957  0.0407  0.1919  0.0824
 5932TIP3    H117802   5.485   4.181   4.960 -0.5869  0.1610 -0.4294
 5932TIP3    H217803   5.515   4.060   5.047  0.8556  0.8673  0.0846
 5933TIP3   OH217804   1.528   3.337   4.206  0.8675  0.1830 -0.0727
 5933TIP3    H117805   1.515   3.402   4.137 -1.7753 -1.2533 -1.0521
 5933TIP3    H217806   1.590   3.274   4.168  0.2961  0.0040 -0.7367
 5934TIP3   OH217807   5.268   5.280   2.073  0.1834  0.4945  0.1179
 5934TIP3    H117808   5.347   5.227   2.080  0.1706  0.6496  2.3580
 5934TIP3    H217809   5.298   5.369   2.094 -0.0852  1.1281 -1.9909
 5935TIP3   OH217810   6.217   1.320   3.851  0.2735 -0.0989 -0.3114
 5935TIP3    H117811   6.278   1.309   3.779 -1.6469  0.4606 -2.1319
 5935TIP3    H217812   6.154   1.249   3.841 -1.6091  1.5531 -0.9524
 5936TIP3   OH217813   1.099   1.097   2.604  0.0286 -0.0495 -0.1106
 5936TIP3    H117814   1.047   1.040   2.660 -0.4003  1.7760  1.4574
 5936TIP3    H217815   1.057   1.183   2.611  1.5278  0.8247 -1.1650
 5937TIP3   OH217816   3.170   4.987   2.756 -0.3426  0.2385  0.0987
 5937TIP3    H117817   3.168   4.912   2.696 -0.7083  0.0523  0.3380
 5937TIP3    H217818   3.078   5.004   2.776 -0.1985 -0.1721  1.1871
 5938TIP3   OH217819   1.971   5.749   4.856 -0.9279 -0.6038 -0.1368
 5938TIP3    H117820   1.931   5.725   4.940 -2.7132  2.8100  0.1456
 5938TIP3    H217821   1.906   5.804   4.813  1.9473  2.0781 -1.4542
 5939TIP3   OH217822   5.720   0.904   2.492  0.2043  0.1123 -0.2173
 5939TIP3    H117823   5.750   0.899   2.401 -0.3741 -0.4206 -0.3878
 5939TIP3    H217824   5.796   0.933   2.541  0.4447  0.6864 -0.9119
 5940TIP3   OH217825   2.798   2.460   3.422  0.0786 -0.1177 -0.0352
 5940TIP3    H117826   2.745   2.467   3.342 -0.3893  0.5399  0.3185
 5940TIP3    H217827   2.863   2.529   3.413 -0.9152  0.9709  0.8212
 5941TIP3   OH217828   3.740   0.913   2.114  0.6637  0.2698  0.2051
 5941TIP3    H117829   3.733   0.993   2.062  3.1933  0.5283  0.1333
 5941TIP3    H217830   3.737   0.944   2.205  0.5339  0.3209  0.1834
 5942TIP3   OH217831   2.136   5.615   4.304 -0.4972  0.3980  0.2496
 5942TIP3    H117832   2.106   5.623   4.395 -0.8278  0.7571  0.1099
 5942TIP3    H217833   2.231   5.604   4.311 -0.2446  2.4882  0.5513
 5943TIP3   OH217834   2.380   2.863   4.289  0.4113  0.7238 -0.0162
 5943TIP3    H117835   2.473   2.839   4.287  0.6082  1.1645  1.9872
 5943TIP3    H217836   2.371   2.917   4.367 -1.4784  1.0043 -0.3856
 5944TIP3   OH217837   6.091   3.346   4.081  0.3320  0.1770  0.5295
 5944TIP3    H117838   5.999   3.369   4.072  0.9090  2.3434 -0.3906
 5944TIP3    H217839   6.115   3.311   3.995  0.5873  0.4826  0.4753
 5945TIP3   OH217840   2.090   3.448   4.431 -0.6687  0.0492  0.1311
 5945TIP3    H117841   2.092   3.372   4.373  2.4315  0.7570 -0.8295
 5945TIP3    H217842   2.154   3.508   4.395 -0.2426  1.5191  3.0329
 5946TIP3   OH217843   2.099   1.530   3.174  0.0245  0.5706 -0.0058
 5946TIP3    H117844   2.017   1.498   3.135  0.3573  0.7067 -0.8477
 5946TIP3    H217845   2.071   1.600   3.233 -0.3407  2.0863 -1.8802
 5947TIP3   OH217846   1.777   5.068   3.846 -0.4561 -0.3107  0.2368
 5947TIP3    H117847   1.717   5.143   3.844  0.2772  0.3583  1.9180
 5947TIP3    H217848   1.770   5.035   3.935  1.1543 -0.6523  0.2553
 5948TIP3   OH217849   3.818   4.840   1.561  0.8701 -0.2547  0.0340
 5948TIP3    H117850   3.899   4.804   1.596  0.4108 -1.9719 -0.5604
 5948TIP3    H217851   3.758   4.841   1.635  0.3847 -2.3838 -0.2552
 5949TIP3   OH217852   2.785   5.218   5.129 -0.6945 -0.6149 -0.5968
 5949TIP3    H117853   2.813   5.268   5.053 -0.1538  0.8577  0.5298
 5949TIP3    H217854   2.861   5.217   5.187 -1.7505  0.1762  0.8638
 5950TIP3   OH217855   3.105   3.882   3.861  0.4493  0.0233 -0.7345
 5950TIP3    H117856   3.111   3.799   3.909 -1.3886  0.1700 -0.1728
 5950TIP3    H217857   3.196   3.909   3.849  1.0296 -1.0961  0.7855
 5951TIP3   OH217858   1.113   0.911   4.086 -0.3341  0.3460 -0.0442
 5951TIP3    H117859   1.039   0.917   4.026 -0.0841 -1.1479 -0.5238
 5951TIP3    H217860   1.190   0.927   4.031 -0.0960 -1.1272 -0.1744
 5952TIP3   OH217861   6.372   0.953   2.641  0.2695  0.4679  0.2789
 5952TIP3    H117862   6.363   0.860   2.621 -0.3908  0.9853 -2.0680
 5952TIP3    H217863   6.330   0.963   2.727  1.7045 -1.6019  1.3213
 5953TIP3   OH217864   0.763   5.137   5.166  0.2811 -0.1550 -0.1272
 5953TIP3    H117865   0.682   5.112   5.210 -0.4698  0.2064 -1.2471
 5953TIP3    H217866   0.766   5.232   5.173  0.9565 -0.2117  0.4703
 5954TIP3   OH217867   3.023   3.519   2.274 -0.4168  0.2074  0.6768
 5954TIP3    H117868   2.941   3.471   2.282 -0.8959  0.9132  0.1681
 5954TIP3    H217869   3.091   3.452   2.275 -1.1730 -0.8688 -3.0623
 5955TIP3   OH217870   2.046   2.133   2.339 -0.4396 -0.1117 -0.4014
 5955TIP3    H117871   2.127   2.097   2.302 -1.7492 -2.4211 -1.2501
 5955TIP3    H217872   1.977   2.089   2.289 -2.3375 -2.0368  3.5197
 5956TIP3   OH217873   3.018   4.329   4.587  0.4211  0.2794 -0.0708
 5956TIP3    H117874   3.015   4.344   4.492  1.1729  1.7173  0.1200
 5956TIP3    H217875   2.936   4.367   4.619  1.4469  2.4165  0.1715
 5957TIP3   OH217876   1.900   3.973   4.729 -0.0381  0.2758 -0.1281
 5957TIP3    H117877   1.939   3.913   4.665 -0.2018 -0.4961  0.4790
 5957TIP3    H217878   1.806   3.961   4.718 -0.0675 -0.0368  0.4044
 5958TIP3   OH217879   2.721   4.155   5.165 -0.1578  0.0510  0.2610
 5958TIP3    H117880   2.659   4.210   5.212  1.9200  0.7848  2.3371
 5958TIP3    H217881   2.734   4.199   5.081  1.7458  3.1515  2.0013
 5959TIP3   OH217882   0.755   3.805   3.548 -0.5185  0.4997 -0.4236
 5959TIP3    H117883   0.703   3.861   3.489  0.9958  0.1997 -2.1363
 5959TIP3    H217884   0.705   3.724   3.554 -1.8501  1.3584  0.6375
 5960TIP3   OH217885   2.080   4.532   2.880  0.3345  0.4563 -0.3713
 5960TIP3    H117886   2.052   4.518   2.970  0.2059 -1.2205 -0.6368
 5960TIP3    H217887   2.169   4.497   2.877 -0.4200 -1.5269 -1.3699
 5961TIP3   OH217888   5.539   0.268   2.123 -0.1665  0.0691  0.0912
 5961TIP3    H117889   5.620   0.218   2.115  0.4094  1.1170 -0.9361
 5961TIP3    H217890   5.496   0.232   2.201  0.2933 -1.8858 -0.4982
 5962TIP3   OH217891   3.994   0.482   2.180  0.0795 -0.3593 -0.5967
 5962TIP3    H117892   4.065   0.546   2.191 -0.2813  0.5543 -2.8924
 5962TIP3    H217893   4.033   0.399   2.206  0.6210  0.7001  2.3297
 5963TIP3   OH217894   1.140   0.384   1.674  0.2483 -0.2815 -0.3476
 5963TIP3    H117895   1.232   0.409   1.684  0.2412 -0.6377  0.7325
 5963TIP3    H217896   1.130   0.305   1.727 -0.7615 -0.0484 -0.1654
 5964TIP3   OH217897   0.345   1.094   0.176 -0.3653  0.3709  0.0799
 5964TIP3    H117898   0.380   1.172   0.133  0.3976  1.1642  2.0209
 5964TIP3    H217899   0.252   1.095   0.154 -0.3003  1.6343 -0.2550
 5965TIP3   OH217900   3.039   4.980   3.336  0.0493  0.5095  0.6620
 5965TIP3    H117901   2.964   4.931   3.304  0.1524 -0.0071  1.1920
 5965TIP3    H217902   3.083   5.012   3.257  0.6982 -1.3355  0.2212
 5966TIP3   OH217903   4.461   0.365   4.141  0.3816 -0.0572  0.0025
 5966TIP3    H117904   4.470   0.338   4.232  1.7144  1.2716  0.3073
 5966TIP3    H217905   4.548   0.352   4.103  0.5666  1.8855 -0.3302
 5967TIP3   OH217906   4.328   4.274   2.466  0.3136  0.5217 -0.4556
 5967TIP3    H117907   4.391   4.223   2.414  0.2980 -0.2586  0.2650
 5967TIP3    H217908   4.268   4.208   2.501 -0.1325  1.1218 -0.0787
 5968TIP3   OH217909   5.706   3.965   2.794  0.5781  0.0095  0.3902
 5968TIP3    H117910   5.640   3.953   2.726 -0.8354  1.8257  1.3505
 5968TIP3    H217911   5.756   3.883   2.793 -1.2328 -1.1695 -0.8598
 5969TIP3   OH217912   1.957   3.181   1.285 -0.2139 -0.5918 -0.4650
 5969TIP3    H117913   1.944   3.096   1.242 -0.3310 -0.7098 -0.2010
 5969TIP3    H217914   1.965   3.159   1.378  1.8912 -0.5353 -0.5805
 5970TIP3   OH217915   3.054   3.272   4.096  0.2252  0.0347  0.6169
 5970TIP3    H117916   3.093   3.189   4.067 -0.4849  0.1148 -0.6535
 5970TIP3    H217917   3.056   3.268   4.192 -0.0684 -1.5899  0.5862
 5971TIP3   OH217918   1.810   5.457   1.904 -0.0088  0.3930  0.0804
 5971TIP3    H117919   1.813   5.433   1.811  0.2331  1.0766 -0.0994
 5971TIP3    H217920   1.791   5.375   1.950  2.2512 -0.4487 -0.3755
 5972TIP3   OH217921   1.412   3.014   4.715 -0.3695 -0.1848 -0.2399
 5972TIP3    H117922   1.328   3.010   4.762  0.0603  1.1928  0.7380
 5972TIP3    H217923   1.476   2.980   4.778  0.1450  1.2077  0.0270
 5973TIP3   OH217924   4.342   4.498   1.394 -0.5963  0.6070  0.1314
 5973TIP3    H117925   4.324   4.591   1.387 -3.2222  0.1211 -1.1241
 5973TIP3    H217926   4.338   4.466   1.304  0.8909 -0.6414  0.4725
 5974TIP3   OH217927   0.075   1.719   3.084  0.2500 -0.3431  0.0302
 5974TIP3    H117928   0.160   1.752   3.112 -0.2900 -0.7694  2.3915
 5974TIP3    H217929   0.082   1.624   3.093  0.0122 -0.4966 -1.2783
 5975TIP3   OH217930   1.717   4.666   4.533  0.2018  0.5565 -0.4437
 5975TIP3    H117931   1.767   4.741   4.565  0.2012 -0.0045  0.9403
 5975TIP3    H217932   1.630   4.677   4.571  0.3500 -0.4120  0.2143
 5976TIP3   OH217933   6.189   5.877   0.039 -0.4642 -0.6988 -0.6225
 5976TIP3    H117934   6.224   5.803   0.089 -0.8514  0.3348  1.2635
 5976TIP3    H217935   6.241   5.952   0.069 -0.8554 -0.0053 -1.6424
 5977TIP3   OH217936   0.861   1.470   2.363 -0.3455 -0.0067 -0.2105
 5977TIP3    H117937   0.787   1.531   2.364 -1.5861 -1.4081 -2.0217
 5977TIP3    H217938   0.853   1.422   2.445  0.5915  2.0910  1.2124
 5978TIP3   OH217939   4.031   1.741   0.430  0.2880  0.4750  0.3921
 5978TIP3    H117940   4.029   1.832   0.460  2.0570  0.7669 -0.2583
 5978TIP3    H217941   4.025   1.689   0.510  3.8458  1.2201  1.3439
 5979TIP3   OH217942   2.400   3.880   0.026 -0.2399 -0.5634 -0.3672
 5979TIP3    H117943   2.338   3.899  -0.044 -0.6244 -0.4149  0.0075
 5979TIP3    H217944   2.406   3.784   0.028 -0.0542 -0.5598 -0.7491
 5980TIP3   OH217945   3.597   0.675   0.673  0.1166 -0.0596  0.2750
 5980TIP3    H117946   3.513   0.631   0.668 -0.4577  1.1442 -2.6508
 5980TIP3    H217947   3.660   0.610   0.641  0.0510 -0.4090  0.8500
 5981TIP3   OH217948   1.154   2.735   4.022 -0.3386 -0.0569  0.3724
 5981TIP3    H117949   1.176   2.691   3.940  0.5518 -0.3800  0.7721
 5981TIP3    H217950   1.237   2.771   4.053 -0.9946  1.7214  0.1851
 5982TIP3   OH217951   3.493   1.350   4.234  0.2792  0.2243  0.3334
 5982TIP3    H117952   3.523   1.336   4.324 -1.3442 -1.9485  0.6115
 5982TIP3    H217953   3.434   1.424   4.240 -1.6325 -1.2947  1.5878
 5983TIP3   OH217954   5.963   2.909   2.700  0.3148  0.0675  0.3967
 5983TIP3    H117955   5.931   2.997   2.682 -0.1158  0.0357  0.9894
 5983TIP3    H217956   6.006   2.882   2.618  1.4102  1.2447  0.5588
 5984TIP3   OH217957   4.046   3.951   2.999  0.1165 -0.3739  0.1875
 5984TIP3    H117958   3.963   3.964   3.046  0.7871  0.3756  1.2045
 5984TIP3    H217959   4.084   3.873   3.040  0.0942 -0.4980 -0.0263
 5985TIP3   OH217960   6.308   4.092   3.091  0.3246  0.2414 -0.1863
 5985TIP3    H117961   6.397   4.076   3.124  0.0187  0.9104  0.9966
 5985TIP3    H217962   6.285   4.010   3.046  1.6326  0.1558 -0.7790
 5986TIP3   OH217963   4.102   0.646   5.023  0.3530  0.1180  0.0945
 5986TIP3    H117964   4.185   0.623   4.981 -0.1384 -0.3319 -0.6587
 5986TIP3    H217965   4.051   0.566   5.021 -0.7902  0.8226 -1.1493
 5987TIP3   OH217966   1.140   4.755   1.833  0.4241 -0.1030 -0.2219
 5987TIP3    H117967   1.219   4.745   1.780  0.9782 -0.4123  0.6323
 5987TIP3    H217968   1.154   4.696   1.907 -0.1854  0.5549  0.4290
 5988TIP3   OH217969   5.038   4.591   4.975 -0.0155 -0.4467  0.0681
 5988TIP3    H117970   5.075   4.642   4.902 -0.1535  0.0451  0.3354
 5988TIP3    H217971   5.020   4.505   4.937  0.5460 -0.4075 -0.3058
 5989TIP3   OH217972   3.700   5.803   4.204 -0.6421 -0.2096 -0.0759
 5989TIP3    H117973   3.712   5.714   4.171 -0.5444 -1.0082  1.9756
 5989TIP3    H217974   3.764   5.812   4.274 -0.5773  1.5429 -0.3024
 5990TIP3   OH217975   4.588   3.489   0.316 -0.7347 -0.3721  0.1170
 5990TIP3    H117976   4.650   3.424   0.283 -0.2035 -0.3483  1.0472
 5990TIP3    H217977   4.634   3.532   0.388 -1.5635  0.1527  0.3488
 5991TIP3   OH217978   1.989   3.056   1.959 -0.1700  0.4071 -0.5568
 5991TIP3    H117979   1.977   3.096   2.046 -0.2583 -0.6864 -0.0447
 5991TIP3    H217980   1.955   3.121   1.898 -1.1255  0.7548  0.3059
 5992TIP3   OH217981   6.286   0.953   4.578  0.2853  0.0101 -0.3236
 5992TIP3    H117982   6.299   0.874   4.526  0.7029  0.2529 -0.5903
 5992TIP3    H217983   6.374   0.977   4.608  0.0302 -0.2377  0.6542
 5993TIP3   OH217984   0.534   1.542   0.713 -0.7852 -0.3896 -0.1507
 5993TIP3    H117985   0.505   1.603   0.646 -4.2616  0.3916  1.8225
 5993TIP3    H217986   0.509   1.456   0.680 -0.3795 -0.2591 -0.8127
 5994TIP3   OH217987   2.136   5.971   3.005 -0.1557  0.1195  0.5566
 5994TIP3    H117988   2.128   5.912   2.930 -0.6861 -0.4791  1.0676
 5994TIP3    H217989   2.195   6.040   2.975 -0.3008 -0.1467 -0.3818
 5995TIP3   OH217990   4.430   5.513   3.870 -0.2644 -0.5556 -0.1825
 5995TIP3    H117991   4.378   5.444   3.912 -1.6130  1.2377  1.2445
 5995TIP3    H217992   4.495   5.466   3.819 -1.5663 -2.8919  0.1765
 5996TIP3   OH217993   0.675   4.180   0.977 -0.3053 -0.3325 -0.4714
 5996TIP3    H117994   0.656   4.218   1.063 -2.0114  0.2365 -1.0575
 5996TIP3    H217995   0.625   4.099   0.975 -0.2713 -0.3422 -0.9244
 5997TIP3   OH217996   4.113   1.503   1.709 -0.1017  0.0954 -0.2236
 5997TIP3    H117997   4.041   1.457   1.666  0.0000  0.3598 -0.6756
 5997TIP3    H217998   4.135   1.447   1.784 -0.6716 -0.0658 -0.1709
 5998TIP3   OH217999   1.975   0.429   2.875 -0.2863  0.2422  0.5061
 5998TIP3    H118000   1.995   0.513   2.914 -2.1067  0.5822  0.8159
 5998TIP3    H218001   1.885   0.410   2.904 -0.5663 -0.9464 -1.0037
 5999TIP3   OH218002   5.451   0.434   0.594 -0.1920  0.2282  0.1159
 5999TIP3    H118003   5.495   0.517   0.616 -2.6462  1.1710  1.9533
 5999TIP3    H218004   5.415   0.448   0.507  1.7985 -0.0348 -0.8047
 6000TIP3   OH218005   4.454   1.283   3.036  0.2907  0.0138  0.6077
 6000TIP3    H118006   4.525   1.219   3.024  1.0316  0.8981  0.2085
 6000TIP3    H218007   4.429   1.307   2.947 -0.9564 -0.7507  0.7305
 6001TIP3   OH218008   5.965   4.142   0.539 -1.0803 -0.0459  0.0183
 6001TIP3    H118009   5.924   4.131   0.453  1.2608 -1.9472 -0.9740
 6001TIP3    H218010   5.896   4.120   0.601 -2.1662 -1.1507 -1.4919
 6002TIP3   OH218011   2.887   2.157   0.345 -0.2167 -0.2794 -0.1814
 6002TIP3    H118012   2.841   2.089   0.297 -0.3312 -0.6640  0.4684
 6002TIP3    H218013   2.827   2.232   0.345  0.0904 -0.0090 -1.2805
 6003TIP3   OH218014   1.673   2.378   2.767  0.5060 -0.3782  0.3755
 6003TIP3    H118015   1.746   2.361   2.826  0.5551  0.2117  0.4826
 6003TIP3    H218016   1.712   2.419   2.691  0.2096  0.5557  0.7133
 6004TIP3   OH218017   5.557   5.407   3.578 -0.0486 -0.4588 -0.5573
 6004TIP3    H118018   5.526   5.449   3.658  2.4298 -1.1685  0.9184
 6004TIP3    H218019   5.509   5.450   3.507 -1.5535  0.9687  1.2343
 6005TIP3   OH218020   2.941   3.828   2.115  0.1344  0.0077 -0.2613
 6005TIP3    H118021   2.893   3.910   2.128 -1.0755 -0.8513  1.0016
 6005TIP3    H218022   2.894   3.764   2.170  1.0570 -1.5213 -1.1894
 6006TIP3   OH218023   3.811   0.490   4.314  0.4377  0.0223  0.4813
 6006TIP3    H118024   3.766   0.546   4.251 -1.0471 -0.7165  0.8435
 6006TIP3    H218025   3.902   0.490   4.285  0.3231  1.9148 -0.0242
 6007TIP3   OH218026   0.258   5.064   4.189  0.4794 -0.2476  0.7504
 6007TIP3    H118027   0.267   5.112   4.106  0.5699  0.7038  1.2983
 6007TIP3    H218028   0.168   5.078   4.216  1.4701  3.1288  2.9481
 6008TIP3   OH218029   2.337   5.629   2.080  0.2690  0.4233 -0.5349
 6008TIP3    H118030   2.301   5.711   2.114  0.7255  1.5357 -2.6129
 6008TIP3    H218031   2.264   5.588   2.034  0.2534  0.0102 -0.1533
 6009TIP3   OH218032   2.111   5.332   1.639  0.3003  0.1997 -0.0662
 6009TIP3    H118033   2.138   5.281   1.716 -1.6554 -0.2592  0.3767
 6009TIP3    H218034   2.130   5.422   1.662  0.1989  0.0159  0.7813
 6010TIP3   OH218035   4.136   0.522   2.965  0.2514  0.1676 -0.3565
 6010TIP3    H118036   4.105   0.444   2.919  1.9948 -0.1651 -1.0322
 6010TIP3    H218037   4.059   0.554   3.012 -0.6268 -1.6710 -0.4584
 6011TIP3   OH218038   3.214   0.415   4.221 -0.3832  0.2086  0.0973
 6011TIP3    H118039   3.204   0.335   4.169  1.4142  0.3125 -0.4761
 6011TIP3    H218040   3.270   0.389   4.294  0.2571  0.9197 -0.1219
 6012TIP3   OH218041   0.588   5.455   3.426  0.2637  0.2160 -0.0709
 6012TIP3    H118042   0.557   5.364   3.423  1.3772 -0.3078  2.0756
 6012TIP3    H218043   0.677   5.448   3.461  0.5307  2.1139 -0.3004
 6013TIP3   OH218044   5.578   0.374   0.914  0.0958 -0.1224 -0.2185
 6013TIP3    H118045   5.550   0.288   0.943 -1.0514  0.4114  0.2962
 6013TIP3    H218046   5.626   0.357   0.833  1.4433 -1.4062  0.7840
 6014TIP3   OH218047   0.094   3.577   4.217  0.4676  0.3903 -0.7342
 6014TIP3    H118048   0.140   3.557   4.136  1.3954 -0.3446 -0.0548
 6014TIP3    H218049   0.012   3.528   4.211  0.7906 -0.1319 -0.9909
 6015TIP3   OH218050   5.982   3.520   0.367 -0.0255  0.3142  0.2954
 6015TIP3    H118051   6.009   3.604   0.404  1.5571  0.1323 -0.3829
 6015TIP3    H218052   5.976   3.536   0.273  1.1659 -0.5153  0.0527
 6016TIP3   OH218053   1.404   5.385   4.614  0.4369  0.1853  0.2618
 6016TIP3    H118054   1.498   5.391   4.628  0.7411  0.6963 -1.6482
 6016TIP3    H218055   1.395   5.332   4.535 -1.0448 -2.0285  1.7925
 6017TIP3   OH218056   1.741   0.505   3.024 -0.6140 -0.5879  0.1434
 6017TIP3    H118057   1.747   0.576   3.088 -0.7701  1.9212 -2.4662
 6017TIP3    H218058   1.734   0.426   3.078  2.5995  0.9695  3.2388
 6018TIP3   OH218059   3.619   2.990   2.041  0.4118 -0.4593  0.3054
 6018TIP3    H118060   3.540   3.044   2.042  1.1941  0.7304  0.0203
 6018TIP3    H218061   3.622   2.953   1.953  1.6073  1.7404 -0.6438
 6019TIP3   OH218062   1.096   5.501   0.917  0.1541  0.2612  0.2020
 6019TIP3    H118063   1.092   5.423   0.861 -1.1412 -3.3880  4.7110
 6019TIP3    H218064   1.004   5.521   0.936  0.5354  0.6391  1.7766
 6020TIP3   OH218065   0.280   3.928   2.079 -0.1158  0.1655 -0.1734
 6020TIP3    H118066   0.326   3.864   2.134 -1.9391  0.0221  1.2462
 6020TIP3    H218067   0.225   3.874   2.021 -0.8145  0.4165  0.2568
 6021TIP3   OH218068   6.236   1.029   3.165  0.3226 -0.2117  0.4422
 6021TIP3    H118069   6.215   1.095   3.231 -0.0790  0.1799 -0.0693
 6021TIP3    H218070   6.168   1.039   3.098  0.4575 -0.9148  0.1916
 6022TIP3   OH218071   0.687   0.605   5.212  0.5871 -0.2128  0.2691
 6022TIP3    H118072   0.660   0.604   5.120 -0.2669  1.8668  0.4253
 6022TIP3    H218073   0.747   0.680   5.218  1.6166 -1.0826  1.1840
 6023TIP3   OH218074   5.477   1.238   1.277  0.3038  0.1828 -0.1811
 6023TIP3    H118075   5.384   1.235   1.298  0.4275  2.2163  0.8632
 6023TIP3    H218076   5.484   1.300   1.205  0.8754  0.1920 -0.1251
 6024TIP3   OH218077   3.836   3.124   2.482 -0.6295  0.0410 -0.0517
 6024TIP3    H118078   3.922   3.114   2.521  0.0874  0.8233 -1.3435
 6024TIP3    H218079   3.800   3.036   2.479  0.2553 -0.3387  0.2122
 6025TIP3   OH218080   2.529   1.629   1.011  0.0166 -0.1801  0.2010
 6025TIP3    H118081   2.619   1.631   1.045 -0.0082 -0.4963  0.2790
 6025TIP3    H218082   2.517   1.717   0.973  0.0836  0.1363  0.8964
 6026TIP3   OH218083   5.406   1.447   3.557 -0.6631  0.2191 -0.1533
 6026TIP3    H118084   5.488   1.490   3.583 -1.3304 -0.0305  2.7744
 6026TIP3    H218085   5.420   1.421   3.466  1.7996  1.7747 -0.3199
 6027TIP3   OH218086   2.027   1.188   1.294  0.4585  0.0611  0.0052
 6027TIP3    H118087   2.051   1.120   1.231  0.8254  1.5065 -1.4828
 6027TIP3    H218088   2.110   1.229   1.318  0.2072  0.2082  0.6440
 6028TIP3   OH218089   6.016   2.493   3.471  0.0154  0.5665  0.2918
 6028TIP3    H118090   6.035   2.410   3.427 -2.4603 -0.2161  0.5165
 6028TIP3    H218091   6.012   2.471   3.564 -1.4386  0.7187  0.2902
 6029TIP3   OH218092   3.387   3.179   1.452  0.1154 -0.0050 -0.4705
 6029TIP3    H118093   3.480   3.195   1.467  0.0824 -0.3168  0.0978
 6029TIP3    H218094   3.342   3.237   1.513 -0.0566 -0.0546 -0.5492
 6030TIP3   OH218095   3.360   5.654   2.666 -0.0729 -0.2667 -0.4083
 6030TIP3    H118096   3.278   5.608   2.647  0.1834 -0.0772 -2.1733
 6030TIP3    H218097   3.334   5.745   2.678 -0.1464 -0.2167 -0.9092
 6031TIP3   OH218098   1.090   5.496   1.672 -0.0803  0.6746 -0.5954
 6031TIP3    H118099   1.095   5.574   1.726  1.6923  0.2692 -0.1143
 6031TIP3    H218100   1.173   5.494   1.623 -0.0238 -0.9434 -0.5055
 6032TIP3   OH218101   1.458   5.776   2.784  0.5450 -0.2949 -0.1846
 6032TIP3    H118102   1.535   5.749   2.834  1.2813  0.6328 -0.7751
 6032TIP3    H218103   1.385   5.729   2.824  0.9224  1.2027  2.5195
 6033TIP3   OH218104   0.767   4.733   4.666  0.3047  0.0691 -0.1936
 6033TIP3    H118105   0.827   4.704   4.598  0.3189  0.3848 -0.3180
 6033TIP3    H218106   0.745   4.823   4.642 -1.1316 -0.4166 -0.7868
 6034TIP3   OH218107   5.450   2.954   1.293 -0.0795  0.6430 -0.0754
 6034TIP3    H118108   5.419   3.023   1.235  1.0631  0.4462 -0.9533
 6034TIP3    H218109   5.500   2.895   1.237  0.2521 -0.0752  0.9340
 6035TIP3   OH218110   0.397   4.521   1.345  0.0698  0.3811 -0.2592
 6035TIP3    H118111   0.354   4.578   1.281 -0.0570  0.5297 -0.0435
 6035TIP3    H218112   0.355   4.542   1.428 -0.6938 -0.7615 -0.3360
 6036TIP3   OH218113   5.905   5.419   2.792 -0.0265  0.0227 -0.0308
 6036TIP3    H118114   5.838   5.390   2.730  0.6342 -0.3545 -0.5733
 6036TIP3    H218115   5.857   5.431   2.874 -0.7076 -0.5469 -0.3319
 6037TIP3   OH218116   0.439   2.632   4.664 -0.3898 -0.9329 -0.3882
 6037TIP3    H118117   0.388   2.551   4.670 -0.3760 -0.9184 -0.0915
 6037TIP3    H218118   0.425   2.662   4.574 -0.7061 -1.0585 -0.3810
 6038TIP3   OH218119   5.368   3.111   1.548  0.2205  0.1311  0.3235
 6038TIP3    H118120   5.399   3.043   1.488  1.1244  0.5702  0.2723
 6038TIP3    H218121   5.420   3.188   1.525 -2.2509  1.4971 -1.1013
 6039TIP3   OH218122   1.026   5.595   2.097  0.2546 -0.3400 -0.7048
 6039TIP3    H118123   0.933   5.572   2.089  0.3279 -0.3651 -1.5895
 6039TIP3    H218124   1.042   5.598   2.191 -0.6625 -0.2726 -0.5413
 6040TIP3   OH218125   5.853   4.217   3.735 -0.4473  0.2711  0.3536
 6040TIP3    H118126   5.868   4.190   3.644  0.7057 -2.3921  1.2181
 6040TIP3    H218127   5.805   4.144   3.774 -0.3927  1.0739  2.0207
 6041TIP3   OH218128   0.857   1.739   1.422  0.3268  0.1256  0.2785
 6041TIP3    H118129   0.905   1.773   1.346 -0.1433 -0.5772 -0.3402
 6041TIP3    H218130   0.921   1.687   1.470  1.0892  1.8786  1.2867
 6042TIP3   OH218131   0.698   3.491   5.059 -0.0433  1.0651 -0.0864
 6042TIP3    H118132   0.648   3.499   4.978  0.1196 -0.4950 -0.3770
 6042TIP3    H218133   0.645   3.537   5.124 -1.0784  0.8189 -0.7240
 6043TIP3   OH218134   2.599   1.006   5.127 -0.3644 -0.2162 -0.0544
 6043TIP3    H118135   2.608   0.932   5.068 -1.3029 -1.2658  1.0650
 6043TIP3    H218136   2.684   1.011   5.173 -0.0838 -0.1894 -0.5665
 6044TIP3   OH218137   1.092   3.979   0.129 -0.4889  0.5919 -0.5193
 6044TIP3    H118138   1.138   3.910   0.081  0.9520  1.5725 -0.6075
 6044TIP3    H218139   1.139   3.985   0.212 -1.4765  0.5400  0.0643
 6045TIP3   OH218140   5.518   0.373   4.218  0.0876 -0.1109  0.0851
 6045TIP3    H118141   5.484   0.448   4.169  0.7449 -0.2064 -0.5469
 6045TIP3    H218142   5.459   0.364   4.293 -0.4295  0.5815 -0.2245
 6046TIP3   OH218143   0.112   1.123   4.073 -0.4548  0.8213 -0.3714
 6046TIP3    H118144   0.119   1.087   3.985  1.2007 -1.1230  0.4814
 6046TIP3    H218145   0.043   1.073   4.115  1.4768 -1.1870  0.6382
 6047TIP3   OH218146   5.670   5.653   1.147  0.0824  0.2757 -0.1646
 6047TIP3    H118147   5.598   5.591   1.139 -1.4495  1.8697  0.6096
 6047TIP3    H218148   5.653   5.720   1.081  0.0131  1.4227  0.9613
 6048TIP3   OH218149   4.175   4.887   4.797 -0.4825 -0.1087  0.0536
 6048TIP3    H118150   4.238   4.934   4.853 -1.6634  0.4071  1.0041
 6048TIP3    H218151   4.103   4.949   4.785 -0.5150 -0.4186 -1.6247
 6049TIP3   OH218152   6.270   3.528   2.726  0.0322 -0.1062  0.4691
 6049TIP3    H118153   6.264   3.469   2.801 -0.7617 -0.0120  0.4848
 6049TIP3    H218154   6.188   3.515   2.679 -1.0070  2.3100  1.4574
 6050TIP3   OH218155   5.350   3.795   5.009  1.0075  0.4244 -0.0569
 6050TIP3    H118156   5.413   3.745   4.957  0.0149 -1.1529  0.2092
 6050TIP3    H218157   5.329   3.871   4.955  3.0833  0.9817 -0.1705
 6051TIP3   OH218158   0.912   2.116   4.643  0.2769 -0.0247  0.1495
 6051TIP3    H118159   0.837   2.175   4.634 -2.1230 -2.5092  2.0980
 6051TIP3    H218160   0.933   2.117   4.736  2.5860  0.4080 -0.3178
 6052TIP3   OH218161   5.659   2.410   0.197 -0.2330 -0.0053  0.1876
 6052TIP3    H118162   5.690   2.366   0.277 -1.0347  0.1599  0.5968
 6052TIP3    H218163   5.677   2.503   0.213 -0.3313  0.0202  0.1465
 6053TIP3   OH218164   1.334   5.709   3.306 -0.1362 -0.1925  0.2859
 6053TIP3    H118165   1.382   5.681   3.228 -1.2386 -1.4423  0.0334
 6053TIP3    H218166   1.388   5.779   3.343  0.2767  0.6428 -1.7466
 6054TIP3   OH218167   5.373   1.715   0.134  0.4043 -0.1560  0.5838
 6054TIP3    H118168   5.347   1.650   0.069 -1.1739  0.5247  0.4703
 6054TIP3    H218169   5.463   1.737   0.112  0.0821 -0.3341 -1.0577
 6055TIP3   OH218170   1.937   2.187   0.693  0.1267  0.0833  0.1808
 6055TIP3    H118171   2.007   2.122   0.693  0.0177 -0.0468 -0.8214
 6055TIP3    H218172   1.915   2.198   0.786 -0.8962 -2.4749  0.3331
 6056TIP3   OH218173   3.099   3.518   1.149 -0.0383 -0.0081  0.0127
 6056TIP3    H118174   3.045   3.492   1.075 -0.4555 -0.2600  0.4007
 6056TIP3    H218175   3.178   3.465   1.141 -0.1687 -0.1792 -0.1407
 6057TIP3   OH218176   0.256   0.472   0.733  0.0790  0.2480 -0.5128
 6057TIP3    H118177   0.237   0.457   0.640 -0.3402  1.8575 -0.7132
 6057TIP3    H218178   0.286   0.387   0.765 -0.0696 -0.4167 -2.0434
 6058TIP3   OH218179   6.063   4.863   3.906 -0.0664 -0.3786 -0.5260
 6058TIP3    H118180   6.046   4.930   3.840 -2.6564 -1.4303 -1.0636
 6058TIP3    H218181   6.134   4.899   3.960 -0.3295  2.0748 -1.6832
 6059TIP3   OH218182   1.038   1.624   3.485  0.3770  0.1003 -0.0967
 6059TIP3    H118183   1.096   1.697   3.463 -1.0019  0.9344 -1.1946
 6059TIP3    H218184   0.964   1.665   3.530 -0.2550 -0.6453 -0.4221
 6060TIP3   OH218185   4.358   3.090   2.534 -0.7032 -0.1654  0.1500
 6060TIP3    H118186   4.422   3.067   2.466 -0.2522 -0.4727  0.6652
 6060TIP3    H218187   4.408   3.085   2.616 -1.7213 -1.8539  0.7199
 6061TIP3   OH218188   3.926   4.838   1.819  0.4072 -0.2130 -0.3367
 6061TIP3    H118189   3.850   4.865   1.871 -0.0625  0.6036 -1.3969
 6061TIP3    H218190   3.930   4.743   1.831 -1.1643 -0.3622 -0.7266
 6062TIP3   OH218191   5.143   4.564   2.377 -0.7772 -0.3572 -0.4842
 6062TIP3    H118192   5.176   4.524   2.457 -2.6128 -0.6146  0.1860
 6062TIP3    H218193   5.195   4.523   2.307  0.8461 -0.1362  0.5255
 6063TIP3   OH218194   3.549   5.627   3.395 -0.5410  0.4738 -0.1686
 6063TIP3    H118195   3.489   5.553   3.401  2.5474 -2.4969 -2.1373
 6063TIP3    H218196   3.552   5.648   3.301 -0.4213  2.3150  0.2166
 6064TIP3   OH218197   3.549   0.063   1.217  0.8002  0.1320 -0.5883
 6064TIP3    H118198   3.545   0.122   1.142  0.7204 -0.9155 -1.4378
 6064TIP3    H218199   3.585   0.116   1.288 -0.6296  1.6100 -0.9055
 6065TIP3   OH218200   1.676   4.865   2.292 -0.0439 -0.1419  0.1618
 6065TIP3    H118201   1.672   4.771   2.313  0.1301  0.2986  2.3055
 6065TIP3    H218202   1.626   4.908   2.361  0.9215  1.4520 -0.0775
 6066TIP3   OH218203   0.154   4.720   1.934  0.0948  0.3618  0.4096
 6066TIP3    H118204   0.203   4.765   1.865 -1.1941 -0.6855 -1.2734
 6066TIP3    H218205   0.187   4.630   1.932 -0.9516 -0.0330  0.1306
 6067TIP3   OH218206   4.386   1.687   3.893  0.3200 -0.5074 -0.1100
 6067TIP3    H118207   4.365   1.680   3.800  0.0323  0.8541 -0.1680
 6067TIP3    H218208   4.462   1.629   3.905 -0.4421 -1.6960 -0.9008
 6068TIP3   OH218209   5.691   2.996   2.575 -0.1860 -0.3107 -0.4023
 6068TIP3    H118210   5.757   3.065   2.573 -2.9862  2.7933  1.5318
 6068TIP3    H218211   5.697   2.961   2.664 -1.3459  0.3882 -0.0166
 6069TIP3   OH218212   4.667   4.152   0.201  0.3625  0.2035  0.1704
 6069TIP3    H118213   4.748   4.184   0.162 -0.1098 -0.9724 -1.9590
 6069TIP3    H218214   4.598   4.180   0.140 -0.1465 -3.9802 -1.5071
 6070TIP3   OH218215   5.000   3.312   1.254  0.4196 -0.0223  0.1972
 6070TIP3    H118216   5.009   3.310   1.349 -1.9073 -0.7638  0.4536
 6070TIP3    H218217   5.039   3.231   1.224 -0.1005 -0.4608  0.6794
 6071TIP3   OH218218   2.179   4.500   4.074  0.2439  0.2356  0.1653
 6071TIP3    H118219   2.236   4.461   4.009  0.0273 -0.6934  0.5241
 6071TIP3    H218220   2.221   4.584   4.095  0.2168  0.6300 -1.2787
 6072TIP3   OH218221   1.148   1.561   2.515 -0.4389  0.2153 -0.0131
 6072TIP3    H118222   1.087   1.491   2.538 -2.1845  1.5226 -0.4480
 6072TIP3    H218223   1.166   1.607   2.597 -2.2030  1.4485 -0.2753
 6073TIP3   OH218224   1.875   4.717   1.296  0.3200 -0.5068  0.2478
 6073TIP3    H118225   1.881   4.624   1.318  0.3288 -0.5553  0.0427
 6073TIP3    H218226   1.952   4.757   1.336  0.9176 -0.7733 -0.6153
 6074TIP3   OH218227   5.540   0.944   1.674 -0.0883 -0.0199 -0.1583
 6074TIP3    H118228   5.467   0.942   1.614 -1.0658 -0.4559  1.0050
 6074TIP3    H218229   5.510   1.000   1.746  0.2191 -1.1880  0.9211
 6075TIP3   OH218230   6.228   5.764   1.147 -0.0553 -0.2894  0.0095
 6075TIP3    H118231   6.309   5.737   1.190 -0.2643 -1.5662 -0.3686
 6075TIP3    H218232   6.257   5.808   1.067  0.3040  1.2002  0.9215
 6076TIP3   OH218233   2.834   3.665   0.657 -0.0093  0.3949 -0.0703
 6076TIP3    H118234   2.842   3.698   0.568  0.0035 -0.8892 -0.5705
 6076TIP3    H218235   2.766   3.720   0.697  0.6931  1.6293 -0.5357
 6077TIP3   OH218236   4.279   3.650   0.201 -0.3360  0.0587  0.3596
 6077TIP3    H118237   4.306   3.569   0.159  0.6541 -0.8923  2.6612
 6077TIP3    H218238   4.260   3.625   0.291  2.3682  2.7286  1.8507
 6078TIP3   OH218239   2.757   1.580   1.440  0.1406 -0.3712  0.6322
 6078TIP3    H118240   2.810   1.632   1.379 -1.2582 -0.6096 -0.8531
 6078TIP3    H218241   2.762   1.491   1.406  0.4524 -0.7640  1.6845
 6079TIP3   OH218242   0.163   0.557   3.370 -0.3990  0.1111 -0.2874
 6079TIP3    H118243   0.129   0.487   3.426  0.9897 -0.9034 -0.6529
 6079TIP3    H218244   0.236   0.516   3.323 -0.0968  1.5833 -1.1400
 6080TIP3   OH218245   1.184   1.477   5.025 -0.1654  0.5516 -0.2750
 6080TIP3    H118246   1.214   1.484   5.115 -1.8106  1.6459  0.2469
 6080TIP3    H218247   1.241   1.535   4.975  1.1176 -0.4970 -0.0568
 6081TIP3   OH218248   2.795   0.504   0.277 -0.2428 -0.3205 -0.1696
 6081TIP3    H118249   2.831   0.424   0.315 -0.4922 -0.0082  0.7591
 6081TIP3    H218250   2.837   0.575   0.326 -0.5195  0.0968 -0.5321
 6082TIP3   OH218251   1.773   1.455   0.489  0.0348  0.0541 -0.1457
 6082TIP3    H118252   1.744   1.368   0.517  0.4793 -0.0551 -0.0103
 6082TIP3    H218253   1.863   1.462   0.522  1.0655 -0.5779 -2.5929
 6083TIP3   OH218254   0.835   3.433   3.428 -0.2501  0.4664 -0.1758
 6083TIP3    H118255   0.875   3.486   3.358 -2.4834  0.3159 -1.6738
 6083TIP3    H218256   0.895   3.360   3.439  0.7471  1.0958 -1.1306
 6084TIP3   OH218257   1.612   3.903   4.652  0.0283 -0.7830 -0.2923
 6084TIP3    H118258   1.542   3.964   4.628  1.3153  1.1004  0.4779
 6084TIP3    H218259   1.617   3.842   4.578 -1.3590  0.0158 -1.0819
 6085TIP3   OH218260   0.789   1.891   0.027 -0.2736  0.1440 -0.5844
 6085TIP3    H118261   0.804   1.984   0.015 -1.7654  0.6682  1.1142
 6085TIP3    H218262   0.712   1.872  -0.026 -1.9253  0.6620  1.4858
 6086TIP3   OH218263   2.508   4.690   1.841  0.3428  0.5145 -0.4512
 6086TIP3    H118264   2.498   4.617   1.901  2.2563  0.0769 -0.6226
 6086TIP3    H218265   2.564   4.752   1.888 -0.6480  1.5611 -0.6034
 6087TIP3   OH218266   1.175   1.690   3.026  0.5404  0.2251 -0.2589
 6087TIP3    H118267   1.248   1.729   3.075 -0.4401  1.7552  0.0681
 6087TIP3    H218268   1.188   1.720   2.936  1.0146 -0.5871 -0.4698
 6088TIP3   OH218269   3.582   0.598   3.648  0.0085 -0.0814  0.5226
 6088TIP3    H118270   3.532   0.679   3.658  1.0039  0.7273 -0.6825
 6088TIP3    H218271   3.668   0.619   3.684 -0.6625 -1.7134  3.3473
 6089TIP3   OH218272   3.000   4.086   1.083 -0.4842 -0.0179  0.3247
 6089TIP3    H118273   3.010   4.011   1.026  0.0926 -0.0581  0.4714
 6089TIP3    H218274   3.060   4.152   1.047 -1.5185  0.6369 -0.2320
 6090TIP3   OH218275   4.581   2.244   3.148 -0.2781  0.1734  0.2157
 6090TIP3    H118276   4.546   2.177   3.089 -0.0203  1.5206 -1.5805
 6090TIP3    H218277   4.504   2.281   3.191 -0.5383 -0.4559  0.2877
 6091TIP3   OH218278   2.876   3.297   1.057  0.0832  0.1958  0.0902
 6091TIP3    H118279   2.949   3.241   1.031  0.3509 -0.0721  1.3198
 6091TIP3    H218280   2.859   3.352   0.981  1.3985  0.0878 -0.3098
 6092TIP3   OH218281   0.879   4.270   4.849  0.7035  0.0343 -0.2074
 6092TIP3    H118282   0.817   4.252   4.920 -0.3574  1.1243 -0.8198
 6092TIP3    H218283   0.965   4.251   4.887  0.0524 -0.9607  0.8447
 6093TIP3   OH218284   2.651   0.675   2.880  0.2082  0.5225 -0.1418
 6093TIP3    H118285   2.699   0.704   2.803  0.4389 -0.5222 -0.4055
 6093TIP3    H218286   2.559   0.678   2.854  0.3548 -1.6437 -1.1631
 6094TIP3   OH218287   0.287   3.267   3.011 -0.4739 -0.0695  0.7841
 6094TIP3    H118288   0.308   3.277   2.918  1.8809  1.6199  1.4037
 6094TIP3    H218289   0.253   3.178   3.019  1.7814 -1.2232 -1.2768
 6095TIP3   OH218290   4.894   5.802   0.549 -0.2192 -0.2879  0.4489
 6095TIP3    H118291   4.847   5.722   0.527  1.5762 -1.4081  0.4527
 6095TIP3    H218292   4.956   5.775   0.618  1.5935  0.6636 -0.7194
 6096TIP3   OH218293   1.532   3.820   2.410 -0.2127 -0.0059 -0.9582
 6096TIP3    H118294   1.604   3.875   2.439 -1.1466  0.0051  1.5275
 6096TIP3    H218295   1.562   3.783   2.326  3.4166 -1.3914  0.7453
 6097TIP3   OH218296   3.024   3.230   3.481  0.1530 -0.5272  0.5368
 6097TIP3    H118297   2.980   3.300   3.433  2.8989 -0.0717 -1.5718
 6097TIP3    H218298   3.015   3.254   3.573  1.9502  3.3488 -0.1140
 6098TIP3   OH218299   2.567   0.435   3.364 -0.2945 -0.5808 -0.5660
 6098TIP3    H118300   2.592   0.486   3.441 -0.6160 -1.8190  0.3776
 6098TIP3    H218301   2.624   0.358   3.366 -0.9363 -1.0828 -1.0521
 6099TIP3   OH218302   2.288   4.790   0.305 -0.1576  0.1532 -0.0985
 6099TIP3    H118303   2.307   4.785   0.211  0.7488 -0.4868  0.1120
 6099TIP3    H218304   2.219   4.726   0.318 -0.4324  0.3907 -0.3605
 6100TIP3   OH218305   5.939   3.149   1.468  0.3716 -0.3598 -0.1049
 6100TIP3    H118306   5.873   3.184   1.408 -1.0540  1.5658  2.4476
 6100TIP3    H218307   6.016   3.205   1.454  0.0160  0.1416 -0.0754
 6101TIP3   OH218308   0.815   4.893   3.125 -0.3371  0.0729 -0.6999
 6101TIP3    H118309   0.873   4.816   3.129  1.4333  1.3645  2.5275
 6101TIP3    H218310   0.848   4.944   3.051  2.3595  0.4029  0.5878
 6102TIP3   OH218311   0.548   5.106   3.929  0.7730  0.4421 -0.1926
 6102TIP3    H118312   0.556   5.012   3.943  0.8691  0.4795  0.0017
 6102TIP3    H218313   0.637   5.135   3.908  0.8916  0.6125  0.5041
 6103TIP3   OH218314   3.606   0.468   2.481  0.6249 -0.5003 -0.3049
 6103TIP3    H118315   3.656   0.471   2.399 -0.0842  4.0613 -0.7969
 6103TIP3    H218316   3.515   0.475   2.454  0.0729 -2.4171  0.8512
 6104TIP3   OH218317   4.759   0.009   2.941 -0.3602  0.0909  0.3625
 6104TIP3    H118318   4.699   0.029   3.013  0.1112  0.9896  0.5152
 6104TIP3    H218319   4.712   0.035   2.862 -0.7594 -0.6206  0.3497
 6105TIP3   OH218320   3.375   3.039   5.171  0.1815 -0.2739  0.4540
 6105TIP3    H118321   3.399   3.128   5.144 -0.4862 -0.4024 -0.6072
 6105TIP3    H218322   3.410   2.983   5.103  0.1223 -0.7787  0.8384
 6106TIP3   OH218323   3.275   0.026   1.284 -0.2544 -0.0720  0.0225
 6106TIP3    H118324   3.231   0.004   1.201 -2.3226 -0.6432  1.1940
 6106TIP3    H218325   3.362  -0.013   1.276 -0.7574 -0.9669 -1.4925
 6107TIP3   OH218326   0.821   1.513   0.568  0.2458  0.0328 -0.0360
 6107TIP3    H118327   0.869   1.470   0.497 -1.3118 -1.1696 -0.4229
 6107TIP3    H218328   0.807   1.443   0.633  0.4535  0.7831  0.8350
 6108TIP3   OH218329   4.411   2.585   3.122  0.4291  0.0426  0.4282
 6108TIP3    H118330   4.438   2.550   3.037 -0.2600 -0.6782  0.4982
 6108TIP3    H218331   4.374   2.510   3.168  0.6777  0.4617  1.3169
 6109TIP3   OH218332   3.341   1.238   3.012 -0.1156 -0.2522 -0.1917
 6109TIP3    H118333   3.259   1.209   3.051 -0.8956  1.5955 -0.3385
 6109TIP3    H218334   3.401   1.245   3.086 -0.6550  0.1996  0.2124
 6110TIP3   OH218335   5.304   1.363   1.040 -0.1424 -0.3455  0.3340
 6110TIP3    H118336   5.326   1.342   0.949 -0.2418  1.3608 -0.1087
 6110TIP3    H218337   5.214   1.331   1.051 -0.6705  0.7600 -0.6362
 6111TIP3   OH218338   4.926   0.107   3.188  0.1668 -0.1298  0.4728
 6111TIP3    H118339   4.882   0.131   3.269  0.6976  0.7140  0.5233
 6111TIP3    H218340   4.862   0.053   3.141 -1.6590  2.4670 -0.2442
 6112TIP3   OH218341   5.353   5.447   2.715 -0.5380 -0.3259 -0.1077
 6112TIP3    H118342   5.400   5.509   2.659 -1.7086  1.3497  0.6680
 6112TIP3    H218343   5.296   5.399   2.655  0.4626 -0.7458 -0.7407
 6113TIP3   OH218344   1.262   2.648   0.651 -0.0975 -0.8351 -0.1644
 6113TIP3    H118345   1.279   2.624   0.559  0.7781  0.9377 -0.5059
 6113TIP3    H218346   1.168   2.634   0.662 -0.4305 -0.0051 -1.6813
 6114TIP3   OH218347   5.930   0.983   1.503 -0.3334  0.3031  0.6448
 6114TIP3    H118348   5.846   0.943   1.480  0.8857 -1.0516 -1.8299
 6114TIP3    H218349   5.957   1.029   1.423  0.7457  1.7793  1.7914
 6115TIP3   OH218350   3.780   1.899   2.933 -0.6752  0.6908 -0.4168
 6115TIP3    H118351   3.753   1.834   2.998 -0.3654  2.3233  1.4587
 6115TIP3    H218352   3.855   1.944   2.973 -0.5030  1.8085 -1.8826
 6116TIP3   OH218353   1.852   2.033   3.308 -0.2887 -0.1956  0.5893
 6116TIP3    H118354   1.903   1.964   3.266 -0.5787  0.1238 -0.3027
 6116TIP3    H218355   1.909   2.109   3.308 -1.2267  0.6267 -1.8365
 6117TIP3   OH218356   3.805   1.098   1.558 -0.6118 -0.3601 -0.6249
 6117TIP3    H118357   3.866   1.030   1.586 -0.9198 -0.5870 -0.5004
 6117TIP3    H218358   3.721   1.073   1.597 -0.4128  0.9079  0.6746
 6118TIP3   OH218359   3.844   3.512   3.094 -0.1868  0.0795  0.4209
 6118TIP3    H118360   3.754   3.536   3.116 -0.7885 -2.0389  0.5231
 6118TIP3    H218361   3.891   3.515   3.178 -0.0238  1.5718  0.3051
 6119TIP3   OH218362   5.299   1.597   0.766 -0.3004 -0.2772  0.1860
 6119TIP3    H118363   5.231   1.644   0.716 -0.5652  0.1738  0.9465
 6119TIP3    H218364   5.251   1.555   0.838 -0.1753 -2.3521 -0.8827
 6120TIP3   OH218365   4.682   2.247   4.609  0.2885 -0.5793  0.0099
 6120TIP3    H118366   4.680   2.183   4.680  3.1230  1.5397  2.3096
 6120TIP3    H218367   4.775   2.253   4.585 -0.1834  1.0357 -1.6622
 6121TIP3   OH218368   0.464   0.413   0.327  0.0601 -0.0715 -0.0716
 6121TIP3    H118369   0.480   0.350   0.258 -0.8220 -0.7734  0.3565
 6121TIP3    H218370   0.532   0.395   0.393  0.4835  0.1625 -0.4359
 6122TIP3   OH218371   3.003   4.188   3.095  0.1865 -0.2383  0.0829
 6122TIP3    H118372   2.936   4.232   3.043  0.5217  1.0729  0.7164
 6122TIP3    H218373   3.030   4.113   3.042 -1.2590 -0.3794 -0.4958
 6123TIP3   OH218374   1.790   3.980   0.180 -0.3386 -0.2206  0.0702
 6123TIP3    H118375   1.794   4.074   0.197 -0.3508 -0.1489 -0.3316
 6123TIP3    H218376   1.857   3.964   0.113  1.1371 -0.8225  1.5955
 6124TIP3   OH218377   0.294   3.985   1.322 -0.5932 -0.0103 -0.0412
 6124TIP3    H118378   0.314   4.079   1.317 -0.4105 -0.1078 -3.1702
 6124TIP3    H218379   0.284   3.958   1.231  2.1833 -3.6417  0.5095
 6125TIP3   OH218380   2.267   1.150   4.942  0.0247 -0.1752  0.1077
 6125TIP3    H118381   2.225   1.231   4.911  0.5088  0.3883  0.8932
 6125TIP3    H218382   2.306   1.112   4.864 -1.3963 -0.3808 -0.5270
 6126TIP3   OH218383   5.963   4.344   2.924 -0.1750  0.0022  0.0262
 6126TIP3    H118384   5.911   4.264   2.923  0.1131 -0.1883  0.1920
 6126TIP3    H218385   5.955   4.377   3.013  2.0291 -1.3841  0.8030
 6127TIP3   OH218386   0.313   5.723   4.211  0.2903  0.3653 -0.2236
 6127TIP3    H118387   0.332   5.747   4.302  1.2846  0.4291 -0.4412
 6127TIP3    H218388   0.392   5.678   4.181 -0.5390 -0.8737 -0.6495
 6128TIP3   OH218389   6.108   4.377   0.477  0.0570 -0.3431  0.3197
 6128TIP3    H118390   6.111   4.378   0.381 -1.6435  1.0514  0.2417
 6128TIP3    H218391   6.059   4.298   0.499 -2.0171  0.7725 -0.1093
 6129TIP3   OH218392   2.182   3.536   1.291 -0.0954 -1.2474 -0.7630
 6129TIP3    H118393   2.126   3.490   1.229 -0.6787 -1.3995 -0.1306
 6129TIP3    H218394   2.234   3.467   1.333  0.3939 -1.1324 -1.1695
 6130TIP3   OH218395   2.380   0.180   3.339 -0.1628 -0.1068 -0.1479
 6130TIP3    H118396   2.401   0.120   3.411 -0.1975 -2.0939 -1.6951
 6130TIP3    H218397   2.465   0.215   3.312 -0.0126 -0.2489  0.1360
 6131TIP3   OH218398   4.743   1.159   3.294  0.2664  0.4273 -0.3363
 6131TIP3    H118399   4.682   1.155   3.221  0.4629 -0.0840 -0.4790
 6131TIP3    H218400   4.736   1.072   3.335  2.1149 -0.2515 -1.3568
 6132TIP3   OH218401   2.436   2.495   3.783  0.5431  0.2013 -0.0458
 6132TIP3    H118402   2.451   2.549   3.860  1.4291  0.9073 -0.6968
 6132TIP3    H218403   2.523   2.484   3.744  0.3520 -1.4561 -0.0915
 6133TIP3   OH218404   2.771   5.307   1.374  0.0560  0.3419  0.4634
 6133TIP3    H118405   2.681   5.332   1.398 -1.0205 -0.2903 -2.4964
 6133TIP3    H218406   2.812   5.389   1.346 -1.0300  0.1008 -2.0988
 6134TIP3   OH218407   5.174   2.177   1.093 -0.3967  0.7017  0.1836
 6134TIP3    H118408   5.266   2.152   1.091 -0.1569  1.5407  0.2696
 6134TIP3    H218409   5.127   2.096   1.115  0.1280 -0.2477 -1.9317
 6135TIP3   OH218410   2.989   3.462   3.355 -0.2594 -0.2477  0.1178
 6135TIP3    H118411   2.978   3.497   3.267  0.8225 -0.8597 -0.2871
 6135TIP3    H218412   3.000   3.539   3.410 -0.8443  0.1363 -0.2909
 6136TIP3   OH218413   2.223   5.506   2.569  0.8318  0.3696  0.0601
 6136TIP3    H118414   2.172   5.427   2.551 -2.4801  2.6471 -1.4365
 6136TIP3    H218415   2.307   5.490   2.526  0.4098 -2.4286  0.1007
 6137TIP3   OH218416   2.545   2.276   1.836 -0.0333 -0.0118  0.3261
 6137TIP3    H118417   2.453   2.272   1.860  0.0460 -2.1612  0.4215
 6137TIP3    H218418   2.592   2.288   1.919 -0.1875  0.6603  0.3210
 6138TIP3   OH218419   4.430   3.806   4.997  0.4234  0.1042 -0.2634
 6138TIP3    H118420   4.407   3.714   5.006  1.2255 -0.0194  0.6460
 6138TIP3    H218421   4.346   3.851   4.994  0.0301 -0.5817  0.1974
 6139TIP3   OH218422   5.795   5.654   1.400 -0.2254  0.0086  0.2202
 6139TIP3    H118423   5.878   5.685   1.364 -0.3256  0.3123  0.2473
 6139TIP3    H218424   5.731   5.667   1.330 -0.1789 -0.6063  0.0529
 6140TIP3   OH218425   3.526   2.543   4.706  0.7390 -0.1101  0.7312
 6140TIP3    H118426   3.502   2.594   4.628  2.6015  0.5857  0.5655
 6140TIP3    H218427   3.527   2.452   4.676  0.3242  0.0414  0.2439
 6141TIP3   OH218428   0.878   4.545   4.899 -0.5183 -0.1447 -0.1030
 6141TIP3    H118429   0.971   4.568   4.904 -0.3817 -0.7788  0.3667
 6141TIP3    H218430   0.874   4.452   4.920 -1.1538 -0.3928 -1.2615
 6142TIP3   OH218431   5.373   4.684   3.355  0.0370 -0.3007  0.3798
 6142TIP3    H118432   5.330   4.668   3.271  0.4778  0.8323 -0.0951
 6142TIP3    H218433   5.462   4.710   3.331  0.0980  0.2769  1.1740
 6143TIP3   OH218434   2.468   1.255   3.044 -0.3057 -0.1826  0.1741
 6143TIP3    H118435   2.490   1.167   3.014 -1.4285 -0.7777  0.9860
 6143TIP3    H218436   2.502   1.259   3.134  0.8173  0.6682 -0.2691
 6144TIP3   OH218437   5.135   1.674   1.453 -0.2428  0.6409  0.5971
 6144TIP3    H118438   5.215   1.722   1.428  0.4127 -0.4433  0.5636
 6144TIP3    H218439   5.160   1.625   1.531 -0.2186 -1.3406 -0.5948
 6145TIP3   OH218440   3.351   3.900   0.847 -0.1289  0.1252 -0.3206
 6145TIP3    H118441   3.411   3.826   0.843  1.6558  1.4915 -0.1146
 6145TIP3    H218442   3.312   3.896   0.934  1.2578  0.3604  0.3364
 6146TIP3   OH218443   3.265   1.516   4.520 -1.0656  0.2102 -0.5568
 6146TIP3    H118444   3.240   1.599   4.562  1.2214  0.3788  0.5899
 6146TIP3    H218445   3.313   1.543   4.441 -0.8707 -0.0296 -0.5214
 6147TIP3   OH218446   5.124   0.990   1.424  0.0396 -0.2634  0.4628
 6147TIP3    H118447   5.101   0.937   1.348 -1.2440  0.3601  0.3885
 6147TIP3    H218448   5.041   1.001   1.471  0.8913 -0.9732  2.1788
 6148TIP3   OH218449   3.831   4.329   1.534 -0.9469 -0.3218 -0.1227
 6148TIP3    H118450   3.858   4.391   1.602 -1.1247 -0.5181  0.1307
 6148TIP3    H218451   3.736   4.340   1.528 -0.9645 -0.4873 -0.1579
 6149TIP3   OH218452   5.922   2.533   1.367 -0.3407  0.2573  0.2838
 6149TIP3    H118453   5.987   2.596   1.332 -0.2230 -0.5376 -1.0085
 6149TIP3    H218454   5.965   2.495   1.443  0.3889  0.3385 -0.0705
 6150TIP3   OH218455   1.602   1.250   1.533 -0.3772 -0.3490 -0.4010
 6150TIP3    H118456   1.547   1.327   1.516  0.2413  0.6381  1.8126
 6150TIP3    H218457   1.543   1.188   1.576 -0.5167 -0.5535 -0.8794
 6151TIP3   OH218458   2.735   5.257   4.351  0.0660  0.2274  0.3338
 6151TIP3    H118459   2.666   5.242   4.415  0.3745  1.2023  0.9338
 6151TIP3    H218460   2.736   5.179   4.297 -0.7401 -0.2804  1.0276
 6152TIP3   OH218461   5.064   0.343   0.382  0.3286 -0.3312 -0.0924
 6152TIP3    H118462   5.085   0.358   0.290 -0.1053 -0.7437 -0.2643
 6152TIP3    H218463   5.143   0.305   0.419  0.8743  0.8344 -0.0369
 6153TIP3   OH218464   3.977   3.929   1.876 -0.1638  0.2852 -0.0935
 6153TIP3    H118465   3.959   4.018   1.845 -0.4386  0.3074  0.1202
 6153TIP3    H218466   4.072   3.928   1.892 -0.1651  0.5529 -0.0616
 6154TIP3   OH218467   1.921   2.678   5.130 -0.0450 -0.0795  0.1065
 6154TIP3    H118468   1.934   2.681   5.036 -0.3397 -3.9840 -0.2175
 6154TIP3    H218469   1.841   2.728   5.145  1.8774  3.7449 -1.0407
 6155TIP3   OH218470   6.036   1.452   3.631 -0.2555 -0.1897  0.0137
 6155TIP3    H118471   6.021   1.488   3.719 -0.3296 -0.7591  0.2417
 6155TIP3    H218472   6.034   1.528   3.573  0.8758  0.3339  0.6277
 6156TIP3   OH218473   1.726   1.187   4.730 -0.3902 -0.5409 -0.9177
 6156TIP3    H118474   1.689   1.167   4.816 -0.7990  1.7707 -0.4738
 6156TIP3    H218475   1.817   1.213   4.748 -0.2343 -0.8284 -1.2835
 6157TIP3   OH218476   0.130   0.326   2.998 -0.1192  0.2711  0.5640
 6157TIP3    H118477   0.158   0.309   2.908  0.1230  0.9242  0.5098
 6157TIP3    H218478   0.211   0.331   3.048 -0.1854  0.9366  0.6257
 6158TIP3   OH218479   1.120   4.243   1.057 -0.6724 -0.2306  0.1207
 6158TIP3    H118480   1.124   4.151   1.030  0.6284 -0.5370  1.2423
 6158TIP3    H218481   1.142   4.242   1.150 -2.7102  1.0226  0.6975
 6159TIP3   OH218482   2.106   0.636   3.434 -0.4946 -0.1042  0.2176
 6159TIP3    H118483   2.167   0.563   3.420 -1.0638 -0.2508 -1.9297
 6159TIP3    H218484   2.020   0.599   3.414 -0.9250  0.8646  0.2291
 6160TIP3   OH218485   3.754   4.750   2.827 -0.1128 -0.3342 -0.8565
 6160TIP3    H118486   3.695   4.808   2.779 -1.8368 -1.0874  0.2715
 6160TIP3    H218487   3.764   4.790   2.913  0.2451 -0.7362 -0.7045
 6161TIP3   OH218488   6.299   0.082   0.391 -0.1841 -0.2743 -0.1262
 6161TIP3    H118489   6.223   0.024   0.379 -1.9060  1.7546  0.2336
 6161TIP3    H218490   6.300   0.136   0.312  0.7597 -0.1150 -0.0123
 6162TIP3   OH218491   5.834   3.424   4.034 -0.2208  0.0262 -0.0865
 6162TIP3    H118492   5.842   3.519   4.045  1.1690  0.1081 -1.5132
 6162TIP3    H218493   5.784   3.395   4.111  1.5230  1.5650  1.7521
 6163TIP3   OH218494   5.658   3.414   0.217 -0.1225 -0.1986  0.2726
 6163TIP3    H118495   5.631   3.478   0.284  0.7729  0.6134 -0.1092
 6163TIP3    H218496   5.729   3.458   0.170 -0.1236 -1.1223 -0.6229
 6164TIP3   OH218497   4.771   4.353   4.293  0.1587 -0.3539 -0.4573
 6164TIP3    H118498   4.859   4.368   4.328  0.0568  0.5006 -0.5379
 6164TIP3    H218499   4.754   4.430   4.239 -1.8741  1.1290  2.0753
 6165TIP3   OH218500   4.434   2.586   0.826 -0.1603 -0.3236 -0.1753
 6165TIP3    H118501   4.459   2.627   0.744 -1.1453 -0.1062 -0.3849
 6165TIP3    H218502   4.417   2.494   0.803  0.1895 -0.4101 -0.0874
 6166TIP3   OH218503   5.671   5.481   4.239 -0.3483 -0.6923 -0.1142
 6166TIP3    H118504   5.605   5.536   4.282  0.5136  0.4862 -0.2328
 6166TIP3    H218505   5.753   5.530   4.249  0.2577 -1.4312 -1.2180
 6167TIP3   OH218506   3.819   5.041   2.096  0.5712 -0.2084  0.1765
 6167TIP3    H118507   3.772   4.960   2.114  0.6937 -0.2053  0.5106
 6167TIP3    H218508   3.910   5.022   2.122  1.2037 -0.8621 -2.2247
 6168TIP3   OH218509   3.522   0.275   4.717 -0.0304  0.0215  0.0410
 6168TIP3    H118510   3.511   0.370   4.721  1.8254  0.3044 -0.6422
 6168TIP3    H218511   3.436   0.240   4.742 -1.6571  1.8712 -2.4710
 6169TIP3   OH218512   3.512   2.318   4.216 -0.1271 -0.1078  0.0106
 6169TIP3    H118513   3.449   2.378   4.177 -0.5318  0.3986  1.3872
 6169TIP3    H218514   3.496   2.325   4.310 -0.7409 -2.9466  0.2099
 6170TIP3   OH218515   2.318   3.969   1.596  0.0948 -0.6304 -0.0158
 6170TIP3    H118516   2.295   3.891   1.544 -0.6490  0.0073 -0.6718
 6170TIP3    H218517   2.343   4.035   1.532 -0.5651  0.0841  0.4342
 6171TIP3   OH218518   2.286   5.057   4.062 -0.1927  0.1106 -0.3843
 6171TIP3    H118519   2.234   5.088   3.987  3.0233  1.5868 -2.2404
 6171TIP3    H218520   2.232   5.078   4.138 -2.4027  1.3133 -2.1385
 6172TIP3   OH218521   0.185   4.495   1.175 -0.2216 -0.1507 -0.1531
 6172TIP3    H118522   0.131   4.460   1.245  2.0082 -0.1393  1.7200
 6172TIP3    H218523   0.150   4.583   1.158 -0.5973 -0.0238  1.2262
 6173TIP3   OH218524   1.523   1.747   4.841 -0.3137 -0.2647  0.2798
 6173TIP3    H118525   1.574   1.744   4.760 -0.5347  0.0583  0.1253
 6173TIP3    H218526   1.457   1.679   4.829  0.0930 -0.7025  0.4925
 6174TIP3   OH218527   1.423   4.068   4.287  0.4789 -0.0539  0.4462
 6174TIP3    H118528   1.509   4.026   4.292  0.1080 -1.1026 -1.0428
 6174TIP3    H218529   1.383   4.031   4.208 -1.0952  0.8845  0.7513
 6175TIP3   OH218530   1.179   4.933   2.024  0.3242 -0.4176  0.3299
 6175TIP3    H118531   1.166   4.884   1.943 -0.1618 -0.2267  0.2888
 6175TIP3    H218532   1.250   4.888   2.069 -0.1016 -1.1494  0.2812
 6176TIP3   OH218533   3.741   5.837   1.506 -0.1521 -0.7761  0.4041
 6176TIP3    H118534   3.738   5.869   1.415  0.6461  0.7265  0.8697
 6176TIP3    H218535   3.766   5.745   1.498  1.8971 -0.1772 -0.8368
 6177TIP3   OH218536   5.495   0.703   0.610  0.0084  0.2117 -0.2287
 6177TIP3    H118537   5.463   0.781   0.565 -3.1829 -0.4047  0.7010
 6177TIP3    H218538   5.480   0.721   0.703  0.6082 -0.9308  0.1131
 6178TIP3   OH218539   5.193   2.743   0.911  0.1937 -0.2605 -0.4730
 6178TIP3    H118540   5.217   2.652   0.895 -1.4840 -0.7828 -0.2874
 6178TIP3    H218541   5.168   2.744   1.004  1.7426  0.7800 -0.0367
 6179TIP3   OH218542   4.446   4.500   3.548  0.5172  0.5987  0.4150
 6179TIP3    H118543   4.418   4.427   3.492  0.7563  0.5009  0.4202
 6179TIP3    H218544   4.369   4.556   3.556  0.0265 -0.1635  1.2267
 6180TIP3   OH218545   4.884   2.089   1.859  0.0239 -0.1604 -0.7108
 6180TIP3    H118546   4.960   2.129   1.818 -0.9172  1.4877 -0.9355
 6180TIP3    H218547   4.918   2.048   1.939  0.7449  3.4501  1.0627
 6181TIP3   OH218548   2.561   2.919   0.964 -0.0951 -0.4008 -0.2183
 6181TIP3    H118549   2.538   2.827   0.977 -0.3698 -0.3785 -0.5241
 6181TIP3    H218550   2.572   2.954   1.052 -3.8330  0.2503  0.1183
 6182TIP3   OH218551   4.290   0.641   4.675 -0.1839  0.1630 -0.2904
 6182TIP3    H118552   4.340   0.605   4.748 -1.1361  0.5344  0.5573
 6182TIP3    H218553   4.214   0.584   4.667 -0.1644  0.2164 -0.8942
 6183TIP3   OH218554   6.234   0.317   2.492  0.4839  0.2733  0.1413
 6183TIP3    H118555   6.181   0.395   2.475  0.8775  0.7190  0.9382
 6183TIP3    H218556   6.170   0.248   2.509  0.1225  0.2815 -1.1143
 6184TIP3   OH218557   5.421   0.312   0.002  0.0057  0.0248 -0.1618
 6184TIP3    H118558   5.493   0.356   0.046 -0.9636  0.4852  1.0007
 6184TIP3    H218559   5.373   0.382  -0.042  0.0111 -0.2225 -0.5645
 6185TIP3   OH218560   2.385   4.494   1.427  0.5681 -0.0958 -0.4460
 6185TIP3    H118561   2.336   4.494   1.346  1.4409 -1.2664 -1.0056
 6185TIP3    H218562   2.352   4.418   1.475  0.3726  0.3301  0.1048
 6186TIP3   OH218563   2.266   2.573   5.148  0.2112 -0.1729 -0.3735
 6186TIP3    H118564   2.293   2.483   5.130  0.6444 -0.3013  0.8555
 6186TIP3    H218565   2.212   2.567   5.227  1.0836  0.7551  0.3280
 6187TIP3   OH218566   6.243   0.165   2.954  0.4588  0.3821 -0.0183
 6187TIP3    H118567   6.220   0.233   2.891  1.3616  0.5874 -0.1335
 6187TIP3    H218568   6.322   0.197   2.997  1.0803 -0.7104 -0.2875
 6188TIP3   OH218569   5.766   3.285   1.303  0.5511  0.5925 -0.4679
 6188TIP3    H118570   5.678   3.296   1.339  1.3869  1.8309  1.3297
 6188TIP3    H218571   5.790   3.371   1.270  1.5249  0.5673  0.1286
 6189TIP3   OH218572   0.122   5.107   2.259  0.5885 -0.1239 -0.4393
 6189TIP3    H118573   0.127   5.077   2.169  0.6404 -0.3530 -0.3605
 6189TIP3    H218574   0.049   5.169   2.260  0.6379 -0.0639 -0.6546
 6190TIP3   OH218575   3.664   0.758   2.819  0.2683  0.2887  0.4311
 6190TIP3    H118576   3.663   0.824   2.888  0.7058 -0.7853  1.5010
 6190TIP3    H218577   3.757   0.747   2.798  0.1073  0.9690 -0.7042
 6191TIP3   OH218578   0.563   3.242   4.711  0.4538 -0.7266 -0.1997
 6191TIP3    H118579   0.600   3.161   4.747  2.4084 -0.1424 -0.7737
 6191TIP3    H218580   0.567   3.303   4.785 -1.1401 -1.1472  0.2712
 6192TIP3   OH218581   1.036   0.116   0.152 -0.4349  0.2607 -0.7175
 6192TIP3    H118582   1.074   0.204   0.145  1.6298 -0.4342  0.8725
 6192TIP3    H218583   1.088   0.062   0.093 -2.5601  0.2668 -2.7526
 6193TIP3   OH218584   5.781   5.820   1.614 -0.4892 -0.0165 -0.0296
 6193TIP3    H118585   5.813   5.811   1.525  0.4939  0.8601  0.2114
 6193TIP3    H218586   5.778   5.730   1.648  2.9828 -0.1435  0.3219
 6194TIP3   OH218587   5.498   5.834   2.043 -0.2109 -0.3372 -0.3806
 6194TIP3    H118588   5.536   5.760   1.995  0.0228  0.3771 -1.3388
 6194TIP3    H218589   5.500   5.806   2.134 -1.4810 -2.1070 -0.8357
 6195TIP3   OH218590   5.778   1.860   4.734  0.0550 -0.3585 -0.1320
 6195TIP3    H118591   5.703   1.866   4.793 -0.2483 -1.4075 -0.3854
 6195TIP3    H218592   5.795   1.766   4.727  0.3545 -0.2262 -1.3636
 6196TIP3   OH218593   3.444   1.022   2.098 -0.7919 -0.0410  0.2514
 6196TIP3    H118594   3.472   0.999   2.187 -0.4674  1.0887  0.4543
 6196TIP3    H218595   3.502   1.093   2.071  0.9126 -2.1237 -1.9487
 6197TIP3   OH218596   0.290   4.533   1.610 -0.2206  0.1891  0.0654
 6197TIP3    H118597   0.215   4.475   1.628  1.8601 -1.9087  2.7815
 6197TIP3    H218598   0.335   4.541   1.693  1.9210  2.4368 -1.1848
 6198TIP3   OH218599   5.606   5.354   2.028  0.6941  0.3779  0.1849
 6198TIP3    H118600   5.667   5.418   2.064  0.7711 -0.1805  1.0614
 6198TIP3    H218601   5.613   5.366   1.933 -0.0382  2.3434  0.3484
 6199TIP3   OH218602   0.223   5.796   2.028  0.2776  0.0089  0.5130
 6199TIP3    H118603   0.243   5.730   2.095  1.5787  0.8993  1.0419
 6199TIP3    H218604   0.296   5.790   1.966 -0.9833 -0.9129 -0.9859
 6200TIP3   OH218605   2.977   4.899   1.332 -0.2416  0.1639  0.3705
 6200TIP3    H118606   3.012   4.931   1.415  2.0221 -0.8712 -0.0822
 6200TIP3    H218607   2.948   4.810   1.351 -1.4716  0.5750  0.4488
 6201TIP3   OH218608   0.967   3.505   3.178  0.4380  0.3621 -0.1258
 6201TIP3    H118609   0.979   3.487   3.085  1.3617 -1.1897  0.2575
 6201TIP3    H218610   1.056   3.505   3.214  0.2351  2.5671  0.5147
 6202TIP3   OH218611   3.634   5.071   2.336 -0.1829  0.4535  0.1756
 6202TIP3    H118612   3.565   5.017   2.297 -1.3955  0.5780  2.0271
 6202TIP3    H218613   3.711   5.014   2.337 -0.9632 -0.6450  0.4591
 6203TIP3   OH218614   5.672   1.637   2.229 -0.3976  0.5639  0.2934
 6203TIP3    H118615   5.610   1.706   2.252  1.0162  1.4559  1.5505
 6203TIP3    H218616   5.758   1.679   2.233  0.4051 -0.9513 -0.1912
 6204TIP3   OH218617   1.150   2.679   3.200 -0.0236  0.0813  0.6172
 6204TIP3    H118618   1.065   2.698   3.160  1.0487  0.3292 -1.6873
 6204TIP3    H218619   1.160   2.584   3.192 -0.3057 -0.0218  1.4052
 6205TIP3   OH218620   5.036   3.325   1.519 -0.4101 -0.1570 -0.0523
 6205TIP3    H118621   5.008   3.388   1.585 -0.3010 -0.7920  0.6195
 6205TIP3    H218622   5.066   3.249   1.570  3.1602  0.6834 -0.6725
 6206TIP3   OH218623   1.301   4.384   0.710  0.7834  0.0120 -0.3626
 6206TIP3    H118624   1.354   4.319   0.756 -2.1047 -2.3363 -0.0311
 6206TIP3    H218625   1.250   4.427   0.778  0.6811  0.7160 -0.8660
 6207TIP3   OH218626   0.866   2.236   2.128  0.1907 -0.5419  0.0627
 6207TIP3    H118627   0.921   2.228   2.050 -3.0305  0.2500 -2.5017
 6207TIP3    H218628   0.835   2.146   2.144  0.8200 -0.6984  0.4176
 6208TIP3   OH218629   4.233   5.995   2.257  0.3541 -0.3291  0.1086
 6208TIP3    H118630   4.287   6.070   2.231  0.0398 -0.5725 -1.3527
 6208TIP3    H218631   4.291   5.920   2.248  0.2224 -0.4222  0.0329
 6209TIP3   OH218632   6.024   4.685   2.965  0.2636  0.3570  0.3122
 6209TIP3    H118633   5.982   4.611   3.008  0.2476  0.5756  0.6791
 6209TIP3    H218634   5.951   4.736   2.929  0.2708  0.2259  0.1111
 6210TIP3   OH218635   4.729   2.747   4.346 -0.1344  0.1293 -0.0302
 6210TIP3    H118636   4.756   2.656   4.362 -0.9362 -0.0015  0.6695
 6210TIP3    H218637   4.640   2.751   4.381  0.6745  1.7810  2.0513
 6211TIP3   OH218638   4.731   3.106   2.676 -0.2482  0.1353  0.3619
 6211TIP3    H118639   4.730   3.048   2.600  1.3294  1.3385 -0.6500
 6211TIP3    H218640   4.654   3.081   2.727 -0.7023 -1.4820 -1.0383
 6212TIP3   OH218641   1.962   3.896   1.660  0.4320  0.6925  0.2952
 6212TIP3    H118642   1.969   3.845   1.741  1.6603  0.7108  0.2210
 6212TIP3    H218643   2.010   3.845   1.595  1.2068  1.6523  0.0822
 6213TIP3   OH218644   5.285   1.640   2.310 -0.4169  0.5474 -0.1879
 6213TIP3    H118645   5.285   1.565   2.249 -0.1105  1.2190 -1.0387
 6213TIP3    H218646   5.295   1.600   2.396  0.7140 -0.3492 -0.6972
 6214TIP3   OH218647   0.409   0.674   0.464  0.2501  0.7878  0.0900
 6214TIP3    H118648   0.436   0.590   0.429  1.3787  1.0829  0.2176
 6214TIP3    H218649   0.316   0.663   0.484  0.5618 -0.6795  0.8691
 6215TIP3   OH218650   6.060   4.850   0.228  0.4542 -0.2699  0.1684
 6215TIP3    H118651   6.052   4.776   0.288  0.1846 -0.6578 -0.3353
 6215TIP3    H218652   5.970   4.880   0.214  0.4421 -0.6288 -0.5790
 6216TIP3   OH218653   5.633   2.339   5.204 -0.3557  0.3469  0.4424
 6216TIP3    H118654   5.607   2.254   5.168 -1.6417  0.8723  0.0703
 6216TIP3    H218655   5.728   2.340   5.196 -0.2283 -1.4022  1.2496
 6217TIP3   OH218656   0.625   3.563   3.568  0.3233  0.0338  0.4532
 6217TIP3    H118657   0.572   3.503   3.620  0.4857 -0.0636  0.5095
 6217TIP3    H218658   0.705   3.513   3.549 -0.2521 -0.3875 -0.9516
 6218TIP3   OH218659   1.979   3.116   2.210 -0.3574  0.4543 -0.1835
 6218TIP3    H118660   1.980   3.192   2.269  0.1858 -0.4112  0.9617
 6218TIP3    H218661   1.937   3.047   2.261  0.7220 -0.5106 -0.5589
 6219TIP3   OH218662   6.083   2.031   0.447 -0.2566  0.2124  0.0386
 6219TIP3    H118663   6.134   2.065   0.521 -0.1856 -0.0647  0.1173
 6219TIP3    H218664   6.098   2.095   0.377  1.4010 -0.6111 -0.4210
 6220TIP3   OH218665   0.537   1.512   2.677  0.4358  0.0263 -0.0322
 6220TIP3    H118666   0.537   1.425   2.636  1.1087 -0.1403  0.3067
 6220TIP3    H218667   0.478   1.503   2.751  0.1778 -0.0223 -0.2421
 6221TIP3   OH218668   2.110   0.903   3.467 -0.1193 -1.2080  0.0181
 6221TIP3    H118669   2.196   0.927   3.503  0.3978 -1.7573 -0.8019
 6221TIP3    H218670   2.116   0.808   3.453 -0.6103 -1.1403 -0.6954
 6222TIP3   OH218671   4.450   3.995   0.765  0.1743  0.6466 -0.4520
 6222TIP3    H118672   4.409   3.910   0.778  0.3873  0.5760 -0.2221
 6222TIP3    H218673   4.450   4.035   0.852  0.0031  0.9154 -0.5727
 6223TIP3   OH218674   1.028   4.914   3.701  0.6912 -0.5273 -0.0041
 6223TIP3    H118675   0.942   4.949   3.725  1.6690  1.6807  0.4642
 6223TIP3    H218676   1.051   4.856   3.773 -0.9018 -2.2000 -0.7366
 6224TIP3   OH218677   2.281   1.525   2.305  0.0693 -0.2163  0.6764
 6224TIP3    H118678   2.296   1.495   2.394 -1.0874  0.7563  1.2314
 6224TIP3    H218679   2.344   1.477   2.252 -0.4221 -2.1674  1.7587
 6225TIP3   OH218680   4.492   0.601   0.424  0.7718  0.8186 -0.1067
 6225TIP3    H118681   4.437   0.679   0.421  2.1807  1.8988  0.8958
 6225TIP3    H218682   4.464   0.555   0.503  1.0221  1.1622  0.1862
 6226TIP3   OH218683   2.169   5.452   4.878 -0.4368 -0.0594  0.2869
 6226TIP3    H118684   2.144   5.437   4.970  1.9345  0.5464  1.0954
 6226TIP3    H218685   2.207   5.540   4.878  0.6763 -0.5163 -1.0482
 6227TIP3   OH218686   1.534   0.319   1.617 -0.2646  0.4521  0.3583
 6227TIP3    H118687   1.544   0.293   1.709 -0.3211  0.6607  0.4247
 6227TIP3    H218688   1.537   0.414   1.619  1.1993  0.4329 -0.0379
 6228TIP3   OH218689   0.461   0.644   3.086  0.0381  0.2768  0.2131
 6228TIP3    H118690   0.460   0.559   3.130  1.9391 -0.3217 -0.8011
 6228TIP3    H218691   0.417   0.629   3.003 -1.1683  0.7589  0.7289
 6229TIP3   OH218692   4.740   0.046   1.379  0.2939 -0.6455 -0.0969
 6229TIP3    H118693   4.753  -0.003   1.460  0.6807 -1.3301 -0.5595
 6229TIP3    H218694   4.665   0.103   1.397  0.6280 -0.4789  0.8721
 6230TIP3   OH218695   2.814   1.937   0.228 -0.1506 -0.5040  0.0625
 6230TIP3    H118696   2.722   1.924   0.253 -0.3727 -0.2987 -0.6250
 6230TIP3    H218697   2.824   1.888   0.146  0.4971 -0.9545  0.3988
 6231TIP3   OH218698   2.976   1.386   4.521 -0.0371  0.5668  0.8602
 6231TIP3    H118699   2.930   1.307   4.550 -0.5939  0.2838 -0.6750
 6231TIP3    H218700   3.056   1.387   4.573  0.8906 -2.0487 -0.3033
 6232TIP3   OH218701   1.550   5.966   4.062  0.2065  0.3935 -0.5100
 6232TIP3    H118702   1.621   5.942   4.121 -0.5080  1.9856  1.0854
 6232TIP3    H218703   1.473   5.923   4.098  0.3335 -1.5854 -2.4120
 6233TIP3   OH218704   4.953   0.940   1.955 -0.2355  0.1753 -0.1131
 6233TIP3    H118705   4.976   0.985   2.036  0.1802  1.3187 -0.8494
 6233TIP3    H218706   4.892   0.998   1.911  1.2174  0.6261 -1.6322
 6234TIP3   OH218707   6.180   3.632   0.884  0.4663 -0.5283  0.4719
 6234TIP3    H118708   6.094   3.641   0.843 -0.1825 -2.7894  1.2268
 6234TIP3    H218709   6.180   3.697   0.954 -1.0602 -1.1957  1.1321
 6235TIP3   OH218710   5.172   5.680   3.720  0.2462 -0.2149  0.0554
 6235TIP3    H118711   5.213   5.660   3.804 -0.2621 -0.2214  0.3057
 6235TIP3    H218712   5.229   5.746   3.681  1.6936 -1.7566 -0.5711
 6236TIP3   OH218713   4.457   1.952   0.759 -0.4281  0.2203  0.6385
 6236TIP3    H118714   4.457   1.961   0.855  1.7895 -0.1197  0.7110
 6236TIP3    H218715   4.488   1.863   0.743 -1.5699 -0.0147 -0.4156
 6237TIP3   OH218716   3.464   1.933   1.115 -0.3383 -0.4661  0.2963
 6237TIP3    H118717   3.491   2.024   1.119 -1.1506 -0.2554  1.6922
 6237TIP3    H218718   3.392   1.932   1.052  1.2965 -0.6245 -1.6493
 6238TIP3   OH218719   6.015   2.733   1.661 -0.1821 -0.1031  0.1638
 6238TIP3    H118720   6.042   2.645   1.635  1.1793  0.3395 -0.0304
 6238TIP3    H218721   6.028   2.786   1.582 -1.3559  0.2144  0.1632
 6239TIP3   OH218722   5.443   4.075   3.945 -0.0811 -0.1553 -0.5513
 6239TIP3    H118723   5.432   4.045   4.035 -1.6105  1.3467 -0.1820
 6239TIP3    H218724   5.359   4.056   3.903  0.2109  0.2188 -1.3174
 6240TIP3   OH218725   6.269   3.410   0.389 -0.5918 -0.1237  0.0131
 6240TIP3    H118726   6.182   3.449   0.388 -0.1627  0.8419 -0.0452
 6240TIP3    H218727   6.294   3.402   0.297 -0.1760  0.6223  0.0525
 6241TIP3   OH218728   3.895   4.040   4.755 -0.4694 -0.1825  0.4938
 6241TIP3    H118729   3.877   3.987   4.833 -2.4768  2.9798  2.4402
 6241TIP3    H218730   3.948   4.113   4.789 -1.1212  1.1153 -1.1687
 6242TIP3   OH218731   3.683   4.030   0.799  0.0451  0.0092 -0.1418
 6242TIP3    H118732   3.602   4.064   0.761  0.1838 -0.2849 -0.7121
 6242TIP3    H218733   3.691   3.942   0.763 -0.1895 -0.5553  1.1322
 6243TIP3   OH218734   2.445   1.964   1.177 -0.8631  0.4859  0.2150
 6243TIP3    H118735   2.538   1.942   1.184 -1.0813 -0.5570 -0.0097
 6243TIP3    H218736   2.443   2.044   1.126 -0.1279  0.0763 -0.4812
 6244TIP3   OH218737   5.782   3.761   2.231  0.3367  0.0072 -0.3635
 6244TIP3    H118738   5.876   3.743   2.226  0.5684  0.7536  0.9653
 6244TIP3    H218739   5.775   3.856   2.222 -0.1783  0.0771  0.6429
 6245TIP3   OH218740   5.494   5.673   5.116  0.0686  0.4044 -0.3498
 6245TIP3    H118741   5.477   5.698   5.206  0.8436  0.4456 -0.2103
 6245TIP3    H218742   5.590   5.675   5.107  0.0467 -0.4006 -0.9383
 6246TIP3   OH218743   2.478   0.003   0.692 -0.1480 -0.1167 -0.1462
 6246TIP3    H118744   2.547  -0.045   0.648  0.7405 -0.5971  1.6786
 6246TIP3    H218745   2.519   0.086   0.718 -0.5111 -0.0374  0.1900
 6247TIP3   OH218746   0.399   2.388   2.429  0.1752 -0.0408 -0.4087
 6247TIP3    H118747   0.319   2.412   2.382  0.2235  0.4601 -0.2347
 6247TIP3    H218748   0.377   2.306   2.473  0.0322 -0.3534 -1.0573
 6248TIP3   OH218749   1.529   3.707   3.141  0.3844 -0.2330 -0.5064
 6248TIP3    H118750   1.595   3.705   3.210  0.6978 -2.2334 -0.8143
 6248TIP3    H218751   1.482   3.624   3.149 -2.6851  1.4045  0.1798
 6249TIP3   OH218752   2.923   4.390   4.087  0.5498  0.2160 -0.2956
 6249TIP3    H118753   3.006   4.433   4.065  1.4708 -1.5524 -0.5129
 6249TIP3    H218754   2.880   4.376   4.003 -0.1464  1.4198 -0.1566
 6250TIP3   OH218755   1.577   4.066   2.659 -0.2545  0.0478  0.0228
 6250TIP3    H118756   1.493   4.067   2.612  0.1460  1.0257 -0.6852
 6250TIP3    H218757   1.577   4.147   2.710 -0.0470 -0.3081  0.5980
 6251TIP3   OH218758   1.916   1.614   1.294  0.5851  0.5226  0.0388
 6251TIP3    H118759   1.943   1.558   1.367  0.1799  0.4419  0.1249
 6251TIP3    H218760   1.941   1.565   1.215  2.8705  1.4564  0.0847
 6252TIP3   OH218761   5.640   4.689   4.762  0.0195 -0.4638  0.0816
 6252TIP3    H118762   5.593   4.734   4.832  0.8915  0.7866 -0.0885
 6252TIP3    H218763   5.649   4.599   4.793 -0.3502 -0.1355  1.1952
 6253TIP3   OH218764   4.276   4.691   2.967 -0.0278  0.3571  0.2668
 6253TIP3    H118765   4.278   4.757   2.898  1.2696  1.2022  1.0651
 6253TIP3    H218766   4.306   4.611   2.924 -2.1620  0.0830 -0.8487
 6254TIP3   OH218767   0.224   1.852   4.451 -0.4298  0.0179 -0.2297
 6254TIP3    H118768   0.131   1.874   4.460 -0.5098 -0.2953 -0.2507
 6254TIP3    H218769   0.223   1.763   4.415 -0.1206 -0.3755  0.7060
 6255TIP3   OH218770   5.421   2.264   0.525 -0.3244 -0.2441 -0.4140
 6255TIP3    H118771   5.452   2.174   0.539 -0.4606  0.1763  3.8993
 6255TIP3    H218772   5.502   2.315   0.515 -0.0252 -0.4387  0.8080
 6256TIP3   OH218773   3.296   3.564   0.831  0.3675 -0.2686 -0.3502
 6256TIP3    H118774   3.204   3.556   0.857 -0.2410  2.1132 -1.5771
 6256TIP3    H218775   3.340   3.599   0.909 -0.1008  0.1750 -0.2822
 6257TIP3   OH218776   1.583   5.894   0.358  0.3341 -0.3368 -0.1781
 6257TIP3    H118777   1.672   5.889   0.323 -0.2979 -0.9559 -1.8331
 6257TIP3    H218778   1.554   5.803   0.361 -0.7935 -0.0538 -1.2837
 6258TIP3   OH218779   5.338   5.963   3.111  0.0199 -0.0649 -0.1834
 6258TIP3    H118780   5.269   5.947   3.046  0.3307 -0.7288 -0.3626
 6258TIP3    H218781   5.416   5.980   3.060  0.1738 -0.1592  0.0179
 6259TIP3   OH218782   0.007   2.650   1.465 -0.2269 -0.0714 -0.0388
 6259TIP3    H118783   0.018   2.740   1.432 -1.1359  0.8191  1.9170
 6259TIP3    H218784   0.093   2.628   1.500  0.3033 -0.4219 -1.4723
 6260TIP3   OH218785   1.092   3.216   0.874  0.0207 -0.0824  0.1649
 6260TIP3    H118786   1.136   3.158   0.811 -1.2835  0.0730 -0.9326
 6260TIP3    H218787   1.071   3.159   0.948  0.0779 -0.6700 -0.2635
 6261TIP3   OH218788   3.189   2.544   2.406  0.5230 -0.1031 -0.0180
 6261TIP3    H118789   3.097   2.522   2.388  0.6591 -0.4204 -0.3329
 6261TIP3    H218790   3.206   2.507   2.493 -0.1663  1.5285  0.8675
 6262TIP3   OH218791   0.997   2.732   0.546 -0.2525  0.5361  0.2507
 6262TIP3    H118792   0.906   2.759   0.561  0.3521  2.9997 -0.0883
 6262TIP3    H218793   1.001   2.715   0.452  0.0615  2.4966 -0.1401
 6263TIP3   OH218794   5.833   0.346   3.449  0.2723  0.1128 -0.4198
 6263TIP3    H118795   5.851   0.252   3.453  1.1557  0.2837 -0.1637
 6263TIP3    H218796   5.754   0.353   3.395  1.2173 -0.6491 -1.9539
 6264TIP3   OH218797   3.313   0.711   1.393  0.0780  0.4067  0.2197
 6264TIP3    H118798   3.295   0.715   1.487 -1.3074  1.7812 -0.0716
 6264TIP3    H218799   3.358   0.793   1.374 -2.2340  1.5388 -0.7790
 6265TIP3   OH218800   1.263   1.336   3.527  0.1327  0.0997 -0.1055
 6265TIP3    H118801   1.289   1.406   3.467 -1.6895  0.3415 -0.6837
 6265TIP3    H218802   1.253   1.379   3.612  0.4522  0.2331 -0.1349
 6266TIP3   OH218803   2.583   4.370   0.878  0.3184 -0.0548 -0.3712
 6266TIP3    H118804   2.620   4.459   0.877 -0.7258  0.4985 -3.7647
 6266TIP3    H218805   2.492   4.382   0.903  0.2075 -0.1885 -0.7098
 6267TIP3   OH218806   5.482   2.252   3.359 -0.1531 -0.4096  0.2331
 6267TIP3    H118807   5.414   2.199   3.317  0.2650 -0.8886  0.1480
 6267TIP3    H218808   5.448   2.341   3.356 -0.6759 -0.6104 -0.0140
 6268TIP3   OH218809   1.806   5.575   2.309  0.3463  0.2223 -0.2500
 6268TIP3    H118810   1.901   5.574   2.298  0.5468 -2.3061  0.9700
 6268TIP3    H218811   1.771   5.578   2.220  1.6313 -0.9338 -0.8282
 6269TIP3   OH218812   2.850   0.928   3.354 -0.1143 -0.1738  0.2443
 6269TIP3    H118813   2.819   0.984   3.426 -0.0580 -2.2902  2.0079
 6269TIP3    H218814   2.944   0.923   3.368  0.0714  0.3638 -0.7437
 6270TIP3   OH218815   2.707   1.325   1.872  0.6204  0.2350 -0.0117
 6270TIP3    H118816   2.686   1.311   1.780  0.8031 -0.4348  0.0446
 6270TIP3    H218817   2.713   1.420   1.881 -1.6760  0.4720 -0.1960
 6271TIP3   OH218818   5.898   0.652   4.921 -0.4307 -0.6334 -0.4336
 6271TIP3    H118819   5.848   0.579   4.956  0.8542 -1.0165  0.6741
 6271TIP3    H218820   5.985   0.616   4.905  0.5373  0.8679  1.1405
 6272TIP3   OH218821   0.047   4.420   1.691 -0.3893 -0.1570  0.6058
 6272TIP3    H118822   0.039   4.432   1.596 -0.1889  0.6191  0.6859
 6272TIP3    H218823  -0.007   4.489   1.729 -1.8229 -1.4577  1.0655
 6273TIP3   OH218824   6.005   4.257   1.718  0.0866  0.5523  0.0220
 6273TIP3    H118825   6.046   4.335   1.680 -0.6703  0.8254 -0.2435
 6273TIP3    H218826   6.055   4.184   1.681  1.3517  0.9177  0.9327
 6274TIP3   OH218827   0.587   5.184   4.193 -0.1994  0.3653 -0.0908
 6274TIP3    H118828   0.599   5.198   4.099 -3.0400  1.3298 -0.3913
 6274TIP3    H218829   0.494   5.166   4.204  0.3887 -1.8696  2.3555
 6275TIP3   OH218830   4.814   3.328   0.277 -0.2751 -0.3609  0.3814
 6275TIP3    H118831   4.859   3.354   0.357 -0.2410  0.1527  0.1956
 6275TIP3    H218832   4.788   3.237   0.293  2.1547 -1.2258 -0.0649
 6276TIP3   OH218833   4.706   2.991   1.237  0.2947  0.5212  0.0140
 6276TIP3    H118834   4.747   2.943   1.309 -0.5344  0.9813  0.8146
 6276TIP3    H218835   4.642   3.048   1.279 -0.5962  0.4100 -1.1264
 6277TIP3   OH218836   2.978   4.740   4.352  0.2199 -0.1737 -0.1402
 6277TIP3    H118837   3.047   4.674   4.340 -0.1063 -0.5747  0.1537
 6277TIP3    H218838   2.901   4.690   4.379  0.5184  0.5038  2.1833
 6278TIP3   OH218839   1.597   3.425   4.466 -0.0058 -0.1202  0.1697
 6278TIP3    H118840   1.627   3.357   4.526  0.5428  1.2333  1.4835
 6278TIP3    H218841   1.569   3.377   4.388  0.0702 -1.8624  1.1636
 6279TIP3   OH218842   2.263   1.372   3.666  0.3950  0.4000 -0.1874
 6279TIP3    H118843   2.333   1.317   3.630 -1.4895 -1.8054 -0.7167
 6279TIP3    H218844   2.272   1.362   3.760  2.2334  2.1392 -0.1017
 6280TIP3   OH218845   4.448   4.433   5.078  0.4173 -0.1207  0.1161
 6280TIP3    H118846   4.466   4.360   5.138  2.0436  0.1318 -0.0306
 6280TIP3    H218847   4.534   4.467   5.055 -0.2905  1.5957 -0.1503
 6281TIP3   OH218848   3.230   4.294   1.066 -0.6462 -0.9967 -0.1260
 6281TIP3    H118849   3.232   4.280   0.971  0.0625  1.3699 -0.5184
 6281TIP3    H218850   3.166   4.363   1.079  1.3681  0.8295  0.7276
 6282TIP3   OH218851   2.925   5.604   0.845  0.0425 -0.1725  0.0298
 6282TIP3    H118852   2.867   5.627   0.917  0.0653 -1.5837  0.5417
 6282TIP3    H218853   2.894   5.518   0.815  1.3171 -0.5757 -0.2453
 6283TIP3   OH218854   4.654   1.651   0.465  0.0198 -0.0818  0.0101
 6283TIP3    H118855   4.642   1.556   0.465 -0.6560 -0.0186  1.1882
 6283TIP3    H218856   4.719   1.667   0.396  1.1151 -1.5195  0.6491
 6284TIP3   OH218857   0.970   4.949   1.403 -0.0120  0.6610  0.1120
 6284TIP3    H118858   0.911   5.023   1.421 -0.2920  0.9301 -1.6910
 6284TIP3    H218859   0.966   4.939   1.307 -0.9512 -2.4755  0.3769
 6285TIP3   OH218860   1.798   2.389   2.359  0.0029 -0.0922 -0.0017
 6285TIP3    H118861   1.721   2.338   2.333  0.5355  0.0266 -1.9893
 6285TIP3    H218862   1.852   2.393   2.280  2.8255 -1.4780  1.6807
 6286TIP3   OH218863   5.755   5.411   4.932 -0.5675 -0.0984 -0.1387
 6286TIP3    H118864   5.729   5.353   4.861 -0.9580  0.8036 -0.7523
 6286TIP3    H218865   5.846   5.433   4.912 -1.1138  1.3505 -1.2385
 6287TIP3   OH218866   3.652   0.495   1.477  0.6472  0.1111 -0.1995
 6287TIP3    H118867   3.585   0.427   1.474 -0.3440  1.0771 -1.0814
 6287TIP3    H218868   3.728   0.454   1.436  0.3078 -0.7028 -0.0504
 6288TIP3   OH218869   2.818   4.439   2.082 -0.1463  0.3150 -0.1537
 6288TIP3    H118870   2.788   4.360   2.038  0.0331  0.3561 -0.3532
 6288TIP3    H218871   2.837   4.500   2.011 -1.1752  0.8624  0.0310
 6289TIP3   OH218872   1.163   1.711   2.735  0.1315  0.2544 -0.2923
 6289TIP3    H118873   1.071   1.709   2.761  0.2930 -0.6334  0.2532
 6289TIP3    H218874   1.182   1.803   2.718 -1.3651  0.2659 -2.2449
 6290TIP3   OH218875   5.911   3.825   3.679 -0.0210  0.3078 -0.4625
 6290TIP3    H118876   5.973   3.762   3.714 -1.6581 -0.9930  0.2425
 6290TIP3    H218877   5.949   3.910   3.700  2.0025 -0.4098 -0.9975
 6291TIP3   OH218878   2.410   5.036   0.366 -0.0135 -0.1497 -0.3218
 6291TIP3    H118879   2.502   5.049   0.343 -0.3972  0.3432 -1.6890
 6291TIP3    H218880   2.394   4.943   0.351 -0.2323  0.1420 -2.1404
 6292TIP3   OH218881   4.618   2.130   1.760  0.1539  0.1149 -0.3496
 6292TIP3    H118882   4.711   2.107   1.766  0.1758  0.1583 -0.5165
 6292TIP3    H218883   4.581   2.065   1.700  0.2496  0.6082 -0.9589
 6293TIP3   OH218884   2.396   5.130   2.178  0.2765 -0.4564  0.5644
 6293TIP3    H118885   2.455   5.131   2.253 -0.9531  0.9678  1.5592
 6293TIP3    H218886   2.322   5.184   2.204  0.0624  0.5916 -1.8843
 6294TIP3   OH218887   0.356   2.410   2.971 -0.2493 -0.3341 -0.4790
 6294TIP3    H118888   0.396   2.385   2.888 -0.3255  1.3146 -1.0567
 6294TIP3    H218889   0.264   2.427   2.949 -0.3772 -0.3625  0.0310
 6295TIP3   OH218890   4.746   1.192   2.732  0.4171  0.0403 -0.1476
 6295TIP3    H118891   4.807   1.118   2.740  0.4959  0.2163  0.9602
 6295TIP3    H218892   4.787   1.248   2.666  0.6696 -0.5968 -0.5503
 6296TIP3   OH218893   2.331   2.245   3.814  0.7578 -0.0222 -0.1065
 6296TIP3    H118894   2.345   2.242   3.909 -0.1770 -0.7312  0.0239
 6296TIP3    H218895   2.350   2.335   3.790 -2.9996  1.4103  1.4455
 6297TIP3   OH218896   2.510   2.677   0.517 -0.5975  0.6119 -0.3170
 6297TIP3    H118897   2.449   2.704   0.585  2.2148  0.2529  2.5659
 6297TIP3    H218898   2.535   2.758   0.473  1.2913  1.7431  2.5482
 6298TIP3   OH218899   3.265   1.805   4.055 -0.0832  0.3025 -0.3920
 6298TIP3    H118900   3.183   1.851   4.038 -0.3661  0.5362  1.4270
 6298TIP3    H218901   3.328   1.874   4.078 -0.6923 -0.1177  3.0534
 6299TIP3   OH218902   4.114   5.260   0.810 -0.1489  0.0832  0.1270
 6299TIP3    H118903   4.172   5.324   0.769 -0.0436 -0.1114 -0.0268
 6299TIP3    H218904   4.080   5.305   0.888  0.9516 -0.1232  0.7507
 6300TIP3   OH218905   3.866   3.204   2.210  0.6053 -0.1433 -0.3400
 6300TIP3    H118906   3.865   3.148   2.288 -0.3232 -0.0852 -0.2965
 6300TIP3    H218907   3.773   3.219   2.190  0.7990 -0.9884 -2.0538
 6301TIP3   OH218908   5.282   1.862   1.309 -0.1498  0.5789  0.2975
 6301TIP3    H118909   5.203   1.895   1.268  0.7171  0.6452 -1.4125
 6301TIP3    H218910   5.309   1.789   1.253  2.3987  2.1925 -0.7579
 6302TIP3   OH218911   4.247   2.034   2.704 -0.2254 -0.5100  0.4498
 6302TIP3    H118912   4.300   2.093   2.650  1.1709 -1.6482  0.5302
 6302TIP3    H218913   4.156   2.054   2.678  0.2711  0.7361 -0.4646
 6303TIP3   OH218914   3.279   0.596   4.573  0.4247 -0.5741  0.2986
 6303TIP3    H118915   3.286   0.504   4.548  0.4031 -0.1682 -1.3165
 6303TIP3    H218916   3.225   0.596   4.651  0.1450 -1.9067  0.1289
 6304TIP3   OH218917   4.303   4.417   4.856  0.4652 -0.4297  0.1594
 6304TIP3    H118918   4.280   4.324   4.857 -0.7667 -0.1405  1.0342
 6304TIP3    H218919   4.336   4.435   4.944  0.9519 -0.0927 -0.0874
 6305TIP3   OH218920   4.164   3.216   3.001  0.5303  0.2049 -0.6114
 6305TIP3    H118921   4.097   3.262   2.952  0.7907  0.5612 -0.6379
 6305TIP3    H218922   4.218   3.286   3.040  0.3772 -0.0677  0.1137
 6306TIP3   OH218923   0.544   4.887   1.422 -0.2369 -0.2698  0.1727
 6306TIP3    H118924   0.458   4.875   1.382 -0.2831  2.2699 -0.6315
 6306TIP3    H218925   0.592   4.941   1.359  0.9497  0.7649  1.9033
 6307TIP3   OH218926   4.453   5.362   3.421 -0.1086  0.4100  0.0519
 6307TIP3    H118927   4.399   5.441   3.424 -0.6667  0.0144  2.3191
 6307TIP3    H218928   4.485   5.359   3.331 -2.9398  1.2605 -1.1041
 6308TIP3   OH218929   2.197   4.044   4.513 -0.0518 -0.1433 -0.3804
 6308TIP3    H118930   2.255   4.028   4.439  0.1583  0.5311 -0.3719
 6308TIP3    H218931   2.236   4.119   4.558 -1.4977  1.0201 -0.9839
 6309TIP3   OH218932   1.273   1.183   2.298 -0.2012  0.7449 -0.5858
 6309TIP3    H118933   1.315   1.105   2.334 -1.7811 -1.1280 -2.5081
 6309TIP3    H218934   1.297   1.253   2.358  0.7589 -1.3249  1.6243
 6310TIP3   OH218935   5.753   4.025   1.506 -0.3999 -0.0833  0.2298
 6310TIP3    H118936   5.720   4.108   1.539  0.6700  0.2069  0.6264
 6310TIP3    H218937   5.686   3.995   1.444 -0.1550  1.7800 -1.0364
 6311TIP3   OH218938   0.062   5.531   2.298 -0.0141  0.7563 -0.1616
 6311TIP3    H118939   0.062   5.609   2.354 -2.2902  1.0946 -0.5241
 6311TIP3    H218940   0.148   5.532   2.256  0.2782  2.6821  0.3751
 6312TIP3   OH218941   2.306   4.372   0.899 -0.2787  0.1644 -0.4003
 6312TIP3    H118942   2.292   4.365   0.804 -2.6584 -1.9918  0.0056
 6312TIP3    H218943   2.220   4.353   0.937  0.5234  1.3558  2.2201
 6313TIP3   OH218944   4.259   1.091   2.046  0.6294  0.1217  0.1854
 6313TIP3    H118945   4.250   0.998   2.067 -1.0148  0.1355 -0.3543
 6313TIP3    H218946   4.349   1.099   2.013  0.8966 -1.2149  0.5215
 6314TIP3   OH218947   2.503   4.677   2.379  0.0446 -0.1336 -0.4589
 6314TIP3    H118948   2.554   4.750   2.344  2.4164 -2.3493 -2.0820
 6314TIP3    H218949   2.482   4.702   2.468  0.1172  2.7857 -1.1650
 6315TIP3   OH218950   4.961   1.768   2.595 -0.2335  0.1818 -0.5401
 6315TIP3    H118951   4.912   1.714   2.534 -1.7158 -2.5445  2.7535
 6315TIP3    H218952   5.008   1.706   2.651  0.6184  2.4124  1.4296
 6316TIP3   OH218953   3.323   1.594   1.196 -0.4484 -0.6608  0.4558
 6316TIP3    H118954   3.410   1.626   1.171 -0.8181  0.4400  0.4979
 6316TIP3    H218955   3.277   1.582   1.113 -1.3049  1.9146  0.4659
 6317TIP3   OH218956   0.494   0.912   4.455 -0.0378 -0.1277 -0.0327
 6317TIP3    H118957   0.426   0.946   4.397 -0.8223  0.2702  1.0784
 6317TIP3    H218958   0.554   0.986   4.467 -0.5395  0.1850  0.6151
 6318TIP3   OH218959   5.824   0.605   0.941 -0.2119  0.0214 -0.2224
 6318TIP3    H118960   5.919   0.605   0.950 -0.3551 -0.2241  1.5586
 6318TIP3    H218961   5.808   0.558   0.859  1.1435 -2.3426  0.7762
 6319TIP3   OH218962   6.166   2.512   1.596 -0.0260 -0.2108 -0.0835
 6319TIP3    H118963   6.234   2.553   1.543 -1.6403  1.3427 -1.0923
 6319TIP3    H218964   6.185   2.418   1.591  2.3607  0.1887  0.2190
 6320TIP3   OH218965   5.831   2.587   4.630 -0.5114 -0.2907 -0.1144
 6320TIP3    H118966   5.772   2.581   4.706  0.5241  0.2596  0.7529
 6320TIP3    H218967   5.815   2.505   4.582 -0.7228 -0.9612  1.0402
 6321TIP3   OH218968   1.438   5.463   2.255 -0.1568  0.1343 -0.5229
 6321TIP3    H118969   1.393   5.473   2.171 -1.3749  0.2712  0.1280
 6321TIP3    H218970   1.469   5.551   2.275  0.5766  0.0095 -1.0494
 6322TIP3   OH218971   5.473   1.985   0.495 -0.3096  0.5586  0.1809
 6322TIP3    H118972   5.420   1.908   0.475  0.5276 -0.3685  1.4072
 6322TIP3    H218973   5.562   1.959   0.472 -0.0533  1.2647  0.3501
 6323TIP3   OH218974   2.652   4.365   2.800 -0.8176  0.5107 -0.5320
 6323TIP3    H118975   2.605   4.333   2.877  0.6512  0.4413  0.3660
 6323TIP3    H218976   2.585   4.369   2.731 -1.4629 -2.8896 -0.2555
 6324TIP3   OH218977   5.196   0.472   0.158 -0.3619  0.3011  0.1516
 6324TIP3    H118978   5.191   0.480   0.063 -1.1101 -0.1311  0.1491
 6324TIP3    H218979   5.156   0.553   0.190  0.7764  0.8972  0.1057
 6325TIP3   OH218980   3.292   5.585   1.569  0.4912 -0.2825  0.0611
 6325TIP3    H118981   3.231   5.629   1.629  0.6542 -0.1552  0.1359
 6325TIP3    H218982   3.370   5.641   1.570 -0.5625  1.4167 -2.6142
 6326TIP3   OH218983   2.870   3.889   4.554 -0.5732  0.0018  1.0770
 6326TIP3    H118984   2.920   3.945   4.495  0.1225 -2.7149 -1.1324
 6326TIP3    H218985   2.779   3.901   4.527 -0.5621  0.9130  1.4212
 6327TIP3   OH218986   4.463   1.184   2.703 -0.4886  0.4959 -0.0450
 6327TIP3    H118987   4.553   1.178   2.733 -0.2353  1.1471 -0.6641
 6327TIP3    H218988   4.431   1.094   2.703 -0.1313  0.3487  1.0399
 6328TIP3   OH218989   0.293   0.516   1.068 -0.0623  0.1791  0.1831
 6328TIP3    H118990   0.365   0.579   1.056  0.6171 -0.5658  0.2246
 6328TIP3    H218991   0.332   0.432   1.044 -0.7744 -0.3137  0.7358
 6329TIP3   OH218992   4.908   5.859   2.800  0.1256  0.3582 -0.3557
 6329TIP3    H118993   4.816   5.875   2.821  0.2099 -0.1796  0.4923
 6329TIP3    H218994   4.949   5.842   2.885  1.2093  1.5194 -0.6156
 6330TIP3   OH218995   4.362   0.141   4.331 -0.6284 -0.0149 -0.6289
 6330TIP3    H118996   4.392   0.151   4.421 -1.1427  0.2529 -0.4810
 6330TIP3    H218997   4.420   0.075   4.293 -2.5080 -2.7848  0.9330
 6331TIP3   OH218998   3.067   0.218   2.064 -0.2813  0.1901  0.1313
 6331TIP3    H118999   3.160   0.195   2.061 -0.0635  0.9520  0.6504
 6331TIP3    H219000   3.035   0.199   1.976 -0.2783 -2.6102  0.6697
 6332TIP3   OH219001   4.457   1.785   4.145 -0.3027  0.1202  0.0969
 6332TIP3    H119002   4.369   1.775   4.181 -0.2880 -0.0016  0.0984
 6332TIP3    H219003   4.443   1.801   4.052 -0.3529  0.6951  0.1969
 6333TIP3   OH219004   0.286   5.192   3.946 -0.3803 -0.2626 -0.0219
 6333TIP3    H119005   0.373   5.153   3.943 -0.2586 -0.1399  1.2768
 6333TIP3    H219006   0.302   5.287   3.950 -0.6343 -0.1339 -1.5627
 6334TIP3   OH219007   6.273   0.580   3.741  0.2341  0.0134 -0.4331
 6334TIP3    H119008   6.336   0.513   3.712  0.1790 -0.7669  1.1569
 6334TIP3    H219009   6.235   0.613   3.660  0.9722 -1.1936 -1.3073
 6335TIP3   OH219010   5.028   1.808   3.121  0.0786 -0.3606  0.0305
 6335TIP3    H119011   5.041   1.892   3.165 -0.2143  0.3664 -1.2232
 6335TIP3    H219012   4.938   1.812   3.088 -0.0037 -1.2586  0.1147
 6336TIP3   OH219013   0.558   1.305   0.589 -0.3279 -0.0874  0.2753
 6336TIP3    H119014   0.631   1.278   0.534  0.2776 -1.9145  1.8823
 6336TIP3    H219015   0.546   1.233   0.651 -2.0670  1.1429  1.4752
 6337TIP3   OH219016   1.209   3.429   0.784 -0.0371 -0.0462  0.3386
 6337TIP3    H119017   1.166   3.498   0.836 -3.2617 -0.7941 -1.0532
 6337TIP3    H219018   1.158   3.350   0.803  1.3402 -1.2621 -0.8020
 6338TIP3   OH219019   5.080   2.968   4.647 -0.5572 -0.7098  0.1330
 6338TIP3    H119020   5.123   2.997   4.727  0.6838  0.4570 -0.9081
 6338TIP3    H219021   5.010   2.910   4.677 -1.1417  0.9078  2.1578
 6339TIP3   OH219022   3.028   1.687   3.091 -0.2407 -0.1438 -0.1112
 6339TIP3    H119023   3.013   1.649   3.178 -0.3045 -1.7916 -0.7914
 6339TIP3    H219024   3.067   1.615   3.041  1.2088  1.2323 -1.0329
 6340TIP3   OH219025   3.114   0.923   2.802  0.1001  0.4058  0.2932
 6340TIP3    H119026   3.120   0.945   2.709 -1.9172 -0.8224 -0.2095
 6340TIP3    H219027   3.198   0.950   2.839  0.1832  2.8972 -1.4373
 6341TIP3   OH219028   3.102   0.697   1.218  0.0023  0.5176  0.1605
 6341TIP3    H119029   3.177   0.704   1.277 -0.6762  1.4123  0.9518
 6341TIP3    H219030   3.058   0.782   1.225 -0.7107  0.2443 -0.7939
 6342TIP3   OH219031   2.588   1.358   4.724  0.2124 -0.9872  0.2405
 6342TIP3    H119032   2.664   1.412   4.702 -2.5061  2.5937 -1.3995
 6342TIP3    H219033   2.561   1.388   4.810 -0.5691 -0.5892 -0.1297
 6343TIP3   OH219034   2.234   4.628   0.705 -0.1858 -0.0698  0.5275
 6343TIP3    H119035   2.302   4.586   0.651  1.1437  1.8746  0.5692
 6343TIP3    H219036   2.214   4.709   0.659  0.0582  1.0407  2.2923
 6344TIP3   OH219037   5.779   5.576   2.135  0.4632 -0.1694  0.4713
 6344TIP3    H119038   5.799   5.584   2.042 -0.4859 -1.2726  0.1404
 6344TIP3    H219039   5.764   5.665   2.165 -2.4474  0.0235 -1.2152
 6345TIP3   OH219040   2.505   0.409   2.991 -0.0654 -0.3416  0.1336
 6345TIP3    H119041   2.428   0.425   2.937  0.5834 -1.3903 -1.1552
 6345TIP3    H219042   2.531   0.319   2.970  1.6250  0.0572  0.3639
 6346TIP3   OH219043   2.483   0.683   1.973  0.2460  0.2251 -0.6132
 6346TIP3    H119044   2.445   0.680   2.061 -0.0841  0.3055 -0.7505
 6346TIP3    H219045   2.558   0.624   1.978  0.7389  0.8946 -0.0405
 6347TIP3   OH219046   3.356   2.982   0.876 -0.4230  0.0897  0.0388
 6347TIP3    H119047   3.429   2.922   0.868  0.9672  1.5658  0.9809
 6347TIP3    H219048   3.324   2.993   0.787 -0.0285 -1.1875 -0.2799
 6348TIP3   OH219049   1.435   2.061   5.103  0.3253  0.1411 -0.1529
 6348TIP3    H119050   1.509   2.121   5.097 -0.5876  1.6516  1.9994
 6348TIP3    H219051   1.367   2.102   5.049  0.2040  0.2219  0.0591
 6349TIP3   OH219052   1.929   5.189   5.016  0.2901  0.1449  0.2399
 6349TIP3    H119053   1.958   5.254   5.080  0.3390  1.3694 -0.9685
 6349TIP3    H219054   1.973   5.109   5.041  0.3005  0.5931  1.7319
 6350TIP3   OH219055   5.049   3.557   3.160 -0.2483  0.0076 -0.0307
 6350TIP3    H119056   5.071   3.542   3.252  0.3019 -0.3261 -0.2157
 6350TIP3    H219057   5.064   3.473   3.118  2.7195  0.9635 -1.0563
 6351TIP3   OH219058   5.163   0.339   4.714 -0.0137 -0.3931 -0.5563
 6351TIP3    H119059   5.192   0.424   4.746  0.1831 -1.0528  1.1123
 6351TIP3    H219060   5.095   0.360   4.650  0.3795  1.0165 -0.5505
 6352TIP3   OH219061  -0.035   0.136   4.406 -0.4662  0.0941 -0.3886
 6352TIP3    H119062   0.020   0.195   4.354  0.2579 -1.6903 -1.7968
 6352TIP3    H219063   0.023   0.062   4.425 -1.3407 -0.1929  1.3007
 6353TIP3   OH219064   1.295   2.942   2.357  0.3125  0.7168  0.1803
 6353TIP3    H119065   1.270   2.956   2.448  0.3317  1.6000  0.0591
 6353TIP3    H219066   1.250   2.861   2.332 -0.3248  0.8900  0.7416
 6354TIP3   OH219067   3.844   2.865   1.653 -0.0178  0.4227 -0.6786
 6354TIP3    H119068   3.847   2.928   1.580 -0.9137  0.6468 -0.5336
 6354TIP3    H219069   3.823   2.782   1.611  1.0592  0.2266 -0.8575
 6355TIP3   OH219070   2.224   5.028   2.858  0.6346 -0.2121 -0.3284
 6355TIP3    H119071   2.130   5.028   2.843  0.8683 -1.2085 -1.9959
 6355TIP3    H219072   2.243   4.942   2.895  0.7261  0.5280  1.4664
 6356TIP3   OH219073   4.462   2.468   5.157  0.2536 -0.4332 -0.3461
 6356TIP3    H119074   4.382   2.505   5.195  0.5709  1.3926 -1.3244
 6356TIP3    H219075   4.433   2.393   5.106 -0.6477 -0.5884  0.3724
 6357TIP3   OH219076   3.837   2.654   1.878  0.7787  0.3529  0.0331
 6357TIP3    H119077   3.825   2.702   1.959 -0.0699  1.5932 -0.7900
 6357TIP3    H219078   3.847   2.721   1.811 -1.1017 -0.5504 -1.2525
 6358TIP3   OH219079   4.731   1.825   1.887  0.2268  0.1451  0.3085
 6358TIP3    H119080   4.640   1.824   1.917  0.1868 -1.8214  0.2710
 6358TIP3    H219081   4.757   1.917   1.892 -0.8769  0.4250  3.0319
 6359TIP3   OH219082   2.121   5.597   2.325 -0.3289 -0.4819  0.0221
 6359TIP3    H119083   2.194   5.659   2.322 -0.0207 -0.8568 -0.3647
 6359TIP3    H219084   2.131   5.545   2.245 -0.5268 -1.0948  0.3903
 6360TIP3   OH219085   1.315   5.435   3.934 -0.1965 -0.1879  0.1046
 6360TIP3    H119086   1.317   5.457   4.028 -2.0500 -0.3749  0.2311
 6360TIP3    H219087   1.254   5.499   3.896 -0.6644 -1.0804 -0.6848
 6361TIP3   OH219088   2.558   2.468   4.200  0.5529 -0.4232  0.6404
 6361TIP3    H119089   2.608   2.386   4.197  2.3214  0.4186  3.1230
 6361TIP3    H219090   2.524   2.472   4.290  2.0810  2.3223  1.2277
 6362TIP3   OH219091   4.636   0.701   1.500  0.4868 -0.1853 -0.3923
 6362TIP3    H119092   4.720   0.743   1.515 -0.9513  2.4626  0.9826
 6362TIP3    H219093   4.601   0.683   1.587 -0.5045 -0.9821 -0.9212
 6363TIP3   OH219094   4.599   3.582   3.016  0.1123 -0.5798 -0.2743
 6363TIP3    H119095   4.514   3.539   3.015 -0.0702 -0.2264  0.0346
 6363TIP3    H219096   4.581   3.672   2.988  0.6543 -0.9838 -2.0485
 6364TIP3   OH219097   2.668   3.937   0.960 -0.1009  0.4074  0.3081
 6364TIP3    H119098   2.742   3.906   0.908 -0.2111 -0.3161  0.5723
 6364TIP3    H219099   2.693   3.920   1.051 -0.2336  0.9572  0.4560
 6365TIP3   OH219100   5.987   4.548   2.282  0.8177 -0.7292  0.0548
 6365TIP3    H119101   5.990   4.457   2.251  2.2711 -0.9469  0.7191
 6365TIP3    H219102   6.076   4.581   2.266 -0.0557  1.0661 -1.5159
 6366TIP3   OH219103   3.702   1.838   0.704 -0.1416  0.7666  0.2726
 6366TIP3    H119104   3.621   1.882   0.729 -0.4949 -0.3746  1.1706
 6366TIP3    H219105   3.739   1.894   0.635 -1.1662  1.8342  0.5642
 6367TIP3   OH219106   1.410   5.364   3.250 -0.5661  0.5037  0.0743
 6367TIP3    H119107   1.417   5.439   3.191  0.2925 -0.5701 -1.2418
 6367TIP3    H219108   1.409   5.287   3.193 -1.0244 -0.5269  1.4040
 6368TIP3   OH219109   5.566   1.922   0.975 -0.2843 -0.1867  0.1457
 6368TIP3    H119110   5.498   1.855   0.968  0.1337 -0.5590 -0.4557
 6368TIP3    H219111   5.570   1.961   0.888  1.8688 -1.7731 -0.5452
 6369TIP3   OH219112   5.253   0.394   2.859  0.0210 -0.3306 -0.2397
 6369TIP3    H119113   5.266   0.489   2.858  0.8654 -0.3925  1.6339
 6369TIP3    H219114   5.201   0.378   2.937 -0.0999 -1.4334 -0.5289
 6370TIP3   OH219115   1.816   2.458   4.170  0.3548 -0.8156  0.0981
 6370TIP3    H119116   1.825   2.465   4.265  1.0680  1.2142 -0.0624
 6370TIP3    H219117   1.887   2.401   4.142  2.1437  1.1136  0.5249
 6371TIP3   OH219118   0.577   4.470   1.615 -0.1202  0.2900  0.0236
 6371TIP3    H119119   0.591   4.562   1.635 -0.3022 -0.2555  3.3138
 6371TIP3    H219120   0.495   4.468   1.565  1.4927  2.0321 -2.9851
 6372TIP3   OH219121   4.542   4.049   4.837  0.4379  0.1026  0.4898
 6372TIP3    H119122   4.520   4.074   4.748 -0.5532 -1.1284  0.3524
 6372TIP3    H219123   4.502   3.962   4.848  2.5144 -0.8214  1.3547
 6373TIP3   OH219124   3.140   2.357   4.806  0.2715  0.1845  0.5657
 6373TIP3    H119125   3.227   2.377   4.842  1.5863  2.3522 -3.1782
 6373TIP3    H219126   3.087   2.434   4.828  0.5076  0.6224 -0.3287
 6374TIP3   OH219127   2.637   2.722   5.003  0.5881 -0.2553  0.6528
 6374TIP3    H119128   2.623   2.634   4.966 -0.9832  0.0064  0.5539
 6374TIP3    H219129   2.719   2.714   5.052  1.7087 -1.1535 -1.2390
 6375TIP3   OH219130   3.250   5.979   3.359 -0.8986 -0.4589 -0.2569
 6375TIP3    H119131   3.231   5.892   3.325 -0.1976  0.0447 -2.1136
 6375TIP3    H219132   3.255   6.034   3.281 -1.5016  1.2925  0.8761
 6376TIP3   OH219133   2.613   3.186   4.863  0.6775 -0.3967 -0.0396
 6376TIP3    H119134   2.595   3.098   4.829  0.6865 -0.6221  0.5320
 6376TIP3    H219135   2.656   3.171   4.947  0.5196  0.1583  0.1444
 6377TIP3   OH219136   0.073   4.738   1.056  0.0799 -0.4780  0.2714
 6377TIP3    H119137   0.155   4.789   1.056  0.3290 -0.8045  2.3733
 6377TIP3    H219138   0.082   4.679   0.981  1.8978 -0.7021  0.6272
 6378TIP3   OH219139   0.576   2.019   0.978 -0.6084  0.5218 -0.4987
 6378TIP3    H119140   0.522   1.954   1.022 -0.3867  0.1165 -0.8155
 6378TIP3    H219141   0.618   1.971   0.906  0.0840  0.8523 -0.3254
 6379TIP3   OH219142   2.836   4.630   0.985 -0.4124 -0.2446  0.1019
 6379TIP3    H119143   2.758   4.623   0.929 -1.1969 -1.8154  1.3038
 6379TIP3    H219144   2.807   4.682   1.060 -0.1499 -0.3994  0.3120
 6380TIP3   OH219145   3.248   4.660   2.737 -0.2354  0.8625  0.2075
 6380TIP3    H119146   3.197   4.613   2.671  0.0734  0.3859  0.3091
 6380TIP3    H219147   3.335   4.669   2.699  0.5658 -1.2634  1.3673
 6381TIP3   OH219148   0.168   0.495   1.863 -0.1648  0.0503 -0.0255
 6381TIP3    H119149   0.151   0.463   1.951 -1.5673  0.8452  0.0235
 6381TIP3    H219150   0.087   0.479   1.815 -0.0643  1.2803 -0.6475
 6382TIP3   OH219151   1.132   2.827   1.270 -0.1036 -0.1067  0.0899
 6382TIP3    H119152   1.062   2.763   1.258 -0.8536  0.8003 -0.4385
 6382TIP3    H219153   1.135   2.840   1.365 -0.4546 -0.3719  0.1414
 6383TIP3   OH219154   5.544   0.155   1.457  0.2623  0.3375 -0.4947
 6383TIP3    H119155   5.595   0.236   1.456  1.6796 -0.5010  0.4929
 6383TIP3    H219156   5.602   0.091   1.497 -1.6556 -0.6215  0.9113
 6384TIP3   OH219157   5.723   2.462   3.609  0.5434 -0.4360  0.4293
 6384TIP3    H119158   5.748   2.549   3.640 -0.7261 -0.1892  0.8263
 6384TIP3    H219159   5.776   2.448   3.531 -0.3306  1.3635 -0.5434
 6385TIP3   OH219160   5.900   4.789   5.088 -0.3835 -0.3581 -0.0204
 6385TIP3    H119161   5.833   4.855   5.069  0.2945  0.5293  0.5683
 6385TIP3    H219162   5.982   4.839   5.089 -0.0573 -0.8260  2.3856
 6386TIP3   OH219163   3.714   5.063   5.087  0.1798  0.4832 -0.3493
 6386TIP3    H119164   3.683   5.153   5.091  0.7547  0.6899 -0.4892
 6386TIP3    H219165   3.699   5.035   4.997 -1.4341 -0.0885  0.0657
 6387TIP3   OH219166   1.693   4.240   2.417 -0.0296  0.3177 -0.2903
 6387TIP3    H119167   1.643   4.212   2.494  0.6095  0.5663  0.2250
 6387TIP3    H219168   1.680   4.170   2.353  1.5571 -1.2286  0.9862
 6388TIP3   OH219169   4.132   2.076   4.932  0.7809  0.3911  0.6526
 6388TIP3    H119170   4.062   2.141   4.940 -0.3853 -0.4374 -1.7422
 6388TIP3    H219171   4.188   2.109   4.862  0.9462 -0.5146  0.3463
 6389TIP3   OH219172   3.705   1.014   3.408 -0.2564 -0.9136  0.1549
 6389TIP3    H119173   3.623   0.965   3.415  0.2760 -1.9361 -0.5850
 6389TIP3    H219174   3.739   1.016   3.497 -1.9964  1.2015  0.8600
 6390TIP3   OH219175   0.439   2.824   0.329  0.6382  0.0145 -0.6613
 6390TIP3    H119176   0.515   2.879   0.311  1.6870 -0.2669  2.3402
 6390TIP3    H219177   0.474   2.735   0.330 -0.0771 -0.2747 -0.8830
 6391TIP3   OH219178   4.801   3.805   3.144 -0.2215  0.8315 -0.6831
 6391TIP3    H119179   4.877   3.830   3.092  0.4014 -0.3469 -0.3760
 6391TIP3    H219180   4.726   3.818   3.086  0.4556 -0.3842 -1.8927
 6392TIP3   OH219181   5.632   0.703   3.605  0.0604  0.5120  0.5844
 6392TIP3    H119182   5.648   0.685   3.512  0.9822  0.8470  0.6686
 6392TIP3    H219183   5.618   0.797   3.609 -4.1345  0.0874  0.2333
 6393TIP3   OH219184   3.608   0.015   2.140 -0.0278 -1.3522  0.4352
 6393TIP3    H119185   3.647   0.093   2.180  0.6870 -2.0841  1.2057
 6393TIP3    H219186   3.521   0.044   2.113  0.3397 -0.2002  0.4124
 6394TIP3   OH219187   5.684   0.868   1.399  0.1086  0.5024  0.0373
 6394TIP3    H119188   5.589   0.876   1.406  0.1000 -0.5663  1.5457
 6394TIP3    H219189   5.698   0.818   1.319 -0.6245  0.1787  0.1081
 6395TIP3   OH219190   3.970   0.442   3.609 -0.2123  0.8433  0.3127
 6395TIP3    H119191   3.884   0.401   3.613 -0.3529  1.1944  0.9346
 6395TIP3    H219192   4.010   0.406   3.530  0.3679 -1.8338  1.7097
 6396TIP3   OH219193   3.600   4.933   0.980 -0.1798 -0.0915  0.0445
 6396TIP3    H119194   3.645   5.013   0.952 -0.2053 -0.3947 -0.8903
 6396TIP3    H219195   3.581   4.948   1.073 -0.1622  0.9789 -0.1087
 6397TIP3   OH219196   0.312   4.762   2.541  0.0881 -0.5492 -0.2294
 6397TIP3    H119197   0.250   4.755   2.613  2.4874 -1.4725  1.8762
 6397TIP3    H219198   0.274   4.708   2.471 -1.3495 -1.2593  1.0482
 6398TIP3   OH219199   2.604   3.574   1.299  0.1518 -0.2366  0.2708
 6398TIP3    H119200   2.541   3.517   1.343 -1.9638 -0.0493 -2.2295
 6398TIP3    H219201   2.554   3.653   1.278  1.5972  0.4612 -0.7012
 6399TIP3   OH219202   1.092   2.929   2.986  0.5325 -0.1359  0.0143
 6399TIP3    H119203   1.012   2.962   2.944  0.4011 -0.0709  0.3123
 6399TIP3    H219204   1.091   2.835   2.968 -1.3768 -0.7705  2.8181
 6400TIP3   OH219205   4.953   1.257   3.127 -0.5091  0.3482  0.0091
 6400TIP3    H119206   4.886   1.267   3.195 -0.3219  2.6295 -0.0469
 6400TIP3    H219207   4.930   1.323   3.061  1.9873  1.5137  0.1975
 6401TIP3   OH219208   3.044   0.534   1.498 -0.3808  0.1983 -0.3903
 6401TIP3    H119209   3.074   0.588   1.425 -0.6786  0.4981 -0.2964
 6401TIP3    H219210   3.099   0.560   1.572 -1.1579  1.0912 -0.0973
 6402TIP3   OH219211   1.948   0.733   0.690 -0.1468  0.2076 -0.1868
 6402TIP3    H119212   1.945   0.669   0.619 -1.4109 -2.0493  1.7707
 6402TIP3    H219213   1.860   0.731   0.728  0.5647  1.1167  1.6382
 6403TIP3   OH219214   0.237   5.041   2.756  0.5180  0.2426 -0.1571
 6403TIP3    H119215   0.272   4.974   2.814  1.8927  0.2905 -0.8978
 6403TIP3    H219216   0.267   5.124   2.795 -0.7827  0.4416  0.4957
 6404TIP3   OH219217   0.360   3.357   4.187  0.1006 -0.4071  0.2900
 6404TIP3    H119218   0.410   3.353   4.269 -0.6745  1.2228  0.8959
 6404TIP3    H219219   0.306   3.278   4.188  1.0022 -1.0369  0.7291
 6405TIP3   OH219220   0.405   3.124   1.651  0.8729 -0.1546  0.1373
 6405TIP3    H119221   0.378   3.208   1.614  0.5713 -1.0422 -1.7736
 6405TIP3    H219222   0.474   3.092   1.592  0.1351 -1.7927  0.0915
 6406TIP3   OH219223   1.052   4.198   0.695  0.0217 -0.2690 -0.5819
 6406TIP3    H119224   0.975   4.252   0.680 -0.1436 -0.3370 -0.0111
 6406TIP3    H219225   1.124   4.260   0.701 -0.1574 -0.1083  0.0118
 6407TIP3   OH219226   1.659   3.442   3.178  0.4047 -0.0398 -0.3639
 6407TIP3    H119227   1.654   3.483   3.265  0.1891 -0.6149 -0.0979
 6407TIP3    H219228   1.578   3.394   3.170 -0.6378  1.8266 -1.8458
 6408TIP3   OH219229   3.353   0.624   0.158  0.0109  0.0353 -0.3895
 6408TIP3    H119230   3.384   0.611   0.247 -2.1716 -1.5680  0.2103
 6408TIP3    H219231   3.319   0.714   0.157 -0.3269 -0.0836  0.5077
 6409TIP3   OH219232   3.296   1.116   5.211 -0.2873  0.4062  0.0533
 6409TIP3    H119233   3.389   1.099   5.195 -0.2596  0.6802 -0.0719
 6409TIP3    H219234   3.275   1.192   5.158 -0.1929  1.3258  1.2815
 6410TIP3   OH219235   0.604   5.347   4.857 -0.2112 -0.4904  0.1735
 6410TIP3    H119236   0.531   5.385   4.905  0.3705  0.3770  0.4055
 6410TIP3    H219237   0.662   5.312   4.925  0.5592  0.6423  0.1301
 6411TIP3   OH219238   0.563   3.377   2.488  0.1152 -0.7686 -0.3397
 6411TIP3    H119239   0.518   3.416   2.413  0.2190  2.5498  1.1280
 6411TIP3    H219240   0.655   3.374   2.461  0.2735  1.1421 -0.1832
 6412TIP3   OH219241   0.687   0.682   3.851  0.5270  0.0523  0.3962
 6412TIP3    H119242   0.672   0.678   3.757 -1.7415 -0.8609  0.7173
 6412TIP3    H219243   0.682   0.591   3.880  0.7066  0.3630  1.4467
 6413TIP3   OH219244   1.741   1.726   4.279  0.6479 -0.4175  0.0218
 6413TIP3    H119245   1.822   1.682   4.302  1.6266  1.2980  0.0307
 6413TIP3    H219246   1.741   1.806   4.332 -1.1943 -0.5055  0.2319
 6414TIP3   OH219247   2.377   4.915   0.891 -0.3140  0.2583  0.0268
 6414TIP3    H119248   2.353   4.998   0.932  3.9214  1.8401 -0.2444
 6414TIP3    H219249   2.396   4.939   0.800 -0.4599 -1.3601 -0.4565
 6415TIP3   OH219250   4.024   4.685   3.131  0.1456 -0.5146  0.3756
 6415TIP3    H119251   4.061   4.670   3.218  0.1046 -2.2144  0.1355
 6415TIP3    H219252   4.095   4.663   3.071  0.2518  0.8758 -0.0479
 6416TIP3   OH219253   1.687   0.450   1.983  0.4192 -1.0040  0.3720
 6416TIP3    H119254   1.737   0.398   2.046 -0.5742 -1.7425  0.5697
 6416TIP3    H219255   1.695   0.540   2.014  0.6149 -1.2606  1.0819
 6417TIP3   OH219256   4.183   1.501   2.047 -0.5033 -0.1536 -0.4888
 6417TIP3    H119257   4.249   1.486   2.115 -1.1468 -0.6301  0.0383
 6417TIP3    H219258   4.231   1.545   1.977  0.1367  0.4876  0.3342
 6418TIP3   OH219259   0.008   1.370   1.770  0.0381 -0.0366 -0.2640
 6418TIP3    H119260   0.043   1.349   1.683  0.6456 -0.1502  0.0053
 6418TIP3    H219261   0.084   1.398   1.820 -0.0842 -1.2779  0.6428
 6419TIP3   OH219262   2.094   0.086   1.370 -0.5714 -0.0860  0.0932
 6419TIP3    H119263   2.188   0.064   1.367 -0.6102 -0.2038 -1.9714
 6419TIP3    H219264   2.055   0.017   1.423  0.4948 -0.0806  0.9163
 6420TIP3   OH219265   3.923   0.584   3.149 -0.2959  0.0179  0.6705
 6420TIP3    H119266   3.966   0.525   3.211  0.6718  0.2678  0.2556
 6420TIP3    H219267   3.830   0.577   3.170 -0.0472 -0.4435  1.6701
 6421TIP3   OH219268   4.741   1.125   4.892  0.4367  0.5468 -0.3222
 6421TIP3    H119269   4.751   1.190   4.961  0.2043  0.2125  0.0334
 6421TIP3    H219270   4.755   1.041   4.936 -1.8813  0.1589 -0.1544
 6422TIP3   OH219271   0.499   1.478   3.232  0.7084 -0.7682  0.4084
 6422TIP3    H119272   0.430   1.535   3.264  0.6660 -0.0912 -0.8078
 6422TIP3    H219273   0.482   1.470   3.138  1.8172 -1.2255  0.2237
 6423TIP3   OH219274   0.396   4.334   4.997  0.1678 -0.0339  0.0749
 6423TIP3    H119275   0.426   4.253   5.037  1.3424  0.6411  0.6092
 6423TIP3    H219276   0.405   4.400   5.066  0.8787  0.8805 -0.8630
 6424TIP3   OH219277   4.061   3.662   4.122  0.2157  0.1841  0.3644
 6424TIP3    H119278   4.127   3.597   4.099 -0.8154 -0.6231 -0.4182
 6424TIP3    H219279   4.087   3.693   4.208  0.5541 -1.5176  0.9144
 6425TIP3   OH219280   5.532   1.255   0.396 -0.7890 -0.2941 -0.3425
 6425TIP3    H119281   5.447   1.297   0.411 -1.2594 -1.5167  0.5934
 6425TIP3    H219282   5.589   1.290   0.465 -0.4096  0.7426 -1.1399
 6426TIP3   OH219283   0.326   4.566   3.319  0.0837 -0.4094  0.3526
 6426TIP3    H119284   0.405   4.556   3.372  0.4066  0.6052  0.0934
 6426TIP3    H219285   0.259   4.594   3.381  0.9670  2.9414  0.0285
 6427TIP3   OH219286   5.303   3.244   3.919 -0.5872  0.3932 -0.6792
 6427TIP3    H119287   5.259   3.160   3.933 -0.2872  0.2991 -0.2921
 6427TIP3    H219288   5.386   3.236   3.966 -0.4636  0.8301 -0.8187
 6428TIP3   OH219289   2.510   0.131   1.875  0.8516  0.2577 -0.3991
 6428TIP3    H119290   2.578   0.085   1.924  1.5632  0.9235 -0.7378
 6428TIP3    H219291   2.539   0.222   1.872 -0.4572  0.7249  0.1316
 6429TIP3   OH219292   2.724   5.349   3.326  0.7462  0.3262 -0.8065
 6429TIP3    H119293   2.741   5.434   3.284  3.1009  0.2011 -0.2400
 6429TIP3    H219294   2.757   5.359   3.415 -1.6025 -0.3144  0.2151
 6430TIP3   OH219295   2.418   0.173   4.996 -0.0842 -0.4500  0.1591
 6430TIP3    H119296   2.485   0.106   5.008 -0.0271 -0.1292  1.9377
 6430TIP3    H219297   2.336   0.124   4.994  0.0503 -0.6803  0.1983
 6431TIP3   OH219298   4.007   3.922   4.030  0.0633  0.1573 -0.4580
 6431TIP3    H119299   4.018   3.901   3.937  1.8493 -1.8161  0.1132
 6431TIP3    H219300   4.006   3.836   4.074  2.7280  1.0552  1.6456
 6432TIP3   OH219301   5.087   4.978   2.301  0.4126  0.1242  0.4121
 6432TIP3    H119302   5.056   4.891   2.276  1.7389  0.2281 -1.8852
 6432TIP3    H219303   5.090   5.027   2.218  3.1928  1.1774  1.0195
 6433TIP3   OH219304   4.051   2.754   3.403 -0.1370  0.3545  0.0222
 6433TIP3    H119305   4.062   2.732   3.496 -0.8331  2.4342  0.6553
 6433TIP3    H219306   4.129   2.804   3.380  0.0511 -0.1878 -0.5410
 6434TIP3   OH219307   5.868   3.516   1.443  0.2355 -0.2481  0.8754
 6434TIP3    H119308   5.847   3.573   1.369  1.7165  0.9713  1.3504
 6434TIP3    H219309   5.940   3.462   1.411  1.6472  1.0585  1.7318
 6435TIP3   OH219310   4.494   3.080   2.781 -0.2891 -0.1414 -0.0926
 6435TIP3    H119311   4.503   3.124   2.866  1.1597 -1.2064  0.3396
 6435TIP3    H219312   4.472   2.989   2.804  0.5088 -0.5344 -0.8330
 6436TIP3   OH219313   0.403   5.650   2.765 -0.3152  0.2410 -0.5980
 6436TIP3    H119314   0.354   5.732   2.762 -2.1769 -0.6420  1.8280
 6436TIP3    H219315   0.379   5.606   2.683 -1.2589  1.0979 -0.8082
 6437TIP3   OH219316   4.779   0.580   5.088  0.8057  0.2319  0.1977
 6437TIP3    H119317   4.711   0.622   5.036  0.3267 -0.0809  0.5609
 6437TIP3    H219318   4.854   0.573   5.029  0.3275  0.0417 -0.3922
 6438TIP3   OH219319   4.451   2.094   2.955 -0.1677 -0.0599  0.3492
 6438TIP3    H119320   4.393   2.148   2.902 -2.3255  0.2870  2.8669
 6438TIP3    H219321   4.415   2.006   2.948  1.2535 -0.5656 -0.9731
 6439TIP3   OH219322   0.673   0.708   4.492  0.2364  0.8818 -0.1354
 6439TIP3    H119323   0.593   0.760   4.496  0.1650  0.8188 -0.7606
 6439TIP3    H219324   0.677   0.664   4.578 -0.5811  0.6191 -0.2247
 6440TIP3   OH219325   1.046   3.666   4.365 -0.4891 -0.6685 -0.4352
 6440TIP3    H119326   1.108   3.727   4.406 -0.3209 -0.8450 -0.4273
 6440TIP3    H219327   1.009   3.617   4.439 -0.2756 -0.9019 -0.4785
 6441TIP3   OH219328   5.264   5.660   0.107  0.1611  0.2438 -0.0732
 6441TIP3    H119329   5.357   5.679   0.096  0.3145 -0.6304 -0.3060
 6441TIP3    H219330   5.221   5.742   0.083  0.8990  0.9545  0.9224
 6442TIP3   OH219331   4.584   3.790   2.060 -0.0145 -0.4069  0.2392
 6442TIP3    H119332   4.548   3.845   2.130 -1.5365  0.1247 -0.9050
 6442TIP3    H219333   4.592   3.849   1.985 -1.0018 -1.5518 -0.8106
 6443TIP3   OH219334   5.458   1.366   4.241  0.4082  0.0288 -0.0310
 6443TIP3    H119335   5.408   1.448   4.237 -0.1262 -0.3081 -0.4988
 6443TIP3    H219336   5.484   1.358   4.333 -1.2582 -0.2726  0.4582
 6444TIP3   OH219337   5.670   2.662   0.944 -0.5732 -0.2369  0.0824
 6444TIP3    H119338   5.672   2.756   0.959  0.2055  0.1396 -1.9456
 6444TIP3    H219339   5.756   2.631   0.974 -0.1541  0.0294 -0.7766
 6445TIP3   OH219340   4.300   2.210   4.732 -0.0390 -0.6024  0.1439
 6445TIP3    H119341   4.335   2.138   4.680  1.1348  0.0936 -0.0501
 6445TIP3    H219342   4.267   2.273   4.667  2.1792  0.6537  0.1351
 6446TIP3   OH219343   4.360   1.377   3.685  0.3937  0.6480  0.1639
 6446TIP3    H119344   4.405   1.294   3.665 -0.1043 -0.2028  2.2876
 6446TIP3    H219345   4.428   1.443   3.679  1.7381 -0.4556  2.1499
 6447TIP3   OH219346   5.596   4.679   1.862  0.4797  0.0164  0.2365
 6447TIP3    H119347   5.656   4.656   1.933  0.5619 -0.3839  0.0387
 6447TIP3    H219348   5.509   4.668   1.900  0.4804 -1.9734 -0.2435
 6448TIP3   OH219349   5.134   3.146   0.919 -0.6639  0.3124  0.7359
 6448TIP3    H119350   5.226   3.129   0.940  0.2822  3.8211  0.0394
 6448TIP3    H219351   5.089   3.067   0.947  2.5988 -1.7990  0.5988
 6449TIP3   OH219352   1.107   3.230   1.867 -0.2668  0.0811  0.4481
 6449TIP3    H119353   1.099   3.144   1.908  1.2494 -0.1182  0.3878
 6449TIP3    H219354   1.036   3.232   1.803 -1.4984 -0.3547  1.7292
 6450TIP3   OH219355   5.663   2.951   1.002  0.3376  0.6992  0.0994
 6450TIP3    H119356   5.746   2.995   0.985  0.1858  0.5354 -1.1402
 6450TIP3    H219357   5.596   3.010   0.969 -0.0458  0.7884  1.0090
 6451TIP3   OH219358   0.058   2.179   4.549  0.1985  0.4429  0.2176
 6451TIP3    H119359   0.033   2.113   4.613  0.4073 -0.5771 -0.7210
 6451TIP3    H219360  -0.024   2.206   4.509  0.0634  1.1151  0.9395
 6452TIP3   OH219361   2.095   5.036   4.431  0.3166 -0.3171 -0.3086
 6452TIP3    H119362   2.147   4.960   4.456  0.0777 -0.6102 -0.6817
 6452TIP3    H219363   2.158   5.095   4.390  0.8651  0.5220  1.6459
 6453TIP3   OH219364   0.713   5.678   1.381 -0.1075  0.7535  0.1843
 6453TIP3    H119365   0.768   5.745   1.422  0.0026  0.2284  0.9165
 6453TIP3    H219366   0.731   5.686   1.288  2.9700 -0.8750  0.5223
 6454TIP3   OH219367   5.459   5.002   1.525 -0.1741  0.2309 -0.1954
 6454TIP3    H119368   5.478   5.036   1.612 -1.5118  2.8040 -0.8243
 6454TIP3    H219369   5.462   5.078   1.467 -1.9635 -0.9124 -1.9566
 6455TIP3   OH219370   0.502   0.105   0.445 -0.6317  0.2725  0.0595
 6455TIP3    H119371   0.513   0.025   0.496  1.1912  0.2911 -0.2469
 6455TIP3    H219372   0.433   0.154   0.491 -1.5847 -1.3168  0.4003
 6456TIP3   OH219373   6.267   4.767   2.056  0.0174 -0.4870  0.2585
 6456TIP3    H119374   6.354   4.750   2.020 -0.1639 -1.9465  0.4504
 6456TIP3    H219375   6.247   4.689   2.108 -2.1405 -1.0071 -1.2134
 6457TIP3   OH219376   1.296   2.103   0.606  0.4672  0.0454  0.6548
 6457TIP3    H119377   1.381   2.061   0.616  1.9861  3.3046  3.1469
 6457TIP3    H219378   1.312   2.176   0.547 -0.5144  0.8845  1.3990
 6458TIP3   OH219379   3.358   2.950   3.617 -0.3125 -0.3627 -0.2784
 6458TIP3    H119380   3.398   3.028   3.657  1.6277 -2.3911  2.0670
 6458TIP3    H219381   3.352   2.972   3.524 -1.1187  3.0521  0.4393
 6459TIP3   OH219382   5.217   3.332   2.351  0.2729 -0.1268  0.1934
 6459TIP3    H119383   5.186   3.273   2.283 -1.6318 -2.6961  3.0022
 6459TIP3    H219384   5.198   3.420   2.318 -2.8940 -1.3393 -1.6017
 6460TIP3   OH219385   0.076   0.268   3.323 -0.1673  0.2634 -0.2398
 6460TIP3    H119386   0.161   0.305   3.298  0.2347  0.5856  1.4802
 6460TIP3    H219387   0.074   0.274   3.419 -1.0740 -2.0509 -0.0519
 6461TIP3   OH219388   1.755   5.076   2.133  0.0669 -0.2998 -0.3019
 6461TIP3    H119389   1.723   4.991   2.164 -0.1016 -0.8923 -2.0087
 6461TIP3    H219390   1.679   5.118   2.095  0.7782 -0.7640 -2.3416
 6462TIP3   OH219391   6.012   0.482   1.632  0.2876  0.4536 -0.5846
 6462TIP3    H119392   5.985   0.572   1.654 -0.3231  0.0241  0.5104
 6462TIP3    H219393   5.948   0.454   1.567  1.0846  1.1455 -1.7033
 6463TIP3   OH219394   4.051   1.939   1.321 -0.3404  0.1631  0.2977
 6463TIP3    H119395   4.045   1.953   1.226  0.2896  1.6961  0.4638
 6463TIP3    H219396   3.997   1.861   1.337  0.4988 -0.8511 -1.4747
 6464TIP3   OH219397   2.134   4.164   1.692  0.2396  0.0037  0.2625
 6464TIP3    H119398   2.188   4.199   1.762 -1.0814 -0.4684  1.5612
 6464TIP3    H219399   2.184   4.090   1.657  0.0253 -1.0950  2.1578
 6465TIP3   OH219400   0.377   1.579   0.234 -0.7471  0.4314 -0.0537
 6465TIP3    H119401   0.362   1.537   0.149  0.6461  1.1808 -0.7033
 6465TIP3    H219402   0.468   1.559   0.255 -1.5995 -1.4685  2.3016
 6466TIP3   OH219403   0.818   4.430   4.642  0.5562  0.1390  0.3347
 6466TIP3    H119404   0.825   4.376   4.720  0.6903  0.0965  0.2946
 6466TIP3    H219405   0.906   4.427   4.603  0.3563 -0.2825 -0.1062
 6467TIP3   OH219406   5.818   0.142   4.947 -0.2089 -0.2159  0.6269
 6467TIP3    H119407   5.755   0.129   4.876 -1.3890  0.8810  1.4246
 6467TIP3    H219408   5.770   0.120   5.026  0.0507  1.6125  1.3437
 6468TIP3   OH219409   2.175   4.320   1.478  0.4814  0.0259 -0.2320
 6468TIP3    H119410   2.135   4.285   1.558 -0.4573 -0.9751 -1.1075
 6468TIP3    H219411   2.107   4.312   1.411  0.5245  2.7275 -0.7244
 6469TIP3   OH219412   0.175   4.332   0.453 -0.0036 -0.3106  0.2419
 6469TIP3    H119413   0.169   4.337   0.548 -2.9231  1.5389  0.0948
 6469TIP3    H219414   0.112   4.264   0.428  2.5997 -2.6893 -0.3681
 6470TIP3   OH219415   1.229   5.189   3.405 -0.4973 -0.2929  0.2856
 6470TIP3    H119416   1.198   5.101   3.384 -0.6192  0.0540 -1.0412
 6470TIP3    H219417   1.313   5.196   3.361  0.2794 -0.2888  1.7037
 6471TIP3   OH219418   0.212   5.803   3.954 -0.7174  0.2831  0.5038
 6471TIP3    H119419   0.300   5.814   3.916 -1.2962  0.8945 -0.7254
 6471TIP3    H219420   0.228   5.772   4.043  0.8150  2.0784  0.9315
 6472TIP3   OH219421   3.118   4.657   4.692  0.1950  0.3039  0.1186
 6472TIP3    H119422   3.131   4.594   4.763 -1.4274 -0.5613 -0.3039
 6472TIP3    H219423   3.165   4.620   4.617 -0.0218  0.0477  0.1102
 6473TIP3   OH219424   3.046   3.542   0.846  0.0316  0.5849  0.4781
 6473TIP3    H119425   3.050   3.463   0.793 -0.1880  1.2824 -0.6118
 6473TIP3    H219426   2.956   3.573   0.837 -0.6551 -0.4126  3.0064
 6474TIP3   OH219427   0.882   5.041   2.354  0.1503  0.3654  0.1576
 6474TIP3    H119428   0.807   5.053   2.412 -0.0472 -0.9861  0.2218
 6474TIP3    H219429   0.935   4.974   2.397  0.3754 -0.1384 -0.8696
 6475TIP3   OH219430   0.979   2.111   5.097 -0.1239 -0.5491 -0.1404
 6475TIP3    H119431   0.970   2.072   5.184 -2.6376  0.5214  0.1751
 6475TIP3    H219432   0.988   2.205   5.114 -1.7626 -0.2027 -1.0374
 6476TIP3   OH219433   4.389   0.231   0.694  0.0267  0.3979 -0.3547
 6476TIP3    H119434   4.432   0.311   0.664 -0.4967 -0.4202 -3.6848
 6476TIP3    H219435   4.461   0.173   0.720  0.4913  1.3607  0.5650
 6477TIP3   OH219436   0.354   4.792   1.746  0.0033 -0.3508 -0.7195
 6477TIP3    H119437   0.300   4.770   1.670 -1.2454 -0.3210  0.1257
 6477TIP3    H219438   0.444   4.789   1.713 -0.4886 -0.5930 -2.1276
 6478TIP3   OH219439   1.655   4.741   0.437 -0.0208 -0.0522 -0.7463
 6478TIP3    H119440   1.590   4.759   0.505  1.1219  2.4235 -0.1611
 6478TIP3    H219441   1.694   4.658   0.463 -0.4344  0.2453  1.0076
 6479TIP3   OH219442   3.671   0.756   1.910 -0.0193  0.0003  0.3971
 6479TIP3    H119443   3.590   0.715   1.941 -1.3501  2.3756  0.2878
 6479TIP3    H219444   3.714   0.786   1.990 -1.3949  2.4303  0.3223
 6480TIP3   OH219445   2.616   4.253   1.177 -0.0645 -0.4307 -0.2019
 6480TIP3    H119446   2.593   4.295   1.094 -2.9929  0.2968  0.8466
 6480TIP3    H219447   2.634   4.326   1.237 -1.4860 -0.7484  0.6620
 6481TIP3   OH219448   5.138   2.279   5.132  0.6688 -0.0877  0.0870
 6481TIP3    H119449   5.185   2.357   5.103  1.5192 -0.0322  1.4904
 6481TIP3    H219450   5.207   2.219   5.159 -0.0225 -0.4289  1.1636
 6482TIP3   OH219451   2.054   3.113   4.577  0.2950  0.3888 -0.1136
 6482TIP3    H119452   2.150   3.114   4.574  0.3847  1.5516  1.7319
 6482TIP3    H219453   2.031   3.021   4.565  1.5405  0.2748 -2.0460
 6483TIP3   OH219454   0.852   1.343   3.323 -0.2511 -0.2571 -0.3404
 6483TIP3    H119455   0.881   1.327   3.413 -0.4356  0.0861 -0.2200
 6483TIP3    H219456   0.912   1.409   3.289  1.1838 -1.8922 -1.1931
 6484TIP3   OH219457   0.616   0.371   0.570 -0.4105  0.2749 -0.0476
 6484TIP3    H119458   0.711   0.363   0.580 -0.4224  1.3650  1.2673
 6484TIP3    H219459   0.581   0.310   0.634 -0.6282 -0.4424 -0.8273
 6485TIP3   OH219460   3.774   5.055   0.645 -0.3475  0.2998  0.3902
 6485TIP3    H119461   3.756   5.023   0.733 -2.3219 -0.4497 -0.2159
 6485TIP3    H219462   3.867   5.040   0.632 -0.2843 -0.7792  1.8636
 6486TIP3   OH219463   3.827   1.238   1.018  0.4407 -0.6517 -0.4661
 6486TIP3    H119464   3.795   1.285   1.095  0.0347  0.3525 -1.2208
 6486TIP3    H219465   3.914   1.275   1.002  0.4515 -0.7319 -0.5928
 6487TIP3   OH219466   2.313   2.413   2.886  0.6131 -0.0031  0.2645
 6487TIP3    H119467   2.372   2.475   2.843  0.5324 -0.5748 -0.7092
 6487TIP3    H219468   2.358   2.328   2.878 -0.4207 -0.4954 -0.7222
 6488TIP3   OH219469   2.265   0.822   4.388  0.2313 -0.1836 -0.3229
 6488TIP3    H119470   2.214   0.784   4.460 -0.3440  0.9288 -0.0992
 6488TIP3    H219471   2.216   0.902   4.365  2.2557  1.3658  0.4171
 6489TIP3   OH219472   4.203   1.256   4.982 -0.1310  0.7618  0.3422
 6489TIP3    H119473   4.115   1.270   4.947 -0.5614  1.5467  1.6626
 6489TIP3    H219474   4.252   1.217   4.910 -1.5307  0.4186 -0.4539
 6490TIP3   OH219475  -0.011   4.480   0.245 -0.7109  0.3992 -0.6186
 6490TIP3    H119476   0.057   4.461   0.309 -0.8587 -0.5176 -0.7069
 6490TIP3    H219477  -0.028   4.573   0.254  1.3941  0.9181 -1.4312
 6491TIP3   OH219478   2.084   4.653   0.425 -0.4359 -0.2359  0.9955
 6491TIP3    H119479   2.029   4.577   0.408  0.8138 -1.0596  0.5528
 6491TIP3    H219480   2.143   4.625   0.494  1.0209 -0.2086 -0.1834
 6492TIP3   OH219481   5.535   0.950   4.906 -0.6794  0.3403  0.0093
 6492TIP3    H119482   5.609   0.933   4.848  0.7976  0.3541  1.7826
 6492TIP3    H219483   5.534   1.046   4.916 -1.7142  0.4482 -0.9222
 6493TIP3   OH219484   4.202   0.514   1.057 -0.2615  0.2824 -0.4392
 6493TIP3    H119485   4.154   0.596   1.043  0.1621  1.1346  2.4615
 6493TIP3    H219486   4.288   0.529   1.017 -0.2884  1.1455 -0.1975
 6494TIP3   OH219487   1.318   1.232   2.635 -0.8859 -0.1199  0.3317
 6494TIP3    H119488   1.233   1.186   2.634  0.7840 -3.6490 -2.4153
 6494TIP3    H219489   1.380   1.167   2.603  2.4551  3.1573 -0.4712
 6495TIP3   OH219490   1.220   3.793   3.285 -0.3926  0.4759  0.4233
 6495TIP3    H119491   1.203   3.808   3.378 -0.3988 -1.2788  0.7531
 6495TIP3    H219492   1.257   3.704   3.282 -1.2599  0.1288 -1.3338
 6496TIP3   OH219493   3.163   4.029   0.506  0.6378  0.5973  0.3967
 6496TIP3    H119494   3.143   3.975   0.583  0.1651 -1.0697 -0.8347
 6496TIP3    H219495   3.240   3.987   0.467  0.8363  1.3876 -0.0780
 6497TIP3   OH219496   4.829   2.729   0.557 -0.2798 -0.6115 -0.5547
 6497TIP3    H119497   4.902   2.687   0.603 -1.1524 -0.4898  0.9666
 6497TIP3    H219498   4.789   2.787   0.621 -1.9247 -0.8985 -1.2666
 6498TIP3   OH219499   0.182   3.286   3.751 -0.4510  0.1346  0.5068
 6498TIP3    H119500   0.240   3.357   3.779  0.2264  0.5339 -1.6409
 6498TIP3    H219501   0.192   3.218   3.817  0.0802  1.4314  1.8042
 6499TIP3   OH219502   3.872   4.516   2.782  0.0724 -0.2565 -0.0766
 6499TIP3    H119503   3.828   4.601   2.795  0.7468  0.3863 -1.7065
 6499TIP3    H219504   3.906   4.493   2.868 -0.3479  1.0127  0.4501
 6500TIP3   OH219505   1.753   5.216   3.438 -0.1514  0.4791  0.9455
 6500TIP3    H119506   1.717   5.166   3.365 -0.8705  1.3351  0.6892
 6500TIP3    H219507   1.791   5.150   3.496  1.1103 -0.1705 -0.5466
 6501TIP3   OH219508   4.367   0.864   0.322  0.0742  0.2957  0.4135
 6501TIP3    H119509   4.319   0.848   0.404  0.9770  0.0032  0.8977
 6501TIP3    H219510   4.386   0.957   0.323  0.3358  0.2421  0.6888
 6502TIP3   OH219511   0.610   5.766   4.965 -0.6287  0.3498  0.1015
 6502TIP3    H119512   0.558   5.731   4.892 -1.6008  0.5204  0.6960
 6502TIP3    H219513   0.545   5.798   5.028  0.2093  1.7967  0.2824
 6503TIP3   OH219514   3.222   4.059   4.063 -0.2973 -0.7282  0.5275
 6503TIP3    H119515   3.131   4.089   4.054 -0.6303 -1.4473  1.2729
 6503TIP3    H219516   3.272   4.115   4.005 -1.1203  0.1559  0.6426
 6504TIP3   OH219517   2.774   5.570   2.400  0.0926  0.3521  0.0642
 6504TIP3    H119518   2.836   5.561   2.327  0.2083 -0.1710  0.2255
 6504TIP3    H219519   2.746   5.481   2.419  0.8138  0.3710  1.3056
 6505TIP3   OH219520   4.107   4.716   0.700  0.2556 -0.1355  0.8135
 6505TIP3    H119521   4.060   4.797   0.682 -0.7426 -0.6218  1.1514
 6505TIP3    H219522   4.180   4.716   0.639 -0.4888  0.3960 -0.0944
 6506TIP3   OH219523   3.581   0.099   0.492 -0.3481 -0.7806 -0.2479
 6506TIP3    H119524   3.623   0.028   0.444  0.1090 -1.9546  1.7798
 6506TIP3    H219525   3.489   0.097   0.463  0.0269 -1.0079 -1.4976
 6507TIP3   OH219526   2.540   5.608   3.993  0.6743 -0.0391  0.4981
 6507TIP3    H119527   2.500   5.526   3.966 -1.4949  0.7025  1.2415
 6507TIP3    H219528   2.561   5.595   4.086  1.1345 -0.0402  0.3953
 6508TIP3   OH219529   4.002   2.474   4.231  0.4616 -0.1386 -0.1621
 6508TIP3    H119530   4.095   2.490   4.215  0.9208 -0.1986  2.1059
 6508TIP3    H219531   3.998   2.384   4.264 -0.0708  0.5561  1.8176
 6509TIP3   OH219532   4.155   5.474   1.901  0.3716 -0.3300 -0.3597
 6509TIP3    H119533   4.193   5.433   1.824  1.3503  0.4508 -0.3215
 6509TIP3    H219534   4.218   5.543   1.925  0.5598 -1.1404  1.6748
 6510TIP3   OH219535   5.501   3.421   1.385  0.3175  0.0658  0.2781
 6510TIP3    H119536   5.476   3.512   1.398 -0.0123  0.1317 -0.7957
 6510TIP3    H219537   5.498   3.383   1.473 -0.7392  0.7838  0.5734
 6511TIP3   OH219538   1.204   3.759   5.091 -0.2068 -0.0678 -0.1276
 6511TIP3    H119539   1.226   3.761   4.998 -1.1283  0.9119 -0.3437
 6511TIP3    H219540   1.246   3.680   5.124  1.0725  0.1568 -1.1327
 6512TIP3   OH219541   4.508   3.474   5.192  0.1286  0.0613 -0.5206
 6512TIP3    H119542   4.487   3.467   5.099  1.8422  2.2854 -1.1514
 6512TIP3    H219543   4.601   3.499   5.194  0.7490 -1.9951  1.8727
 6513TIP3   OH219544   6.117   5.768   2.186 -0.1767  0.7018 -0.1117
 6513TIP3    H119545   6.106   5.822   2.265  3.2870  0.4159  0.7100
 6513TIP3    H219546   6.154   5.828   2.121 -0.0527  0.2221 -0.4917
 6514TIP3   OH219547   2.870   0.525   4.372  0.0951 -0.1095  0.2864
 6514TIP3    H119548   2.951   0.478   4.393  1.5576  2.1278  0.0481
 6514TIP3    H219549   2.875   0.605   4.424 -0.6087  1.3345 -1.7183
 6515TIP3   OH219550   3.875   1.649   0.809  0.6449  0.0094 -0.1025
 6515TIP3    H119551   3.811   1.711   0.774  0.2337 -0.5766 -0.4115
 6515TIP3    H219552   3.938   1.637   0.738  0.4359 -0.3139 -0.2389
 6516TIP3   OH219553   1.011   4.804   4.474 -0.4120 -0.0433  0.5236
 6516TIP3    H119554   0.986   4.893   4.450  0.5081  0.2561  0.6457
 6516TIP3    H219555   0.964   4.748   4.413 -1.7616  0.4652  1.0497
 6517TIP3   OH219556   6.016   1.018   2.970 -0.1129  0.3637  0.1738
 6517TIP3    H119557   6.007   1.052   2.880  0.2701  0.1447  0.0500
 6517TIP3    H219558   6.026   0.923   2.958 -0.6093  0.2729  0.4831
 6518TIP3   OH219559   4.283   4.792   4.560  0.3186  0.6769  0.4171
 6518TIP3    H119560   4.276   4.840   4.643  1.0892 -0.0706  0.9328
 6518TIP3    H219561   4.328   4.710   4.583  0.2314  0.2989 -0.6792
 6519TIP3   OH219562   4.866   5.024   2.773 -0.4538 -0.5505 -0.5735
 6519TIP3    H119563   4.840   5.033   2.864 -0.6894  2.5170 -0.8361
 6519TIP3    H219564   4.810   4.954   2.739 -3.2512  0.8937  0.7071
 6520TIP3   OH219565   3.591   0.552   4.769 -0.0342 -0.3900  0.0215
 6520TIP3    H119566   3.618   0.631   4.815 -1.5904  0.6209 -0.7198
 6520TIP3    H219567   3.600   0.573   4.676  0.3815 -1.4007 -0.1789
 6521TIP3   OH219568   4.824   2.650   0.063 -0.1850  0.4053 -0.1243
 6521TIP3    H119569   4.767   2.717   0.027 -1.2555 -1.2100 -1.5448
 6521TIP3    H219570   4.826   2.668   0.157 -1.1268  1.8894 -0.3666
 6522TIP3   OH219571   4.705   5.827   1.654 -0.3353 -0.0768 -0.4783
 6522TIP3    H119572   4.779   5.887   1.666  0.0468 -0.8764  1.5820
 6522TIP3    H219573   4.630   5.876   1.689 -0.2497 -0.2932  0.0248
 6523TIP3   OH219574   2.017   4.765   2.712 -0.7944 -0.2584 -0.5286
 6523TIP3    H119575   2.008   4.687   2.766 -2.6490  1.4215  1.8345
 6523TIP3    H219576   1.949   4.825   2.745  1.6391  3.0217 -0.9554
 6524TIP3   OH219577   1.317   5.581   2.011  1.0589 -0.6092 -0.4792
 6524TIP3    H119578   1.243   5.616   2.062  0.9041 -1.3263 -0.2014
 6524TIP3    H219579   1.380   5.653   2.009 -0.3843  0.6949 -2.2813
 6525TIP3   OH219580   2.454   5.049   4.314  0.3563 -0.0913 -0.5696
 6525TIP3    H119581   2.509   5.009   4.246  1.9889 -1.0655  1.2310
 6525TIP3    H219582   2.440   4.979   4.377 -0.5027  0.9883  0.4752
 6526TIP3   OH219583   2.726   4.719   1.633  0.3304 -0.4167 -0.0793
 6526TIP3    H119584   2.641   4.698   1.595 -0.1822  0.6172  0.4584
 6526TIP3    H219585   2.716   4.808   1.667  1.2855 -0.6836  0.9659
 6527TIP3   OH219586   4.130   5.433   2.864  0.1034 -0.3256 -0.3095
 6527TIP3    H119587   4.067   5.439   2.936 -0.2470 -0.8205 -0.5631
 6527TIP3    H219588   4.079   5.454   2.786  0.3235 -0.4383 -0.4842
 6528TIP3   OH219589   0.965   1.893   4.943 -0.0503 -0.2280  0.3446
 6528TIP3    H119590   0.891   1.892   4.882 -0.0601  1.4550  0.2605
 6528TIP3    H219591   0.970   1.985   4.971  1.6051 -0.4534  0.8465
 6529TIP3   OH219592   5.875   4.522   5.183 -0.2612 -0.1794  0.2898
 6529TIP3    H119593   5.786   4.506   5.216  0.7225 -0.1970  3.1734
 6529TIP3    H219594   5.868   4.606   5.137 -1.7582 -0.1771  0.4479
 6530TIP3   OH219595   0.441   5.887   3.137 -0.2697  0.1000 -0.6900
 6530TIP3    H119596   0.452   5.797   3.107  1.8726 -0.1678  0.7078
 6530TIP3    H219597   0.529   5.923   3.141 -0.8451  1.4820  1.0794
 6531TIP3   OH219598   2.268   2.380   2.532 -0.2876  1.0877 -0.3274
 6531TIP3    H119599   2.230   2.419   2.454 -2.9046 -0.6292 -0.0224
 6531TIP3    H219600   2.193   2.356   2.586  1.3934  1.3141  2.3143
 6532TIP3   OH219601   0.550   4.919   0.088 -0.0144  0.6731 -0.1868
 6532TIP3    H119602   0.569   4.846   0.029  2.7215  1.2047 -0.1008
 6532TIP3    H219603   0.502   4.879   0.161 -1.2660 -0.4335 -1.5568
 6533TIP3   OH219604   3.571   3.920   3.188 -0.1909 -0.6558  0.1596
 6533TIP3    H119605   3.525   3.984   3.134 -0.0393 -0.3963  0.3396
 6533TIP3    H219606   3.502   3.861   3.218 -0.1932 -1.1936 -0.8487
 6534TIP3   OH219607   1.879   5.490   0.367  0.2379  0.5906  0.5639
 6534TIP3    H119608   1.913   5.417   0.315 -3.0086 -0.4615 -0.3052
 6534TIP3    H219609   1.866   5.453   0.454  0.0925  0.5990  0.5459
 6535TIP3   OH219610   1.767   3.789   1.205 -0.5054 -0.1907  0.8921
 6535TIP3    H119611   1.855   3.826   1.208 -1.2836  1.7518  1.0047
 6535TIP3    H219612   1.746   3.784   1.112 -0.7218  0.5151  0.8955
 6536TIP3   OH219613   5.236   4.334   2.159 -0.4715 -0.4168  0.2684
 6536TIP3    H119614   5.246   4.279   2.236 -3.0418 -0.6327  0.5428
 6536TIP3    H219615   5.257   4.277   2.085  2.6127 -0.0422  0.7246
 6537TIP3   OH219616   2.289   3.612   1.766  0.1173 -0.4310  0.3228
 6537TIP3    H119617   2.200   3.646   1.759  0.9109  1.7369 -0.0101
 6537TIP3    H219618   2.318   3.638   1.853  0.8282 -0.0300 -0.0256
 6538TIP3   OH219619   4.629   4.798   2.823 -0.2709 -0.3456 -0.2552
 6538TIP3    H119620   4.592   4.715   2.853  0.7582 -0.2087  1.5006
 6538TIP3    H219621   4.647   4.846   2.903  0.1878  1.1288 -1.2156
 6539TIP3   OH219622   3.343   3.776   4.606 -0.0069  0.1702  0.3346
 6539TIP3    H119623   3.302   3.856   4.575  1.4453  0.1432 -1.8774
 6539TIP3    H219624   3.299   3.706   4.558  0.4724 -0.1147  0.3007
 6540TIP3   OH219625   0.755   5.705   0.701  0.0009 -0.3645  0.1058
 6540TIP3    H119626   0.831   5.658   0.667 -0.0567  0.6353 -1.5319
 6540TIP3    H219627   0.708   5.641   0.754  0.8084 -1.6521 -0.6832
 6541TIP3   OH219628   2.691   2.555   2.363  0.3906 -0.1580 -0.1034
 6541TIP3    H119629   2.640   2.620   2.412  2.3895  1.7974 -0.4848
 6541TIP3    H219630   2.653   2.555   2.276  0.2483  0.3652 -0.0449
 6542TIP3   OH219631   2.102   3.361   2.043 -0.0848 -0.4204 -0.0833
 6542TIP3    H119632   2.145   3.443   2.069  0.6382 -0.5794 -0.7133
 6542TIP3    H219633   2.035   3.347   2.109  1.2148 -0.4593  1.2845
 6543TIP3   OH219634   1.093   2.398   0.527  0.0924 -0.3887  0.1450
 6543TIP3    H119635   1.021   2.379   0.466  0.2062  1.0229 -0.4621
 6543TIP3    H219636   1.054   2.449   0.597  0.5013  0.4340 -0.2144
 6544TIP3   OH219637   0.018   1.142   2.189  0.1739  0.6072  0.3911
 6544TIP3    H119638  -0.021   1.155   2.103 -0.9101 -2.3311  0.3189
 6544TIP3    H219639   0.090   1.080   2.174 -0.0442  0.0300  1.5837
 6545TIP3   OH219640   4.248   0.879   3.346 -0.1852 -0.1241 -0.2433
 6545TIP3    H119641   4.193   0.948   3.385 -1.3961 -1.0544 -0.2374
 6545TIP3    H219642   4.271   0.913   3.260  0.3522  0.8494  0.2639
 6546TIP3   OH219643   2.889   2.965   1.580 -0.3544  0.2809 -0.3038
 6546TIP3    H119644   2.939   3.005   1.509  1.2928  0.3818  0.8685
 6546TIP3    H219645   2.953   2.916   1.630 -1.7247 -0.8968  0.3694
 6547TIP3   OH219646   4.204   0.991   4.207 -0.8274  0.1765  0.1260
 6547TIP3    H119647   4.225   0.913   4.155 -0.2547  0.8106 -0.6142
 6547TIP3    H219648   4.116   1.015   4.179 -1.1624 -0.4140  0.6363
 6548TIP3   OH219649   5.439   2.589   4.435  0.4893  0.0563 -0.3083
 6548TIP3    H119650   5.431   2.632   4.521  0.8906 -1.6414  0.6225
 6548TIP3    H219651   5.433   2.496   4.455  0.6243 -0.3723 -2.1502
 6549TIP3   OH219652   4.778   1.458   1.747 -0.0008  0.1635 -0.1785
 6549TIP3    H119653   4.798   1.546   1.715 -0.8624  0.1185 -0.8768
 6549TIP3    H219654   4.862   1.425   1.779  0.7247  0.5493 -1.5796
 6550TIP3   OH219655   6.074   2.615   0.508  0.0678  0.9424 -0.7574
 6550TIP3    H119656   6.064   2.669   0.430 -0.2410 -1.1746 -2.2628
 6550TIP3    H219657   6.167   2.625   0.532  0.5880  0.3113 -2.4214
 6551TIP3   OH219658   5.787   5.677   2.507  0.1186  0.4112 -0.2074
 6551TIP3    H119659   5.804   5.692   2.600 -0.1764  1.5930 -0.3240
 6551TIP3    H219660   5.874   5.676   2.466  0.2307  0.1886  0.0319
 6552TIP3   OH219661   5.200   3.759   0.164  0.4314  0.4594 -0.8678
 6552TIP3    H119662   5.285   3.793   0.192  0.3848  0.5061 -0.7835
 6552TIP3    H219663   5.221   3.679   0.115  0.3401 -1.9010  2.5541
 6553TIP3   OH219664   3.145   1.471   2.962 -0.4055  0.0145 -0.4277
 6553TIP3    H119665   3.220   1.526   2.940  0.1053 -0.1582  0.7908
 6553TIP3    H219666   3.141   1.406   2.892  1.5405 -0.9056  0.2456
 6554TIP3   OH219667   5.037   4.191   3.625 -0.6700 -0.2821  0.3286
 6554TIP3    H119668   5.124   4.203   3.662 -0.1734  1.4134 -1.2393
 6554TIP3    H219669   5.051   4.146   3.542 -1.1893  0.5634 -0.2398
 6555TIP3   OH219670   5.835   0.935   5.048  0.5838  0.1179 -0.4882
 6555TIP3    H119671   5.817   0.854   5.001 -2.2035  0.2432  0.1917
 6555TIP3    H219672   5.827   0.913   5.140 -0.0557  1.0904 -0.2892
 6556TIP3   OH219673   5.293   1.743   4.952  0.0333 -0.1038  0.5597
 6556TIP3    H119674   5.257   1.822   4.994 -1.1702  0.1000 -0.7601
 6556TIP3    H219675   5.230   1.722   4.883  1.5935 -0.7885 -0.7268
 6557TIP3   OH219676   2.175   2.962   2.502  0.4752 -0.3107  0.3203
 6557TIP3    H119677   2.090   2.937   2.467  0.9384 -1.3531 -0.1236
 6557TIP3    H219678   2.156   3.027   2.569 -0.6014  0.0396 -0.3080
 6558TIP3   OH219679   4.858   3.483   2.982  0.1537  0.5540  0.6899
 6558TIP3    H119680   4.916   3.523   3.046  2.7159  2.1766 -2.3686
 6558TIP3    H219681   4.786   3.546   2.972  1.0689  1.5648  0.2157
 6559TIP3   OH219682   1.162   4.145   2.619  0.3710  0.2672 -0.0718
 6559TIP3    H119683   1.135   4.164   2.709 -0.7334  1.0458 -0.5501
 6559TIP3    H219684   1.155   4.050   2.612 -1.6246  0.3650  0.0416
 6560TIP3   OH219685   3.233   3.166   1.768 -0.2325 -0.0866 -0.0737
 6560TIP3    H119686   3.302   3.231   1.753  0.3566 -0.8227 -0.6200
 6560TIP3    H219687   3.152   3.218   1.770  0.4084  0.9400  1.7803
 6561TIP3   OH219688   1.859   5.900   0.720 -0.0020  0.1656 -0.1492
 6561TIP3    H119689   1.797   5.957   0.766 -1.0740 -1.3269  0.3360
 6561TIP3    H219690   1.931   5.958   0.694 -0.4646  1.4849  1.3817
 6562TIP3   OH219691   3.205   4.714   2.286  0.4243 -0.4295 -0.3140
 6562TIP3    H119692   3.173   4.636   2.241  2.1901 -1.3068 -0.1590
 6562TIP3    H219693   3.295   4.692   2.310  1.3141  1.9888 -1.0952
 6563TIP3   OH219694   1.462   5.094   1.101  0.4266  0.0123 -0.0045
 6563TIP3    H119695   1.551   5.125   1.085 -0.2197  1.4702 -0.9005
 6563TIP3    H219696   1.431   5.146   1.175 -0.0524  0.2472 -0.3681
 6564TIP3   OH219697   3.169   5.515   0.768 -0.3716  0.2371  0.1501
 6564TIP3    H119698   3.080   5.531   0.800 -0.2157  0.5358  0.4352
 6564TIP3    H219699   3.189   5.591   0.714 -0.0290  0.5079  0.6511
 6565TIP3   OH219700   1.406   4.391   4.654 -0.2012  0.5469  0.2758
 6565TIP3    H119701   1.460   4.449   4.601 -2.1691  1.5808 -0.7023
 6565TIP3    H219702   1.416   4.305   4.613  0.5301  0.7502  0.0033
 6566TIP3   OH219703   5.680   6.005   4.020 -0.3007  0.2611  0.0438
 6566TIP3    H119704   5.679   5.921   4.066 -0.1342  0.5852  0.6380
 6566TIP3    H219705   5.722   6.066   4.080 -0.9907  0.9205 -0.1194
 6567TIP3   OH219706   5.694   4.804   2.568  0.2171 -0.1506 -0.4033
 6567TIP3    H119707   5.729   4.715   2.567  0.0918 -0.1987 -0.5543
 6567TIP3    H219708   5.601   4.794   2.547 -0.2071 -0.1529  1.3932
 6568TIP3   OH219709   5.593   2.513   3.114 -0.0360 -0.6175  0.0129
 6568TIP3    H119710   5.653   2.447   3.148  0.6220 -0.7700 -1.3647
 6568TIP3    H219711   5.607   2.512   3.019  0.8921  2.2826  0.0041
 6569TIP3   OH219712   1.908   3.124   4.247 -0.5174  0.4747  0.1491
 6569TIP3    H119713   1.894   3.216   4.267 -2.5034  0.1176  0.5834
 6569TIP3    H219714   1.873   3.113   4.159  1.3667  0.4662 -0.6503
 6570TIP3   OH219715   0.204   2.434   2.663  0.4567  0.3594  0.3065
 6570TIP3    H119716   0.155   2.494   2.608  1.6447  0.8159 -0.2793
 6570TIP3    H219717   0.199   2.472   2.751  1.1228  1.2706 -0.0410
 6571TIP3   OH219718   1.368   0.569   5.126  0.6518 -0.3233 -0.2708
 6571TIP3    H119719   1.376   0.649   5.074  1.6712 -0.1403  0.1428
 6571TIP3    H219720   1.281   0.576   5.167  0.4213  0.2014 -0.8370
 6572TIP3   OH219721   0.318   1.487   5.163  0.4610  0.0302  0.3355
 6572TIP3    H119722   0.397   1.538   5.144  0.9540 -0.7679  0.2058
 6572TIP3    H219723   0.274   1.481   5.078  0.7551 -0.3481  0.2089
 6573TIP3   OH219724   0.631   5.959   2.573 -0.2806  0.1756  0.6488
 6573TIP3    H119725   0.589   5.936   2.655 -1.2297  2.4764  0.8785
 6573TIP3    H219726   0.559   5.968   2.510  0.2503  0.3118  0.0440
 6574TIP3   OH219727   0.805   3.221   1.301  0.2554  0.4209 -0.1511
 6574TIP3    H119728   0.810   3.142   1.246 -0.5742  1.1389 -1.2826
 6574TIP3    H219729   0.897   3.241   1.321  0.6511  0.6959 -2.0911
 6575TIP3   OH219730   4.706   3.504   3.319 -0.0281 -0.0770 -0.9079
 6575TIP3    H119731   4.628   3.532   3.366  1.3812  1.1270  0.8051
 6575TIP3    H219732   4.681   3.510   3.226 -1.6468  1.2174 -0.4319
 6576TIP3   OH219733   4.311   0.129   2.748  0.6588  0.1108  0.0443
 6576TIP3    H119734   4.351   0.049   2.713  2.4174  1.0342 -0.1984
 6576TIP3    H219735   4.371   0.199   2.720 -0.6383  1.4687  0.5658
 6577TIP3   OH219736   0.216   0.950   4.570  0.1973  0.0086 -0.0343
 6577TIP3    H119737   0.264   0.921   4.492  1.6597  0.1921  0.7488
 6577TIP3    H219738   0.205   1.044   4.558  0.3111  0.0159 -0.0884
 6578TIP3   OH219739   3.088   2.905   2.744  0.2092 -0.1642  0.0766
 6578TIP3    H119740   3.176   2.929   2.771  0.2557  1.2989 -1.2206
 6578TIP3    H219741   3.100   2.860   2.660  0.1388 -5.2594  2.4206
 6579TIP3   OH219742   5.535   2.607   5.065  0.0041 -0.6539 -0.0144
 6579TIP3    H119743   5.583   2.530   5.094  0.2453  0.2193  2.1598
 6579TIP3    H219744   5.553   2.673   5.132 -2.8268  0.2537  0.0113
 6580TIP3   OH219745   5.178   0.217   3.822 -0.2606 -0.6602 -0.0200
 6580TIP3    H119746   5.231   0.181   3.751 -0.2641  0.0357 -0.3880
 6580TIP3    H219747   5.176   0.148   3.888 -0.3106 -1.3380 -0.7200
 6581TIP3   OH219748   2.585   2.506   3.225 -0.1937  0.4145 -0.3624
 6581TIP3    H119749   2.533   2.544   3.154 -0.2029  0.2362 -0.4512
 6581TIP3    H219750   2.549   2.418   3.237  1.3059 -0.4498 -1.7220
 6582TIP3   OH219751   3.396   1.914   0.195  0.0150 -0.0303 -0.4346
 6582TIP3    H119752   3.413   2.008   0.182  1.6268 -0.2524 -0.1046
 6582TIP3    H219753   3.483   1.875   0.205 -0.7060 -1.2351  1.7153
 6583TIP3   OH219754   1.300   3.713   3.710  0.1609  0.0441 -0.0931
 6583TIP3    H119755   1.336   3.776   3.647  2.8575 -0.9094  0.3990
 6583TIP3    H219756   1.325   3.628   3.676 -1.2908 -0.6889  0.5729
 6584TIP3   OH219757   2.004   1.799   2.351  0.5595 -0.1287 -0.3342
 6584TIP3    H119758   2.024   1.845   2.432  0.6027 -0.5005 -0.1312
 6584TIP3    H219759   1.950   1.860   2.301  0.7138  0.1845 -0.1186
 6585TIP3   OH219760   2.196   1.980   4.656  0.0435  0.2381  0.6764
 6585TIP3    H119761   2.180   2.030   4.735 -1.4668 -0.3377  0.7773
 6585TIP3    H219762   2.142   2.023   4.589 -1.1231 -1.0894  0.7196
 6586TIP3   OH219763   5.093   2.705   1.863  0.6908 -0.2766 -0.1200
 6586TIP3    H119764   5.073   2.670   1.950 -1.0540  0.7578 -0.0641
 6586TIP3    H219765   5.133   2.631   1.816 -1.4743 -1.9045  0.4657
 6587TIP3   OH219766   1.441   0.910   0.899  0.4872  0.6781 -0.1427
 6587TIP3    H119767   1.348   0.910   0.879  0.4305 -0.7219  0.0712
 6587TIP3    H219768   1.455   0.832   0.953  2.1213 -0.3299 -1.8904
 6588TIP3   OH219769   4.898   1.684   2.061 -0.5659  0.4499 -0.0381
 6588TIP3    H119770   4.948   1.761   2.087 -0.4596  0.8532 -1.3769
 6588TIP3    H219771   4.851   1.711   1.983 -0.7636 -0.7579 -0.3585
 6589TIP3   OH219772   0.833   0.408   0.215  0.0641  0.6168  0.3836
 6589TIP3    H119773   0.925   0.424   0.192 -0.2996  0.3611 -1.3655
 6589TIP3    H219774   0.837   0.336   0.278  0.9637 -1.3807 -1.8205
 6590TIP3   OH219775   3.811   2.068   2.707 -0.8765 -0.4912  0.5454
 6590TIP3    H119776   3.778   2.051   2.796  1.0228 -1.6170  1.0846
 6590TIP3    H219777   3.856   1.987   2.683 -0.7699  0.0596 -1.1970
 6591TIP3   OH219778   0.056   3.724   3.774  0.3650  0.7095  0.1640
 6591TIP3    H119779   0.035   3.686   3.688  0.3602  2.0199 -0.4315
 6591TIP3    H219780   0.151   3.718   3.779  0.3625  0.5877  0.0994
 6592TIP3   OH219781   4.623   2.060   2.423 -0.0976  0.2268 -0.5020
 6592TIP3    H119782   4.618   1.988   2.361 -0.5107  0.2866 -0.5390
 6592TIP3    H219783   4.717   2.073   2.438 -0.0135 -0.0617 -0.7906
 6593TIP3   OH219784   4.216   2.919   3.033 -0.0930  0.2160 -0.1091
 6593TIP3    H119785   4.125   2.889   3.037 -0.3499  0.8785 -0.6911
 6593TIP3    H219786   4.212   3.011   3.061 -0.0227  1.0533 -2.6490
 6594TIP3   OH219787   5.511   0.779   2.600  0.2426  0.1329  0.1252
 6594TIP3    H119788   5.549   0.728   2.673  0.3431 -0.5142 -0.3696
 6594TIP3    H219789   5.582   0.835   2.570  0.1419  0.5533  0.6547
 6595TIP3   OH219790   2.047   3.101   1.555  0.7623 -0.2546 -0.5572
 6595TIP3    H119791   1.979   3.065   1.611  2.1559 -0.9798  0.7463
 6595TIP3    H219792   2.063   3.188   1.590 -3.1323  2.3140 -4.1599
 6596TIP3   OH219793   5.543   2.006   3.979  0.3206  0.0456 -0.6867
 6596TIP3    H119794   5.602   2.082   3.979 -0.2685  0.5166  0.1030
 6596TIP3    H219795   5.491   2.016   3.899  2.9737 -1.7502 -2.8114
 6597TIP3   OH219796   4.920   1.712   5.097  0.2961  0.0302  0.4272
 6597TIP3    H119797   4.840   1.660   5.094 -0.0800  0.6340 -0.5771
 6597TIP3    H219798   4.910   1.775   5.026  1.5432  0.3008  0.4695
 6598TIP3   OH219799   1.493   4.593   1.373 -0.1648 -0.0058 -0.0560
 6598TIP3    H119800   1.430   4.664   1.371  0.3701  0.4662 -1.8249
 6598TIP3    H219801   1.558   4.620   1.438  0.0899  1.1881 -0.7868
 6599TIP3   OH219802   3.749   1.195   2.478 -0.1308  0.0847 -0.7846
 6599TIP3    H119803   3.706   1.113   2.501  0.8627 -0.0974  0.5846
 6599TIP3    H219804   3.678   1.250   2.444 -0.7295 -1.4619 -2.2008
 6600TIP3   OH219805   5.886   1.460   3.353 -0.1155 -0.2480 -0.0970
 6600TIP3    H119806   5.930   1.463   3.268  0.0269  1.0030 -0.0088
 6600TIP3    H219807   5.932   1.525   3.406 -0.0564 -1.1803  1.0209
 6601TIP3   OH219808   0.694   2.710   4.776  0.6334 -0.0363 -0.0755
 6601TIP3    H119809   0.758   2.640   4.784  1.3115  0.6340  0.4407
 6601TIP3    H219810   0.609   2.665   4.772  1.1331 -0.9311 -0.9210
 6602TIP3   OH219811   5.227   2.191   1.463 -0.0794  0.3793 -0.1408
 6602TIP3    H119812   5.166   2.119   1.444  2.1033 -2.1738  1.7651
 6602TIP3    H219813   5.227   2.243   1.383 -0.4250 -2.7818 -2.4227
 6603TIP3   OH219814   0.503   0.121   3.180 -0.1129 -0.0690  0.0153
 6603TIP3    H119815   0.429   0.112   3.120 -0.6138 -0.1739  0.6330
 6603TIP3    H219816   0.494   0.209   3.217  0.5525  0.2333 -0.5181
 6604TIP3   OH219817   2.033   2.010   4.047  0.3960 -0.4280  0.3078
 6604TIP3    H119818   2.123   1.983   4.030  0.0610 -1.5036  0.1421
 6604TIP3    H219819   2.021   1.998   4.141  0.1539 -1.1945  0.1874
 6605TIP3   OH219820   3.496   4.506   1.248  0.0133 -0.1434 -0.2203
 6605TIP3    H119821   3.552   4.453   1.192  0.3736 -1.3358  1.2168
 6605TIP3    H219822   3.558   4.561   1.298 -0.1126 -0.9354  0.8366
 6606TIP3   OH219823   2.145   4.725   4.477  0.3070 -0.1418 -0.1195
 6606TIP3    H119824   2.155   4.752   4.568  0.5816 -0.6995  0.0209
 6606TIP3    H219825   2.126   4.632   4.481 -0.1043 -0.0833 -0.6178
 6607TIP3   OH219826   4.800   3.872   4.556  0.1456 -0.1136  0.0318
 6607TIP3    H119827   4.779   3.964   4.566 -1.4579 -0.0913 -2.6284
 6607TIP3    H219828   4.848   3.867   4.473  0.3107 -1.6683  0.1862
 6608TIP3   OH219829   1.827   2.530   1.891 -0.1254 -0.0713  0.2686
 6608TIP3    H119830   1.817   2.610   1.839 -0.5549 -0.7396 -0.7214
 6608TIP3    H219831   1.861   2.465   1.828 -0.6511 -0.9021  0.8247
 6609TIP3   OH219832   2.126   2.701   4.291  0.0473  0.3337  0.0675
 6609TIP3    H119833   2.196   2.749   4.248  0.4912  0.1101  0.5388
 6609TIP3    H219834   2.047   2.727   4.243  0.7138 -1.2305 -2.0157
 6610TIP3   OH219835   2.761   1.888   1.076 -0.1321  0.0581  0.4971
 6610TIP3    H119836   2.841   1.866   1.122  0.8730  1.8234 -0.2881
 6610TIP3    H219837   2.724   1.962   1.124 -2.2827 -1.7912  1.8654
 6611TIP3   OH219838   2.624   3.609   0.395  0.1267  0.6537  0.6513
 6611TIP3    H119839   2.579   3.658   0.464  0.2550  0.7498  0.6680
 6611TIP3    H219840   2.661   3.676   0.338  2.9648  0.7076  2.3422
 6612TIP3   OH219841   4.360   1.587   0.122 -0.5474 -0.0581 -0.2413
 6612TIP3    H119842   4.293   1.556   0.183 -1.2704  0.7204 -0.6275
 6612TIP3    H219843   4.335   1.549   0.038 -0.6761  0.4768 -0.4449
 6613TIP3   OH219844   0.534   4.648   2.742  0.3713  0.3691  0.2164
 6613TIP3    H119845   0.454   4.700   2.736  0.8009  1.0190  0.0650
 6613TIP3    H219846   0.521   4.578   2.677 -1.1155 -1.0025  1.9071
 6614TIP3   OH219847   3.361   3.489   2.650  0.0620 -0.7478 -0.4532
 6614TIP3    H119848   3.305   3.411   2.656  0.7890 -1.2271  0.2899
 6614TIP3    H219849   3.308   3.560   2.686  0.0531 -1.2665  0.5775
 6615TIP3   OH219850   3.972   2.700   2.493 -0.2135  0.3064 -0.3273
 6615TIP3    H119851   4.051   2.715   2.441  1.6086 -2.0913  1.5383
 6615TIP3    H219852   3.994   2.731   2.581 -0.8060 -1.6191  0.5442
 6616TIP3   OH219853   4.752   3.186   2.073  0.1767 -0.3326  0.0933
 6616TIP3    H119854   4.723   3.256   2.131 -0.4850 -0.6952  0.2034
 6616TIP3    H219855   4.837   3.216   2.041  1.0179 -0.5484  1.9977
 6617TIP3   OH219856   6.087   2.706   0.262 -0.0188  0.1697  0.1437
 6617TIP3    H119857   6.103   2.769   0.191  0.9886  0.6684  0.7774
 6617TIP3    H219858   6.006   2.662   0.237  0.7825 -0.3264 -1.7756
 6618TIP3   OH219859   1.311   1.053   3.522 -0.0179  0.5873  0.0784
 6618TIP3    H119860   1.246   0.984   3.540  1.0475 -0.6110 -0.4845
 6618TIP3    H219861   1.268   1.134   3.550 -2.1400 -0.0256 -1.1317
 6619TIP3   OH219862   1.969   4.086   4.322  0.0550  0.0435  0.2037
 6619TIP3    H119863   2.039   4.077   4.387  1.9264 -0.0257 -1.7300
 6619TIP3    H219864   2.013   4.080   4.238 -1.8929  2.7193 -1.1608
 6620TIP3   OH219865   1.315   0.140   4.929  0.2830  0.4900  0.0877
 6620TIP3    H119866   1.350   0.053   4.947 -0.5575  0.0820 -0.2322
 6620TIP3    H219867   1.341   0.193   5.005  1.1650  0.0805  0.0876
 6621TIP3   OH219868   6.112   3.663   3.816 -0.3034 -0.5339  0.6421
 6621TIP3    H119869   6.115   3.573   3.849 -1.4513 -0.8143  0.0257
 6621TIP3    H219870   6.198   3.677   3.776 -0.4350 -1.6716 -0.0586
 6622TIP3   OH219871   1.888   2.068   0.948  0.1783  0.3312 -0.0395
 6622TIP3    H119872   1.883   1.973   0.937 -1.8219  0.4925 -0.8994
 6622TIP3    H219873   1.802   2.093   0.979  1.1604  1.7277  1.7178
 6623TIP3   OH219874   6.314   1.336   4.603  0.1443 -0.1194  0.0584
 6623TIP3    H119875   6.384   1.301   4.549  0.1620 -0.3074  0.2049
 6623TIP3    H219876   6.290   1.419   4.560  1.8193  0.9758  1.1230
 6624TIP3   OH219877   1.194   4.591   2.963  0.2270  0.3902  0.6102
 6624TIP3    H119878   1.141   4.635   2.897  0.4236  1.3156  1.0528
 6624TIP3    H219879   1.247   4.529   2.913  0.5897  1.2850 -0.1512
 6625TIP3   OH219880   2.803   5.312   2.190  0.5016 -0.2933  0.1522
 6625TIP3    H119881   2.799   5.294   2.097  0.0279 -1.5762  0.4061
 6625TIP3    H219882   2.722   5.361   2.209  0.0482 -1.0037  0.0808
 6626TIP3   OH219883   2.956   2.537   3.946  0.3775 -0.4619 -0.5286
 6626TIP3    H119884   2.876   2.586   3.962 -0.0117 -0.5540 -2.0041
 6626TIP3    H219885   2.979   2.499   4.031 -0.2468  0.8595  0.2560
 6627TIP3   OH219886   4.053   0.499   4.145 -0.5394 -0.5220  0.2475
 6627TIP3    H119887   4.016   0.585   4.125 -1.5278 -0.5191  1.8655
 6627TIP3    H219888   4.064   0.457   4.060 -0.1539  1.1385 -0.5690
 6628TIP3   OH219889   4.892   5.149   0.135  0.1102  0.4909  0.7846
 6628TIP3    H119890   4.800   5.152   0.106  0.2201  0.9660  0.4735
 6628TIP3    H219891   4.887   5.156   0.230 -0.1693  0.7772  0.7517
 6629TIP3   OH219892   3.647   5.144   4.460  0.1873  0.3347 -0.1051
 6629TIP3    H119893   3.683   5.088   4.391  2.1867  0.0798  1.0616
 6629TIP3    H219894   3.576   5.092   4.498 -0.1287 -0.0226 -1.1241
 6630TIP3   OH219895   0.507   5.141   4.601  0.1477  0.2688  0.1545
 6630TIP3    H119896   0.505   5.235   4.583  1.6538  0.1093 -1.0941
 6630TIP3    H219897   0.439   5.127   4.666 -1.2824  1.9476 -0.9128
 6631TIP3   OH219898   1.438   0.874   3.721 -0.2901  0.2013 -0.0736
 6631TIP3    H119899   1.523   0.849   3.685  0.3798  0.8577  0.9935
 6631TIP3    H219900   1.458   0.904   3.810 -1.9105 -1.6121  0.9687
 6632TIP3   OH219901   5.353   3.270   2.068  0.0457 -0.6238 -0.1777
 6632TIP3    H119902   5.385   3.184   2.096  0.1975 -0.5087 -0.0011
 6632TIP3    H219903   5.257   3.261   2.069  0.0645 -0.8537 -0.3606
 6633TIP3   OH219904   4.648   1.710   2.298 -0.0771 -0.1437 -0.1096
 6633TIP3    H119905   4.674   1.783   2.243 -0.6016  1.1061  1.2480
 6633TIP3    H219906   4.723   1.694   2.355 -0.4800  0.2915  0.5573
 6634TIP3   OH219907   0.620   2.299   3.023 -0.1049 -0.2523  0.6673
 6634TIP3    H119908   0.631   2.286   3.117 -0.0904  0.2004  0.7306
 6634TIP3    H219909   0.548   2.362   3.016 -2.2687 -2.5655  0.2998
 6635TIP3   OH219910   1.536   4.042   1.053  0.7665 -0.2423  0.2762
 6635TIP3    H119911   1.518   3.948   1.057 -1.6278  0.1095 -0.3326
 6635TIP3    H219912   1.527   4.072   1.143  0.9502 -0.5130  0.3844
 6636TIP3   OH219913   2.013   2.126   4.414 -0.4217  0.1951 -0.0609
 6636TIP3    H119914   1.931   2.131   4.463  0.1437  0.8866  0.8448
 6636TIP3    H219915   2.059   2.207   4.434  0.2841  0.0386 -0.9412
 6637TIP3   OH219916   3.586   2.016   3.081 -0.5841 -0.2998 -0.0958
 6637TIP3    H119917   3.676   1.994   3.058 -0.0270  0.6167  1.1006
 6637TIP3    H219918   3.554   1.940   3.130  0.3874  0.3371  1.5993
 6638TIP3   OH219919   2.530   2.974   3.169  0.3963  0.1132 -0.2861
 6638TIP3    H119920   2.444   2.933   3.162  1.3353 -1.7661 -1.9494
 6638TIP3    H219921   2.586   2.904   3.204  1.7335  0.4697 -1.6073
 6639TIP3   OH219922   0.177   1.222   4.480 -0.2987  0.6311  0.3405
 6639TIP3    H119923   0.226   1.272   4.545 -1.2514  2.3639 -0.2235
 6639TIP3    H219924   0.202   1.259   4.396  1.1234 -1.7587 -0.4004
 6640TIP3   OH219925   4.354   2.422   0.625  0.7379  0.4661 -0.2797
 6640TIP3    H119926   4.423   2.475   0.585  0.9629 -0.0855 -0.6421
 6640TIP3    H219927   4.324   2.365   0.554  0.1604  0.4491 -0.0266
 6641TIP3   OH219928   4.448   1.064   4.284 -0.0887  0.0247  0.2672
 6641TIP3    H119929   4.362   1.035   4.256 -0.4125  0.5747  0.6701
 6641TIP3    H219930   4.448   1.159   4.270  0.5602 -0.0045 -0.0108
 6642TIP3   OH219931   0.313   0.151   0.687 -0.3138 -0.1568  0.2178
 6642TIP3    H119932   0.310   0.092   0.763 -1.0218  1.4867  1.5346
 6642TIP3    H219933   0.230   0.135   0.642  0.9053 -2.5283 -1.4127
 6643TIP3   OH219934   3.616   4.016   2.211  0.4275  0.2329 -0.2970
 6643TIP3    H119935   3.709   4.038   2.222  0.3360 -0.2381  1.9025
 6643TIP3    H219936   3.603   3.940   2.268 -1.6876  1.3771  0.8465
 6644TIP3   OH219937   2.127   2.273   1.534 -0.3145  0.1825 -0.0582
 6644TIP3    H119938   2.156   2.182   1.534 -0.1031  0.2274 -1.5567
 6644TIP3    H219939   2.157   2.308   1.618  1.7643 -0.4546 -0.4904
 6645TIP3   OH219940   2.508   4.471   2.593 -0.1015 -0.3018 -0.3652
 6645TIP3    H119941   2.434   4.468   2.532  1.9832 -1.7291 -3.0584
 6645TIP3    H219942   2.524   4.564   2.607 -1.3352  0.0452 -1.0805
   6.36168   5.99785   5.19429   0.00000   0.00000  -2.12056   0.00000  -2.12056  -2.99892
