Title t=  85.00000 step= 42500
44469
    1GLY      N    1   5.777   5.893   4.358
    1GLY    HT1    2   5.816   5.911   4.264
    1GLY    HT2    3   5.856   5.867   4.420
    1GLY    HT3    4   5.732   5.979   4.397
    1GLY     CA    5   5.683   5.775   4.355
    1GLY    HA1    6   5.602   5.803   4.420
    1GLY    HA2    7   5.740   5.691   4.392
    1GLY      C    8   5.615   5.748   4.226
    1GLY      O    9   5.598   5.848   4.155
    2PRO      N   10   5.583   5.628   4.183
    2PRO     CD   11   5.623   5.500   4.249
    2PRO    HD1   12   5.611   5.493   4.359
    2PRO    HD2   13   5.730   5.478   4.232
    2PRO     CA   14   5.525   5.611   4.051
    2PRO     HA   15   5.587   5.659   3.977
    2PRO     CB   16   5.537   5.462   4.033
    2PRO    HB1   17   5.629   5.432   3.980
    2PRO    HB2   18   5.451   5.423   3.975
    2PRO     CG   19   5.548   5.398   4.171
    2PRO    HG1   20   5.450   5.381   4.221
    2PRO    HG2   21   5.604   5.302   4.172
    2PRO      C   22   5.382   5.660   4.036
    2PRO      O   23   5.341   5.696   3.925
    3GLY      N   24   5.307   5.650   4.143
    3GLY     HN   25   5.348   5.622   4.230
    3GLY     CA   26   5.169   5.700   4.156
    3GLY    HA1   27   5.118   5.642   4.232
    3GLY    HA2   28   5.109   5.697   4.066
    3GLY      C   29   5.154   5.840   4.196
    3GLY      O   30   5.047   5.890   4.175
    4ASN      N   31   5.256   5.906   4.261
    4ASN     HN   32   5.347   5.866   4.266
    4ASN     CA   33   5.239   6.048   4.296
    4ASN     HA   34   5.136   6.066   4.325
    4ASN     CB   35   5.333   6.086   4.420
    4ASN    HB1   36   5.324   6.190   4.458
    4ASN    HB2   37   5.437   6.066   4.385
    4ASN     CG   38   5.314   5.991   4.539
    4ASN    OD1   39   5.410   5.936   4.594
    4ASN    ND2   40   5.191   5.978   4.587
    4ASN   HD21   41   5.175   5.913   4.661
    4ASN   HD22   42   5.116   6.032   4.548
    4ASN      C   43   5.271   6.130   4.177
    4ASN      O   44   5.335   6.081   4.087
    5PRO      N   45   5.220   6.256   4.163
    5PRO     CD   46   5.103   6.314   4.234
    5PRO    HD1   47   5.133   6.360   4.330
    5PRO    HD2   48   5.025   6.239   4.259
    5PRO     CA   49   5.261   6.342   4.050
    5PRO     HA   50   5.238   6.293   3.956
    5PRO     CB   51   5.179   6.465   4.068
    5PRO    HB1   52   5.165   6.506   3.965
    5PRO    HB2   53   5.225   6.543   4.131
    5PRO     CG   54   5.047   6.413   4.132
    5PRO    HG1   55   4.976   6.482   4.182
    5PRO    HG2   56   4.991   6.363   4.050
    5PRO      C   57   5.412   6.377   4.052
    5PRO      O   58   5.480   6.335   4.142
    6GLY      N   59   5.458   6.459   3.953
    6GLY     HN   60   5.393   6.476   3.880
    6GLY     CA   61   5.598   6.505   3.929
    6GLY    HA1   62   5.603   6.579   3.850
    6GLY    HA2   63   5.663   6.421   3.909
    6GLY      C   64   5.661   6.592   4.030
    6GLY      O   65   5.606   6.613   4.136
    7PRO      N   66   5.785   6.646   4.018
    7PRO     CD   67   5.857   6.614   3.895
    7PRO    HD1   68   5.807   6.663   3.809
    7PRO    HD2   69   5.867   6.504   3.878
    7PRO     CA   70   5.844   6.753   4.096
    7PRO     HA   71   5.863   6.703   4.190
    7PRO     CB   72   5.970   6.795   4.014
    7PRO    HB1   73   6.053   6.824   4.081
    7PRO    HB2   74   5.935   6.882   3.953
    7PRO     CG   75   5.998   6.675   3.915
    7PRO    HG1   76   6.039   6.711   3.818
    7PRO    HG2   77   6.070   6.602   3.957
    7PRO      C   78   5.754   6.869   4.135
    7PRO      O   79   5.666   6.903   4.059
    8GLY      N   80   5.776   6.930   4.256
    8GLY     HN   81   5.856   6.914   4.314
    8GLY     CA   82   5.689   7.027   4.320
    8GLY    HA1   83   5.631   7.085   4.250
    8GLY    HA2   84   5.759   7.080   4.383
    8GLY      C   85   5.582   6.962   4.401
    8GLY      O   86   5.541   6.849   4.383
    9ASN      N   87   5.528   7.038   4.501
    9ASN     HN   88   5.561   7.130   4.521
    9ASN     CA   89   5.410   7.001   4.576
    9ASN     HA   90   5.452   6.918   4.631
    9ASN     CB   91   5.375   7.112   4.677
    9ASN    HB1   92   5.278   7.084   4.724
    9ASN    HB2   93   5.355   7.208   4.624
    9ASN     CG   94   5.483   7.126   4.783
    9ASN    OD1   95   5.564   7.036   4.797
    9ASN    ND2   96   5.487   7.240   4.855
    9ASN   HD21   97   5.567   7.240   4.914
    9ASN   HD22   98   5.425   7.316   4.832
    9ASN      C   99   5.289   6.969   4.492
    9ASN      O  100   5.253   7.045   4.402
   10PRO      N  101   5.223   6.855   4.512
   10PRO     CD  102   5.285   6.727   4.557
   10PRO    HD1  103   5.311   6.731   4.665
   10PRO    HD2  104   5.381   6.704   4.508
   10PRO     CA  105   5.086   6.833   4.461
   10PRO     HA  106   5.092   6.832   4.353
   10PRO     CB  107   5.050   6.697   4.536
   10PRO    HB1  108   4.968   6.637   4.492
   10PRO    HB2  109   5.019   6.716   4.641
   10PRO     CG  110   5.181   6.619   4.527
   10PRO    HG1  111   5.193   6.528   4.590
   10PRO    HG2  112   5.165   6.580   4.424
   10PRO      C  113   4.979   6.941   4.488
   10PRO      O  114   4.995   7.021   4.583
   11GLY      N  115   4.880   6.957   4.407
   11GLY     HN  116   4.863   6.885   4.340
   11GLY     CA  117   4.776   7.057   4.435
   11GLY    HA1  118   4.720   7.089   4.348
   11GLY    HA2  119   4.817   7.144   4.484
   11GLY      C  120   4.669   7.006   4.527
   11GLY      O  121   4.675   6.892   4.572
   12PRO      N  122   4.564   7.084   4.554
   12PRO     CD  123   4.563   7.229   4.544
   12PRO    HD1  124   4.559   7.258   4.437
   12PRO    HD2  125   4.653   7.273   4.592
   12PRO     CA  126   4.432   7.037   4.607
   12PRO     HA  127   4.458   7.010   4.708
   12PRO     CB  128   4.343   7.156   4.601
   12PRO    HB1  129   4.270   7.159   4.684
   12PRO    HB2  130   4.297   7.178   4.502
   12PRO     CG  131   4.442   7.265   4.629
   12PRO    HG1  132   4.423   7.373   4.614
   12PRO    HG2  133   4.484   7.248   4.731
   12PRO      C  134   4.386   6.905   4.547
   12PRO      O  135   4.366   6.886   4.427
   13GLY      N  136   4.355   6.807   4.627
   13GLY     HN  137   4.377   6.811   4.724
   13GLY     CA  138   4.286   6.685   4.585
   13GLY    HA1  139   4.214   6.719   4.513
   13GLY    HA2  140   4.245   6.635   4.671
   13GLY      C  141   4.372   6.581   4.528
   13GLY      O  142   4.493   6.591   4.522
   14ASN      N  143   4.303   6.474   4.487
   14ASN     HN  144   4.204   6.472   4.487
   14ASN     CA  145   4.371   6.352   4.437
   14ASN     HA  146   4.463   6.334   4.490
   14ASN     CB  147   4.281   6.229   4.452
   14ASN    HB1  148   4.322   6.146   4.391
   14ASN    HB2  149   4.176   6.241   4.417
   14ASN     CG  150   4.279   6.192   4.595
   14ASN    OD1  151   4.372   6.126   4.649
   14ASN    ND2  152   4.171   6.226   4.666
   14ASN   HD21  153   4.177   6.223   4.766
   14ASN   HD22  154   4.097   6.259   4.609
   14ASN      C  155   4.391   6.383   4.282
   14ASN      O  156   4.313   6.467   4.232
   15PRO      N  157   4.482   6.322   4.209
   15PRO     CD  158   4.572   6.219   4.266
   15PRO    HD1  159   4.515   6.143   4.324
   15PRO    HD2  160   4.655   6.271   4.318
   15PRO     CA  161   4.500   6.344   4.068
   15PRO     HA  162   4.511   6.450   4.053
   15PRO     CB  163   4.627   6.263   4.038
   15PRO    HB1  164   4.710   6.335   4.055
   15PRO    HB2  165   4.639   6.224   3.934
   15PRO     CG  166   4.625   6.150   4.139
   15PRO    HG1  167   4.543   6.081   4.108
   15PRO    HG2  168   4.712   6.086   4.165
   15PRO      C  169   4.390   6.278   3.985
   15PRO    OT1  170   4.380   6.295   3.858
   15PRO    OT2  171   4.304   6.200   4.032
   16LIT    LIT  172   1.148   5.867   2.158
   17LIT    LIT  173   7.164   3.170   6.527
   18LIT    LIT  174   5.150   2.733   6.233
   19LIT    LIT  175   1.544   7.145   4.615
   20LIT    LIT  176   2.442   1.879   3.453
   21LIT    LIT  177   0.756   6.695   5.474
   22LIT    LIT  178   6.397   7.087   4.106
   23LIT    LIT  179   4.139   1.868   3.986
   24LIT    LIT  180   3.475   5.260   3.056
   25LIT    LIT  181   7.831   6.693   4.889
   26LIT    LIT  182   6.205   7.082   0.099
   27LIT    LIT  183   2.616   5.238   1.621
   28LIT    LIT  184  -0.001   4.176   5.618
   29LIT    LIT  185   8.224   4.827   6.136
   30LIT    LIT  186   3.711   1.726   3.490
   31LIT    LIT  187   0.007   2.542   0.385
   32LIT    LIT  188   5.685   0.818   3.608
   33LIT    LIT  189   1.825   5.298   3.559
   34LIT    LIT  190   0.558   1.671   2.309
   35LIT    LIT  191   6.225   4.611   3.317
   36LIT    LIT  192   3.078   1.117   6.080
   37LIT    LIT  193   2.810   1.592   6.283
   38LIT    LIT  194   1.552   4.157   3.002
   39LIT    LIT  195   3.535   7.198   5.092
   40LIT    LIT  196   7.088   1.556   6.133
   41LIT    LIT  197   0.829   5.078   5.739
   42LIT    LIT  198   2.652   2.196   5.740
   43LIT    LIT  199   4.256   6.151   3.858
   44LIT    LIT  200   4.791   4.280   4.653
   45LIT    LIT  201   2.159   3.651   5.840
   46LIT    LIT  202   2.437   1.079   1.478
   47LIT    LIT  203   7.761   2.941   5.900
   48LIT    LIT  204   5.710   0.568   0.976
   49LIT    LIT  205   0.435   0.613   5.122
   50LIT    LIT  206   5.152   3.863   2.515
   51LIT    LIT  207   5.655   1.219   1.276
   52LIT    LIT  208   5.227   3.673   2.091
   53LIT    LIT  209   6.901   7.581   1.650
   54LIT    LIT  210   4.199   6.870   0.400
   55LIT    LIT  211   1.689   3.612   0.201
   56LIT    LIT  212   3.746   6.688   6.382
   57LIT    LIT  213   6.846   2.883   4.447
   58CLA    CLA  214   2.431   3.571   2.842
   59CLA    CLA  215   1.099   6.928   1.821
   60CLA    CLA  216   0.079   1.214   3.481
   61CLA    CLA  217   5.038   1.436   3.589
   62CLA    CLA  218   6.320   5.972   0.325
   63CLA    CLA  219   8.247   7.246   4.361
   64CLA    CLA  220   7.072   2.185   0.625
   65CLA    CLA  221   7.926   7.346   0.629
   66CLA    CLA  222   7.539   5.476   0.716
   67CLA    CLA  223   7.358   3.065   2.025
   68CLA    CLA  224   1.492   4.528   0.573
   69CLA    CLA  225   7.645   4.651   4.495
   70CLA    CLA  226   2.209   6.631   4.336
   71CLA    CLA  227   7.397   3.259   5.220
   72CLA    CLA  228   5.457   5.146   2.298
   73CLA    CLA  229   7.683   5.213   2.042
   74CLA    CLA  230   2.418   5.433   5.086
   75CLA    CLA  231   3.221   5.047   5.936
   76CLA    CLA  232   3.653   1.805   4.740
   77CLA    CLA  233   6.529   5.683   6.508
   78CLA    CLA  234   0.687   1.051   4.199
   79CLA    CLA  235   3.025   4.596   2.406
   80CLA    CLA  236   1.026   4.896   3.569
   81CLA    CLA  237   3.812   2.503   1.120
   82CLA    CLA  238   6.601   0.813   3.078
   83CLA    CLA  239   3.995   6.744   1.932
   84CLA    CLA  240   1.884   5.704   4.112
   85CLA    CLA  241   3.944   6.247   5.508
   86CLA    CLA  242   6.898   0.212   1.415
   87CLA    CLA  243   6.652   0.643   0.795
   88CLA    CLA  244   5.767   0.268   6.074
   89CLA    CLA  245   6.837   4.872   0.969
   90CLA    CLA  246   6.048   2.700   0.217
   91CLA    CLA  247   2.554   1.569   2.765
   92CLA    CLA  248   8.094   4.721   5.973
   93CLA    CLA  249   4.616   3.103   4.526
   94CLA    CLA  250   4.943   5.378   3.115
   95CLA    CLA  251   2.892   1.429   5.804
   96CLA    CLA  252   1.794   3.158   5.403
   97CLA    CLA  253   8.037   6.577   0.560
   98CLA    CLA  254   0.413   6.361   5.306
   99CLA    CLA  255   7.011   4.605   0.346
  100TIP3   OH2  256   3.687   0.026   5.457
  100TIP3    H1  257   3.718   0.116   5.468
  100TIP3    H2  258   3.680   0.015   5.362
  101TIP3   OH2  259   1.234   5.508   3.467
  101TIP3    H1  260   1.191   5.584   3.428
  101TIP3    H2  261   1.327   5.522   3.452
  102TIP3   OH2  262   5.315   0.343   0.059
  102TIP3    H1  263   5.268   0.329   0.141
  102TIP3    H2  264   5.323   0.438   0.052
  103TIP3   OH2  265   2.647   4.159   5.935
  103TIP3    H1  266   2.555   4.141   5.951
  103TIP3    H2  267   2.648   4.224   5.865
  104TIP3   OH2  268   4.626   0.251   6.727
  104TIP3    H1  269   4.668   0.260   6.813
  104TIP3    H2  270   4.696   0.269   6.664
  105TIP3   OH2  271   7.079   4.963   1.142
  105TIP3    H1  272   7.102   4.925   1.227
  105TIP3    H2  273   7.008   4.909   1.109
  106TIP3   OH2  274   5.419   6.075   4.867
  106TIP3    H1  275   5.381   5.999   4.824
  106TIP3    H2  276   5.373   6.150   4.830
  107TIP3   OH2  277   3.081   2.181   2.345
  107TIP3    H1  278   3.016   2.149   2.408
  107TIP3    H2  279   3.031   2.235   2.284
  108TIP3   OH2  280   3.565   2.709   0.481
  108TIP3    H1  281   3.586   2.641   0.417
  108TIP3    H2  282   3.623   2.692   0.555
  109TIP3   OH2  283   5.446   5.024   5.410
  109TIP3    H1  284   5.474   5.031   5.501
  109TIP3    H2  285   5.351   5.017   5.414
  110TIP3   OH2  286   3.980   2.833   1.333
  110TIP3    H1  287   3.996   2.795   1.419
  110TIP3    H2  288   3.987   2.927   1.346
  111TIP3   OH2  289   7.057   0.678   5.015
  111TIP3    H1  290   7.144   0.650   4.986
  111TIP3    H2  291   7.002   0.673   4.937
  112TIP3   OH2  292   4.246   0.204   5.690
  112TIP3    H1  293   4.315   0.235   5.748
  112TIP3    H2  294   4.290   0.186   5.607
  113TIP3   OH2  295   6.384   6.852   6.268
  113TIP3    H1  296   6.473   6.825   6.289
  113TIP3    H2  297   6.345   6.874   6.352
  114TIP3   OH2  298   5.267   3.973   0.390
  114TIP3    H1  299   5.193   3.939   0.339
  114TIP3    H2  300   5.339   3.978   0.327
  115TIP3   OH2  301   5.472   3.904   5.976
  115TIP3    H1  302   5.544   3.917   6.038
  115TIP3    H2  303   5.447   3.992   5.949
  116TIP3   OH2  304   6.617   3.463   3.019
  116TIP3    H1  305   6.665   3.416   2.951
  116TIP3    H2  306   6.558   3.520   2.971
  117TIP3   OH2  307   5.679   3.509   5.756
  117TIP3    H1  308   5.671   3.478   5.847
  117TIP3    H2  309   5.644   3.598   5.758
  118TIP3   OH2  310   2.606   6.398   4.394
  118TIP3    H1  311   2.593   6.420   4.487
  118TIP3    H2  312   2.518   6.381   4.361
  119TIP3   OH2  313   4.856   7.138   5.856
  119TIP3    H1  314   4.860   7.114   5.948
  119TIP3    H2  315   4.802   7.218   5.854
  120TIP3   OH2  316   0.134   0.381   4.243
  120TIP3    H1  317   0.056   0.418   4.285
  120TIP3    H2  318   0.158   0.306   4.299
  121TIP3   OH2  319   2.644   6.687   4.520
  121TIP3    H1  320   2.645   6.772   4.565
  121TIP3    H2  321   2.662   6.623   4.589
  122TIP3   OH2  322   1.508   1.437   0.866
  122TIP3    H1  323   1.564   1.511   0.842
  122TIP3    H2  324   1.485   1.396   0.783
  123TIP3   OH2  325   8.064   7.453   4.459
  123TIP3    H1  326   8.110   7.529   4.422
  123TIP3    H2  327   8.125   7.380   4.449
  124TIP3   OH2  328   0.326   5.821   3.457
  124TIP3    H1  329   0.264   5.759   3.419
  124TIP3    H2  330   0.393   5.833   3.391
  125TIP3   OH2  331   3.885   7.312   0.225
  125TIP3    H1  332   3.926   7.377   0.167
  125TIP3    H2  333   3.857   7.362   0.302
  126TIP3   OH2  334   2.490   1.208   3.743
  126TIP3    H1  335   2.501   1.233   3.652
  126TIP3    H2  336   2.452   1.286   3.785
  127TIP3   OH2  337   1.793   1.714   4.769
  127TIP3    H1  338   1.821   1.662   4.693
  127TIP3    H2  339   1.842   1.795   4.762
  128TIP3   OH2  340   2.070   3.139   6.025
  128TIP3    H1  341   2.164   3.121   6.030
  128TIP3    H2  342   2.063   3.233   6.039
  129TIP3   OH2  343   2.068   2.766   5.028
  129TIP3    H1  344   1.994   2.821   5.052
  129TIP3    H2  345   2.128   2.773   5.102
  130TIP3   OH2  346   2.491   1.577   1.294
  130TIP3    H1  347   2.585   1.559   1.297
  130TIP3    H2  348   2.464   1.574   1.386
  131TIP3   OH2  349   2.471   1.572   4.734
  131TIP3    H1  350   2.498   1.480   4.740
  131TIP3    H2  351   2.499   1.611   4.816
  132TIP3   OH2  352   0.921   5.168   0.809
  132TIP3    H1  353   0.839   5.214   0.791
  132TIP3    H2  354   0.920   5.094   0.748
  133TIP3   OH2  355   1.885   3.570   0.822
  133TIP3    H1  356   1.831   3.550   0.899
  133TIP3    H2  357   1.855   3.508   0.756
  134TIP3   OH2  358   3.505   0.935   5.468
  134TIP3    H1  359   3.411   0.916   5.477
  134TIP3    H2  360   3.515   0.967   5.379
  135TIP3   OH2  361   4.404   1.978   1.338
  135TIP3    H1  362   4.488   1.944   1.369
  135TIP3    H2  363   4.428   2.050   1.280
  136TIP3   OH2  364   2.005   3.884   5.339
  136TIP3    H1  365   2.064   3.813   5.314
  136TIP3    H2  366   1.951   3.847   5.409
  137TIP3   OH2  367   2.289   6.097   1.545
  137TIP3    H1  368   2.321   6.018   1.589
  137TIP3    H2  369   2.362   6.158   1.550
  138TIP3   OH2  370   4.943   3.908   1.233
  138TIP3    H1  371   4.916   3.987   1.185
  138TIP3    H2  372   4.976   3.849   1.165
  139TIP3   OH2  373   6.008   0.170   5.882
  139TIP3    H1  374   5.945   0.168   5.954
  139TIP3    H2  375   5.986   0.094   5.828
  140TIP3   OH2  376   7.683   1.661   3.830
  140TIP3    H1  377   7.774   1.689   3.819
  140TIP3    H2  378   7.682   1.571   3.798
  141TIP3   OH2  379   6.627   1.262   3.041
  141TIP3    H1  380   6.583   1.275   3.125
  141TIP3    H2  381   6.719   1.248   3.064
  142TIP3   OH2  382   6.462   6.103   5.280
  142TIP3    H1  383   6.480   6.021   5.235
  142TIP3    H2  384   6.493   6.090   5.369
  143TIP3   OH2  385   6.915   5.104   6.269
  143TIP3    H1  386   6.883   5.159   6.197
  143TIP3    H2  387   6.848   5.114   6.337
  144TIP3   OH2  388   7.399   0.134   3.156
  144TIP3    H1  389   7.414   0.064   3.220
  144TIP3    H2  390   7.426   0.095   3.072
  145TIP3   OH2  391   5.423   0.986   5.944
  145TIP3    H1  392   5.479   1.001   5.868
  145TIP3    H2  393   5.482   0.946   6.009
  146TIP3   OH2  394   4.249   2.645   3.271
  146TIP3    H1  395   4.319   2.580   3.263
  146TIP3    H2  396   4.182   2.601   3.323
  147TIP3   OH2  397   7.142   1.314   1.270
  147TIP3    H1  398   7.064   1.368   1.268
  147TIP3    H2  399   7.189   1.336   1.189
  148TIP3   OH2  400   7.362   4.200   6.800
  148TIP3    H1  401   7.271   4.208   6.828
  148TIP3    H2  402   7.366   4.249   6.717
  149TIP3   OH2  403   1.275   2.168   4.834
  149TIP3    H1  404   1.353   2.114   4.819
  149TIP3    H2  405   1.255   2.206   4.748
  150TIP3   OH2  406   4.340   1.125   0.024
  150TIP3    H1  407   4.343   1.037   0.062
  150TIP3    H2  408   4.422   1.132  -0.025
  151TIP3   OH2  409   5.759   3.886   2.957
  151TIP3    H1  410   5.676   3.893   3.004
  151TIP3    H2  411   5.734   3.865   2.867
  152TIP3   OH2  412   2.289   7.755   1.472
  152TIP3    H1  413   2.233   7.828   1.445
  152TIP3    H2  414   2.350   7.793   1.535
  153TIP3   OH2  415   1.794   3.390   0.650
  153TIP3    H1  416   1.830   3.310   0.688
  153TIP3    H2  417   1.718   3.360   0.599
  154TIP3   OH2  418   6.335   5.344   5.475
  154TIP3    H1  419   6.402   5.413   5.479
  154TIP3    H2  420   6.290   5.359   5.392
  155TIP3   OH2  421   0.771   7.745   6.120
  155TIP3    H1  422   0.741   7.714   6.205
  155TIP3    H2  423   0.751   7.838   6.119
  156TIP3   OH2  424   7.506   7.633   3.689
  156TIP3    H1  425   7.495   7.707   3.749
  156TIP3    H2  426   7.445   7.567   3.721
  157TIP3   OH2  427   6.740   3.004   2.755
  157TIP3    H1  428   6.814   3.063   2.739
  157TIP3    H2  429   6.773   2.918   2.729
  158TIP3   OH2  430   1.236   2.645   4.874
  158TIP3    H1  431   1.235   2.570   4.935
  158TIP3    H2  432   1.300   2.705   4.911
  159TIP3   OH2  433   7.135   4.787   2.609
  159TIP3    H1  434   7.209   4.728   2.623
  159TIP3    H2  435   7.166   4.873   2.637
  160TIP3   OH2  436   2.588   0.134   5.898
  160TIP3    H1  437   2.683   0.143   5.899
  160TIP3    H2  438   2.556   0.224   5.886
  161TIP3   OH2  439   5.969   2.238   4.424
  161TIP3    H1  440   6.048   2.205   4.381
  161TIP3    H2  441   5.929   2.161   4.463
  162TIP3   OH2  442   1.347   5.638   4.109
  162TIP3    H1  443   1.416   5.573   4.115
  162TIP3    H2  444   1.290   5.606   4.039
  163TIP3   OH2  445   3.117   0.659   6.189
  163TIP3    H1  446   3.118   0.593   6.119
  163TIP3    H2  447   3.189   0.633   6.247
  164TIP3   OH2  448   1.825   2.964   0.856
  164TIP3    H1  449   1.766   2.892   0.875
  164TIP3    H2  450   1.902   2.922   0.816
  165TIP3   OH2  451   3.202   7.786   3.176
  165TIP3    H1  452   3.216   7.708   3.231
  165TIP3    H2  453   3.290   7.821   3.163
  166TIP3   OH2  454   7.726   4.024   6.521
  166TIP3    H1  455   7.745   4.077   6.598
  166TIP3    H2  456   7.750   4.080   6.447
  167TIP3   OH2  457   6.461   0.824   0.956
  167TIP3    H1  458   6.412   0.788   1.030
  167TIP3    H2  459   6.511   0.750   0.922
  168TIP3   OH2  460   1.732   6.172   6.332
  168TIP3    H1  461   1.701   6.202   6.417
  168TIP3    H2  462   1.810   6.225   6.315
  169TIP3   OH2  463   5.760   7.455   6.626
  169TIP3    H1  464   5.736   7.524   6.687
  169TIP3    H2  465   5.682   7.401   6.618
  170TIP3   OH2  466   0.151   2.456   0.495
  170TIP3    H1  467   0.115   2.381   0.542
  170TIP3    H2  468   0.226   2.484   0.548
  171TIP3   OH2  469   7.495   5.800   2.208
  171TIP3    H1  470   7.412   5.810   2.162
  171TIP3    H2  471   7.495   5.871   2.272
  172TIP3   OH2  472   4.220   2.498   5.479
  172TIP3    H1  473   4.179   2.573   5.436
  172TIP3    H2  474   4.150   2.432   5.484
  173TIP3   OH2  475   0.224   2.584   2.536
  173TIP3    H1  476   0.141   2.571   2.490
  173TIP3    H2  477   0.260   2.664   2.498
  174TIP3   OH2  478   0.944   4.958   4.474
  174TIP3    H1  479   0.970   4.917   4.557
  174TIP3    H2  480   0.892   4.891   4.430
  175TIP3   OH2  481   7.004   0.437   6.209
  175TIP3    H1  482   7.058   0.448   6.287
  175TIP3    H2  483   6.928   0.388   6.239
  176TIP3   OH2  484   0.370   7.768   4.754
  176TIP3    H1  485   0.339   7.756   4.844
  176TIP3    H2  486   0.444   7.707   4.746
  177TIP3   OH2  487   5.594   3.610   0.432
  177TIP3    H1  488   5.636   3.665   0.498
  177TIP3    H2  489   5.661   3.547   0.407
  178TIP3   OH2  490   8.222   1.844   5.520
  178TIP3    H1  491   8.151   1.909   5.520
  178TIP3    H2  492   8.278   1.869   5.447
  179TIP3   OH2  493   1.238   3.316   3.774
  179TIP3    H1  494   1.146   3.305   3.750
  179TIP3    H2  495   1.235   3.342   3.866
  180TIP3   OH2  496   1.051   2.064   6.253
  180TIP3    H1  497   1.077   2.040   6.164
  180TIP3    H2  498   1.113   2.019   6.309
  181TIP3   OH2  499   3.112   0.116   4.233
  181TIP3    H1  500   3.109   0.113   4.329
  181TIP3    H2  501   3.053   0.047   4.205
  182TIP3   OH2  502   1.074   6.748   0.394
  182TIP3    H1  503   1.070   6.826   0.449
  182TIP3    H2  504   1.053   6.675   0.453
  183TIP3   OH2  505   7.783   0.369   1.111
  183TIP3    H1  506   7.775   0.387   1.017
  183TIP3    H2  507   7.731   0.290   1.125
  184TIP3   OH2  508   3.494   5.394   1.293
  184TIP3    H1  509   3.523   5.402   1.202
  184TIP3    H2  510   3.558   5.445   1.343
  185TIP3   OH2  511   0.633   3.083   1.652
  185TIP3    H1  512   0.645   3.050   1.562
  185TIP3    H2  513   0.538   3.094   1.661
  186TIP3   OH2  514   8.176   2.385   6.233
  186TIP3    H1  515   8.266   2.376   6.202
  186TIP3    H2  516   8.180   2.455   6.298
  187TIP3   OH2  517   6.109   1.921   1.442
  187TIP3    H1  518   6.107   1.976   1.364
  187TIP3    H2  519   6.164   1.847   1.418
  188TIP3   OH2  520   7.715   3.336   4.556
  188TIP3    H1  521   7.731   3.416   4.506
  188TIP3    H2  522   7.646   3.360   4.619
  189TIP3   OH2  523   6.254   4.151   3.968
  189TIP3    H1  524   6.287   4.239   3.986
  189TIP3    H2  525   6.282   4.132   3.879
  190TIP3   OH2  526   2.830   4.412   6.665
  190TIP3    H1  527   2.922   4.410   6.640
  190TIP3    H2  528   2.795   4.489   6.619
  191TIP3   OH2  529   0.886   1.099   0.133
  191TIP3    H1  530   0.858   1.173   0.186
  191TIP3    H2  531   0.949   1.052   0.187
  192TIP3   OH2  532   2.532   1.851   1.853
  192TIP3    H1  533   2.623   1.878   1.853
  192TIP3    H2  534   2.534   1.758   1.875
  193TIP3   OH2  535   5.440   3.990   4.515
  193TIP3    H1  536   5.480   4.076   4.528
  193TIP3    H2  537   5.469   3.939   4.590
  194TIP3   OH2  538   5.116   2.825   1.644
  194TIP3    H1  539   5.106   2.891   1.575
  194TIP3    H2  540   5.190   2.771   1.615
  195TIP3   OH2  541   2.199   7.786   6.484
  195TIP3    H1  542   2.162   7.868   6.453
  195TIP3    H2  543   2.138   7.756   6.552
  196TIP3   OH2  544   0.269   6.362   4.369
  196TIP3    H1  545   0.345   6.336   4.317
  196TIP3    H2  546   0.268   6.301   4.442
  197TIP3   OH2  547   1.799   5.518   1.383
  197TIP3    H1  548   1.769   5.451   1.322
  197TIP3    H2  549   1.756   5.599   1.353
  198TIP3   OH2  550   4.036   4.236   5.797
  198TIP3    H1  551   3.968   4.294   5.832
  198TIP3    H2  552   4.042   4.259   5.704
  199TIP3   OH2  553   6.803   3.434   3.205
  199TIP3    H1  554   6.738   3.439   3.136
  199TIP3    H2  555   6.803   3.521   3.245
  200TIP3   OH2  556   4.541   4.745   1.255
  200TIP3    H1  557   4.579   4.817   1.205
  200TIP3    H2  558   4.610   4.718   1.316
  201TIP3   OH2  559   5.084   5.108   4.827
  201TIP3    H1  560   5.016   5.145   4.885
  201TIP3    H2  561   5.167   5.135   4.868
  202TIP3   OH2  562   5.391   6.387   3.044
  202TIP3    H1  563   5.481   6.362   3.023
  202TIP3    H2  564   5.349   6.305   3.072
  203TIP3   OH2  565   2.944   2.927   4.024
  203TIP3    H1  566   2.889   2.858   3.986
  203TIP3    H2  567   2.884   3.000   4.039
  204TIP3   OH2  568   2.053   0.693   3.989
  204TIP3    H1  569   2.021   0.695   3.899
  204TIP3    H2  570   2.131   0.749   3.989
  205TIP3   OH2  571   7.161   3.987   4.398
  205TIP3    H1  572   7.190   3.972   4.307
  205TIP3    H2  573   7.174   4.081   4.411
  206TIP3   OH2  574   5.496   0.340   1.081
  206TIP3    H1  575   5.427   0.309   1.023
  206TIP3    H2  576   5.543   0.261   1.108
  207TIP3   OH2  577   7.740   1.865   5.167
  207TIP3    H1  578   7.752   1.839   5.075
  207TIP3    H2  579   7.739   1.783   5.215
  208TIP3   OH2  580   0.025   0.330   2.196
  208TIP3    H1  581   0.066   0.353   2.113
  208TIP3    H2  582   0.091   0.279   2.242
  209TIP3   OH2  583   7.178   6.681   1.467
  209TIP3    H1  584   7.187   6.639   1.381
  209TIP3    H2  585   7.206   6.771   1.452
  210TIP3   OH2  586   6.109   0.423   1.177
  210TIP3    H1  587   6.097   0.513   1.145
  210TIP3    H2  588   6.068   0.423   1.264
  211TIP3   OH2  589   2.804   0.387   6.793
  211TIP3    H1  590   2.893   0.405   6.762
  211TIP3    H2  591   2.752   0.381   6.713
  212TIP3   OH2  592   1.754   6.641   4.667
  212TIP3    H1  593   1.830   6.588   4.693
  212TIP3    H2  594   1.750   6.631   4.572
  213TIP3   OH2  595   1.027   5.212   4.428
  213TIP3    H1  596   1.057   5.193   4.339
  213TIP3    H2  597   0.986   5.130   4.457
  214TIP3   OH2  598   0.438   4.795   5.484
  214TIP3    H1  599   0.356   4.831   5.518
  214TIP3    H2  600   0.500   4.803   5.557
  215TIP3   OH2  601   8.232   6.670   5.459
  215TIP3    H1  602   8.172   6.737   5.427
  215TIP3    H2  603   8.196   6.644   5.544
  216TIP3   OH2  604   4.327   7.316   2.283
  216TIP3    H1  605   4.393   7.269   2.334
  216TIP3    H2  606   4.371   7.398   2.257
  217TIP3   OH2  607   8.177   7.089   6.671
  217TIP3    H1  608   8.095   7.038   6.668
  217TIP3    H2  609   8.178   7.128   6.759
  218TIP3   OH2  610   7.828   5.178   2.867
  218TIP3    H1  611   7.887   5.108   2.839
  218TIP3    H2  612   7.744   5.135   2.882
  219TIP3   OH2  613   4.847   3.615   4.380
  219TIP3    H1  614   4.898   3.538   4.356
  219TIP3    H2  615   4.756   3.589   4.369
  220TIP3   OH2  616   5.026   2.599   5.393
  220TIP3    H1  617   5.052   2.582   5.484
  220TIP3    H2  618   5.025   2.513   5.352
  221TIP3   OH2  619   3.097   6.575   0.666
  221TIP3    H1  620   3.010   6.608   0.688
  221TIP3    H2  621   3.104   6.492   0.713
  222TIP3   OH2  622   4.670   5.178   0.030
  222TIP3    H1  623   4.693   5.099   0.081
  222TIP3    H2  624   4.688   5.153  -0.061
  223TIP3   OH2  625   0.857   0.545   5.213
  223TIP3    H1  626   0.901   0.605   5.153
  223TIP3    H2  627   0.854   0.592   5.297
  224TIP3   OH2  628   0.653   1.907   5.102
  224TIP3    H1  629   0.704   1.839   5.058
  224TIP3    H2  630   0.587   1.933   5.038
  225TIP3   OH2  631   4.754   3.389   1.150
  225TIP3    H1  632   4.730   3.356   1.063
  225TIP3    H2  633   4.831   3.443   1.135
  226TIP3   OH2  634   7.429   7.042   1.464
  226TIP3    H1  635   7.387   6.972   1.515
  226TIP3    H2  636   7.416   7.016   1.373
  227TIP3   OH2  637  -0.008   5.824   1.619
  227TIP3    H1  638   0.015   5.917   1.617
  227TIP3    H2  639  -0.040   5.809   1.708
  228TIP3   OH2  640   7.666   0.302   6.568
  228TIP3    H1  641   7.642   0.375   6.512
  228TIP3    H2  642   7.761   0.308   6.577
  229TIP3   OH2  643   6.020   1.541   5.204
  229TIP3    H1  644   6.095   1.533   5.145
  229TIP3    H2  645   5.972   1.458   5.194
  230TIP3   OH2  646   7.425   1.522   1.537
  230TIP3    H1  647   7.466   1.527   1.624
  230TIP3    H2  648   7.360   1.592   1.538
  231TIP3   OH2  649   6.761   0.600   5.930
  231TIP3    H1  650   6.722   0.608   6.017
  231TIP3    H2  651   6.700   0.546   5.880
  232TIP3   OH2  652   1.259   6.863   5.996
  232TIP3    H1  653   1.300   6.780   5.975
  232TIP3    H2  654   1.227   6.852   6.086
  233TIP3   OH2  655   3.908   3.782   6.295
  233TIP3    H1  656   3.878   3.742   6.213
  233TIP3    H2  657   4.003   3.790   6.285
  234TIP3   OH2  658   3.707   3.278   3.520
  234TIP3    H1  659   3.637   3.246   3.578
  234TIP3    H2  660   3.710   3.372   3.537
  235TIP3   OH2  661   7.973   7.548   1.087
  235TIP3    H1  662   7.883   7.564   1.114
  235TIP3    H2  663   7.995   7.462   1.123
  236TIP3   OH2  664   1.745   0.555   2.105
  236TIP3    H1  665   1.825   0.537   2.056
  236TIP3    H2  666   1.736   0.481   2.165
  237TIP3   OH2  667   2.475   7.421   0.149
  237TIP3    H1  668   2.530   7.435   0.072
  237TIP3    H2  669   2.387   7.407   0.115
  238TIP3   OH2  670   1.967   1.766   1.846
  238TIP3    H1  671   2.046   1.819   1.851
  238TIP3    H2  672   1.984   1.702   1.777
  239TIP3   OH2  673   6.155   6.517   2.206
  239TIP3    H1  674   6.222   6.484   2.267
  239TIP3    H2  675   6.083   6.455   2.214
  240TIP3   OH2  676   2.615   2.933   0.973
  240TIP3    H1  677   2.572   2.863   0.924
  240TIP3    H2  678   2.702   2.898   0.993
  241TIP3   OH2  679   5.331   1.445   5.273
  241TIP3    H1  680   5.411   1.419   5.319
  241TIP3    H2  681   5.293   1.363   5.242
  242TIP3   OH2  682   2.348   4.183   4.867
  242TIP3    H1  683   2.312   4.227   4.791
  242TIP3    H2  684   2.419   4.241   4.897
  243TIP3   OH2  685   4.933   4.951   1.848
  243TIP3    H1  686   5.011   4.940   1.903
  243TIP3    H2  687   4.958   4.914   1.764
  244TIP3   OH2  688   6.343   4.627   2.416
  244TIP3    H1  689   6.415   4.687   2.395
  244TIP3    H2  690   6.332   4.575   2.336
  245TIP3   OH2  691   1.844   4.593   4.566
  245TIP3    H1  692   1.781   4.531   4.529
  245TIP3    H2  693   1.814   4.606   4.656
  246TIP3   OH2  694   2.404   2.064   6.389
  246TIP3    H1  695   2.311   2.080   6.400
  246TIP3    H2  696   2.410   2.000   6.318
  247TIP3   OH2  697   3.299   2.859   2.368
  247TIP3    H1  698   3.292   2.764   2.379
  247TIP3    H2  699   3.271   2.895   2.452
  248TIP3   OH2  700   8.083   5.834   4.779
  248TIP3    H1  701   8.168   5.861   4.814
  248TIP3    H2  702   8.104   5.762   4.719
  249TIP3   OH2  703   0.298   6.170   0.556
  249TIP3    H1  704   0.334   6.241   0.609
  249TIP3    H2  705   0.363   6.158   0.486
  250TIP3   OH2  706   4.883   6.151   1.354
  250TIP3    H1  707   4.979   6.154   1.353
  250TIP3    H2  708   4.858   6.229   1.404
  251TIP3   OH2  709   4.165   2.957   2.336
  251TIP3    H1  710   4.167   2.937   2.430
  251TIP3    H2  711   4.257   2.974   2.314
  252TIP3   OH2  712   6.929   1.796   0.166
  252TIP3    H1  713   6.886   1.727   0.115
  252TIP3    H2  714   6.867   1.815   0.236
  253TIP3   OH2  715   0.826   3.708   1.892
  253TIP3    H1  716   0.842   3.802   1.890
  253TIP3    H2  717   0.749   3.698   1.948
  254TIP3   OH2  718   0.614   6.290   1.864
  254TIP3    H1  719   0.600   6.202   1.829
  254TIP3    H2  720   0.527   6.331   1.858
  255TIP3   OH2  721   5.691   6.343   1.494
  255TIP3    H1  722   5.728   6.276   1.437
  255TIP3    H2  723   5.696   6.305   1.582
  256TIP3   OH2  724   5.225   2.009   2.394
  256TIP3    H1  725   5.293   1.954   2.434
  256TIP3    H2  726   5.143   1.970   2.423
  257TIP3   OH2  727   7.587   5.986   5.807
  257TIP3    H1  728   7.640   5.933   5.865
  257TIP3    H2  729   7.507   6.005   5.857
  258TIP3   OH2  730   0.503   4.701   4.238
  258TIP3    H1  731   0.494   4.693   4.333
  258TIP3    H2  732   0.471   4.789   4.218
  259TIP3   OH2  733   4.506   1.897   5.390
  259TIP3    H1  734   4.580   1.864   5.441
  259TIP3    H2  735   4.538   1.899   5.299
  260TIP3   OH2  736   5.749   3.178   4.424
  260TIP3    H1  737   5.736   3.127   4.344
  260TIP3    H2  738   5.668   3.228   4.433
  261TIP3   OH2  739   2.351   4.062   6.605
  261TIP3    H1  740   2.336   4.075   6.511
  261TIP3    H2  741   2.396   4.142   6.633
  262TIP3   OH2  742   4.613   7.668   0.179
  262TIP3    H1  743   4.681   7.735   0.190
  262TIP3    H2  744   4.661   7.588   0.160
  263TIP3   OH2  745   4.195   0.929   3.750
  263TIP3    H1  746   4.180   0.837   3.775
  263TIP3    H2  747   4.229   0.970   3.830
  264TIP3   OH2  748   2.457   7.354   4.731
  264TIP3    H1  749   2.373   7.309   4.730
  264TIP3    H2  750   2.436   7.445   4.710
  265TIP3   OH2  751   1.740   5.520   0.444
  265TIP3    H1  752   1.791   5.588   0.488
  265TIP3    H2  753   1.797   5.444   0.442
  266TIP3   OH2  754   6.165   7.639   6.181
  266TIP3    H1  755   6.120   7.559   6.156
  266TIP3    H2  756   6.132   7.659   6.268
  267TIP3   OH2  757   1.737   5.652   0.995
  267TIP3    H1  758   1.657   5.621   0.951
  267TIP3    H2  759   1.707   5.676   1.083
  268TIP3   OH2  760   5.968   2.419   1.532
  268TIP3    H1  761   6.034   2.450   1.471
  268TIP3    H2  762   6.017   2.368   1.597
  269TIP3   OH2  763   7.263   5.719   6.329
  269TIP3    H1  764   7.264   5.655   6.401
  269TIP3    H2  765   7.354   5.724   6.300
  270TIP3   OH2  766   2.939   5.668   1.662
  270TIP3    H1  767   2.857   5.712   1.643
  270TIP3    H2  768   3.000   5.697   1.594
  271TIP3   OH2  769   4.439   3.699   3.784
  271TIP3    H1  770   4.488   3.774   3.750
  271TIP3    H2  771   4.367   3.686   3.722
  272TIP3   OH2  772   1.048   2.744   0.922
  272TIP3    H1  773   1.056   2.835   0.895
  272TIP3    H2  774   1.136   2.717   0.946
  273TIP3   OH2  775   1.666   1.643   1.240
  273TIP3    H1  776   1.757   1.641   1.270
  273TIP3    H2  777   1.653   1.558   1.198
  274TIP3   OH2  778   1.340   6.740   1.801
  274TIP3    H1  779   1.392   6.809   1.760
  274TIP3    H2  780   1.253   6.779   1.812
  275TIP3   OH2  781   1.219   0.542   2.040
  275TIP3    H1  782   1.154   0.491   2.089
  275TIP3    H2  783   1.168   0.612   1.998
  276TIP3   OH2  784   3.896   2.523   0.176
  276TIP3    H1  785   3.944   2.606   0.175
  276TIP3    H2  786   3.805   2.547   0.164
  277TIP3   OH2  787   6.764   1.564   5.844
  277TIP3    H1  788   6.810   1.631   5.793
  277TIP3    H2  789   6.825   1.490   5.845
  278TIP3   OH2  790   7.921   6.263   0.466
  278TIP3    H1  791   7.968   6.341   0.495
  278TIP3    H2  792   7.845   6.258   0.524
  279TIP3   OH2  793   1.063   5.298   3.593
  279TIP3    H1  794   0.981   5.269   3.554
  279TIP3    H2  795   1.103   5.354   3.527
  280TIP3   OH2  796   0.231   2.332   2.268
  280TIP3    H1  797   0.190   2.418   2.266
  280TIP3    H2  798   0.246   2.315   2.361
  281TIP3   OH2  799   3.008   3.265   4.574
  281TIP3    H1  800   2.923   3.285   4.613
  281TIP3    H2  801   3.034   3.182   4.614
  282TIP3   OH2  802   0.645   2.024   3.044
  282TIP3    H1  803   0.606   1.938   3.056
  282TIP3    H2  804   0.698   2.038   3.123
  283TIP3   OH2  805   6.550   3.068   0.614
  283TIP3    H1  806   6.491   3.000   0.647
  283TIP3    H2  807   6.498   3.148   0.616
  284TIP3   OH2  808   0.163   1.517   6.538
  284TIP3    H1  809   0.146   1.426   6.561
  284TIP3    H2  810   0.258   1.526   6.546
  285TIP3   OH2  811   2.685   6.762   1.987
  285TIP3    H1  812   2.756   6.805   1.938
  285TIP3    H2  813   2.648   6.831   2.041
  286TIP3   OH2  814   0.198   4.548   0.464
  286TIP3    H1  815   0.117   4.501   0.482
  286TIP3    H2  816   0.175   4.640   0.468
  287TIP3   OH2  817   4.590   0.599   6.720
  287TIP3    H1  818   4.495   0.611   6.731
  287TIP3    H2  819   4.621   0.684   6.689
  288TIP3   OH2  820   6.088   2.146   5.512
  288TIP3    H1  821   6.007   2.103   5.484
  288TIP3    H2  822   6.089   2.229   5.465
  289TIP3   OH2  823   1.339   0.755   0.927
  289TIP3    H1  824   1.398   0.826   0.951
  289TIP3    H2  825   1.261   0.768   0.980
  290TIP3   OH2  826   6.638   6.907   0.758
  290TIP3    H1  827   6.717   6.867   0.793
  290TIP3    H2  828   6.626   6.867   0.673
  291TIP3   OH2  829   3.552   1.697   1.998
  291TIP3    H1  830   3.461   1.721   2.012
  291TIP3    H2  831   3.579   1.745   1.920
  292TIP3   OH2  832   6.886   2.016   5.446
  292TIP3    H1  833   6.911   2.108   5.456
  292TIP3    H2  834   6.838   2.013   5.364
  293TIP3   OH2  835   1.954   1.090   2.480
  293TIP3    H1  836   1.933   0.999   2.459
  293TIP3    H2  837   1.898   1.141   2.421
  294TIP3   OH2  838   3.278   7.196   3.162
  294TIP3    H1  839   3.188   7.176   3.137
  294TIP3    H2  840   3.282   7.176   3.255
  295TIP3   OH2  841   0.521   5.011   2.788
  295TIP3    H1  842   0.451   5.053   2.838
  295TIP3    H2  843   0.522   5.057   2.704
  296TIP3   OH2  844   1.853   1.915   5.593
  296TIP3    H1  845   1.897   1.913   5.508
  296TIP3    H2  846   1.760   1.915   5.571
  297TIP3   OH2  847   1.834   5.785   2.843
  297TIP3    H1  848   1.833   5.818   2.754
  297TIP3    H2  849   1.801   5.695   2.835
  298TIP3   OH2  850   3.228   6.003   6.061
  298TIP3    H1  851   3.264   6.089   6.085
  298TIP3    H2  852   3.229   5.953   6.143
  299TIP3   OH2  853   1.414   2.964   0.844
  299TIP3    H1  854   1.497   2.941   0.803
  299TIP3    H2  855   1.409   3.060   0.837
  300TIP3   OH2  856   2.854   6.703   1.299
  300TIP3    H1  857   2.773   6.660   1.329
  300TIP3    H2  858   2.889   6.643   1.232
  301TIP3   OH2  859   6.439   2.583   6.396
  301TIP3    H1  860   6.346   2.603   6.382
  301TIP3    H2  861   6.445   2.488   6.386
  302TIP3   OH2  862   7.711   2.025   6.131
  302TIP3    H1  863   7.765   2.103   6.118
  302TIP3    H2  864   7.709   1.983   6.045
  303TIP3   OH2  865   0.868   6.259   0.639
  303TIP3    H1  866   0.790   6.275   0.585
  303TIP3    H2  867   0.932   6.221   0.578
  304TIP3   OH2  868   5.430   5.478   5.026
  304TIP3    H1  869   5.450   5.428   4.947
  304TIP3    H2  870   5.493   5.550   5.026
  305TIP3   OH2  871   6.971   2.870   0.412
  305TIP3    H1  872   7.012   2.924   0.344
  305TIP3    H2  873   6.883   2.905   0.421
  306TIP3   OH2  874   0.894   1.318   2.023
  306TIP3    H1  875   0.941   1.309   2.106
  306TIP3    H2  876   0.872   1.410   2.017
  307TIP3   OH2  877   0.824   2.295   6.114
  307TIP3    H1  878   0.876   2.317   6.191
  307TIP3    H2  879   0.734   2.296   6.145
  308TIP3   OH2  880   7.926   3.783   2.464
  308TIP3    H1  881   8.007   3.749   2.427
  308TIP3    H2  882   7.858   3.752   2.405
  309TIP3   OH2  883   5.036   4.224   2.417
  309TIP3    H1  884   5.121   4.234   2.375
  309TIP3    H2  885   5.018   4.130   2.412
  310TIP3   OH2  886   2.313   4.393   5.122
  310TIP3    H1  887   2.311   4.474   5.071
  310TIP3    H2  888   2.386   4.344   5.085
  311TIP3   OH2  889   0.598   4.160   0.707
  311TIP3    H1  890   0.665   4.108   0.751
  311TIP3    H2  891   0.606   4.247   0.746
  312TIP3   OH2  892   1.176   4.510   0.907
  312TIP3    H1  893   1.230   4.455   0.963
  312TIP3    H2  894   1.196   4.599   0.933
  313TIP3   OH2  895   7.395   0.785   6.217
  313TIP3    H1  896   7.483   0.780   6.181
  313TIP3    H2  897   7.401   0.850   6.287
  314TIP3   OH2  898   1.863   0.805   0.052
  314TIP3    H1  899   1.775   0.839   0.041
  314TIP3    H2  900   1.861   0.760   0.137
  315TIP3   OH2  901   1.191   2.469   4.212
  315TIP3    H1  902   1.234   2.517   4.283
  315TIP3    H2  903   1.130   2.532   4.173
  316TIP3   OH2  904   7.105   4.787   5.988
  316TIP3    H1  905   7.035   4.752   5.933
  316TIP3    H2  906   7.081   4.761   6.077
  317TIP3   OH2  907   1.362   4.489   5.818
  317TIP3    H1  908   1.312   4.486   5.900
  317TIP3    H2  909   1.407   4.405   5.814
  318TIP3   OH2  910   2.702   5.511   3.101
  318TIP3    H1  911   2.676   5.439   3.159
  318TIP3    H2  912   2.639   5.508   3.029
  319TIP3   OH2  913   4.083   1.128   4.987
  319TIP3    H1  914   4.119   1.041   4.971
  319TIP3    H2  915   4.092   1.174   4.904
  320TIP3   OH2  916   7.783   2.252   0.733
  320TIP3    H1  917   7.746   2.167   0.708
  320TIP3    H2  918   7.735   2.315   0.679
  321TIP3   OH2  919   6.201   1.385   4.821
  321TIP3    H1  920   6.225   1.390   4.729
  321TIP3    H2  921   6.225   1.297   4.848
  322TIP3   OH2  922   8.024   6.172   1.524
  322TIP3    H1  923   7.961   6.163   1.452
  322TIP3    H2  924   8.059   6.261   1.514
  323TIP3   OH2  925   1.347   4.741   4.707
  323TIP3    H1  926   1.415   4.770   4.645
  323TIP3    H2  927   1.395   4.720   4.787
  324TIP3   OH2  928   2.228   5.237   0.357
  324TIP3    H1  929   2.303   5.268   0.409
  324TIP3    H2  930   2.263   5.230   0.268
  325TIP3   OH2  931   3.222   3.969   2.618
  325TIP3    H1  932   3.290   3.908   2.587
  325TIP3    H2  933   3.267   4.022   2.684
  326TIP3   OH2  934   1.277   5.277   3.946
  326TIP3    H1  935   1.318   5.213   3.888
  326TIP3    H2  936   1.264   5.354   3.890
  327TIP3   OH2  937   7.771   3.032   5.729
  327TIP3    H1  938   7.745   3.121   5.704
  327TIP3    H2  939   7.765   2.982   5.647
  328TIP3   OH2  940   2.118   4.373   6.676
  328TIP3    H1  941   2.149   4.300   6.729
  328TIP3    H2  942   2.072   4.430   6.738
  329TIP3   OH2  943  -0.005   7.269   5.264
  329TIP3    H1  944   0.071   7.320   5.235
  329TIP3    H2  945   0.025   7.179   5.266
  330TIP3   OH2  946   3.969   6.859   3.415
  330TIP3    H1  947   3.932   6.899   3.336
  330TIP3    H2  948   3.901   6.800   3.447
  331TIP3   OH2  949   6.401   6.224   6.263
  331TIP3    H1  950   6.443   6.170   6.330
  331TIP3    H2  951   6.443   6.310   6.273
  332TIP3   OH2  952   1.759   7.816   6.245
  332TIP3    H1  953   1.758   7.722   6.262
  332TIP3    H2  954   1.709   7.853   6.317
  333TIP3   OH2  955   1.034   0.600   0.877
  333TIP3    H1  956   1.069   0.661   0.812
  333TIP3    H2  957   1.021   0.518   0.829
  334TIP3   OH2  958   6.178   1.524   3.605
  334TIP3    H1  959   6.238   1.560   3.540
  334TIP3    H2  960   6.144   1.600   3.651
  335TIP3   OH2  961   8.106   2.861   5.702
  335TIP3    H1  962   8.133   2.924   5.635
  335TIP3    H2  963   8.188   2.822   5.732
  336TIP3   OH2  964   7.878   1.258   4.902
  336TIP3    H1  965   7.862   1.335   4.848
  336TIP3    H2  966   7.926   1.198   4.844
  337TIP3   OH2  967   2.421   2.558   0.331
  337TIP3    H1  968   2.372   2.611   0.394
  337TIP3    H2  969   2.355   2.528   0.269
  338TIP3   OH2  970   8.018   5.229   2.531
  338TIP3    H1  971   7.989   5.321   2.531
  338TIP3    H2  972   8.038   5.211   2.440
  339TIP3   OH2  973   1.061   6.831   1.148
  339TIP3    H1  974   1.008   6.755   1.125
  339TIP3    H2  975   1.150   6.797   1.154
  340TIP3   OH2  976   8.274   2.397   4.229
  340TIP3    H1  977   8.231   2.472   4.270
  340TIP3    H2  978   8.325   2.434   4.157
  341TIP3   OH2  979   1.017   5.968   6.411
  341TIP3    H1  980   0.934   5.937   6.377
  341TIP3    H2  981   1.067   5.993   6.334
  342TIP3   OH2  982   6.995   4.477   1.641
  342TIP3    H1  983   6.948   4.410   1.592
  342TIP3    H2  984   7.050   4.428   1.702
  343TIP3   OH2  985   6.746   3.567   5.606
  343TIP3    H1  986   6.821   3.514   5.580
  343TIP3    H2  987   6.758   3.582   5.700
  344TIP3   OH2  988   0.017   5.368   4.419
  344TIP3    H1  989   0.097   5.346   4.468
  344TIP3    H2  990  -0.047   5.303   4.446
  345TIP3   OH2  991   6.928   0.115   5.883
  345TIP3    H1  992   6.925   0.170   5.805
  345TIP3    H2  993   6.854   0.145   5.936
  346TIP3   OH2  994   0.633   2.386   2.616
  346TIP3    H1  995   0.660   2.363   2.527
  346TIP3    H2  996   0.538   2.377   2.616
  347TIP3   OH2  997   0.549   6.927   2.936
  347TIP3    H1  998   0.518   6.901   2.849
  347TIP3    H2  999   0.475   6.909   2.994
  348TIP3   OH2 1000   0.821   7.213   0.994
  348TIP3    H1 1001   0.816   7.146   1.061
  348TIP3    H2 1002   0.914   7.216   0.970
  349TIP3   OH2 1003   6.091   1.929   6.152
  349TIP3    H1 1004   6.025   1.978   6.103
  349TIP3    H2 1005   6.094   1.843   6.110
  350TIP3   OH2 1006   1.174   5.809   5.546
  350TIP3    H1 1007   1.254   5.827   5.596
  350TIP3    H2 1008   1.155   5.718   5.564
  351TIP3   OH2 1009   6.847   5.298   4.839
  351TIP3    H1 1010   6.801   5.214   4.831
  351TIP3    H2 1011   6.940   5.273   4.847
  352TIP3   OH2 1012   6.948   6.495   1.581
  352TIP3    H1 1013   7.002   6.562   1.539
  352TIP3    H2 1014   6.944   6.521   1.673
  353TIP3   OH2 1015   4.744   5.038   4.139
  353TIP3    H1 1016   4.773   5.058   4.228
  353TIP3    H2 1017   4.815   5.068   4.083
  354TIP3   OH2 1018   6.580   3.118   4.297
  354TIP3    H1 1019   6.618   3.122   4.209
  354TIP3    H2 1020   6.530   3.199   4.305
  355TIP3   OH2 1021   0.664   2.689   3.666
  355TIP3    H1 1022   0.674   2.687   3.761
  355TIP3    H2 1023   0.751   2.709   3.633
  356TIP3   OH2 1024   1.963   0.251   4.011
  356TIP3    H1 1025   2.008   0.335   4.022
  356TIP3    H2 1026   1.884   0.273   3.962
  357TIP3   OH2 1027   3.519   7.274   6.241
  357TIP3    H1 1028   3.524   7.356   6.290
  357TIP3    H2 1029   3.486   7.211   6.304
  358TIP3   OH2 1030   6.179   2.322   3.432
  358TIP3    H1 1031   6.093   2.317   3.390
  358TIP3    H2 1032   6.189   2.414   3.457
  359TIP3   OH2 1033   3.530   4.479   3.362
  359TIP3    H1 1034   3.588   4.554   3.352
  359TIP3    H2 1035   3.497   4.486   3.452
  360TIP3   OH2 1036   7.537   6.946   4.110
  360TIP3    H1 1037   7.494   7.024   4.075
  360TIP3    H2 1038   7.619   6.979   4.147
  361TIP3   OH2 1039   8.121   3.269   6.544
  361TIP3    H1 1040   8.031   3.299   6.529
  361TIP3    H2 1041   8.113   3.209   6.618
  362TIP3   OH2 1042   4.626   4.541   5.290
  362TIP3    H1 1043   4.648   4.588   5.210
  362TIP3    H2 1044   4.711   4.523   5.332
  363TIP3   OH2 1045   4.979   3.090   1.766
  363TIP3    H1 1046   4.998   3.150   1.838
  363TIP3    H2 1047   5.059   3.038   1.757
  364TIP3   OH2 1048   4.340   7.717   6.333
  364TIP3    H1 1049   4.404   7.752   6.395
  364TIP3    H2 1050   4.358   7.762   6.251
  365TIP3   OH2 1051   5.329   7.315   1.887
  365TIP3    H1 1052   5.287   7.238   1.848
  365TIP3    H2 1053   5.390   7.345   1.820
  366TIP3   OH2 1054   6.610   3.458   6.479
  366TIP3    H1 1055   6.690   3.509   6.490
  366TIP3    H2 1056   6.596   3.416   6.564
  367TIP3   OH2 1057   2.197   5.224   5.177
  367TIP3    H1 1058   2.267   5.289   5.168
  367TIP3    H2 1059   2.185   5.216   5.272
  368TIP3   OH2 1060   5.680   4.289   1.998
  368TIP3    H1 1061   5.595   4.281   2.041
  368TIP3    H2 1062   5.660   4.287   1.904
  369TIP3   OH2 1063   0.245   1.181   0.961
  369TIP3    H1 1064   0.281   1.209   0.877
  369TIP3    H2 1065   0.157   1.220   0.963
  370TIP3   OH2 1066   1.878   1.643   1.499
  370TIP3    H1 1067   1.898   1.647   1.405
  370TIP3    H2 1068   1.963   1.634   1.541
  371TIP3   OH2 1069   3.491   5.073   3.586
  371TIP3    H1 1070   3.430   5.063   3.659
  371TIP3    H2 1071   3.436   5.093   3.511
  372TIP3   OH2 1072   5.892   6.776   5.477
  372TIP3    H1 1073   5.935   6.737   5.401
  372TIP3    H2 1074   5.828   6.710   5.504
  373TIP3   OH2 1075   8.145   3.091   1.605
  373TIP3    H1 1076   8.166   3.008   1.647
  373TIP3    H2 1077   8.116   3.148   1.676
  374TIP3   OH2 1078   1.028   7.621   6.152
  374TIP3    H1 1079   0.973   7.559   6.201
  374TIP3    H2 1080   0.966   7.681   6.111
  375TIP3   OH2 1081   2.101   7.500   1.628
  375TIP3    H1 1082   2.104   7.452   1.545
  375TIP3    H2 1083   2.030   7.458   1.677
  376TIP3   OH2 1084   7.056   2.065   0.900
  376TIP3    H1 1085   7.082   2.088   0.811
  376TIP3    H2 1086   7.139   2.059   0.948
  377TIP3   OH2 1087   0.260   1.294   2.288
  377TIP3    H1 1088   0.220   1.357   2.347
  377TIP3    H2 1089   0.236   1.324   2.200
  378TIP3   OH2 1090   6.819   7.135   5.304
  378TIP3    H1 1091   6.877   7.061   5.286
  378TIP3    H2 1092   6.731   7.101   5.285
  379TIP3   OH2 1093   6.645   4.771   3.109
  379TIP3    H1 1094   6.688   4.845   3.067
  379TIP3    H2 1095   6.616   4.716   3.036
  380TIP3   OH2 1096   4.362   3.085   4.318
  380TIP3    H1 1097   4.452   3.073   4.348
  380TIP3    H2 1098   4.309   3.071   4.396
  381TIP3   OH2 1099   3.064   1.100   4.342
  381TIP3    H1 1100   3.155   1.074   4.352
  381TIP3    H2 1101   3.059   1.186   4.384
  382TIP3   OH2 1102   6.855   7.680   0.803
  382TIP3    H1 1103   6.795   7.607   0.786
  382TIP3    H2 1104   6.928   7.666   0.744
  383TIP3   OH2 1105   7.768   0.404   2.289
  383TIP3    H1 1106   7.756   0.309   2.298
  383TIP3    H2 1107   7.849   0.423   2.335
  384TIP3   OH2 1108   4.341   5.870   3.114
  384TIP3    H1 1109   4.350   5.932   3.042
  384TIP3    H2 1110   4.333   5.925   3.192
  385TIP3   OH2 1111   7.626   2.701   2.954
  385TIP3    H1 1112   7.709   2.722   2.997
  385TIP3    H2 1113   7.626   2.753   2.874
  386TIP3   OH2 1114   1.283   7.525   5.017
  386TIP3    H1 1115   1.195   7.493   5.037
  386TIP3    H2 1116   1.313   7.564   5.099
  387TIP3   OH2 1117   3.066   7.013   4.291
  387TIP3    H1 1118   3.047   6.922   4.317
  387TIP3    H2 1119   2.990   7.062   4.319
  388TIP3   OH2 1120   1.358   7.006   1.714
  388TIP3    H1 1121   1.396   7.048   1.791
  388TIP3    H2 1122   1.271   6.977   1.743
  389TIP3   OH2 1123   0.967   1.589   2.311
  389TIP3    H1 1124   1.018   1.546   2.243
  389TIP3    H2 1125   0.953   1.678   2.279
  390TIP3   OH2 1126   6.526   4.771   2.264
  390TIP3    H1 1127   6.598   4.713   2.242
  390TIP3    H2 1128   6.535   4.846   2.205
  391TIP3   OH2 1129   4.341   4.106   1.888
  391TIP3    H1 1130   4.309   4.061   1.810
  391TIP3    H2 1131   4.286   4.073   1.959
  392TIP3   OH2 1132   3.146   6.380   3.666
  392TIP3    H1 1133   3.068   6.345   3.623
  392TIP3    H2 1134   3.154   6.329   3.746
  393TIP3   OH2 1135   1.436   4.936   4.146
  393TIP3    H1 1136   1.474   4.848   4.137
  393TIP3    H2 1137   1.399   4.955   4.060
  394TIP3   OH2 1138   0.326   4.800   6.175
  394TIP3    H1 1139   0.395   4.854   6.137
  394TIP3    H2 1140   0.327   4.720   6.123
  395TIP3   OH2 1141   7.282   1.199   5.892
  395TIP3    H1 1142   7.361   1.247   5.868
  395TIP3    H2 1143   7.285   1.119   5.839
  396TIP3   OH2 1144   6.979   4.798   6.483
  396TIP3    H1 1145   7.064   4.767   6.514
  396TIP3    H2 1146   6.972   4.888   6.516
  397TIP3   OH2 1147   0.417   4.391   0.864
  397TIP3    H1 1148   0.400   4.483   0.885
  397TIP3    H2 1149   0.512   4.387   0.853
  398TIP3   OH2 1150   4.108   1.664   1.528
  398TIP3    H1 1151   4.105   1.740   1.469
  398TIP3    H2 1152   4.178   1.685   1.590
  399TIP3   OH2 1153   2.298   4.513   0.039
  399TIP3    H1 1154   2.352   4.591   0.022
  399TIP3    H2 1155   2.213   4.548   0.066
  400TIP3   OH2 1156   2.356   0.161   0.596
  400TIP3    H1 1157   2.375   0.071   0.622
  400TIP3    H2 1158   2.294   0.152   0.523
  401TIP3   OH2 1159   5.023   1.796   2.978
  401TIP3    H1 1160   5.093   1.834   2.924
  401TIP3    H2 1161   4.943   1.810   2.927
  402TIP3   OH2 1162   1.212   0.869   5.658
  402TIP3    H1 1163   1.209   0.859   5.563
  402TIP3    H2 1164   1.301   0.845   5.682
  403TIP3   OH2 1165   4.688   1.972   2.562
  403TIP3    H1 1166   4.686   2.045   2.501
  403TIP3    H2 1167   4.658   2.009   2.645
  404TIP3   OH2 1168   1.991   7.502   6.413
  404TIP3    H1 1169   2.043   7.574   6.376
  404TIP3    H2 1170   2.034   7.481   6.495
  405TIP3   OH2 1171   2.995   7.762   5.811
  405TIP3    H1 1172   2.928   7.763   5.879
  405TIP3    H2 1173   2.993   7.674   5.775
  406TIP3   OH2 1174   1.080   3.566   0.595
  406TIP3    H1 1175   1.020   3.494   0.578
  406TIP3    H2 1176   1.043   3.640   0.548
  407TIP3   OH2 1177   3.128   0.640   0.331
  407TIP3    H1 1178   3.152   0.566   0.388
  407TIP3    H2 1179   3.064   0.603   0.270
  408TIP3   OH2 1180   7.803   7.511   4.359
  408TIP3    H1 1181   7.753   7.591   4.348
  408TIP3    H2 1182   7.875   7.535   4.418
  409TIP3   OH2 1183   6.678   5.431   4.097
  409TIP3    H1 1184   6.750   5.385   4.140
  409TIP3    H2 1185   6.668   5.513   4.146
  410TIP3   OH2 1186   2.411   5.871   1.029
  410TIP3    H1 1187   2.343   5.922   0.984
  410TIP3    H2 1188   2.368   5.838   1.107
  411TIP3   OH2 1189   6.829   5.043   4.710
  411TIP3    H1 1190   6.772   4.988   4.765
  411TIP3    H2 1191   6.784   5.046   4.625
  412TIP3   OH2 1192   2.241   6.706   0.512
  412TIP3    H1 1193   2.210   6.792   0.483
  412TIP3    H2 1194   2.170   6.646   0.491
  413TIP3   OH2 1195   3.205   4.424   6.386
  413TIP3    H1 1196   3.112   4.436   6.369
  413TIP3    H2 1197   3.247   4.499   6.343
  414TIP3   OH2 1198   4.156   4.615   4.546
  414TIP3    H1 1199   4.202   4.533   4.563
  414TIP3    H2 1200   4.128   4.608   4.455
  415TIP3   OH2 1201   2.916   7.254   1.905
  415TIP3    H1 1202   2.910   7.172   1.954
  415TIP3    H2 1203   2.830   7.266   1.867
  416TIP3   OH2 1204   2.745   2.001   4.192
  416TIP3    H1 1205   2.670   1.995   4.250
  416TIP3    H2 1206   2.805   1.933   4.222
  417TIP3   OH2 1207   1.754   6.356   0.761
  417TIP3    H1 1208   1.809   6.307   0.700
  417TIP3    H2 1209   1.666   6.352   0.723
  418TIP3   OH2 1210   5.853   0.500   2.470
  418TIP3    H1 1211   5.902   0.426   2.433
  418TIP3    H2 1212   5.873   0.498   2.563
  419TIP3   OH2 1213   3.989   1.860   4.405
  419TIP3    H1 1214   4.038   1.812   4.472
  419TIP3    H2 1215   3.947   1.932   4.453
  420TIP3   OH2 1216   7.120   6.800   3.584
  420TIP3    H1 1217   7.111   6.862   3.512
  420TIP3    H2 1218   7.183   6.841   3.644
  421TIP3   OH2 1219   7.021   6.935   2.354
  421TIP3    H1 1220   7.090   6.896   2.408
  421TIP3    H2 1221   6.946   6.943   2.414
  422TIP3   OH2 1222   1.998   3.178   5.734
  422TIP3    H1 1223   2.045   3.152   5.655
  422TIP3    H2 1224   2.056   3.154   5.806
  423TIP3   OH2 1225   6.341   0.241   0.076
  423TIP3    H1 1226   6.304   0.160   0.112
  423TIP3    H2 1227   6.311   0.241  -0.015
  424TIP3   OH2 1228   5.515   3.398   1.287
  424TIP3    H1 1229   5.464   3.324   1.255
  424TIP3    H2 1230   5.470   3.475   1.252
  425TIP3   OH2 1231   1.848   5.707   2.527
  425TIP3    H1 1232   1.835   5.800   2.545
  425TIP3    H2 1233   1.930   5.703   2.478
  426TIP3   OH2 1234   4.771   7.725   6.748
  426TIP3    H1 1235   4.746   7.640   6.714
  426TIP3    H2 1236   4.816   7.768   6.675
  427TIP3   OH2 1237   1.064   5.860   2.635
  427TIP3    H1 1238   1.083   5.904   2.718
  427TIP3    H2 1239   1.118   5.781   2.636
  428TIP3   OH2 1240   2.155   5.139   4.501
  428TIP3    H1 1241   2.226   5.202   4.514
  428TIP3    H2 1242   2.116   5.129   4.588
  429TIP3   OH2 1243   6.550   2.756   0.941
  429TIP3    H1 1244   6.477   2.812   0.967
  429TIP3    H2 1245   6.595   2.735   1.022
  430TIP3   OH2 1246   7.775   7.423   5.177
  430TIP3    H1 1247   7.838   7.361   5.214
  430TIP3    H2 1248   7.700   7.369   5.152
  431TIP3   OH2 1249   7.463   1.810   0.602
  431TIP3    H1 1250   7.534   1.756   0.636
  431TIP3    H2 1251   7.469   1.892   0.653
  432TIP3   OH2 1252   8.223   3.914   0.453
  432TIP3    H1 1253   8.178   3.846   0.504
  432TIP3    H2 1254   8.214   3.993   0.505
  433TIP3   OH2 1255   2.858   0.211   6.070
  433TIP3    H1 1256   2.870   0.215   6.165
  433TIP3    H2 1257   2.847   0.302   6.043
  434TIP3   OH2 1258   1.634   3.683   3.414
  434TIP3    H1 1259   1.676   3.756   3.459
  434TIP3    H2 1260   1.630   3.613   3.480
  435TIP3   OH2 1261   4.383   1.673   2.892
  435TIP3    H1 1262   4.418   1.588   2.917
  435TIP3    H2 1263   4.290   1.657   2.874
  436TIP3   OH2 1264   2.299   3.952   2.016
  436TIP3    H1 1265   2.239   4.019   1.983
  436TIP3    H2 1266   2.285   3.953   2.111
  437TIP3   OH2 1267   5.354   7.498   2.154
  437TIP3    H1 1268   5.323   7.463   2.237
  437TIP3    H2 1269   5.333   7.431   2.089
  438TIP3   OH2 1270   0.997   3.676   5.353
  438TIP3    H1 1271   0.920   3.660   5.407
  438TIP3    H2 1272   1.066   3.700   5.416
  439TIP3   OH2 1273   3.426   1.061   2.047
  439TIP3    H1 1274   3.414   1.150   2.013
  439TIP3    H2 1275   3.420   1.070   2.142
  440TIP3   OH2 1276   6.979   4.376   0.874
  440TIP3    H1 1277   6.988   4.410   0.785
  440TIP3    H2 1278   7.037   4.301   0.878
  441TIP3   OH2 1279   7.342   1.321   6.406
  441TIP3    H1 1280   7.427   1.279   6.393
  441TIP3    H2 1281   7.314   1.293   6.493
  442TIP3   OH2 1282   8.260   4.054   5.469
  442TIP3    H1 1283   8.336   4.032   5.415
  442TIP3    H2 1284   8.186   4.051   5.408
  443TIP3   OH2 1285   3.169   5.651   1.805
  443TIP3    H1 1286   3.086   5.672   1.763
  443TIP3    H2 1287   3.225   5.726   1.784
  444TIP3   OH2 1288   4.098   6.635   5.855
  444TIP3    H1 1289   4.115   6.700   5.923
  444TIP3    H2 1290   4.065   6.685   5.781
  445TIP3   OH2 1291   6.814   6.994   2.030
  445TIP3    H1 1292   6.846   7.077   2.065
  445TIP3    H2 1293   6.888   6.934   2.040
  446TIP3   OH2 1294   3.899   6.220   4.501
  446TIP3    H1 1295   3.942   6.136   4.483
  446TIP3    H2 1296   3.813   6.196   4.536
  447TIP3   OH2 1297   0.588   2.332   4.875
  447TIP3    H1 1298   0.660   2.385   4.908
  447TIP3    H2 1299   0.525   2.329   4.947
  448TIP3   OH2 1300   2.620   6.965   0.844
  448TIP3    H1 1301   2.708   6.966   0.806
  448TIP3    H2 1302   2.608   7.053   0.878
  449TIP3   OH2 1303   8.054   1.725   0.818
  449TIP3    H1 1304   8.084   1.793   0.758
  449TIP3    H2 1305   8.053   1.645   0.765
  450TIP3   OH2 1306   1.328   1.078   5.228
  450TIP3    H1 1307   1.334   1.055   5.135
  450TIP3    H2 1308   1.241   1.117   5.237
  451TIP3   OH2 1309   2.704   6.704   3.602
  451TIP3    H1 1310   2.656   6.647   3.661
  451TIP3    H2 1311   2.778   6.736   3.654
  452TIP3   OH2 1312   6.398   1.705   2.796
  452TIP3    H1 1313   6.418   1.739   2.884
  452TIP3    H2 1314   6.429   1.615   2.798
  453TIP3   OH2 1315   1.586   0.293   2.533
  453TIP3    H1 1316   1.550   0.281   2.445
  453TIP3    H2 1317   1.607   0.386   2.539
  454TIP3   OH2 1318   7.082   5.962   2.776
  454TIP3    H1 1319   7.086   5.866   2.771
  454TIP3    H2 1320   7.074   5.981   2.869
  455TIP3   OH2 1321   4.351   2.821   2.024
  455TIP3    H1 1322   4.308   2.879   2.087
  455TIP3    H2 1323   4.444   2.824   2.049
  456TIP3   OH2 1324   0.362   4.652   0.931
  456TIP3    H1 1325   0.268   4.652   0.949
  456TIP3    H2 1326   0.400   4.709   0.998
  457TIP3   OH2 1327   4.955   7.485   6.543
  457TIP3    H1 1328   4.948   7.550   6.473
  457TIP3    H2 1329   4.968   7.537   6.622
  458TIP3   OH2 1330   4.176   1.600   5.670
  458TIP3    H1 1331   4.180   1.695   5.679
  458TIP3    H2 1332   4.099   1.574   5.721
  459TIP3   OH2 1333   3.672   2.478   3.246
  459TIP3    H1 1334   3.589   2.527   3.243
  459TIP3    H2 1335   3.709   2.500   3.332
  460TIP3   OH2 1336   3.619   7.275   0.134
  460TIP3    H1 1337   3.582   7.310   0.215
  460TIP3    H2 1338   3.713   7.266   0.153
  461TIP3   OH2 1339   5.263   7.504   2.887
  461TIP3    H1 1340   5.327   7.442   2.853
  461TIP3    H2 1341   5.289   7.589   2.851
  462TIP3   OH2 1342   4.647   2.417   4.456
  462TIP3    H1 1343   4.689   2.489   4.503
  462TIP3    H2 1344   4.720   2.365   4.422
  463TIP3   OH2 1345   0.789   0.191   5.823
  463TIP3    H1 1346   0.753   0.262   5.877
  463TIP3    H2 1347   0.822   0.127   5.886
  464TIP3   OH2 1348   7.050   6.456   6.115
  464TIP3    H1 1349   7.110   6.514   6.069
  464TIP3    H2 1350   6.986   6.430   6.048
  465TIP3   OH2 1351   7.629   1.614   5.580
  465TIP3    H1 1352   7.582   1.636   5.661
  465TIP3    H2 1353   7.691   1.685   5.568
  466TIP3   OH2 1354   1.514   7.235   6.406
  466TIP3    H1 1355   1.490   7.145   6.388
  466TIP3    H2 1356   1.557   7.264   6.325
  467TIP3   OH2 1357   1.182   1.038   1.886
  467TIP3    H1 1358   1.251   1.010   1.946
  467TIP3    H2 1359   1.108   0.982   1.906
  468TIP3   OH2 1360   0.572   5.202   1.713
  468TIP3    H1 1361   0.637   5.271   1.695
  468TIP3    H2 1362   0.538   5.178   1.627
  469TIP3   OH2 1363   0.483   4.586   6.485
  469TIP3    H1 1364   0.473   4.597   6.580
  469TIP3    H2 1365   0.567   4.628   6.465
  470TIP3   OH2 1366   5.205   6.276   0.686
  470TIP3    H1 1367   5.220   6.302   0.777
  470TIP3    H2 1368   5.195   6.181   0.689
  471TIP3   OH2 1369   0.938   4.246   1.127
  471TIP3    H1 1370   0.999   4.304   1.174
  471TIP3    H2 1371   0.943   4.275   1.036
  472TIP3   OH2 1372   5.518   0.132   5.214
  472TIP3    H1 1373   5.553   0.205   5.265
  472TIP3    H2 1374   5.489   0.069   5.279
  473TIP3   OH2 1375   6.675   3.861   2.850
  473TIP3    H1 1376   6.710   3.800   2.785
  473TIP3    H2 1377   6.715   3.945   2.828
  474TIP3   OH2 1378   4.186   5.263   3.757
  474TIP3    H1 1379   4.252   5.329   3.777
  474TIP3    H2 1380   4.193   5.198   3.827
  475TIP3   OH2 1381   0.000   4.763   3.335
  475TIP3    H1 1382   0.051   4.756   3.254
  475TIP3    H2 1383   0.050   4.825   3.388
  476TIP3   OH2 1384   1.020   3.238   5.591
  476TIP3    H1 1385   0.964   3.257   5.515
  476TIP3    H2 1386   1.073   3.163   5.563
  477TIP3   OH2 1387   2.041   1.037   6.341
  477TIP3    H1 1388   2.097   0.962   6.363
  477TIP3    H2 1389   1.970   0.999   6.291
  478TIP3   OH2 1390   1.850   7.870   1.493
  478TIP3    H1 1391   1.861   7.778   1.468
  478TIP3    H2 1392   1.910   7.883   1.566
  479TIP3   OH2 1393   1.144   5.338   2.585
  479TIP3    H1 1394   1.217   5.287   2.550
  479TIP3    H2 1395   1.067   5.304   2.541
  480TIP3   OH2 1396   0.661   4.352   3.895
  480TIP3    H1 1397   0.637   4.445   3.890
  480TIP3    H2 1398   0.588   4.312   3.943
  481TIP3   OH2 1399   5.407   3.078   0.214
  481TIP3    H1 1400   5.325   3.075   0.164
  481TIP3    H2 1401   5.459   3.006   0.180
  482TIP3   OH2 1402   2.296   0.936   2.492
  482TIP3    H1 1403   2.361   0.867   2.500
  482TIP3    H2 1404   2.343   1.016   2.517
  483TIP3   OH2 1405   4.262   7.091   1.512
  483TIP3    H1 1406   4.308   7.152   1.570
  483TIP3    H2 1407   4.277   7.005   1.549
  484TIP3   OH2 1408   6.485   2.809   6.207
  484TIP3    H1 1409   6.548   2.772   6.145
  484TIP3    H2 1410   6.479   2.744   6.277
  485TIP3   OH2 1411   3.510   7.081   5.238
  485TIP3    H1 1412   3.568   7.060   5.312
  485TIP3    H2 1413   3.433   7.026   5.251
  486TIP3   OH2 1414   0.370   0.973   3.118
  486TIP3    H1 1415   0.356   0.956   3.025
  486TIP3    H2 1416   0.369   0.886   3.159
  487TIP3   OH2 1417   4.116   0.093   6.079
  487TIP3    H1 1418   4.130   0.050   5.995
  487TIP3    H2 1419   4.201   0.129   6.102
  488TIP3   OH2 1420   6.063   2.769   3.737
  488TIP3    H1 1421   6.100   2.839   3.683
  488TIP3    H2 1422   5.994   2.812   3.788
  489TIP3   OH2 1423   1.776   0.505   1.241
  489TIP3    H1 1424   1.796   0.412   1.251
  489TIP3    H2 1425   1.709   0.508   1.173
  490TIP3   OH2 1426   2.661   0.573   1.647
  490TIP3    H1 1427   2.707   0.657   1.646
  490TIP3    H2 1428   2.573   0.595   1.675
  491TIP3   OH2 1429   7.635   7.513   1.996
  491TIP3    H1 1430   7.658   7.579   2.061
  491TIP3    H2 1431   7.646   7.557   1.912
  492TIP3   OH2 1432   7.011   0.198   2.002
  492TIP3    H1 1433   7.046   0.280   2.037
  492TIP3    H2 1434   6.975   0.223   1.916
  493TIP3   OH2 1435   1.461   7.167   1.921
  493TIP3    H1 1436   1.468   7.257   1.952
  493TIP3    H2 1437   1.391   7.129   1.973
  494TIP3   OH2 1438   2.126   7.424   6.661
  494TIP3    H1 1439   2.201   7.476   6.690
  494TIP3    H2 1440   2.165   7.350   6.614
  495TIP3   OH2 1441   3.130   1.745   1.371
  495TIP3    H1 1442   3.158   1.683   1.439
  495TIP3    H2 1443   3.109   1.690   1.296
  496TIP3   OH2 1444   1.563   3.613   6.170
  496TIP3    H1 1445   1.603   3.628   6.256
  496TIP3    H2 1446   1.576   3.520   6.154
  497TIP3   OH2 1447   5.501   2.329   2.121
  497TIP3    H1 1448   5.531   2.386   2.192
  497TIP3    H2 1449   5.524   2.377   2.041
  498TIP3   OH2 1450   6.981   0.173   1.698
  498TIP3    H1 1451   6.939   0.176   1.612
  498TIP3    H2 1452   7.044   0.245   1.697
  499TIP3   OH2 1453   5.615   4.981   5.665
  499TIP3    H1 1454   5.615   4.891   5.698
  499TIP3    H2 1455   5.626   5.035   5.743
  500TIP3   OH2 1456   0.931   4.227   3.898
  500TIP3    H1 1457   0.898   4.138   3.887
  500TIP3    H2 1458   0.858   4.284   3.871
  501TIP3   OH2 1459   6.780   0.873   1.908
  501TIP3    H1 1460   6.713   0.920   1.858
  501TIP3    H2 1461   6.740   0.788   1.928
  502TIP3   OH2 1462   0.487   7.690   3.005
  502TIP3    H1 1463   0.415   7.700   3.067
  502TIP3    H2 1464   0.526   7.777   2.999
  503TIP3   OH2 1465   5.453   0.176   4.179
  503TIP3    H1 1466   5.428   0.173   4.271
  503TIP3    H2 1467   5.378   0.218   4.136
  504TIP3   OH2 1468   5.413   4.665   3.901
  504TIP3    H1 1469   5.394   4.705   3.816
  504TIP3    H2 1470   5.484   4.602   3.883
  505TIP3   OH2 1471   1.126   0.617   6.506
  505TIP3    H1 1472   1.204   0.667   6.484
  505TIP3    H2 1473   1.138   0.594   6.598
  506TIP3   OH2 1474   5.498   1.603   1.141
  506TIP3    H1 1475   5.454   1.681   1.107
  506TIP3    H2 1476   5.515   1.623   1.233
  507TIP3   OH2 1477   3.287   1.745   2.118
  507TIP3    H1 1478   3.354   1.740   2.186
  507TIP3    H2 1479   3.213   1.790   2.159
  508TIP3   OH2 1480   2.991   0.412   4.718
  508TIP3    H1 1481   3.083   0.396   4.739
  508TIP3    H2 1482   2.943   0.355   4.778
  509TIP3   OH2 1483   6.383   6.266   5.971
  509TIP3    H1 1484   6.399   6.294   6.062
  509TIP3    H2 1485   6.311   6.322   5.942
  510TIP3   OH2 1486   7.148   0.415   1.317
  510TIP3    H1 1487   7.139   0.418   1.221
  510TIP3    H2 1488   7.068   0.371   1.347
  511TIP3   OH2 1489   3.705   0.308   3.981
  511TIP3    H1 1490   3.793   0.271   3.985
  511TIP3    H2 1491   3.654   0.244   3.932
  512TIP3   OH2 1492   1.318   7.142   1.432
  512TIP3    H1 1493   1.324   7.223   1.482
  512TIP3    H2 1494   1.312   7.073   1.498
  513TIP3   OH2 1495   5.743   2.059   3.064
  513TIP3    H1 1496   5.690   2.040   3.141
  513TIP3    H2 1497   5.819   2.000   3.073
  514TIP3   OH2 1498   2.305   0.882   0.364
  514TIP3    H1 1499   2.244   0.949   0.334
  514TIP3    H2 1500   2.295   0.881   0.459
  515TIP3   OH2 1501   1.792   4.877   4.581
  515TIP3    H1 1502   1.779   4.880   4.487
  515TIP3    H2 1503   1.874   4.829   4.593
  516TIP3   OH2 1504   5.235   0.614   6.067
  516TIP3    H1 1505   5.328   0.597   6.050
  516TIP3    H2 1506   5.208   0.544   6.127
  517TIP3   OH2 1507   1.755   3.350   3.267
  517TIP3    H1 1508   1.769   3.376   3.358
  517TIP3    H2 1509   1.662   3.326   3.263
  518TIP3   OH2 1510   8.288   6.755   1.509
  518TIP3    H1 1511   8.207   6.737   1.462
  518TIP3    H2 1512   8.296   6.682   1.571
  519TIP3   OH2 1513   1.920   5.467   3.601
  519TIP3    H1 1514   1.903   5.531   3.533
  519TIP3    H2 1515   1.961   5.516   3.672
  520TIP3   OH2 1516   2.315   3.722   5.728
  520TIP3    H1 1517   2.300   3.812   5.700
  520TIP3    H2 1518   2.401   3.722   5.769
  521TIP3   OH2 1519   6.436   5.696   5.982
  521TIP3    H1 1520   6.485   5.778   5.995
  521TIP3    H2 1521   6.378   5.691   6.058
  522TIP3   OH2 1522   1.340   7.472   1.398
  522TIP3    H1 1523   1.363   7.494   1.489
  522TIP3    H2 1524   1.411   7.414   1.370
  523TIP3   OH2 1525   3.386   5.806   4.869
  523TIP3    H1 1526   3.431   5.724   4.851
  523TIP3    H2 1527   3.415   5.865   4.799
  524TIP3   OH2 1528   8.320   2.733   0.325
  524TIP3    H1 1529   8.242   2.774   0.287
  524TIP3    H2 1530   8.381   2.805   0.338
  525TIP3   OH2 1531   7.472   2.610   6.405
  525TIP3    H1 1532   7.441   2.667   6.476
  525TIP3    H2 1533   7.473   2.666   6.328
  526TIP3   OH2 1534   2.486   1.670   0.523
  526TIP3    H1 1535   2.463   1.582   0.553
  526TIP3    H2 1536   2.580   1.667   0.508
  527TIP3   OH2 1537   4.580   4.662   5.529
  527TIP3    H1 1538   4.594   4.609   5.450
  527TIP3    H2 1539   4.581   4.752   5.498
  528TIP3   OH2 1540   6.982   2.766   1.500
  528TIP3    H1 1541   6.911   2.703   1.512
  528TIP3    H2 1542   7.020   2.777   1.588
  529TIP3   OH2 1543   2.294   6.172   2.979
  529TIP3    H1 1544   2.386   6.174   3.005
  529TIP3    H2 1545   2.291   6.220   2.897
  530TIP3   OH2 1546   6.360   0.471   2.760
  530TIP3    H1 1547   6.350   0.531   2.834
  530TIP3    H2 1548   6.450   0.486   2.729
  531TIP3   OH2 1549   7.193   3.660   4.153
  531TIP3    H1 1550   7.166   3.679   4.063
  531TIP3    H2 1551   7.252   3.585   4.145
  532TIP3   OH2 1552   3.946   5.813   0.835
  532TIP3    H1 1553   3.978   5.896   0.871
  532TIP3    H2 1554   3.854   5.810   0.859
  533TIP3   OH2 1555   5.912   6.986   5.672
  533TIP3    H1 1556   5.900   6.914   5.610
  533TIP3    H2 1557   5.824   7.007   5.702
  534TIP3   OH2 1558   4.200   0.947   1.293
  534TIP3    H1 1559   4.264   0.903   1.237
  534TIP3    H2 1560   4.144   0.877   1.326
  535TIP3   OH2 1561   5.622   3.002   4.199
  535TIP3    H1 1562   5.664   3.012   4.114
  535TIP3    H2 1563   5.529   3.019   4.182
  536TIP3   OH2 1564   4.646   1.244   3.441
  536TIP3    H1 1565   4.615   1.327   3.404
  536TIP3    H2 1566   4.694   1.270   3.520
  537TIP3   OH2 1567   4.976   3.454   5.494
  537TIP3    H1 1568   5.031   3.379   5.515
  537TIP3    H2 1569   4.887   3.426   5.515
  538TIP3   OH2 1570   5.634   6.833   3.474
  538TIP3    H1 1571   5.698   6.765   3.455
  538TIP3    H2 1572   5.595   6.807   3.557
  539TIP3   OH2 1573   1.770   2.020   1.350
  539TIP3    H1 1574   1.779   2.077   1.274
  539TIP3    H2 1575   1.857   1.983   1.363
  540TIP3   OH2 1576   6.523   4.842   4.703
  540TIP3    H1 1577   6.593   4.778   4.689
  540TIP3    H2 1578   6.526   4.860   4.797
  541TIP3   OH2 1579   6.185   4.476   1.301
  541TIP3    H1 1580   6.234   4.394   1.307
  541TIP3    H2 1581   6.251   4.543   1.284
  542TIP3   OH2 1582   0.985   0.517   6.289
  542TIP3    H1 1583   1.043   0.563   6.350
  542TIP3    H2 1584   1.000   0.560   6.205
  543TIP3   OH2 1585   5.452   3.886   5.404
  543TIP3    H1 1586   5.534   3.850   5.372
  543TIP3    H2 1587   5.385   3.845   5.349
  544TIP3   OH2 1588   3.875   4.041   3.658
  544TIP3    H1 1589   3.860   4.100   3.732
  544TIP3    H2 1590   3.789   4.031   3.617
  545TIP3   OH2 1591   5.931   5.825   0.177
  545TIP3    H1 1592   5.914   5.732   0.165
  545TIP3    H2 1593   5.949   5.835   0.270
  546TIP3   OH2 1594   4.109   0.699   3.548
  546TIP3    H1 1595   4.144   0.771   3.497
  546TIP3    H2 1596   4.025   0.732   3.581
  547TIP3   OH2 1597   4.448   4.412   0.933
  547TIP3    H1 1598   4.399   4.351   0.987
  547TIP3    H2 1599   4.472   4.362   0.855
  548TIP3   OH2 1600   4.965   2.990   2.052
  548TIP3    H1 1601   4.921   2.930   2.112
  548TIP3    H2 1602   4.983   2.938   1.974
  549TIP3   OH2 1603   3.777   5.223   5.203
  549TIP3    H1 1604   3.694   5.176   5.194
  549TIP3    H2 1605   3.752   5.312   5.224
  550TIP3   OH2 1606   6.506   2.381   4.434
  550TIP3    H1 1607   6.418   2.371   4.397
  550TIP3    H2 1608   6.565   2.349   4.366
  551TIP3   OH2 1609   4.657   4.322   0.756
  551TIP3    H1 1610   4.685   4.310   0.846
  551TIP3    H2 1611   4.670   4.237   0.715
  552TIP3   OH2 1612   1.502   0.774   2.749
  552TIP3    H1 1613   1.464   0.862   2.744
  552TIP3    H2 1614   1.595   0.790   2.765
  553TIP3   OH2 1615   7.730   3.165   3.740
  553TIP3    H1 1616   7.707   3.252   3.709
  553TIP3    H2 1617   7.768   3.180   3.827
  554TIP3   OH2 1618   0.709   0.447   1.742
  554TIP3    H1 1619   0.683   0.428   1.832
  554TIP3    H2 1620   0.661   0.385   1.689
  555TIP3   OH2 1621   6.017   5.038   1.271
  555TIP3    H1 1622   6.088   4.983   1.303
  555TIP3    H2 1623   6.023   5.119   1.321
  556TIP3   OH2 1624   6.565   0.199   6.573
  556TIP3    H1 1625   6.629   0.227   6.638
  556TIP3    H2 1626   6.528   0.119   6.609
  557TIP3   OH2 1627   0.521   6.527   3.473
  557TIP3    H1 1628   0.452   6.472   3.510
  557TIP3    H2 1629   0.600   6.502   3.520
  558TIP3   OH2 1630   0.433   7.794   1.356
  558TIP3    H1 1631   0.395   7.746   1.430
  558TIP3    H2 1632   0.422   7.735   1.281
  559TIP3   OH2 1633   4.102   1.683   3.950
  559TIP3    H1 1634   4.117   1.613   3.886
  559TIP3    H2 1635   4.047   1.643   4.016
  560TIP3   OH2 1636   5.630   4.540   2.910
  560TIP3    H1 1637   5.723   4.522   2.909
  560TIP3    H2 1638   5.603   4.525   3.001
  561TIP3   OH2 1639   3.011   3.399   6.476
  561TIP3    H1 1640   2.948   3.385   6.405
  561TIP3    H2 1641   2.985   3.482   6.515
  562TIP3   OH2 1642   1.650   2.453   3.791
  562TIP3    H1 1643   1.634   2.466   3.698
  562TIP3    H2 1644   1.687   2.536   3.821
  563TIP3   OH2 1645   5.102   1.643   4.147
  563TIP3    H1 1646   5.190   1.618   4.118
  563TIP3    H2 1647   5.085   1.585   4.222
  564TIP3   OH2 1648   5.435   7.170   6.234
  564TIP3    H1 1649   5.404   7.097   6.180
  564TIP3    H2 1650   5.372   7.177   6.305
  565TIP3   OH2 1651   3.285   2.817   3.077
  565TIP3    H1 1652   3.289   2.910   3.097
  565TIP3    H2 1653   3.352   2.803   3.010
  566TIP3   OH2 1654   7.216   2.521   6.505
  566TIP3    H1 1655   7.217   2.609   6.542
  566TIP3    H2 1656   7.298   2.515   6.455
  567TIP3   OH2 1657   1.731   3.702   4.387
  567TIP3    H1 1658   1.793   3.774   4.401
  567TIP3    H2 1659   1.646   3.745   4.378
  568TIP3   OH2 1660   0.546   4.845   6.033
  568TIP3    H1 1661   0.613   4.912   6.047
  568TIP3    H2 1662   0.596   4.767   6.007
  569TIP3   OH2 1663   5.877   0.776   4.880
  569TIP3    H1 1664   5.790   0.768   4.841
  569TIP3    H2 1665   5.937   0.747   4.811
  570TIP3   OH2 1666   1.615   4.657   3.444
  570TIP3    H1 1667   1.569   4.585   3.401
  570TIP3    H2 1668   1.643   4.621   3.527
  571TIP3   OH2 1669   3.586   7.520   5.907
  571TIP3    H1 1670   3.636   7.568   5.973
  571TIP3    H2 1671   3.520   7.582   5.876
  572TIP3   OH2 1672   3.678   4.286   2.895
  572TIP3    H1 1673   3.702   4.378   2.907
  572TIP3    H2 1674   3.670   4.275   2.800
  573TIP3   OH2 1675   7.385   4.493   2.198
  573TIP3    H1 1676   7.404   4.522   2.287
  573TIP3    H2 1677   7.465   4.511   2.149
  574TIP3   OH2 1678   2.640   6.470   3.435
  574TIP3    H1 1679   2.603   6.490   3.521
  574TIP3    H2 1680   2.592   6.526   3.374
  575TIP3   OH2 1681   0.640   3.302   1.996
  575TIP3    H1 1682   0.707   3.287   1.929
  575TIP3    H2 1683   0.690   3.310   2.078
  576TIP3   OH2 1684   6.052   3.942   6.535
  576TIP3    H1 1685   6.076   3.958   6.627
  576TIP3    H2 1686   6.086   3.855   6.516
  577TIP3   OH2 1687   6.937   0.855   1.642
  577TIP3    H1 1688   6.980   0.936   1.670
  577TIP3    H2 1689   6.856   0.851   1.694
  578TIP3   OH2 1690   1.374   3.422   5.633
  578TIP3    H1 1691   1.427   3.386   5.705
  578TIP3    H2 1692   1.424   3.400   5.554
  579TIP3   OH2 1693   7.342   5.053   6.681
  579TIP3    H1 1694   7.371   5.093   6.763
  579TIP3    H2 1695   7.371   5.114   6.614
  580TIP3   OH2 1696   0.803   3.798   1.144
  580TIP3    H1 1697   0.810   3.786   1.239
  580TIP3    H2 1698   0.891   3.780   1.111
  581TIP3   OH2 1699   7.213   1.024   1.694
  581TIP3    H1 1700   7.258   0.944   1.722
  581TIP3    H2 1701   7.278   1.093   1.703
  582TIP3   OH2 1702   7.534   4.030   2.251
  582TIP3    H1 1703   7.514   4.099   2.187
  582TIP3    H2 1704   7.454   4.023   2.303
  583TIP3   OH2 1705   3.152   6.489   1.783
  583TIP3    H1 1706   3.217   6.418   1.781
  583TIP3    H2 1707   3.156   6.528   1.696
  584TIP3   OH2 1708   7.966   3.498   0.381
  584TIP3    H1 1709   7.962   3.579   0.332
  584TIP3    H2 1710   7.939   3.522   0.470
  585TIP3   OH2 1711   1.018   5.430   4.790
  585TIP3    H1 1712   0.973   5.479   4.859
  585TIP3    H2 1713   0.957   5.360   4.768
  586TIP3   OH2 1714   4.399   0.530   6.499
  586TIP3    H1 1715   4.336   0.601   6.490
  586TIP3    H2 1716   4.485   0.574   6.496
  587TIP3   OH2 1717   3.296   2.149   3.610
  587TIP3    H1 1718   3.348   2.127   3.533
  587TIP3    H2 1719   3.275   2.065   3.651
  588TIP3   OH2 1720   0.081   7.437   0.708
  588TIP3    H1 1721   0.018   7.366   0.719
  588TIP3    H2 1722   0.078   7.485   0.790
  589TIP3   OH2 1723   4.889   0.085   1.323
  589TIP3    H1 1724   4.905   0.059   1.232
  589TIP3    H2 1725   4.821   0.151   1.317
  590TIP3   OH2 1726   4.630   0.123   3.578
  590TIP3    H1 1727   4.638   0.090   3.667
  590TIP3    H2 1728   4.644   0.217   3.585
  591TIP3   OH2 1729   5.525   2.988   6.458
  591TIP3    H1 1730   5.430   2.998   6.471
  591TIP3    H2 1731   5.555   3.077   6.441
  592TIP3   OH2 1732   1.145   3.394   1.928
  592TIP3    H1 1733   1.053   3.384   1.952
  592TIP3    H2 1734   1.184   3.309   1.946
  593TIP3   OH2 1735   5.500   3.906   0.247
  593TIP3    H1 1736   5.560   3.935   0.178
  593TIP3    H2 1737   5.478   3.816   0.223
  594TIP3   OH2 1738   4.732   0.441   0.434
  594TIP3    H1 1739   4.671   0.409   0.501
  594TIP3    H2 1740   4.682   0.507   0.386
  595TIP3   OH2 1741   4.804   1.774   6.513
  595TIP3    H1 1742   4.806   1.825   6.594
  595TIP3    H2 1743   4.717   1.735   6.511
  596TIP3   OH2 1744   7.084   7.459   0.827
  596TIP3    H1 1745   7.135   7.379   0.815
  596TIP3    H2 1746   6.998   7.438   0.790
  597TIP3   OH2 1747   6.776   5.419   3.388
  597TIP3    H1 1748   6.758   5.465   3.306
  597TIP3    H2 1749   6.870   5.431   3.402
  598TIP3   OH2 1750   2.152   2.131   3.075
  598TIP3    H1 1751   2.200   2.208   3.044
  598TIP3    H2 1752   2.179   2.122   3.167
  599TIP3   OH2 1753   0.335   4.671   4.705
  599TIP3    H1 1754   0.405   4.649   4.767
  599TIP3    H2 1755   0.257   4.630   4.742
  600TIP3   OH2 1756   6.008   6.423   5.665
  600TIP3    H1 1757   5.933   6.475   5.637
  600TIP3    H2 1758   6.084   6.471   5.634
  601TIP3   OH2 1759   6.253   0.749   5.300
  601TIP3    H1 1760   6.311   0.673   5.295
  601TIP3    H2 1761   6.287   0.810   5.235
  602TIP3   OH2 1762   2.975   6.081   3.667
  602TIP3    H1 1763   2.902   6.030   3.702
  602TIP3    H2 1764   3.018   6.118   3.744
  603TIP3   OH2 1765   1.214   0.420   5.964
  603TIP3    H1 1766   1.201   0.488   5.898
  603TIP3    H2 1767   1.150   0.353   5.942
  604TIP3   OH2 1768   0.362   4.933   4.320
  604TIP3    H1 1769   0.280   4.966   4.283
  604TIP3    H2 1770   0.351   4.942   4.415
  605TIP3   OH2 1771   5.837   6.768   1.094
  605TIP3    H1 1772   5.909   6.831   1.092
  605TIP3    H2 1773   5.852   6.710   1.020
  606TIP3   OH2 1774   7.669   0.111   1.001
  606TIP3    H1 1775   7.607   0.039   0.993
  606TIP3    H2 1776   7.737   0.079   1.060
  607TIP3   OH2 1777   5.261   5.644   0.259
  607TIP3    H1 1778   5.230   5.617   0.173
  607TIP3    H2 1779   5.258   5.564   0.312
  608TIP3   OH2 1780   7.112   4.573   0.049
  608TIP3    H1 1781   7.080   4.576   0.139
  608TIP3    H2 1782   7.060   4.639   0.003
  609TIP3   OH2 1783   0.979   3.227   4.351
  609TIP3    H1 1784   1.061   3.268   4.381
  609TIP3    H2 1785   0.974   3.145   4.399
  610TIP3   OH2 1786   6.840   7.506   6.674
  610TIP3    H1 1787   6.825   7.412   6.659
  610TIP3    H2 1788   6.799   7.548   6.598
  611TIP3   OH2 1789   2.831   5.880   3.971
  611TIP3    H1 1790   2.909   5.837   4.008
  611TIP3    H2 1791   2.858   5.971   3.958
  612TIP3   OH2 1792   4.319   0.562   1.894
  612TIP3    H1 1793   4.329   0.656   1.906
  612TIP3    H2 1794   4.399   0.524   1.931
  613TIP3   OH2 1795   1.827   2.480   0.855
  613TIP3    H1 1796   1.803   2.388   0.848
  613TIP3    H2 1797   1.923   2.480   0.850
  614TIP3   OH2 1798   8.019   4.206   5.531
  614TIP3    H1 1799   7.975   4.126   5.560
  614TIP3    H2 1800   7.996   4.271   5.598
  615TIP3   OH2 1801   7.093   7.802   3.286
  615TIP3    H1 1802   7.047   7.825   3.367
  615TIP3    H2 1803   7.033   7.743   3.240
  616TIP3   OH2 1804   7.234   3.716   5.421
  616TIP3    H1 1805   7.255   3.642   5.364
  616TIP3    H2 1806   7.310   3.724   5.478
  617TIP3   OH2 1807   5.505   6.932   5.045
  617TIP3    H1 1808   5.535   6.978   4.967
  617TIP3    H2 1809   5.580   6.934   5.104
  618TIP3   OH2 1810   6.710   4.363   0.702
  618TIP3    H1 1811   6.722   4.371   0.607
  618TIP3    H2 1812   6.717   4.453   0.734
  619TIP3   OH2 1813   2.391   4.026   3.864
  619TIP3    H1 1814   2.374   4.014   3.771
  619TIP3    H2 1815   2.362   3.945   3.905
  620TIP3   OH2 1816   3.776   1.866   6.714
  620TIP3    H1 1817   3.804   1.845   6.804
  620TIP3    H2 1818   3.685   1.893   6.723
  621TIP3   OH2 1819   0.540   0.302   6.483
  621TIP3    H1 1820   0.611   0.264   6.431
  621TIP3    H2 1821   0.554   0.396   6.478
  622TIP3   OH2 1822   4.263   0.932   4.980
  622TIP3    H1 1823   4.260   0.862   5.045
  622TIP3    H2 1824   4.346   0.919   4.934
  623TIP3   OH2 1825   5.293   4.345   4.586
  623TIP3    H1 1826   5.278   4.333   4.492
  623TIP3    H2 1827   5.249   4.271   4.628
  624TIP3   OH2 1828   4.097   5.245   1.622
  624TIP3    H1 1829   4.164   5.226   1.556
  624TIP3    H2 1830   4.119   5.332   1.655
  625TIP3   OH2 1831   5.360   6.976   2.898
  625TIP3    H1 1832   5.400   6.896   2.864
  625TIP3    H2 1833   5.275   6.981   2.853
  626TIP3   OH2 1834   2.659   1.167   3.337
  626TIP3    H1 1835   2.595   1.101   3.363
  626TIP3    H2 1836   2.733   1.116   3.304
  627TIP3   OH2 1837   1.581   0.779   5.164
  627TIP3    H1 1838   1.510   0.842   5.177
  627TIP3    H2 1839   1.598   0.782   5.069
  628TIP3   OH2 1840   1.351   0.323   0.481
  628TIP3    H1 1841   1.300   0.307   0.402
  628TIP3    H2 1842   1.417   0.254   0.482
  629TIP3   OH2 1843   4.396   0.442   2.511
  629TIP3    H1 1844   4.353   0.365   2.473
  629TIP3    H2 1845   4.327   0.509   2.511
  630TIP3   OH2 1846   8.259   2.947   4.937
  630TIP3    H1 1847   8.243   3.019   4.997
  630TIP3    H2 1848   8.313   2.985   4.867
  631TIP3   OH2 1849   5.055   6.838   6.272
  631TIP3    H1 1850   5.141   6.829   6.231
  631TIP3    H2 1851   5.073   6.867   6.361
  632TIP3   OH2 1852   5.754   3.946   5.550
  632TIP3    H1 1853   5.710   4.025   5.519
  632TIP3    H2 1854   5.784   3.968   5.638
  633TIP3   OH2 1855   8.180   5.547   4.911
  633TIP3    H1 1856   8.221   5.500   4.983
  633TIP3    H2 1857   8.090   5.560   4.939
  634TIP3   OH2 1858   0.207   5.991   3.765
  634TIP3    H1 1859   0.209   6.029   3.852
  634TIP3    H2 1860   0.298   5.989   3.737
  635TIP3   OH2 1861   7.389   5.340   5.368
  635TIP3    H1 1862   7.425   5.397   5.300
  635TIP3    H2 1863   7.451   5.347   5.440
  636TIP3   OH2 1864   1.904   0.847   3.459
  636TIP3    H1 1865   1.839   0.906   3.422
  636TIP3    H2 1866   1.906   0.773   3.398
  637TIP3   OH2 1867   1.476   6.252   3.643
  637TIP3    H1 1868   1.546   6.242   3.708
  637TIP3    H2 1869   1.459   6.163   3.613
  638TIP3   OH2 1870   5.184   0.725   3.786
  638TIP3    H1 1871   5.193   0.642   3.832
  638TIP3    H2 1872   5.253   0.723   3.720
  639TIP3   OH2 1873   1.375   7.622   1.636
  639TIP3    H1 1874   1.366   7.642   1.729
  639TIP3    H2 1875   1.400   7.706   1.596
  640TIP3   OH2 1876   1.666   4.770   2.639
  640TIP3    H1 1877   1.686   4.677   2.653
  640TIP3    H2 1878   1.670   4.781   2.544
  641TIP3   OH2 1879   5.271   5.950   1.566
  641TIP3    H1 1880   5.250   6.021   1.627
  641TIP3    H2 1881   5.366   5.943   1.569
  642TIP3   OH2 1882   7.481   3.455   3.400
  642TIP3    H1 1883   7.466   3.408   3.318
  642TIP3    H2 1884   7.422   3.415   3.463
  643TIP3   OH2 1885   3.724   6.214   6.330
  643TIP3    H1 1886   3.731   6.241   6.238
  643TIP3    H2 1887   3.790   6.145   6.339
  644TIP3   OH2 1888   4.217   5.493   6.197
  644TIP3    H1 1889   4.293   5.452   6.237
  644TIP3    H2 1890   4.233   5.487   6.103
  645TIP3   OH2 1891   3.067   4.390   3.863
  645TIP3    H1 1892   3.107   4.450   3.801
  645TIP3    H2 1893   3.002   4.342   3.812
  646TIP3   OH2 1894   0.599   0.503   5.085
  646TIP3    H1 1895   0.616   0.524   4.994
  646TIP3    H2 1896   0.684   0.508   5.128
  647TIP3   OH2 1897   1.433   6.098   1.885
  647TIP3    H1 1898   1.423   6.004   1.866
  647TIP3    H2 1899   1.344   6.132   1.884
  648TIP3   OH2 1900   6.761   2.960   3.084
  648TIP3    H1 1901   6.738   2.884   3.031
  648TIP3    H2 1902   6.856   2.962   3.084
  649TIP3   OH2 1903   1.833   7.494   4.676
  649TIP3    H1 1904   1.889   7.499   4.598
  649TIP3    H2 1905   1.836   7.582   4.713
  650TIP3   OH2 1906   0.458   5.821   4.892
  650TIP3    H1 1907   0.507   5.889   4.846
  650TIP3    H2 1908   0.412   5.868   4.962
  651TIP3   OH2 1909   4.749   4.615   4.557
  651TIP3    H1 1910   4.776   4.657   4.639
  651TIP3    H2 1911   4.825   4.627   4.499
  652TIP3   OH2 1912   7.844   0.303   0.106
  652TIP3    H1 1913   7.856   0.237   0.038
  652TIP3    H2 1914   7.820   0.254   0.184
  653TIP3   OH2 1915   1.919   1.647   4.322
  653TIP3    H1 1916   1.853   1.692   4.269
  653TIP3    H2 1917   1.983   1.715   4.344
  654TIP3   OH2 1918   7.933   5.538   0.174
  654TIP3    H1 1919   7.840   5.553   0.190
  654TIP3    H2 1920   7.936   5.491   0.091
  655TIP3   OH2 1921   6.295   0.916   2.985
  655TIP3    H1 1922   6.307   0.987   2.922
  655TIP3    H2 1923   6.379   0.910   3.031
  656TIP3   OH2 1924   3.777   5.744   5.851
  656TIP3    H1 1925   3.772   5.838   5.866
  656TIP3    H2 1926   3.808   5.735   5.761
  657TIP3   OH2 1927   1.898   4.668   6.039
  657TIP3    H1 1928   1.983   4.652   6.081
  657TIP3    H2 1929   1.836   4.677   6.112
  658TIP3   OH2 1930   2.374   5.300   0.123
  658TIP3    H1 1931   2.392   5.394   0.130
  658TIP3    H2 1932   2.396   5.278   0.032
  659TIP3   OH2 1933   6.898   1.428   2.436
  659TIP3    H1 1934   6.899   1.473   2.521
  659TIP3    H2 1935   6.835   1.477   2.384
  660TIP3   OH2 1936   5.808   7.533   5.870
  660TIP3    H1 1937   5.898   7.522   5.838
  660TIP3    H2 1938   5.753   7.515   5.794
  661TIP3   OH2 1939   7.791   1.168   5.877
  661TIP3    H1 1940   7.811   1.235   5.943
  661TIP3    H2 1941   7.812   1.085   5.920
  662TIP3   OH2 1942   3.426   6.386   6.468
  662TIP3    H1 1943   3.442   6.360   6.558
  662TIP3    H2 1944   3.335   6.361   6.451
  663TIP3   OH2 1945   7.945   7.176   6.307
  663TIP3    H1 1946   7.941   7.113   6.235
  663TIP3    H2 1947   8.031   7.162   6.346
  664TIP3   OH2 1948   5.388   3.747   4.366
  664TIP3    H1 1949   5.423   3.708   4.446
  664TIP3    H2 1950   5.401   3.841   4.377
  665TIP3   OH2 1951   4.653   2.369   2.958
  665TIP3    H1 1952   4.678   2.348   2.868
  665TIP3    H2 1953   4.720   2.327   3.012
  666TIP3   OH2 1954   4.468   7.801   2.968
  666TIP3    H1 1955   4.404   7.809   3.038
  666TIP3    H2 1956   4.456   7.879   2.914
  667TIP3   OH2 1957   1.798   4.025   4.491
  667TIP3    H1 1958   1.728   4.047   4.430
  667TIP3    H2 1959   1.814   4.106   4.539
  668TIP3   OH2 1960   0.036   3.455   1.582
  668TIP3    H1 1961   0.106   3.440   1.646
  668TIP3    H2 1962   0.063   3.403   1.505
  669TIP3   OH2 1963   6.612   4.126   4.517
  669TIP3    H1 1964   6.592   4.184   4.443
  669TIP3    H2 1965   6.529   4.116   4.563
  670TIP3   OH2 1966   5.690   3.738   5.365
  670TIP3    H1 1967   5.688   3.800   5.438
  670TIP3    H2 1968   5.778   3.747   5.328
  671TIP3   OH2 1969   0.912   0.444   3.409
  671TIP3    H1 1970   0.823   0.430   3.376
  671TIP3    H2 1971   0.957   0.362   3.389
  672TIP3   OH2 1972   5.656   4.630   4.862
  672TIP3    H1 1973   5.619   4.543   4.850
  672TIP3    H2 1974   5.643   4.673   4.777
  673TIP3   OH2 1975   5.551   2.250   6.496
  673TIP3    H1 1976   5.576   2.199   6.573
  673TIP3    H2 1977   5.512   2.330   6.532
  674TIP3   OH2 1978   5.015   7.350   1.571
  674TIP3    H1 1979   4.960   7.353   1.493
  674TIP3    H2 1980   5.001   7.263   1.608
  675TIP3   OH2 1981   6.077   0.143   2.700
  675TIP3    H1 1982   6.041   0.088   2.630
  675TIP3    H2 1983   6.004   0.196   2.730
  676TIP3   OH2 1984   2.653   5.575   5.485
  676TIP3    H1 1985   2.710   5.509   5.445
  676TIP3    H2 1986   2.565   5.555   5.451
  677TIP3   OH2 1987   4.109   0.275   2.130
  677TIP3    H1 1988   4.121   0.310   2.042
  677TIP3    H2 1989   4.051   0.338   2.173
  678TIP3   OH2 1990   2.782   7.339   6.133
  678TIP3    H1 1991   2.703   7.309   6.178
  678TIP3    H2 1992   2.755   7.348   6.042
  679TIP3   OH2 1993   4.639   5.360   4.795
  679TIP3    H1 1994   4.654   5.269   4.818
  679TIP3    H2 1995   4.545   5.367   4.781
  680TIP3   OH2 1996   1.771   5.779   6.025
  680TIP3    H1 1997   1.784   5.844   6.094
  680TIP3    H2 1998   1.860   5.750   6.002
  681TIP3   OH2 1999   5.001   0.698   0.698
  681TIP3    H1 2000   4.920   0.671   0.655
  681TIP3    H2 2001   4.998   0.656   0.784
  682TIP3   OH2 2002   4.137   2.381   3.408
  682TIP3    H1 2003   4.191   2.302   3.401
  682TIP3    H2 2004   4.066   2.367   3.347
  683TIP3   OH2 2005   4.036   0.292   5.199
  683TIP3    H1 2006   3.995   0.375   5.174
  683TIP3    H2 2007   4.047   0.298   5.294
  684TIP3   OH2 2008   3.091   1.579   3.180
  684TIP3    H1 2009   3.118   1.515   3.115
  684TIP3    H2 2010   3.002   1.556   3.203
  685TIP3   OH2 2011   1.275   6.568   0.667
  685TIP3    H1 2012   1.320   6.652   0.679
  685TIP3    H2 2013   1.219   6.560   0.744
  686TIP3   OH2 2014   3.730   5.381   4.615
  686TIP3    H1 2015   3.742   5.299   4.566
  686TIP3    H2 2016   3.818   5.414   4.629
  687TIP3   OH2 2017   0.917   1.735   5.679
  687TIP3    H1 2018   0.848   1.767   5.621
  687TIP3    H2 2019   0.994   1.786   5.654
  688TIP3   OH2 2020   1.844   1.281   0.976
  688TIP3    H1 2021   1.803   1.211   1.027
  688TIP3    H2 2022   1.802   1.361   1.008
  689TIP3   OH2 2023   4.268   4.192   3.768
  689TIP3    H1 2024   4.325   4.269   3.762
  689TIP3    H2 2025   4.329   4.118   3.776
  690TIP3   OH2 2026   6.859   5.145   3.846
  690TIP3    H1 2027   6.908   5.063   3.839
  690TIP3    H2 2028   6.926   5.213   3.838
  691TIP3   OH2 2029   0.767   2.257   2.819
  691TIP3    H1 2030   0.713   2.195   2.771
  691TIP3    H2 2031   0.776   2.332   2.761
  692TIP3   OH2 2032   8.118   4.333   3.582
  692TIP3    H1 2033   8.033   4.349   3.622
  692TIP3    H2 2034   8.166   4.283   3.647
  693TIP3   OH2 2035   8.240   1.650   0.180
  693TIP3    H1 2036   8.302   1.577   0.181
  693TIP3    H2 2037   8.293   1.726   0.158
  694TIP3   OH2 2038   8.250   7.625   1.561
  694TIP3    H1 2039   8.196   7.701   1.538
  694TIP3    H2 2040   8.291   7.599   1.478
  695TIP3   OH2 2041   3.271   0.854   3.554
  695TIP3    H1 2042   3.351   0.893   3.589
  695TIP3    H2 2043   3.276   0.869   3.460
  696TIP3   OH2 2044   2.765   4.048   5.495
  696TIP3    H1 2045   2.797   3.958   5.491
  696TIP3    H2 2046   2.838   4.099   5.529
  697TIP3   OH2 2047   0.232   7.053   3.347
  697TIP3    H1 2048   0.272   7.003   3.418
  697TIP3    H2 2049   0.153   7.091   3.385
  698TIP3   OH2 2050   6.285   0.666   5.828
  698TIP3    H1 2051   6.222   0.655   5.757
  698TIP3    H2 2052   6.230   0.686   5.905
  699TIP3   OH2 2053   7.309   0.185   5.333
  699TIP3    H1 2054   7.234   0.227   5.374
  699TIP3    H2 2055   7.383   0.242   5.355
  700TIP3   OH2 2056   6.233   0.716   4.454
  700TIP3    H1 2057   6.195   0.684   4.373
  700TIP3    H2 2058   6.315   0.667   4.463
  701TIP3   OH2 2059   5.105   5.835   3.074
  701TIP3    H1 2060   5.166   5.827   3.147
  701TIP3    H2 2061   5.071   5.924   3.081
  702TIP3   OH2 2062   4.303   2.921   1.408
  702TIP3    H1 2063   4.295   2.958   1.320
  702TIP3    H2 2064   4.395   2.896   1.415
  703TIP3   OH2 2065   7.534   5.269   6.078
  703TIP3    H1 2066   7.447   5.267   6.118
  703TIP3    H2 2067   7.584   5.331   6.132
  704TIP3   OH2 2068   6.057   1.348   0.471
  704TIP3    H1 2069   6.114   1.426   0.475
  704TIP3    H2 2070   6.048   1.321   0.562
  705TIP3   OH2 2071   7.955   5.992   0.397
  705TIP3    H1 2072   7.986   6.020   0.311
  705TIP3    H2 2073   7.947   6.073   0.447
  706TIP3   OH2 2074   4.313   1.477   4.622
  706TIP3    H1 2075   4.299   1.450   4.531
  706TIP3    H2 2076   4.396   1.435   4.647
  707TIP3   OH2 2077   4.957   7.692   4.298
  707TIP3    H1 2078   4.899   7.700   4.222
  707TIP3    H2 2079   5.034   7.744   4.276
  708TIP3   OH2 2080   8.028   5.516   5.459
  708TIP3    H1 2081   7.934   5.501   5.466
  708TIP3    H2 2082   8.044   5.529   5.366
  709TIP3   OH2 2083   2.987   4.272   5.160
  709TIP3    H1 2084   3.024   4.280   5.072
  709TIP3    H2 2085   2.911   4.330   5.160
  710TIP3   OH2 2086   1.366   5.191   2.669
  710TIP3    H1 2087   1.345   5.191   2.762
  710TIP3    H2 2088   1.402   5.278   2.652
  711TIP3   OH2 2089   7.455   1.641   4.822
  711TIP3    H1 2090   7.419   1.730   4.823
  711TIP3    H2 2091   7.422   1.601   4.902
  712TIP3   OH2 2092   6.785   2.832   5.452
  712TIP3    H1 2093   6.753   2.879   5.375
  712TIP3    H2 2094   6.779   2.739   5.428
  713TIP3   OH2 2095   6.529   3.296   5.307
  713TIP3    H1 2096   6.571   3.240   5.372
  713TIP3    H2 2097   6.439   3.305   5.338
  714TIP3   OH2 2098   4.768   6.148   5.461
  714TIP3    H1 2099   4.704   6.217   5.441
  714TIP3    H2 2100   4.767   6.091   5.385
  715TIP3   OH2 2101   3.190   6.206   4.423
  715TIP3    H1 2102   3.228   6.192   4.510
  715TIP3    H2 2103   3.108   6.253   4.439
  716TIP3   OH2 2104   1.308   2.329   6.035
  716TIP3    H1 2105   1.215   2.315   6.014
  716TIP3    H2 2106   1.308   2.403   6.095
  717TIP3   OH2 2107   0.268   5.852   2.904
  717TIP3    H1 2108   0.295   5.790   2.836
  717TIP3    H2 2109   0.195   5.899   2.865
  718TIP3   OH2 2110   6.653   3.499   1.778
  718TIP3    H1 2111   6.716   3.477   1.709
  718TIP3    H2 2112   6.612   3.415   1.800
  719TIP3   OH2 2113   7.151   3.635   3.596
  719TIP3    H1 2114   7.064   3.673   3.606
  719TIP3    H2 2115   7.179   3.662   3.508
  720TIP3   OH2 2116   7.718   7.379   1.066
  720TIP3    H1 2117   7.652   7.446   1.045
  720TIP3    H2 2118   7.760   7.410   1.146
  721TIP3   OH2 2119   6.729   0.733   0.068
  721TIP3    H1 2120   6.680   0.775   0.139
  721TIP3    H2 2121   6.815   0.776   0.069
  722TIP3   OH2 2122   8.013   3.688   3.550
  722TIP3    H1 2123   8.054   3.703   3.464
  722TIP3    H2 2124   7.920   3.702   3.535
  723TIP3   OH2 2125   1.042   2.246   5.969
  723TIP3    H1 2126   0.974   2.248   6.037
  723TIP3    H2 2127   0.993   2.231   5.887
  724TIP3   OH2 2128   4.278   7.130   6.694
  724TIP3    H1 2129   4.288   7.225   6.704
  724TIP3    H2 2130   4.190   7.119   6.657
  725TIP3   OH2 2131   6.938   2.703   5.685
  725TIP3    H1 2132   6.902   2.615   5.673
  725TIP3    H2 2133   6.887   2.759   5.627
  726TIP3   OH2 2134   4.056   6.301   2.562
  726TIP3    H1 2135   4.116   6.294   2.637
  726TIP3    H2 2136   4.103   6.259   2.490
  727TIP3   OH2 2137   0.867   2.893   5.391
  727TIP3    H1 2138   0.896   2.861   5.476
  727TIP3    H2 2139   0.881   2.988   5.395
  728TIP3   OH2 2140   7.519   5.152   3.272
  728TIP3    H1 2141   7.576   5.080   3.298
  728TIP3    H2 2142   7.475   5.179   3.353
  729TIP3   OH2 2143   0.927   3.700   0.790
  729TIP3    H1 2144   0.960   3.706   0.880
  729TIP3    H2 2145   0.998   3.657   0.742
  730TIP3   OH2 2146   6.062   4.520   3.002
  730TIP3    H1 2147   6.117   4.443   3.017
  730TIP3    H2 2148   5.974   4.491   3.028
  731TIP3   OH2 2149   3.500   7.704   2.016
  731TIP3    H1 2150   3.469   7.792   2.040
  731TIP3    H2 2151   3.523   7.711   1.924
  732TIP3   OH2 2152   1.847   3.441   5.538
  732TIP3    H1 2153   1.796   3.365   5.512
  732TIP3    H2 2154   1.933   3.407   5.560
  733TIP3   OH2 2155   7.263   3.041   2.352
  733TIP3    H1 2156   7.281   3.057   2.260
  733TIP3    H2 2157   7.294   3.120   2.396
  734TIP3   OH2 2158   2.649   7.678   3.339
  734TIP3    H1 2159   2.575   7.633   3.382
  734TIP3    H2 2160   2.660   7.758   3.389
  735TIP3   OH2 2161   3.281   6.091   1.815
  735TIP3    H1 2162   3.253   6.136   1.735
  735TIP3    H2 2163   3.198   6.069   1.859
  736TIP3   OH2 2164   7.929   5.191   5.836
  736TIP3    H1 2165   7.900   5.100   5.846
  736TIP3    H2 2166   7.980   5.191   5.755
  737TIP3   OH2 2167   6.154   6.681   2.767
  737TIP3    H1 2168   6.132   6.773   2.780
  737TIP3    H2 2169   6.136   6.640   2.852
  738TIP3   OH2 2170   7.815   4.971   3.625
  738TIP3    H1 2171   7.878   4.941   3.691
  738TIP3    H2 2172   7.782   5.054   3.659
  739TIP3   OH2 2173   5.359   4.651   2.339
  739TIP3    H1 2174   5.370   4.659   2.434
  739TIP3    H2 2175   5.433   4.699   2.302
  740TIP3   OH2 2176   7.411   7.157   0.621
  740TIP3    H1 2177   7.480   7.223   0.622
  740TIP3    H2 2178   7.457   7.074   0.609
  741TIP3   OH2 2179   3.158   1.667   3.445
  741TIP3    H1 2180   3.132   1.758   3.464
  741TIP3    H2 2181   3.158   1.662   3.350
  742TIP3   OH2 2182   6.781   0.945   0.856
  742TIP3    H1 2183   6.726   0.873   0.826
  742TIP3    H2 2184   6.829   0.909   0.931
  743TIP3   OH2 2185   0.790   4.506   3.275
  743TIP3    H1 2186   0.821   4.590   3.241
  743TIP3    H2 2187   0.870   4.454   3.286
  744TIP3   OH2 2188   3.890   5.608   6.344
  744TIP3    H1 2189   3.873   5.534   6.285
  744TIP3    H2 2190   3.814   5.665   6.335
  745TIP3   OH2 2191   1.546   3.859   3.758
  745TIP3    H1 2192   1.512   3.948   3.750
  745TIP3    H2 2193   1.635   3.865   3.724
  746TIP3   OH2 2194   1.104   5.604   1.843
  746TIP3    H1 2195   1.097   5.570   1.754
  746TIP3    H2 2196   1.110   5.699   1.833
  747TIP3   OH2 2197   3.746   5.962   5.017
  747TIP3    H1 2198   3.754   5.923   4.930
  747TIP3    H2 2199   3.834   5.959   5.053
  748TIP3   OH2 2200   6.593   1.262   3.583
  748TIP3    H1 2201   6.640   1.288   3.662
  748TIP3    H2 2202   6.502   1.251   3.612
  749TIP3   OH2 2203   7.454   0.367   1.790
  749TIP3    H1 2204   7.506   0.288   1.774
  749TIP3    H2 2205   7.496   0.435   1.738
  750TIP3   OH2 2206   0.825   6.265   1.076
  750TIP3    H1 2207   0.874   6.332   1.028
  750TIP3    H2 2208   0.736   6.298   1.079
  751TIP3   OH2 2209   5.270   0.468   1.578
  751TIP3    H1 2210   5.340   0.416   1.618
  751TIP3    H2 2211   5.315   0.521   1.512
  752TIP3   OH2 2212   3.570   6.668   2.362
  752TIP3    H1 2213   3.635   6.674   2.292
  752TIP3    H2 2214   3.486   6.669   2.316
  753TIP3   OH2 2215   6.380   4.856   5.585
  753TIP3    H1 2216   6.438   4.927   5.558
  753TIP3    H2 2217   6.430   4.808   5.651
  754TIP3   OH2 2218   2.024   6.974   4.615
  754TIP3    H1 2219   2.070   6.998   4.534
  754TIP3    H2 2220   2.028   6.878   4.617
  755TIP3   OH2 2221   4.079   5.724   2.260
  755TIP3    H1 2222   4.166   5.763   2.257
  755TIP3    H2 2223   4.092   5.635   2.226
  756TIP3   OH2 2224   5.850   1.176   5.245
  756TIP3    H1 2225   5.898   1.214   5.319
  756TIP3    H2 2226   5.901   1.099   5.221
  757TIP3   OH2 2227   5.851   0.794   5.863
  757TIP3    H1 2228   5.911   0.869   5.865
  757TIP3    H2 2229   5.899   0.724   5.909
  758TIP3   OH2 2230   3.139   4.834   0.756
  758TIP3    H1 2231   3.175   4.922   0.748
  758TIP3    H2 2232   3.166   4.805   0.843
  759TIP3   OH2 2233   1.989   6.796   2.008
  759TIP3    H1 2234   1.916   6.816   1.950
  759TIP3    H2 2235   2.049   6.743   1.955
  760TIP3   OH2 2236   6.224   6.230   3.569
  760TIP3    H1 2237   6.309   6.203   3.603
  760TIP3    H2 2238   6.232   6.219   3.474
  761TIP3   OH2 2239   7.533   0.057   2.779
  761TIP3    H1 2240   7.568   0.102   2.856
  761TIP3    H2 2241   7.576   0.100   2.705
  762TIP3   OH2 2242   0.441   0.714   0.208
  762TIP3    H1 2243   0.387   0.648   0.252
  762TIP3    H2 2244   0.506   0.740   0.273
  763TIP3   OH2 2245   1.394   6.922   5.322
  763TIP3    H1 2246   1.439   6.838   5.312
  763TIP3    H2 2247   1.369   6.926   5.414
  764TIP3   OH2 2248   7.847   3.691   3.214
  764TIP3    H1 2249   7.854   3.607   3.260
  764TIP3    H2 2250   7.922   3.692   3.155
  765TIP3   OH2 2251   3.957   2.009   2.172
  765TIP3    H1 2252   3.973   1.923   2.209
  765TIP3    H2 2253   3.863   2.011   2.154
  766TIP3   OH2 2254   7.702   5.045   0.681
  766TIP3    H1 2255   7.765   5.115   0.693
  766TIP3    H2 2256   7.627   5.070   0.735
  767TIP3   OH2 2257   6.389   7.118   0.029
  767TIP3    H1 2258   6.453   7.147   0.094
  767TIP3    H2 2259   6.408   7.170  -0.048
  768TIP3   OH2 2260   1.772   2.338   2.062
  768TIP3    H1 2261   1.788   2.395   1.987
  768TIP3    H2 2262   1.854   2.291   2.075
  769TIP3   OH2 2263   3.757   2.302   5.713
  769TIP3    H1 2264   3.728   2.280   5.625
  769TIP3    H2 2265   3.697   2.371   5.742
  770TIP3   OH2 2266   0.677   4.489   1.183
  770TIP3    H1 2267   0.643   4.406   1.215
  770TIP3    H2 2268   0.740   4.465   1.115
  771TIP3   OH2 2269   3.359   1.867   4.879
  771TIP3    H1 2270   3.385   1.926   4.949
  771TIP3    H2 2271   3.441   1.844   4.835
  772TIP3   OH2 2272   2.661   4.626   4.857
  772TIP3    H1 2273   2.589   4.633   4.795
  772TIP3    H2 2274   2.632   4.675   4.934
  773TIP3   OH2 2275   3.371   1.649   5.723
  773TIP3    H1 2276   3.412   1.685   5.801
  773TIP3    H2 2277   3.425   1.681   5.651
  774TIP3   OH2 2278   6.395   6.571   2.374
  774TIP3    H1 2279   6.414   6.560   2.281
  774TIP3    H2 2280   6.462   6.633   2.405
  775TIP3   OH2 2281   2.286   6.674   2.050
  775TIP3    H1 2282   2.244   6.587   2.051
  775TIP3    H2 2283   2.326   6.680   1.963
  776TIP3   OH2 2284   7.306   1.800   0.388
  776TIP3    H1 2285   7.335   1.858   0.317
  776TIP3    H2 2286   7.364   1.821   0.461
  777TIP3   OH2 2287   6.799   7.538   1.274
  777TIP3    H1 2288   6.718   7.566   1.231
  777TIP3    H2 2289   6.848   7.493   1.205
  778TIP3   OH2 2290   8.005   1.798   6.122
  778TIP3    H1 2291   7.993   1.764   6.033
  778TIP3    H2 2292   7.990   1.892   6.114
  779TIP3   OH2 2293   0.996   6.323   6.462
  779TIP3    H1 2294   0.947   6.270   6.525
  779TIP3    H2 2295   0.930   6.379   6.422
  780TIP3   OH2 2296   6.409   0.172   3.916
  780TIP3    H1 2297   6.374   0.193   4.002
  780TIP3    H2 2298   6.334   0.182   3.857
  781TIP3   OH2 2299   7.803   1.636   6.228
  781TIP3    H1 2300   7.813   1.628   6.323
  781TIP3    H2 2301   7.880   1.685   6.200
  782TIP3   OH2 2302   4.232   2.044   3.047
  782TIP3    H1 2303   4.161   1.981   3.055
  782TIP3    H2 2304   4.250   2.047   2.953
  783TIP3   OH2 2305   3.600   3.930   2.146
  783TIP3    H1 2306   3.532   3.960   2.207
  783TIP3    H2 2307   3.600   3.995   2.075
  784TIP3   OH2 2308   5.940   4.508   0.774
  784TIP3    H1 2309   5.925   4.595   0.736
  784TIP3    H2 2310   6.006   4.522   0.841
  785TIP3   OH2 2311   2.312   5.641   3.489
  785TIP3    H1 2312   2.273   5.668   3.573
  785TIP3    H2 2313   2.260   5.688   3.423
  786TIP3   OH2 2314   7.682   5.582   1.550
  786TIP3    H1 2315   7.755   5.611   1.496
  786TIP3    H2 2316   7.702   5.615   1.637
  787TIP3   OH2 2317   7.721   2.653   5.162
  787TIP3    H1 2318   7.814   2.646   5.182
  787TIP3    H2 2319   7.698   2.743   5.183
  788TIP3   OH2 2320   6.859   7.271   2.730
  788TIP3    H1 2321   6.884   7.306   2.644
  788TIP3    H2 2322   6.770   7.302   2.744
  789TIP3   OH2 2323   1.655   7.759   5.018
  789TIP3    H1 2324   1.745   7.750   4.989
  789TIP3    H2 2325   1.655   7.729   5.109
  790TIP3   OH2 2326   0.606   1.465   1.665
  790TIP3    H1 2327   0.597   1.403   1.593
  790TIP3    H2 2328   0.693   1.503   1.654
  791TIP3   OH2 2329   5.040   4.319   4.301
  791TIP3    H1 2330   5.103   4.252   4.328
  791TIP3    H2 2331   4.964   4.305   4.358
  792TIP3   OH2 2332   1.405   0.869   4.834
  792TIP3    H1 2333   1.415   0.959   4.803
  792TIP3    H2 2334   1.339   0.831   4.776
  793TIP3   OH2 2335   6.975   3.294   2.288
  793TIP3    H1 2336   6.881   3.289   2.272
  793TIP3    H2 2337   6.989   3.243   2.368
  794TIP3   OH2 2338   2.779   3.711   1.477
  794TIP3    H1 2339   2.844   3.780   1.492
  794TIP3    H2 2340   2.827   3.642   1.432
  795TIP3   OH2 2341   4.103   0.392   5.465
  795TIP3    H1 2342   4.060   0.351   5.541
  795TIP3    H2 2343   4.188   0.421   5.499
  796TIP3   OH2 2344   5.165   4.859   2.538
  796TIP3    H1 2345   5.188   4.925   2.604
  796TIP3    H2 2346   5.189   4.900   2.455
  797TIP3   OH2 2347   4.419   7.762   4.763
  797TIP3    H1 2348   4.425   7.669   4.786
  797TIP3    H2 2349   4.510   7.793   4.765
  798TIP3   OH2 2350   8.277   3.216   0.024
  798TIP3    H1 2351   8.282   3.274  -0.051
  798TIP3    H2 2352   8.232   3.267   0.091
  799TIP3   OH2 2353   6.982   6.544   0.114
  799TIP3    H1 2354   7.007   6.636   0.116
  799TIP3    H2 2355   7.060   6.498   0.080
  800TIP3   OH2 2356   4.635   0.542   1.015
  800TIP3    H1 2357   4.719   0.578   1.044
  800TIP3    H2 2358   4.576   0.559   1.088
  801TIP3   OH2 2359   6.476   3.537   4.903
  801TIP3    H1 2360   6.419   3.613   4.896
  801TIP3    H2 2361   6.420   3.462   4.882
  802TIP3   OH2 2362   6.229   5.045   5.926
  802TIP3    H1 2363   6.140   5.015   5.945
  802TIP3    H2 2364   6.230   5.058   5.831
  803TIP3   OH2 2365   4.927   7.140   1.899
  803TIP3    H1 2366   4.891   7.160   1.985
  803TIP3    H2 2367   4.901   7.049   1.882
  804TIP3   OH2 2368   2.909   4.751   0.979
  804TIP3    H1 2369   2.952   4.837   0.982
  804TIP3    H2 2370   2.861   4.745   1.062
  805TIP3   OH2 2371   3.514   7.811   3.083
  805TIP3    H1 2372   3.519   7.723   3.045
  805TIP3    H2 2373   3.603   7.829   3.115
  806TIP3   OH2 2374   8.148   0.521   6.069
  806TIP3    H1 2375   8.087   0.514   5.996
  806TIP3    H2 2376   8.093   0.539   6.145
  807TIP3   OH2 2377   1.118   1.901   6.024
  807TIP3    H1 2378   1.213   1.903   6.039
  807TIP3    H2 2379   1.087   1.827   6.076
  808TIP3   OH2 2380   7.287   1.368   3.213
  808TIP3    H1 2381   7.264   1.436   3.149
  808TIP3    H2 2382   7.362   1.405   3.260
  809TIP3   OH2 2383   1.060   7.741   6.567
  809TIP3    H1 2384   0.999   7.810   6.544
  809TIP3    H2 2385   1.138   7.760   6.514
  810TIP3   OH2 2386   6.948   7.186   2.972
  810TIP3    H1 2387   7.021   7.124   2.983
  810TIP3    H2 2388   6.942   7.200   2.878
  811TIP3   OH2 2389   2.599   7.507   2.111
  811TIP3    H1 2390   2.639   7.590   2.088
  811TIP3    H2 2391   2.543   7.485   2.037
  812TIP3   OH2 2392   5.846   7.751   3.973
  812TIP3    H1 2393   5.885   7.672   3.937
  812TIP3    H2 2394   5.788   7.783   3.903
  813TIP3   OH2 2395   7.289   1.286   1.004
  813TIP3    H1 2396   7.326   1.199   1.023
  813TIP3    H2 2397   7.360   1.347   1.023
  814TIP3   OH2 2398   7.884   5.195   0.068
  814TIP3    H1 2399   7.829   5.219   0.143
  814TIP3    H2 2400   7.974   5.202   0.099
  815TIP3   OH2 2401   1.736   6.199   0.118
  815TIP3    H1 2402   1.674   6.160   0.056
  815TIP3    H2 2403   1.796   6.128   0.139
  816TIP3   OH2 2404   7.246   0.448   4.407
  816TIP3    H1 2405   7.328   0.430   4.452
  816TIP3    H2 2406   7.272   0.502   4.332
  817TIP3   OH2 2407   3.462   5.289   6.249
  817TIP3    H1 2408   3.427   5.214   6.298
  817TIP3    H2 2409   3.504   5.250   6.172
  818TIP3   OH2 2410   5.935   5.763   3.480
  818TIP3    H1 2411   5.867   5.794   3.540
  818TIP3    H2 2412   5.922   5.815   3.401
  819TIP3   OH2 2413   2.896   5.169   4.929
  819TIP3    H1 2414   2.814   5.218   4.935
  819TIP3    H2 2415   2.874   5.091   4.879
  820TIP3   OH2 2416   5.602   5.322   0.837
  820TIP3    H1 2417   5.557   5.392   0.789
  820TIP3    H2 2418   5.663   5.285   0.774
  821TIP3   OH2 2419   5.466   4.184   5.800
  821TIP3    H1 2420   5.460   4.124   5.726
  821TIP3    H2 2421   5.542   4.240   5.779
  822TIP3   OH2 2422   0.797   1.218   6.298
  822TIP3    H1 2423   0.831   1.146   6.245
  822TIP3    H2 2424   0.773   1.286   6.234
  823TIP3   OH2 2425   0.321   1.218   1.541
  823TIP3    H1 2426   0.401   1.170   1.562
  823TIP3    H2 2427   0.345   1.273   1.467
  824TIP3   OH2 2428   0.691   0.654   0.039
  824TIP3    H1 2429   0.649   0.740   0.035
  824TIP3    H2 2430   0.743   0.656   0.119
  825TIP3   OH2 2431   2.460   4.839   1.273
  825TIP3    H1 2432   2.407   4.910   1.237
  825TIP3    H2 2433   2.436   4.836   1.366
  826TIP3   OH2 2434   1.382   6.381   5.656
  826TIP3    H1 2435   1.463   6.370   5.706
  826TIP3    H2 2436   1.353   6.292   5.636
  827TIP3   OH2 2437   6.316   6.936   1.683
  827TIP3    H1 2438   6.335   6.890   1.765
  827TIP3    H2 2439   6.234   6.897   1.652
  828TIP3   OH2 2440   3.964   4.781   5.486
  828TIP3    H1 2441   3.918   4.697   5.485
  828TIP3    H2 2442   3.913   4.836   5.427
  829TIP3   OH2 2443   5.471   5.584   1.789
  829TIP3    H1 2444   5.387   5.624   1.765
  829TIP3    H2 2445   5.534   5.623   1.729
  830TIP3   OH2 2446   7.696   1.032   5.401
  830TIP3    H1 2447   7.662   1.067   5.319
  830TIP3    H2 2448   7.735   1.107   5.445
  831TIP3   OH2 2449   6.189   6.391   1.496
  831TIP3    H1 2450   6.238   6.373   1.415
  831TIP3    H2 2451   6.173   6.485   1.493
  832TIP3   OH2 2452   1.135   1.533   2.925
  832TIP3    H1 2453   1.160   1.625   2.916
  832TIP3    H2 2454   1.094   1.528   3.012
  833TIP3   OH2 2455   2.621   5.870   3.408
  833TIP3    H1 2456   2.580   5.866   3.321
  833TIP3    H2 2457   2.608   5.961   3.436
  834TIP3   OH2 2458   5.154   6.306   5.946
  834TIP3    H1 2459   5.061   6.324   5.931
  834TIP3    H2 2460   5.161   6.210   5.942
  835TIP3   OH2 2461   2.467   6.333   1.872
  835TIP3    H1 2462   2.530   6.262   1.880
  835TIP3    H2 2463   2.520   6.411   1.852
  836TIP3   OH2 2464   3.865   4.707   2.925
  836TIP3    H1 2465   3.885   4.792   2.886
  836TIP3    H2 2466   3.949   4.676   2.960
  837TIP3   OH2 2467   5.369   2.810   1.297
  837TIP3    H1 2468   5.417   2.731   1.270
  837TIP3    H2 2469   5.396   2.877   1.235
  838TIP3   OH2 2470   7.323   7.464   3.800
  838TIP3    H1 2471   7.308   7.372   3.821
  838TIP3    H2 2472   7.235   7.502   3.794
  839TIP3   OH2 2473   7.757   4.525   0.425
  839TIP3    H1 2474   7.679   4.578   0.444
  839TIP3    H2 2475   7.816   4.585   0.380
  840TIP3   OH2 2476   5.960   1.814   2.776
  840TIP3    H1 2477   5.890   1.762   2.813
  840TIP3    H2 2478   5.988   1.766   2.698
  841TIP3   OH2 2479   4.849   4.755   3.840
  841TIP3    H1 2480   4.875   4.683   3.782
  841TIP3    H2 2481   4.786   4.805   3.789
  842TIP3   OH2 2482   3.455   2.892   2.605
  842TIP3    H1 2483   3.541   2.934   2.597
  842TIP3    H2 2484   3.471   2.800   2.585
  843TIP3   OH2 2485   6.005   4.634   5.295
  843TIP3    H1 2486   5.932   4.641   5.233
  843TIP3    H2 2487   6.018   4.540   5.305
  844TIP3   OH2 2488   5.269   6.544   4.909
  844TIP3    H1 2489   5.341   6.607   4.904
  844TIP3    H2 2490   5.190   6.598   4.907
  845TIP3   OH2 2491   3.451   6.020   5.871
  845TIP3    H1 2492   3.411   6.088   5.815
  845TIP3    H2 2493   3.376   5.976   5.911
  846TIP3   OH2 2494   0.199   2.400   4.427
  846TIP3    H1 2495   0.285   2.385   4.387
  846TIP3    H2 2496   0.136   2.370   4.362
  847TIP3   OH2 2497   0.604   5.691   2.908
  847TIP3    H1 2498   0.622   5.673   3.001
  847TIP3    H2 2499   0.572   5.781   2.907
  848TIP3   OH2 2500   1.926   7.702   5.203
  848TIP3    H1 2501   1.931   7.784   5.251
  848TIP3    H2 2502   1.874   7.644   5.259
  849TIP3   OH2 2503   6.297   6.803   3.803
  849TIP3    H1 2504   6.326   6.733   3.745
  849TIP3    H2 2505   6.293   6.763   3.890
  850TIP3   OH2 2506   0.201   4.207   2.112
  850TIP3    H1 2507   0.223   4.116   2.094
  850TIP3    H2 2508   0.138   4.231   2.044
  851TIP3   OH2 2509   6.243   2.355   4.427
  851TIP3    H1 2510   6.202   2.277   4.389
  851TIP3    H2 2511   6.221   2.351   4.520
  852TIP3   OH2 2512   5.764   0.747   0.951
  852TIP3    H1 2513   5.728   0.835   0.957
  852TIP3    H2 2514   5.803   0.743   0.864
  853TIP3   OH2 2515   7.370   4.770   4.329
  853TIP3    H1 2516   7.384   4.683   4.291
  853TIP3    H2 2517   7.300   4.758   4.392
  854TIP3   OH2 2518   4.088   1.260   4.454
  854TIP3    H1 2519   4.098   1.182   4.399
  854TIP3    H2 2520   4.013   1.241   4.510
  855TIP3   OH2 2521   1.433   5.829   4.298
  855TIP3    H1 2522   1.423   5.750   4.245
  855TIP3    H2 2523   1.394   5.807   4.382
  856TIP3   OH2 2524   3.525   6.644   0.169
  856TIP3    H1 2525   3.434   6.639   0.198
  856TIP3    H2 2526   3.561   6.558   0.191
  857TIP3   OH2 2527   0.703   4.722   0.142
  857TIP3    H1 2528   0.744   4.668   0.210
  857TIP3    H2 2529   0.611   4.726   0.168
  858TIP3   OH2 2530   7.249   1.927   2.528
  858TIP3    H1 2531   7.279   2.017   2.516
  858TIP3    H2 2532   7.301   1.893   2.601
  859TIP3   OH2 2533   4.848   6.487   5.264
  859TIP3    H1 2534   4.856   6.464   5.356
  859TIP3    H2 2535   4.766   6.536   5.258
  860TIP3   OH2 2536   3.665   5.173   2.499
  860TIP3    H1 2537   3.720   5.107   2.457
  860TIP3    H2 2538   3.680   5.252   2.447
  861TIP3   OH2 2539   0.879   4.318   6.332
  861TIP3    H1 2540   0.921   4.352   6.252
  861TIP3    H2 2541   0.797   4.280   6.302
  862TIP3   OH2 2542   6.302   7.811   4.341
  862TIP3    H1 2543   6.345   7.832   4.259
  862TIP3    H2 2544   6.300   7.715   4.343
  863TIP3   OH2 2545   0.144   1.450   5.666
  863TIP3    H1 2546   0.131   1.369   5.715
  863TIP3    H2 2547   0.207   1.427   5.598
  864TIP3   OH2 2548   7.815   1.820   4.642
  864TIP3    H1 2549   7.779   1.901   4.606
  864TIP3    H2 2550   7.789   1.753   4.580
  865TIP3   OH2 2551   7.275   0.603   2.423
  865TIP3    H1 2552   7.365   0.597   2.390
  865TIP3    H2 2553   7.270   0.691   2.462
  866TIP3   OH2 2554   2.317   5.107   3.145
  866TIP3    H1 2555   2.268   5.179   3.107
  866TIP3    H2 2556   2.402   5.111   3.101
  867TIP3   OH2 2557   4.855   5.578   4.758
  867TIP3    H1 2558   4.784   5.641   4.772
  867TIP3    H2 2559   4.821   5.495   4.791
  868TIP3   OH2 2560   5.483   3.250   1.987
  868TIP3    H1 2561   5.516   3.308   2.056
  868TIP3    H2 2562   5.537   3.271   1.911
  869TIP3   OH2 2563   1.324   6.225   2.821
  869TIP3    H1 2564   1.320   6.274   2.739
  869TIP3    H2 2565   1.352   6.289   2.886
  870TIP3   OH2 2566   6.447   6.178   4.785
  870TIP3    H1 2567   6.390   6.216   4.851
  870TIP3    H2 2568   6.448   6.085   4.805
  871TIP3   OH2 2569   5.024   4.345   6.293
  871TIP3    H1 2570   4.996   4.259   6.262
  871TIP3    H2 2571   4.979   4.356   6.377
  872TIP3   OH2 2572   3.085   1.302   6.611
  872TIP3    H1 2573   3.081   1.207   6.611
  872TIP3    H2 2574   2.995   1.330   6.627
  873TIP3   OH2 2575   1.136   5.540   5.926
  873TIP3    H1 2576   1.063   5.570   5.873
  873TIP3    H2 2577   1.205   5.604   5.911
  874TIP3   OH2 2578   3.591   3.844   5.698
  874TIP3    H1 2579   3.651   3.916   5.720
  874TIP3    H2 2580   3.603   3.831   5.604
  875TIP3   OH2 2581   4.367   3.362   2.568
  875TIP3    H1 2582   4.293   3.383   2.625
  875TIP3    H2 2583   4.434   3.427   2.590
  876TIP3   OH2 2584   5.122   2.174   1.778
  876TIP3    H1 2585   5.171   2.254   1.759
  876TIP3    H2 2586   5.188   2.115   1.816
  877TIP3   OH2 2587   3.238   7.815   0.674
  877TIP3    H1 2588   3.316   7.790   0.724
  877TIP3    H2 2589   3.270   7.829   0.585
  878TIP3   OH2 2590   4.776   0.149   2.794
  878TIP3    H1 2591   4.796   0.218   2.731
  878TIP3    H2 2592   4.715   0.189   2.856
  879TIP3   OH2 2593   6.045   5.918   5.594
  879TIP3    H1 2594   6.043   6.005   5.634
  879TIP3    H2 2595   6.047   5.857   5.668
  880TIP3   OH2 2596   5.022   2.835   3.532
  880TIP3    H1 2597   5.059   2.773   3.469
  880TIP3    H2 2598   5.073   2.915   3.519
  881TIP3   OH2 2599   5.347   0.419   2.439
  881TIP3    H1 2600   5.291   0.455   2.370
  881TIP3    H2 2601   5.413   0.487   2.453
  882TIP3   OH2 2602   2.931   0.845   4.794
  882TIP3    H1 2603   2.885   0.764   4.773
  882TIP3    H2 2604   2.888   0.912   4.741
  883TIP3   OH2 2605   6.518   2.276   4.729
  883TIP3    H1 2606   6.474   2.285   4.644
  883TIP3    H2 2607   6.448   2.287   4.794
  884TIP3   OH2 2608   1.346   6.487   6.751
  884TIP3    H1 2609   1.426   6.491   6.699
  884TIP3    H2 2610   1.375   6.460   6.838
  885TIP3   OH2 2611   6.899   5.261   4.483
  885TIP3    H1 2612   6.859   5.336   4.440
  885TIP3    H2 2613   6.975   5.298   4.529
  886TIP3   OH2 2614   6.193   5.885   4.122
  886TIP3    H1 2615   6.273   5.860   4.076
  886TIP3    H2 2616   6.214   5.874   4.215
  887TIP3   OH2 2617   0.083   1.665   3.939
  887TIP3    H1 2618   0.142   1.619   3.880
  887TIP3    H2 2619   0.141   1.716   3.996
  888TIP3   OH2 2620   8.211   5.022   2.903
  888TIP3    H1 2621   8.211   5.112   2.935
  888TIP3    H2 2622   8.143   5.020   2.836
  889TIP3   OH2 2623   7.189   2.330   3.785
  889TIP3    H1 2624   7.112   2.376   3.751
  889TIP3    H2 2625   7.217   2.382   3.860
  890TIP3   OH2 2626   6.657   6.532   4.241
  890TIP3    H1 2627   6.674   6.447   4.281
  890TIP3    H2 2628   6.637   6.589   4.315
  891TIP3   OH2 2629   2.955   4.983   3.780
  891TIP3    H1 2630   3.035   5.026   3.750
  891TIP3    H2 2631   2.926   4.931   3.705
  892TIP3   OH2 2632   3.244   7.196   1.915
  892TIP3    H1 2633   3.283   7.269   1.866
  892TIP3    H2 2634   3.254   7.222   2.007
  893TIP3   OH2 2635   7.575   5.760   3.293
  893TIP3    H1 2636   7.497   5.750   3.348
  893TIP3    H2 2637   7.649   5.747   3.353
  894TIP3   OH2 2638   6.538   6.049   3.023
  894TIP3    H1 2639   6.557   6.070   2.932
  894TIP3    H2 2640   6.617   6.006   3.055
  895TIP3   OH2 2641   6.401   3.014   5.484
  895TIP3    H1 2642   6.404   3.050   5.573
  895TIP3    H2 2643   6.390   2.920   5.496
  896TIP3   OH2 2644   4.777   0.511   6.546
  896TIP3    H1 2645   4.845   0.578   6.556
  896TIP3    H2 2646   4.712   0.534   6.612
  897TIP3   OH2 2647   4.944   1.746   3.248
  897TIP3    H1 2648   4.996   1.767   3.170
  897TIP3    H2 2649   4.878   1.814   3.252
  898TIP3   OH2 2650   5.186   6.701   2.131
  898TIP3    H1 2651   5.100   6.667   2.157
  898TIP3    H2 2652   5.237   6.699   2.212
  899TIP3   OH2 2653   1.225   4.392   6.708
  899TIP3    H1 2654   1.231   4.475   6.756
  899TIP3    H2 2655   1.142   4.398   6.660
  900TIP3   OH2 2656   8.190   2.639   3.506
  900TIP3    H1 2657   8.195   2.544   3.493
  900TIP3    H2 2658   8.154   2.672   3.423
  901TIP3   OH2 2659   1.136   1.473   2.141
  901TIP3    H1 2660   1.168   1.487   2.052
  901TIP3    H2 2661   1.214   1.478   2.196
  902TIP3   OH2 2662   0.928   2.437   6.321
  902TIP3    H1 2663   0.845   2.483   6.337
  902TIP3    H2 2664   0.985   2.504   6.284
  903TIP3   OH2 2665   4.120   4.261   2.166
  903TIP3    H1 2666   4.139   4.334   2.107
  903TIP3    H2 2667   4.140   4.294   2.254
  904TIP3   OH2 2668   1.188   3.667   5.570
  904TIP3    H1 2669   1.199   3.585   5.619
  904TIP3    H2 2670   1.274   3.681   5.529
  905TIP3   OH2 2671   3.174   2.602   4.958
  905TIP3    H1 2672   3.242   2.590   4.892
  905TIP3    H2 2673   3.222   2.613   5.040
  906TIP3   OH2 2674   2.231   6.274   6.232
  906TIP3    H1 2675   2.310   6.305   6.277
  906TIP3    H2 2676   2.222   6.334   6.157
  907TIP3   OH2 2677   6.281   5.531   2.234
  907TIP3    H1 2678   6.324   5.551   2.151
  907TIP3    H2 2679   6.304   5.605   2.291
  908TIP3   OH2 2680   2.053   3.431   0.381
  908TIP3    H1 2681   1.981   3.384   0.423
  908TIP3    H2 2682   2.017   3.459   0.296
  909TIP3   OH2 2683   6.298   5.050   5.296
  909TIP3    H1 2684   6.247   4.987   5.246
  909TIP3    H2 2685   6.234   5.117   5.322
  910TIP3   OH2 2686   5.083   7.786   6.014
  910TIP3    H1 2687   5.113   7.706   6.058
  910TIP3    H2 2688   5.164   7.831   5.990
  911TIP3   OH2 2689   1.759   6.260   5.004
  911TIP3    H1 2690   1.718   6.215   4.929
  911TIP3    H2 2691   1.774   6.190   5.068
  912TIP3   OH2 2692   0.439   0.579   3.206
  912TIP3    H1 2693   0.374   0.616   3.265
  912TIP3    H2 2694   0.520   0.578   3.257
  913TIP3   OH2 2695   5.843   0.829   3.717
  913TIP3    H1 2696   5.837   0.847   3.811
  913TIP3    H2 2697   5.931   0.795   3.704
  914TIP3   OH2 2698   7.282   1.492   0.648
  914TIP3    H1 2699   7.218   1.562   0.650
  914TIP3    H2 2700   7.231   1.412   0.659
  915TIP3   OH2 2701   5.242   7.009   5.327
  915TIP3    H1 2702   5.247   6.914   5.340
  915TIP3    H2 2703   5.251   7.021   5.233
  916TIP3   OH2 2704   2.814   4.200   4.121
  916TIP3    H1 2705   2.761   4.174   4.197
  916TIP3    H2 2706   2.750   4.236   4.059
  917TIP3   OH2 2707   5.958   4.120   1.387
  917TIP3    H1 2708   6.047   4.089   1.402
  917TIP3    H2 2709   5.967   4.216   1.381
  918TIP3   OH2 2710   8.109   1.641   4.671
  918TIP3    H1 2711   8.123   1.598   4.586
  918TIP3    H2 2712   8.092   1.733   4.648
  919TIP3   OH2 2713   4.567   1.900   0.537
  919TIP3    H1 2714   4.556   1.817   0.490
  919TIP3    H2 2715   4.493   1.953   0.510
  920TIP3   OH2 2716   6.296   2.828   5.099
  920TIP3    H1 2717   6.293   2.914   5.141
  920TIP3    H2 2718   6.207   2.814   5.067
  921TIP3   OH2 2719   5.143   4.784   0.683
  921TIP3    H1 2720   5.136   4.821   0.772
  921TIP3    H2 2721   5.174   4.695   0.697
  922TIP3   OH2 2722   0.789   5.917   3.477
  922TIP3    H1 2723   0.695   5.917   3.499
  922TIP3    H2 2724   0.794   5.865   3.398
  923TIP3   OH2 2725   7.001   3.621   4.670
  923TIP3    H1 2726   7.044   3.585   4.592
  923TIP3    H2 2727   6.965   3.544   4.715
  924TIP3   OH2 2728   1.493   4.764   1.740
  924TIP3    H1 2729   1.484   4.678   1.782
  924TIP3    H2 2730   1.508   4.825   1.812
  925TIP3   OH2 2731   3.635   5.542   2.676
  925TIP3    H1 2732   3.726   5.573   2.686
  925TIP3    H2 2733   3.606   5.581   2.593
  926TIP3   OH2 2734   7.535   1.408   3.625
  926TIP3    H1 2735   7.476   1.337   3.601
  926TIP3    H2 2736   7.620   1.366   3.637
  927TIP3   OH2 2737   7.925   0.290   3.276
  927TIP3    H1 2738   7.992   0.238   3.321
  927TIP3    H2 2739   7.916   0.369   3.329
  928TIP3   OH2 2740   0.134   4.798   1.013
  928TIP3    H1 2741   0.135   4.852   0.934
  928TIP3    H2 2742   0.097   4.856   1.080
  929TIP3   OH2 2743   4.780   4.647   2.812
  929TIP3    H1 2744   4.816   4.668   2.725
  929TIP3    H2 2745   4.757   4.555   2.806
  930TIP3   OH2 2746   0.307   5.464   6.726
  930TIP3    H1 2747   0.298   5.494   6.635
  930TIP3    H2 2748   0.400   5.473   6.745
  931TIP3   OH2 2749   5.945   7.269   3.521
  931TIP3    H1 2750   5.907   7.186   3.546
  931TIP3    H2 2751   5.871   7.323   3.492
  932TIP3   OH2 2752   3.233   1.598   4.404
  932TIP3    H1 2753   3.174   1.627   4.473
  932TIP3    H2 2754   3.311   1.653   4.414
  933TIP3   OH2 2755   2.349   0.970   6.322
  933TIP3    H1 2756   2.439   0.998   6.306
  933TIP3    H2 2757   2.351   0.931   6.409
  934TIP3   OH2 2758   4.237   5.500   5.544
  934TIP3    H1 2759   4.192   5.450   5.476
  934TIP3    H2 2760   4.240   5.589   5.511
  935TIP3   OH2 2761   2.650   1.118   0.397
  935TIP3    H1 2762   2.661   1.024   0.413
  935TIP3    H2 2763   2.639   1.125   0.302
  936TIP3   OH2 2764   2.081   1.771   5.472
  936TIP3    H1 2765   2.147   1.729   5.417
  936TIP3    H2 2766   2.011   1.795   5.411
  937TIP3   OH2 2767   8.267   6.968   5.094
  937TIP3    H1 2768   8.338   6.949   5.032
  937TIP3    H2 2769   8.250   7.062   5.082
  938TIP3   OH2 2770   6.694   5.434   4.656
  938TIP3    H1 2771   6.664   5.373   4.588
  938TIP3    H2 2772   6.748   5.381   4.714
  939TIP3   OH2 2773   6.965   7.326   5.062
  939TIP3    H1 2774   6.895   7.356   5.120
  939TIP3    H2 2775   6.934   7.243   5.028
  940TIP3   OH2 2776   5.025   3.555   3.663
  940TIP3    H1 2777   4.974   3.599   3.596
  940TIP3    H2 2778   4.960   3.507   3.715
  941TIP3   OH2 2779   3.832   4.400   6.046
  941TIP3    H1 2780   3.907   4.459   6.049
  941TIP3    H2 2781   3.765   4.443   6.099
  942TIP3   OH2 2782   3.784   3.497   2.176
  942TIP3    H1 2783   3.854   3.487   2.240
  942TIP3    H2 2784   3.707   3.458   2.217
  943TIP3   OH2 2785   4.765   5.351   0.310
  943TIP3    H1 2786   4.681   5.328   0.270
  943TIP3    H2 2787   4.824   5.367   0.237
  944TIP3   OH2 2788   8.270   0.941   0.189
  944TIP3    H1 2789   8.346   0.882   0.184
  944TIP3    H2 2790   8.258   0.973   0.099
  945TIP3   OH2 2791   0.417   2.476   5.095
  945TIP3    H1 2792   0.452   2.565   5.101
  945TIP3    H2 2793   0.323   2.486   5.110
  946TIP3   OH2 2794   6.348   1.230   4.992
  946TIP3    H1 2795   6.356   1.206   5.085
  946TIP3    H2 2796   6.434   1.265   4.969
  947TIP3   OH2 2797   2.865   3.937   0.905
  947TIP3    H1 2798   2.852   3.896   0.990
  947TIP3    H2 2799   2.883   3.864   0.845
  948TIP3   OH2 2800   4.374   4.207   0.700
  948TIP3    H1 2801   4.463   4.175   0.717
  948TIP3    H2 2802   4.380   4.250   0.615
  949TIP3   OH2 2803   7.469   0.351   2.239
  949TIP3    H1 2804   7.432   0.266   2.215
  949TIP3    H2 2805   7.556   0.331   2.273
  950TIP3   OH2 2806   6.073   3.229   5.261
  950TIP3    H1 2807   6.032   3.222   5.175
  950TIP3    H2 2808   6.037   3.155   5.311
  951TIP3   OH2 2809   3.291   1.004   1.607
  951TIP3    H1 2810   3.316   0.933   1.548
  951TIP3    H2 2811   3.224   0.965   1.664
  952TIP3   OH2 2812   1.128   0.981   6.371
  952TIP3    H1 2813   1.121   1.068   6.333
  952TIP3    H2 2814   1.067   0.982   6.445
  953TIP3   OH2 2815   3.427   7.366   5.151
  953TIP3    H1 2816   3.450   7.451   5.112
  953TIP3    H2 2817   3.346   7.382   5.198
  954TIP3   OH2 2818   1.537   2.154   6.710
  954TIP3    H1 2819   1.585   2.091   6.656
  954TIP3    H2 2820   1.542   2.236   6.661
  955TIP3   OH2 2821   6.618   3.255   4.715
  955TIP3    H1 2822   6.611   3.343   4.679
  955TIP3    H2 2823   6.710   3.247   4.743
  956TIP3   OH2 2824   6.696   4.086   6.467
  956TIP3    H1 2825   6.710   4.143   6.543
  956TIP3    H2 2826   6.654   4.008   6.503
  957TIP3   OH2 2827   6.693   4.627   4.636
  957TIP3    H1 2828   6.713   4.553   4.693
  957TIP3    H2 2829   6.633   4.592   4.570
  958TIP3   OH2 2830   5.424   5.207   5.682
  958TIP3    H1 2831   5.384   5.121   5.697
  958TIP3    H2 2832   5.518   5.190   5.678
  959TIP3   OH2 2833   3.571   3.610   4.255
  959TIP3    H1 2834   3.483   3.572   4.252
  959TIP3    H2 2835   3.613   3.568   4.330
  960TIP3   OH2 2836   2.102   4.234   1.063
  960TIP3    H1 2837   2.105   4.313   1.116
  960TIP3    H2 2838   2.133   4.164   1.121
  961TIP3   OH2 2839   0.483   7.655   5.412
  961TIP3    H1 2840   0.544   7.656   5.485
  961TIP3    H2 2841   0.476   7.747   5.385
  962TIP3   OH2 2842   0.759   0.054   6.720
  962TIP3    H1 2843   0.834   0.103   6.686
  962TIP3    H2 2844   0.799  -0.020   6.767
  963TIP3   OH2 2845   4.177   6.945   4.252
  963TIP3    H1 2846   4.117   6.872   4.237
  963TIP3    H2 2847   4.243   6.909   4.312
  964TIP3   OH2 2848   6.964   5.799   2.514
  964TIP3    H1 2849   6.912   5.853   2.573
  964TIP3    H2 2850   6.994   5.860   2.447
  965TIP3   OH2 2851   8.107   2.451   3.818
  965TIP3    H1 2852   8.023   2.465   3.774
  965TIP3    H2 2853   8.105   2.510   3.893
  966TIP3   OH2 2854   5.675   3.178   2.348
  966TIP3    H1 2855   5.709   3.218   2.428
  966TIP3    H2 2856   5.748   3.182   2.286
  967TIP3   OH2 2857   8.154   4.489   4.040
  967TIP3    H1 2858   8.230   4.534   4.003
  967TIP3    H2 2859   8.090   4.559   4.054
  968TIP3   OH2 2860   2.129   5.149   0.095
  968TIP3    H1 2861   2.037   5.154   0.121
  968TIP3    H2 2862   2.144   5.057   0.077
  969TIP3   OH2 2863   3.644   5.974   5.293
  969TIP3    H1 2864   3.666   5.960   5.200
  969TIP3    H2 2865   3.645   6.069   5.304
  970TIP3   OH2 2866   4.448   5.192   5.387
  970TIP3    H1 2867   4.398   5.216   5.465
  970TIP3    H2 2868   4.505   5.267   5.371
  971TIP3   OH2 2869   2.043   1.670   3.702
  971TIP3    H1 2870   2.021   1.582   3.672
  971TIP3    H2 2871   2.044   1.723   3.622
  972TIP3   OH2 2872   0.185   7.324   0.294
  972TIP3    H1 2873   0.181   7.254   0.358
  972TIP3    H2 2874   0.239   7.289   0.223
  973TIP3   OH2 2875   7.976   3.473   3.711
  973TIP3    H1 2876   8.029   3.553   3.715
  973TIP3    H2 2877   7.896   3.500   3.665
  974TIP3   OH2 2878   5.595   4.877   0.894
  974TIP3    H1 2879   5.600   4.969   0.867
  974TIP3    H2 2880   5.631   4.876   0.983
  975TIP3   OH2 2881   8.036   5.879   5.667
  975TIP3    H1 2882   8.070   5.901   5.581
  975TIP3    H2 2883   7.976   5.951   5.689
  976TIP3   OH2 2884   3.670   3.688   3.974
  976TIP3    H1 2885   3.724   3.619   3.937
  976TIP3    H2 2886   3.628   3.647   4.050
  977TIP3   OH2 2887   4.888   4.053   3.918
  977TIP3    H1 2888   4.795   4.046   3.937
  977TIP3    H2 2889   4.911   3.969   3.878
  978TIP3   OH2 2890   2.154   7.436   5.779
  978TIP3    H1 2891   2.172   7.357   5.729
  978TIP3    H2 2892   2.215   7.433   5.853
  979TIP3   OH2 2893   1.099   5.928   4.656
  979TIP3    H1 2894   1.065   5.862   4.595
  979TIP3    H2 2895   1.054   5.909   4.738
  980TIP3   OH2 2896   4.434   7.099   1.009
  980TIP3    H1 2897   4.419   7.166   1.075
  980TIP3    H2 2898   4.347   7.063   0.990
  981TIP3   OH2 2899   4.553   1.479   3.287
  981TIP3    H1 2900   4.631   1.493   3.233
  981TIP3    H2 2901   4.550   1.555   3.344
  982TIP3   OH2 2902   7.607   6.262   0.934
  982TIP3    H1 2903   7.604   6.357   0.947
  982TIP3    H2 2904   7.515   6.237   0.920
  983TIP3   OH2 2905   4.988   6.818   5.589
  983TIP3    H1 2906   5.069   6.795   5.634
  983TIP3    H2 2907   5.008   6.804   5.496
  984TIP3   OH2 2908   3.793   4.051   5.763
  984TIP3    H1 2909   3.837   4.102   5.832
  984TIP3    H2 2910   3.863   4.029   5.702
  985TIP3   OH2 2911   4.133   1.908   2.570
  985TIP3    H1 2912   4.051   1.869   2.541
  985TIP3    H2 2913   4.200   1.844   2.545
  986TIP3   OH2 2914   8.287   0.422   3.778
  986TIP3    H1 2915   8.241   0.474   3.843
  986TIP3    H2 2916   8.229   0.347   3.762
  987TIP3   OH2 2917   7.202   2.930   5.681
  987TIP3    H1 2918   7.285   2.916   5.636
  987TIP3    H2 2919   7.138   2.941   5.610
  988TIP3   OH2 2920   7.742   1.919   1.592
  988TIP3    H1 2921   7.707   1.977   1.660
  988TIP3    H2 2922   7.693   1.838   1.602
  989TIP3   OH2 2923   1.287   6.977   2.763
  989TIP3    H1 2924   1.243   6.896   2.738
  989TIP3    H2 2925   1.237   7.008   2.839
  990TIP3   OH2 2926   6.969   6.282   4.504
  990TIP3    H1 2927   6.933   6.253   4.588
  990TIP3    H2 2928   7.055   6.242   4.500
  991TIP3   OH2 2929   2.291   2.911   5.585
  991TIP3    H1 2930   2.372   2.960   5.598
  991TIP3    H2 2931   2.229   2.976   5.553
  992TIP3   OH2 2932   2.767   4.808   5.134
  992TIP3    H1 2933   2.730   4.857   5.061
  992TIP3    H2 2934   2.851   4.776   5.101
  993TIP3   OH2 2935   6.234   7.774   3.978
  993TIP3    H1 2936   6.283   7.857   3.980
  993TIP3    H2 2937   6.176   7.778   4.054
  994TIP3   OH2 2938   4.427   5.929   6.091
  994TIP3    H1 2939   4.359   5.993   6.070
  994TIP3    H2 2940   4.422   5.865   6.020
  995TIP3   OH2 2941   1.238   1.926   6.412
  995TIP3    H1 2942   1.203   1.988   6.475
  995TIP3    H2 2943   1.290   1.865   6.466
  996TIP3   OH2 2944   2.685   7.861   6.317
  996TIP3    H1 2945   2.596   7.854   6.351
  996TIP3    H2 2946   2.709   7.771   6.296
  997TIP3   OH2 2947   3.364   1.182   3.939
  997TIP3    H1 2948   3.451   1.162   3.907
  997TIP3    H2 2949   3.312   1.104   3.920
  998TIP3   OH2 2950   6.193   5.886   3.479
  998TIP3    H1 2951   6.113   5.834   3.479
  998TIP3    H2 2952   6.181   5.949   3.408
  999TIP3   OH2 2953   1.049   6.753   5.674
  999TIP3    H1 2954   1.074   6.662   5.659
  999TIP3    H2 2955   0.994   6.750   5.752
 1000TIP3   OH2 2956   1.573   3.236   0.536
 1000TIP3    H1 2957   1.503   3.298   0.555
 1000TIP3    H2 2958   1.537   3.151   0.557
 1001TIP3   OH2 2959   6.571   5.928   1.541
 1001TIP3    H1 2960   6.634   5.991   1.505
 1001TIP3    H2 2961   6.486   5.960   1.513
 1002TIP3   OH2 2962   5.120   4.233   1.600
 1002TIP3    H1 2963   5.034   4.255   1.637
 1002TIP3    H2 2964   5.125   4.283   1.519
 1003TIP3   OH2 2965   1.287   2.694   6.361
 1003TIP3    H1 2966   1.300   2.785   6.335
 1003TIP3    H2 2967   1.272   2.699   6.456
 1004TIP3   OH2 2968   3.960   0.866   0.897
 1004TIP3    H1 2969   3.959   0.788   0.954
 1004TIP3    H2 2970   4.052   0.878   0.876
 1005TIP3   OH2 2971   4.347   0.826   2.664
 1005TIP3    H1 2972   4.272   0.880   2.686
 1005TIP3    H2 2973   4.315   0.736   2.673
 1006TIP3   OH2 2974   2.382   1.883   0.002
 1006TIP3    H1 2975   2.455   1.839   0.045
 1006TIP3    H2 2976   2.313   1.817  -0.002
 1007TIP3   OH2 2977   7.158   6.791   5.292
 1007TIP3    H1 2978   7.241   6.784   5.246
 1007TIP3    H2 2979   7.171   6.742   5.373
 1008TIP3   OH2 2980   3.374   4.558   4.034
 1008TIP3    H1 2981   3.290   4.603   4.040
 1008TIP3    H2 2982   3.356   4.484   3.976
 1009TIP3   OH2 2983   8.279   3.337   2.020
 1009TIP3    H1 2984   8.245   3.268   2.078
 1009TIP3    H2 2985   8.226   3.414   2.041
 1010TIP3   OH2 2986   0.073   1.453   3.236
 1010TIP3    H1 2987   0.080   1.539   3.277
 1010TIP3    H2 2988   0.095   1.391   3.305
 1011TIP3   OH2 2989   3.653   0.820   3.098
 1011TIP3    H1 2990   3.691   0.785   3.179
 1011TIP3    H2 2991   3.561   0.793   3.101
 1012TIP3   OH2 2992   5.552   0.987   3.586
 1012TIP3    H1 2993   5.561   1.073   3.544
 1012TIP3    H2 2994   5.458   0.976   3.599
 1013TIP3   OH2 2995   1.521   0.853   3.791
 1013TIP3    H1 2996   1.492   0.896   3.710
 1013TIP3    H2 2997   1.456   0.784   3.806
 1014TIP3   OH2 2998   5.102   0.724   2.573
 1014TIP3    H1 2999   5.160   0.696   2.643
 1014TIP3    H2 3000   5.158   0.731   2.495
 1015TIP3   OH2 3001   3.397   5.811   1.756
 1015TIP3    H1 3002   3.418   5.828   1.664
 1015TIP3    H2 3003   3.479   5.776   1.793
 1016TIP3   OH2 3004   2.034   5.873   0.366
 1016TIP3    H1 3005   1.949   5.905   0.334
 1016TIP3    H2 3006   2.097   5.936   0.331
 1017TIP3   OH2 3007   3.515   4.471   0.717
 1017TIP3    H1 3008   3.603   4.509   0.719
 1017TIP3    H2 3009   3.468   4.519   0.785
 1018TIP3   OH2 3010   5.479   6.245   0.856
 1018TIP3    H1 3011   5.477   6.179   0.787
 1018TIP3    H2 3012   5.508   6.325   0.813
 1019TIP3   OH2 3013   4.450   6.740   4.216
 1019TIP3    H1 3014   4.409   6.654   4.206
 1019TIP3    H2 3015   4.424   6.768   4.304
 1020TIP3   OH2 3016   3.959   3.655   1.925
 1020TIP3    H1 3017   3.900   3.601   1.977
 1020TIP3    H2 3018   3.941   3.745   1.952
 1021TIP3   OH2 3019   4.122   5.937   4.814
 1021TIP3    H1 3020   4.150   5.868   4.754
 1021TIP3    H2 3021   4.054   5.984   4.765
 1022TIP3   OH2 3022   3.297   5.535   4.943
 1022TIP3    H1 3023   3.268   5.625   4.926
 1022TIP3    H2 3024   3.219   5.481   4.932
 1023TIP3   OH2 3025   4.414   1.100   2.978
 1023TIP3    H1 3026   4.381   1.133   3.062
 1023TIP3    H2 3027   4.441   1.010   2.997
 1024TIP3   OH2 3028   1.556   2.883   4.981
 1024TIP3    H1 3029   1.505   2.906   4.903
 1024TIP3    H2 3030   1.557   2.963   5.033
 1025TIP3   OH2 3031   0.697   2.662   0.368
 1025TIP3    H1 3032   0.641   2.634   0.441
 1025TIP3    H2 3033   0.651   2.738   0.331
 1026TIP3   OH2 3034   7.273   2.348   4.328
 1026TIP3    H1 3035   7.238   2.437   4.338
 1026TIP3    H2 3036   7.268   2.310   4.415
 1027TIP3   OH2 3037   6.878   5.725   1.907
 1027TIP3    H1 3038   6.853   5.655   1.847
 1027TIP3    H2 3039   6.794   5.763   1.935
 1028TIP3   OH2 3040   0.655   5.201   1.058
 1028TIP3    H1 3041   0.669   5.147   0.980
 1028TIP3    H2 3042   0.729   5.181   1.115
 1029TIP3   OH2 3043   6.332   4.781   3.705
 1029TIP3    H1 3044   6.367   4.842   3.770
 1029TIP3    H2 3045   6.397   4.780   3.635
 1030TIP3   OH2 3046   8.134   0.879   4.968
 1030TIP3    H1 3047   8.093   0.883   5.054
 1030TIP3    H2 3048   8.228   0.874   4.986
 1031TIP3   OH2 3049   1.347   6.532   4.376
 1031TIP3    H1 3050   1.308   6.618   4.395
 1031TIP3    H2 3051   1.346   6.526   4.280
 1032TIP3   OH2 3052   3.188   0.610   3.634
 1032TIP3    H1 3053   3.240   0.557   3.574
 1032TIP3    H2 3054   3.223   0.698   3.624
 1033TIP3   OH2 3055   0.824   6.976   2.914
 1033TIP3    H1 3056   0.841   6.921   2.838
 1033TIP3    H2 3057   0.730   6.964   2.932
 1034TIP3   OH2 3058   6.382   7.709   2.366
 1034TIP3    H1 3059   6.317   7.765   2.409
 1034TIP3    H2 3060   6.402   7.754   2.283
 1035TIP3   OH2 3061   3.412   3.364   3.879
 1035TIP3    H1 3062   3.324   3.368   3.842
 1035TIP3    H2 3063   3.460   3.433   3.834
 1036TIP3   OH2 3064   6.231   0.678   4.862
 1036TIP3    H1 3065   6.221   0.591   4.824
 1036TIP3    H2 3066   6.164   0.731   4.817
 1037TIP3   OH2 3067   2.075   4.072   6.118
 1037TIP3    H1 3068   2.015   4.104   6.186
 1037TIP3    H2 3069   2.036   3.991   6.087
 1038TIP3   OH2 3070   0.588   3.505   3.391
 1038TIP3    H1 3071   0.624   3.454   3.318
 1038TIP3    H2 3072   0.646   3.580   3.398
 1039TIP3   OH2 3073   8.182   1.044   4.543
 1039TIP3    H1 3074   8.259   1.032   4.488
 1039TIP3    H2 3075   8.162   1.138   4.538
 1040TIP3   OH2 3076   8.254   2.953   3.732
 1040TIP3    H1 3077   8.212   2.945   3.818
 1040TIP3    H2 3078   8.299   3.037   3.735
 1041TIP3   OH2 3079   2.924   4.741   6.208
 1041TIP3    H1 3080   2.947   4.740   6.115
 1041TIP3    H2 3081   3.008   4.742   6.254
 1042TIP3   OH2 3082   5.924   5.743   5.268
 1042TIP3    H1 3083   5.985   5.735   5.341
 1042TIP3    H2 3084   5.949   5.824   5.225
 1043TIP3   OH2 3085   1.279   4.916   5.438
 1043TIP3    H1 3086   1.246   4.925   5.528
 1043TIP3    H2 3087   1.371   4.940   5.444
 1044TIP3   OH2 3088   1.950   4.924   2.934
 1044TIP3    H1 3089   1.917   4.922   2.844
 1044TIP3    H2 3090   1.945   4.834   2.964
 1045TIP3   OH2 3091   6.007   7.422   4.707
 1045TIP3    H1 3092   6.012   7.490   4.639
 1045TIP3    H2 3093   5.959   7.350   4.666
 1046TIP3   OH2 3094   1.646   0.868   3.073
 1046TIP3    H1 3095   1.635   0.773   3.073
 1046TIP3    H2 3096   1.741   0.881   3.063
 1047TIP3   OH2 3097   2.398   7.237   6.641
 1047TIP3    H1 3098   2.413   7.304   6.574
 1047TIP3    H2 3099   2.382   7.286   6.721
 1048TIP3   OH2 3100   2.215   6.720   3.710
 1048TIP3    H1 3101   2.283   6.761   3.764
 1048TIP3    H2 3102   2.164   6.793   3.675
 1049TIP3   OH2 3103   1.679   6.705   2.118
 1049TIP3    H1 3104   1.761   6.682   2.161
 1049TIP3    H2 3105   1.694   6.687   2.025
 1050TIP3   OH2 3106   2.698   5.345   4.992
 1050TIP3    H1 3107   2.725   5.434   5.015
 1050TIP3    H2 3108   2.607   5.338   5.023
 1051TIP3   OH2 3109   0.166   4.834   4.988
 1051TIP3    H1 3110   0.105   4.809   4.918
 1051TIP3    H2 3111   0.216   4.755   5.006
 1052TIP3   OH2 3112   5.963   3.853   3.786
 1052TIP3    H1 3113   5.958   3.808   3.701
 1052TIP3    H2 3114   5.971   3.782   3.850
 1053TIP3   OH2 3115   0.519   5.912   0.483
 1053TIP3    H1 3116   0.508   5.833   0.537
 1053TIP3    H2 3117   0.582   5.965   0.532
 1054TIP3   OH2 3118   6.463   2.134   5.446
 1054TIP3    H1 3119   6.507   2.083   5.513
 1054TIP3    H2 3120   6.444   2.071   5.376
 1055TIP3   OH2 3121   2.338   3.152   4.625
 1055TIP3    H1 3122   2.270   3.126   4.563
 1055TIP3    H2 3123   2.363   3.241   4.598
 1056TIP3   OH2 3124   4.120   6.500   3.967
 1056TIP3    H1 3125   4.186   6.453   4.019
 1056TIP3    H2 3126   4.160   6.585   3.949
 1057TIP3   OH2 3127   5.251   1.085   1.667
 1057TIP3    H1 3128   5.171   1.093   1.719
 1057TIP3    H2 3129   5.221   1.055   1.582
 1058TIP3   OH2 3130   5.171   6.454   6.315
 1058TIP3    H1 3131   5.102   6.474   6.252
 1058TIP3    H2 3132   5.137   6.380   6.365
 1059TIP3   OH2 3133   4.073   4.549   5.987
 1059TIP3    H1 3134   4.087   4.477   6.048
 1059TIP3    H2 3135   4.028   4.616   6.038
 1060TIP3   OH2 3136   0.777   1.627   2.905
 1060TIP3    H1 3137   0.731   1.630   2.821
 1060TIP3    H2 3138   0.741   1.701   2.955
 1061TIP3   OH2 3139   5.289   1.334   5.575
 1061TIP3    H1 3140   5.230   1.262   5.553
 1061TIP3    H2 3141   5.298   1.329   5.670
 1062TIP3   OH2 3142   3.020   3.726   6.374
 1062TIP3    H1 3143   3.078   3.686   6.309
 1062TIP3    H2 3144   2.974   3.796   6.327
 1063TIP3   OH2 3145   5.699   1.248   1.876
 1063TIP3    H1 3146   5.782   1.252   1.828
 1063TIP3    H2 3147   5.670   1.339   1.881
 1064TIP3   OH2 3148   6.793   0.921   2.202
 1064TIP3    H1 3149   6.782   0.918   2.107
 1064TIP3    H2 3150   6.710   0.888   2.237
 1065TIP3   OH2 3151   7.854   0.095   0.293
 1065TIP3    H1 3152   7.765   0.112   0.324
 1065TIP3    H2 3153   7.910   0.119   0.367
 1066TIP3   OH2 3154   2.207   2.982   0.822
 1066TIP3    H1 3155   2.202   3.012   0.913
 1066TIP3    H2 3156   2.293   3.012   0.791
 1067TIP3   OH2 3157   7.734   4.012   0.051
 1067TIP3    H1 3158   7.816   4.002   0.099
 1067TIP3    H2 3159   7.681   4.070   0.105
 1068TIP3   OH2 3160   5.500   4.622   5.324
 1068TIP3    H1 3161   5.470   4.584   5.241
 1068TIP3    H2 3162   5.520   4.713   5.302
 1069TIP3   OH2 3163   3.284   6.040   3.559
 1069TIP3    H1 3164   3.210   6.097   3.582
 1069TIP3    H2 3165   3.354   6.066   3.618
 1070TIP3   OH2 3166   8.235   3.650   3.089
 1070TIP3    H1 3167   8.222   3.740   3.060
 1070TIP3    H2 3168   8.200   3.648   3.178
 1071TIP3   OH2 3169   0.152   3.480   4.992
 1071TIP3    H1 3170   0.117   3.513   5.074
 1071TIP3    H2 3171   0.075   3.449   4.944
 1072TIP3   OH2 3172   3.901   5.510   2.058
 1072TIP3    H1 3173   3.835   5.489   1.992
 1072TIP3    H2 3174   3.917   5.604   2.046
 1073TIP3   OH2 3175   6.177   3.117   1.526
 1073TIP3    H1 3176   6.082   3.109   1.516
 1073TIP3    H2 3177   6.191   3.207   1.555
 1074TIP3   OH2 3178   1.360   0.366   1.480
 1074TIP3    H1 3179   1.298   0.332   1.415
 1074TIP3    H2 3180   1.305   0.389   1.555
 1075TIP3   OH2 3181   2.517   0.737   5.566
 1075TIP3    H1 3182   2.454   0.804   5.540
 1075TIP3    H2 3183   2.469   0.654   5.558
 1076TIP3   OH2 3184   3.105   4.896   5.509
 1076TIP3    H1 3185   3.103   4.985   5.545
 1076TIP3    H2 3186   3.018   4.861   5.528
 1077TIP3   OH2 3187   3.526   3.798   0.637
 1077TIP3    H1 3188   3.538   3.868   0.573
 1077TIP3    H2 3189   3.448   3.751   0.606
 1078TIP3   OH2 3190   3.275   4.354   3.528
 1078TIP3    H1 3191   3.229   4.420   3.476
 1078TIP3    H2 3192   3.207   4.291   3.553
 1079TIP3   OH2 3193   2.839   7.703   3.865
 1079TIP3    H1 3194   2.766   7.686   3.806
 1079TIP3    H2 3195   2.916   7.703   3.808
 1080TIP3   OH2 3196   4.825   2.730   1.643
 1080TIP3    H1 3197   4.916   2.756   1.630
 1080TIP3    H2 3198   4.822   2.695   1.732
 1081TIP3   OH2 3199   5.418   7.634   1.322
 1081TIP3    H1 3200   5.330   7.607   1.293
 1081TIP3    H2 3201   5.445   7.700   1.258
 1082TIP3   OH2 3202   1.357   5.049   5.127
 1082TIP3    H1 3203   1.276   5.004   5.152
 1082TIP3    H2 3204   1.333   5.102   5.051
 1083TIP3   OH2 3205   5.651   7.485   1.349
 1083TIP3    H1 3206   5.579   7.548   1.355
 1083TIP3    H2 3207   5.684   7.494   1.260
 1084TIP3   OH2 3208   7.840   0.556   1.797
 1084TIP3    H1 3209   7.755   0.532   1.762
 1084TIP3    H2 3210   7.845   0.510   1.881
 1085TIP3   OH2 3211   0.997   2.196   4.580
 1085TIP3    H1 3212   1.065   2.229   4.638
 1085TIP3    H2 3213   1.042   2.182   4.497
 1086TIP3   OH2 3214   7.090   2.141   6.737
 1086TIP3    H1 3215   7.091   2.150   6.642
 1086TIP3    H2 3216   6.997   2.128   6.759
 1087TIP3   OH2 3217   6.779   3.840   5.501
 1087TIP3    H1 3218   6.857   3.855   5.553
 1087TIP3    H2 3219   6.745   3.756   5.531
 1088TIP3   OH2 3220   2.544   5.253   4.319
 1088TIP3    H1 3221   2.507   5.213   4.241
 1088TIP3    H2 3222   2.618   5.196   4.342
 1089TIP3   OH2 3223   7.224   1.694   1.181
 1089TIP3    H1 3224   7.207   1.784   1.209
 1089TIP3    H2 3225   7.194   1.691   1.090
 1090TIP3   OH2 3226   0.435   3.256   2.305
 1090TIP3    H1 3227   0.524   3.261   2.339
 1090TIP3    H2 3228   0.380   3.257   2.383
 1091TIP3   OH2 3229   0.291   5.878   2.242
 1091TIP3    H1 3230   0.314   5.816   2.173
 1091TIP3    H2 3231   0.282   5.824   2.320
 1092TIP3   OH2 3232   4.357   6.044   2.655
 1092TIP3    H1 3233   4.437   6.016   2.610
 1092TIP3    H2 3234   4.290   6.044   2.586
 1093TIP3   OH2 3235   0.983   7.131   0.193
 1093TIP3    H1 3236   1.059   7.078   0.215
 1093TIP3    H2 3237   0.917   7.068   0.166
 1094TIP3   OH2 3238   1.142   0.351   1.310
 1094TIP3    H1 3239   1.055   0.387   1.328
 1094TIP3    H2 3240   1.187   0.421   1.262
 1095TIP3   OH2 3241   4.628   2.474   2.627
 1095TIP3    H1 3242   4.579   2.547   2.591
 1095TIP3    H2 3243   4.582   2.395   2.597
 1096TIP3   OH2 3244   5.466   6.655   6.665
 1096TIP3    H1 3245   5.454   6.726   6.728
 1096TIP3    H2 3246   5.462   6.696   6.579
 1097TIP3   OH2 3247   5.576   2.229   1.585
 1097TIP3    H1 3248   5.511   2.251   1.518
 1097TIP3    H2 3249   5.658   2.222   1.537
 1098TIP3   OH2 3250   6.392   2.620   4.528
 1098TIP3    H1 3251   6.356   2.532   4.512
 1098TIP3    H2 3252   6.464   2.627   4.465
 1099TIP3   OH2 3253   5.304   5.139   0.226
 1099TIP3    H1 3254   5.309   5.044   0.211
 1099TIP3    H2 3255   5.216   5.163   0.196
 1100TIP3   OH2 3256   7.930   6.526   2.416
 1100TIP3    H1 3257   7.879   6.460   2.462
 1100TIP3    H2 3258   7.999   6.550   2.478
 1101TIP3   OH2 3259   4.967   5.316   6.570
 1101TIP3    H1 3260   4.991   5.289   6.659
 1101TIP3    H2 3261   4.871   5.317   6.571
 1102TIP3   OH2 3262   4.633   6.575   3.105
 1102TIP3    H1 3263   4.610   6.668   3.102
 1102TIP3    H2 3264   4.566   6.532   3.053
 1103TIP3   OH2 3265   5.093   7.341   5.733
 1103TIP3    H1 3266   4.999   7.331   5.721
 1103TIP3    H2 3267   5.132   7.267   5.686
 1104TIP3   OH2 3268   4.492   7.303   5.400
 1104TIP3    H1 3269   4.465   7.381   5.351
 1104TIP3    H2 3270   4.492   7.331   5.492
 1105TIP3   OH2 3271   2.395   1.731   2.538
 1105TIP3    H1 3272   2.313   1.780   2.532
 1105TIP3    H2 3273   2.392   1.689   2.625
 1106TIP3   OH2 3274   6.430   4.467   2.928
 1106TIP3    H1 3275   6.411   4.376   2.903
 1106TIP3    H2 3276   6.410   4.518   2.850
 1107TIP3   OH2 3277   3.852   6.952   3.675
 1107TIP3    H1 3278   3.896   7.004   3.607
 1107TIP3    H2 3279   3.919   6.939   3.742
 1108TIP3   OH2 3280   3.284   6.404   2.451
 1108TIP3    H1 3281   3.354   6.437   2.507
 1108TIP3    H2 3282   3.209   6.460   2.469
 1109TIP3   OH2 3283   5.875   0.173   1.807
 1109TIP3    H1 3284   5.896   0.143   1.895
 1109TIP3    H2 3285   5.804   0.237   1.819
 1110TIP3   OH2 3286   7.541   6.619   5.398
 1110TIP3    H1 3287   7.606   6.555   5.368
 1110TIP3    H2 3288   7.592   6.690   5.436
 1111TIP3   OH2 3289   5.086   1.613   4.696
 1111TIP3    H1 3290   5.131   1.560   4.630
 1111TIP3    H2 3291   5.124   1.586   4.779
 1112TIP3   OH2 3292   3.556   0.257   4.199
 1112TIP3    H1 3293   3.611   0.252   4.121
 1112TIP3    H2 3294   3.483   0.198   4.181
 1113TIP3   OH2 3295   1.328   1.970   4.237
 1113TIP3    H1 3296   1.328   1.966   4.333
 1113TIP3    H2 3297   1.415   2.005   4.215
 1114TIP3   OH2 3298   6.641   7.577   6.482
 1114TIP3    H1 3299   6.576   7.636   6.443
 1114TIP3    H2 3300   6.590   7.501   6.508
 1115TIP3   OH2 3301   2.566   7.710   1.183
 1115TIP3    H1 3302   2.630   7.642   1.205
 1115TIP3    H2 3303   2.547   7.752   1.266
 1116TIP3   OH2 3304   0.819   0.772   1.265
 1116TIP3    H1 3305   0.738   0.822   1.270
 1116TIP3    H2 3306   0.888   0.838   1.273
 1117TIP3   OH2 3307   1.722   7.361   0.611
 1117TIP3    H1 3308   1.694   7.361   0.703
 1117TIP3    H2 3309   1.787   7.291   0.606
 1118TIP3   OH2 3310   7.363   2.089   0.680
 1118TIP3    H1 3311   7.280   2.121   0.645
 1118TIP3    H2 3312   7.360   2.110   0.773
 1119TIP3   OH2 3313   1.655   3.573   2.273
 1119TIP3    H1 3314   1.725   3.632   2.245
 1119TIP3    H2 3315   1.579   3.629   2.285
 1120TIP3   OH2 3316   7.482   3.394   6.048
 1120TIP3    H1 3317   7.499   3.439   5.965
 1120TIP3    H2 3318   7.420   3.452   6.093
 1121TIP3   OH2 3319   1.055   1.986   5.235
 1121TIP3    H1 3320   1.048   2.059   5.173
 1121TIP3    H2 3321   0.995   1.920   5.201
 1122TIP3   OH2 3322   7.578   6.685   4.476
 1122TIP3    H1 3323   7.635   6.756   4.506
 1122TIP3    H2 3324   7.492   6.727   4.466
 1123TIP3   OH2 3325   0.781   6.620   0.478
 1123TIP3    H1 3326   0.853   6.585   0.530
 1123TIP3    H2 3327   0.722   6.658   0.543
 1124TIP3   OH2 3328   0.334   5.903   1.698
 1124TIP3    H1 3329   0.261   5.951   1.736
 1124TIP3    H2 3330   0.316   5.811   1.716
 1125TIP3   OH2 3331   2.484   0.229   4.964
 1125TIP3    H1 3332   2.495   0.185   5.048
 1125TIP3    H2 3333   2.405   0.192   4.927
 1126TIP3   OH2 3334   4.641   3.431   3.827
 1126TIP3    H1 3335   4.598   3.483   3.759
 1126TIP3    H2 3336   4.573   3.373   3.861
 1127TIP3   OH2 3337   0.106   7.161   0.503
 1127TIP3    H1 3338   0.134   7.146   0.594
 1127TIP3    H2 3339   0.016   7.192   0.510
 1128TIP3   OH2 3340   1.605   4.892   6.464
 1128TIP3    H1 3341   1.639   4.870   6.550
 1128TIP3    H2 3342   1.581   4.985   6.470
 1129TIP3   OH2 3343   5.647   7.297   4.534
 1129TIP3    H1 3344   5.652   7.334   4.446
 1129TIP3    H2 3345   5.615   7.370   4.588
 1130TIP3   OH2 3346   1.973   1.033   2.871
 1130TIP3    H1 3347   1.911   1.104   2.890
 1130TIP3    H2 3348   2.027   1.067   2.800
 1131TIP3   OH2 3349   0.925   0.945   4.371
 1131TIP3    H1 3350   0.843   0.970   4.329
 1131TIP3    H2 3351   0.982   0.920   4.298
 1132TIP3   OH2 3352   3.302   0.282   1.129
 1132TIP3    H1 3353   3.213   0.248   1.141
 1132TIP3    H2 3354   3.357   0.204   1.124
 1133TIP3   OH2 3355   6.720   7.594   2.589
 1133TIP3    H1 3356   6.790   7.650   2.554
 1133TIP3    H2 3357   6.647   7.654   2.604
 1134TIP3   OH2 3358   4.443   0.884   4.492
 1134TIP3    H1 3359   4.376   0.944   4.523
 1134TIP3    H2 3360   4.394   0.806   4.465
 1135TIP3   OH2 3361   1.474   2.268   3.915
 1135TIP3    H1 3362   1.507   2.356   3.897
 1135TIP3    H2 3363   1.383   2.270   3.887
 1136TIP3   OH2 3364   6.918   1.016   1.109
 1136TIP3    H1 3365   6.919   1.093   1.052
 1136TIP3    H2 3366   6.942   1.050   1.195
 1137TIP3   OH2 3367   7.831   3.119   1.291
 1137TIP3    H1 3368   7.872   3.153   1.211
 1137TIP3    H2 3369   7.807   3.197   1.340
 1138TIP3   OH2 3370   4.987   1.828   4.549
 1138TIP3    H1 3371   5.011   1.774   4.624
 1138TIP3    H2 3372   5.063   1.886   4.536
 1139TIP3   OH2 3373   3.756   1.623   3.884
 1139TIP3    H1 3374   3.824   1.639   3.950
 1139TIP3    H2 3375   3.681   1.592   3.934
 1140TIP3   OH2 3376   6.372   4.235   6.311
 1140TIP3    H1 3377   6.349   4.153   6.356
 1140TIP3    H2 3378   6.439   4.275   6.367
 1141TIP3   OH2 3379   2.282   7.462   2.864
 1141TIP3    H1 3380   2.314   7.552   2.855
 1141TIP3    H2 3381   2.327   7.413   2.795
 1142TIP3   OH2 3382   0.417   6.903   2.700
 1142TIP3    H1 3383   0.327   6.918   2.673
 1142TIP3    H2 3384   0.468   6.967   2.651
 1143TIP3   OH2 3385   1.080   6.208   4.868
 1143TIP3    H1 3386   1.081   6.113   4.861
 1143TIP3    H2 3387   1.139   6.238   4.799
 1144TIP3   OH2 3388   6.666   2.241   4.243
 1144TIP3    H1 3389   6.707   2.319   4.205
 1144TIP3    H2 3390   6.580   2.236   4.201
 1145TIP3   OH2 3391   3.470   1.610   0.719
 1145TIP3    H1 3392   3.474   1.546   0.649
 1145TIP3    H2 3393   3.396   1.666   0.696
 1146TIP3   OH2 3394   1.416   4.255   2.294
 1146TIP3    H1 3395   1.387   4.215   2.212
 1146TIP3    H2 3396   1.340   4.246   2.352
 1147TIP3   OH2 3397   6.041   3.571   2.998
 1147TIP3    H1 3398   6.062   3.478   3.002
 1147TIP3    H2 3399   6.109   3.613   3.051
 1148TIP3   OH2 3400   5.971   2.367   3.969
 1148TIP3    H1 3401   6.020   2.447   3.950
 1148TIP3    H2 3402   5.886   2.398   4.001
 1149TIP3   OH2 3403   8.160   3.591   1.993
 1149TIP3    H1 3404   8.075   3.611   1.954
 1149TIP3    H2 3405   8.225   3.625   1.931
 1150TIP3   OH2 3406   1.472   5.431   0.273
 1150TIP3    H1 3407   1.515   5.365   0.218
 1150TIP3    H2 3408   1.385   5.395   0.290
 1151TIP3   OH2 3409   2.204   4.964   6.534
 1151TIP3    H1 3410   2.282   5.020   6.533
 1151TIP3    H2 3411   2.134   5.021   6.565
 1152TIP3   OH2 3412   7.941   7.809   1.443
 1152TIP3    H1 3413   7.942   7.901   1.470
 1152TIP3    H2 3414   8.027   7.795   1.403
 1153TIP3   OH2 3415   3.194   1.200   0.403
 1153TIP3    H1 3416   3.222   1.278   0.355
 1153TIP3    H2 3417   3.275   1.158   0.431
 1154TIP3   OH2 3418   7.614   3.195   4.969
 1154TIP3    H1 3419   7.554   3.221   5.040
 1154TIP3    H2 3420   7.688   3.255   4.977
 1155TIP3   OH2 3421   2.548   7.229   0.867
 1155TIP3    H1 3422   2.461   7.267   0.858
 1155TIP3    H2 3423   2.585   7.272   0.944
 1156TIP3   OH2 3424   7.863   1.676   4.932
 1156TIP3    H1 3425   7.871   1.625   4.851
 1156TIP3    H2 3426   7.914   1.755   4.916
 1157TIP3   OH2 3427   0.072   0.970   4.357
 1157TIP3    H1 3428   0.084   0.912   4.283
 1157TIP3    H2 3429   0.063   1.057   4.318
 1158TIP3   OH2 3430   0.909   0.051   3.552
 1158TIP3    H1 3431   0.947  -0.035   3.532
 1158TIP3    H2 3432   0.960   0.113   3.499
 1159TIP3   OH2 3433   4.571   2.651   5.219
 1159TIP3    H1 3434   4.544   2.720   5.279
 1159TIP3    H2 3435   4.500   2.587   5.223
 1160TIP3   OH2 3436   1.841   1.698   2.075
 1160TIP3    H1 3437   1.881   1.763   2.017
 1160TIP3    H2 3438   1.861   1.614   2.034
 1161TIP3   OH2 3439   4.458   7.101   4.988
 1161TIP3    H1 3440   4.399   7.173   4.963
 1161TIP3    H2 3441   4.433   7.080   5.078
 1162TIP3   OH2 3442   5.019   0.487   3.975
 1162TIP3    H1 3443   5.048   0.510   3.887
 1162TIP3    H2 3444   4.928   0.460   3.963
 1163TIP3   OH2 3445   7.602   6.796   0.713
 1163TIP3    H1 3446   7.557   6.842   0.642
 1163TIP3    H2 3447   7.643   6.721   0.671
 1164TIP3   OH2 3448   3.147   5.809   5.722
 1164TIP3    H1 3449   3.137   5.816   5.627
 1164TIP3    H2 3450   3.237   5.779   5.734
 1165TIP3   OH2 3451   4.953   0.961   0.738
 1165TIP3    H1 3452   4.947   0.873   0.700
 1165TIP3    H2 3453   5.037   0.962   0.783
 1166TIP3   OH2 3454   2.337   3.985   1.433
 1166TIP3    H1 3455   2.420   4.031   1.447
 1166TIP3    H2 3456   2.321   3.992   1.339
 1167TIP3   OH2 3457   5.979   2.873   2.078
 1167TIP3    H1 3458   6.025   2.917   2.006
 1167TIP3    H2 3459   5.927   2.804   2.035
 1168TIP3   OH2 3460   0.605   0.462   1.987
 1168TIP3    H1 3461   0.596   0.557   1.996
 1168TIP3    H2 3462   0.536   0.426   2.043
 1169TIP3   OH2 3463   1.650   0.885   2.509
 1169TIP3    H1 3464   1.555   0.891   2.496
 1169TIP3    H2 3465   1.683   0.973   2.491
 1170TIP3   OH2 3466   2.835   3.481   1.731
 1170TIP3    H1 3467   2.929   3.463   1.725
 1170TIP3    H2 3468   2.793   3.408   1.685
 1171TIP3   OH2 3469   6.455   7.135   3.491
 1171TIP3    H1 3470   6.432   7.134   3.398
 1171TIP3    H2 3471   6.501   7.053   3.506
 1172TIP3   OH2 3472   1.084   7.397   5.707
 1172TIP3    H1 3473   1.074   7.483   5.666
 1172TIP3    H2 3474   1.130   7.414   5.789
 1173TIP3   OH2 3475   4.107   3.726   4.400
 1173TIP3    H1 3476   4.100   3.653   4.338
 1173TIP3    H2 3477   4.193   3.714   4.441
 1174TIP3   OH2 3478   7.656   6.231   2.698
 1174TIP3    H1 3479   7.658   6.270   2.785
 1174TIP3    H2 3480   7.580   6.173   2.699
 1175TIP3   OH2 3481   1.068   2.957   4.868
 1175TIP3    H1 3482   1.137   3.023   4.876
 1175TIP3    H2 3483   1.079   2.901   4.945
 1176TIP3   OH2 3484   6.625   6.688   3.704
 1176TIP3    H1 3485   6.719   6.683   3.686
 1176TIP3    H2 3486   6.618   6.678   3.799
 1177TIP3   OH2 3487   1.148   4.390   1.885
 1177TIP3    H1 3488   1.153   4.442   1.805
 1177TIP3    H2 3489   1.080   4.325   1.867
 1178TIP3   OH2 3490   0.825   5.633   6.254
 1178TIP3    H1 3491   0.842   5.640   6.348
 1178TIP3    H2 3492   0.875   5.704   6.215
 1179TIP3   OH2 3493   5.207   1.771   6.535
 1179TIP3    H1 3494   5.284   1.819   6.504
 1179TIP3    H2 3495   5.190   1.808   6.622
 1180TIP3   OH2 3496   5.844   1.524   6.008
 1180TIP3    H1 3497   5.914   1.588   5.990
 1180TIP3    H2 3498   5.858   1.498   6.099
 1181TIP3   OH2 3499   8.080   4.492   3.045
 1181TIP3    H1 3500   8.122   4.578   3.051
 1181TIP3    H2 3501   8.077   4.460   3.135
 1182TIP3   OH2 3502   1.900   4.558   1.356
 1182TIP3    H1 3503   1.929   4.645   1.383
 1182TIP3    H2 3504   1.804   4.563   1.359
 1183TIP3   OH2 3505   2.697   5.782   1.589
 1183TIP3    H1 3506   2.634   5.741   1.647
 1183TIP3    H2 3507   2.649   5.795   1.507
 1184TIP3   OH2 3508   4.861   7.299   1.340
 1184TIP3    H1 3509   4.784   7.266   1.293
 1184TIP3    H2 3510   4.922   7.225   1.341
 1185TIP3   OH2 3511   8.140   2.129   2.606
 1185TIP3    H1 3512   8.101   2.146   2.692
 1185TIP3    H2 3513   8.139   2.034   2.598
 1186TIP3   OH2 3514   2.330   7.674   4.081
 1186TIP3    H1 3515   2.311   7.767   4.072
 1186TIP3    H2 3516   2.244   7.632   4.081
 1187TIP3   OH2 3517   4.932   2.374   1.191
 1187TIP3    H1 3518   4.844   2.348   1.217
 1187TIP3    H2 3519   4.918   2.437   1.120
 1188TIP3   OH2 3520   6.182   5.184   5.008
 1188TIP3    H1 3521   6.142   5.190   4.921
 1188TIP3    H2 3522   6.237   5.106   5.003
 1189TIP3   OH2 3523   6.890   6.728   6.166
 1189TIP3    H1 3524   6.965   6.668   6.175
 1189TIP3    H2 3525   6.893   6.756   6.075
 1190TIP3   OH2 3526   7.988   2.205   6.416
 1190TIP3    H1 3527   8.059   2.174   6.360
 1190TIP3    H2 3528   8.030   2.266   6.477
 1191TIP3   OH2 3529   7.174   2.924   1.353
 1191TIP3    H1 3530   7.112   2.979   1.307
 1191TIP3    H2 3531   7.120   2.864   1.404
 1192TIP3   OH2 3532   6.240   6.725   1.985
 1192TIP3    H1 3533   6.191   6.696   2.062
 1192TIP3    H2 3534   6.173   6.754   1.924
 1193TIP3   OH2 3535   7.707   0.442   6.062
 1193TIP3    H1 3536   7.773   0.417   6.126
 1193TIP3    H2 3537   7.623   0.423   6.105
 1194TIP3   OH2 3538   7.348   0.360   0.404
 1194TIP3    H1 3539   7.272   0.365   0.346
 1194TIP3    H2 3540   7.408   0.426   0.370
 1195TIP3   OH2 3541   2.669   3.842   0.539
 1195TIP3    H1 3542   2.646   3.912   0.477
 1195TIP3    H2 3543   2.585   3.803   0.562
 1196TIP3   OH2 3544   0.964   4.902   1.093
 1196TIP3    H1 3545   1.016   4.828   1.061
 1196TIP3    H2 3546   0.880   4.892   1.049
 1197TIP3   OH2 3547   4.827   0.037   3.207
 1197TIP3    H1 3548   4.847   0.131   3.213
 1197TIP3    H2 3549   4.864   0.010   3.123
 1198TIP3   OH2 3550   1.192   0.672   5.372
 1198TIP3    H1 3551   1.163   0.735   5.306
 1198TIP3    H2 3552   1.111   0.630   5.402
 1199TIP3   OH2 3553   2.154   1.001   5.618
 1199TIP3    H1 3554   2.144   0.939   5.546
 1199TIP3    H2 3555   2.148   1.087   5.577
 1200TIP3   OH2 3556   3.447   3.886   4.690
 1200TIP3    H1 3557   3.526   3.903   4.740
 1200TIP3    H2 3558   3.466   3.807   4.639
 1201TIP3   OH2 3559   6.780   4.118   2.878
 1201TIP3    H1 3560   6.848   4.068   2.923
 1201TIP3    H2 3561   6.800   4.209   2.900
 1202TIP3   OH2 3562   3.545   4.120   1.620
 1202TIP3    H1 3563   3.595   4.201   1.620
 1202TIP3    H2 3564   3.611   4.051   1.635
 1203TIP3   OH2 3565   7.347   4.974   1.955
 1203TIP3    H1 3566   7.339   5.069   1.955
 1203TIP3    H2 3567   7.440   4.958   1.972
 1204TIP3   OH2 3568   3.452   6.124   6.251
 1204TIP3    H1 3569   3.401   6.203   6.235
 1204TIP3    H2 3570   3.522   6.153   6.311
 1205TIP3   OH2 3571   3.113   1.766   5.766
 1205TIP3    H1 3572   3.119   1.826   5.692
 1205TIP3    H2 3573   3.198   1.723   5.770
 1206TIP3   OH2 3574   2.858  -0.025   3.011
 1206TIP3    H1 3575   2.779   0.003   2.965
 1206TIP3    H2 3576   2.907   0.056   3.025
 1207TIP3   OH2 3577   3.400   2.016   5.756
 1207TIP3    H1 3578   3.440   1.935   5.723
 1207TIP3    H2 3579   3.442   2.086   5.706
 1208TIP3   OH2 3580   5.147   2.101   2.966
 1208TIP3    H1 3581   5.146   2.058   3.052
 1208TIP3    H2 3582   5.208   2.174   2.977
 1209TIP3   OH2 3583   1.268   4.743   1.000
 1209TIP3    H1 3584   1.360   4.717   1.010
 1209TIP3    H2 3585   1.236   4.752   1.090
 1210TIP3   OH2 3586   5.652   1.697   2.983
 1210TIP3    H1 3587   5.589   1.639   3.027
 1210TIP3    H2 3588   5.636   1.783   3.023
 1211TIP3   OH2 3589   5.122   1.258   0.295
 1211TIP3    H1 3590   5.115   1.316   0.220
 1211TIP3    H2 3591   5.081   1.176   0.267
 1212TIP3   OH2 3592   2.514   3.485   5.719
 1212TIP3    H1 3593   2.591   3.537   5.697
 1212TIP3    H2 3594   2.473   3.467   5.634
 1213TIP3   OH2 3595   3.895   1.630   0.784
 1213TIP3    H1 3596   3.831   1.575   0.738
 1213TIP3    H2 3597   3.902   1.708   0.729
 1214TIP3   OH2 3598   7.890   1.201   0.020
 1214TIP3    H1 3599   7.917   1.278   0.070
 1214TIP3    H2 3600   7.875   1.234  -0.068
 1215TIP3   OH2 3601   5.929   6.274   0.107
 1215TIP3    H1 3602   5.948   6.223   0.186
 1215TIP3    H2 3603   6.005   6.331   0.097
 1216TIP3   OH2 3604   7.301   2.484   0.067
 1216TIP3    H1 3605   7.272   2.396   0.091
 1216TIP3    H2 3606   7.388   2.470   0.029
 1217TIP3   OH2 3607   1.709   2.551   6.591
 1217TIP3    H1 3608   1.699   2.596   6.507
 1217TIP3    H2 3609   1.802   2.527   6.594
 1218TIP3   OH2 3610   5.219   6.778   1.099
 1218TIP3    H1 3611   5.281   6.723   1.146
 1218TIP3    H2 3612   5.225   6.748   1.008
 1219TIP3   OH2 3613   5.277   1.777   0.693
 1219TIP3    H1 3614   5.227   1.742   0.766
 1219TIP3    H2 3615   5.253   1.870   0.689
 1220TIP3   OH2 3616   2.222   6.217   5.815
 1220TIP3    H1 3617   2.238   6.291   5.874
 1220TIP3    H2 3618   2.249   6.140   5.865
 1221TIP3   OH2 3619   0.597   0.399   0.611
 1221TIP3    H1 3620   0.526   0.363   0.665
 1221TIP3    H2 3621   0.560   0.402   0.523
 1222TIP3   OH2 3622   5.401   0.328   1.952
 1222TIP3    H1 3623   5.475   0.318   1.892
 1222TIP3    H2 3624   5.376   0.420   1.946
 1223TIP3   OH2 3625   4.903   5.869   4.491
 1223TIP3    H1 3626   4.856   5.817   4.556
 1223TIP3    H2 3627   4.891   5.822   4.409
 1224TIP3   OH2 3628   4.330   6.674   1.306
 1224TIP3    H1 3629   4.355   6.618   1.380
 1224TIP3    H2 3630   4.246   6.711   1.332
 1225TIP3   OH2 3631   4.416   0.200   1.649
 1225TIP3    H1 3632   4.474   0.273   1.669
 1225TIP3    H2 3633   4.473   0.135   1.607
 1226TIP3   OH2 3634   6.873   4.361   2.955
 1226TIP3    H1 3635   6.804   4.427   2.948
 1226TIP3    H2 3636   6.915   4.361   2.869
 1227TIP3   OH2 3637   4.881   4.487   2.063
 1227TIP3    H1 3638   4.845   4.535   2.138
 1227TIP3    H2 3639   4.843   4.529   1.987
 1228TIP3   OH2 3640   3.772   7.694   0.033
 1228TIP3    H1 3641   3.834   7.746  -0.018
 1228TIP3    H2 3642   3.821   7.616   0.059
 1229TIP3   OH2 3643   3.824   6.686   4.120
 1229TIP3    H1 3644   3.832   6.673   4.026
 1229TIP3    H2 3645   3.768   6.614   4.150
 1230TIP3   OH2 3646   5.113   7.043   2.341
 1230TIP3    H1 3647   5.112   6.984   2.416
 1230TIP3    H2 3648   5.057   6.999   2.276
 1231TIP3   OH2 3649   7.346   1.181   2.507
 1231TIP3    H1 3650   7.279   1.199   2.441
 1231TIP3    H2 3651   7.317   1.230   2.584
 1232TIP3   OH2 3652   1.191   2.614   0.285
 1232TIP3    H1 3653   1.284   2.632   0.272
 1232TIP3    H2 3654   1.172   2.543   0.224
 1233TIP3   OH2 3655   0.624   0.640   2.282
 1233TIP3    H1 3656   0.537   0.672   2.306
 1233TIP3    H2 3657   0.670   0.631   2.365
 1234TIP3   OH2 3658   7.385   0.250   3.953
 1234TIP3    H1 3659   7.424   0.283   3.872
 1234TIP3    H2 3660   7.446   0.275   4.022
 1235TIP3   OH2 3661   4.364   1.246   4.177
 1235TIP3    H1 3662   4.347   1.294   4.258
 1235TIP3    H2 3663   4.428   1.179   4.203
 1236TIP3   OH2 3664   7.209   6.846   4.187
 1236TIP3    H1 3665   7.254   6.922   4.150
 1236TIP3    H2 3666   7.267   6.773   4.167
 1237TIP3   OH2 3667   1.003   3.894   2.786
 1237TIP3    H1 3668   1.044   3.839   2.719
 1237TIP3    H2 3669   0.916   3.855   2.799
 1238TIP3   OH2 3670   5.723   7.141   5.046
 1238TIP3    H1 3671   5.754   7.057   5.081
 1238TIP3    H2 3672   5.803   7.189   5.025
 1239TIP3   OH2 3673   5.300   5.212   4.993
 1239TIP3    H1 3674   5.253   5.225   5.075
 1239TIP3    H2 3675   5.387   5.182   5.020
 1240TIP3   OH2 3676   6.101   1.924   3.636
 1240TIP3    H1 3677   6.088   1.869   3.713
 1240TIP3    H2 3678   6.102   2.014   3.669
 1241TIP3   OH2 3679   5.545   0.692   6.384
 1241TIP3    H1 3680   5.495   0.771   6.363
 1241TIP3    H2 3681   5.602   0.679   6.309
 1242TIP3   OH2 3682   7.523   6.472   1.695
 1242TIP3    H1 3683   7.494   6.433   1.778
 1242TIP3    H2 3684   7.616   6.454   1.691
 1243TIP3   OH2 3685   1.033   3.863   1.448
 1243TIP3    H1 3686   1.047   3.941   1.393
 1243TIP3    H2 3687   0.946   3.877   1.487
 1244TIP3   OH2 3688   4.698   0.299   1.881
 1244TIP3    H1 3689   4.680   0.355   1.806
 1244TIP3    H2 3690   4.792   0.307   1.895
 1245TIP3   OH2 3691   4.331   1.735   1.642
 1245TIP3    H1 3692   4.423   1.733   1.614
 1245TIP3    H2 3693   4.304   1.826   1.628
 1246TIP3   OH2 3694   6.841   3.983   0.411
 1246TIP3    H1 3695   6.895   3.999   0.488
 1246TIP3    H2 3696   6.903   3.979   0.338
 1247TIP3   OH2 3697   1.328   6.460   3.018
 1247TIP3    H1 3698   1.405   6.486   3.069
 1247TIP3    H2 3699   1.256   6.461   3.082
 1248TIP3   OH2 3700   1.504   5.455   4.363
 1248TIP3    H1 3701   1.547   5.424   4.442
 1248TIP3    H2 3702   1.484   5.375   4.314
 1249TIP3   OH2 3703   3.394   0.692   6.328
 1249TIP3    H1 3704   3.480   0.674   6.364
 1249TIP3    H2 3705   3.397   0.785   6.303
 1250TIP3   OH2 3706   7.684   2.525   3.862
 1250TIP3    H1 3707   7.624   2.475   3.806
 1250TIP3    H2 3708   7.721   2.459   3.921
 1251TIP3   OH2 3709   3.059   4.068   5.532
 1251TIP3    H1 3710   3.080   4.021   5.452
 1251TIP3    H2 3711   3.100   4.154   5.521
 1252TIP3   OH2 3712   0.553   1.611   5.041
 1252TIP3    H1 3713   0.547   1.546   4.971
 1252TIP3    H2 3714   0.487   1.676   5.018
 1253TIP3   OH2 3715   6.695   2.494   4.741
 1253TIP3    H1 3716   6.634   2.562   4.769
 1253TIP3    H2 3717   6.642   2.415   4.737
 1254TIP3   OH2 3718   7.551   3.479   6.389
 1254TIP3    H1 3719   7.578   3.558   6.343
 1254TIP3    H2 3720   7.580   3.407   6.333
 1255TIP3   OH2 3721   5.223   3.421   2.725
 1255TIP3    H1 3722   5.312   3.424   2.689
 1255TIP3    H2 3723   5.181   3.348   2.680
 1256TIP3   OH2 3724   1.034   0.179   5.523
 1256TIP3    H1 3725   0.939   0.174   5.509
 1256TIP3    H2 3726   1.067   0.096   5.489
 1257TIP3   OH2 3727   0.054   6.360   1.288
 1257TIP3    H1 3728   0.086   6.450   1.287
 1257TIP3    H2 3729   0.127   6.310   1.325
 1258TIP3   OH2 3730   7.044   6.026   5.991
 1258TIP3    H1 3731   7.035   5.941   6.035
 1258TIP3    H2 3732   7.137   6.044   5.993
 1259TIP3   OH2 3733   7.820   0.388   2.008
 1259TIP3    H1 3734   7.899   0.335   2.013
 1259TIP3    H2 3735   7.782   0.382   2.096
 1260TIP3   OH2 3736   0.488   0.821   2.680
 1260TIP3    H1 3737   0.420   0.875   2.720
 1260TIP3    H2 3738   0.512   0.757   2.747
 1261TIP3   OH2 3739   1.780   3.859   3.538
 1261TIP3    H1 3740   1.875   3.869   3.531
 1261TIP3    H2 3741   1.745   3.945   3.513
 1262TIP3   OH2 3742   3.465   4.092   6.061
 1262TIP3    H1 3743   3.559   4.072   6.063
 1262TIP3    H2 3744   3.436   4.082   6.151
 1263TIP3   OH2 3745   6.866   7.498   4.656
 1263TIP3    H1 3746   6.891   7.431   4.592
 1263TIP3    H2 3747   6.827   7.568   4.603
 1264TIP3   OH2 3748   4.382   2.198   3.244
 1264TIP3    H1 3749   4.403   2.283   3.207
 1264TIP3    H2 3750   4.334   2.153   3.174
 1265TIP3   OH2 3751   6.292   5.510   0.399
 1265TIP3    H1 3752   6.318   5.448   0.331
 1265TIP3    H2 3753   6.368   5.515   0.457
 1266TIP3   OH2 3754   8.275   7.773   4.782
 1266TIP3    H1 3755   8.183   7.757   4.800
 1266TIP3    H2 3756   8.321   7.742   4.860
 1267TIP3   OH2 3757   0.126   0.188   2.996
 1267TIP3    H1 3758   0.052   0.234   3.036
 1267TIP3    H2 3759   0.201   0.210   3.051
 1268TIP3   OH2 3760   6.154   1.365   6.197
 1268TIP3    H1 3761   6.168   1.299   6.265
 1268TIP3    H2 3762   6.233   1.419   6.198
 1269TIP3   OH2 3763   6.847   1.269   3.470
 1269TIP3    H1 3764   6.798   1.349   3.489
 1269TIP3    H2 3765   6.919   1.298   3.415
 1270TIP3   OH2 3766   5.098   7.376   0.392
 1270TIP3    H1 3767   5.178   7.374   0.338
 1270TIP3    H2 3768   5.094   7.289   0.432
 1271TIP3   OH2 3769   6.519   4.955   0.960
 1271TIP3    H1 3770   6.606   4.917   0.973
 1271TIP3    H2 3771   6.465   4.883   0.927
 1272TIP3   OH2 3772   3.292   2.160   2.548
 1272TIP3    H1 3773   3.203   2.162   2.512
 1272TIP3    H2 3774   3.337   2.093   2.497
 1273TIP3   OH2 3775   3.145   4.679   4.809
 1273TIP3    H1 3776   3.173   4.767   4.785
 1273TIP3    H2 3777   3.213   4.622   4.772
 1274TIP3   OH2 3778   2.821   6.360   4.024
 1274TIP3    H1 3779   2.844   6.369   4.117
 1274TIP3    H2 3780   2.736   6.317   4.025
 1275TIP3   OH2 3781   4.499   2.247   5.567
 1275TIP3    H1 3782   4.491   2.314   5.635
 1275TIP3    H2 3783   4.578   2.270   5.519
 1276TIP3   OH2 3784   5.098   5.924   1.885
 1276TIP3    H1 3785   5.121   6.004   1.836
 1276TIP3    H2 3786   5.003   5.928   1.894
 1277TIP3   OH2 3787   6.512   7.176   3.208
 1277TIP3    H1 3788   6.502   7.096   3.157
 1277TIP3    H2 3789   6.596   7.212   3.179
 1278TIP3   OH2 3790   4.022   0.849   1.515
 1278TIP3    H1 3791   4.008   0.931   1.469
 1278TIP3    H2 3792   3.939   0.831   1.558
 1279TIP3   OH2 3793   0.990   2.594   6.587
 1279TIP3    H1 3794   1.029   2.564   6.669
 1279TIP3    H2 3795   1.057   2.652   6.549
 1280TIP3   OH2 3796   2.082   6.989   6.108
 1280TIP3    H1 3797   2.024   6.973   6.183
 1280TIP3    H2 3798   2.030   6.965   6.032
 1281TIP3   OH2 3799   2.262   1.306   4.566
 1281TIP3    H1 3800   2.199   1.250   4.611
 1281TIP3    H2 3801   2.270   1.269   4.479
 1282TIP3   OH2 3802   4.493   7.566   4.015
 1282TIP3    H1 3803   4.498   7.640   4.076
 1282TIP3    H2 3804   4.580   7.527   4.018
 1283TIP3   OH2 3805   1.645   6.906   5.919
 1283TIP3    H1 3806   1.671   6.815   5.906
 1283TIP3    H2 3807   1.611   6.934   5.834
 1284TIP3   OH2 3808   7.571   0.616   4.001
 1284TIP3    H1 3809   7.612   0.675   4.064
 1284TIP3    H2 3810   7.635   0.545   3.989
 1285TIP3   OH2 3811   7.606   2.653   5.445
 1285TIP3    H1 3812   7.511   2.646   5.452
 1285TIP3    H2 3813   7.623   2.659   5.351
 1286TIP3   OH2 3814   0.215   4.587   6.406
 1286TIP3    H1 3815   0.157   4.623   6.473
 1286TIP3    H2 3816   0.302   4.592   6.446
 1287TIP3   OH2 3817   1.598   7.066   3.093
 1287TIP3    H1 3818   1.562   6.984   3.127
 1287TIP3    H2 3819   1.522   7.124   3.085
 1288TIP3   OH2 3820   6.900   2.426   6.018
 1288TIP3    H1 3821   6.818   2.385   5.992
 1288TIP3    H2 3822   6.881   2.467   6.102
 1289TIP3   OH2 3823   3.558   1.368   1.399
 1289TIP3    H1 3824   3.535   1.312   1.325
 1289TIP3    H2 3825   3.587   1.450   1.359
 1290TIP3   OH2 3826   0.434   3.515   0.302
 1290TIP3    H1 3827   0.391   3.600   0.299
 1290TIP3    H2 3828   0.464   3.505   0.392
 1291TIP3   OH2 3829   6.441   3.807   1.282
 1291TIP3    H1 3830   6.536   3.813   1.286
 1291TIP3    H2 3831   6.417   3.849   1.200
 1292TIP3   OH2 3832   0.458   1.106   3.996
 1292TIP3    H1 3833   0.448   1.199   3.979
 1292TIP3    H2 3834   0.543   1.098   4.040
 1293TIP3   OH2 3835   2.030   7.713   2.784
 1293TIP3    H1 3836   2.035   7.808   2.777
 1293TIP3    H2 3837   2.100   7.681   2.728
 1294TIP3   OH2 3838   3.167   5.856   5.421
 1294TIP3    H1 3839   3.101   5.840   5.353
 1294TIP3    H2 3840   3.238   5.796   5.400
 1295TIP3   OH2 3841   2.758   0.793   6.714
 1295TIP3    H1 3842   2.668   0.768   6.691
 1295TIP3    H2 3843   2.758   0.795   6.809
 1296TIP3   OH2 3844   7.795   4.636   2.714
 1296TIP3    H1 3845   7.884   4.663   2.739
 1296TIP3    H2 3846   7.749   4.718   2.697
 1297TIP3   OH2 3847   6.033   5.280   3.460
 1297TIP3    H1 3848   5.968   5.213   3.481
 1297TIP3    H2 3849   5.987   5.363   3.473
 1298TIP3   OH2 3850   5.820   5.426   2.186
 1298TIP3    H1 3851   5.855   5.515   2.177
 1298TIP3    H2 3852   5.845   5.399   2.274
 1299TIP3   OH2 3853   7.968   0.603   0.433
 1299TIP3    H1 3854   7.873   0.597   0.426
 1299TIP3    H2 3855   7.985   0.697   0.439
 1300TIP3   OH2 3856   2.911   2.057   6.625
 1300TIP3    H1 3857   2.893   2.146   6.593
 1300TIP3    H2 3858   2.998   2.062   6.664
 1301TIP3   OH2 3859   0.407   6.765   3.370
 1301TIP3    H1 3860   0.348   6.789   3.442
 1301TIP3    H2 3861   0.443   6.681   3.396
 1302TIP3   OH2 3862   1.968   1.180   2.041
 1302TIP3    H1 3863   1.957   1.106   1.981
 1302TIP3    H2 3864   2.058   1.172   2.073
 1303TIP3   OH2 3865   3.171   6.680   3.627
 1303TIP3    H1 3866   3.246   6.686   3.687
 1303TIP3    H2 3867   3.149   6.587   3.625
 1304TIP3   OH2 3868   4.798   7.693   3.678
 1304TIP3    H1 3869   4.709   7.683   3.643
 1304TIP3    H2 3870   4.790   7.760   3.745
 1305TIP3   OH2 3871   5.654   7.603   5.667
 1305TIP3    H1 3872   5.691   7.679   5.623
 1305TIP3    H2 3873   5.638   7.540   5.597
 1306TIP3   OH2 3874   1.964   6.064   1.278
 1306TIP3    H1 3875   2.001   6.011   1.349
 1306TIP3    H2 3876   1.882   6.020   1.255
 1307TIP3   OH2 3877   2.711   4.554   2.488
 1307TIP3    H1 3878   2.774   4.620   2.514
 1307TIP3    H2 3879   2.730   4.538   2.395
 1308TIP3   OH2 3880   7.724   4.759   3.985
 1308TIP3    H1 3881   7.677   4.831   4.027
 1308TIP3    H2 3882   7.773   4.802   3.914
 1309TIP3   OH2 3883   0.375   3.411   2.049
 1309TIP3    H1 3884   0.370   3.402   2.144
 1309TIP3    H2 3885   0.466   3.390   2.027
 1310TIP3   OH2 3886   0.927   2.680   3.376
 1310TIP3    H1 3887   0.989   2.621   3.332
 1310TIP3    H2 3888   0.845   2.631   3.377
 1311TIP3   OH2 3889   6.328   2.523   4.188
 1311TIP3    H1 3890   6.249   2.570   4.212
 1311TIP3    H2 3891   6.383   2.588   4.145
 1312TIP3   OH2 3892   7.735   1.451   6.699
 1312TIP3    H1 3893   7.748   1.410   6.785
 1312TIP3    H2 3894   7.805   1.517   6.694
 1313TIP3   OH2 3895   6.602   7.398   2.725
 1313TIP3    H1 3896   6.656   7.455   2.669
 1313TIP3    H2 3897   6.516   7.398   2.682
 1314TIP3   OH2 3898   5.732   5.441   2.507
 1314TIP3    H1 3899   5.810   5.495   2.491
 1314TIP3    H2 3900   5.691   5.480   2.584
 1315TIP3   OH2 3901   2.524   1.702   6.531
 1315TIP3    H1 3902   2.433   1.723   6.507
 1315TIP3    H2 3903   2.574   1.779   6.506
 1316TIP3   OH2 3904   3.691   7.174   4.494
 1316TIP3    H1 3905   3.742   7.114   4.440
 1316TIP3    H2 3906   3.603   7.134   4.496
 1317TIP3   OH2 3907   4.306   5.865   1.591
 1317TIP3    H1 3908   4.219   5.824   1.595
 1317TIP3    H2 3909   4.367   5.793   1.605
 1318TIP3   OH2 3910   0.899   6.369   0.259
 1318TIP3    H1 3911   0.870   6.393   0.347
 1318TIP3    H2 3912   0.981   6.416   0.246
 1319TIP3   OH2 3913   0.222   5.756   0.398
 1319TIP3    H1 3914   0.173   5.801   0.329
 1319TIP3    H2 3915   0.302   5.726   0.354
 1320TIP3   OH2 3916   0.832   3.110   5.125
 1320TIP3    H1 3917   0.754   3.131   5.074
 1320TIP3    H2 3918   0.841   3.182   5.187
 1321TIP3   OH2 3919   2.911   7.002   0.841
 1321TIP3    H1 3920   2.998   7.001   0.880
 1321TIP3    H2 3921   2.907   7.084   0.792
 1322TIP3   OH2 3922   6.869   0.089   2.862
 1322TIP3    H1 3923   6.875   0.053   2.774
 1322TIP3    H2 3924   6.934   0.159   2.864
 1323TIP3   OH2 3925   1.834   7.187   5.119
 1323TIP3    H1 3926   1.796   7.253   5.061
 1323TIP3    H2 3927   1.929   7.201   5.112
 1324TIP3   OH2 3928   1.860   6.304   3.581
 1324TIP3    H1 3929   1.953   6.291   3.597
 1324TIP3    H2 3930   1.850   6.289   3.487
 1325TIP3   OH2 3931   4.319   0.907   3.233
 1325TIP3    H1 3932   4.264   0.840   3.194
 1325TIP3    H2 3933   4.332   0.880   3.323
 1326TIP3   OH2 3934   3.727   5.171   1.839
 1326TIP3    H1 3935   3.682   5.125   1.767
 1326TIP3    H2 3936   3.814   5.131   1.841
 1327TIP3   OH2 3937   2.613   3.257   4.101
 1327TIP3    H1 3938   2.542   3.200   4.130
 1327TIP3    H2 3939   2.663   3.204   4.039
 1328TIP3   OH2 3940   7.199   6.342   6.417
 1328TIP3    H1 3941   7.250   6.392   6.353
 1328TIP3    H2 3942   7.108   6.350   6.387
 1329TIP3   OH2 3943   7.365   5.461   1.129
 1329TIP3    H1 3944   7.325   5.374   1.125
 1329TIP3    H2 3945   7.424   5.457   1.204
 1330TIP3   OH2 3946   6.097   0.950   4.010
 1330TIP3    H1 3947   6.104   0.992   3.924
 1330TIP3    H2 3948   6.185   0.956   4.047
 1331TIP3   OH2 3949   4.687   3.865   0.119
 1331TIP3    H1 3950   4.759   3.803   0.107
 1331TIP3    H2 3951   4.609   3.814   0.100
 1332TIP3   OH2 3952   7.248   4.142   6.137
 1332TIP3    H1 3953   7.175   4.140   6.200
 1332TIP3    H2 3954   7.307   4.073   6.168
 1333TIP3   OH2 3955   1.528   5.596   3.748
 1333TIP3    H1 3956   1.569   5.540   3.814
 1333TIP3    H2 3957   1.594   5.605   3.680
 1334TIP3   OH2 3958   1.770   0.437   5.807
 1334TIP3    H1 3959   1.797   0.385   5.732
 1334TIP3    H2 3960   1.682   0.404   5.829
 1335TIP3   OH2 3961   2.892   1.232   2.067
 1335TIP3    H1 3962   2.828   1.176   2.112
 1335TIP3    H2 3963   2.976   1.210   2.107
 1336TIP3   OH2 3964   4.949   0.341   4.784
 1336TIP3    H1 3965   5.044   0.337   4.788
 1336TIP3    H2 3966   4.920   0.289   4.859
 1337TIP3   OH2 3967   3.456   3.479   5.137
 1337TIP3    H1 3968   3.454   3.448   5.228
 1337TIP3    H2 3969   3.507   3.413   5.090
 1338TIP3   OH2 3970   4.186   4.424   2.439
 1338TIP3    H1 3971   4.198   4.513   2.405
 1338TIP3    H2 3972   4.275   4.388   2.443
 1339TIP3   OH2 3973   4.602   0.707   6.380
 1339TIP3    H1 3974   4.593   0.802   6.371
 1339TIP3    H2 3975   4.679   0.695   6.435
 1340TIP3   OH2 3976   2.607   6.873   5.142
 1340TIP3    H1 3977   2.686   6.881   5.089
 1340TIP3    H2 3978   2.544   6.933   5.101
 1341TIP3   OH2 3979   4.454   4.338   6.664
 1341TIP3    H1 3980   4.460   4.412   6.603
 1341TIP3    H2 3981   4.541   4.299   6.663
 1342TIP3   OH2 3982   2.798   2.803   1.770
 1342TIP3    H1 3983   2.745   2.815   1.849
 1342TIP3    H2 3984   2.807   2.708   1.762
 1343TIP3   OH2 3985   2.690   1.095   6.554
 1343TIP3    H1 3986   2.651   1.062   6.473
 1343TIP3    H2 3987   2.647   1.045   6.623
 1344TIP3   OH2 3988   8.237   3.943   0.177
 1344TIP3    H1 3989   8.244   3.954   0.272
 1344TIP3    H2 3990   8.327   3.950   0.145
 1345TIP3   OH2 3991   0.148   6.068   3.454
 1345TIP3    H1 3992   0.168   6.061   3.548
 1345TIP3    H2 3993   0.200   5.999   3.413
 1346TIP3   OH2 3994   0.848   1.357   1.273
 1346TIP3    H1 3995   0.924   1.359   1.216
 1346TIP3    H2 3996   0.880   1.321   1.356
 1347TIP3   OH2 3997   6.505   4.923   6.197
 1347TIP3    H1 3998   6.546   4.859   6.139
 1347TIP3    H2 3999   6.557   4.921   6.277
 1348TIP3   OH2 4000   6.234   1.409   5.889
 1348TIP3    H1 4001   6.169   1.407   5.960
 1348TIP3    H2 4002   6.315   1.436   5.932
 1349TIP3   OH2 4003   4.341   4.597   6.296
 1349TIP3    H1 4004   4.347   4.614   6.202
 1349TIP3    H2 4005   4.258   4.636   6.323
 1350TIP3   OH2 4006   2.907   3.100   6.450
 1350TIP3    H1 4007   2.857   3.159   6.394
 1350TIP3    H2 4008   2.980   3.071   6.395
 1351TIP3   OH2 4009   6.439   2.654   0.532
 1351TIP3    H1 4010   6.521   2.623   0.493
 1351TIP3    H2 4011   6.402   2.577   0.574
 1352TIP3   OH2 4012   4.204   1.482   2.968
 1352TIP3    H1 4013   4.160   1.397   2.966
 1352TIP3    H2 4014   4.219   1.498   3.062
 1353TIP3   OH2 4015   1.904   0.734   3.756
 1353TIP3    H1 4016   1.932   0.766   3.670
 1353TIP3    H2 4017   1.870   0.647   3.739
 1354TIP3   OH2 4018   2.204   3.042   3.183
 1354TIP3    H1 4019   2.144   3.104   3.225
 1354TIP3    H2 4020   2.216   3.077   3.094
 1355TIP3   OH2 4021   5.233   5.716   1.757
 1355TIP3    H1 4022   5.176   5.644   1.787
 1355TIP3    H2 4023   5.190   5.795   1.790
 1356TIP3   OH2 4024   6.240   5.862   2.111
 1356TIP3    H1 4025   6.303   5.931   2.092
 1356TIP3    H2 4026   6.212   5.830   2.025
 1357TIP3   OH2 4027   3.323   2.877   4.618
 1357TIP3    H1 4028   3.375   2.876   4.538
 1357TIP3    H2 4029   3.382   2.913   4.685
 1358TIP3   OH2 4030   8.135   3.985   6.007
 1358TIP3    H1 4031   8.197   4.016   6.073
 1358TIP3    H2 4032   8.067   3.941   6.058
 1359TIP3   OH2 4033   4.081   0.531   0.053
 1359TIP3    H1 4034   4.025   0.608   0.044
 1359TIP3    H2 4035   4.151   0.544  -0.010
 1360TIP3   OH2 4036   1.626   3.980   4.169
 1360TIP3    H1 4037   1.547   3.999   4.219
 1360TIP3    H2 4038   1.607   4.012   4.081
 1361TIP3   OH2 4039   4.845   6.476   0.523
 1361TIP3    H1 4040   4.916   6.420   0.491
 1361TIP3    H2 4041   4.777   6.414   0.553
 1362TIP3   OH2 4042   5.265   3.723   5.669
 1362TIP3    H1 4043   5.291   3.656   5.606
 1362TIP3    H2 4044   5.281   3.683   5.755
 1363TIP3   OH2 4045   7.103   6.804   0.235
 1363TIP3    H1 4046   7.111   6.799   0.331
 1363TIP3    H2 4047   7.193   6.791   0.203
 1364TIP3   OH2 4048   0.601   3.075   6.512
 1364TIP3    H1 4049   0.604   3.164   6.547
 1364TIP3    H2 4050   0.585   3.019   6.588
 1365TIP3   OH2 4051   3.212   6.460   5.794
 1365TIP3    H1 4052   3.213   6.458   5.698
 1365TIP3    H2 4053   3.127   6.424   5.818
 1366TIP3   OH2 4054   4.397   4.238   5.524
 1366TIP3    H1 4055   4.380   4.314   5.469
 1366TIP3    H2 4056   4.363   4.263   5.610
 1367TIP3   OH2 4057   2.738   3.154   4.457
 1367TIP3    H1 4058   2.789   3.103   4.393
 1367TIP3    H2 4059   2.721   3.237   4.412
 1368TIP3   OH2 4060   3.198   7.376   2.873
 1368TIP3    H1 4061   3.158   7.425   2.944
 1368TIP3    H2 4062   3.132   7.311   2.847
 1369TIP3   OH2 4063   2.238   0.693   2.187
 1369TIP3    H1 4064   2.169   0.756   2.206
 1369TIP3    H2 4065   2.215   0.655   2.102
 1370TIP3   OH2 4066   5.884   1.329   5.793
 1370TIP3    H1 4067   5.807   1.322   5.738
 1370TIP3    H2 4068   5.864   1.401   5.854
 1371TIP3   OH2 4069   3.369   1.875   1.472
 1371TIP3    H1 4070   3.299   1.841   1.416
 1371TIP3    H2 4071   3.439   1.811   1.466
 1372TIP3   OH2 4072   2.105   3.398   3.453
 1372TIP3    H1 4073   2.074   3.487   3.433
 1372TIP3    H2 4074   2.189   3.412   3.497
 1373TIP3   OH2 4075   7.856   1.670   6.487
 1373TIP3    H1 4076   7.837   1.671   6.581
 1373TIP3    H2 4077   7.945   1.704   6.480
 1374TIP3   OH2 4078   4.385   3.381   2.259
 1374TIP3    H1 4079   4.321   3.428   2.312
 1374TIP3    H2 4080   4.375   3.419   2.171
 1375TIP3   OH2 4081   3.637   5.957   1.431
 1375TIP3    H1 4082   3.635   6.053   1.433
 1375TIP3    H2 4083   3.692   5.933   1.505
 1376TIP3   OH2 4084   2.209   2.537   5.251
 1376TIP3    H1 4085   2.117   2.512   5.243
 1376TIP3    H2 4086   2.210   2.632   5.239
 1377TIP3   OH2 4087   8.150   4.181   2.196
 1377TIP3    H1 4088   8.163   4.173   2.101
 1377TIP3    H2 4089   8.084   4.115   2.217
 1378TIP3   OH2 4090   5.376   1.141   3.282
 1378TIP3    H1 4091   5.349   1.050   3.298
 1378TIP3    H2 4092   5.329   1.192   3.349
 1379TIP3   OH2 4093   7.751   1.660   2.093
 1379TIP3    H1 4094   7.766   1.739   2.145
 1379TIP3    H2 4095   7.665   1.628   2.122
 1380TIP3   OH2 4096   3.727   3.933   4.743
 1380TIP3    H1 4097   3.764   3.876   4.809
 1380TIP3    H2 4098   3.790   3.930   4.671
 1381TIP3   OH2 4099   0.657   2.140   1.988
 1381TIP3    H1 4100   0.627   2.082   1.917
 1381TIP3    H2 4101   0.577   2.167   2.032
 1382TIP3   OH2 4102   7.804   0.067   0.584
 1382TIP3    H1 4103   7.894   0.067   0.551
 1382TIP3    H2 4104   7.801  -0.010   0.642
 1383TIP3   OH2 4105   0.149   6.566   6.065
 1383TIP3    H1 4106   0.112   6.609   5.988
 1383TIP3    H2 4107   0.096   6.487   6.075
 1384TIP3   OH2 4108   6.225   5.219   6.161
 1384TIP3    H1 4109   6.238   5.183   6.074
 1384TIP3    H2 4110   6.140   5.184   6.189
 1385TIP3   OH2 4111   7.340   2.996   4.059
 1385TIP3    H1 4112   7.416   3.010   4.003
 1385TIP3    H2 4113   7.355   3.053   4.134
 1386TIP3   OH2 4114   2.077   7.513   1.030
 1386TIP3    H1 4115   2.103   7.551   0.946
 1386TIP3    H2 4116   2.036   7.430   1.007
 1387TIP3   OH2 4117   0.988   6.371   6.077
 1387TIP3    H1 4118   1.039   6.327   6.145
 1387TIP3    H2 4119   0.961   6.454   6.117
 1388TIP3   OH2 4120   2.654   6.740   5.999
 1388TIP3    H1 4121   2.674   6.704   5.912
 1388TIP3    H2 4122   2.695   6.679   6.060
 1389TIP3   OH2 4123   3.642   0.746   4.876
 1389TIP3    H1 4124   3.599   0.778   4.956
 1389TIP3    H2 4125   3.578   0.761   4.807
 1390TIP3   OH2 4126   1.789   3.771   2.582
 1390TIP3    H1 4127   1.748   3.685   2.570
 1390TIP3    H2 4128   1.852   3.778   2.511
 1391TIP3   OH2 4129   2.741   0.663   1.029
 1391TIP3    H1 4130   2.709   0.590   0.975
 1391TIP3    H2 4131   2.833   0.671   1.005
 1392TIP3   OH2 4132   2.449   6.241   0.814
 1392TIP3    H1 4133   2.461   6.336   0.811
 1392TIP3    H2 4134   2.464   6.218   0.906
 1393TIP3   OH2 4135   6.779   6.157   3.913
 1393TIP3    H1 4136   6.809   6.247   3.911
 1393TIP3    H2 4137   6.815   6.118   3.833
 1394TIP3   OH2 4138   5.745   5.212   0.480
 1394TIP3    H1 4139   5.786   5.292   0.445
 1394TIP3    H2 4140   5.668   5.200   0.425
 1395TIP3   OH2 4141   0.199   5.149   6.391
 1395TIP3    H1 4142   0.253   5.198   6.329
 1395TIP3    H2 4143   0.250   5.150   6.473
 1396TIP3   OH2 4144   7.830   7.218   2.907
 1396TIP3    H1 4145   7.854   7.147   2.848
 1396TIP3    H2 4146   7.913   7.253   2.938
 1397TIP3   OH2 4147   6.718   6.069   4.158
 1397TIP3    H1 4148   6.622   6.064   4.161
 1397TIP3    H2 4149   6.738   6.103   4.071
 1398TIP3   OH2 4150   0.622   6.364   2.649
 1398TIP3    H1 4151   0.567   6.436   2.679
 1398TIP3    H2 4152   0.609   6.362   2.554
 1399TIP3   OH2 4153   3.894   0.582   5.446
 1399TIP3    H1 4154   3.845   0.585   5.364
 1399TIP3    H2 4155   3.983   0.605   5.422
 1400TIP3   OH2 4156   0.581   0.241   3.833
 1400TIP3    H1 4157   0.628   0.316   3.870
 1400TIP3    H2 4158   0.492   0.251   3.865
 1401TIP3   OH2 4159   8.010   1.345   5.140
 1401TIP3    H1 4160   7.965   1.312   5.062
 1401TIP3    H2 4161   8.091   1.384   5.107
 1402TIP3   OH2 4162   0.137   5.219   0.996
 1402TIP3    H1 4163   0.045   5.222   1.024
 1402TIP3    H2 4164   0.177   5.153   1.053
 1403TIP3   OH2 4165   7.729   3.509   3.567
 1403TIP3    H1 4166   7.647   3.497   3.518
 1403TIP3    H2 4167   7.711   3.584   3.625
 1404TIP3   OH2 4168   0.457   3.155   2.893
 1404TIP3    H1 4169   0.477   3.186   2.805
 1404TIP3    H2 4170   0.542   3.147   2.936
 1405TIP3   OH2 4171   6.985   6.671   5.549
 1405TIP3    H1 4172   7.013   6.757   5.580
 1405TIP3    H2 4173   7.016   6.610   5.616
 1406TIP3   OH2 4174   6.146   3.790   4.199
 1406TIP3    H1 4175   6.054   3.785   4.174
 1406TIP3    H2 4176   6.162   3.884   4.211
 1407TIP3   OH2 4177   0.748   2.909   1.853
 1407TIP3    H1 4178   0.703   2.984   1.813
 1407TIP3    H2 4179   0.751   2.843   1.784
 1408TIP3   OH2 4180   0.892   0.656   4.342
 1408TIP3    H1 4181   0.861   0.679   4.254
 1408TIP3    H2 4182   0.864   0.729   4.397
 1409TIP3   OH2 4183   5.254   2.934   1.905
 1409TIP3    H1 4184   5.196   2.871   1.948
 1409TIP3    H2 4185   5.295   2.884   1.834
 1410TIP3   OH2 4186   6.703   3.714   4.734
 1410TIP3    H1 4187   6.665   3.801   4.749
 1410TIP3    H2 4188   6.766   3.727   4.664
 1411TIP3   OH2 4189   5.643   4.487   3.848
 1411TIP3    H1 4190   5.723   4.451   3.887
 1411TIP3    H2 4191   5.595   4.411   3.816
 1412TIP3   OH2 4192   5.890   2.272   2.944
 1412TIP3    H1 4193   5.939   2.220   2.880
 1412TIP3    H2 4194   5.830   2.209   2.985
 1413TIP3   OH2 4195   5.455   0.848   1.539
 1413TIP3    H1 4196   5.379   0.901   1.513
 1413TIP3    H2 4197   5.510   0.909   1.590
 1414TIP3   OH2 4198   1.826   6.338   1.294
 1414TIP3    H1 4199   1.863   6.273   1.354
 1414TIP3    H2 4200   1.768   6.287   1.237
 1415TIP3   OH2 4201   6.890   1.447   0.075
 1415TIP3    H1 4202   6.972   1.468   0.030
 1415TIP3    H2 4203   6.829   1.515   0.046
 1416TIP3   OH2 4204   1.969   6.419   4.735
 1416TIP3    H1 4205   2.001   6.329   4.743
 1416TIP3    H2 4206   2.003   6.464   4.812
 1417TIP3   OH2 4207   6.727   0.096   2.565
 1417TIP3    H1 4208   6.673   0.078   2.642
 1417TIP3    H2 4209   6.746   0.189   2.569
 1418TIP3   OH2 4210   4.468   5.674   6.380
 1418TIP3    H1 4211   4.382   5.715   6.388
 1418TIP3    H2 4212   4.483   5.670   6.285
 1419TIP3   OH2 4213   5.069   6.141   3.330
 1419TIP3    H1 4214   5.080   6.235   3.317
 1419TIP3    H2 4215   5.130   6.120   3.402
 1420TIP3   OH2 4216   6.624   3.345   3.462
 1420TIP3    H1 4217   6.567   3.303   3.397
 1420TIP3    H2 4218   6.675   3.409   3.412
 1421TIP3   OH2 4219   1.271   1.732   5.545
 1421TIP3    H1 4220   1.274   1.817   5.501
 1421TIP3    H2 4221   1.300   1.751   5.635
 1422TIP3   OH2 4222   4.880   5.061   4.650
 1422TIP3    H1 4223   4.939   5.083   4.722
 1422TIP3    H2 4224   4.798   5.036   4.693
 1423TIP3   OH2 4225   0.591   2.873   5.394
 1423TIP3    H1 4226   0.684   2.853   5.387
 1423TIP3    H2 4227   0.587   2.968   5.404
 1424TIP3   OH2 4228   5.386   1.732   5.205
 1424TIP3    H1 4229   5.344   1.646   5.198
 1424TIP3    H2 4230   5.432   1.743   5.122
 1425TIP3   OH2 4231   1.957   1.169   6.554
 1425TIP3    H1 4232   1.865   1.191   6.536
 1425TIP3    H2 4233   1.986   1.126   6.474
 1426TIP3   OH2 4234   7.717   4.314   2.059
 1426TIP3    H1 4235   7.697   4.400   2.095
 1426TIP3    H2 4236   7.631   4.277   2.037
 1427TIP3   OH2 4237   1.082   2.385   0.200
 1427TIP3    H1 4238   1.067   2.332   0.278
 1427TIP3    H2 4239   0.999   2.433   0.187
 1428TIP3   OH2 4240   5.505   7.207   0.809
 1428TIP3    H1 4241   5.561   7.170   0.741
 1428TIP3    H2 4242   5.419   7.214   0.769
 1429TIP3   OH2 4243   0.786   6.783   2.731
 1429TIP3    H1 4244   0.753   6.727   2.661
 1429TIP3    H2 4245   0.754   6.742   2.812
 1430TIP3   OH2 4246   7.491   7.752   6.141
 1430TIP3    H1 4247   7.396   7.755   6.126
 1430TIP3    H2 4248   7.530   7.762   6.054
 1431TIP3   OH2 4249   8.028   4.648   2.089
 1431TIP3    H1 4250   7.991   4.644   2.177
 1431TIP3    H2 4251   8.107   4.594   2.093
 1432TIP3   OH2 4252   0.290   1.443   4.621
 1432TIP3    H1 4253   0.295   1.369   4.561
 1432TIP3    H2 4254   0.212   1.426   4.675
 1433TIP3   OH2 4255   6.945   6.267   0.818
 1433TIP3    H1 4256   6.875   6.239   0.759
 1433TIP3    H2 4257   7.004   6.191   0.823
 1434TIP3   OH2 4258   1.199   1.800   2.661
 1434TIP3    H1 4259   1.104   1.790   2.672
 1434TIP3    H2 4260   1.225   1.863   2.728
 1435TIP3   OH2 4261   3.923   7.102   6.273
 1435TIP3    H1 4262   3.957   7.050   6.200
 1435TIP3    H2 4263   3.922   7.192   6.239
 1436TIP3   OH2 4264   7.226   4.540   4.235
 1436TIP3    H1 4265   7.151   4.589   4.269
 1436TIP3    H2 4266   7.224   4.557   4.140
 1437TIP3   OH2 4267   3.760   5.863   2.932
 1437TIP3    H1 4268   3.678   5.904   2.906
 1437TIP3    H2 4269   3.748   5.842   3.024
 1438TIP3   OH2 4270   4.818   1.684   4.725
 1438TIP3    H1 4271   4.790   1.625   4.795
 1438TIP3    H2 4272   4.902   1.650   4.696
 1439TIP3   OH2 4273   4.298   3.530   4.523
 1439TIP3    H1 4274   4.280   3.461   4.587
 1439TIP3    H2 4275   4.315   3.483   4.441
 1440TIP3   OH2 4276   4.008   1.540   4.922
 1440TIP3    H1 4277   4.084   1.595   4.940
 1440TIP3    H2 4278   4.044   1.452   4.910
 1441TIP3   OH2 4279   0.582   6.180   6.188
 1441TIP3    H1 4280   0.523   6.163   6.261
 1441TIP3    H2 4281   0.540   6.250   6.138
 1442TIP3   OH2 4282   6.291   4.169   5.209
 1442TIP3    H1 4283   6.258   4.088   5.170
 1442TIP3    H2 4284   6.256   4.238   5.153
 1443TIP3   OH2 4285   3.820   6.300   4.973
 1443TIP3    H1 4286   3.792   6.228   5.030
 1443TIP3    H2 4287   3.756   6.300   4.901
 1444TIP3   OH2 4288   6.526   7.665   1.375
 1444TIP3    H1 4289   6.436   7.697   1.368
 1444TIP3    H2 4290   6.562   7.709   1.452
 1445TIP3   OH2 4291   8.262   1.856   5.940
 1445TIP3    H1 4292   8.239   1.765   5.960
 1445TIP3    H2 4293   8.324   1.880   6.008
 1446TIP3   OH2 4294   5.270   0.941   3.588
 1446TIP3    H1 4295   5.267   1.024   3.636
 1446TIP3    H2 4296   5.186   0.938   3.541
 1447TIP3   OH2 4297   6.218   5.031   2.644
 1447TIP3    H1 4298   6.296   5.017   2.698
 1447TIP3    H2 4299   6.169   4.949   2.650
 1448TIP3   OH2 4300   7.048   6.636   5.088
 1448TIP3    H1 4301   7.109   6.686   5.143
 1448TIP3    H2 4302   6.976   6.613   5.147
 1449TIP3   OH2 4303   4.204   2.134   4.230
 1449TIP3    H1 4304   4.263   2.154   4.302
 1449TIP3    H2 4305   4.193   2.217   4.184
 1450TIP3   OH2 4306   6.850   4.219   4.019
 1450TIP3    H1 4307   6.756   4.227   4.036
 1450TIP3    H2 4308   6.882   4.161   4.089
 1451TIP3   OH2 4309   2.210   2.087   5.990
 1451TIP3    H1 4310   2.286   2.048   6.032
 1451TIP3    H2 4311   2.151   2.014   5.974
 1452TIP3   OH2 4312   5.688   6.721   3.131
 1452TIP3    H1 4313   5.705   6.628   3.115
 1452TIP3    H2 4314   5.592   6.726   3.140
 1453TIP3   OH2 4315   3.403   4.186   3.370
 1453TIP3    H1 4316   3.362   4.265   3.405
 1453TIP3    H2 4317   3.341   4.153   3.305
 1454TIP3   OH2 4318   0.363   3.347   3.134
 1454TIP3    H1 4319   0.440   3.402   3.124
 1454TIP3    H2 4320   0.397   3.264   3.169
 1455TIP3   OH2 4321   5.955   3.700   5.250
 1455TIP3    H1 4322   5.914   3.717   5.165
 1455TIP3    H2 4323   5.956   3.604   5.257
 1456TIP3   OH2 4324   2.287   7.618   2.064
 1456TIP3    H1 4325   2.320   7.669   2.138
 1456TIP3    H2 4326   2.363   7.570   2.031
 1457TIP3   OH2 4327   2.182   7.640   5.161
 1457TIP3    H1 4328   2.096   7.629   5.200
 1457TIP3    H2 4329   2.228   7.701   5.220
 1458TIP3   OH2 4330   7.079   0.827   1.403
 1458TIP3    H1 4331   7.052   0.812   1.494
 1458TIP3    H2 4332   7.070   0.922   1.391
 1459TIP3   OH2 4333   7.894   7.152   0.962
 1459TIP3    H1 4334   7.857   7.141   0.874
 1459TIP3    H2 4335   7.853   7.233   0.994
 1460TIP3   OH2 4336   5.279   3.850   2.897
 1460TIP3    H1 4337   5.343   3.875   2.830
 1460TIP3    H2 4338   5.248   3.933   2.933
 1461TIP3   OH2 4339   3.895   5.753   4.424
 1461TIP3    H1 4340   3.814   5.717   4.461
 1461TIP3    H2 4341   3.942   5.676   4.391
 1462TIP3   OH2 4342   1.606   5.902   2.973
 1462TIP3    H1 4343   1.540   5.897   2.903
 1462TIP3    H2 4344   1.681   5.855   2.938
 1463TIP3   OH2 4345   8.228   5.629   3.144
 1463TIP3    H1 4346   8.193   5.584   3.067
 1463TIP3    H2 4347   8.179   5.711   3.148
 1464TIP3   OH2 4348   3.810   4.575   4.149
 1464TIP3    H1 4349   3.838   4.484   4.147
 1464TIP3    H2 4350   3.755   4.585   4.071
 1465TIP3   OH2 4351   3.759   0.506   2.015
 1465TIP3    H1 4352   3.791   0.532   1.929
 1465TIP3    H2 4353   3.838   0.495   2.068
 1466TIP3   OH2 4354   6.308   1.382   1.547
 1466TIP3    H1 4355   6.296   1.337   1.630
 1466TIP3    H2 4356   6.263   1.327   1.483
 1467TIP3   OH2 4357   5.340   4.731   3.480
 1467TIP3    H1 4358   5.366   4.779   3.402
 1467TIP3    H2 4359   5.394   4.769   3.550
 1468TIP3   OH2 4360   8.021   7.072   3.336
 1468TIP3    H1 4361   8.060   7.000   3.385
 1468TIP3    H2 4362   8.095   7.112   3.289
 1469TIP3   OH2 4363   1.336   1.969   4.518
 1469TIP3    H1 4364   1.242   1.950   4.528
 1469TIP3    H2 4365   1.378   1.921   4.589
 1470TIP3   OH2 4366   6.488   1.549   5.874
 1470TIP3    H1 4367   6.452   1.507   5.796
 1470TIP3    H2 4368   6.582   1.556   5.856
 1471TIP3   OH2 4369   1.844   0.627   5.437
 1471TIP3    H1 4370   1.869   0.671   5.518
 1471TIP3    H2 4371   1.783   0.687   5.395
 1472TIP3   OH2 4372   1.999   2.870   4.310
 1472TIP3    H1 4373   1.997   2.898   4.219
 1472TIP3    H2 4374   2.024   2.777   4.306
 1473TIP3   OH2 4375   2.390   6.241   6.555
 1473TIP3    H1 4376   2.384   6.308   6.623
 1473TIP3    H2 4377   2.306   6.195   6.559
 1474TIP3   OH2 4378   8.105   2.886   0.203
 1474TIP3    H1 4379   8.150   2.861   0.122
 1474TIP3    H2 4380   8.014   2.859   0.189
 1475TIP3   OH2 4381   3.193   5.337   1.759
 1475TIP3    H1 4382   3.218   5.248   1.782
 1475TIP3    H2 4383   3.274   5.388   1.770
 1476TIP3   OH2 4384   7.366   5.971   2.407
 1476TIP3    H1 4385   7.291   5.913   2.420
 1476TIP3    H2 4386   7.341   6.026   2.334
 1477TIP3   OH2 4387   1.103   2.867   1.801
 1477TIP3    H1 4388   1.049   2.832   1.730
 1477TIP3    H2 4389   1.166   2.797   1.819
 1478TIP3   OH2 4390   4.505   7.291   3.023
 1478TIP3    H1 4391   4.476   7.377   2.990
 1478TIP3    H2 4392   4.599   7.300   3.036
 1479TIP3   OH2 4393   0.880   3.120   0.327
 1479TIP3    H1 4394   0.946   3.188   0.345
 1479TIP3    H2 4395   0.839   3.104   0.411
 1480TIP3   OH2 4396   5.918   3.141   5.942
 1480TIP3    H1 4397   5.974   3.168   6.016
 1480TIP3    H2 4398   5.866   3.069   5.977
 1481TIP3   OH2 4399   4.359   6.859   2.207
 1481TIP3    H1 4400   4.289   6.825   2.263
 1481TIP3    H2 4401   4.315   6.921   2.149
 1482TIP3   OH2 4402   7.125   0.052   6.092
 1482TIP3    H1 4403   7.038   0.068   6.055
 1482TIP3    H2 4404   7.160   0.139   6.112
 1483TIP3   OH2 4405   4.194   1.288   0.181
 1483TIP3    H1 4406   4.241   1.226   0.125
 1483TIP3    H2 4407   4.115   1.241   0.207
 1484TIP3   OH2 4408   6.992   4.300   1.984
 1484TIP3    H1 4409   6.907   4.311   1.942
 1484TIP3    H2 4410   7.029   4.389   1.987
 1485TIP3   OH2 4411   1.901   3.856   0.782
 1485TIP3    H1 4412   1.881   3.765   0.760
 1485TIP3    H2 4413   1.924   3.854   0.875
 1486TIP3   OH2 4414   7.586   1.487   1.744
 1486TIP3    H1 4415   7.659   1.427   1.761
 1486TIP3    H2 4416   7.623   1.574   1.759
 1487TIP3   OH2 4417   4.647   6.501   6.272
 1487TIP3    H1 4418   4.563   6.538   6.244
 1487TIP3    H2 4419   4.712   6.547   6.219
 1488TIP3   OH2 4420   0.911   4.309   4.156
 1488TIP3    H1 4421   0.926   4.271   4.070
 1488TIP3    H2 4422   0.936   4.401   4.147
 1489TIP3   OH2 4423   1.689   1.268   1.525
 1489TIP3    H1 4424   1.598   1.263   1.497
 1489TIP3    H2 4425   1.699   1.197   1.588
 1490TIP3   OH2 4426   8.188   5.642   5.632
 1490TIP3    H1 4427   8.146   5.724   5.657
 1490TIP3    H2 4428   8.124   5.599   5.574
 1491TIP3   OH2 4429   3.311   3.561   2.071
 1491TIP3    H1 4430   3.346   3.629   2.014
 1491TIP3    H2 4431   3.240   3.604   2.119
 1492TIP3   OH2 4432   3.645   0.676   0.694
 1492TIP3    H1 4433   3.656   0.610   0.627
 1492TIP3    H2 4434   3.725   0.729   0.690
 1493TIP3   OH2 4435   1.604   4.576   2.865
 1493TIP3    H1 4436   1.565   4.568   2.952
 1493TIP3    H2 4437   1.532   4.557   2.804
 1494TIP3   OH2 4438   7.610   4.914   2.039
 1494TIP3    H1 4439   7.669   4.868   2.099
 1494TIP3    H2 4440   7.643   5.004   2.037
 1495TIP3   OH2 4441   5.997   2.878   4.428
 1495TIP3    H1 4442   5.998   2.964   4.386
 1495TIP3    H2 4443   5.940   2.888   4.504
 1496TIP3   OH2 4444   0.124   0.490   1.382
 1496TIP3    H1 4445   0.086   0.446   1.458
 1496TIP3    H2 4446   0.088   0.443   1.307
 1497TIP3   OH2 4447   2.354   1.862   3.109
 1497TIP3    H1 4448   2.413   1.876   3.035
 1497TIP3    H2 4449   2.267   1.860   3.070
 1498TIP3   OH2 4450   1.708   6.228   4.177
 1498TIP3    H1 4451   1.634   6.185   4.221
 1498TIP3    H2 4452   1.757   6.269   4.249
 1499TIP3   OH2 4453   6.720   3.418   2.127
 1499TIP3    H1 4454   6.720   3.508   2.096
 1499TIP3    H2 4455   6.652   3.415   2.194
 1500TIP3   OH2 4456   6.045   0.977   5.212
 1500TIP3    H1 4457   6.125   0.976   5.263
 1500TIP3    H2 4458   6.073   0.995   5.123
 1501TIP3   OH2 4459   1.694   1.362   3.700
 1501TIP3    H1 4460   1.665   1.288   3.647
 1501TIP3    H2 4461   1.734   1.422   3.637
 1502TIP3   OH2 4462   4.379   0.941   5.384
 1502TIP3    H1 4463   4.344   0.888   5.312
 1502TIP3    H2 4464   4.318   0.928   5.456
 1503TIP3   OH2 4465   7.943   3.955   3.304
 1503TIP3    H1 4466   7.876   3.968   3.371
 1503TIP3    H2 4467   7.921   3.871   3.264
 1504TIP3   OH2 4468   2.387   5.169   6.191
 1504TIP3    H1 4469   2.343   5.091   6.224
 1504TIP3    H2 4470   2.387   5.158   6.096
 1505TIP3   OH2 4471   6.217   0.440   2.518
 1505TIP3    H1 4472   6.235   0.514   2.460
 1505TIP3    H2 4473   6.287   0.444   2.584
 1506TIP3   OH2 4474   1.822   2.563   5.923
 1506TIP3    H1 4475   1.835   2.518   5.840
 1506TIP3    H2 4476   1.901   2.543   5.974
 1507TIP3   OH2 4477   4.733   6.434   3.304
 1507TIP3    H1 4478   4.742   6.486   3.383
 1507TIP3    H2 4479   4.703   6.496   3.237
 1508TIP3   OH2 4480   5.773   7.743   6.245
 1508TIP3    H1 4481   5.715   7.783   6.309
 1508TIP3    H2 4482   5.814   7.670   6.292
 1509TIP3   OH2 4483   2.973   4.708   4.009
 1509TIP3    H1 4484   3.015   4.643   3.952
 1509TIP3    H2 4485   3.034   4.782   4.008
 1510TIP3   OH2 4486   7.411   7.001   2.843
 1510TIP3    H1 4487   7.394   7.095   2.843
 1510TIP3    H2 4488   7.506   6.995   2.829
 1511TIP3   OH2 4489   0.763   6.914   3.449
 1511TIP3    H1 4490   0.674   6.944   3.429
 1511TIP3    H2 4491   0.806   6.991   3.486
 1512TIP3   OH2 4492   5.930   1.141   1.571
 1512TIP3    H1 4493   5.946   1.091   1.650
 1512TIP3    H2 4494   5.891   1.223   1.601
 1513TIP3   OH2 4495   2.633   4.236   1.892
 1513TIP3    H1 4496   2.724   4.210   1.878
 1513TIP3    H2 4497   2.586   4.154   1.909
 1514TIP3   OH2 4498   4.382   1.777   4.427
 1514TIP3    H1 4499   4.411   1.701   4.477
 1514TIP3    H2 4500   4.310   1.744   4.373
 1515TIP3   OH2 4501   3.385   6.042   4.681
 1515TIP3    H1 4502   3.329   5.975   4.640
 1515TIP3    H2 4503   3.337   6.068   4.759
 1516TIP3   OH2 4504   6.065   6.453   4.702
 1516TIP3    H1 4505   5.970   6.443   4.704
 1516TIP3    H2 4506   6.080   6.547   4.718
 1517TIP3   OH2 4507   0.810   3.246   1.782
 1517TIP3    H1 4508   0.891   3.203   1.754
 1517TIP3    H2 4509   0.741   3.204   1.730
 1518TIP3   OH2 4510   1.512   7.614   6.367
 1518TIP3    H1 4511   1.593   7.580   6.330
 1518TIP3    H2 4512   1.452   7.621   6.293
 1519TIP3   OH2 4513   8.119   0.167   3.440
 1519TIP3    H1 4514   8.124   0.072   3.441
 1519TIP3    H2 4515   8.056   0.189   3.508
 1520TIP3   OH2 4516   2.395   2.832   1.145
 1520TIP3    H1 4517   2.474   2.825   1.092
 1520TIP3    H2 4518   2.416   2.786   1.226
 1521TIP3   OH2 4519   3.240   2.199   0.553
 1521TIP3    H1 4520   3.262   2.189   0.646
 1521TIP3    H2 4521   3.306   2.148   0.507
 1522TIP3   OH2 4522   0.983   4.746   6.597
 1522TIP3    H1 4523   1.047   4.769   6.665
 1522TIP3    H2 4524   0.902   4.788   6.625
 1523TIP3   OH2 4525   7.910   4.351   2.824
 1523TIP3    H1 4526   7.975   4.401   2.873
 1523TIP3    H2 4527   7.911   4.391   2.737
 1524TIP3   OH2 4528   3.939   5.436   1.332
 1524TIP3    H1 4529   4.033   5.436   1.315
 1524TIP3    H2 4530   3.908   5.354   1.293
 1525TIP3   OH2 4531   1.056   4.826   2.895
 1525TIP3    H1 4532   1.089   4.877   2.821
 1525TIP3    H2 4533   0.975   4.870   2.920
 1526TIP3   OH2 4534   3.097   3.016   6.272
 1526TIP3    H1 4535   3.145   2.933   6.273
 1526TIP3    H2 4536   3.150   3.073   6.216
 1527TIP3   OH2 4537   4.378   7.274   1.221
 1527TIP3    H1 4538   4.457   7.301   1.267
 1527TIP3    H2 4539   4.306   7.313   1.272
 1528TIP3   OH2 4540   3.746   0.724   2.249
 1528TIP3    H1 4541   3.794   0.757   2.324
 1528TIP3    H2 4542   3.685   0.660   2.286
 1529TIP3   OH2 4543   0.279   0.734   3.401
 1529TIP3    H1 4544   0.205   0.794   3.389
 1529TIP3    H2 4545   0.336   0.777   3.465
 1530TIP3   OH2 4546   1.041   0.068   4.908
 1530TIP3    H1 4547   0.990  -0.012   4.898
 1530TIP3    H2 4548   0.991   0.120   4.971
 1531TIP3   OH2 4549   6.549   2.038   1.251
 1531TIP3    H1 4550   6.465   2.001   1.280
 1531TIP3    H2 4551   6.569   2.106   1.314
 1532TIP3   OH2 4552   0.938   4.262   1.780
 1532TIP3    H1 4553   0.850   4.295   1.763
 1532TIP3    H2 4554   0.979   4.256   1.694
 1533TIP3   OH2 4555   5.220   5.427   0.424
 1533TIP3    H1 4556   5.140   5.429   0.476
 1533TIP3    H2 4557   5.241   5.334   0.416
 1534TIP3   OH2 4558   1.101   3.350   3.368
 1534TIP3    H1 4559   1.153   3.272   3.348
 1534TIP3    H2 4560   1.135   3.380   3.452
 1535TIP3   OH2 4561   7.081   5.774   6.119
 1535TIP3    H1 4562   7.097   5.732   6.034
 1535TIP3    H2 4563   7.138   5.727   6.180
 1536TIP3   OH2 4564   4.859   2.529   0.302
 1536TIP3    H1 4565   4.859   2.601   0.238
 1536TIP3    H2 4566   4.915   2.561   0.372
 1537TIP3   OH2 4567   7.222   2.290   4.870
 1537TIP3    H1 4568   7.154   2.245   4.819
 1537TIP3    H2 4569   7.299   2.288   4.814
 1538TIP3   OH2 4570   0.768   3.942   0.769
 1538TIP3    H1 4571   0.826   3.865   0.771
 1538TIP3    H2 4572   0.744   3.957   0.860
 1539TIP3   OH2 4573   7.064   0.459   2.977
 1539TIP3    H1 4574   7.108   0.460   3.062
 1539TIP3    H2 4575   7.089   0.542   2.937
 1540TIP3   OH2 4576   3.931   7.554   1.977
 1540TIP3    H1 4577   3.899   7.644   1.966
 1540TIP3    H2 4578   3.937   7.542   2.072
 1541TIP3   OH2 4579   2.969   6.139   6.077
 1541TIP3    H1 4580   2.989   6.101   5.991
 1541TIP3    H2 4581   2.998   6.073   6.140
 1542TIP3   OH2 4582   1.138   1.100   2.602
 1542TIP3    H1 4583   1.168   1.137   2.519
 1542TIP3    H2 4584   1.163   1.165   2.668
 1543TIP3   OH2 4585   2.479   3.626   2.298
 1543TIP3    H1 4586   2.570   3.599   2.306
 1543TIP3    H2 4587   2.482   3.703   2.241
 1544TIP3   OH2 4588   5.346   4.637   0.451
 1544TIP3    H1 4589   5.387   4.551   0.458
 1544TIP3    H2 4590   5.255   4.619   0.428
 1545TIP3   OH2 4591   0.289   0.895   2.865
 1545TIP3    H1 4592   0.211   0.920   2.815
 1545TIP3    H2 4593   0.263   0.816   2.912
 1546TIP3   OH2 4594   4.135   3.577   6.280
 1546TIP3    H1 4595   4.153   3.483   6.286
 1546TIP3    H2 4596   4.040   3.584   6.288
 1547TIP3   OH2 4597   5.799   6.370   0.962
 1547TIP3    H1 4598   5.878   6.412   0.926
 1547TIP3    H2 4599   5.742   6.360   0.886
 1548TIP3   OH2 4600   7.021   1.796   4.751
 1548TIP3    H1 4601   7.079   1.773   4.679
 1548TIP3    H2 4602   6.936   1.810   4.709
 1549TIP3   OH2 4603   0.198   0.263   2.584
 1549TIP3    H1 4604   0.178   0.180   2.627
 1549TIP3    H2 4605   0.163   0.330   2.643
 1550TIP3   OH2 4606   6.352   4.512   0.632
 1550TIP3    H1 4607   6.406   4.433   0.644
 1550TIP3    H2 4608   6.341   4.520   0.537
 1551TIP3   OH2 4609   7.462   2.891   5.535
 1551TIP3    H1 4610   7.553   2.907   5.561
 1551TIP3    H2 4611   7.425   2.978   5.523
 1552TIP3   OH2 4612   7.607   3.056   6.395
 1552TIP3    H1 4613   7.627   3.083   6.485
 1552TIP3    H2 4614   7.523   3.011   6.402
 1553TIP3   OH2 4615   2.947   5.957   3.415
 1553TIP3    H1 4616   3.007   6.018   3.458
 1553TIP3    H2 4617   2.877   5.943   3.479
 1554TIP3   OH2 4618   7.911   5.191   5.047
 1554TIP3    H1 4619   7.824   5.198   5.010
 1554TIP3    H2 4620   7.902   5.126   5.117
 1555TIP3   OH2 4621   7.366   6.035   5.119
 1555TIP3    H1 4622   7.299   5.968   5.106
 1555TIP3    H2 4623   7.325   6.116   5.091
 1556TIP3   OH2 4624   4.005   7.644   2.473
 1556TIP3    H1 4625   3.987   7.731   2.509
 1556TIP3    H2 4626   4.031   7.592   2.548
 1557TIP3   OH2 4627   3.029   6.894   3.548
 1557TIP3    H1 4628   2.952   6.895   3.606
 1557TIP3    H2 4629   3.084   6.824   3.584
 1558TIP3   OH2 4630   7.747   7.761   3.613
 1558TIP3    H1 4631   7.838   7.740   3.636
 1558TIP3    H2 4632   7.695   7.690   3.652
 1559TIP3   OH2 4633   1.373   2.464   1.370
 1559TIP3    H1 4634   1.342   2.545   1.330
 1559TIP3    H2 4635   1.448   2.490   1.423
 1560TIP3   OH2 4636   3.738   4.808   3.755
 1560TIP3    H1 4637   3.735   4.740   3.822
 1560TIP3    H2 4638   3.816   4.859   3.775
 1561TIP3   OH2 4639   5.855   4.492   2.753
 1561TIP3    H1 4640   5.930   4.493   2.812
 1561TIP3    H2 4641   5.867   4.569   2.697
 1562TIP3   OH2 4642   2.920   7.581   0.112
 1562TIP3    H1 4643   2.851   7.515   0.119
 1562TIP3    H2 4644   2.969   7.575   0.194
 1563TIP3   OH2 4645   4.042   1.123   1.447
 1563TIP3    H1 4646   4.003   1.204   1.413
 1563TIP3    H2 4647   4.067   1.074   1.369
 1564TIP3   OH2 4648   1.335   2.519   5.811
 1564TIP3    H1 4649   1.365   2.449   5.869
 1564TIP3    H2 4650   1.416   2.565   5.786
 1565TIP3   OH2 4651   1.603   1.081   4.145
 1565TIP3    H1 4652   1.574   0.996   4.179
 1565TIP3    H2 4653   1.685   1.062   4.100
 1566TIP3   OH2 4654   2.532   7.756   0.557
 1566TIP3    H1 4655   2.618   7.796   0.544
 1566TIP3    H2 4656   2.482   7.780   0.479
 1567TIP3   OH2 4657   2.248   1.104   1.427
 1567TIP3    H1 4658   2.201   1.153   1.494
 1567TIP3    H2 4659   2.190   1.106   1.351
 1568TIP3   OH2 4660   2.124   0.204   3.594
 1568TIP3    H1 4661   2.144   0.189   3.501
 1568TIP3    H2 4662   2.117   0.116   3.631
 1569TIP3   OH2 4663   7.898   2.506   5.877
 1569TIP3    H1 4664   7.956   2.522   5.951
 1569TIP3    H2 4665   7.814   2.543   5.904
 1570TIP3   OH2 4666   4.887   3.655   2.642
 1570TIP3    H1 4667   4.816   3.695   2.592
 1570TIP3    H2 4668   4.869   3.561   2.640
 1571TIP3   OH2 4669   8.272   4.073   5.772
 1571TIP3    H1 4670   8.343   4.014   5.797
 1571TIP3    H2 4671   8.199   4.047   5.828
 1572TIP3   OH2 4672   2.862   7.289   0.289
 1572TIP3    H1 4673   2.776   7.291   0.330
 1572TIP3    H2 4674   2.924   7.287   0.362
 1573TIP3   OH2 4675   8.271   7.223   4.881
 1573TIP3    H1 4676   8.262   7.311   4.846
 1573TIP3    H2 4677   8.228   7.167   4.817
 1574TIP3   OH2 4678   7.264   1.277   2.746
 1574TIP3    H1 4679   7.271   1.220   2.823
 1574TIP3    H2 4680   7.187   1.331   2.764
 1575TIP3   OH2 4681   1.171   5.773   3.349
 1575TIP3    H1 4682   1.221   5.850   3.374
 1575TIP3    H2 4683   1.094   5.807   3.303
 1576TIP3   OH2 4684   8.203   1.856   3.873
 1576TIP3    H1 4685   8.241   1.943   3.884
 1576TIP3    H2 4686   8.257   1.798   3.927
 1577TIP3   OH2 4687   0.458   3.194   6.274
 1577TIP3    H1 4688   0.422   3.281   6.293
 1577TIP3    H2 4689   0.418   3.136   6.339
 1578TIP3   OH2 4690   4.500   3.341   2.944
 1578TIP3    H1 4691   4.495   3.403   2.871
 1578TIP3    H2 4692   4.591   3.310   2.943
 1579TIP3   OH2 4693   3.547   5.694   6.709
 1579TIP3    H1 4694   3.565   5.753   6.782
 1579TIP3    H2 4695   3.549   5.751   6.632
 1580TIP3   OH2 4696   3.930   3.273   5.283
 1580TIP3    H1 4697   3.917   3.335   5.211
 1580TIP3    H2 4698   3.922   3.327   5.362
 1581TIP3   OH2 4699   0.174   4.134   0.886
 1581TIP3    H1 4700   0.154   4.227   0.877
 1581TIP3    H2 4701   0.204   4.108   0.799
 1582TIP3   OH2 4702   2.908   0.325   4.030
 1582TIP3    H1 4703   2.862   0.390   3.977
 1582TIP3    H2 4704   2.999   0.355   4.031
 1583TIP3   OH2 4705   4.045   3.910   4.207
 1583TIP3    H1 4706   3.952   3.892   4.222
 1583TIP3    H2 4707   4.090   3.863   4.277
 1584TIP3   OH2 4708   6.078   5.579   6.694
 1584TIP3    H1 4709   5.988   5.600   6.721
 1584TIP3    H2 4710   6.067   5.518   6.622
 1585TIP3   OH2 4711   5.047   5.556   6.680
 1585TIP3    H1 4712   5.025   5.493   6.612
 1585TIP3    H2 4713   5.128   5.522   6.719
 1586TIP3   OH2 4714   5.525   7.714   6.097
 1586TIP3    H1 4715   5.616   7.706   6.123
 1586TIP3    H2 4716   5.479   7.647   6.149
 1587TIP3   OH2 4717   7.248   3.876   3.002
 1587TIP3    H1 4718   7.338   3.903   2.986
 1587TIP3    H2 4719   7.253   3.780   3.009
 1588TIP3   OH2 4720   4.997   4.030   5.510
 1588TIP3    H1 4721   4.987   3.968   5.583
 1588TIP3    H2 4722   5.082   4.071   5.524
 1589TIP3   OH2 4723   5.237   0.978   1.422
 1589TIP3    H1 4724   5.153   0.948   1.387
 1589TIP3    H2 4725   5.250   1.065   1.384
 1590TIP3   OH2 4726   2.099   4.100   3.159
 1590TIP3    H1 4727   2.020   4.096   3.214
 1590TIP3    H2 4728   2.159   4.037   3.199
 1591TIP3   OH2 4729   4.381   5.159   2.412
 1591TIP3    H1 4730   4.323   5.209   2.354
 1591TIP3    H2 4731   4.462   5.210   2.414
 1592TIP3   OH2 4732   6.702   5.659   1.214
 1592TIP3    H1 4733   6.675   5.686   1.126
 1592TIP3    H2 4734   6.667   5.570   1.224
 1593TIP3   OH2 4735   0.067   3.410   6.591
 1593TIP3    H1 4736   0.150   3.365   6.576
 1593TIP3    H2 4737   0.004   3.339   6.604
 1594TIP3   OH2 4738   5.055   6.463   3.612
 1594TIP3    H1 4739   5.025   6.539   3.661
 1594TIP3    H2 4740   5.015   6.388   3.656
 1595TIP3   OH2 4741   0.086   1.302   5.385
 1595TIP3    H1 4742   0.160   1.362   5.375
 1595TIP3    H2 4743   0.047   1.296   5.298
 1596TIP3   OH2 4744   7.981   2.123   4.748
 1596TIP3    H1 4745   7.887   2.116   4.730
 1596TIP3    H2 4746   8.021   2.119   4.661
 1597TIP3   OH2 4747   2.752   6.423   3.027
 1597TIP3    H1 4748   2.823   6.398   2.968
 1597TIP3    H2 4749   2.779   6.507   3.064
 1598TIP3   OH2 4750   0.713   5.544   2.232
 1598TIP3    H1 4751   0.768   5.607   2.187
 1598TIP3    H2 4752   0.740   5.459   2.198
 1599TIP3   OH2 4753   2.913   1.333   0.932
 1599TIP3    H1 4754   2.993   1.288   0.904
 1599TIP3    H2 4755   2.906   1.408   0.873
 1600TIP3   OH2 4756   3.675   4.625   0.187
 1600TIP3    H1 4757   3.657   4.634   0.281
 1600TIP3    H2 4758   3.602   4.573   0.154
 1601TIP3   OH2 4759   4.353   6.033   4.908
 1601TIP3    H1 4760   4.263   6.003   4.891
 1601TIP3    H2 4761   4.377   6.080   4.828
 1602TIP3   OH2 4762   3.525   1.000   3.596
 1602TIP3    H1 4763   3.547   1.093   3.594
 1602TIP3    H2 4764   3.551   0.967   3.510
 1603TIP3   OH2 4765   1.288   5.318   0.051
 1603TIP3    H1 4766   1.302   5.341   0.143
 1603TIP3    H2 4767   1.212   5.261   0.051
 1604TIP3   OH2 4768   8.170   6.519   4.623
 1604TIP3    H1 4769   8.104   6.460   4.660
 1604TIP3    H2 4770   8.239   6.522   4.689
 1605TIP3   OH2 4771   8.144   6.103   6.723
 1605TIP3    H1 4772   8.218   6.049   6.695
 1605TIP3    H2 4773   8.102   6.130   6.642
 1606TIP3   OH2 4774   5.010   0.654   4.943
 1606TIP3    H1 4775   5.065   0.580   4.918
 1606TIP3    H2 4776   5.065   0.706   5.002
 1607TIP3   OH2 4777   2.900   1.663   2.386
 1607TIP3    H1 4778   2.987   1.642   2.419
 1607TIP3    H2 4779   2.854   1.702   2.460
 1608TIP3   OH2 4780   0.832   3.025   5.695
 1608TIP3    H1 4781   0.812   3.022   5.789
 1608TIP3    H2 4782   0.838   3.119   5.675
 1609TIP3   OH2 4783   2.657   0.163   1.903
 1609TIP3    H1 4784   2.748   0.190   1.890
 1609TIP3    H2 4785   2.648   0.158   1.998
 1610TIP3   OH2 4786   4.033   6.015   2.380
 1610TIP3    H1 4787   4.012   5.924   2.361
 1610TIP3    H2 4788   4.043   6.018   2.475
 1611TIP3   OH2 4789   2.348   4.242   2.259
 1611TIP3    H1 4790   2.276   4.181   2.253
 1611TIP3    H2 4791   2.379   4.253   2.168
 1612TIP3   OH2 4792   3.667   2.682   5.502
 1612TIP3    H1 4793   3.666   2.759   5.558
 1612TIP3    H2 4794   3.682   2.717   5.414
 1613TIP3   OH2 4795   3.014   3.525   4.721
 1613TIP3    H1 4796   3.099   3.508   4.762
 1613TIP3    H2 4797   3.036   3.576   4.643
 1614TIP3   OH2 4798   7.497   5.313   2.748
 1614TIP3    H1 4799   7.508   5.291   2.655
 1614TIP3    H2 4800   7.501   5.229   2.793
 1615TIP3   OH2 4801   4.272   3.920   6.114
 1615TIP3    H1 4802   4.271   3.951   6.205
 1615TIP3    H2 4803   4.285   3.826   6.121
 1616TIP3   OH2 4804   2.602   4.095   3.227
 1616TIP3    H1 4805   2.582   4.005   3.250
 1616TIP3    H2 4806   2.516   4.138   3.221
 1617TIP3   OH2 4807   0.107   0.079   6.432
 1617TIP3    H1 4808   0.078   0.047   6.517
 1617TIP3    H2 4809   0.179   0.139   6.452
 1618TIP3   OH2 4810   2.669   0.433   4.917
 1618TIP3    H1 4811   2.750   0.392   4.888
 1618TIP3    H2 4812   2.607   0.360   4.926
 1619TIP3   OH2 4813   2.997   5.936   6.269
 1619TIP3    H1 4814   3.082   5.913   6.306
 1619TIP3    H2 4815   2.938   5.938   6.344
 1620TIP3   OH2 4816   0.945   0.901   3.202
 1620TIP3    H1 4817   0.951   0.880   3.295
 1620TIP3    H2 4818   1.030   0.940   3.181
 1621TIP3   OH2 4819   5.893   4.142   2.118
 1621TIP3    H1 4820   5.825   4.191   2.072
 1621TIP3    H2 4821   5.844   4.078   2.171
 1622TIP3   OH2 4822   3.113   1.824   0.893
 1622TIP3    H1 4823   3.184   1.857   0.948
 1622TIP3    H2 4824   3.034   1.866   0.926
 1623TIP3   OH2 4825   6.542   0.029   2.760
 1623TIP3    H1 4826   6.526  -0.030   2.834
 1623TIP3    H2 4827   6.455   0.042   2.721
 1624TIP3   OH2 4828   6.050   0.634   5.977
 1624TIP3    H1 4829   6.047   0.647   6.071
 1624TIP3    H2 4830   6.039   0.539   5.965
 1625TIP3   OH2 4831   3.332   3.135   0.047
 1625TIP3    H1 4832   3.302   3.151   0.137
 1625TIP3    H2 4833   3.285   3.056   0.020
 1626TIP3   OH2 4834   1.550   0.141   0.481
 1626TIP3    H1 4835   1.619   0.137   0.548
 1626TIP3    H2 4836   1.508   0.055   0.486
 1627TIP3   OH2 4837   7.545   7.275   5.293
 1627TIP3    H1 4838   7.471   7.330   5.269
 1627TIP3    H2 4839   7.544   7.274   5.389
 1628TIP3   OH2 4840   4.889   4.349   1.732
 1628TIP3    H1 4841   4.809   4.315   1.692
 1628TIP3    H2 4842   4.871   4.443   1.744
 1629TIP3   OH2 4843   6.360   1.586   5.623
 1629TIP3    H1 4844   6.384   1.541   5.542
 1629TIP3    H2 4845   6.269   1.614   5.609
 1630TIP3   OH2 4846   7.488   6.523   5.060
 1630TIP3    H1 4847   7.544   6.446   5.050
 1630TIP3    H2 4848   7.402   6.488   5.080
 1631TIP3   OH2 4849   3.031   2.667   3.827
 1631TIP3    H1 4850   2.972   2.707   3.891
 1631TIP3    H2 4851   2.982   2.671   3.744
 1632TIP3   OH2 4852   2.799   2.244   0.767
 1632TIP3    H1 4853   2.747   2.213   0.842
 1632TIP3    H2 4854   2.797   2.339   0.775
 1633TIP3   OH2 4855   7.407   5.705   5.874
 1633TIP3    H1 4856   7.460   5.705   5.794
 1633TIP3    H2 4857   7.331   5.758   5.852
 1634TIP3   OH2 4858   5.411   0.615   1.406
 1634TIP3    H1 4859   5.430   0.696   1.454
 1634TIP3    H2 4860   5.489   0.561   1.418
 1635TIP3   OH2 4861   5.657   0.326   5.332
 1635TIP3    H1 4862   5.648   0.386   5.406
 1635TIP3    H2 4863   5.698   0.378   5.263
 1636TIP3   OH2 4864   2.033   3.653   3.363
 1636TIP3    H1 4865   1.953   3.699   3.340
 1636TIP3    H2 4866   2.083   3.649   3.282
 1637TIP3   OH2 4867   6.294   1.923   2.480
 1637TIP3    H1 4868   6.275   1.829   2.479
 1637TIP3    H2 4869   6.275   1.952   2.391
 1638TIP3   OH2 4870   5.773   7.165   2.186
 1638TIP3    H1 4871   5.711   7.218   2.237
 1638TIP3    H2 4872   5.842   7.143   2.248
 1639TIP3   OH2 4873   0.338   4.515   0.190
 1639TIP3    H1 4874   0.271   4.527   0.258
 1639TIP3    H2 4875   0.342   4.421   0.177
 1640TIP3   OH2 4876   0.319   6.548   5.535
 1640TIP3    H1 4877   0.340   6.478   5.474
 1640TIP3    H2 4878   0.278   6.616   5.481
 1641TIP3   OH2 4879   5.271   4.793   4.320
 1641TIP3    H1 4880   5.287   4.815   4.411
 1641TIP3    H2 4881   5.298   4.702   4.312
 1642TIP3   OH2 4882   0.063   0.891   3.448
 1642TIP3    H1 4883   0.088   0.982   3.465
 1642TIP3    H2 4884  -0.023   0.897   3.406
 1643TIP3   OH2 4885   8.003   0.518   4.179
 1643TIP3    H1 4886   8.071   0.544   4.241
 1643TIP3    H2 4887   7.922   0.552   4.216
 1644TIP3   OH2 4888   2.652   2.197   2.631
 1644TIP3    H1 4889   2.633   2.257   2.559
 1644TIP3    H2 4890   2.596   2.121   2.614
 1645TIP3   OH2 4891   4.996   2.371   6.461
 1645TIP3    H1 4892   4.949   2.318   6.526
 1645TIP3    H2 4893   4.929   2.430   6.426
 1646TIP3   OH2 4894   0.836   5.705   2.671
 1646TIP3    H1 4895   0.892   5.776   2.640
 1646TIP3    H2 4896   0.754   5.748   2.695
 1647TIP3   OH2 4897   6.888   2.490   0.250
 1647TIP3    H1 4898   6.922   2.401   0.257
 1647TIP3    H2 4899   6.932   2.538   0.320
 1648TIP3   OH2 4900   1.559   2.889   5.381
 1648TIP3    H1 4901   1.495   2.951   5.414
 1648TIP3    H2 4902   1.639   2.940   5.371
 1649TIP3   OH2 4903   4.335   4.620   5.980
 1649TIP3    H1 4904   4.259   4.562   5.975
 1649TIP3    H2 4905   4.299   4.708   5.967
 1650TIP3   OH2 4906   5.898   3.970   6.289
 1650TIP3    H1 4907   5.828   3.973   6.354
 1650TIP3    H2 4908   5.974   3.940   6.338
 1651TIP3   OH2 4909   4.039   4.415   1.078
 1651TIP3    H1 4910   4.098   4.373   1.015
 1651TIP3    H2 4911   3.981   4.469   1.024
 1652TIP3   OH2 4912   5.475   6.238   1.777
 1652TIP3    H1 4913   5.517   6.304   1.833
 1652TIP3    H2 4914   5.541   6.169   1.767
 1653TIP3   OH2 4915   7.547   3.034   3.881
 1653TIP3    H1 4916   7.584   3.095   3.817
 1653TIP3    H2 4917   7.574   2.948   3.850
 1654TIP3   OH2 4918   8.243   1.881   4.546
 1654TIP3    H1 4919   8.191   1.961   4.557
 1654TIP3    H2 4920   8.239   1.862   4.453
 1655TIP3   OH2 4921   4.725   0.118   5.338
 1655TIP3    H1 4922   4.707   0.205   5.301
 1655TIP3    H2 4923   4.792   0.135   5.404
 1656TIP3   OH2 4924   2.608   6.599   3.826
 1656TIP3    H1 4925   2.652   6.639   3.900
 1656TIP3    H2 4926   2.527   6.562   3.862
 1657TIP3   OH2 4927   6.660   6.283   4.672
 1657TIP3    H1 4928   6.583   6.257   4.723
 1657TIP3    H2 4929   6.648   6.240   4.588
 1658TIP3   OH2 4930   2.792   0.305   3.393
 1658TIP3    H1 4931   2.705   0.343   3.381
 1658TIP3    H2 4932   2.785   0.217   3.356
 1659TIP3   OH2 4933   5.054   4.926   3.701
 1659TIP3    H1 4934   5.134   4.962   3.740
 1659TIP3    H2 4935   5.017   4.870   3.769
 1660TIP3   OH2 4936   7.079   1.111   3.516
 1660TIP3    H1 4937   6.990   1.142   3.503
 1660TIP3    H2 4938   7.073   1.048   3.588
 1661TIP3   OH2 4939   2.349   5.540   2.270
 1661TIP3    H1 4940   2.388   5.627   2.276
 1661TIP3    H2 4941   2.421   5.482   2.245
 1662TIP3   OH2 4942   2.812   1.795   6.305
 1662TIP3    H1 4943   2.884   1.852   6.278
 1662TIP3    H2 4944   2.779   1.833   6.386
 1663TIP3   OH2 4945   5.328   0.559   1.116
 1663TIP3    H1 4946   5.378   0.489   1.073
 1663TIP3    H2 4947   5.343   0.545   1.209
 1664TIP3   OH2 4948   7.469   1.798   1.704
 1664TIP3    H1 4949   7.556   1.774   1.734
 1664TIP3    H2 4950   7.409   1.755   1.766
 1665TIP3   OH2 4951   1.331   5.673   5.173
 1665TIP3    H1 4952   1.300   5.738   5.237
 1665TIP3    H2 4953   1.259   5.665   5.111
 1666TIP3   OH2 4954   6.480   3.656   6.680
 1666TIP3    H1 4955   6.498   3.563   6.692
 1666TIP3    H2 4956   6.395   3.670   6.720
 1667TIP3   OH2 4957   2.076   1.341   1.154
 1667TIP3    H1 4958   2.138   1.359   1.083
 1667TIP3    H2 4959   2.084   1.247   1.170
 1668TIP3   OH2 4960   7.234   4.447   5.375
 1668TIP3    H1 4961   7.200   4.511   5.314
 1668TIP3    H2 4962   7.159   4.391   5.396
 1669TIP3   OH2 4963   0.187   4.397   4.839
 1669TIP3    H1 4964   0.183   4.383   4.745
 1669TIP3    H2 4965   0.108   4.354   4.873
 1670TIP3   OH2 4966   3.362   2.017   1.831
 1670TIP3    H1 4967   3.298   2.084   1.856
 1670TIP3    H2 4968   3.404   1.992   1.913
 1671TIP3   OH2 4969   6.222   7.712   3.191
 1671TIP3    H1 4970   6.141   7.681   3.150
 1671TIP3    H2 4971   6.266   7.632   3.220
 1672TIP3   OH2 4972   1.703   1.270   0.429
 1672TIP3    H1 4973   1.671   1.182   0.446
 1672TIP3    H2 4974   1.789   1.274   0.472
 1673TIP3   OH2 4975   2.685   5.733   6.479
 1673TIP3    H1 4976   2.726   5.661   6.430
 1673TIP3    H2 4977   2.594   5.732   6.452
 1674TIP3   OH2 4978   7.034   5.420   3.737
 1674TIP3    H1 4979   7.037   5.382   3.824
 1674TIP3    H2 4980   7.015   5.513   3.751
 1675TIP3   OH2 4981   5.615   5.026   4.455
 1675TIP3    H1 4982   5.593   5.013   4.548
 1675TIP3    H2 4983   5.705   5.058   4.457
 1676TIP3   OH2 4984   3.847   7.110   5.685
 1676TIP3    H1 4985   3.851   7.204   5.702
 1676TIP3    H2 4986   3.753   7.090   5.688
 1677TIP3   OH2 4987   5.183   2.069   4.222
 1677TIP3    H1 4988   5.121   2.069   4.149
 1677TIP3    H2 4989   5.237   1.991   4.208
 1678TIP3   OH2 4990   6.536   1.874   4.409
 1678TIP3    H1 4991   6.607   1.934   4.430
 1678TIP3    H2 4992   6.491   1.859   4.492
 1679TIP3   OH2 4993   4.797   7.708   4.092
 1679TIP3    H1 4994   4.803   7.767   4.016
 1679TIP3    H2 4995   4.723   7.741   4.142
 1680TIP3   OH2 4996   4.882   1.196   5.499
 1680TIP3    H1 4997   4.861   1.282   5.535
 1680TIP3    H2 4998   4.804   1.143   5.515
 1681TIP3   OH2 4999   0.058   6.074   6.133
 1681TIP3    H1 5000   0.113   5.999   6.108
 1681TIP3    H2 5001   0.077   6.088   6.226
 1682TIP3   OH2 5002   3.349   7.642   6.144
 1682TIP3    H1 5003   3.285   7.594   6.090
 1682TIP3    H2 5004   3.311   7.729   6.153
 1683TIP3   OH2 5005   0.903   6.713   5.883
 1683TIP3    H1 5006   0.900   6.712   5.978
 1683TIP3    H2 5007   0.814   6.693   5.856
 1684TIP3   OH2 5008   1.735   0.061   6.704
 1684TIP3    H1 5009   1.824   0.075   6.736
 1684TIP3    H2 5010   1.735  -0.029   6.670
 1685TIP3   OH2 5011   3.589   4.629   2.084
 1685TIP3    H1 5012   3.654   4.636   2.154
 1685TIP3    H2 5013   3.636   4.653   2.005
 1686TIP3   OH2 5014   0.095   7.637   1.297
 1686TIP3    H1 5015   0.135   7.724   1.296
 1686TIP3    H2 5016   0.161   7.580   1.338
 1687TIP3   OH2 5017   7.325   4.835   5.342
 1687TIP3    H1 5018   7.367   4.807   5.260
 1687TIP3    H2 5019   7.231   4.819   5.327
 1688TIP3   OH2 5020   3.305   1.368   0.202
 1688TIP3    H1 5021   3.266   1.454   0.187
 1688TIP3    H2 5022   3.400   1.383   0.192
 1689TIP3   OH2 5023   1.600   0.967   6.090
 1689TIP3    H1 5024   1.608   0.932   6.001
 1689TIP3    H2 5025   1.512   1.005   6.093
 1690TIP3   OH2 5026   1.829   2.565   1.449
 1690TIP3    H1 5027   1.910   2.557   1.499
 1690TIP3    H2 5028   1.856   2.552   1.358
 1691TIP3   OH2 5029   3.670   3.896   6.108
 1691TIP3    H1 5030   3.675   3.804   6.085
 1691TIP3    H2 5031   3.745   3.937   6.063
 1692TIP3   OH2 5032   1.946   4.682   4.306
 1692TIP3    H1 5033   1.904   4.665   4.390
 1692TIP3    H2 5034   1.979   4.772   4.312
 1693TIP3   OH2 5035   0.084   4.072   4.639
 1693TIP3    H1 5036   0.117   4.152   4.599
 1693TIP3    H2 5037  -0.004   4.094   4.668
 1694TIP3   OH2 5038   6.362   1.963   6.641
 1694TIP3    H1 5039   6.370   2.058   6.633
 1694TIP3    H2 5040   6.445   1.929   6.606
 1695TIP3   OH2 5041   6.479   5.356   2.508
 1695TIP3    H1 5042   6.539   5.304   2.562
 1695TIP3    H2 5043   6.483   5.444   2.546
 1696TIP3   OH2 5044   7.929   0.571   0.090
 1696TIP3    H1 5045   7.925   0.595   0.182
 1696TIP3    H2 5046   7.900   0.480   0.087
 1697TIP3   OH2 5047   3.886   7.617   3.413
 1697TIP3    H1 5048   3.840   7.536   3.392
 1697TIP3    H2 5049   3.867   7.676   3.340
 1698TIP3   OH2 5050   3.302   0.128   3.010
 1698TIP3    H1 5051   3.289   0.165   2.922
 1698TIP3    H2 5052   3.378   0.174   3.044
 1699TIP3   OH2 5053   2.374   6.633   1.212
 1699TIP3    H1 5054   2.298   6.603   1.162
 1699TIP3    H2 5055   2.427   6.682   1.149
 1700TIP3   OH2 5056   6.355   4.047   2.587
 1700TIP3    H1 5057   6.293   3.996   2.639
 1700TIP3    H2 5058   6.387   3.986   2.521
 1701TIP3   OH2 5059   7.737   3.067   0.884
 1701TIP3    H1 5060   7.662   3.021   0.923
 1701TIP3    H2 5061   7.806   3.060   0.950
 1702TIP3   OH2 5062   5.161   4.857   6.442
 1702TIP3    H1 5063   5.159   4.794   6.514
 1702TIP3    H2 5064   5.071   4.887   6.432
 1703TIP3   OH2 5065   3.726   3.960   1.237
 1703TIP3    H1 5066   3.688   4.046   1.215
 1703TIP3    H2 5067   3.658   3.898   1.213
 1704TIP3   OH2 5068   2.626   3.079   2.250
 1704TIP3    H1 5069   2.716   3.057   2.275
 1704TIP3    H2 5070   2.598   3.142   2.317
 1705TIP3   OH2 5071   7.627   3.994   5.121
 1705TIP3    H1 5072   7.587   4.049   5.189
 1705TIP3    H2 5073   7.676   4.055   5.066
 1706TIP3   OH2 5074   6.826   5.297   2.926
 1706TIP3    H1 5075   6.892   5.232   2.902
 1706TIP3    H2 5076   6.876   5.369   2.964
 1707TIP3   OH2 5077   8.056   6.623   5.219
 1707TIP3    H1 5078   8.060   6.533   5.249
 1707TIP3    H2 5079   8.097   6.622   5.132
 1708TIP3   OH2 5080   3.001   3.478   2.045
 1708TIP3    H1 5081   2.927   3.533   2.071
 1708TIP3    H2 5082   2.984   3.393   2.084
 1709TIP3   OH2 5083   5.859   7.371   0.452
 1709TIP3    H1 5084   5.813   7.454   0.448
 1709TIP3    H2 5085   5.828   7.329   0.533
 1710TIP3   OH2 5086   5.051   5.045   2.840
 1710TIP3    H1 5087   5.029   5.136   2.822
 1710TIP3    H2 5088   5.133   5.049   2.890
 1711TIP3   OH2 5089   1.510   5.499   0.598
 1711TIP3    H1 5090   1.583   5.527   0.544
 1711TIP3    H2 5091   1.526   5.406   0.615
 1712TIP3   OH2 5092   7.120   6.207   2.712
 1712TIP3    H1 5093   7.140   6.115   2.725
 1712TIP3    H2 5094   7.144   6.224   2.621
 1713TIP3   OH2 5095   3.851   2.040   0.903
 1713TIP3    H1 5096   3.840   2.125   0.861
 1713TIP3    H2 5097   3.848   1.977   0.831
 1714TIP3   OH2 5098   4.691   0.669   4.385
 1714TIP3    H1 5099   4.723   0.678   4.474
 1714TIP3    H2 5100   4.596   0.680   4.392
 1715TIP3   OH2 5101   7.376   4.242   4.308
 1715TIP3    H1 5102   7.366   4.287   4.224
 1715TIP3    H2 5103   7.289   4.246   4.348
 1716TIP3   OH2 5104   6.353   4.591   5.063
 1716TIP3    H1 5105   6.380   4.560   5.150
 1716TIP3    H2 5106   6.406   4.670   5.049
 1717TIP3   OH2 5107   5.051   5.470   5.302
 1717TIP3    H1 5108   5.086   5.438   5.385
 1717TIP3    H2 5109   5.072   5.563   5.302
 1718TIP3   OH2 5110   5.288   5.543   2.172
 1718TIP3    H1 5111   5.380   5.515   2.167
 1718TIP3    H2 5112   5.284   5.599   2.249
 1719TIP3   OH2 5113   2.772   5.146   2.411
 1719TIP3    H1 5114   2.857   5.101   2.405
 1719TIP3    H2 5115   2.730   5.108   2.488
 1720TIP3   OH2 5116   1.455   7.024   0.884
 1720TIP3    H1 5117   1.499   7.001   0.802
 1720TIP3    H2 5118   1.381   6.965   0.890
 1721TIP3   OH2 5119   7.130   6.164   5.291
 1721TIP3    H1 5120   7.206   6.119   5.328
 1721TIP3    H2 5121   7.131   6.250   5.332
 1722TIP3   OH2 5122   8.045   6.778   5.899
 1722TIP3    H1 5123   7.960   6.796   5.938
 1722TIP3    H2 5124   8.080   6.865   5.877
 1723TIP3   OH2 5125   2.810   2.970   1.537
 1723TIP3    H1 5126   2.797   2.900   1.601
 1723TIP3    H2 5127   2.864   2.930   1.468
 1724TIP3   OH2 5128   4.405   0.603   2.858
 1724TIP3    H1 5129   4.387   0.539   2.928
 1724TIP3    H2 5130   4.358   0.568   2.782
 1725TIP3   OH2 5131   3.489   2.822   3.910
 1725TIP3    H1 5132   3.439   2.752   3.952
 1725TIP3    H2 5133   3.501   2.792   3.820
 1726TIP3   OH2 5134   4.624   7.194   0.830
 1726TIP3    H1 5135   4.574   7.258   0.780
 1726TIP3    H2 5136   4.558   7.131   0.860
 1727TIP3   OH2 5137   2.993   6.603   6.798
 1727TIP3    H1 5138   3.050   6.534   6.833
 1727TIP3    H2 5139   3.021   6.614   6.708
 1728TIP3   OH2 5140   7.039   5.184   5.124
 1728TIP3    H1 5141   7.002   5.098   5.145
 1728TIP3    H2 5142   7.114   5.193   5.183
 1729TIP3   OH2 5143   4.042   6.505   3.637
 1729TIP3    H1 5144   4.048   6.599   3.617
 1729TIP3    H2 5145   4.109   6.464   3.581
 1730TIP3   OH2 5146   4.582   2.160   0.185
 1730TIP3    H1 5147   4.591   2.237   0.129
 1730TIP3    H2 5148   4.493   2.130   0.170
 1731TIP3   OH2 5149   6.823  -0.024   6.357
 1731TIP3    H1 5150   6.881  -0.085   6.402
 1731TIP3    H2 5151   6.865   0.061   6.368
 1732TIP3   OH2 5152   4.359   1.163   3.262
 1732TIP3    H1 5153   4.334   1.071   3.261
 1732TIP3    H2 5154   4.356   1.188   3.355
 1733TIP3   OH2 5155   4.138   6.415   6.713
 1733TIP3    H1 5156   4.205   6.353   6.683
 1733TIP3    H2 5157   4.148   6.417   6.808
 1734TIP3   OH2 5158   5.145   6.776   3.750
 1734TIP3    H1 5159   5.170   6.792   3.841
 1734TIP3    H2 5160   5.062   6.729   3.756
 1735TIP3   OH2 5161   8.145   7.083   4.645
 1735TIP3    H1 5162   8.145   7.092   4.550
 1735TIP3    H2 5163   8.060   7.117   4.673
 1736TIP3   OH2 5164   2.039   2.792   0.759
 1736TIP3    H1 5165   2.097   2.854   0.804
 1736TIP3    H2 5166   2.057   2.708   0.802
 1737TIP3   OH2 5167   3.395   6.248   0.034
 1737TIP3    H1 5168   3.431   6.194   0.105
 1737TIP3    H2 5169   3.470   6.267  -0.022
 1738TIP3   OH2 5170   6.578   7.146   4.868
 1738TIP3    H1 5171   6.503   7.127   4.923
 1738TIP3    H2 5172   6.617   7.060   4.850
 1739TIP3   OH2 5173   0.083   6.296   3.803
 1739TIP3    H1 5174   0.159   6.268   3.752
 1739TIP3    H2 5175   0.011   6.243   3.770
 1740TIP3   OH2 5176   2.582   7.512   0.711
 1740TIP3    H1 5177   2.543   7.429   0.683
 1740TIP3    H2 5178   2.542   7.578   0.653
 1741TIP3   OH2 5179   4.687   0.389   3.570
 1741TIP3    H1 5180   4.627   0.440   3.515
 1741TIP3    H2 5181   4.708   0.448   3.643
 1742TIP3   OH2 5182   0.306   0.271   3.924
 1742TIP3    H1 5183   0.219   0.307   3.938
 1742TIP3    H2 5184   0.291   0.184   3.889
 1743TIP3   OH2 5185   0.648   2.673   3.937
 1743TIP3    H1 5186   0.638   2.756   3.984
 1743TIP3    H2 5187   0.637   2.606   4.005
 1744TIP3   OH2 5188   3.554   1.767   6.399
 1744TIP3    H1 5189   3.482   1.715   6.364
 1744TIP3    H2 5190   3.590   1.712   6.470
 1745TIP3   OH2 5191   1.677   0.641   4.910
 1745TIP3    H1 5192   1.765   0.677   4.898
 1745TIP3    H2 5193   1.677   0.561   4.857
 1746TIP3   OH2 5194   5.211   5.645   1.488
 1746TIP3    H1 5195   5.248   5.689   1.565
 1746TIP3    H2 5196   5.232   5.552   1.501
 1747TIP3   OH2 5197   1.779   5.950   0.276
 1747TIP3    H1 5198   1.695   5.963   0.319
 1747TIP3    H2 5199   1.763   5.877   0.215
 1748TIP3   OH2 5200   1.505   1.537   6.132
 1748TIP3    H1 5201   1.595   1.518   6.159
 1748TIP3    H2 5202   1.512   1.568   6.042
 1749TIP3   OH2 5203   1.620   5.697   1.247
 1749TIP3    H1 5204   1.550   5.723   1.186
 1749TIP3    H2 5205   1.607   5.753   1.323
 1750TIP3   OH2 5206   6.166   0.829   6.397
 1750TIP3    H1 5207   6.133   0.748   6.436
 1750TIP3    H2 5208   6.088   0.873   6.362
 1751TIP3   OH2 5209   3.140   4.406   5.733
 1751TIP3    H1 5210   3.081   4.467   5.690
 1751TIP3    H2 5211   3.082   4.343   5.777
 1752TIP3   OH2 5212   5.641   7.123   1.198
 1752TIP3    H1 5213   5.624   7.038   1.238
 1752TIP3    H2 5214   5.560   7.172   1.209
 1753TIP3   OH2 5215   5.676   6.986   5.780
 1753TIP3    H1 5216   5.624   6.907   5.765
 1753TIP3    H2 5217   5.699   6.982   5.873
 1754TIP3   OH2 5218   5.485   6.844   0.467
 1754TIP3    H1 5219   5.567   6.839   0.418
 1754TIP3    H2 5220   5.505   6.902   0.541
 1755TIP3   OH2 5221   7.676   3.781   3.655
 1755TIP3    H1 5222   7.600   3.770   3.713
 1755TIP3    H2 5223   7.720   3.859   3.689
 1756TIP3   OH2 5224   5.192   3.215   2.146
 1756TIP3    H1 5225   5.151   3.134   2.116
 1756TIP3    H2 5226   5.153   3.230   2.233
 1757TIP3   OH2 5227   7.706   0.205   2.626
 1757TIP3    H1 5228   7.765   0.150   2.678
 1757TIP3    H2 5229   7.725   0.183   2.535
 1758TIP3   OH2 5230   1.392   2.414   2.325
 1758TIP3    H1 5231   1.414   2.445   2.414
 1758TIP3    H2 5232   1.393   2.494   2.272
 1759TIP3   OH2 5233   7.952   1.724   3.872
 1759TIP3    H1 5234   8.043   1.727   3.841
 1759TIP3    H2 5235   7.957   1.682   3.958
 1760TIP3   OH2 5236   3.272   6.127   0.998
 1760TIP3    H1 5237   3.341   6.073   1.035
 1760TIP3    H2 5238   3.315   6.209   0.975
 1761TIP3   OH2 5239   5.813   1.756   4.641
 1761TIP3    H1 5240   5.847   1.689   4.701
 1761TIP3    H2 5241   5.725   1.726   4.619
 1762TIP3   OH2 5242   3.565   1.375   0.345
 1762TIP3    H1 5243   3.647   1.388   0.297
 1762TIP3    H2 5244   3.522   1.460   0.342
 1763TIP3   OH2 5245   4.651   6.097   1.743
 1763TIP3    H1 5246   4.623   6.064   1.658
 1763TIP3    H2 5247   4.698   6.024   1.783
 1764TIP3   OH2 5248   0.965   2.530   5.490
 1764TIP3    H1 5249   1.034   2.573   5.439
 1764TIP3    H2 5250   0.961   2.579   5.572
 1765TIP3   OH2 5251   7.437   0.961   3.487
 1765TIP3    H1 5252   7.383   0.920   3.554
 1765TIP3    H2 5253   7.409   0.920   3.405
 1766TIP3   OH2 5254   5.883   1.617   1.319
 1766TIP3    H1 5255   5.837   1.679   1.261
 1766TIP3    H2 5256   5.976   1.636   1.306
 1767TIP3   OH2 5257   7.023   1.404   3.319
 1767TIP3    H1 5258   7.016   1.491   3.360
 1767TIP3    H2 5259   7.114   1.399   3.288
 1768TIP3   OH2 5260   2.512   2.667   2.162
 1768TIP3    H1 5261   2.471   2.748   2.193
 1768TIP3    H2 5262   2.451   2.633   2.096
 1769TIP3   OH2 5263   1.284   5.340   6.565
 1769TIP3    H1 5264   1.285   5.307   6.655
 1769TIP3    H2 5265   1.306   5.433   6.574
 1770TIP3   OH2 5266   0.432   2.133   2.694
 1770TIP3    H1 5267   0.372   2.089   2.634
 1770TIP3    H2 5268   0.415   2.226   2.682
 1771TIP3   OH2 5269   5.566   1.278   3.512
 1771TIP3    H1 5270   5.480   1.310   3.485
 1771TIP3    H2 5271   5.622   1.296   3.437
 1772TIP3   OH2 5272   3.840   2.623   1.835
 1772TIP3    H1 5273   3.931   2.650   1.845
 1772TIP3    H2 5274   3.812   2.601   1.924
 1773TIP3   OH2 5275   2.573   7.113   6.035
 1773TIP3    H1 5276   2.569   7.038   6.094
 1773TIP3    H2 5277   2.487   7.155   6.044
 1774TIP3   OH2 5278   1.954   2.384   4.757
 1774TIP3    H1 5279   1.941   2.386   4.662
 1774TIP3    H2 5280   1.867   2.404   4.793
 1775TIP3   OH2 5281   4.614   2.212   1.880
 1775TIP3    H1 5282   4.652   2.300   1.872
 1775TIP3    H2 5283   4.684   2.159   1.918
 1776TIP3   OH2 5284   3.811   2.392   0.435
 1776TIP3    H1 5285   3.832   2.300   0.455
 1776TIP3    H2 5286   3.844   2.405   0.346
 1777TIP3   OH2 5287   1.690   3.543   5.749
 1777TIP3    H1 5288   1.636   3.464   5.757
 1777TIP3    H2 5289   1.753   3.521   5.680
 1778TIP3   OH2 5290   3.454   4.604   2.513
 1778TIP3    H1 5291   3.548   4.619   2.508
 1778TIP3    H2 5292   3.417   4.659   2.443
 1779TIP3   OH2 5293   6.630   0.209   4.299
 1779TIP3    H1 5294   6.635   0.264   4.220
 1779TIP3    H2 5295   6.715   0.221   4.342
 1780TIP3   OH2 5296   8.154   6.279   3.220
 1780TIP3    H1 5297   8.148   6.216   3.291
 1780TIP3    H2 5298   8.128   6.363   3.259
 1781TIP3   OH2 5299   6.415   7.573   2.901
 1781TIP3    H1 5300   6.323   7.546   2.900
 1781TIP3    H2 5301   6.435   7.594   2.810
 1782TIP3   OH2 5302   2.264   5.392   2.767
 1782TIP3    H1 5303   2.252   5.432   2.681
 1782TIP3    H2 5304   2.269   5.298   2.750
 1783TIP3   OH2 5305   3.293   6.952   0.682
 1783TIP3    H1 5306   3.314   6.934   0.774
 1783TIP3    H2 5307   3.277   7.046   0.679
 1784TIP3   OH2 5308   3.271   7.274   2.169
 1784TIP3    H1 5309   3.230   7.245   2.250
 1784TIP3    H2 5310   3.298   7.364   2.187
 1785TIP3   OH2 5311   0.035   7.277   1.279
 1785TIP3    H1 5312   0.028   7.199   1.335
 1785TIP3    H2 5313  -0.026   7.340   1.317
 1786TIP3   OH2 5314   4.914   5.999   3.521
 1786TIP3    H1 5315   4.919   6.045   3.438
 1786TIP3    H2 5316   4.944   6.062   3.586
 1787TIP3   OH2 5317   1.838   1.977   3.633
 1787TIP3    H1 5318   1.826   2.068   3.607
 1787TIP3    H2 5319   1.788   1.927   3.568
 1788TIP3   OH2 5320   5.319   7.382   0.218
 1788TIP3    H1 5321   5.399   7.365   0.268
 1788TIP3    H2 5322   5.345   7.445   0.151
 1789TIP3   OH2 5323   6.826   3.393   6.732
 1789TIP3    H1 5324   6.735   3.415   6.752
 1789TIP3    H2 5325   6.852   3.457   6.666
 1790TIP3   OH2 5326   0.218   3.942   0.116
 1790TIP3    H1 5327   0.215   3.908   0.027
 1790TIP3    H2 5328   0.311   3.954   0.134
 1791TIP3   OH2 5329   7.010   7.327   6.456
 1791TIP3    H1 5330   6.975   7.249   6.415
 1791TIP3    H2 5331   7.002   7.395   6.389
 1792TIP3   OH2 5332   2.484   0.897   4.396
 1792TIP3    H1 5333   2.556   0.957   4.414
 1792TIP3    H2 5334   2.409   0.954   4.378
 1793TIP3   OH2 5335   3.396   1.569   1.165
 1793TIP3    H1 5336   3.358   1.502   1.108
 1793TIP3    H2 5337   3.462   1.612   1.110
 1794TIP3   OH2 5338   7.656   5.014   5.465
 1794TIP3    H1 5339   7.600   5.020   5.542
 1794TIP3    H2 5340   7.731   4.961   5.493
 1795TIP3   OH2 5341   3.180   1.082   5.920
 1795TIP3    H1 5342   3.208   1.014   5.859
 1795TIP3    H2 5343   3.253   1.144   5.922
 1796TIP3   OH2 5344   7.995   3.368   0.941
 1796TIP3    H1 5345   7.936   3.437   0.973
 1796TIP3    H2 5346   8.070   3.372   1.000
 1797TIP3   OH2 5347   0.888   0.557   2.996
 1797TIP3    H1 5348   0.837   0.637   3.010
 1797TIP3    H2 5349   0.837   0.508   2.932
 1798TIP3   OH2 5350   5.805   1.014   2.713
 1798TIP3    H1 5351   5.857   0.937   2.688
 1798TIP3    H2 5352   5.718   0.980   2.730
 1799TIP3   OH2 5353   6.298   2.515   2.870
 1799TIP3    H1 5354   6.279   2.481   2.782
 1799TIP3    H2 5355   6.217   2.506   2.918
 1800TIP3   OH2 5356   5.115   1.258   0.955
 1800TIP3    H1 5357   5.098   1.297   0.869
 1800TIP3    H2 5358   5.193   1.304   0.987
 1801TIP3   OH2 5359   2.990   5.868   4.766
 1801TIP3    H1 5360   2.933   5.903   4.698
 1801TIP3    H2 5361   3.063   5.930   4.770
 1802TIP3   OH2 5362   3.229   3.591   3.586
 1802TIP3    H1 5363   3.197   3.513   3.631
 1802TIP3    H2 5364   3.188   3.664   3.634
 1803TIP3   OH2 5365   0.946   1.433   2.719
 1803TIP3    H1 5366   0.898   1.368   2.769
 1803TIP3    H2 5367   1.023   1.452   2.772
 1804TIP3   OH2 5368   6.580   6.763   1.144
 1804TIP3    H1 5369   6.615   6.674   1.142
 1804TIP3    H2 5370   6.495   6.754   1.187
 1805TIP3   OH2 5371   6.245   2.758   6.623
 1805TIP3    H1 5372   6.180   2.756   6.693
 1805TIP3    H2 5373   6.256   2.667   6.597
 1806TIP3   OH2 5374   2.017   2.185   2.199
 1806TIP3    H1 5375   2.097   2.133   2.190
 1806TIP3    H2 5376   2.048   2.274   2.218
 1807TIP3   OH2 5377   7.855   4.397   0.802
 1807TIP3    H1 5378   7.798   4.320   0.797
 1807TIP3    H2 5379   7.803   4.469   0.767
 1808TIP3   OH2 5380   3.048   6.078   1.939
 1808TIP3    H1 5381   3.047   6.094   2.033
 1808TIP3    H2 5382   2.955   6.079   1.913
 1809TIP3   OH2 5383   3.805   1.556   4.651
 1809TIP3    H1 5384   3.754   1.633   4.676
 1809TIP3    H2 5385   3.883   1.591   4.608
 1810TIP3   OH2 5386   3.881   7.382   5.806
 1810TIP3    H1 5387   3.874   7.409   5.897
 1810TIP3    H2 5388   3.973   7.394   5.784
 1811TIP3   OH2 5389   1.508   4.416   3.350
 1811TIP3    H1 5390   1.523   4.353   3.420
 1811TIP3    H2 5391   1.439   4.377   3.296
 1812TIP3   OH2 5392   7.674   3.036   1.727
 1812TIP3    H1 5393   7.738   3.026   1.657
 1812TIP3    H2 5394   7.698   3.117   1.771
 1813TIP3   OH2 5395   4.676   7.123   2.064
 1813TIP3    H1 5396   4.604   7.095   2.007
 1813TIP3    H2 5397   4.646   7.102   2.152
 1814TIP3   OH2 5398   7.804   2.742   3.594
 1814TIP3    H1 5399   7.877   2.804   3.589
 1814TIP3    H2 5400   7.845   2.658   3.614
 1815TIP3   OH2 5401   0.565   0.353   6.764
 1815TIP3    H1 5402   0.547   0.447   6.765
 1815TIP3    H2 5403   0.547   0.326   6.674
 1816TIP3   OH2 5404   2.677   3.135   3.046
 1816TIP3    H1 5405   2.726   3.187   3.108
 1816TIP3    H2 5406   2.635   3.199   2.988
 1817TIP3   OH2 5407   7.193   0.340   1.733
 1817TIP3    H1 5408   7.286   0.341   1.756
 1817TIP3    H2 5409   7.154   0.410   1.785
 1818TIP3   OH2 5410   7.979   1.221   2.656
 1818TIP3    H1 5411   8.010   1.310   2.641
 1818TIP3    H2 5412   7.921   1.229   2.732
 1819TIP3   OH2 5413   5.369   7.747   1.568
 1819TIP3    H1 5414   5.307   7.713   1.633
 1819TIP3    H2 5415   5.372   7.679   1.500
 1820TIP3   OH2 5416   5.176   2.492   4.570
 1820TIP3    H1 5417   5.147   2.570   4.523
 1820TIP3    H2 5418   5.192   2.522   4.659
 1821TIP3   OH2 5419   5.635   2.820   4.675
 1821TIP3    H1 5420   5.667   2.773   4.598
 1821TIP3    H2 5421   5.581   2.756   4.722
 1822TIP3   OH2 5422   0.492   3.259   3.959
 1822TIP3    H1 5423   0.415   3.267   4.015
 1822TIP3    H2 5424   0.511   3.349   3.932
 1823TIP3   OH2 5425   0.866   6.915   4.085
 1823TIP3    H1 5426   0.907   6.829   4.089
 1823TIP3    H2 5427   0.888   6.948   3.998
 1824TIP3   OH2 5428   6.847   7.479   0.065
 1824TIP3    H1 5429   6.853   7.573   0.080
 1824TIP3    H2 5430   6.792   7.447   0.136
 1825TIP3   OH2 5431   1.021   2.418   0.772
 1825TIP3    H1 5432   1.070   2.374   0.841
 1825TIP3    H2 5433   1.027   2.511   0.795
 1826TIP3   OH2 5434   0.405   2.219   2.048
 1826TIP3    H1 5435   0.349   2.271   1.989
 1826TIP3    H2 5436   0.366   2.231   2.135
 1827TIP3   OH2 5437   3.461   6.601   6.687
 1827TIP3    H1 5438   3.506   6.674   6.729
 1827TIP3    H2 5439   3.372   6.633   6.673
 1828TIP3   OH2 5440   7.761   6.760   5.544
 1828TIP3    H1 5441   7.765   6.848   5.583
 1828TIP3    H2 5442   7.774   6.775   5.451
 1829TIP3   OH2 5443   2.673   5.981   2.050
 1829TIP3    H1 5444   2.730   5.918   2.005
 1829TIP3    H2 5445   2.679   5.958   2.142
 1830TIP3   OH2 5446   7.423   5.486   2.402
 1830TIP3    H1 5447   7.383   5.399   2.401
 1830TIP3    H2 5448   7.495   5.480   2.339
 1831TIP3   OH2 5449   0.172   5.703   5.534
 1831TIP3    H1 5450   0.099   5.655   5.573
 1831TIP3    H2 5451   0.204   5.645   5.464
 1832TIP3   OH2 5452   1.574   1.218   6.342
 1832TIP3    H1 5453   1.512   1.281   6.378
 1832TIP3    H2 5454   1.519   1.149   6.306
 1833TIP3   OH2 5455   0.848   6.788   3.229
 1833TIP3    H1 5456   0.942   6.788   3.248
 1833TIP3    H2 5457   0.813   6.858   3.283
 1834TIP3   OH2 5458   7.930   5.063   0.899
 1834TIP3    H1 5459   7.890   5.090   0.982
 1834TIP3    H2 5460   7.913   5.135   0.839
 1835TIP3   OH2 5461   1.174   2.250   4.369
 1835TIP3    H1 5462   1.184   2.308   4.294
 1835TIP3    H2 5463   1.263   2.237   4.401
 1836TIP3   OH2 5464   2.320   1.229   6.615
 1836TIP3    H1 5465   2.336   1.254   6.706
 1836TIP3    H2 5466   2.228   1.250   6.600
 1837TIP3   OH2 5467   5.229   5.333   3.165
 1837TIP3    H1 5468   5.138   5.362   3.163
 1837TIP3    H2 5469   5.275   5.395   3.108
 1838TIP3   OH2 5470   7.777   1.989   3.004
 1838TIP3    H1 5471   7.722   1.959   2.931
 1838TIP3    H2 5472   7.805   1.909   3.047
 1839TIP3   OH2 5473   6.101   5.267   2.827
 1839TIP3    H1 5474   6.145   5.350   2.806
 1839TIP3    H2 5475   6.132   5.206   2.760
 1840TIP3   OH2 5476   1.196   1.017   4.432
 1840TIP3    H1 5477   1.116   1.051   4.391
 1840TIP3    H2 5478   1.220   0.942   4.379
 1841TIP3   OH2 5479   3.610   0.879   0.977
 1841TIP3    H1 5480   3.645   0.950   0.923
 1841TIP3    H2 5481   3.562   0.824   0.916
 1842TIP3   OH2 5482   4.883   6.455   5.549
 1842TIP3    H1 5483   4.944   6.509   5.601
 1842TIP3    H2 5484   4.915   6.366   5.561
 1843TIP3   OH2 5485   4.471   5.162   1.628
 1843TIP3    H1 5486   4.486   5.098   1.558
 1843TIP3    H2 5487   4.552   5.211   1.633
 1844TIP3   OH2 5488   0.709   2.019   5.949
 1844TIP3    H1 5489   0.747   1.968   6.020
 1844TIP3    H2 5490   0.784   2.058   5.904
 1845TIP3   OH2 5491   6.737   3.045   6.593
 1845TIP3    H1 5492   6.642   3.037   6.603
 1845TIP3    H2 5493   6.750   3.049   6.498
 1846TIP3   OH2 5494   4.713   4.296   6.718
 1846TIP3    H1 5495   4.729   4.241   6.795
 1846TIP3    H2 5496   4.780   4.269   6.655
 1847TIP3   OH2 5497   7.706   6.134   4.830
 1847TIP3    H1 5498   7.639   6.067   4.819
 1847TIP3    H2 5499   7.776   6.110   4.769
 1848TIP3   OH2 5500   7.239   1.315   4.945
 1848TIP3    H1 5501   7.222   1.405   4.974
 1848TIP3    H2 5502   7.320   1.291   4.989
 1849TIP3   OH2 5503   1.588   3.131   2.225
 1849TIP3    H1 5504   1.505   3.164   2.192
 1849TIP3    H2 5505   1.612   3.191   2.296
 1850TIP3   OH2 5506   4.526   7.595   1.865
 1850TIP3    H1 5507   4.452   7.573   1.808
 1850TIP3    H2 5508   4.563   7.511   1.890
 1851TIP3   OH2 5509   6.959   4.920   5.521
 1851TIP3    H1 5510   6.963   4.967   5.605
 1851TIP3    H2 5511   7.004   4.837   5.538
 1852TIP3   OH2 5512   4.588   0.939   5.936
 1852TIP3    H1 5513   4.630   0.921   6.021
 1852TIP3    H2 5514   4.650   0.904   5.872
 1853TIP3   OH2 5515   5.721   6.397   4.306
 1853TIP3    H1 5516   5.785   6.350   4.252
 1853TIP3    H2 5517   5.644   6.406   4.250
 1854TIP3   OH2 5518   2.082   2.281   1.206
 1854TIP3    H1 5519   2.128   2.266   1.123
 1854TIP3    H2 5520   2.140   2.340   1.255
 1855TIP3   OH2 5521   0.568   7.687   3.682
 1855TIP3    H1 5522   0.524   7.691   3.597
 1855TIP3    H2 5523   0.655   7.723   3.665
 1856TIP3   OH2 5524   3.114   7.805   4.489
 1856TIP3    H1 5525   3.087   7.727   4.440
 1856TIP3    H2 5526   3.061   7.804   4.568
 1857TIP3   OH2 5527   2.492   2.579   6.685
 1857TIP3    H1 5528   2.398   2.568   6.676
 1857TIP3    H2 5529   2.527   2.490   6.683
 1858TIP3   OH2 5530   1.723   3.302   5.139
 1858TIP3    H1 5531   1.711   3.249   5.060
 1858TIP3    H2 5532   1.739   3.239   5.209
 1859TIP3   OH2 5533   8.096   0.700   2.183
 1859TIP3    H1 5534   8.123   0.670   2.096
 1859TIP3    H2 5535   8.146   0.646   2.244
 1860TIP3   OH2 5536   0.010   4.143   3.721
 1860TIP3    H1 5537   0.103   4.160   3.733
 1860TIP3    H2 5538  -0.032   4.189   3.793
 1861TIP3   OH2 5539   2.457   2.695   6.251
 1861TIP3    H1 5540   2.529   2.693   6.188
 1861TIP3    H2 5541   2.466   2.614   6.301
 1862TIP3   OH2 5542   3.019   7.728   1.924
 1862TIP3    H1 5543   2.961   7.782   1.978
 1862TIP3    H2 5544   2.959   7.677   1.868
 1863TIP3   OH2 5545   4.077   4.563   3.047
 1863TIP3    H1 5546   4.163   4.598   3.067
 1863TIP3    H2 5547   4.094   4.477   3.009
 1864TIP3   OH2 5548   3.557   2.423   2.024
 1864TIP3    H1 5549   3.519   2.371   2.095
 1864TIP3    H2 5550   3.487   2.430   1.960
 1865TIP3   OH2 5551   1.145   4.633   3.459
 1865TIP3    H1 5552   1.110   4.719   3.485
 1865TIP3    H2 5553   1.080   4.599   3.398
 1866TIP3   OH2 5554   4.873   4.102   1.899
 1866TIP3    H1 5555   4.919   4.163   1.842
 1866TIP3    H2 5556   4.822   4.047   1.839
 1867TIP3   OH2 5557   5.486   2.334   3.960
 1867TIP3    H1 5558   5.548   2.337   3.888
 1867TIP3    H2 5559   5.497   2.418   4.005
 1868TIP3   OH2 5560   3.953   5.152   3.645
 1868TIP3    H1 5561   3.877   5.199   3.679
 1868TIP3    H2 5562   4.027   5.184   3.698
 1869TIP3   OH2 5563   0.381   1.340   0.291
 1869TIP3    H1 5564   0.292   1.372   0.305
 1869TIP3    H2 5565   0.434   1.390   0.354
 1870TIP3   OH2 5566   5.548   3.152   3.450
 1870TIP3    H1 5567   5.628   3.160   3.398
 1870TIP3    H2 5568   5.501   3.078   3.411
 1871TIP3   OH2 5569   3.119   6.584   2.619
 1871TIP3    H1 5570   3.200   6.612   2.662
 1871TIP3    H2 5571   3.063   6.556   2.692
 1872TIP3   OH2 5572   6.097   6.051   3.249
 1872TIP3    H1 5573   6.022   5.997   3.221
 1872TIP3    H2 5574   6.169   6.021   3.194
 1873TIP3   OH2 5575   5.947   3.897   1.933
 1873TIP3    H1 5576   5.872   3.957   1.928
 1873TIP3    H2 5577   6.001   3.933   2.003
 1874TIP3   OH2 5578   3.842   6.169   0.714
 1874TIP3    H1 5579   3.877   6.103   0.654
 1874TIP3    H2 5580   3.918   6.220   0.740
 1875TIP3   OH2 5581   3.726   3.326   5.068
 1875TIP3    H1 5582   3.700   3.329   5.160
 1875TIP3    H2 5583   3.746   3.233   5.052
 1876TIP3   OH2 5584   3.456   2.092   4.698
 1876TIP3    H1 5585   3.374   2.056   4.731
 1876TIP3    H2 5586   3.520   2.022   4.712
 1877TIP3   OH2 5587   4.851   5.390   3.720
 1877TIP3    H1 5588   4.788   5.451   3.680
 1877TIP3    H2 5589   4.901   5.445   3.780
 1878TIP3   OH2 5590   7.280   0.947   0.412
 1878TIP3    H1 5591   7.217   1.014   0.386
 1878TIP3    H2 5592   7.361   0.996   0.429
 1879TIP3   OH2 5593   5.101   5.046   6.795
 1879TIP3    H1 5594   5.042   5.113   6.828
 1879TIP3    H2 5595   5.086   5.044   6.701
 1880TIP3   OH2 5596   6.476   1.478   3.399
 1880TIP3    H1 5597   6.568   1.495   3.422
 1880TIP3    H2 5598   6.450   1.407   3.456
 1881TIP3   OH2 5599   5.660   2.674   2.817
 1881TIP3    H1 5600   5.714   2.602   2.849
 1881TIP3    H2 5601   5.619   2.640   2.737
 1882TIP3   OH2 5602   0.746   4.847   3.735
 1882TIP3    H1 5603   0.713   4.763   3.704
 1882TIP3    H2 5604   0.828   4.860   3.686
 1883TIP3   OH2 5605   4.876   3.011   2.736
 1883TIP3    H1 5606   4.892   2.922   2.705
 1883TIP3    H2 5607   4.818   3.049   2.670
 1884TIP3   OH2 5608   4.718   0.895   1.323
 1884TIP3    H1 5609   4.691   0.881   1.232
 1884TIP3    H2 5610   4.665   0.969   1.353
 1885TIP3   OH2 5611   1.215   1.014   0.865
 1885TIP3    H1 5612   1.295   1.054   0.899
 1885TIP3    H2 5613   1.155   1.016   0.940
 1886TIP3   OH2 5614   2.189   6.078   0.240
 1886TIP3    H1 5615   2.141   6.090   0.158
 1886TIP3    H2 5616   2.215   6.167   0.265
 1887TIP3   OH2 5617   2.326   2.309   5.215
 1887TIP3    H1 5618   2.303   2.402   5.219
 1887TIP3    H2 5619   2.361   2.290   5.302
 1888TIP3   OH2 5620   2.632   4.456   1.395
 1888TIP3    H1 5621   2.584   4.412   1.465
 1888TIP3    H2 5622   2.715   4.483   1.435
 1889TIP3   OH2 5623   2.503   3.618   3.854
 1889TIP3    H1 5624   2.489   3.539   3.906
 1889TIP3    H2 5625   2.571   3.593   3.791
 1890TIP3   OH2 5626   3.854   1.077   0.510
 1890TIP3    H1 5627   3.917   1.148   0.500
 1890TIP3    H2 5628   3.776   1.106   0.462
 1891TIP3   OH2 5629   7.165   5.110   0.052
 1891TIP3    H1 5630   7.195   5.183   0.106
 1891TIP3    H2 5631   7.180   5.033   0.106
 1892TIP3   OH2 5632   0.142   3.751   5.552
 1892TIP3    H1 5633   0.135   3.797   5.636
 1892TIP3    H2 5634   0.154   3.821   5.488
 1893TIP3   OH2 5635   8.089   1.733   5.179
 1893TIP3    H1 5636   7.998   1.762   5.172
 1893TIP3    H2 5637   8.090   1.674   5.255
 1894TIP3   OH2 5638   4.777   2.761   2.526
 1894TIP3    H1 5639   4.748   2.851   2.512
 1894TIP3    H2 5640   4.706   2.707   2.493
 1895TIP3   OH2 5641   6.620   6.953   2.356
 1895TIP3    H1 5642   6.604   6.949   2.262
 1895TIP3    H2 5643   6.680   7.027   2.367
 1896TIP3   OH2 5644   0.757   0.188   5.496
 1896TIP3    H1 5645   0.713   0.211   5.414
 1896TIP3    H2 5646   0.687   0.156   5.553
 1897TIP3   OH2 5647   1.775   6.869   2.718
 1897TIP3    H1 5648   1.749   6.791   2.669
 1897TIP3    H2 5649   1.721   6.939   2.681
 1898TIP3   OH2 5650   2.879   2.522   3.222
 1898TIP3    H1 5651   2.950   2.460   3.240
 1898TIP3    H2 5652   2.924   2.604   3.199
 1899TIP3   OH2 5653   3.781   6.066   0.051
 1899TIP3    H1 5654   3.781   6.122   0.129
 1899TIP3    H2 5655   3.689   6.064   0.023
 1900TIP3   OH2 5656   7.358   6.360   1.518
 1900TIP3    H1 5657   7.428   6.413   1.556
 1900TIP3    H2 5658   7.392   6.271   1.520
 1901TIP3   OH2 5659   5.189   2.669   2.444
 1901TIP3    H1 5660   5.184   2.660   2.349
 1901TIP3    H2 5661   5.243   2.747   2.459
 1902TIP3   OH2 5662   0.229   2.444   6.391
 1902TIP3    H1 5663   0.297   2.466   6.327
 1902TIP3    H2 5664   0.243   2.351   6.409
 1903TIP3   OH2 5665   2.039   6.731   2.777
 1903TIP3    H1 5666   2.097   6.807   2.786
 1903TIP3    H2 5667   1.970   6.761   2.718
 1904TIP3   OH2 5668   4.751   2.619   1.899
 1904TIP3    H1 5669   4.836   2.573   1.900
 1904TIP3    H2 5670   4.698   2.573   1.963
 1905TIP3   OH2 5671   1.819   7.016   2.974
 1905TIP3    H1 5672   1.772   6.961   2.912
 1905TIP3    H2 5673   1.752   7.047   3.035
 1906TIP3   OH2 5674   5.848   2.597   4.082
 1906TIP3    H1 5675   5.764   2.617   4.123
 1906TIP3    H2 5676   5.899   2.553   4.151
 1907TIP3   OH2 5677   7.364   7.706   3.451
 1907TIP3    H1 5678   7.324   7.792   3.439
 1907TIP3    H2 5679   7.424   7.718   3.525
 1908TIP3   OH2 5680   7.181   1.804   2.257
 1908TIP3    H1 5681   7.165   1.827   2.349
 1908TIP3    H2 5682   7.173   1.708   2.256
 1909TIP3   OH2 5683   6.107   5.299   3.101
 1909TIP3    H1 5684   6.068   5.218   3.133
 1909TIP3    H2 5685   6.111   5.288   3.006
 1910TIP3   OH2 5686   8.087   4.091   4.307
 1910TIP3    H1 5687   8.050   4.049   4.384
 1910TIP3    H2 5688   8.094   4.183   4.331
 1911TIP3   OH2 5689   2.992   3.415   3.496
 1911TIP3    H1 5690   3.071   3.389   3.544
 1911TIP3    H2 5691   2.924   3.421   3.562
 1912TIP3   OH2 5692   6.658   7.548   5.164
 1912TIP3    H1 5693   6.695   7.523   5.079
 1912TIP3    H2 5694   6.707   7.496   5.228
 1913TIP3   OH2 5695   0.981   1.806   2.826
 1913TIP3    H1 5696   0.942   1.726   2.861
 1913TIP3    H2 5697   0.932   1.877   2.867
 1914TIP3   OH2 5698   0.677   7.553   2.870
 1914TIP3    H1 5699   0.749   7.616   2.878
 1914TIP3    H2 5700   0.604   7.595   2.914
 1915TIP3   OH2 5701   3.738   1.467   1.958
 1915TIP3    H1 5702   3.677   1.421   2.016
 1915TIP3    H2 5703   3.682   1.530   1.911
 1916TIP3   OH2 5704   3.490   5.744   5.115
 1916TIP3    H1 5705   3.568   5.791   5.086
 1916TIP3    H2 5706   3.432   5.745   5.039
 1917TIP3   OH2 5707   2.183   2.510   3.887
 1917TIP3    H1 5708   2.271   2.513   3.848
 1917TIP3    H2 5709   2.125   2.493   3.813
 1918TIP3   OH2 5710   4.596   3.753   4.174
 1918TIP3    H1 5711   4.602   3.690   4.246
 1918TIP3    H2 5712   4.511   3.735   4.134
 1919TIP3   OH2 5713   2.617   1.419   0.712
 1919TIP3    H1 5714   2.569   1.366   0.775
 1919TIP3    H2 5715   2.684   1.360   0.677
 1920TIP3   OH2 5716   1.241   0.160   2.343
 1920TIP3    H1 5717   1.245   0.248   2.383
 1920TIP3    H2 5718   1.212   0.103   2.415
 1921TIP3   OH2 5719   6.472   7.295   4.644
 1921TIP3    H1 5720   6.509   7.215   4.608
 1921TIP3    H2 5721   6.507   7.300   4.733
 1922TIP3   OH2 5722   6.396   4.498   4.798
 1922TIP3    H1 5723   6.491   4.495   4.799
 1922TIP3    H2 5724   6.372   4.530   4.885
 1923TIP3   OH2 5725   3.265   6.100   1.343
 1923TIP3    H1 5726   3.206   6.066   1.275
 1923TIP3    H2 5727   3.334   6.145   1.295
 1924TIP3   OH2 5728   1.412   7.246   1.021
 1924TIP3    H1 5729   1.431   7.163   0.976
 1924TIP3    H2 5730   1.467   7.244   1.099
 1925TIP3   OH2 5731   0.295   4.011   1.599
 1925TIP3    H1 5732   0.318   3.919   1.603
 1925TIP3    H2 5733   0.286   4.030   1.506
 1926TIP3   OH2 5734   1.483   0.861   1.143
 1926TIP3    H1 5735   1.388   0.858   1.155
 1926TIP3    H2 5736   1.511   0.939   1.190
 1927TIP3   OH2 5737   6.018   4.375   5.425
 1927TIP3    H1 5738   6.097   4.334   5.458
 1927TIP3    H2 5739   5.971   4.305   5.381
 1928TIP3   OH2 5740   3.733   5.497   5.272
 1928TIP3    H1 5741   3.714   5.542   5.354
 1928TIP3    H2 5742   3.650   5.500   5.223
 1929TIP3   OH2 5743   4.527   3.572   3.247
 1929TIP3    H1 5744   4.576   3.539   3.321
 1929TIP3    H2 5745   4.464   3.503   3.227
 1930TIP3   OH2 5746   0.132   1.841   2.340
 1930TIP3    H1 5747   0.170   1.928   2.325
 1930TIP3    H2 5748   0.045   1.845   2.301
 1931TIP3   OH2 5749   7.251   2.525   1.864
 1931TIP3    H1 5750   7.200   2.487   1.792
 1931TIP3    H2 5751   7.271   2.614   1.835
 1932TIP3   OH2 5752   7.740   0.388   4.250
 1932TIP3    H1 5753   7.793   0.401   4.171
 1932TIP3    H2 5754   7.784   0.440   4.318
 1933TIP3   OH2 5755   4.250   2.333   6.318
 1933TIP3    H1 5756   4.210   2.277   6.251
 1933TIP3    H2 5757   4.327   2.369   6.275
 1934TIP3   OH2 5758   1.433   6.270   1.591
 1934TIP3    H1 5759   1.401   6.336   1.653
 1934TIP3    H2 5760   1.513   6.236   1.631
 1935TIP3   OH2 5761   3.171   5.531   3.076
 1935TIP3    H1 5762   3.132   5.615   3.100
 1935TIP3    H2 5763   3.102   5.485   3.028
 1936TIP3   OH2 5764   5.868   0.736   0.688
 1936TIP3    H1 5765   5.951   0.700   0.659
 1936TIP3    H2 5766   5.869   0.827   0.658
 1937TIP3   OH2 5767   7.363   2.800   1.862
 1937TIP3    H1 5768   7.359   2.874   1.922
 1937TIP3    H2 5769   7.452   2.767   1.870
 1938TIP3   OH2 5770   3.505   1.364   6.711
 1938TIP3    H1 5771   3.529   1.299   6.644
 1938TIP3    H2 5772   3.519   1.448   6.668
 1939TIP3   OH2 5773   4.678   7.655   6.166
 1939TIP3    H1 5774   4.730   7.576   6.157
 1939TIP3    H2 5775   4.614   7.635   6.234
 1940TIP3   OH2 5776   5.617   4.990   1.724
 1940TIP3    H1 5777   5.650   5.012   1.637
 1940TIP3    H2 5778   5.664   4.911   1.748
 1941TIP3   OH2 5779   3.773   7.351   1.201
 1941TIP3    H1 5780   3.772   7.378   1.293
 1941TIP3    H2 5781   3.810   7.426   1.154
 1942TIP3   OH2 5782   7.433   5.134   3.788
 1942TIP3    H1 5783   7.342   5.121   3.816
 1942TIP3    H2 5784   7.456   5.220   3.822
 1943TIP3   OH2 5785   5.983   6.153   5.721
 1943TIP3    H1 5786   5.902   6.158   5.772
 1943TIP3    H2 5787   5.998   6.243   5.691
 1944TIP3   OH2 5788   5.749   6.907   5.187
 1944TIP3    H1 5789   5.830   6.857   5.188
 1944TIP3    H2 5790   5.729   6.923   5.280
 1945TIP3   OH2 5791   0.920   1.512   6.380
 1945TIP3    H1 5792   1.008   1.520   6.418
 1945TIP3    H2 5793   0.919   1.577   6.310
 1946TIP3   OH2 5794   6.272   7.672   1.740
 1946TIP3    H1 5795   6.313   7.617   1.673
 1946TIP3    H2 5796   6.279   7.620   1.820
 1947TIP3   OH2 5797   1.316   4.988   2.983
 1947TIP3    H1 5798   1.376   4.925   2.943
 1947TIP3    H2 5799   1.231   4.945   2.981
 1948TIP3   OH2 5800   6.680   2.188   2.859
 1948TIP3    H1 5801   6.762   2.139   2.864
 1948TIP3    H2 5802   6.630   2.146   2.790
 1949TIP3   OH2 5803   1.384   0.910   2.481
 1949TIP3    H1 5804   1.309   0.908   2.422
 1949TIP3    H2 5805   1.345   0.918   2.568
 1950TIP3   OH2 5806   0.953   1.139   4.064
 1950TIP3    H1 5807   0.861   1.135   4.089
 1950TIP3    H2 5808   0.999   1.092   4.133
 1951TIP3   OH2 5809   2.393   0.518   5.084
 1951TIP3    H1 5810   2.399   0.458   5.010
 1951TIP3    H2 5811   2.475   0.567   5.082
 1952TIP3   OH2 5812   6.153   1.760   6.341
 1952TIP3    H1 5813   6.195   1.708   6.273
 1952TIP3    H2 5814   6.156   1.850   6.308
 1953TIP3   OH2 5815   7.573   4.741   6.082
 1953TIP3    H1 5816   7.516   4.755   6.157
 1953TIP3    H2 5817   7.581   4.827   6.041
 1954TIP3   OH2 5818   7.838   1.302   2.887
 1954TIP3    H1 5819   7.884   1.345   2.959
 1954TIP3    H2 5820   7.750   1.341   2.888
 1955TIP3   OH2 5821   4.881   7.765   0.152
 1955TIP3    H1 5822   4.886   7.710   0.230
 1955TIP3    H2 5823   4.964   7.813   0.151
 1956TIP3   OH2 5824  -0.005   1.331   0.647
 1956TIP3    H1 5825   0.048   1.370   0.717
 1956TIP3    H2 5826   0.057   1.279   0.596
 1957TIP3   OH2 5827   0.572   7.066   3.285
 1957TIP3    H1 5828   0.607   7.069   3.196
 1957TIP3    H2 5829   0.505   7.134   3.286
 1958TIP3   OH2 5830   7.259   6.897   1.811
 1958TIP3    H1 5831   7.275   6.820   1.757
 1958TIP3    H2 5832   7.272   6.867   1.901
 1959TIP3   OH2 5833   0.200   3.954   5.351
 1959TIP3    H1 5834   0.265   4.024   5.352
 1959TIP3    H2 5835   0.228   3.897   5.280
 1960TIP3   OH2 5836   1.581   1.508   6.566
 1960TIP3    H1 5837   1.581   1.564   6.644
 1960TIP3    H2 5838   1.510   1.446   6.582
 1961TIP3   OH2 5839   4.132   2.763   4.787
 1961TIP3    H1 5840   4.145   2.680   4.832
 1961TIP3    H2 5841   4.213   2.812   4.804
 1962TIP3   OH2 5842   2.950   4.218   0.807
 1962TIP3    H1 5843   2.922   4.277   0.876
 1962TIP3    H2 5844   2.916   4.132   0.833
 1963TIP3   OH2 5845   6.731   0.502   4.858
 1963TIP3    H1 5846   6.730   0.525   4.950
 1963TIP3    H2 5847   6.745   0.407   4.857
 1964TIP3   OH2 5848   3.383   6.818   6.320
 1964TIP3    H1 5849   3.424   6.773   6.246
 1964TIP3    H2 5850   3.315   6.758   6.349
 1965TIP3   OH2 5851   6.251   4.806   3.304
 1965TIP3    H1 5852   6.267   4.857   3.225
 1965TIP3    H2 5853   6.268   4.867   3.376
 1966TIP3   OH2 5854   3.550   2.895   2.288
 1966TIP3    H1 5855   3.465   2.856   2.309
 1966TIP3    H2 5856   3.531   2.988   2.275
 1967TIP3   OH2 5857   0.017   2.739   5.809
 1967TIP3    H1 5858  -0.002   2.789   5.889
 1967TIP3    H2 5859   0.103   2.701   5.825
 1968TIP3   OH2 5860   5.521   2.656   2.552
 1968TIP3    H1 5861   5.459   2.726   2.575
 1968TIP3    H2 5862   5.581   2.697   2.490
 1969TIP3   OH2 5863   2.759   2.465   2.016
 1969TIP3    H1 5864   2.793   2.453   1.927
 1969TIP3    H2 5865   2.761   2.560   2.030
 1970TIP3   OH2 5866   4.345   2.708   1.029
 1970TIP3    H1 5867   4.276   2.708   1.095
 1970TIP3    H2 5868   4.320   2.639   0.968
 1971TIP3   OH2 5869   3.828   2.575   2.497
 1971TIP3    H1 5870   3.835   2.634   2.422
 1971TIP3    H2 5871   3.854   2.489   2.463
 1972TIP3   OH2 5872   3.989   1.852   5.789
 1972TIP3    H1 5873   3.910   1.906   5.796
 1972TIP3    H2 5874   4.020   1.866   5.699
 1973TIP3   OH2 5875   2.913   2.828   0.195
 1973TIP3    H1 5876   2.936   2.737   0.214
 1973TIP3    H2 5877   2.994   2.865   0.159
 1974TIP3   OH2 5878   7.100   5.652   6.554
 1974TIP3    H1 5879   7.032   5.712   6.521
 1974TIP3    H2 5880   7.136   5.697   6.630
 1975TIP3   OH2 5881   7.432   0.688   0.326
 1975TIP3    H1 5882   7.478   0.659   0.404
 1975TIP3    H2 5883   7.413   0.780   0.342
 1976TIP3   OH2 5884   0.201   5.737   2.534
 1976TIP3    H1 5885   0.229   5.646   2.534
 1976TIP3    H2 5886   0.110   5.735   2.506
 1977TIP3   OH2 5887   7.749   3.804   4.971
 1977TIP3    H1 5888   7.695   3.872   5.012
 1977TIP3    H2 5889   7.758   3.737   5.038
 1978TIP3   OH2 5890   3.804   7.258   5.351
 1978TIP3    H1 5891   3.729   7.281   5.405
 1978TIP3    H2 5892   3.880   7.271   5.409
 1979TIP3   OH2 5893   0.702   5.999   0.716
 1979TIP3    H1 5894   0.742   6.085   0.703
 1979TIP3    H2 5895   0.681   5.995   0.809
 1980TIP3   OH2 5896   0.047   4.891   2.566
 1980TIP3    H1 5897   0.093   4.928   2.641
 1980TIP3    H2 5898   0.113   4.889   2.496
 1981TIP3   OH2 5899   1.378   3.264   4.316
 1981TIP3    H1 5900   1.346   3.354   4.316
 1981TIP3    H2 5901   1.414   3.252   4.229
 1982TIP3   OH2 5902   5.473   7.560   3.068
 1982TIP3    H1 5903   5.458   7.525   2.980
 1982TIP3    H2 5904   5.410   7.514   3.123
 1983TIP3   OH2 5905   5.950   6.341   2.263
 1983TIP3    H1 5906   5.945   6.266   2.323
 1983TIP3    H2 5907   5.865   6.383   2.271
 1984TIP3   OH2 5908   6.852   0.986   4.071
 1984TIP3    H1 5909   6.835   0.939   4.153
 1984TIP3    H2 5910   6.927   0.942   4.033
 1985TIP3   OH2 5911   0.033   6.980   4.023
 1985TIP3    H1 5912   0.019   7.054   3.964
 1985TIP3    H2 5913   0.122   6.950   4.004
 1986TIP3   OH2 5914   4.949   6.340   3.141
 1986TIP3    H1 5915   5.002   6.417   3.161
 1986TIP3    H2 5916   4.868   6.354   3.190
 1987TIP3   OH2 5917   4.960   4.699   2.601
 1987TIP3    H1 5918   5.023   4.751   2.551
 1987TIP3    H2 5919   5.008   4.621   2.628
 1988TIP3   OH2 5920   0.776   1.584   3.934
 1988TIP3    H1 5921   0.810   1.526   3.866
 1988TIP3    H2 5922   0.846   1.649   3.947
 1989TIP3   OH2 5923   1.297   0.548   0.757
 1989TIP3    H1 5924   1.312   0.632   0.801
 1989TIP3    H2 5925   1.262   0.572   0.671
 1990TIP3   OH2 5926   6.641   1.548   3.995
 1990TIP3    H1 5927   6.628   1.487   4.068
 1990TIP3    H2 5928   6.682   1.624   4.034
 1991TIP3   OH2 5929   3.440   0.335   4.637
 1991TIP3    H1 5930   3.413   0.243   4.635
 1991TIP3    H2 5931   3.428   0.361   4.729
 1992TIP3   OH2 5932   2.246   0.271   5.307
 1992TIP3    H1 5933   2.226   0.365   5.308
 1992TIP3    H2 5934   2.342   0.268   5.312
 1993TIP3   OH2 5935   3.893   5.684   2.776
 1993TIP3    H1 5936   3.845   5.733   2.844
 1993TIP3    H2 5937   3.875   5.731   2.695
 1994TIP3   OH2 5938   6.082   0.770   3.390
 1994TIP3    H1 5939   6.075   0.678   3.365
 1994TIP3    H2 5940   6.100   0.816   3.309
 1995TIP3   OH2 5941   7.241   7.599   5.786
 1995TIP3    H1 5942   7.250   7.617   5.693
 1995TIP3    H2 5943   7.330   7.582   5.817
 1996TIP3   OH2 5944   0.622   7.393   4.953
 1996TIP3    H1 5945   0.602   7.315   4.902
 1996TIP3    H2 5946   0.690   7.366   5.014
 1997TIP3   OH2 5947   1.019   3.932   3.191
 1997TIP3    H1 5948   1.043   3.840   3.205
 1997TIP3    H2 5949   0.935   3.927   3.145
 1998TIP3   OH2 5950   2.844   6.928   3.740
 1998TIP3    H1 5951   2.824   6.906   3.831
 1998TIP3    H2 5952   2.871   7.020   3.742
 1999TIP3   OH2 5953   7.489   3.199   0.550
 1999TIP3    H1 5954   7.472   3.106   0.562
 1999TIP3    H2 5955   7.571   3.203   0.501
 2000TIP3   OH2 5956   6.988   1.291   6.636
 2000TIP3    H1 5957   6.973   1.319   6.546
 2000TIP3    H2 5958   6.925   1.341   6.687
 2001TIP3   OH2 5959   7.167   4.238   4.526
 2001TIP3    H1 5960   7.085   4.262   4.484
 2001TIP3    H2 5961   7.185   4.310   4.587
 2002TIP3   OH2 5962   4.320   0.893   3.506
 2002TIP3    H1 5963   4.275   0.944   3.573
 2002TIP3    H2 5964   4.410   0.923   3.509
 2003TIP3   OH2 5965   1.878   0.727   1.350
 2003TIP3    H1 5966   1.944   0.678   1.401
 2003TIP3    H2 5967   1.847   0.664   1.286
 2004TIP3   OH2 5968   5.582   2.887   3.124
 2004TIP3    H1 5969   5.535   2.807   3.101
 2004TIP3    H2 5970   5.515   2.945   3.160
 2005TIP3   OH2 5971   4.902   7.587   0.725
 2005TIP3    H1 5972   4.873   7.511   0.776
 2005TIP3    H2 5973   4.821   7.629   0.698
 2006TIP3   OH2 5974   6.903   7.244   2.132
 2006TIP3    H1 5975   6.830   7.301   2.113
 2006TIP3    H2 5976   6.974   7.275   2.075
 2007TIP3   OH2 5977   8.152   4.956   1.607
 2007TIP3    H1 5978   8.090   4.899   1.652
 2007TIP3    H2 5979   8.238   4.921   1.630
 2008TIP3   OH2 5980   5.375   0.922   0.504
 2008TIP3    H1 5981   5.444   0.935   0.569
 2008TIP3    H2 5982   5.381   0.999   0.447
 2009TIP3   OH2 5983   5.140   6.068   6.745
 2009TIP3    H1 5984   5.211   6.089   6.683
 2009TIP3    H2 5985   5.145   5.973   6.754
 2010TIP3   OH2 5986   6.203   1.074   4.410
 2010TIP3    H1 5987   6.292   1.083   4.441
 2010TIP3    H2 5988   6.170   0.995   4.453
 2011TIP3   OH2 5989   0.685   5.612   4.200
 2011TIP3    H1 5990   0.708   5.522   4.220
 2011TIP3    H2 5991   0.620   5.606   4.130
 2012TIP3   OH2 5992   4.459   2.201   5.052
 2012TIP3    H1 5993   4.518   2.275   5.066
 2012TIP3    H2 5994   4.501   2.128   5.096
 2013TIP3   OH2 5995   2.610   3.944   4.435
 2013TIP3    H1 5996   2.567   4.030   4.443
 2013TIP3    H2 5997   2.677   3.943   4.503
 2014TIP3   OH2 5998   6.204   3.617   3.678
 2014TIP3    H1 5999   6.202   3.649   3.768
 2014TIP3    H2 6000   6.118   3.640   3.642
 2015TIP3   OH2 6001   4.900   6.906   0.116
 2015TIP3    H1 6002   4.854   6.986   0.089
 2015TIP3    H2 6003   4.900   6.851   0.039
 2016TIP3   OH2 6004   5.613   4.135   5.405
 2016TIP3    H1 6005   5.556   4.205   5.438
 2016TIP3    H2 6006   5.557   4.058   5.401
 2017TIP3   OH2 6007   2.369   3.011   0.293
 2017TIP3    H1 6008   2.416   2.941   0.247
 2017TIP3    H2 6009   2.436   3.054   0.347
 2018TIP3   OH2 6010   6.128   4.776   2.895
 2018TIP3    H1 6011   6.122   4.689   2.936
 2018TIP3    H2 6012   6.194   4.765   2.827
 2019TIP3   OH2 6013   0.396   5.679   4.502
 2019TIP3    H1 6014   0.478   5.630   4.508
 2019TIP3    H2 6015   0.355   5.667   4.587
 2020TIP3   OH2 6016   5.998   2.621   2.759
 2020TIP3    H1 6017   5.994   2.558   2.831
 2020TIP3    H2 6018   5.938   2.585   2.693
 2021TIP3   OH2 6019   0.771   4.112   2.371
 2021TIP3    H1 6020   0.688   4.100   2.324
 2021TIP3    H2 6021   0.837   4.117   2.302
 2022TIP3   OH2 6022   3.695   1.558   6.069
 2022TIP3    H1 6023   3.782   1.598   6.072
 2022TIP3    H2 6024   3.679   1.528   6.159
 2023TIP3   OH2 6025   6.173   0.943   1.201
 2023TIP3    H1 6026   6.268   0.939   1.216
 2023TIP3    H2 6027   6.160   1.023   1.151
 2024TIP3   OH2 6028   3.486   3.653   5.856
 2024TIP3    H1 6029   3.514   3.727   5.802
 2024TIP3    H2 6030   3.556   3.643   5.921
 2025TIP3   OH2 6031   1.590   6.333   1.983
 2025TIP3    H1 6032   1.547   6.418   1.990
 2025TIP3    H2 6033   1.533   6.282   1.925
 2026TIP3   OH2 6034   7.657   6.180   4.520
 2026TIP3    H1 6035   7.733   6.143   4.475
 2026TIP3    H2 6036   7.680   6.176   4.613
 2027TIP3   OH2 6037   7.559   1.023   0.368
 2027TIP3    H1 6038   7.612   0.986   0.437
 2027TIP3    H2 6039   7.606   1.001   0.287
 2028TIP3   OH2 6040   3.846   0.542   5.167
 2028TIP3    H1 6041   3.867   0.524   5.075
 2028TIP3    H2 6042   3.752   0.528   5.173
 2029TIP3   OH2 6043   2.994   1.983   2.008
 2029TIP3    H1 6044   3.046   1.948   2.080
 2029TIP3    H2 6045   3.008   2.078   2.013
 2030TIP3   OH2 6046   6.535   5.228   3.235
 2030TIP3    H1 6047   6.452   5.195   3.202
 2030TIP3    H2 6048   6.513   5.276   3.315
 2031TIP3   OH2 6049   6.033   5.497   6.030
 2031TIP3    H1 6050   6.105   5.451   5.987
 2031TIP3    H2 6051   6.050   5.486   6.124
 2032TIP3   OH2 6052   7.935   2.804   2.151
 2032TIP3    H1 6053   8.022   2.769   2.168
 2032TIP3    H2 6054   7.877   2.727   2.152
 2033TIP3   OH2 6055   5.088   0.250   3.283
 2033TIP3    H1 6056   4.995   0.272   3.281
 2033TIP3    H2 6057   5.133   0.333   3.272
 2034TIP3   OH2 6058   1.745   6.811   1.416
 2034TIP3    H1 6059   1.803   6.871   1.463
 2034TIP3    H2 6060   1.776   6.813   1.325
 2035TIP3   OH2 6061   8.108   3.912   6.512
 2035TIP3    H1 6062   8.181   3.873   6.560
 2035TIP3    H2 6063   8.148   3.945   6.431
 2036TIP3   OH2 6064   3.886   6.636   3.860
 2036TIP3    H1 6065   3.943   6.560   3.873
 2036TIP3    H2 6066   3.856   6.627   3.770
 2037TIP3   OH2 6067   7.446   3.522   5.813
 2037TIP3    H1 6068   7.494   3.579   5.753
 2037TIP3    H2 6069   7.395   3.582   5.867
 2038TIP3   OH2 6070   7.836   1.454   3.415
 2038TIP3    H1 6071   7.931   1.452   3.401
 2038TIP3    H2 6072   7.799   1.456   3.326
 2039TIP3   OH2 6073   0.805   6.120   2.934
 2039TIP3    H1 6074   0.711   6.136   2.922
 2039TIP3    H2 6075   0.834   6.188   2.994
 2040TIP3   OH2 6076   0.061   2.512   3.082
 2040TIP3    H1 6077   0.073   2.602   3.110
 2040TIP3    H2 6078   0.124   2.462   3.135
 2041TIP3   OH2 6079   2.701   0.414   0.933
 2041TIP3    H1 6080   2.672   0.402   0.842
 2041TIP3    H2 6081   2.778   0.359   0.941
 2042TIP3   OH2 6082   6.127   0.851   1.821
 2042TIP3    H1 6083   6.093   0.784   1.761
 2042TIP3    H2 6084   6.212   0.818   1.848
 2043TIP3   OH2 6085   3.960   2.976   6.543
 2043TIP3    H1 6086   3.914   2.916   6.485
 2043TIP3    H2 6087   3.950   3.062   6.503
 2044TIP3   OH2 6088   5.131   4.068   4.134
 2044TIP3    H1 6089   5.072   4.131   4.095
 2044TIP3    H2 6090   5.084   3.985   4.130
 2045TIP3   OH2 6091   0.301   1.917   0.872
 2045TIP3    H1 6092   0.240   1.984   0.902
 2045TIP3    H2 6093   0.246   1.844   0.844
 2046TIP3   OH2 6094   6.937   1.240   5.529
 2046TIP3    H1 6095   6.874   1.311   5.537
 2046TIP3    H2 6096   7.001   1.256   5.599
 2047TIP3   OH2 6097   1.323   4.147   2.040
 2047TIP3    H1 6098   1.320   4.232   1.995
 2047TIP3    H2 6099   1.359   4.087   1.975
 2048TIP3   OH2 6100   7.030   6.549   3.535
 2048TIP3    H1 6101   7.076   6.633   3.536
 2048TIP3    H2 6102   7.034   6.519   3.626
 2049TIP3   OH2 6103   6.589   1.763   2.511
 2049TIP3    H1 6104   6.557   1.840   2.558
 2049TIP3    H2 6105   6.588   1.790   2.419
 2050TIP3   OH2 6106   8.076   4.318   6.409
 2050TIP3    H1 6107   8.083   4.410   6.384
 2050TIP3    H2 6108   7.999   4.314   6.466
 2051TIP3   OH2 6109   0.386   0.789   1.559
 2051TIP3    H1 6110   0.367   0.869   1.509
 2051TIP3    H2 6111   0.455   0.746   1.509
 2052TIP3   OH2 6112   7.742   6.403   5.283
 2052TIP3    H1 6113   7.714   6.352   5.207
 2052TIP3    H2 6114   7.837   6.403   5.279
 2053TIP3   OH2 6115   5.942   2.826   0.938
 2053TIP3    H1 6116   5.988   2.774   0.873
 2053TIP3    H2 6117   6.006   2.891   0.967
 2054TIP3   OH2 6118   7.649   0.015   5.197
 2054TIP3    H1 6119   7.726  -0.042   5.199
 2054TIP3    H2 6120   7.675   0.091   5.249
 2055TIP3   OH2 6121   1.734   7.764   1.803
 2055TIP3    H1 6122   1.715   7.690   1.861
 2055TIP3    H2 6123   1.751   7.724   1.718
 2056TIP3   OH2 6124   1.394   1.450   3.756
 2056TIP3    H1 6125   1.428   1.441   3.666
 2056TIP3    H2 6126   1.410   1.364   3.796
 2057TIP3   OH2 6127   7.445   0.465   1.133
 2057TIP3    H1 6128   7.438   0.369   1.133
 2057TIP3    H2 6129   7.369   0.495   1.181
 2058TIP3   OH2 6130   1.614   0.278   6.535
 2058TIP3    H1 6131   1.642   0.326   6.457
 2058TIP3    H2 6132   1.691   0.228   6.561
 2059TIP3   OH2 6133   4.442   3.861   2.489
 2059TIP3    H1 6134   4.535   3.863   2.514
 2059TIP3    H2 6135   4.396   3.901   2.563
 2060TIP3   OH2 6136   6.061   5.662   2.950
 2060TIP3    H1 6137   6.078   5.591   2.888
 2060TIP3    H2 6138   6.134   5.660   3.011
 2061TIP3   OH2 6139   6.049   2.414   0.237
 2061TIP3    H1 6140   6.137   2.400   0.203
 2061TIP3    H2 6141   6.038   2.509   0.238
 2062TIP3   OH2 6142   2.152   4.651   0.589
 2062TIP3    H1 6143   2.233   4.696   0.566
 2062TIP3    H2 6144   2.131   4.598   0.512
 2063TIP3   OH2 6145   3.437   6.421   1.971
 2063TIP3    H1 6146   3.450   6.440   1.878
 2063TIP3    H2 6147   3.514   6.371   1.997
 2064TIP3   OH2 6148   1.853   2.838   5.945
 2064TIP3    H1 6149   1.762   2.857   5.923
 2064TIP3    H2 6150   1.854   2.747   5.973
 2065TIP3   OH2 6151   5.258   3.788   0.989
 2065TIP3    H1 6152   5.257   3.774   0.895
 2065TIP3    H2 6153   5.166   3.795   1.014
 2066TIP3   OH2 6154   3.162   6.405   6.771
 2066TIP3    H1 6155   3.253   6.381   6.759
 2066TIP3    H2 6156   3.112   6.328   6.742
 2067TIP3   OH2 6157   3.065   3.932   4.369
 2067TIP3    H1 6158   3.123   3.980   4.310
 2067TIP3    H2 6159   2.984   3.921   4.318
 2068TIP3   OH2 6160   7.731   0.864   3.381
 2068TIP3    H1 6161   7.771   0.950   3.368
 2068TIP3    H2 6162   7.751   0.842   3.472
 2069TIP3   OH2 6163   4.600   3.834   4.920
 2069TIP3    H1 6164   4.581   3.781   4.843
 2069TIP3    H2 6165   4.546   3.912   4.910
 2070TIP3   OH2 6166   6.732   7.430   4.904
 2070TIP3    H1 6167   6.801   7.438   4.838
 2070TIP3    H2 6168   6.700   7.340   4.896
 2071TIP3   OH2 6169   7.705   0.967   3.873
 2071TIP3    H1 6170   7.708   1.049   3.922
 2071TIP3    H2 6171   7.764   0.909   3.921
 2072TIP3   OH2 6172   1.768   5.560   4.471
 2072TIP3    H1 6173   1.856   5.542   4.436
 2072TIP3    H2 6174   1.737   5.634   4.418
 2073TIP3   OH2 6175   0.332   5.471   5.425
 2073TIP3    H1 6176   0.342   5.435   5.513
 2073TIP3    H2 6177   0.413   5.519   5.410
 2074TIP3   OH2 6178   3.833   5.048   5.419
 2074TIP3    H1 6179   3.820   5.119   5.357
 2074TIP3    H2 6180   3.780   5.073   5.495
 2075TIP3   OH2 6181   4.114   3.931   0.594
 2075TIP3    H1 6182   4.039   3.932   0.654
 2075TIP3    H2 6183   4.139   4.023   0.586
 2076TIP3   OH2 6184   2.539   7.484   3.529
 2076TIP3    H1 6185   2.611   7.430   3.498
 2076TIP3    H2 6186   2.474   7.481   3.459
 2077TIP3   OH2 6187   3.283   1.225   1.430
 2077TIP3    H1 6188   3.307   1.158   1.495
 2077TIP3    H2 6189   3.351   1.218   1.363
 2078TIP3   OH2 6190   2.643   2.157   4.990
 2078TIP3    H1 6191   2.726   2.201   5.007
 2078TIP3    H2 6192   2.625   2.108   5.070
 2079TIP3   OH2 6193   5.644   2.983   5.268
 2079TIP3    H1 6194   5.673   2.969   5.178
 2079TIP3    H2 6195   5.580   3.054   5.262
 2080TIP3   OH2 6196   5.179   2.945   5.864
 2080TIP3    H1 6197   5.238   2.912   5.797
 2080TIP3    H2 6198   5.204   3.037   5.874
 2081TIP3   OH2 6199   4.246   7.109   3.363
 2081TIP3    H1 6200   4.208   7.025   3.389
 2081TIP3    H2 6201   4.339   7.089   3.347
 2082TIP3   OH2 6202   2.129   3.087   1.745
 2082TIP3    H1 6203   2.172   3.124   1.823
 2082TIP3    H2 6204   2.036   3.096   1.762
 2083TIP3   OH2 6205   2.256   0.545   5.308
 2083TIP3    H1 6206   2.169   0.566   5.275
 2083TIP3    H2 6207   2.313   0.552   5.231
 2084TIP3   OH2 6208   6.316   2.859   3.199
 2084TIP3    H1 6209   6.407   2.832   3.206
 2084TIP3    H2 6210   6.273   2.818   3.273
 2085TIP3   OH2 6211   6.088   0.980   3.185
 2085TIP3    H1 6212   6.068   1.070   3.160
 2085TIP3    H2 6213   6.149   0.949   3.118
 2086TIP3   OH2 6214   6.715   2.727   2.398
 2086TIP3    H1 6215   6.733   2.761   2.485
 2086TIP3    H2 6216   6.687   2.804   2.348
 2087TIP3   OH2 6217   4.659   4.964   0.198
 2087TIP3    H1 6218   4.637   4.910   0.273
 2087TIP3    H2 6219   4.597   4.938   0.130
 2088TIP3   OH2 6220   6.330   7.539   4.372
 2088TIP3    H1 6221   6.327   7.531   4.467
 2088TIP3    H2 6222   6.416   7.505   4.347
 2089TIP3   OH2 6223   1.751   4.174   5.172
 2089TIP3    H1 6224   1.825   4.165   5.232
 2089TIP3    H2 6225   1.780   4.131   5.091
 2090TIP3   OH2 6226   2.708   0.265   5.591
 2090TIP3    H1 6227   2.653   0.320   5.647
 2090TIP3    H2 6228   2.796   0.277   5.625
 2091TIP3   OH2 6229   4.644   2.149   0.627
 2091TIP3    H1 6230   4.680   2.192   0.550
 2091TIP3    H2 6231   4.626   2.059   0.599
 2092TIP3   OH2 6232   6.482   3.907   3.219
 2092TIP3    H1 6233   6.559   3.962   3.222
 2092TIP3    H2 6234   6.425   3.948   3.154
 2093TIP3   OH2 6235   4.167   4.821   6.373
 2093TIP3    H1 6236   4.135   4.882   6.306
 2093TIP3    H2 6237   4.103   4.750   6.374
 2094TIP3   OH2 6238   2.687   0.901   4.072
 2094TIP3    H1 6239   2.652   0.814   4.094
 2094TIP3    H2 6240   2.611   0.949   4.040
 2095TIP3   OH2 6241   3.910   2.515   5.473
 2095TIP3    H1 6242   3.840   2.570   5.509
 2095TIP3    H2 6243   3.868   2.430   5.461
 2096TIP3   OH2 6244   4.989   0.188   1.666
 2096TIP3    H1 6245   4.917   0.125   1.669
 2096TIP3    H2 6246   4.977   0.241   1.745
 2097TIP3   OH2 6247   1.820   3.486   0.181
 2097TIP3    H1 6248   1.803   3.402   0.223
 2097TIP3    H2 6249   1.884   3.466   0.112
 2098TIP3   OH2 6250   6.630   3.210   0.144
 2098TIP3    H1 6251   6.632   3.274   0.216
 2098TIP3    H2 6252   6.721   3.199   0.119
 2099TIP3   OH2 6253   3.370   7.392   2.660
 2099TIP3    H1 6254   3.313   7.392   2.737
 2099TIP3    H2 6255   3.408   7.304   2.658
 2100TIP3   OH2 6256   0.005   7.605   4.020
 2100TIP3    H1 6257   0.044   7.562   3.944
 2100TIP3    H2 6258  -0.039   7.535   4.068
 2101TIP3   OH2 6259   1.831   3.891   4.730
 2101TIP3    H1 6260   1.926   3.880   4.736
 2101TIP3    H2 6261   1.816   3.930   4.644
 2102TIP3   OH2 6262   7.132   2.868   0.753
 2102TIP3    H1 6263   7.180   2.855   0.834
 2102TIP3    H2 6264   7.197   2.899   0.691
 2103TIP3   OH2 6265   0.351   3.750   4.233
 2103TIP3    H1 6266   0.330   3.722   4.144
 2103TIP3    H2 6267   0.445   3.770   4.230
 2104TIP3   OH2 6268   2.843   3.227   3.265
 2104TIP3    H1 6269   2.925   3.192   3.229
 2104TIP3    H2 6270   2.863   3.319   3.284
 2105TIP3   OH2 6271   1.388   1.924   6.108
 2105TIP3    H1 6272   1.375   1.979   6.185
 2105TIP3    H2 6273   1.442   1.978   6.050
 2106TIP3   OH2 6274   1.649   6.287   1.040
 2106TIP3    H1 6275   1.713   6.318   0.976
 2106TIP3    H2 6276   1.602   6.218   0.994
 2107TIP3   OH2 6277   3.556   7.244   0.640
 2107TIP3    H1 6278   3.477   7.272   0.686
 2107TIP3    H2 6279   3.627   7.255   0.704
 2108TIP3   OH2 6280   4.979   0.021   2.989
 2108TIP3    H1 6281   4.952  -0.034   2.915
 2108TIP3    H2 6282   5.040   0.083   2.951
 2109TIP3   OH2 6283   0.574   3.612   5.137
 2109TIP3    H1 6284   0.647   3.644   5.084
 2109TIP3    H2 6285   0.514   3.573   5.074
 2110TIP3   OH2 6286   5.521   3.314   4.464
 2110TIP3    H1 6287   5.480   3.364   4.393
 2110TIP3    H2 6288   5.468   3.333   4.541
 2111TIP3   OH2 6289   5.341   2.896   2.456
 2111TIP3    H1 6290   5.390   2.912   2.375
 2111TIP3    H2 6291   5.374   2.963   2.516
 2112TIP3   OH2 6292   0.160   0.380   3.550
 2112TIP3    H1 6293   0.104   0.443   3.505
 2112TIP3    H2 6294   0.129   0.381   3.641
 2113TIP3   OH2 6295   0.486   6.523   1.572
 2113TIP3    H1 6296   0.511   6.432   1.559
 2113TIP3    H2 6297   0.537   6.571   1.507
 2114TIP3   OH2 6298   7.137   6.006   0.888
 2114TIP3    H1 6299   7.102   5.967   0.968
 2114TIP3    H2 6300   7.135   5.934   0.824
 2115TIP3   OH2 6301   7.159   2.316   6.050
 2115TIP3    H1 6302   7.187   2.349   5.964
 2115TIP3    H2 6303   7.064   2.327   6.049
 2116TIP3   OH2 6304   4.328   1.932   3.958
 2116TIP3    H1 6305   4.401   1.962   4.011
 2116TIP3    H2 6306   4.344   1.969   3.871
 2117TIP3   OH2 6307   5.368   1.690   2.164
 2117TIP3    H1 6308   5.314   1.613   2.145
 2117TIP3    H2 6309   5.313   1.764   2.142
 2118TIP3   OH2 6310   2.377   6.995   2.471
 2118TIP3    H1 6311   2.434   6.929   2.510
 2118TIP3    H2 6312   2.362   6.965   2.382
 2119TIP3   OH2 6313   0.275   0.766   6.059
 2119TIP3    H1 6314   0.190   0.757   6.102
 2119TIP3    H2 6315   0.334   0.709   6.109
 2120TIP3   OH2 6316   5.018   1.111   1.809
 2120TIP3    H1 6317   4.922   1.116   1.809
 2120TIP3    H2 6318   5.036   1.020   1.832
 2121TIP3   OH2 6319   3.415   6.191   2.640
 2121TIP3    H1 6320   3.401   6.197   2.545
 2121TIP3    H2 6321   3.440   6.099   2.654
 2122TIP3   OH2 6322   6.874   5.363   1.303
 2122TIP3    H1 6323   6.860   5.299   1.233
 2122TIP3    H2 6324   6.787   5.375   1.342
 2123TIP3   OH2 6325   0.923   1.307   0.464
 2123TIP3    H1 6326   0.997   1.309   0.403
 2123TIP3    H2 6327   0.949   1.243   0.531
 2124TIP3   OH2 6328   3.300   4.040   0.174
 2124TIP3    H1 6329   3.306   4.132   0.149
 2124TIP3    H2 6330   3.362   3.996   0.115
 2125TIP3   OH2 6331   6.300   1.254   3.897
 2125TIP3    H1 6332   6.234   1.191   3.867
 2125TIP3    H2 6333   6.367   1.252   3.828
 2126TIP3   OH2 6334   3.062   0.268   2.163
 2126TIP3    H1 6335   3.033   0.349   2.122
 2126TIP3    H2 6336   3.119   0.226   2.099
 2127TIP3   OH2 6337   2.478   5.391   2.962
 2127TIP3    H1 6338   2.392   5.367   2.928
 2127TIP3    H2 6339   2.526   5.425   2.886
 2128TIP3   OH2 6340   3.322   2.318   4.085
 2128TIP3    H1 6341   3.255   2.343   4.022
 2128TIP3    H2 6342   3.400   2.301   4.032
 2129TIP3   OH2 6343   7.613   2.914   2.730
 2129TIP3    H1 6344   7.605   2.861   2.651
 2129TIP3    H2 6345   7.597   3.004   2.700
 2130TIP3   OH2 6346   3.886   4.132   4.489
 2130TIP3    H1 6347   3.791   4.141   4.489
 2130TIP3    H2 6348   3.919   4.220   4.508
 2131TIP3   OH2 6349   1.816   4.670   5.775
 2131TIP3    H1 6350   1.846   4.617   5.849
 2131TIP3    H2 6351   1.772   4.745   5.817
 2132TIP3   OH2 6352   1.542   3.672   2.829
 2132TIP3    H1 6353   1.506   3.714   2.750
 2132TIP3    H2 6354   1.619   3.625   2.798
 2133TIP3   OH2 6355   0.365   3.335   0.104
 2133TIP3    H1 6356   0.307   3.269   0.143
 2133TIP3    H2 6357   0.388   3.392   0.177
 2134TIP3   OH2 6358   0.689   4.146   4.667
 2134TIP3    H1 6359   0.772   4.147   4.715
 2134TIP3    H2 6360   0.681   4.234   4.631
 2135TIP3   OH2 6361   6.220   4.061   0.645
 2135TIP3    H1 6362   6.280   4.000   0.688
 2135TIP3    H2 6363   6.141   4.061   0.699
 2136TIP3   OH2 6364   0.667   7.432   4.303
 2136TIP3    H1 6365   0.678   7.521   4.339
 2136TIP3    H2 6366   0.687   7.374   4.377
 2137TIP3   OH2 6367   6.784   5.952   2.195
 2137TIP3    H1 6368   6.726   5.906   2.135
 2137TIP3    H2 6369   6.749   5.932   2.282
 2138TIP3   OH2 6370   2.256   0.907   2.922
 2138TIP3    H1 6371   2.216   0.958   2.852
 2138TIP3    H2 6372   2.197   0.833   2.935
 2139TIP3   OH2 6373   4.268   5.016   2.078
 2139TIP3    H1 6374   4.311   4.943   2.122
 2139TIP3    H2 6375   4.278   4.997   1.985
 2140TIP3   OH2 6376   3.183   6.239   2.740
 2140TIP3    H1 6377   3.276   6.236   2.718
 2140TIP3    H2 6378   3.169   6.162   2.794
 2141TIP3   OH2 6379   4.669   7.452   3.783
 2141TIP3    H1 6380   4.725   7.374   3.787
 2141TIP3    H2 6381   4.729   7.526   3.780
 2142TIP3   OH2 6382   2.943   0.815   6.511
 2142TIP3    H1 6383   2.868   0.810   6.570
 2142TIP3    H2 6384   2.978   0.726   6.509
 2143TIP3   OH2 6385   3.331   3.403   0.264
 2143TIP3    H1 6386   3.407   3.440   0.219
 2143TIP3    H2 6387   3.258   3.419   0.204
 2144TIP3   OH2 6388   0.652   2.970   1.403
 2144TIP3    H1 6389   0.709   2.946   1.330
 2144TIP3    H2 6390   0.630   3.062   1.386
 2145TIP3   OH2 6391   8.021   2.138   0.482
 2145TIP3    H1 6392   7.983   2.081   0.416
 2145TIP3    H2 6393   7.982   2.110   0.565
 2146TIP3   OH2 6394   3.728   1.864   5.194
 2146TIP3    H1 6395   3.770   1.829   5.115
 2146TIP3    H2 6396   3.655   1.804   5.211
 2147TIP3   OH2 6397   5.821   5.616   6.175
 2147TIP3    H1 6398   5.787   5.536   6.134
 2147TIP3    H2 6399   5.916   5.604   6.175
 2148TIP3   OH2 6400   4.971   0.094   4.142
 2148TIP3    H1 6401   4.947   0.011   4.183
 2148TIP3    H2 6402   4.912   0.102   4.067
 2149TIP3   OH2 6403   4.112   3.837   3.958
 2149TIP3    H1 6404   4.196   3.796   3.977
 2149TIP3    H2 6405   4.090   3.885   4.037
 2150TIP3   OH2 6406   3.104   3.834   6.601
 2150TIP3    H1 6407   3.047   3.910   6.596
 2150TIP3    H2 6408   3.070   3.774   6.535
 2151TIP3   OH2 6409   3.042   5.107   0.344
 2151TIP3    H1 6410   3.030   5.195   0.308
 2151TIP3    H2 6411   2.960   5.090   0.392
 2152TIP3   OH2 6412   3.471   2.267   5.313
 2152TIP3    H1 6413   3.517   2.326   5.253
 2152TIP3    H2 6414   3.381   2.266   5.281
 2153TIP3   OH2 6415   5.059   6.589   3.241
 2153TIP3    H1 6416   5.116   6.661   3.269
 2153TIP3    H2 6417   4.999   6.628   3.179
 2154TIP3   OH2 6418   6.756   3.233   2.910
 2154TIP3    H1 6419   6.690   3.163   2.910
 2154TIP3    H2 6420   6.828   3.196   2.961
 2155TIP3   OH2 6421   0.959   2.327   0.505
 2155TIP3    H1 6422   0.988   2.370   0.586
 2155TIP3    H2 6423   0.870   2.360   0.492
 2156TIP3   OH2 6424   2.872   7.376   4.748
 2156TIP3    H1 6425   2.837   7.456   4.710
 2156TIP3    H2 6426   2.964   7.395   4.765
 2157TIP3   OH2 6427   5.731   5.842   2.507
 2157TIP3    H1 6428   5.702   5.847   2.416
 2157TIP3    H2 6429   5.790   5.766   2.509
 2158TIP3   OH2 6430   2.828   0.770   4.402
 2158TIP3    H1 6431   2.783   0.691   4.431
 2158TIP3    H2 6432   2.910   0.770   4.451
 2159TIP3   OH2 6433   6.646   7.877   2.875
 2159TIP3    H1 6434   6.611   7.870   2.786
 2159TIP3    H2 6435   6.720   7.816   2.875
 2160TIP3   OH2 6436   2.162   3.612   0.956
 2160TIP3    H1 6437   2.216   3.535   0.976
 2160TIP3    H2 6438   2.074   3.576   0.943
 2161TIP3   OH2 6439   6.843   0.675   5.271
 2161TIP3    H1 6440   6.926   0.697   5.230
 2161TIP3    H2 6441   6.783   0.662   5.197
 2162TIP3   OH2 6442   1.980   2.139   3.820
 2162TIP3    H1 6443   2.049   2.142   3.754
 2162TIP3    H2 6444   1.920   2.072   3.789
 2163TIP3   OH2 6445   2.663   5.446   1.288
 2163TIP3    H1 6446   2.740   5.452   1.344
 2163TIP3    H2 6447   2.677   5.514   1.221
 2164TIP3   OH2 6448   1.813   0.476   3.693
 2164TIP3    H1 6449   1.767   0.448   3.614
 2164TIP3    H2 6450   1.774   0.424   3.763
 2165TIP3   OH2 6451   3.138   4.395   3.280
 2165TIP3    H1 6452   3.119   4.477   3.236
 2165TIP3    H2 6453   3.165   4.336   3.209
 2166TIP3   OH2 6454   6.137   2.324   6.703
 2166TIP3    H1 6455   6.227   2.321   6.669
 2166TIP3    H2 6456   6.098   2.400   6.660
 2167TIP3   OH2 6457   0.592   3.261   1.432
 2167TIP3    H1 6458   0.680   3.294   1.453
 2167TIP3    H2 6459   0.591   3.255   1.336
 2168TIP3   OH2 6460   6.345   7.355   3.727
 2168TIP3    H1 6461   6.436   7.379   3.745
 2168TIP3    H2 6462   6.351   7.273   3.679
 2169TIP3   OH2 6463   2.992   0.536   5.112
 2169TIP3    H1 6464   3.042   0.479   5.054
 2169TIP3    H2 6465   3.018   0.508   5.200
 2170TIP3   OH2 6466   8.100   7.063   2.929
 2170TIP3    H1 6467   8.119   7.137   2.872
 2170TIP3    H2 6468   8.167   7.066   2.997
 2171TIP3   OH2 6469   0.633   3.927   4.045
 2171TIP3    H1 6470   0.725   3.952   4.050
 2171TIP3    H2 6471   0.617   3.880   4.127
 2172TIP3   OH2 6472   7.515   7.445   6.174
 2172TIP3    H1 6473   7.609   7.426   6.171
 2172TIP3    H2 6474   7.508   7.539   6.161
 2173TIP3   OH2 6475   7.634   4.412   2.694
 2173TIP3    H1 6476   7.644   4.392   2.788
 2173TIP3    H2 6477   7.682   4.494   2.683
 2174TIP3   OH2 6478   5.978   1.551   1.966
 2174TIP3    H1 6479   5.915   1.566   1.896
 2174TIP3    H2 6480   5.933   1.490   2.025
 2175TIP3   OH2 6481   6.003   5.031   1.661
 2175TIP3    H1 6482   5.913   5.032   1.629
 2175TIP3    H2 6483   6.011   5.111   1.713
 2176TIP3   OH2 6484   6.806   5.772   6.236
 2176TIP3    H1 6485   6.892   5.767   6.194
 2176TIP3    H2 6486   6.826   5.781   6.330
 2177TIP3   OH2 6487   0.303   3.006   6.403
 2177TIP3    H1 6488   0.342   2.922   6.430
 2177TIP3    H2 6489   0.214   2.984   6.377
 2178TIP3   OH2 6490   1.718   2.659   5.323
 2178TIP3    H1 6491   1.656   2.732   5.330
 2178TIP3    H2 6492   1.740   2.636   5.413
 2179TIP3   OH2 6493   0.514   5.950   2.937
 2179TIP3    H1 6494   0.525   6.045   2.939
 2179TIP3    H2 6495   0.421   5.937   2.919
 2180TIP3   OH2 6496   0.657   1.787   6.369
 2180TIP3    H1 6497   0.677   1.707   6.321
 2180TIP3    H2 6498   0.696   1.857   6.317
 2181TIP3   OH2 6499   0.318   4.198   6.533
 2181TIP3    H1 6500   0.224   4.214   6.526
 2181TIP3    H2 6501   0.358   4.270   6.483
 2182TIP3   OH2 6502   0.998   3.976   0.220
 2182TIP3    H1 6503   1.094   3.981   0.212
 2182TIP3    H2 6504   0.970   4.066   0.231
 2183TIP3   OH2 6505   0.172   4.663   2.779
 2183TIP3    H1 6506   0.139   4.750   2.801
 2183TIP3    H2 6507   0.117   4.603   2.829
 2184TIP3   OH2 6508   2.300   7.153   6.150
 2184TIP3    H1 6509   2.227   7.099   6.119
 2184TIP3    H2 6510   2.316   7.123   6.239
 2185TIP3   OH2 6511   6.209   0.660   5.563
 2185TIP3    H1 6512   6.262   0.657   5.484
 2185TIP3    H2 6513   6.145   0.590   5.551
 2186TIP3   OH2 6514   1.090   1.474   3.940
 2186TIP3    H1 6515   1.163   1.466   4.001
 2186TIP3    H2 6516   1.038   1.546   3.974
 2187TIP3   OH2 6517   4.349   0.298   6.630
 2187TIP3    H1 6518   4.357   0.385   6.592
 2187TIP3    H2 6519   4.439   0.266   6.636
 2188TIP3   OH2 6520   2.556   6.106   4.568
 2188TIP3    H1 6521   2.507   6.162   4.628
 2188TIP3    H2 6522   2.499   6.095   4.492
 2189TIP3   OH2 6523   3.886   6.900   1.422
 2189TIP3    H1 6524   3.920   6.987   1.403
 2189TIP3    H2 6525   3.888   6.893   1.517
 2190TIP3   OH2 6526   0.544   4.730   2.883
 2190TIP3    H1 6527   0.546   4.798   2.816
 2190TIP3    H2 6528   0.555   4.777   2.966
 2191TIP3   OH2 6529   3.972   7.473   6.343
 2191TIP3    H1 6530   3.983   7.523   6.262
 2191TIP3    H2 6531   4.062   7.456   6.372
 2192TIP3   OH2 6532   1.238   1.938   3.759
 2192TIP3    H1 6533   1.219   1.999   3.830
 2192TIP3    H2 6534   1.257   1.855   3.803
 2193TIP3   OH2 6535   5.895   2.389   4.905
 2193TIP3    H1 6536   5.986   2.367   4.925
 2193TIP3    H2 6537   5.895   2.406   4.810
 2194TIP3   OH2 6538   2.801   6.080   4.882
 2194TIP3    H1 6539   2.832   6.006   4.830
 2194TIP3    H2 6540   2.767   6.040   4.962
 2195TIP3   OH2 6541   5.685   0.069   5.006
 2195TIP3    H1 6542   5.754   0.135   5.006
 2195TIP3    H2 6543   5.629   0.094   5.080
 2196TIP3   OH2 6544   3.363   0.938   3.280
 2196TIP3    H1 6545   3.447   0.964   3.318
 2196TIP3    H2 6546   3.331   1.016   3.235
 2197TIP3   OH2 6547   7.840   6.388   4.079
 2197TIP3    H1 6548   7.877   6.449   4.143
 2197TIP3    H2 6549   7.846   6.302   4.123
 2198TIP3   OH2 6550   2.533   2.328   1.671
 2198TIP3    H1 6551   2.522   2.409   1.719
 2198TIP3    H2 6552   2.538   2.260   1.739
 2199TIP3   OH2 6553   5.149   1.462   0.117
 2199TIP3    H1 6554   5.243   1.471   0.103
 2199TIP3    H2 6555   5.122   1.547   0.153
 2200TIP3   OH2 6556   6.368   0.941   6.132
 2200TIP3    H1 6557   6.385   0.955   6.225
 2200TIP3    H2 6558   6.283   0.983   6.117
 2201TIP3   OH2 6559   5.885   1.826   6.403
 2201TIP3    H1 6560   5.975   1.820   6.370
 2201TIP3    H2 6561   5.884   1.771   6.481
 2202TIP3   OH2 6562   4.024   3.789   3.435
 2202TIP3    H1 6563   4.011   3.696   3.414
 2202TIP3    H2 6564   3.949   3.811   3.490
 2203TIP3   OH2 6565   1.775   3.639   1.821
 2203TIP3    H1 6566   1.711   3.692   1.870
 2203TIP3    H2 6567   1.729   3.611   1.742
 2204TIP3   OH2 6568   1.207   3.723   1.311
 2204TIP3    H1 6569   1.168   3.651   1.361
 2204TIP3    H2 6570   1.146   3.796   1.322
 2205TIP3   OH2 6571   0.862   2.000   4.138
 2205TIP3    H1 6572   0.875   2.061   4.065
 2205TIP3    H2 6573   0.948   1.961   4.153
 2206TIP3   OH2 6574   5.708   4.511   6.297
 2206TIP3    H1 6575   5.779   4.500   6.361
 2206TIP3    H2 6576   5.637   4.456   6.329
 2207TIP3   OH2 6577   6.945   1.689   3.359
 2207TIP3    H1 6578   7.002   1.711   3.285
 2207TIP3    H2 6579   6.937   1.771   3.407
 2208TIP3   OH2 6580   7.973   3.093   2.217
 2208TIP3    H1 6581   7.941   3.098   2.127
 2208TIP3    H2 6582   7.937   3.011   2.250
 2209TIP3   OH2 6583   4.640   2.413   0.073
 2209TIP3    H1 6584   4.601   2.495   0.103
 2209TIP3    H2 6585   4.591   2.390  -0.006
 2210TIP3   OH2 6586   1.003   1.677   4.312
 2210TIP3    H1 6587   0.937   1.611   4.290
 2210TIP3    H2 6588   0.977   1.709   4.399
 2211TIP3   OH2 6589   3.084   5.471   6.179
 2211TIP3    H1 6590   3.025   5.498   6.109
 2211TIP3    H2 6591   3.170   5.498   6.149
 2212TIP3   OH2 6592   1.131   4.448   0.632
 2212TIP3    H1 6593   1.209   4.465   0.580
 2212TIP3    H2 6594   1.141   4.503   0.709
 2213TIP3   OH2 6595   2.647   7.672   4.232
 2213TIP3    H1 6596   2.610   7.692   4.318
 2213TIP3    H2 6597   2.616   7.743   4.176
 2214TIP3   OH2 6598   3.568   2.433   2.759
 2214TIP3    H1 6599   3.629   2.378   2.710
 2214TIP3    H2 6600   3.614   2.453   2.840
 2215TIP3   OH2 6601   0.663   4.121   0.444
 2215TIP3    H1 6602   0.688   4.028   0.448
 2215TIP3    H2 6603   0.620   4.137   0.528
 2216TIP3   OH2 6604   6.950   0.650   4.730
 2216TIP3    H1 6605   7.019   0.600   4.687
 2216TIP3    H2 6606   6.880   0.586   4.745
 2217TIP3   OH2 6607   5.026   3.432   4.264
 2217TIP3    H1 6608   5.085   3.460   4.194
 2217TIP3    H2 6609   4.972   3.364   4.224
 2218TIP3   OH2 6610   7.988   3.960   4.918
 2218TIP3    H1 6611   7.937   3.885   4.950
 2218TIP3    H2 6612   7.921   4.024   4.890
 2219TIP3   OH2 6613   6.808   1.013   3.210
 2219TIP3    H1 6614   6.793   0.920   3.194
 2219TIP3    H2 6615   6.723   1.047   3.238
 2220TIP3   OH2 6616   5.757   1.480   6.565
 2220TIP3    H1 6617   5.785   1.405   6.617
 2220TIP3    H2 6618   5.783   1.556   6.616
 2221TIP3   OH2 6619   7.851   6.453   1.140
 2221TIP3    H1 6620   7.841   6.466   1.046
 2221TIP3    H2 6621   7.945   6.460   1.155
 2222TIP3   OH2 6622   5.849   3.316   4.657
 2222TIP3    H1 6623   5.778   3.380   4.652
 2222TIP3    H2 6624   5.837   3.260   4.581
 2223TIP3   OH2 6625   5.895   3.409   1.417
 2223TIP3    H1 6626   5.941   3.459   1.350
 2223TIP3    H2 6627   5.894   3.319   1.383
 2224TIP3   OH2 6628   1.530   4.889   2.832
 2224TIP3    H1 6629   1.569   4.851   2.754
 2224TIP3    H2 6630   1.562   4.833   2.904
 2225TIP3   OH2 6631   0.535   1.348   2.933
 2225TIP3    H1 6632   0.496   1.303   3.008
 2225TIP3    H2 6633   0.549   1.438   2.963
 2226TIP3   OH2 6634   5.066   1.381   1.431
 2226TIP3    H1 6635   5.047   1.402   1.522
 2226TIP3    H2 6636   4.981   1.365   1.391
 2227TIP3   OH2 6637   5.140   2.993   1.417
 2227TIP3    H1 6638   5.102   3.054   1.354
 2227TIP3    H2 6639   5.215   3.040   1.453
 2228TIP3   OH2 6640   4.014   1.081   2.501
 2228TIP3    H1 6641   4.005   1.171   2.534
 2228TIP3    H2 6642   4.078   1.088   2.430
 2229TIP3   OH2 6643   6.255   1.521   5.071
 2229TIP3    H1 6644   6.341   1.561   5.060
 2229TIP3    H2 6645   6.244   1.465   4.994
 2230TIP3   OH2 6646   0.892   1.516   1.700
 2230TIP3    H1 6647   0.899   1.554   1.787
 2230TIP3    H2 6648   0.932   1.581   1.642
 2231TIP3   OH2 6649   6.561   5.137   4.910
 2231TIP3    H1 6650   6.573   5.224   4.946
 2231TIP3    H2 6651   6.498   5.149   4.839
 2232TIP3   OH2 6652   1.639   0.177   4.557
 2232TIP3    H1 6653   1.615   0.137   4.641
 2232TIP3    H2 6654   1.588   0.258   4.553
 2233TIP3   OH2 6655   0.159   0.680   4.805
 2233TIP3    H1 6656   0.191   0.732   4.731
 2233TIP3    H2 6657   0.132   0.745   4.870
 2234TIP3   OH2 6658   0.064   0.246   3.295
 2234TIP3    H1 6659  -0.017   0.222   3.341
 2234TIP3    H2 6660   0.127   0.264   3.364
 2235TIP3   OH2 6661   6.355   6.941   5.957
 2235TIP3    H1 6662   6.367   6.933   6.052
 2235TIP3    H2 6663   6.260   6.947   5.945
 2236TIP3   OH2 6664   2.407   6.389   1.325
 2236TIP3    H1 6665   2.321   6.348   1.337
 2236TIP3    H2 6666   2.387   6.479   1.299
 2237TIP3   OH2 6667   7.137   0.678   2.808
 2237TIP3    H1 6668   7.066   0.729   2.769
 2237TIP3    H2 6669   7.162   0.728   2.886
 2238TIP3   OH2 6670   5.825   6.756   2.301
 2238TIP3    H1 6671   5.756   6.773   2.237
 2238TIP3    H2 6672   5.869   6.840   2.314
 2239TIP3   OH2 6673   3.300   5.272   1.490
 2239TIP3    H1 6674   3.298   5.324   1.571
 2239TIP3    H2 6675   3.372   5.311   1.439
 2240TIP3   OH2 6676   2.811   5.278   4.611
 2240TIP3    H1 6677   2.897   5.308   4.640
 2240TIP3    H2 6678   2.750   5.344   4.644
 2241TIP3   OH2 6679   0.829   1.107   0.745
 2241TIP3    H1 6680   0.764   1.066   0.802
 2241TIP3    H2 6681   0.822   1.201   0.765
 2242TIP3   OH2 6682   5.444   3.159   5.324
 2242TIP3    H1 6683   5.383   3.085   5.327
 2242TIP3    H2 6684   5.467   3.175   5.416
 2243TIP3   OH2 6685   5.697   5.597   3.066
 2243TIP3    H1 6686   5.604   5.575   3.071
 2243TIP3    H2 6687   5.738   5.543   3.133
 2244TIP3   OH2 6688   1.568   2.715   3.388
 2244TIP3    H1 6689   1.495   2.718   3.449
 2244TIP3    H2 6690   1.531   2.747   3.305
 2245TIP3   OH2 6691   5.853   2.968   4.638
 2245TIP3    H1 6692   5.785   2.923   4.687
 2245TIP3    H2 6693   5.814   3.051   4.612
 2246TIP3   OH2 6694   2.062   0.932   6.672
 2246TIP3    H1 6695   1.996   0.881   6.628
 2246TIP3    H2 6696   2.032   1.023   6.665
 2247TIP3   OH2 6697   5.673   5.504   6.774
 2247TIP3    H1 6698   5.663   5.413   6.801
 2247TIP3    H2 6699   5.631   5.508   6.688
 2248TIP3   OH2 6700   2.423   4.382   2.018
 2248TIP3    H1 6701   2.487   4.334   1.966
 2248TIP3    H2 6702   2.361   4.418   1.954
 2249TIP3   OH2 6703   0.942   2.822   0.586
 2249TIP3    H1 6704   0.895   2.792   0.508
 2249TIP3    H2 6705   0.893   2.784   0.659
 2250TIP3   OH2 6706   2.541   5.728   6.117
 2250TIP3    H1 6707   2.575   5.638   6.111
 2250TIP3    H2 6708   2.619   5.782   6.127
 2251TIP3   OH2 6709   0.045   3.902   4.420
 2251TIP3    H1 6710   0.069   3.934   4.507
 2251TIP3    H2 6711   0.060   3.808   4.424
 2252TIP3   OH2 6712   0.180   4.610   1.854
 2252TIP3    H1 6713   0.190   4.657   1.937
 2252TIP3    H2 6714   0.199   4.519   1.876
 2253TIP3   OH2 6715   3.719   7.178   6.059
 2253TIP3    H1 6716   3.651   7.212   6.116
 2253TIP3    H2 6717   3.762   7.256   6.023
 2254TIP3   OH2 6718   4.740   3.905   6.113
 2254TIP3    H1 6719   4.705   3.870   6.195
 2254TIP3    H2 6720   4.662   3.925   6.060
 2255TIP3   OH2 6721   6.461   2.793   2.591
 2255TIP3    H1 6722   6.370   2.803   2.562
 2255TIP3    H2 6723   6.496   2.882   2.592
 2256TIP3   OH2 6724   2.533   5.034   0.182
 2256TIP3    H1 6725   2.509   5.108   0.127
 2256TIP3    H2 6726   2.450   4.989   0.199
 2257TIP3   OH2 6727   0.699   2.141   0.638
 2257TIP3    H1 6728   0.620   2.166   0.687
 2257TIP3    H2 6729   0.718   2.217   0.583
 2258TIP3   OH2 6730   0.137   5.418   0.819
 2258TIP3    H1 6731   0.174   5.505   0.834
 2258TIP3    H2 6732   0.134   5.378   0.906
 2259TIP3   OH2 6733   5.480   3.657   6.320
 2259TIP3    H1 6734   5.461   3.741   6.360
 2259TIP3    H2 6735   5.493   3.597   6.394
 2260TIP3   OH2 6736   7.904   2.905   0.553
 2260TIP3    H1 6737   7.952   2.978   0.516
 2260TIP3    H2 6738   7.948   2.887   0.636
 2261TIP3   OH2 6739   1.496   2.136   3.657
 2261TIP3    H1 6740   1.514   2.215   3.709
 2261TIP3    H2 6741   1.537   2.065   3.707
 2262TIP3   OH2 6742   7.633   0.531   0.713
 2262TIP3    H1 6743   7.697   0.468   0.747
 2262TIP3    H2 6744   7.622   0.594   0.784
 2263TIP3   OH2 6745   6.365   4.749   4.360
 2263TIP3    H1 6746   6.297   4.693   4.323
 2263TIP3    H2 6747   6.443   4.728   4.309
 2264TIP3   OH2 6748   4.297   6.075   2.934
 2264TIP3    H1 6749   4.311   6.058   2.841
 2264TIP3    H2 6750   4.205   6.054   2.950
 2265TIP3   OH2 6751   5.222   6.288   2.758
 2265TIP3    H1 6752   5.138   6.311   2.719
 2265TIP3    H2 6753   5.276   6.366   2.749
 2266TIP3   OH2 6754   0.285   3.958   3.146
 2266TIP3    H1 6755   0.237   3.979   3.066
 2266TIP3    H2 6756   0.218   3.944   3.212
 2267TIP3   OH2 6757   4.988   3.355   5.882
 2267TIP3    H1 6758   5.053   3.296   5.921
 2267TIP3    H2 6759   4.935   3.297   5.827
 2268TIP3   OH2 6760   5.974   7.392   3.146
 2268TIP3    H1 6761   5.927   7.310   3.131
 2268TIP3    H2 6762   6.052   7.385   3.091
 2269TIP3   OH2 6763   1.310   7.651   2.814
 2269TIP3    H1 6764   1.338   7.563   2.789
 2269TIP3    H2 6765   1.345   7.663   2.902
 2270TIP3   OH2 6766   7.873   3.462   3.334
 2270TIP3    H1 6767   7.959   3.435   3.368
 2270TIP3    H2 6768   7.820   3.478   3.412
 2271TIP3   OH2 6769   0.510   1.130   2.448
 2271TIP3    H1 6770   0.540   1.128   2.357
 2271TIP3    H2 6771   0.425   1.088   2.446
 2272TIP3   OH2 6772   5.569   6.962   1.503
 2272TIP3    H1 6773   5.628   7.027   1.465
 2272TIP3    H2 6774   5.483   7.005   1.502
 2273TIP3   OH2 6775   4.881   0.600   2.760
 2273TIP3    H1 6776   4.806   0.599   2.700
 2273TIP3    H2 6777   4.946   0.655   2.717
 2274TIP3   OH2 6778   8.094   2.335   0.117
 2274TIP3    H1 6779   8.031   2.382   0.061
 2274TIP3    H2 6780   8.073   2.243   0.104
 2275TIP3   OH2 6781   3.645   1.703   2.550
 2275TIP3    H1 6782   3.626   1.711   2.643
 2275TIP3    H2 6783   3.699   1.625   2.543
 2276TIP3   OH2 6784   3.069   3.276   1.638
 2276TIP3    H1 6785   3.081   3.190   1.598
 2276TIP3    H2 6786   3.121   3.273   1.719
 2277TIP3   OH2 6787   0.165   6.643   1.823
 2277TIP3    H1 6788   0.162   6.628   1.917
 2277TIP3    H2 6789   0.073   6.650   1.797
 2278TIP3   OH2 6790   3.612   1.862   1.331
 2278TIP3    H1 6791   3.534   1.913   1.311
 2278TIP3    H2 6792   3.675   1.887   1.264
 2279TIP3   OH2 6793   1.028   5.948   4.940
 2279TIP3    H1 6794   1.077   5.921   5.018
 2279TIP3    H2 6795   0.940   5.965   4.972
 2280TIP3   OH2 6796   1.589   3.821   5.766
 2280TIP3    H1 6797   1.646   3.745   5.757
 2280TIP3    H2 6798   1.533   3.800   5.840
 2281TIP3   OH2 6799   5.065   6.622   5.149
 2281TIP3    H1 6800   4.993   6.570   5.186
 2281TIP3    H2 6801   5.028   6.709   5.137
 2282TIP3   OH2 6802   3.061   6.174   2.199
 2282TIP3    H1 6803   2.988   6.173   2.262
 2282TIP3    H2 6804   3.079   6.267   2.186
 2283TIP3   OH2 6805   7.246   3.314   1.389
 2283TIP3    H1 6806   7.169   3.283   1.340
 2283TIP3    H2 6807   7.290   3.234   1.417
 2284TIP3   OH2 6808   0.168   7.395   3.523
 2284TIP3    H1 6809   0.261   7.412   3.537
 2284TIP3    H2 6810   0.125   7.436   3.597
 2285TIP3   OH2 6811   7.325   3.153   4.352
 2285TIP3    H1 6812   7.400   3.208   4.372
 2285TIP3    H2 6813   7.313   3.099   4.430
 2286TIP3   OH2 6814   3.950   3.003   4.517
 2286TIP3    H1 6815   3.910   2.919   4.494
 2286TIP3    H2 6816   3.902   3.031   4.595
 2287TIP3   OH2 6817   1.247   0.793   6.068
 2287TIP3    H1 6818   1.336   0.758   6.074
 2287TIP3    H2 6819   1.259   0.888   6.068
 2288TIP3   OH2 6820   7.179   1.881   2.884
 2288TIP3    H1 6821   7.229   1.932   2.949
 2288TIP3    H2 6822   7.244   1.822   2.846
 2289TIP3   OH2 6823   2.076   1.726   5.739
 2289TIP3    H1 6824   2.013   1.658   5.761
 2289TIP3    H2 6825   2.061   1.744   5.646
 2290TIP3   OH2 6826   2.404   6.291   0.401
 2290TIP3    H1 6827   2.444   6.312   0.317
 2290TIP3    H2 6828   2.476   6.256   0.453
 2291TIP3   OH2 6829   6.877   2.784   1.892
 2291TIP3    H1 6830   6.969   2.788   1.868
 2291TIP3    H2 6831   6.862   2.864   1.943
 2292TIP3   OH2 6832   4.576   7.474   1.016
 2292TIP3    H1 6833   4.611   7.387   0.997
 2292TIP3    H2 6834   4.581   7.482   1.111
 2293TIP3   OH2 6835   2.111   7.369   4.158
 2293TIP3    H1 6836   2.140   7.289   4.114
 2293TIP3    H2 6837   2.156   7.367   4.243
 2294TIP3   OH2 6838   1.066   7.631   1.681
 2294TIP3    H1 6839   1.159   7.639   1.663
 2294TIP3    H2 6840   1.062   7.589   1.767
 2295TIP3   OH2 6841   0.780   6.891   4.465
 2295TIP3    H1 6842   0.726   6.970   4.472
 2295TIP3    H2 6843   0.836   6.894   4.542
 2296TIP3   OH2 6844   4.421   0.071   5.905
 2296TIP3    H1 6845   4.345   0.014   5.896
 2296TIP3    H2 6846   4.406   0.120   5.986
 2297TIP3   OH2 6847   1.448   6.660   5.680
 2297TIP3    H1 6848   1.403   6.579   5.657
 2297TIP3    H2 6849   1.533   6.653   5.637
 2298TIP3   OH2 6850   3.856   2.732   6.136
 2298TIP3    H1 6851   3.898   2.716   6.051
 2298TIP3    H2 6852   3.927   2.725   6.199
 2299TIP3   OH2 6853   1.250   0.115   0.685
 2299TIP3    H1 6854   1.253   0.019   0.689
 2299TIP3    H2 6855   1.250   0.135   0.591
 2300TIP3   OH2 6856   6.989   6.254   1.432
 2300TIP3    H1 6857   7.008   6.279   1.341
 2300TIP3    H2 6858   6.961   6.336   1.473
 2301TIP3   OH2 6859   1.400   0.571   0.321
 2301TIP3    H1 6860   1.375   0.632   0.252
 2301TIP3    H2 6861   1.466   0.514   0.281
 2302TIP3   OH2 6862   4.278   2.725   4.189
 2302TIP3    H1 6863   4.349   2.695   4.245
 2302TIP3    H2 6864   4.209   2.752   4.251
 2303TIP3   OH2 6865   2.159   5.559   5.454
 2303TIP3    H1 6866   2.132   5.514   5.533
 2303TIP3    H2 6867   2.088   5.544   5.391
 2304TIP3   OH2 6868   4.610   1.094   4.358
 2304TIP3    H1 6869   4.539   1.030   4.361
 2304TIP3    H2 6870   4.648   1.084   4.271
 2305TIP3   OH2 6871   0.396   4.046   5.885
 2305TIP3    H1 6872   0.424   4.029   5.975
 2305TIP3    H2 6873   0.460   4.109   5.852
 2306TIP3   OH2 6874   2.494   4.823   5.744
 2306TIP3    H1 6875   2.512   4.795   5.833
 2306TIP3    H2 6876   2.523   4.914   5.740
 2307TIP3   OH2 6877   5.913   2.038   2.368
 2307TIP3    H1 6878   5.871   1.971   2.422
 2307TIP3    H2 6879   5.913   2.002   2.280
 2308TIP3   OH2 6880   7.773   2.635   4.740
 2308TIP3    H1 6881   7.816   2.555   4.768
 2308TIP3    H2 6882   7.708   2.653   4.807
 2309TIP3   OH2 6883   2.130   2.262   4.931
 2309TIP3    H1 6884   2.182   2.195   4.887
 2309TIP3    H2 6885   2.069   2.292   4.865
 2310TIP3   OH2 6886   3.138   3.302   0.578
 2310TIP3    H1 6887   3.085   3.382   0.573
 2310TIP3    H2 6888   3.077   3.234   0.603
 2311TIP3   OH2 6889   6.911   0.963   5.532
 2311TIP3    H1 6890   6.898   1.055   5.557
 2311TIP3    H2 6891   7.005   0.958   5.511
 2312TIP3   OH2 6892   2.364   4.519   0.799
 2312TIP3    H1 6893   2.459   4.515   0.788
 2312TIP3    H2 6894   2.349   4.599   0.847
 2313TIP3   OH2 6895   7.846   4.185   6.267
 2313TIP3    H1 6896   7.939   4.203   6.281
 2313TIP3    H2 6897   7.804   4.271   6.269
 2314TIP3   OH2 6898   1.701   3.657   6.418
 2314TIP3    H1 6899   1.759   3.727   6.447
 2314TIP3    H2 6900   1.664   3.621   6.499
 2315TIP3   OH2 6901   8.053   0.104   0.485
 2315TIP3    H1 6902   8.103   0.185   0.480
 2315TIP3    H2 6903   8.105   0.047   0.541
 2316TIP3   OH2 6904   6.355   4.564   6.248
 2316TIP3    H1 6905   6.267   4.559   6.285
 2316TIP3    H2 6906   6.407   4.506   6.304
 2317TIP3   OH2 6907   2.916   5.628   6.011
 2317TIP3    H1 6908   2.968   5.632   5.931
 2317TIP3    H2 6909   2.890   5.718   6.028
 2318TIP3   OH2 6910   2.912   3.196   0.344
 2318TIP3    H1 6911   2.961   3.277   0.353
 2318TIP3    H2 6912   2.957   3.134   0.401
 2319TIP3   OH2 6913   7.047   2.036   0.130
 2319TIP3    H1 6914   7.042   1.942   0.151
 2319TIP3    H2 6915   7.021   2.042   0.039
 2320TIP3   OH2 6916   0.990   3.564   6.308
 2320TIP3    H1 6917   0.973   3.505   6.235
 2320TIP3    H2 6918   1.025   3.508   6.377
 2321TIP3   OH2 6919   5.718   6.892   0.345
 2321TIP3    H1 6920   5.713   6.926   0.256
 2321TIP3    H2 6921   5.806   6.853   0.351
 2322TIP3   OH2 6922   5.565   2.335   2.758
 2322TIP3    H1 6923   5.609   2.252   2.777
 2322TIP3    H2 6924   5.605   2.398   2.820
 2323TIP3   OH2 6925   4.000   6.020   3.508
 2323TIP3    H1 6926   3.958   6.022   3.422
 2323TIP3    H2 6927   4.079   5.967   3.495
 2324TIP3   OH2 6928   6.366   1.801   1.625
 2324TIP3    H1 6929   6.380   1.851   1.706
 2324TIP3    H2 6930   6.430   1.731   1.628
 2325TIP3   OH2 6931   2.297   2.917   4.879
 2325TIP3    H1 6932   2.216   2.924   4.828
 2325TIP3    H2 6933   2.308   2.823   4.894
 2326TIP3   OH2 6934   3.347   3.015   6.788
 2326TIP3    H1 6935   3.391   2.934   6.761
 2326TIP3    H2 6936   3.257   3.006   6.755
 2327TIP3   OH2 6937   0.952   0.979   2.062
 2327TIP3    H1 6938   0.900   1.024   2.130
 2327TIP3    H2 6939   0.984   0.900   2.106
 2328TIP3   OH2 6940   0.755   1.743   5.889
 2328TIP3    H1 6941   0.825   1.736   5.825
 2328TIP3    H2 6942   0.745   1.837   5.904
 2329TIP3   OH2 6943   1.828   0.732   0.299
 2329TIP3    H1 6944   1.897   0.719   0.364
 2329TIP3    H2 6945   1.760   0.669   0.324
 2330TIP3   OH2 6946   5.081   7.599   3.374
 2330TIP3    H1 6947   5.175   7.601   3.355
 2330TIP3    H2 6948   5.041   7.563   3.295
 2331TIP3   OH2 6949   7.807   3.761   4.128
 2331TIP3    H1 6950   7.773   3.850   4.113
 2331TIP3    H2 6951   7.880   3.774   4.188
 2332TIP3   OH2 6952   1.964   4.808   1.465
 2332TIP3    H1 6953   1.998   4.883   1.417
 2332TIP3    H2 6954   1.879   4.837   1.498
 2333TIP3   OH2 6955   5.542   4.243   4.588
 2333TIP3    H1 6956   5.475   4.309   4.570
 2333TIP3    H2 6957   5.616   4.270   4.533
 2334TIP3   OH2 6958   3.951   2.349   2.405
 2334TIP3    H1 6959   3.945   2.265   2.451
 2334TIP3    H2 6960   3.880   2.345   2.341
 2335TIP3   OH2 6961   0.259   3.530   2.505
 2335TIP3    H1 6962   0.254   3.501   2.414
 2335TIP3    H2 6963   0.168   3.549   2.529
 2336TIP3   OH2 6964   3.109   7.705   5.255
 2336TIP3    H1 6965   3.056   7.718   5.176
 2336TIP3    H2 6966   3.084   7.777   5.313
 2337TIP3   OH2 6967   3.141   4.511   0.934
 2337TIP3    H1 6968   3.086   4.588   0.940
 2337TIP3    H2 6969   3.145   4.476   1.023
 2338TIP3   OH2 6970   3.696   6.815   6.524
 2338TIP3    H1 6971   3.650   6.794   6.605
 2338TIP3    H2 6972   3.713   6.909   6.530
 2339TIP3   OH2 6973   4.273   6.854   1.851
 2339TIP3    H1 6974   4.188   6.821   1.879
 2339TIP3    H2 6975   4.270   6.851   1.755
 2340TIP3   OH2 6976   6.269   4.278   6.635
 2340TIP3    H1 6977   6.232   4.346   6.579
 2340TIP3    H2 6978   6.197   4.215   6.647
 2341TIP3   OH2 6979   6.050   7.345   2.222
 2341TIP3    H1 6980   6.005   7.265   2.194
 2341TIP3    H2 6981   6.136   7.315   2.252
 2342TIP3   OH2 6982   3.221   2.815   5.141
 2342TIP3    H1 6983   3.175   2.784   5.062
 2342TIP3    H2 6984   3.154   2.859   5.192
 2343TIP3   OH2 6985   7.109   5.185   3.291
 2343TIP3    H1 6986   7.092   5.256   3.353
 2343TIP3    H2 6987   7.023   5.150   3.270
 2344TIP3   OH2 6988   0.855   4.697   3.957
 2344TIP3    H1 6989   0.790   4.673   3.891
 2344TIP3    H2 6990   0.842   4.634   4.027
 2345TIP3   OH2 6991   4.806   3.720   3.949
 2345TIP3    H1 6992   4.722   3.702   3.991
 2345TIP3    H2 6993   4.787   3.720   3.855
 2346TIP3   OH2 6994   5.807   6.409   4.619
 2346TIP3    H1 6995   5.766   6.420   4.533
 2346TIP3    H2 6996   5.733   6.403   4.680
 2347TIP3   OH2 6997   0.341   0.488   0.338
 2347TIP3    H1 6998   0.305   0.453   0.256
 2347TIP3    H2 6999   0.375   0.411   0.383
 2348TIP3   OH2 7000   1.657   0.299   3.521
 2348TIP3    H1 7001   1.596   0.233   3.487
 2348TIP3    H2 7002   1.736   0.288   3.469
 2349TIP3   OH2 7003   3.090   4.823   2.180
 2349TIP3    H1 7004   3.045   4.835   2.096
 2349TIP3    H2 7005   3.049   4.746   2.219
 2350TIP3   OH2 7006   6.608   2.103   3.778
 2350TIP3    H1 7007   6.596   2.018   3.736
 2350TIP3    H2 7008   6.530   2.114   3.832
 2351TIP3   OH2 7009   4.988  -0.006   2.587
 2351TIP3    H1 7010   4.988  -0.073   2.518
 2351TIP3    H2 7011   4.934   0.064   2.553
 2352TIP3   OH2 7012   2.745   0.501   4.464
 2352TIP3    H1 7013   2.797   0.507   4.545
 2352TIP3    H2 7014   2.806   0.466   4.399
 2353TIP3   OH2 7015   5.598   3.504   2.907
 2353TIP3    H1 7016   5.604   3.429   2.965
 2353TIP3    H2 7017   5.518   3.550   2.936
 2354TIP3   OH2 7018   6.335   3.650   4.614
 2354TIP3    H1 7019   6.260   3.638   4.672
 2354TIP3    H2 7020   6.302   3.707   4.544
 2355TIP3   OH2 7021   3.257   6.669   0.230
 2355TIP3    H1 7022   3.169   6.636   0.214
 2355TIP3    H2 7023   3.256   6.694   0.323
 2356TIP3   OH2 7024   7.337   3.446   4.094
 2356TIP3    H1 7025   7.388   3.441   4.013
 2356TIP3    H2 7026   7.297   3.359   4.103
 2357TIP3   OH2 7027   4.941   7.421   4.397
 2357TIP3    H1 7028   4.990   7.395   4.319
 2357TIP3    H2 7029   4.939   7.517   4.393
 2358TIP3   OH2 7030   0.438   1.579   1.154
 2358TIP3    H1 7031   0.495   1.550   1.226
 2358TIP3    H2 7032   0.353   1.541   1.175
 2359TIP3   OH2 7033   3.976   3.923   1.974
 2359TIP3    H1 7034   3.916   3.978   2.024
 2359TIP3    H2 7035   3.998   3.975   1.897
 2360TIP3   OH2 7036   7.382   5.778   4.077
 2360TIP3    H1 7037   7.476   5.785   4.064
 2360TIP3    H2 7038   7.348   5.754   3.990
 2361TIP3   OH2 7039   2.991   4.370   0.205
 2361TIP3    H1 7040   2.977   4.311   0.279
 2361TIP3    H2 7041   2.956   4.454   0.235
 2362TIP3   OH2 7042   2.087   4.087   4.090
 2362TIP3    H1 7043   2.093   4.033   4.169
 2362TIP3    H2 7044   2.066   4.024   4.020
 2363TIP3   OH2 7045   1.186   6.993   6.570
 2363TIP3    H1 7046   1.201   6.902   6.542
 2363TIP3    H2 7047   1.269   7.020   6.608
 2364TIP3   OH2 7048   1.644   4.803   5.947
 2364TIP3    H1 7049   1.643   4.708   5.962
 2364TIP3    H2 7050   1.602   4.841   6.024
 2365TIP3   OH2 7051   6.667   6.307   1.765
 2365TIP3    H1 7052   6.667   6.381   1.826
 2365TIP3    H2 7053   6.646   6.346   1.680
 2366TIP3   OH2 7054   3.475   7.147   2.670
 2366TIP3    H1 7055   3.499   7.124   2.760
 2366TIP3    H2 7056   3.504   7.073   2.617
 2367TIP3   OH2 7057   2.755   5.891   3.664
 2367TIP3    H1 7058   2.706   5.851   3.593
 2367TIP3    H2 7059   2.697   5.887   3.740
 2368TIP3   OH2 7060   5.253   7.023   6.120
 2368TIP3    H1 7061   5.163   6.998   6.103
 2368TIP3    H2 7062   5.289   7.045   6.033
 2369TIP3   OH2 7063   0.585   4.910   6.428
 2369TIP3    H1 7064   0.592   4.992   6.380
 2369TIP3    H2 7065   0.492   4.891   6.429
 2370TIP3   OH2 7066   5.817   0.563   5.353
 2370TIP3    H1 7067   5.800   0.612   5.433
 2370TIP3    H2 7068   5.852   0.628   5.292
 2371TIP3   OH2 7069   0.327   5.704   1.361
 2371TIP3    H1 7070   0.232   5.700   1.368
 2371TIP3    H2 7071   0.346   5.681   1.270
 2372TIP3   OH2 7072   5.304   3.633   5.954
 2372TIP3    H1 7073   5.386   3.680   5.948
 2372TIP3    H2 7074   5.309   3.586   6.037
 2373TIP3   OH2 7075   2.405   6.737   5.291
 2373TIP3    H1 7076   2.366   6.801   5.351
 2373TIP3    H2 7077   2.491   6.773   5.270
 2374TIP3   OH2 7078   2.204   1.218   5.838
 2374TIP3    H1 7079   2.149   1.142   5.820
 2374TIP3    H2 7080   2.193   1.234   5.932
 2375TIP3   OH2 7081   3.972   5.867   4.027
 2375TIP3    H1 7082   3.900   5.889   4.086
 2375TIP3    H2 7083   3.950   5.780   3.994
 2376TIP3   OH2 7084   1.679   2.881   1.246
 2376TIP3    H1 7085   1.588   2.890   1.216
 2376TIP3    H2 7086   1.717   2.816   1.188
 2377TIP3   OH2 7087   3.993   2.421   0.750
 2377TIP3    H1 7088   4.038   2.438   0.667
 2377TIP3    H2 7089   3.924   2.359   0.728
 2378TIP3   OH2 7090   8.068   1.023   5.591
 2378TIP3    H1 7091   8.103   0.934   5.594
 2378TIP3    H2 7092   7.973   1.012   5.585
 2379TIP3   OH2 7093   2.415   0.352   1.317
 2379TIP3    H1 7094   2.502   0.382   1.292
 2379TIP3    H2 7095   2.426   0.317   1.406
 2380TIP3   OH2 7096   5.711   0.780   2.207
 2380TIP3    H1 7097   5.718   0.761   2.300
 2380TIP3    H2 7098   5.623   0.751   2.183
 2381TIP3   OH2 7099   5.381   2.382   1.728
 2381TIP3    H1 7100   5.438   2.416   1.797
 2381TIP3    H2 7101   5.435   2.383   1.649
 2382TIP3   OH2 7102  -0.047   2.920   1.788
 2382TIP3    H1 7103  -0.011   2.866   1.717
 2382TIP3    H2 7104   0.028   2.936   1.845
 2383TIP3   OH2 7105   1.066   7.068   5.918
 2383TIP3    H1 7106   1.114   6.994   5.954
 2383TIP3    H2 7107   1.087   7.141   5.977
 2384TIP3   OH2 7108   3.150   7.045   6.514
 2384TIP3    H1 7109   3.217   7.095   6.559
 2384TIP3    H2 7110   3.071   7.099   6.520
 2385TIP3   OH2 7111   6.435   4.201   2.787
 2385TIP3    H1 7112   6.416   4.128   2.728
 2385TIP3    H2 7113   6.494   4.257   2.736
 2386TIP3   OH2 7114   4.844   7.590   2.826
 2386TIP3    H1 7115   4.816   7.675   2.793
 2386TIP3    H2 7116   4.877   7.608   2.914
 2387TIP3   OH2 7117   7.393   2.792   2.531
 2387TIP3    H1 7118   7.355   2.856   2.471
 2387TIP3    H2 7119   7.323   2.773   2.594
 2388TIP3   OH2 7120   0.031   3.812   4.744
 2388TIP3    H1 7121   0.075   3.896   4.732
 2388TIP3    H2 7122  -0.051   3.820   4.695
 2389TIP3   OH2 7123   6.570   7.053   4.185
 2389TIP3    H1 7124   6.540   7.029   4.273
 2389TIP3    H2 7125   6.663   7.074   4.196
 2390TIP3   OH2 7126   8.261   2.137   0.383
 2390TIP3    H1 7127   8.310   2.156   0.463
 2390TIP3    H2 7128   8.171   2.163   0.404
 2391TIP3   OH2 7129   4.280   4.016   5.373
 2391TIP3    H1 7130   4.338   3.963   5.318
 2391TIP3    H2 7131   4.339   4.068   5.427
 2392TIP3   OH2 7132   2.246   7.240   5.399
 2392TIP3    H1 7133   2.243   7.225   5.493
 2392TIP3    H2 7134   2.154   7.244   5.372
 2393TIP3   OH2 7135   4.635   3.549   0.442
 2393TIP3    H1 7136   4.615   3.625   0.496
 2393TIP3    H2 7137   4.560   3.490   0.455
 2394TIP3   OH2 7138   3.307   5.579   1.257
 2394TIP3    H1 7139   3.364   5.507   1.281
 2394TIP3    H2 7140   3.358   5.658   1.275
 2395TIP3   OH2 7141   5.676   6.474   6.680
 2395TIP3    H1 7142   5.594   6.524   6.681
 2395TIP3    H2 7143   5.666   6.409   6.749
 2396TIP3   OH2 7144   6.027   3.636   1.144
 2396TIP3    H1 7145   6.043   3.617   1.052
 2396TIP3    H2 7146   5.931   3.637   1.152
 2397TIP3   OH2 7147   1.461   0.372   4.642
 2397TIP3    H1 7148   1.519   0.417   4.704
 2397TIP3    H2 7149   1.376   0.415   4.653
 2398TIP3   OH2 7150   4.025   4.999   6.189
 2398TIP3    H1 7151   3.952   4.971   6.244
 2398TIP3    H2 7152   4.043   5.089   6.218
 2399TIP3   OH2 7153   6.667   2.354   3.906
 2399TIP3    H1 7154   6.645   2.265   3.876
 2399TIP3    H2 7155   6.609   2.411   3.856
 2400TIP3   OH2 7156   1.211   5.741   0.895
 2400TIP3    H1 7157   1.137   5.753   0.956
 2400TIP3    H2 7158   1.183   5.669   0.838
 2401TIP3   OH2 7159   5.830   5.412   6.392
 2401TIP3    H1 7160   5.784   5.373   6.318
 2401TIP3    H2 7161   5.852   5.501   6.363
 2402TIP3   OH2 7162   6.912   6.231   4.780
 2402TIP3    H1 7163   6.817   6.238   4.769
 2402TIP3    H2 7164   6.942   6.321   4.791
 2403TIP3   OH2 7165   1.411   5.798   1.080
 2403TIP3    H1 7166   1.400   5.889   1.105
 2403TIP3    H2 7167   1.353   5.786   1.005
 2404TIP3   OH2 7168   3.011   3.418   6.772
 2404TIP3    H1 7169   2.938   3.356   6.767
 2404TIP3    H2 7170   3.081   3.377   6.720
 2405TIP3   OH2 7171   0.436   4.494   0.598
 2405TIP3    H1 7172   0.398   4.423   0.648
 2405TIP3    H2 7173   0.375   4.508   0.525
 2406TIP3   OH2 7174   4.179   1.067   6.465
 2406TIP3    H1 7175   4.098   1.118   6.472
 2406TIP3    H2 7176   4.155   0.993   6.408
 2407TIP3   OH2 7177   0.150   3.260   5.132
 2407TIP3    H1 7178   0.199   3.181   5.107
 2407TIP3    H2 7179   0.181   3.328   5.072
 2408TIP3   OH2 7180   0.798   0.169   1.149
 2408TIP3    H1 7181   0.761   0.218   1.075
 2408TIP3    H2 7182   0.892   0.168   1.132
 2409TIP3   OH2 7183   4.507   7.365   6.085
 2409TIP3    H1 7184   4.565   7.404   6.150
 2409TIP3    H2 7185   4.514   7.271   6.100
 2410TIP3   OH2 7186   8.069   4.826   1.844
 2410TIP3    H1 7187   8.063   4.911   1.887
 2410TIP3    H2 7188   8.059   4.763   1.916
 2411TIP3   OH2 7189   0.287   4.114   0.402
 2411TIP3    H1 7190   0.201   4.124   0.362
 2411TIP3    H2 7191   0.339   4.185   0.366
 2412TIP3   OH2 7192   0.843   1.489   5.498
 2412TIP3    H1 7193   0.912   1.555   5.502
 2412TIP3    H2 7194   0.773   1.524   5.554
 2413TIP3   OH2 7195   6.088   5.575   4.620
 2413TIP3    H1 7196   6.068   5.549   4.710
 2413TIP3    H2 7197   6.025   5.526   4.567
 2414TIP3   OH2 7198   7.221   6.814   2.495
 2414TIP3    H1 7199   7.157   6.757   2.538
 2414TIP3    H2 7200   7.238   6.772   2.411
 2415TIP3   OH2 7201   4.838   6.686   6.165
 2415TIP3    H1 7202   4.879   6.658   6.083
 2415TIP3    H2 7203   4.888   6.764   6.191
 2416TIP3   OH2 7204   3.477   0.540   5.714
 2416TIP3    H1 7205   3.568   0.568   5.708
 2416TIP3    H2 7206   3.433   0.610   5.763
 2417TIP3   OH2 7207   3.846   1.096   3.155
 2417TIP3    H1 7208   3.895   1.025   3.114
 2417TIP3    H2 7209   3.911   1.145   3.205
 2418TIP3   OH2 7210   7.227   6.408   0.489
 2418TIP3    H1 7211   7.147   6.384   0.442
 2418TIP3    H2 7212   7.197   6.463   0.561
 2419TIP3   OH2 7213   2.129   4.512   5.424
 2419TIP3    H1 7214   2.075   4.456   5.480
 2419TIP3    H2 7215   2.069   4.577   5.388
 2420TIP3   OH2 7216   7.131   1.396   5.675
 2420TIP3    H1 7217   7.149   1.487   5.651
 2420TIP3    H2 7218   7.217   1.355   5.684
 2421TIP3   OH2 7219   4.360   0.042   6.456
 2421TIP3    H1 7220   4.327  -0.036   6.411
 2421TIP3    H2 7221   4.282   0.096   6.471
 2422TIP3   OH2 7222   0.932   5.837   6.090
 2422TIP3    H1 7223   1.004   5.817   6.031
 2422TIP3    H2 7224   0.958   5.917   6.135
 2423TIP3   OH2 7225   2.141   2.040   6.366
 2423TIP3    H1 7226   2.075   2.012   6.303
 2423TIP3    H2 7227   2.109   2.007   6.450
 2424TIP3   OH2 7228   2.620   7.740   1.882
 2424TIP3    H1 7229   2.689   7.767   1.943
 2424TIP3    H2 7230   2.636   7.646   1.869
 2425TIP3   OH2 7231   2.538   3.158   1.842
 2425TIP3    H1 7232   2.494   3.226   1.790
 2425TIP3    H2 7233   2.567   3.204   1.920
 2426TIP3   OH2 7234   4.321   1.043   0.622
 2426TIP3    H1 7235   4.394   1.085   0.668
 2426TIP3    H2 7236   4.248   1.104   0.631
 2427TIP3   OH2 7237   6.635   3.653   3.350
 2427TIP3    H1 7238   6.646   3.714   3.278
 2427TIP3    H2 7239   6.541   3.653   3.367
 2428TIP3   OH2 7240   2.373   4.143   5.976
 2428TIP3    H1 7241   2.394   4.227   5.936
 2428TIP3    H2 7242   2.386   4.157   6.070
 2429TIP3   OH2 7243   6.593   1.003   6.625
 2429TIP3    H1 7244   6.659   0.936   6.644
 2429TIP3    H2 7245   6.527   0.992   6.693
 2430TIP3   OH2 7246   2.620   3.653   2.610
 2430TIP3    H1 7247   2.637   3.747   2.599
 2430TIP3    H2 7248   2.562   3.648   2.686
 2431TIP3   OH2 7249   3.863   0.495   4.881
 2431TIP3    H1 7250   3.947   0.532   4.856
 2431TIP3    H2 7251   3.845   0.428   4.815
 2432TIP3   OH2 7252   0.233   2.214   6.631
 2432TIP3    H1 7253   0.257   2.191   6.542
 2432TIP3    H2 7254   0.164   2.152   6.654
 2433TIP3   OH2 7255   0.089   7.252   5.572
 2433TIP3    H1 7256   0.075   7.175   5.517
 2433TIP3    H2 7257   0.026   7.316   5.541
 2434TIP3   OH2 7258   6.663   6.232   2.321
 2434TIP3    H1 7259   6.651   6.233   2.226
 2434TIP3    H2 7260   6.737   6.173   2.336
 2435TIP3   OH2 7261   7.513   2.029   4.413
 2435TIP3    H1 7262   7.460   2.046   4.336
 2435TIP3    H2 7263   7.598   2.069   4.393
 2436TIP3   OH2 7264   2.724   5.060   1.976
 2436TIP3    H1 7265   2.781   5.107   2.038
 2436TIP3    H2 7266   2.726   4.969   2.005
 2437TIP3   OH2 7267   4.045   5.828   1.264
 2437TIP3    H1 7268   3.963   5.823   1.216
 2437TIP3    H2 7269   4.061   5.922   1.274
 2438TIP3   OH2 7270   0.190   3.685   4.449
 2438TIP3    H1 7271   0.234   3.698   4.365
 2438TIP3    H2 7272   0.252   3.633   4.501
 2439TIP3   OH2 7273   5.150   2.713   3.330
 2439TIP3    H1 7274   5.208   2.649   3.370
 2439TIP3    H2 7275   5.205   2.761   3.268
 2440TIP3   OH2 7276   2.693   1.931   6.502
 2440TIP3    H1 7277   2.768   1.960   6.554
 2440TIP3    H2 7278   2.668   2.008   6.452
 2441TIP3   OH2 7279   0.090   3.091   0.852
 2441TIP3    H1 7280   0.122   3.172   0.893
 2441TIP3    H2 7281   0.061   3.119   0.765
 2442TIP3   OH2 7282   0.978   6.715   4.291
 2442TIP3    H1 7283   0.904   6.661   4.264
 2442TIP3    H2 7284   0.938   6.794   4.327
 2443TIP3   OH2 7285   3.885   2.318   6.025
 2443TIP3    H1 7286   3.801   2.280   6.050
 2443TIP3    H2 7287   3.862   2.389   5.965
 2444TIP3   OH2 7288   2.585   6.390   5.995
 2444TIP3    H1 7289   2.629   6.354   5.918
 2444TIP3    H2 7290   2.615   6.335   6.067
 2445TIP3   OH2 7291   2.812   1.342   6.652
 2445TIP3    H1 7292   2.776   1.264   6.609
 2445TIP3    H2 7293   2.763   1.348   6.734
 2446TIP3   OH2 7294   0.041   4.398   0.906
 2446TIP3    H1 7295  -0.030   4.344   0.872
 2446TIP3    H2 7296   0.018   4.487   0.878
 2447TIP3   OH2 7297   5.173   4.599   5.247
 2447TIP3    H1 7298   5.262   4.575   5.221
 2447TIP3    H2 7299   5.176   4.694   5.258
 2448TIP3   OH2 7300   2.829   2.704   5.419
 2448TIP3    H1 7301   2.818   2.798   5.432
 2448TIP3    H2 7302   2.804   2.665   5.503
 2449TIP3   OH2 7303   7.884   6.317   5.975
 2449TIP3    H1 7304   7.963   6.362   6.005
 2449TIP3    H2 7305   7.819   6.387   5.968
 2450TIP3   OH2 7306   6.821   0.558   1.819
 2450TIP3    H1 7307   6.738   0.602   1.837
 2450TIP3    H2 7308   6.815   0.530   1.728
 2451TIP3   OH2 7309   8.234   0.599   4.630
 2451TIP3    H1 7310   8.303   0.607   4.696
 2451TIP3    H2 7311   8.164   0.552   4.676
 2452TIP3   OH2 7312   0.156   3.709   3.712
 2452TIP3    H1 7313   0.230   3.709   3.651
 2452TIP3    H2 7314   0.096   3.643   3.678
 2453TIP3   OH2 7315   5.376   3.473   4.280
 2453TIP3    H1 7316   5.363   3.560   4.317
 2453TIP3    H2 7317   5.438   3.486   4.209
 2454TIP3   OH2 7318   3.405   7.479   6.387
 2454TIP3    H1 7319   3.411   7.547   6.320
 2454TIP3    H2 7320   3.429   7.524   6.468
 2455TIP3   OH2 7321   8.221   0.757   3.164
 2455TIP3    H1 7322   8.146   0.800   3.206
 2455TIP3    H2 7323   8.190   0.669   3.143
 2456TIP3   OH2 7324   2.306   1.358   5.432
 2456TIP3    H1 7325   2.284   1.400   5.515
 2456TIP3    H2 7326   2.234   1.297   5.416
 2457TIP3   OH2 7327   4.538   1.611   2.354
 2457TIP3    H1 7328   4.609   1.547   2.365
 2457TIP3    H2 7329   4.499   1.590   2.269
 2458TIP3   OH2 7330   8.244   0.547   2.347
 2458TIP3    H1 7331   8.228   0.546   2.441
 2458TIP3    H2 7332   8.246   0.455   2.322
 2459TIP3   OH2 7333   2.127   1.416   6.614
 2459TIP3    H1 7334   2.067   1.368   6.557
 2459TIP3    H2 7335   2.177   1.472   6.554
 2460TIP3   OH2 7336   1.906   2.059   3.320
 2460TIP3    H1 7337   1.883   1.975   3.358
 2460TIP3    H2 7338   1.907   2.044   3.226
 2461TIP3   OH2 7339   6.611   1.319   4.953
 2461TIP3    H1 7340   6.674   1.251   4.980
 2461TIP3    H2 7341   6.622   1.324   4.858
 2462TIP3   OH2 7342   5.157   1.139   2.429
 2462TIP3    H1 7343   5.228   1.134   2.365
 2462TIP3    H2 7344   5.201   1.151   2.513
 2463TIP3   OH2 7345   6.698   2.083   4.734
 2463TIP3    H1 7346   6.745   2.117   4.658
 2463TIP3    H2 7347   6.644   2.157   4.762
 2464TIP3   OH2 7348   8.063   0.107   2.975
 2464TIP3    H1 7349   8.128   0.175   2.993
 2464TIP3    H2 7350   8.073   0.045   3.047
 2465TIP3   OH2 7351   5.756   1.037   1.027
 2465TIP3    H1 7352   5.749   1.057   0.934
 2465TIP3    H2 7353   5.839   0.990   1.036
 2466TIP3   OH2 7354   4.228   1.090   3.965
 2466TIP3    H1 7355   4.258   1.148   4.034
 2466TIP3    H2 7356   4.139   1.066   3.991
 2467TIP3   OH2 7357   0.923   7.173   4.477
 2467TIP3    H1 7358   0.867   7.151   4.402
 2467TIP3    H2 7359   0.949   7.263   4.462
 2468TIP3   OH2 7360   8.180   0.767   5.874
 2468TIP3    H1 7361   8.192   0.731   5.962
 2468TIP3    H2 7362   8.243   0.839   5.869
 2469TIP3   OH2 7363   7.400   5.159   5.757
 2469TIP3    H1 7364   7.390   5.111   5.674
 2469TIP3    H2 7365   7.396   5.092   5.824
 2470TIP3   OH2 7366   3.138   3.043   1.509
 2470TIP3    H1 7367   3.172   3.009   1.592
 2470TIP3    H2 7368   3.107   2.964   1.463
 2471TIP3   OH2 7369   6.135   7.292   0.416
 2471TIP3    H1 7370   6.041   7.302   0.401
 2471TIP3    H2 7371   6.158   7.366   0.473
 2472TIP3   OH2 7372   6.439   2.252   2.455
 2472TIP3    H1 7373   6.481   2.333   2.427
 2472TIP3    H2 7374   6.397   2.219   2.375
 2473TIP3   OH2 7375   6.659   5.778   2.792
 2473TIP3    H1 7376   6.697   5.857   2.754
 2473TIP3    H2 7377   6.732   5.718   2.802
 2474TIP3   OH2 7378   0.923   3.397   1.019
 2474TIP3    H1 7379   0.909   3.427   1.108
 2474TIP3    H2 7380   0.991   3.455   0.985
 2475TIP3   OH2 7381   5.105   1.154   5.644
 2475TIP3    H1 7382   5.029   1.175   5.590
 2475TIP3    H2 7383   5.068   1.130   5.729
 2476TIP3   OH2 7384   3.736   6.744   3.549
 2476TIP3    H1 7385   3.662   6.697   3.587
 2476TIP3    H2 7386   3.761   6.808   3.615
 2477TIP3   OH2 7387   5.119   5.957   0.932
 2477TIP3    H1 7388   5.169   5.934   0.854
 2477TIP3    H2 7389   5.123   5.879   0.987
 2478TIP3   OH2 7390   7.499   0.840   0.619
 2478TIP3    H1 7391   7.571   0.856   0.681
 2478TIP3    H2 7392   7.431   0.901   0.646
 2479TIP3   OH2 7393   5.827   0.489   6.583
 2479TIP3    H1 7394   5.835   0.448   6.497
 2479TIP3    H2 7395   5.745   0.538   6.579
 2480TIP3   OH2 7396   7.246   0.590   3.662
 2480TIP3    H1 7397   7.197   0.649   3.604
 2480TIP3    H2 7398   7.330   0.577   3.617
 2481TIP3   OH2 7399   0.551   5.537   4.845
 2481TIP3    H1 7400   0.567   5.631   4.851
 2481TIP3    H2 7401   0.546   5.519   4.751
 2482TIP3   OH2 7402   2.895   6.644   4.838
 2482TIP3    H1 7403   2.813   6.597   4.825
 2482TIP3    H2 7404   2.908   6.693   4.757
 2483TIP3   OH2 7405   5.442   6.074   2.086
 2483TIP3    H1 7406   5.435   6.169   2.085
 2483TIP3    H2 7407   5.351   6.042   2.087
 2484TIP3   OH2 7408   3.626   4.253   4.404
 2484TIP3    H1 7409   3.587   4.241   4.317
 2484TIP3    H2 7410   3.552   4.243   4.464
 2485TIP3   OH2 7411   0.063   7.575   0.964
 2485TIP3    H1 7412   0.032   7.651   1.014
 2485TIP3    H2 7413   0.093   7.513   1.030
 2486TIP3   OH2 7414   6.783   3.652   0.803
 2486TIP3    H1 7415   6.845   3.685   0.739
 2486TIP3    H2 7416   6.799   3.557   0.806
 2487TIP3   OH2 7417   7.386   1.286   5.603
 2487TIP3    H1 7418   7.455   1.333   5.556
 2487TIP3    H2 7419   7.350   1.224   5.540
 2488TIP3   OH2 7420   8.062   7.031   0.269
 2488TIP3    H1 7421   8.093   7.107   0.319
 2488TIP3    H2 7422   8.125   7.021   0.198
 2489TIP3   OH2 7423   4.798   2.107   1.334
 2489TIP3    H1 7424   4.851   2.146   1.404
 2489TIP3    H2 7425   4.708   2.117   1.364
 2490TIP3   OH2 7426   4.298   2.396   0.625
 2490TIP3    H1 7427   4.373   2.351   0.585
 2490TIP3    H2 7428   4.248   2.430   0.550
 2491TIP3   OH2 7429   4.161   6.983   3.073
 2491TIP3    H1 7430   4.086   7.042   3.062
 2491TIP3    H2 7431   4.128   6.898   3.043
 2492TIP3   OH2 7432   2.450   1.076   2.246
 2492TIP3    H1 7433   2.461   1.086   2.341
 2492TIP3    H2 7434   2.464   0.982   2.231
 2493TIP3   OH2 7435   6.095   0.737   3.664
 2493TIP3    H1 7436   6.102   0.736   3.568
 2493TIP3    H2 7437   6.176   0.780   3.693
 2494TIP3   OH2 7438   3.165   5.859   0.017
 2494TIP3    H1 7439   3.115   5.924   0.066
 2494TIP3    H2 7440   3.122   5.776   0.039
 2495TIP3   OH2 7441   3.033   6.978   2.304
 2495TIP3    H1 7442   3.062   6.976   2.213
 2495TIP3    H2 7443   3.059   6.894   2.340
 2496TIP3   OH2 7444   2.070   5.502   1.520
 2496TIP3    H1 7445   2.030   5.521   1.435
 2496TIP3    H2 7446   2.146   5.560   1.524
 2497TIP3   OH2 7447   3.884   4.627   4.750
 2497TIP3    H1 7448   3.850   4.710   4.716
 2497TIP3    H2 7449   3.806   4.574   4.766
 2498TIP3   OH2 7450   3.991   4.795   2.588
 2498TIP3    H1 7451   4.070   4.812   2.536
 2498TIP3    H2 7452   4.013   4.825   2.676
 2499TIP3   OH2 7453   0.378   6.745   1.676
 2499TIP3    H1 7454   0.297   6.711   1.712
 2499TIP3    H2 7455   0.424   6.668   1.642
 2500TIP3   OH2 7456   4.573   3.004   3.887
 2500TIP3    H1 7457   4.496   3.017   3.942
 2500TIP3    H2 7458   4.543   2.948   3.816
 2501TIP3   OH2 7459   5.660   3.273   0.839
 2501TIP3    H1 7460   5.575   3.309   0.811
 2501TIP3    H2 7461   5.639   3.184   0.867
 2502TIP3   OH2 7462   6.322   5.041   1.581
 2502TIP3    H1 7463   6.314   5.122   1.531
 2502TIP3    H2 7464   6.239   5.033   1.628
 2503TIP3   OH2 7465   4.900   6.477   6.675
 2503TIP3    H1 7466   4.889   6.382   6.668
 2503TIP3    H2 7467   4.893   6.495   6.769
 2504TIP3   OH2 7468   6.069   4.627   6.047
 2504TIP3    H1 7469   6.156   4.664   6.035
 2504TIP3    H2 7470   6.084   4.545   6.094
 2505TIP3   OH2 7471   7.222   5.147   1.660
 2505TIP3    H1 7472   7.153   5.137   1.594
 2505TIP3    H2 7473   7.181   5.197   1.730
 2506TIP3   OH2 7474   6.267   5.374   1.148
 2506TIP3    H1 7475   6.219   5.364   1.066
 2506TIP3    H2 7476   6.318   5.294   1.155
 2507TIP3   OH2 7477   7.240   6.578   1.219
 2507TIP3    H1 7478   7.308   6.645   1.210
 2507TIP3    H2 7479   7.285   6.496   1.201
 2508TIP3   OH2 7480   6.780   3.523   4.380
 2508TIP3    H1 7481   6.717   3.510   4.451
 2508TIP3    H2 7482   6.804   3.616   4.387
 2509TIP3   OH2 7483   5.781   2.562   2.236
 2509TIP3    H1 7484   5.729   2.639   2.215
 2509TIP3    H2 7485   5.719   2.500   2.274
 2510TIP3   OH2 7486   3.186   5.263   6.554
 2510TIP3    H1 7487   3.259   5.325   6.552
 2510TIP3    H2 7488   3.110   5.316   6.577
 2511TIP3   OH2 7489   0.321   7.379   1.064
 2511TIP3    H1 7490   0.413   7.354   1.057
 2511TIP3    H2 7491   0.308   7.395   1.158
 2512TIP3   OH2 7492   8.010   2.647   5.184
 2512TIP3    H1 7493   8.020   2.711   5.114
 2512TIP3    H2 7494   8.030   2.563   5.143
 2513TIP3   OH2 7495   0.719   6.460   6.499
 2513TIP3    H1 7496   0.749   6.494   6.583
 2513TIP3    H2 7497   0.674   6.379   6.520
 2514TIP3   OH2 7498   1.391   1.528   5.400
 2514TIP3    H1 7499   1.375   1.561   5.312
 2514TIP3    H2 7500   1.358   1.597   5.458
 2515TIP3   OH2 7501   8.054   7.514   3.319
 2515TIP3    H1 7502   8.121   7.579   3.336
 2515TIP3    H2 7503   8.078   7.439   3.373
 2516TIP3   OH2 7504   3.985   1.156   0.891
 2516TIP3    H1 7505   3.952   1.067   0.888
 2516TIP3    H2 7506   3.908   1.211   0.876
 2517TIP3   OH2 7507   3.294   5.585   4.321
 2517TIP3    H1 7508   3.359   5.519   4.344
 2517TIP3    H2 7509   3.345   5.659   4.287
 2518TIP3   OH2 7510   5.346   0.086   6.695
 2518TIP3    H1 7511   5.335   0.171   6.738
 2518TIP3    H2 7512   5.400   0.035   6.755
 2519TIP3   OH2 7513   1.738   6.834   0.417
 2519TIP3    H1 7514   1.734   6.761   0.479
 2519TIP3    H2 7515   1.831   6.856   0.411
 2520TIP3   OH2 7516   7.778   2.486   1.366
 2520TIP3    H1 7517   7.844   2.512   1.430
 2520TIP3    H2 7518   7.824   2.427   1.306
 2521TIP3   OH2 7519   1.748   1.064   4.751
 2521TIP3    H1 7520   1.695   1.133   4.710
 2521TIP3    H2 7521   1.712   0.983   4.716
 2522TIP3   OH2 7522   2.750   2.248   4.388
 2522TIP3    H1 7523   2.670   2.205   4.418
 2522TIP3    H2 7524   2.771   2.311   4.458
 2523TIP3   OH2 7525   4.989   1.369   4.014
 2523TIP3    H1 7526   5.066   1.359   3.959
 2523TIP3    H2 7527   4.945   1.285   4.009
 2524TIP3   OH2 7528   3.827   0.725   0.338
 2524TIP3    H1 7529   3.817   0.775   0.419
 2524TIP3    H2 7530   3.896   0.662   0.357
 2525TIP3   OH2 7531   4.350   3.057   6.739
 2525TIP3    H1 7532   4.438   3.085   6.713
 2525TIP3    H2 7533   4.359   2.964   6.756
 2526TIP3   OH2 7534   0.869   2.153   5.759
 2526TIP3    H1 7535   0.917   2.147   5.676
 2526TIP3    H2 7536   0.800   2.217   5.741
 2527TIP3   OH2 7537   4.826   2.037   0.198
 2527TIP3    H1 7538   4.847   2.008   0.287
 2527TIP3    H2 7539   4.733   2.062   0.202
 2528TIP3   OH2 7540   5.321   7.371   6.066
 2528TIP3    H1 7541   5.384   7.352   5.997
 2528TIP3    H2 7542   5.348   7.316   6.139
 2529TIP3   OH2 7543   6.058   0.621   4.226
 2529TIP3    H1 7544   6.091   0.651   4.141
 2529TIP3    H2 7545   6.048   0.526   4.215
 2530TIP3   OH2 7546   0.801   1.926   3.721
 2530TIP3    H1 7547   0.869   1.983   3.688
 2530TIP3    H2 7548   0.846   1.870   3.785
 2531TIP3   OH2 7549   7.894   2.465   3.631
 2531TIP3    H1 7550   7.952   2.442   3.558
 2531TIP3    H2 7551   7.832   2.393   3.635
 2532TIP3   OH2 7552   3.016   0.874   3.364
 2532TIP3    H1 7553   2.932   0.854   3.406
 2532TIP3    H2 7554   3.072   0.903   3.436
 2533TIP3   OH2 7555   1.267   2.990   4.307
 2533TIP3    H1 7556   1.256   3.084   4.316
 2533TIP3    H2 7557   1.347   2.970   4.355
 2534TIP3   OH2 7558   6.572   3.749   1.002
 2534TIP3    H1 7559   6.602   3.826   0.953
 2534TIP3    H2 7560   6.482   3.770   1.026
 2535TIP3   OH2 7561   7.498   7.100   2.382
 2535TIP3    H1 7562   7.504   7.007   2.407
 2535TIP3    H2 7563   7.407   7.111   2.355
 2536TIP3   OH2 7564   3.619   7.036   0.458
 2536TIP3    H1 7565   3.538   6.986   0.448
 2536TIP3    H2 7566   3.600   7.096   0.531
 2537TIP3   OH2 7567   6.074   0.341   4.186
 2537TIP3    H1 7568   6.017   0.364   4.113
 2537TIP3    H2 7569   6.016   0.297   4.249
 2538TIP3   OH2 7570   1.910   3.428   2.270
 2538TIP3    H1 7571   1.932   3.377   2.192
 2538TIP3    H2 7572   1.840   3.487   2.240
 2539TIP3   OH2 7573   2.225   2.827   6.243
 2539TIP3    H1 7574   2.220   2.864   6.155
 2539TIP3    H2 7575   2.314   2.792   6.249
 2540TIP3   OH2 7576   5.218   7.000   5.040
 2540TIP3    H1 7577   5.311   6.994   5.059
 2540TIP3    H2 7578   5.204   6.936   4.970
 2541TIP3   OH2 7579   7.947   0.230   5.201
 2541TIP3    H1 7580   8.020   0.277   5.242
 2541TIP3    H2 7581   7.877   0.234   5.267
 2542TIP3   OH2 7582   1.436   2.546   2.635
 2542TIP3    H1 7583   1.511   2.490   2.654
 2542TIP3    H2 7584   1.474   2.631   2.616
 2543TIP3   OH2 7585   3.096   4.025   5.231
 2543TIP3    H1 7586   3.070   3.999   5.143
 2543TIP3    H2 7587   3.050   4.107   5.247
 2544TIP3   OH2 7588   3.931   2.662   0.870
 2544TIP3    H1 7589   3.892   2.633   0.952
 2544TIP3    H2 7590   3.953   2.581   0.824
 2545TIP3   OH2 7591   0.110   1.724   0.774
 2545TIP3    H1 7592   0.065   1.748   0.693
 2545TIP3    H2 7593   0.109   1.628   0.774
 2546TIP3   OH2 7594   2.227   5.574   4.589
 2546TIP3    H1 7595   2.254   5.495   4.542
 2546TIP3    H2 7596   2.191   5.631   4.521
 2547TIP3   OH2 7597   5.930   4.997   2.491
 2547TIP3    H1 7598   6.004   5.046   2.456
 2547TIP3    H2 7599   5.853   5.047   2.464
 2548TIP3   OH2 7600   1.614   2.902   0.669
 2548TIP3    H1 7601   1.641   2.810   0.663
 2548TIP3    H2 7602   1.690   2.947   0.703
 2549TIP3   OH2 7603  -0.016   5.172   4.940
 2549TIP3    H1 7604  -0.046   5.105   5.001
 2549TIP3    H2 7605   0.080   5.172   4.950
 2550TIP3   OH2 7606   7.022   2.848   3.377
 2550TIP3    H1 7607   7.080   2.920   3.351
 2550TIP3    H2 7608   7.038   2.779   3.313
 2551TIP3   OH2 7609   0.067   0.027   0.562
 2551TIP3    H1 7610   0.155   0.029   0.523
 2551TIP3    H2 7611   0.078   0.071   0.647
 2552TIP3   OH2 7612   1.043   4.232   2.182
 2552TIP3    H1 7613   1.074   4.241   2.092
 2552TIP3    H2 7614   0.993   4.151   2.183
 2553TIP3   OH2 7615   6.366   2.440   0.662
 2553TIP3    H1 7616   6.304   2.379   0.623
 2553TIP3    H2 7617   6.365   2.419   0.755
 2554TIP3   OH2 7618   1.177   5.382   4.581
 2554TIP3    H1 7619   1.117   5.329   4.528
 2554TIP3    H2 7620   1.122   5.415   4.652
 2555TIP3   OH2 7621   7.650   1.858   2.807
 2555TIP3    H1 7622   7.570   1.907   2.790
 2555TIP3    H2 7623   7.676   1.824   2.722
 2556TIP3   OH2 7624   0.463   4.212   4.086
 2556TIP3    H1 7625   0.460   4.116   4.082
 2556TIP3    H2 7626   0.508   4.230   4.169
 2557TIP3   OH2 7627   6.421   5.492   3.957
 2557TIP3    H1 7628   6.335   5.459   3.985
 2557TIP3    H2 7629   6.482   5.459   4.022
 2558TIP3   OH2 7630   4.941   5.354   6.292
 2558TIP3    H1 7631   4.985   5.402   6.223
 2558TIP3    H2 7632   5.003   5.355   6.365
 2559TIP3   OH2 7633   1.532   2.969   4.181
 2559TIP3    H1 7634   1.554   3.062   4.178
 2559TIP3    H2 7635   1.599   2.931   4.239
 2560TIP3   OH2 7636   7.287   4.274   4.987
 2560TIP3    H1 7637   7.246   4.248   4.904
 2560TIP3    H2 7638   7.214   4.275   5.050
 2561TIP3   OH2 7639   6.864   4.740   5.827
 2561TIP3    H1 7640   6.810   4.700   5.759
 2561TIP3    H2 7641   6.804   4.750   5.902
 2562TIP3   OH2 7642   7.995   6.102   0.951
 2562TIP3    H1 7643   8.013   6.034   0.885
 2562TIP3    H2 7644   8.078   6.149   0.960
 2563TIP3   OH2 7645   4.439   6.691   6.539
 2563TIP3    H1 7646   4.436   6.726   6.450
 2563TIP3    H2 7647   4.505   6.622   6.536
 2564TIP3   OH2 7648   7.686   1.221   4.052
 2564TIP3    H1 7649   7.739   1.300   4.037
 2564TIP3    H2 7650   7.693   1.206   4.146
 2565TIP3   OH2 7651   5.344   4.489   4.830
 2565TIP3    H1 7652   5.348   4.424   4.759
 2565TIP3    H2 7653   5.278   4.552   4.801
 2566TIP3   OH2 7654   5.082   1.542   0.475
 2566TIP3    H1 7655   5.147   1.593   0.428
 2566TIP3    H2 7656   5.069   1.464   0.421
 2567TIP3   OH2 7657   2.454   0.073   6.490
 2567TIP3    H1 7658   2.426   0.105   6.404
 2567TIP3    H2 7659   2.450  -0.022   6.482
 2568TIP3   OH2 7660   6.644   4.004   3.814
 2568TIP3    H1 7661   6.560   3.958   3.815
 2568TIP3    H2 7662   6.621   4.096   3.825
 2569TIP3   OH2 7663   0.177   5.002   5.376
 2569TIP3    H1 7664   0.161   4.927   5.318
 2569TIP3    H2 7665   0.203   4.964   5.459
 2570TIP3   OH2 7666   7.824   3.740   1.593
 2570TIP3    H1 7667   7.847   3.751   1.501
 2570TIP3    H2 7668   7.734   3.770   1.600
 2571TIP3   OH2 7669   1.847   6.780   5.478
 2571TIP3    H1 7670   1.819   6.860   5.523
 2571TIP3    H2 7671   1.803   6.784   5.393
 2572TIP3   OH2 7672   8.028   2.437   2.059
 2572TIP3    H1 7673   8.052   2.470   1.972
 2572TIP3    H2 7674   8.031   2.514   2.116
 2573TIP3   OH2 7675   7.658   0.743   2.902
 2573TIP3    H1 7676   7.722   0.759   2.833
 2573TIP3    H2 7677   7.702   0.682   2.961
 2574TIP3   OH2 7678   1.502   3.069   1.538
 2574TIP3    H1 7679   1.413   3.056   1.571
 2574TIP3    H2 7680   1.554   3.003   1.583
 2575TIP3   OH2 7681   3.192   2.094   3.307
 2575TIP3    H1 7682   3.263   2.030   3.319
 2575TIP3    H2 7683   3.115   2.049   3.341
 2576TIP3   OH2 7684   2.189   5.945   0.875
 2576TIP3    H1 7685   2.103   5.903   0.883
 2576TIP3    H2 7686   2.169   6.036   0.855
 2577TIP3   OH2 7687   3.000   6.517   1.148
 2577TIP3    H1 7688   2.922   6.484   1.104
 2577TIP3    H2 7689   3.057   6.441   1.157
 2578TIP3   OH2 7690   1.632   0.144   0.222
 2578TIP3    H1 7691   1.617   0.233   0.189
 2578TIP3    H2 7692   1.624   0.152   0.317
 2579TIP3   OH2 7693   2.679   2.458   5.436
 2579TIP3    H1 7694   2.658   2.550   5.418
 2579TIP3    H2 7695   2.752   2.462   5.498
 2580TIP3   OH2 7696   7.338   4.275   4.018
 2580TIP3    H1 7697   7.400   4.240   3.954
 2580TIP3    H2 7698   7.332   4.369   3.997
 2581TIP3   OH2 7699   1.481   5.756   3.178
 2581TIP3    H1 7700   1.408   5.797   3.131
 2581TIP3    H2 7701   1.537   5.829   3.203
 2582TIP3   OH2 7702   7.236   6.442   5.109
 2582TIP3    H1 7703   7.161   6.495   5.082
 2582TIP3    H2 7704   7.212   6.352   5.085
 2583TIP3   OH2 7705   7.853   2.262   6.171
 2583TIP3    H1 7706   7.881   2.218   6.251
 2583TIP3    H2 7707   7.934   2.293   6.131
 2584TIP3   OH2 7708   1.227   7.573   0.345
 2584TIP3    H1 7709   1.167   7.504   0.317
 2584TIP3    H2 7710   1.216   7.577   0.440
 2585TIP3   OH2 7711   5.818   3.441   0.033
 2585TIP3    H1 7712   5.892   3.382   0.048
 2585TIP3    H2 7713   5.750   3.411   0.093
 2586TIP3   OH2 7714   3.763   0.037   0.108
 2586TIP3    H1 7715   3.687   0.037   0.050
 2586TIP3    H2 7716   3.823   0.100   0.069
 2587TIP3   OH2 7717   0.083   1.407   0.158
 2587TIP3    H1 7718   0.031   1.381   0.082
 2587TIP3    H2 7719   0.111   1.325   0.198
 2588TIP3   OH2 7720   1.815   7.223   6.077
 2588TIP3    H1 7721   1.906   7.253   6.078
 2588TIP3    H2 7722   1.813   7.151   6.139
 2589TIP3   OH2 7723   6.509   5.408   3.428
 2589TIP3    H1 7724   6.485   5.474   3.493
 2589TIP3    H2 7725   6.601   5.426   3.408
 2590TIP3   OH2 7726   5.233   2.908   4.051
 2590TIP3    H1 7727   5.279   2.983   4.089
 2590TIP3    H2 7728   5.271   2.832   4.093
 2591TIP3   OH2 7729   6.479   3.776   6.389
 2591TIP3    H1 7730   6.443   3.687   6.384
 2591TIP3    H2 7731   6.510   3.784   6.479
 2592TIP3   OH2 7732   1.740   6.964   6.535
 2592TIP3    H1 7733   1.671   6.903   6.507
 2592TIP3    H2 7734   1.783   6.919   6.609
 2593TIP3   OH2 7735   1.957   1.963   6.193
 2593TIP3    H1 7736   2.009   1.931   6.120
 2593TIP3    H2 7737   1.892   1.895   6.209
 2594TIP3   OH2 7738   7.363   0.972   4.585
 2594TIP3    H1 7739   7.280   0.926   4.599
 2594TIP3    H2 7740   7.382   1.013   4.669
 2595TIP3   OH2 7741   3.980   5.550   3.406
 2595TIP3    H1 7742   4.053   5.500   3.443
 2595TIP3    H2 7743   4.016   5.637   3.390
 2596TIP3   OH2 7744   7.089   6.738   4.624
 2596TIP3    H1 7745   7.136   6.723   4.706
 2596TIP3    H2 7746   7.024   6.668   4.620
 2597TIP3   OH2 7747   6.306   2.811   2.035
 2597TIP3    H1 7748   6.293   2.758   2.114
 2597TIP3    H2 7749   6.264   2.761   1.965
 2598TIP3   OH2 7750   3.005   1.715   3.966
 2598TIP3    H1 7751   3.049   1.775   4.027
 2598TIP3    H2 7752   2.920   1.697   4.008
 2599TIP3   OH2 7753   6.286   0.661   1.139
 2599TIP3    H1 7754   6.205   0.712   1.136
 2599TIP3    H2 7755   6.325   0.683   1.223
 2600TIP3   OH2 7756   8.348   2.255   0.652
 2600TIP3    H1 7757   8.277   2.311   0.682
 2600TIP3    H2 7758   8.343   2.178   0.709
 2601TIP3   OH2 7759   1.001   6.135   0.100
 2601TIP3    H1 7760   1.020   6.204   0.164
 2601TIP3    H2 7761   0.906   6.121   0.107
 2602TIP3   OH2 7762   5.077   5.567   4.567
 2602TIP3    H1 7763   5.013   5.561   4.496
 2602TIP3    H2 7764   5.025   5.585   4.645
 2603TIP3   OH2 7765   5.314   4.331   1.766
 2603TIP3    H1 7766   5.275   4.283   1.693
 2603TIP3    H2 7767   5.271   4.417   1.764
 2604TIP3   OH2 7768   7.637   2.799   0.244
 2604TIP3    H1 7769   7.722   2.758   0.234
 2604TIP3    H2 7770   7.651   2.892   0.223
 2605TIP3   OH2 7771   0.564   2.930   0.362
 2605TIP3    H1 7772   0.596   3.020   0.353
 2605TIP3    H2 7773   0.486   2.927   0.307
 2606TIP3   OH2 7774   5.281   1.732   2.804
 2606TIP3    H1 7775   5.267   1.639   2.785
 2606TIP3    H2 7776   5.287   1.773   2.717
 2607TIP3   OH2 7777   3.712   4.321   1.613
 2607TIP3    H1 7778   3.733   4.389   1.678
 2607TIP3    H2 7779   3.721   4.365   1.529
 2608TIP3   OH2 7780   1.885   2.980   5.172
 2608TIP3    H1 7781   1.854   3.050   5.230
 2608TIP3    H2 7782   1.898   3.023   5.088
 2609TIP3   OH2 7783   7.051   2.657   4.046
 2609TIP3    H1 7784   7.009   2.615   3.970
 2609TIP3    H2 7785   7.141   2.626   4.043
 2610TIP3   OH2 7786   4.869   4.411   5.634
 2610TIP3    H1 7787   4.894   4.334   5.685
 2610TIP3    H2 7788   4.789   4.443   5.676
 2611TIP3   OH2 7789   2.918   4.107   2.302
 2611TIP3    H1 7790   2.826   4.134   2.313
 2611TIP3    H2 7791   2.958   4.125   2.386
 2612TIP3   OH2 7792   5.681   1.278   6.788
 2612TIP3    H1 7793   5.636   1.229   6.719
 2612TIP3    H2 7794   5.756   1.223   6.810
 2613TIP3   OH2 7795   6.771   2.782   1.129
 2613TIP3    H1 7796   6.823   2.704   1.150
 2613TIP3    H2 7797   6.804   2.810   1.043
 2614TIP3   OH2 7798   0.861   3.368   2.114
 2614TIP3    H1 7799   0.842   3.435   2.180
 2614TIP3    H2 7800   0.934   3.318   2.150
 2615TIP3   OH2 7801   5.461   3.257   6.483
 2615TIP3    H1 7802   5.469   3.347   6.514
 2615TIP3    H2 7803   5.372   3.232   6.507
 2616TIP3   OH2 7804   1.733   3.505   2.770
 2616TIP3    H1 7805   1.715   3.413   2.750
 2616TIP3    H2 7806   1.757   3.506   2.862
 2617TIP3   OH2 7807   4.689   1.007   3.178
 2617TIP3    H1 7808   4.613   1.064   3.178
 2617TIP3    H2 7809   4.763   1.066   3.193
 2618TIP3   OH2 7810   0.348   3.733   1.576
 2618TIP3    H1 7811   0.343   3.722   1.481
 2618TIP3    H2 7812   0.360   3.644   1.610
 2619TIP3   OH2 7813   4.516   2.744   3.110
 2619TIP3    H1 7814   4.460   2.757   3.033
 2619TIP3    H2 7815   4.469   2.787   3.181
 2620TIP3   OH2 7816   6.646   0.954   1.125
 2620TIP3    H1 7817   6.736   0.937   1.099
 2620TIP3    H2 7818   6.593   0.921   1.052
 2621TIP3   OH2 7819   3.973   0.249   5.662
 2621TIP3    H1 7820   4.052   0.212   5.701
 2621TIP3    H2 7821   3.910   0.251   5.735
 2622TIP3   OH2 7822   0.478   0.403   4.206
 2622TIP3    H1 7823   0.389   0.377   4.179
 2622TIP3    H2 7824   0.507   0.334   4.265
 2623TIP3   OH2 7825   7.142   2.707   0.160
 2623TIP3    H1 7826   7.201   2.632   0.148
 2623TIP3    H2 7827   7.132   2.715   0.255
 2624TIP3   OH2 7828   1.619   1.129   5.341
 2624TIP3    H1 7829   1.582   1.070   5.275
 2624TIP3    H2 7830   1.626   1.213   5.296
 2625TIP3   OH2 7831   5.934   2.475   4.636
 2625TIP3    H1 7832   5.998   2.546   4.634
 2625TIP3    H2 7833   5.975   2.404   4.586
 2626TIP3   OH2 7834   1.716   0.337   3.912
 2626TIP3    H1 7835   1.721   0.408   3.977
 2626TIP3    H2 7836   1.695   0.259   3.963
 2627TIP3   OH2 7837   5.474   6.780   6.397
 2627TIP3    H1 7838   5.484   6.873   6.420
 2627TIP3    H2 7839   5.418   6.781   6.319
 2628TIP3   OH2 7840   1.405   5.214   4.317
 2628TIP3    H1 7841   1.420   5.135   4.369
 2628TIP3    H2 7842   1.340   5.264   4.366
 2629TIP3   OH2 7843   7.553   4.169   3.501
 2629TIP3    H1 7844   7.606   4.090   3.503
 2629TIP3    H2 7845   7.608   4.234   3.458
 2630TIP3   OH2 7846   0.285   0.299   6.167
 2630TIP3    H1 7847   0.195   0.296   6.135
 2630TIP3    H2 7848   0.309   0.207   6.180
 2631TIP3   OH2 7849   4.527   2.484   3.369
 2631TIP3    H1 7850   4.509   2.484   3.275
 2631TIP3    H2 7851   4.535   2.576   3.392
 2632TIP3   OH2 7852   0.645   5.849   5.233
 2632TIP3    H1 7853   0.640   5.864   5.138
 2632TIP3    H2 7854   0.730   5.885   5.258
 2633TIP3   OH2 7855   2.069   1.863   3.489
 2633TIP3    H1 7856   1.974   1.861   3.489
 2633TIP3    H2 7857   2.092   1.954   3.505
 2634TIP3   OH2 7858   0.743   5.424   5.915
 2634TIP3    H1 7859   0.785   5.497   5.870
 2634TIP3    H2 7860   0.726   5.457   6.003
 2635TIP3   OH2 7861   2.042   4.358   2.021
 2635TIP3    H1 7862   2.136   4.364   2.006
 2635TIP3    H2 7863   2.011   4.448   2.015
 2636TIP3   OH2 7864   6.558   0.138   5.278
 2636TIP3    H1 7865   6.482   0.183   5.240
 2636TIP3    H2 7866   6.560   0.053   5.234
 2637TIP3   OH2 7867   3.984   0.266   3.746
 2637TIP3    H1 7868   4.001   0.231   3.833
 2637TIP3    H2 7869   4.070   0.271   3.704
 2638TIP3   OH2 7870   0.045   4.992   2.150
 2638TIP3    H1 7871   0.133   4.966   2.177
 2638TIP3    H2 7872  -0.013   4.934   2.198
 2639TIP3   OH2 7873   8.095   4.424   3.317
 2639TIP3    H1 7874   8.148   4.345   3.306
 2639TIP3    H2 7875   8.103   4.445   3.410
 2640TIP3   OH2 7876   0.594   2.297   6.378
 2640TIP3    H1 7877   0.631   2.315   6.464
 2640TIP3    H2 7878   0.501   2.283   6.395
 2641TIP3   OH2 7879   4.475   0.209   4.539
 2641TIP3    H1 7880   4.551   0.251   4.498
 2641TIP3    H2 7881   4.448   0.271   4.608
 2642TIP3   OH2 7882   3.798   6.247   0.272
 2642TIP3    H1 7883   3.720   6.297   0.295
 2642TIP3    H2 7884   3.844   6.234   0.355
 2643TIP3   OH2 7885   6.894   1.078   4.812
 2643TIP3    H1 7886   6.977   1.044   4.843
 2643TIP3    H2 7887   6.914   1.165   4.776
 2644TIP3   OH2 7888   0.531   3.345   6.574
 2644TIP3    H1 7889   0.493   3.424   6.536
 2644TIP3    H2 7890   0.620   3.370   6.599
 2645TIP3   OH2 7891   7.337   6.013   4.740
 2645TIP3    H1 7892   7.317   5.932   4.788
 2645TIP3    H2 7893   7.422   5.997   4.699
 2646TIP3   OH2 7894   3.283   4.155   1.727
 2646TIP3    H1 7895   3.361   4.129   1.678
 2646TIP3    H2 7896   3.215   4.165   1.661
 2647TIP3   OH2 7897   1.853   0.095   5.018
 2647TIP3    H1 7898   1.898   0.039   4.955
 2647TIP3    H2 7899   1.882   0.062   5.104
 2648TIP3   OH2 7900   1.501   5.176   6.191
 2648TIP3    H1 7901   1.494   5.097   6.137
 2648TIP3    H2 7902   1.557   5.149   6.264
 2649TIP3   OH2 7903   3.425   6.342   6.745
 2649TIP3    H1 7904   3.452   6.431   6.768
 2649TIP3    H2 7905   3.490   6.286   6.787
 2650TIP3   OH2 7906   3.976   0.501   6.033
 2650TIP3    H1 7907   3.956   0.517   6.125
 2650TIP3    H2 7908   3.920   0.428   6.008
 2651TIP3   OH2 7909   0.715   6.955   0.080
 2651TIP3    H1 7910   0.712   6.880   0.139
 2651TIP3    H2 7911   0.628   6.959   0.041
 2652TIP3   OH2 7912   2.451   6.817   3.176
 2652TIP3    H1 7913   2.472   6.871   3.253
 2652TIP3    H2 7914   2.411   6.738   3.212
 2653TIP3   OH2 7915   4.033   3.340   0.669
 2653TIP3    H1 7916   3.943   3.310   0.683
 2653TIP3    H2 7917   4.081   3.311   0.747
 2654TIP3   OH2 7918   4.183   4.111   2.786
 2654TIP3    H1 7919   4.090   4.107   2.810
 2654TIP3    H2 7920   4.186   4.077   2.697
 2655TIP3   OH2 7921   7.995   6.663   0.275
 2655TIP3    H1 7922   7.975   6.666   0.369
 2655TIP3    H2 7923   8.063   6.595   0.268
 2656TIP3   OH2 7924   7.330   2.171   4.541
 2656TIP3    H1 7925   7.284   2.110   4.599
 2656TIP3    H2 7926   7.395   2.116   4.497
 2657TIP3   OH2 7927   2.095   7.255   5.046
 2657TIP3    H1 7928   2.150   7.332   5.029
 2657TIP3    H2 7929   2.061   7.231   4.960
 2658TIP3   OH2 7930   5.601   6.086   4.028
 2658TIP3    H1 7931   5.602   6.008   4.083
 2658TIP3    H2 7932   5.511   6.119   4.036
 2659TIP3   OH2 7933   2.575   7.195   4.550
 2659TIP3    H1 7934   2.487   7.185   4.513
 2659TIP3    H2 7935   2.563   7.252   4.626
 2660TIP3   OH2 7936   3.150   4.906   5.219
 2660TIP3    H1 7937   3.237   4.868   5.228
 2660TIP3    H2 7938   3.119   4.917   5.309
 2661TIP3   OH2 7939   0.198   3.681   4.003
 2661TIP3    H1 7940   0.121   3.673   4.059
 2661TIP3    H2 7941   0.163   3.687   3.914
 2662TIP3   OH2 7942   7.722   5.788   1.760
 2662TIP3    H1 7943   7.740   5.830   1.676
 2662TIP3    H2 7944   7.632   5.812   1.780
 2663TIP3   OH2 7945   0.366   3.591   5.616
 2663TIP3    H1 7946   0.295   3.653   5.598
 2663TIP3    H2 7947   0.382   3.547   5.533
 2664TIP3   OH2 7948   7.143   0.127   2.317
 2664TIP3    H1 7949   7.205   0.055   2.329
 2664TIP3    H2 7950   7.182   0.181   2.248
 2665TIP3   OH2 7951   6.432   5.162   4.676
 2665TIP3    H1 7952   6.444   5.226   4.606
 2665TIP3    H2 7953   6.356   5.110   4.648
 2666TIP3   OH2 7954   1.407   4.445   1.556
 2666TIP3    H1 7955   1.333   4.506   1.561
 2666TIP3    H2 7956   1.412   4.421   1.464
 2667TIP3   OH2 7957   7.370   7.366   4.319
 2667TIP3    H1 7958   7.411   7.374   4.405
 2667TIP3    H2 7959   7.421   7.425   4.263
 2668TIP3   OH2 7960   1.911   3.157   6.438
 2668TIP3    H1 7961   1.891   3.249   6.454
 2668TIP3    H2 7962   2.007   3.154   6.433
 2669TIP3   OH2 7963   1.393   7.043   3.708
 2669TIP3    H1 7964   1.414   7.136   3.717
 2669TIP3    H2 7965   1.308   7.043   3.662
 2670TIP3   OH2 7966   0.923   6.408   4.635
 2670TIP3    H1 7967   0.994   6.413   4.699
 2670TIP3    H2 7968   0.882   6.495   4.637
 2671TIP3   OH2 7969   1.128   4.371   1.322
 2671TIP3    H1 7970   1.104   4.455   1.282
 2671TIP3    H2 7971   1.223   4.367   1.315
 2672TIP3   OH2 7972   1.823   4.175   3.660
 2672TIP3    H1 7973   1.889   4.130   3.712
 2672TIP3    H2 7974   1.740   4.154   3.703
 2673TIP3   OH2 7975   3.399   5.531   0.584
 2673TIP3    H1 7976   3.325   5.491   0.539
 2673TIP3    H2 7977   3.472   5.519   0.523
 2674TIP3   OH2 7978   3.108   4.610   3.695
 2674TIP3    H1 7979   3.143   4.688   3.738
 2674TIP3    H2 7980   3.082   4.640   3.608
 2675TIP3   OH2 7981   6.327   3.460   6.147
 2675TIP3    H1 7982   6.422   3.469   6.142
 2675TIP3    H2 7983   6.296   3.493   6.062
 2676TIP3   OH2 7984   3.900   3.788   4.583
 2676TIP3    H1 7985   3.960   3.771   4.511
 2676TIP3    H2 7986   3.878   3.701   4.618
 2677TIP3   OH2 7987   7.023   0.144   4.684
 2677TIP3    H1 7988   7.059   0.068   4.729
 2677TIP3    H2 7989   7.092   0.170   4.623
 2678TIP3   OH2 7990   7.820   1.722   0.413
 2678TIP3    H1 7991   7.816   1.638   0.459
 2678TIP3    H2 7992   7.822   1.788   0.482
 2679TIP3   OH2 7993   5.616   5.815   2.256
 2679TIP3    H1 7994   5.636   5.909   2.247
 2679TIP3    H2 7995   5.594   5.787   2.167
 2680TIP3   OH2 7996   8.221   4.633   0.917
 2680TIP3    H1 7997   8.298   4.686   0.936
 2680TIP3    H2 7998   8.165   4.642   0.994
 2681TIP3   OH2 7999   3.013   5.607   2.334
 2681TIP3    H1 8000   3.079   5.602   2.265
 2681TIP3    H2 8001   3.019   5.697   2.367
 2682TIP3   OH2 8002   2.444   7.452   3.918
 2682TIP3    H1 8003   2.363   7.412   3.888
 2682TIP3    H2 8004   2.417   7.534   3.958
 2683TIP3   OH2 8005   4.157   6.839   3.628
 2683TIP3    H1 8006   4.155   6.916   3.684
 2683TIP3    H2 8007   4.096   6.859   3.557
 2684TIP3   OH2 8008   6.766   0.277   6.746
 2684TIP3    H1 8009   6.770   0.227   6.827
 2684TIP3    H2 8010   6.808   0.360   6.768
 2685TIP3   OH2 8011   2.565   2.257   2.903
 2685TIP3    H1 8012   2.630   2.328   2.902
 2685TIP3    H2 8013   2.605   2.188   2.851
 2686TIP3   OH2 8014   3.798   6.113   4.175
 2686TIP3    H1 8015   3.800   6.193   4.124
 2686TIP3    H2 8016   3.865   6.125   4.243
 2687TIP3   OH2 8017   3.405   5.295   2.615
 2687TIP3    H1 8018   3.362   5.373   2.583
 2687TIP3    H2 8019   3.499   5.314   2.606
 2688TIP3   OH2 8020   7.747   3.257   3.155
 2688TIP3    H1 8021   7.717   3.219   3.237
 2688TIP3    H2 8022   7.796   3.335   3.181
 2689TIP3   OH2 8023   2.287   2.638   5.546
 2689TIP3    H1 8024   2.352   2.636   5.477
 2689TIP3    H2 8025   2.263   2.730   5.555
 2690TIP3   OH2 8026   5.175   4.348   0.990
 2690TIP3    H1 8027   5.203   4.413   0.925
 2690TIP3    H2 8028   5.187   4.264   0.946
 2691TIP3   OH2 8029   0.763   5.517   3.465
 2691TIP3    H1 8030   0.753   5.423   3.478
 2691TIP3    H2 8031   0.714   5.557   3.536
 2692TIP3   OH2 8032   5.313   6.032   3.087
 2692TIP3    H1 8033   5.293   6.017   3.180
 2692TIP3    H2 8034   5.229   6.059   3.049
 2693TIP3   OH2 8035   6.526   4.208   4.975
 2693TIP3    H1 8036   6.527   4.113   4.963
 2693TIP3    H2 8037   6.441   4.226   5.015
 2694TIP3   OH2 8038   5.962   0.313   5.341
 2694TIP3    H1 8039   6.053   0.323   5.371
 2694TIP3    H2 8040   5.924   0.400   5.351
 2695TIP3   OH2 8041   3.121   7.441   4.887
 2695TIP3    H1 8042   3.204   7.488   4.882
 2695TIP3    H2 8043   3.062   7.502   4.932
 2696TIP3   OH2 8044   4.543   7.776   2.659
 2696TIP3    H1 8045   4.542   7.867   2.630
 2696TIP3    H2 8046   4.591   7.777   2.741
 2697TIP3   OH2 8047   6.498   4.224   6.777
 2697TIP3    H1 8048   6.481   4.244   6.869
 2697TIP3    H2 8049   6.423   4.259   6.730
 2698TIP3   OH2 8050   4.360   3.198   0.762
 2698TIP3    H1 8051   4.308   3.258   0.815
 2698TIP3    H2 8052   4.296   3.134   0.730
 2699TIP3   OH2 8053   2.936   0.444   4.292
 2699TIP3    H1 8054   2.908   0.404   4.210
 2699TIP3    H2 8055   3.011   0.499   4.268
 2700TIP3   OH2 8056   6.679   5.679   5.007
 2700TIP3    H1 8057   6.755   5.707   5.058
 2700TIP3    H2 8058   6.655   5.594   5.044
 2701TIP3   OH2 8059   4.447   4.863   0.049
 2701TIP3    H1 8060   4.482   4.855  -0.040
 2701TIP3    H2 8061   4.402   4.947   0.049
 2702TIP3   OH2 8062   7.601   7.126   3.439
 2702TIP3    H1 8063   7.612   7.031   3.441
 2702TIP3    H2 8064   7.572   7.145   3.350
 2703TIP3   OH2 8065   4.180   1.156   2.280
 2703TIP3    H1 8066   4.135   1.218   2.222
 2703TIP3    H2 8067   4.236   1.212   2.335
 2704TIP3   OH2 8068   5.951   0.707   1.617
 2704TIP3    H1 8069   5.869   0.665   1.592
 2704TIP3    H2 8070   5.927   0.798   1.634
 2705TIP3   OH2 8071   6.697   2.682   3.612
 2705TIP3    H1 8072   6.792   2.694   3.616
 2705TIP3    H2 8073   6.661   2.765   3.644
 2706TIP3   OH2 8074   1.319   2.066   0.734
 2706TIP3    H1 8075   1.248   2.071   0.670
 2706TIP3    H2 8076   1.286   2.116   0.809
 2707TIP3   OH2 8077   3.144   6.771   6.598
 2707TIP3    H1 8078   3.178   6.852   6.561
 2707TIP3    H2 8079   3.150   6.708   6.526
 2708TIP3   OH2 8080   0.196   7.724   6.426
 2708TIP3    H1 8081   0.223   7.814   6.444
 2708TIP3    H2 8082   0.278   7.679   6.404
 2709TIP3   OH2 8083   5.094   3.941   3.287
 2709TIP3    H1 8084   5.008   3.930   3.246
 2709TIP3    H2 8085   5.074   3.971   3.376
 2710TIP3   OH2 8086   0.107   7.552   0.434
 2710TIP3    H1 8087   0.065   7.514   0.511
 2710TIP3    H2 8088   0.145   7.478   0.387
 2711TIP3   OH2 8089   1.492   5.572   3.423
 2711TIP3    H1 8090   1.498   5.624   3.342
 2711TIP3    H2 8091   1.537   5.624   3.489
 2712TIP3   OH2 8092   8.120   1.326   5.476
 2712TIP3    H1 8093   8.101   1.239   5.511
 2712TIP3    H2 8094   8.211   1.321   5.448
 2713TIP3   OH2 8095   1.613   2.843   6.523
 2713TIP3    H1 8096   1.667   2.853   6.601
 2713TIP3    H2 8097   1.555   2.770   6.542
 2714TIP3   OH2 8098   5.010   0.667   1.391
 2714TIP3    H1 8099   4.992   0.620   1.309
 2714TIP3    H2 8100   4.990   0.759   1.371
 2715TIP3   OH2 8101   5.532   5.508   3.679
 2715TIP3    H1 8102   5.437   5.509   3.690
 2715TIP3    H2 8103   5.559   5.420   3.703
 2716TIP3   OH2 8104   8.005   0.591   6.583
 2716TIP3    H1 8105   8.098   0.579   6.605
 2716TIP3    H2 8106   7.958   0.553   6.657
 2717TIP3   OH2 8107   2.030   4.434   6.433
 2717TIP3    H1 8108   2.036   4.524   6.464
 2717TIP3    H2 8109   2.055   4.381   6.509
 2718TIP3   OH2 8110   5.999   4.608   0.326
 2718TIP3    H1 8111   5.968   4.621   0.237
 2718TIP3    H2 8112   5.954   4.530   0.357
 2719TIP3   OH2 8113   0.027   1.632   2.149
 2719TIP3    H1 8114   0.121   1.615   2.153
 2719TIP3    H2 8115  -0.009   1.584   2.224
 2720TIP3   OH2 8116   2.594   2.720   5.161
 2720TIP3    H1 8117   2.682   2.742   5.130
 2720TIP3    H2 8118   2.537   2.738   5.086
 2721TIP3   OH2 8119   6.687   1.731   1.287
 2721TIP3    H1 8120   6.701   1.672   1.213
 2721TIP3    H2 8121   6.715   1.816   1.256
 2722TIP3   OH2 8122   5.853   3.218   2.932
 2722TIP3    H1 8123   5.779   3.234   2.990
 2722TIP3    H2 8124   5.822   3.244   2.845
 2723TIP3   OH2 8125   2.032   0.602   1.066
 2723TIP3    H1 8126   2.110   0.580   1.118
 2723TIP3    H2 8127   1.958   0.578   1.122
 2724TIP3   OH2 8128   0.703   5.931   6.020
 2724TIP3    H1 8129   0.671   5.977   6.097
 2724TIP3    H2 8130   0.788   5.896   6.047
 2725TIP3   OH2 8131   2.811   6.846   6.339
 2725TIP3    H1 8132   2.889   6.893   6.309
 2725TIP3    H2 8133   2.794   6.881   6.426
 2726TIP3   OH2 8134   3.657   4.572   3.898
 2726TIP3    H1 8135   3.678   4.530   3.814
 2726TIP3    H2 8136   3.564   4.553   3.911
 2727TIP3   OH2 8137   6.351   5.929   4.901
 2727TIP3    H1 8138   6.434   5.937   4.947
 2727TIP3    H2 8139   6.295   5.878   4.960
 2728TIP3   OH2 8140   5.528   6.676   1.359
 2728TIP3    H1 8141   5.549   6.751   1.305
 2728TIP3    H2 8142   5.450   6.638   1.319
 2729TIP3   OH2 8143   7.919   4.300   1.869
 2729TIP3    H1 8144   7.847   4.305   1.932
 2729TIP3    H2 8145   7.914   4.382   1.820
 2730TIP3   OH2 8146   4.150   1.520   6.173
 2730TIP3    H1 8147   4.117   1.561   6.253
 2730TIP3    H2 8148   4.147   1.426   6.192
 2731TIP3   OH2 8149   4.432   0.125   4.115
 2731TIP3    H1 8150   4.413   0.123   4.021
 2731TIP3    H2 8151   4.508   0.183   4.123
 2732TIP3   OH2 8152   0.099   3.226   5.592
 2732TIP3    H1 8153   0.015   3.187   5.567
 2732TIP3    H2 8154   0.092   3.318   5.568
 2733TIP3   OH2 8155   0.224   0.795   4.539
 2733TIP3    H1 8156   0.165   0.840   4.479
 2733TIP3    H2 8157   0.260   0.723   4.487
 2734TIP3   OH2 8158   0.975   5.996   5.670
 2734TIP3    H1 8159   1.023   5.938   5.611
 2734TIP3    H2 8160   0.888   6.002   5.633
 2735TIP3   OH2 8161   7.024   7.758   5.892
 2735TIP3    H1 8162   7.088   7.694   5.861
 2735TIP3    H2 8163   7.008   7.813   5.816
 2736TIP3   OH2 8164   2.227   3.159   2.918
 2736TIP3    H1 8165   2.240   3.236   2.862
 2736TIP3    H2 8166   2.236   3.084   2.859
 2737TIP3   OH2 8167   1.568   0.556   1.082
 2737TIP3    H1 8168   1.585   0.586   0.993
 2737TIP3    H2 8169   1.560   0.637   1.134
 2738TIP3   OH2 8170   0.250   7.645   1.912
 2738TIP3    H1 8171   0.215   7.708   1.848
 2738TIP3    H2 8172   0.172   7.601   1.947
 2739TIP3   OH2 8173   7.890   6.821   2.575
 2739TIP3    H1 8174   7.952   6.895   2.571
 2739TIP3    H2 8175   7.914   6.766   2.501
 2740TIP3   OH2 8176   6.214   1.978   0.208
 2740TIP3    H1 8177   6.308   1.986   0.223
 2740TIP3    H2 8178   6.195   1.886   0.224
 2741TIP3   OH2 8179   7.977   7.792   4.300
 2741TIP3    H1 8180   8.056   7.751   4.336
 2741TIP3    H2 8181   7.947   7.851   4.369
 2742TIP3   OH2 8182   3.624   5.815   4.018
 2742TIP3    H1 8183   3.651   5.771   3.938
 2742TIP3    H2 8184   3.609   5.906   3.992
 2743TIP3   OH2 8185   1.340   0.553   4.257
 2743TIP3    H1 8186   1.268   0.490   4.249
 2743TIP3    H2 8187   1.415   0.499   4.282
 2744TIP3   OH2 8188   4.779   2.482   5.192
 2744TIP3    H1 8189   4.723   2.555   5.219
 2744TIP3    H2 8190   4.743   2.454   5.108
 2745TIP3   OH2 8191   6.483   3.140   3.299
 2745TIP3    H1 8192   6.429   3.183   3.233
 2745TIP3    H2 8193   6.562   3.114   3.252
 2746TIP3   OH2 8194   2.263   1.771   0.623
 2746TIP3    H1 8195   2.353   1.741   0.615
 2746TIP3    H2 8196   2.260   1.854   0.575
 2747TIP3   OH2 8197   0.406   6.749   1.210
 2747TIP3    H1 8198   0.351   6.776   1.284
 2747TIP3    H2 8199   0.490   6.725   1.251
 2748TIP3   OH2 8200   0.363   1.553   5.825
 2748TIP3    H1 8201   0.376   1.647   5.842
 2748TIP3    H2 8202   0.269   1.544   5.809
 2749TIP3   OH2 8203   7.689   7.748   4.421
 2749TIP3    H1 8204   7.755   7.796   4.470
 2749TIP3    H2 8205   7.631   7.815   4.385
 2750TIP3   OH2 8206   7.788   0.200   3.883
 2750TIP3    H1 8207   7.731   0.276   3.891
 2750TIP3    H2 8208   7.854   0.213   3.951
 2751TIP3   OH2 8209   2.175   5.008   1.651
 2751TIP3    H1 8210   2.219   5.005   1.735
 2751TIP3    H2 8211   2.227   4.951   1.594
 2752TIP3   OH2 8212   0.818   7.236   1.844
 2752TIP3    H1 8213   0.856   7.309   1.797
 2752TIP3    H2 8214   0.724   7.242   1.826
 2753TIP3   OH2 8215   0.766   5.995   4.955
 2753TIP3    H1 8216   0.718   5.986   4.873
 2753TIP3    H2 8217   0.760   6.088   4.977
 2754TIP3   OH2 8218   0.639   4.869   0.478
 2754TIP3    H1 8219   0.600   4.839   0.395
 2754TIP3    H2 8220   0.585   4.828   0.546
 2755TIP3   OH2 8221   4.933   5.256   3.400
 2755TIP3    H1 8222   4.931   5.282   3.308
 2755TIP3    H2 8223   4.980   5.327   3.445
 2756TIP3   OH2 8224   6.535   4.122   3.032
 2756TIP3    H1 8225   6.620   4.119   2.988
 2756TIP3    H2 8226   6.474   4.149   2.963
 2757TIP3   OH2 8227   3.510   3.537   2.633
 2757TIP3    H1 8228   3.504   3.566   2.542
 2757TIP3    H2 8229   3.588   3.580   2.667
 2758TIP3   OH2 8230   6.973   5.989   1.552
 2758TIP3    H1 8231   6.975   6.077   1.514
 2758TIP3    H2 8232   7.044   5.942   1.507
 2759TIP3   OH2 8233   1.487   1.064   0.904
 2759TIP3    H1 8234   1.567   1.082   0.854
 2759TIP3    H2 8235   1.519   1.027   0.987
 2760TIP3   OH2 8236   1.791   0.919   6.266
 2760TIP3    H1 8237   1.733   0.948   6.195
 2760TIP3    H2 8238   1.799   0.825   6.253
 2761TIP3   OH2 8239   4.541   0.292   5.114
 2761TIP3    H1 8240   4.461   0.243   5.132
 2761TIP3    H2 8241   4.544   0.298   5.018
 2762TIP3   OH2 8242   7.302   3.942   1.308
 2762TIP3    H1 8243   7.282   3.949   1.401
 2762TIP3    H2 8244   7.246   3.871   1.277
 2763TIP3   OH2 8245   2.475   4.709   0.056
 2763TIP3    H1 8246   2.532   4.755  -0.005
 2763TIP3    H2 8247   2.530   4.639   0.092
 2764TIP3   OH2 8248   5.830   1.826   0.171
 2764TIP3    H1 8249   5.800   1.885   0.240
 2764TIP3    H2 8250   5.775   1.748   0.181
 2765TIP3   OH2 8251   6.925   1.911   0.526
 2765TIP3    H1 8252   6.988   1.841   0.542
 2765TIP3    H2 8253   6.975   1.992   0.538
 2766TIP3   OH2 8254   0.760   1.362   2.330
 2766TIP3    H1 8255   0.834   1.421   2.343
 2766TIP3    H2 8256   0.800   1.276   2.316
 2767TIP3   OH2 8257   4.309   0.254   0.373
 2767TIP3    H1 8258   4.380   0.318   0.360
 2767TIP3    H2 8259   4.321   0.223   0.463
 2768TIP3   OH2 8260   4.260   5.728   1.995
 2768TIP3    H1 8261   4.275   5.700   1.905
 2768TIP3    H2 8262   4.191   5.794   1.989
 2769TIP3   OH2 8263   4.603   6.892   5.440
 2769TIP3    H1 8264   4.607   6.945   5.360
 2769TIP3    H2 8265   4.584   6.956   5.509
 2770TIP3   OH2 8266   6.445   6.093   4.211
 2770TIP3    H1 8267   6.381   6.051   4.268
 2770TIP3    H2 8268   6.396   6.161   4.166
 2771TIP3   OH2 8269   2.780   4.786   1.928
 2771TIP3    H1 8270   2.823   4.735   1.996
 2771TIP3    H2 8271   2.850   4.814   1.870
 2772TIP3   OH2 8272   2.594   6.520   0.893
 2772TIP3    H1 8273   2.562   6.609   0.912
 2772TIP3    H2 8274   2.608   6.520   0.798
 2773TIP3   OH2 8275   6.002   1.774   4.345
 2773TIP3    H1 8276   5.950   1.796   4.423
 2773TIP3    H2 8277   6.017   1.680   4.353
 2774TIP3   OH2 8278   6.815   6.821   1.272
 2774TIP3    H1 8279   6.867   6.752   1.231
 2774TIP3    H2 8280   6.731   6.820   1.226
 2775TIP3   OH2 8281   5.382   2.844   5.710
 2775TIP3    H1 8282   5.409   2.849   5.619
 2775TIP3    H2 8283   5.416   2.759   5.741
 2776TIP3   OH2 8284   2.262   1.706   2.040
 2776TIP3    H1 8285   2.217   1.633   2.082
 2776TIP3    H2 8286   2.340   1.667   2.001
 2777TIP3   OH2 8287   0.167   0.148   2.343
 2777TIP3    H1 8288   0.207   0.210   2.403
 2777TIP3    H2 8289   0.168   0.064   2.390
 2778TIP3   OH2 8290   3.054   0.152   6.548
 2778TIP3    H1 8291   3.109   0.103   6.609
 2778TIP3    H2 8292   3.029   0.231   6.596
 2779TIP3   OH2 8293   2.122   4.897   5.416
 2779TIP3    H1 8294   2.083   4.876   5.501
 2779TIP3    H2 8295   2.177   4.974   5.435
 2780TIP3   OH2 8296   4.060   5.536   4.370
 2780TIP3    H1 8297   4.141   5.585   4.359
 2780TIP3    H2 8298   4.049   5.488   4.288
 2781TIP3   OH2 8299   7.862   6.526   4.753
 2781TIP3    H1 8300   7.893   6.435   4.759
 2781TIP3    H2 8301   7.844   6.538   4.660
 2782TIP3   OH2 8302   6.346   2.160   3.873
 2782TIP3    H1 8303   6.307   2.075   3.857
 2782TIP3    H2 8304   6.293   2.221   3.822
 2783TIP3   OH2 8305   6.010   6.155   4.681
 2783TIP3    H1 8306   6.027   6.237   4.636
 2783TIP3    H2 8307   5.919   6.162   4.711
 2784TIP3   OH2 8308   0.925   0.468   3.949
 2784TIP3    H1 8309   0.883   0.382   3.959
 2784TIP3    H2 8310   0.853   0.530   3.950
 2785TIP3   OH2 8311   0.420   0.716   0.940
 2785TIP3    H1 8312   0.390   0.632   0.974
 2785TIP3    H2 8313   0.360   0.781   0.977
 2786TIP3   OH2 8314   5.306   0.765   4.431
 2786TIP3    H1 8315   5.274   0.694   4.375
 2786TIP3    H2 8316   5.310   0.841   4.374
 2787TIP3   OH2 8317   2.262   1.291   2.913
 2787TIP3    H1 8318   2.249   1.227   2.843
 2787TIP3    H2 8319   2.327   1.250   2.971
 2788TIP3   OH2 8320   3.425   3.754   0.127
 2788TIP3    H1 8321   3.448   3.662   0.142
 2788TIP3    H2 8322   3.401   3.757   0.035
 2789TIP3   OH2 8323   0.179   0.512   6.316
 2789TIP3    H1 8324   0.207   0.431   6.273
 2789TIP3    H2 8325   0.260   0.562   6.328
 2790TIP3   OH2 8326   5.570   5.991   3.151
 2790TIP3    H1 8327   5.643   5.995   3.089
 2790TIP3    H2 8328   5.492   5.993   3.095
 2791TIP3   OH2 8329   1.617   6.465   2.260
 2791TIP3    H1 8330   1.543   6.517   2.227
 2791TIP3    H2 8331   1.693   6.521   2.247
 2792TIP3   OH2 8332   2.705   0.728   1.281
 2792TIP3    H1 8333   2.792   0.701   1.312
 2792TIP3    H2 8334   2.712   0.724   1.186
 2793TIP3   OH2 8335   5.000   4.299   2.857
 2793TIP3    H1 8336   4.919   4.320   2.810
 2793TIP3    H2 8337   5.015   4.375   2.914
 2794TIP3   OH2 8338   5.896   6.268   2.000
 2794TIP3    H1 8339   5.949   6.319   1.938
 2794TIP3    H2 8340   5.943   6.276   2.083
 2795TIP3   OH2 8341   5.994   7.467   3.748
 2795TIP3    H1 8342   6.002   7.426   3.662
 2795TIP3    H2 8343   6.065   7.532   3.750
 2796TIP3   OH2 8344   6.740   5.394   6.612
 2796TIP3    H1 8345   6.691   5.325   6.569
 2796TIP3    H2 8346   6.754   5.460   6.544
 2797TIP3   OH2 8347   0.316   4.930   4.600
 2797TIP3    H1 8348   0.334   4.976   4.682
 2797TIP3    H2 8349   0.313   4.838   4.623
 2798TIP3   OH2 8350   5.956   3.563   5.765
 2798TIP3    H1 8351   5.977   3.631   5.701
 2798TIP3    H2 8352   5.860   3.559   5.765
 2799TIP3   OH2 8353   5.249   6.444   0.474
 2799TIP3    H1 8354   5.231   6.392   0.553
 2799TIP3    H2 8355   5.187   6.409   0.409
 2800TIP3   OH2 8356   0.823   3.686   6.042
 2800TIP3    H1 8357   0.737   3.728   6.032
 2800TIP3    H2 8358   0.803   3.596   6.066
 2801TIP3   OH2 8359   5.190   4.684   6.642
 2801TIP3    H1 8360   5.172   4.595   6.672
 2801TIP3    H2 8361   5.124   4.738   6.685
 2802TIP3   OH2 8362   3.572   7.180   4.121
 2802TIP3    H1 8363   3.655   7.159   4.079
 2802TIP3    H2 8364   3.512   7.112   4.090
 2803TIP3   OH2 8365   0.889   3.967   3.934
 2803TIP3    H1 8366   0.981   3.954   3.957
 2803TIP3    H2 8367   0.869   3.897   3.873
 2804TIP3   OH2 8368   7.535   4.857   0.189
 2804TIP3    H1 8369   7.448   4.884   0.217
 2804TIP3    H2 8370   7.589   4.868   0.268
 2805TIP3   OH2 8371   0.955   2.839   1.533
 2805TIP3    H1 8372   0.981   2.751   1.506
 2805TIP3    H2 8373   0.874   2.855   1.485
 2806TIP3   OH2 8374   3.944   6.009   6.212
 2806TIP3    H1 8375   3.943   5.932   6.154
 2806TIP3    H2 8376   3.882   6.070   6.171
 2807TIP3   OH2 8377   2.152   5.287   1.688
 2807TIP3    H1 8378   2.144   5.351   1.617
 2807TIP3    H2 8379   2.114   5.207   1.653
 2808TIP3   OH2 8380   1.103   5.557   5.618
 2808TIP3    H1 8381   1.070   5.521   5.700
 2808TIP3    H2 8382   1.149   5.484   5.577
 2809TIP3   OH2 8383   5.757   0.053   2.434
 2809TIP3    H1 8384   5.701   0.125   2.463
 2809TIP3    H2 8385   5.721  -0.024   2.478
 2810TIP3   OH2 8386   5.951   5.473   5.227
 2810TIP3    H1 8387   5.893   5.442   5.158
 2810TIP3    H2 8388   5.929   5.565   5.237
 2811TIP3   OH2 8389   1.516   1.782   4.772
 2811TIP3    H1 8390   1.495   1.870   4.802
 2811TIP3    H2 8391   1.610   1.783   4.756
 2812TIP3   OH2 8392   1.416   5.029   4.524
 2812TIP3    H1 8393   1.372   4.961   4.473
 2812TIP3    H2 8394   1.509   5.010   4.516
 2813TIP3   OH2 8395   8.137   5.217   4.548
 2813TIP3    H1 8396   8.060   5.207   4.604
 2813TIP3    H2 8397   8.198   5.151   4.581
 2814TIP3   OH2 8398   7.622   3.999   5.389
 2814TIP3    H1 8399   7.670   4.014   5.470
 2814TIP3    H2 8400   7.689   3.972   5.326
 2815TIP3   OH2 8401   5.171   1.317   3.167
 2815TIP3    H1 8402   5.175   1.402   3.125
 2815TIP3    H2 8403   5.155   1.337   3.260
 2816TIP3   OH2 8404   3.999   4.572   5.052
 2816TIP3    H1 8405   3.995   4.612   4.965
 2816TIP3    H2 8406   3.931   4.505   5.052
 2817TIP3   OH2 8407   5.309   7.454   3.565
 2817TIP3    H1 8408   5.280   7.467   3.655
 2817TIP3    H2 8409   5.276   7.368   3.541
 2818TIP3   OH2 8410   5.545   4.285   5.147
 2818TIP3    H1 8411   5.489   4.209   5.127
 2818TIP3    H2 8412   5.574   4.270   5.236
 2819TIP3   OH2 8413   6.898   1.942   1.772
 2819TIP3    H1 8414   6.817   1.907   1.734
 2819TIP3    H2 8415   6.888   2.037   1.766
 2820TIP3   OH2 8416   3.302   6.833   5.130
 2820TIP3    H1 8417   3.213   6.857   5.103
 2820TIP3    H2 8418   3.322   6.755   5.079
 2821TIP3   OH2 8419   0.644   3.396   2.698
 2821TIP3    H1 8420   0.656   3.412   2.791
 2821TIP3    H2 8421   0.552   3.370   2.689
 2822TIP3   OH2 8422   5.473   4.594   5.586
 2822TIP3    H1 8423   5.468   4.605   5.491
 2822TIP3    H2 8424   5.408   4.528   5.606
 2823TIP3   OH2 8425   6.261   4.916   5.006
 2823TIP3    H1 8426   6.348   4.886   4.980
 2823TIP3    H2 8427   6.205   4.838   4.999
 2824TIP3   OH2 8428   7.620   3.228   1.957
 2824TIP3    H1 8429   7.568   3.299   1.918
 2824TIP3    H2 8430   7.556   3.159   1.974
 2825TIP3   OH2 8431   2.085   1.937   0.768
 2825TIP3    H1 8432   2.149   1.866   0.761
 2825TIP3    H2 8433   2.050   1.930   0.857
 2826TIP3   OH2 8434   1.650   0.552   1.718
 2826TIP3    H1 8435   1.621   0.558   1.627
 2826TIP3    H2 8436   1.689   0.637   1.737
 2827TIP3   OH2 8437   6.046   1.680   3.826
 2827TIP3    H1 8438   6.050   1.589   3.856
 2827TIP3    H2 8439   5.952   1.699   3.819
 2828TIP3   OH2 8440   4.436   0.843   1.887
 2828TIP3    H1 8441   4.526   0.824   1.859
 2828TIP3    H2 8442   4.393   0.877   1.809
 2829TIP3   OH2 8443   0.755   6.132   0.416
 2829TIP3    H1 8444   0.739   6.137   0.321
 2829TIP3    H2 8445   0.793   6.045   0.428
 2830TIP3   OH2 8446   3.938   3.023   1.892
 2830TIP3    H1 8447   3.966   2.979   1.972
 2830TIP3    H2 8448   3.887   3.098   1.923
 2831TIP3   OH2 8449   1.030   4.067   3.411
 2831TIP3    H1 8450   1.023   4.028   3.323
 2831TIP3    H2 8451   1.111   4.032   3.446
 2832TIP3   OH2 8452   1.860   1.522   4.577
 2832TIP3    H1 8453   1.852   1.574   4.497
 2832TIP3    H2 8454   1.799   1.449   4.564
 2833TIP3   OH2 8455   2.676   3.661   0.165
 2833TIP3    H1 8456   2.623   3.737   0.190
 2833TIP3    H2 8457   2.635   3.587   0.210
 2834TIP3   OH2 8458   7.072   7.427   3.245
 2834TIP3    H1 8459   7.085   7.449   3.337
 2834TIP3    H2 8460   7.150   7.461   3.201
 2835TIP3   OH2 8461   5.661   3.286   1.491
 2835TIP3    H1 8462   5.734   3.339   1.458
 2835TIP3    H2 8463   5.583   3.327   1.454
 2836TIP3   OH2 8464   8.125   4.479   2.631
 2836TIP3    H1 8465   8.178   4.530   2.570
 2836TIP3    H2 8466   8.107   4.397   2.586
 2837TIP3   OH2 8467   4.524   1.415   5.288
 2837TIP3    H1 8468   4.485   1.477   5.350
 2837TIP3    H2 8469   4.452   1.356   5.265
 2838TIP3   OH2 8470   7.695   2.447   5.599
 2838TIP3    H1 8471   7.789   2.449   5.582
 2838TIP3    H2 8472   7.660   2.521   5.549
 2839TIP3   OH2 8473   4.493   4.589   6.551
 2839TIP3    H1 8474   4.573   4.637   6.529
 2839TIP3    H2 8475   4.458   4.561   6.466
 2840TIP3   OH2 8476   4.298   0.881   0.156
 2840TIP3    H1 8477   4.316   0.957   0.212
 2840TIP3    H2 8478   4.241   0.826   0.210
 2841TIP3   OH2 8479   3.025   6.720   1.528
 2841TIP3    H1 8480   2.960   6.707   1.458
 2841TIP3    H2 8481   3.074   6.638   1.531
 2842TIP3   OH2 8482   2.914   6.448   2.036
 2842TIP3    H1 8483   3.005   6.431   2.011
 2842TIP3    H2 8484   2.916   6.452   2.131
 2843TIP3   OH2 8485   1.326   6.713   5.078
 2843TIP3    H1 8486   1.371   6.646   5.027
 2843TIP3    H2 8487   1.380   6.724   5.156
 2844TIP3   OH2 8488   3.687   5.563   1.419
 2844TIP3    H1 8489   3.776   5.541   1.392
 2844TIP3    H2 8490   3.695   5.586   1.511
 2845TIP3   OH2 8491   0.304   4.279   1.110
 2845TIP3    H1 8492   0.284   4.226   1.032
 2845TIP3    H2 8493   0.342   4.359   1.075
 2846TIP3   OH2 8494   6.413   6.571   6.178
 2846TIP3    H1 8495   6.465   6.648   6.154
 2846TIP3    H2 8496   6.322   6.599   6.167
 2847TIP3   OH2 8497   4.027   4.297   5.499
 2847TIP3    H1 8498   4.093   4.345   5.549
 2847TIP3    H2 8499   4.076   4.257   5.427
 2848TIP3   OH2 8500   5.802   6.651   6.152
 2848TIP3    H1 8501   5.870   6.651   6.220
 2848TIP3    H2 8502   5.720   6.639   6.199
 2849TIP3   OH2 8503   3.532   5.346   4.851
 2849TIP3    H1 8504   3.622   5.349   4.820
 2849TIP3    H2 8505   3.483   5.399   4.789
 2850TIP3   OH2 8506   8.065   0.284   2.003
 2850TIP3    H1 8507   8.069   0.190   1.983
 2850TIP3    H2 8508   8.128   0.296   2.074
 2851TIP3   OH2 8509   4.312   2.003   4.608
 2851TIP3    H1 8510   4.315   1.915   4.571
 2851TIP3    H2 8511   4.322   2.061   4.533
 2852TIP3   OH2 8512   6.808   7.384   3.094
 2852TIP3    H1 8513   6.824   7.294   3.066
 2852TIP3    H2 8514   6.891   7.411   3.134
 2853TIP3   OH2 8515   0.887   2.215   3.949
 2853TIP3    H1 8516   0.978   2.203   3.920
 2853TIP3    H2 8517   0.855   2.289   3.898
 2854TIP3   OH2 8518   6.954   3.736   3.375
 2854TIP3    H1 8519   6.868   3.741   3.333
 2854TIP3    H2 8520   6.994   3.821   3.356
 2855TIP3   OH2 8521   5.136   1.361   0.688
 2855TIP3    H1 8522   5.072   1.319   0.630
 2855TIP3    H2 8523   5.147   1.449   0.652
 2856TIP3   OH2 8524   7.759   4.167   4.945
 2856TIP3    H1 8525   7.683   4.215   4.913
 2856TIP3    H2 8526   7.813   4.233   4.989
 2857TIP3   OH2 8527   5.833   7.418   6.130
 2857TIP3    H1 8528   5.811   7.454   6.045
 2857TIP3    H2 8529   5.928   7.409   6.129
 2858TIP3   OH2 8530   7.051   4.896   4.221
 2858TIP3    H1 8531   7.072   4.983   4.255
 2858TIP3    H2 8532   6.985   4.912   4.154
 2859TIP3   OH2 8533   5.015   6.511   0.822
 2859TIP3    H1 8534   5.066   6.447   0.871
 2859TIP3    H2 8535   5.024   6.484   0.730
 2860TIP3   OH2 8536   3.794   3.541   5.724
 2860TIP3    H1 8537   3.754   3.628   5.716
 2860TIP3    H2 8538   3.879   3.557   5.765
 2861TIP3   OH2 8539   2.966   7.388   2.146
 2861TIP3    H1 8540   2.932   7.385   2.056
 2861TIP3    H2 8541   3.058   7.410   2.136
 2862TIP3   OH2 8542   4.724   0.981   4.598
 2862TIP3    H1 8543   4.696   1.024   4.517
 2862TIP3    H2 8544   4.664   1.014   4.665
 2863TIP3   OH2 8545   2.236   1.586   0.252
 2863TIP3    H1 8546   2.162   1.635   0.286
 2863TIP3    H2 8547   2.312   1.639   0.274
 2864TIP3   OH2 8548   7.236   1.429   6.194
 2864TIP3    H1 8549   7.267   1.409   6.282
 2864TIP3    H2 8550   7.244   1.347   6.146
 2865TIP3   OH2 8551   1.439   5.483   1.940
 2865TIP3    H1 8552   1.456   5.390   1.927
 2865TIP3    H2 8553   1.416   5.491   2.032
 2866TIP3   OH2 8554   1.145   3.100   5.987
 2866TIP3    H1 8555   1.118   3.191   6.000
 2866TIP3    H2 8556   1.150   3.063   6.075
 2867TIP3   OH2 8557   0.311   2.328   0.929
 2867TIP3    H1 8558   0.344   2.346   1.017
 2867TIP3    H2 8559   0.234   2.273   0.944
 2868TIP3   OH2 8560   7.914   6.520   4.478
 2868TIP3    H1 8561   7.997   6.548   4.517
 2868TIP3    H2 8562   7.933   6.508   4.385
 2869TIP3   OH2 8563   2.437   2.939   2.100
 2869TIP3    H1 8564   2.497   2.980   2.162
 2869TIP3    H2 8565   2.377   3.010   2.074
 2870TIP3   OH2 8566   1.495   2.396   6.462
 2870TIP3    H1 8567   1.548   2.320   6.438
 2870TIP3    H2 8568   1.535   2.469   6.414
 2871TIP3   OH2 8569   1.958   2.722   6.258
 2871TIP3    H1 8570   1.929   2.812   6.245
 2871TIP3    H2 8571   2.054   2.726   6.253
 2872TIP3   OH2 8572   4.541   2.792   4.537
 2872TIP3    H1 8573   4.620   2.749   4.571
 2872TIP3    H2 8574   4.556   2.885   4.552
 2873TIP3   OH2 8575   6.153   7.136   4.719
 2873TIP3    H1 8576   6.073   7.123   4.668
 2873TIP3    H2 8577   6.186   7.222   4.691
 2874TIP3   OH2 8578   4.346   4.968   1.794
 2874TIP3    H1 8579   4.372   5.014   1.714
 2874TIP3    H2 8580   4.288   4.898   1.764
 2875TIP3   OH2 8581   1.045   6.481   0.548
 2875TIP3    H1 8582   1.134   6.507   0.570
 2875TIP3    H2 8583   1.022   6.416   0.615
 2876TIP3   OH2 8584   4.527   1.675   0.224
 2876TIP3    H1 8585   4.622   1.688   0.226
 2876TIP3    H2 8586   4.512   1.623   0.145
 2877TIP3   OH2 8587   6.858   7.549   6.317
 2877TIP3    H1 8588   6.784   7.571   6.374
 2877TIP3    H2 8589   6.827   7.570   6.229
 2878TIP3   OH2 8590   3.440   6.576   4.113
 2878TIP3    H1 8591   3.345   6.581   4.116
 2878TIP3    H2 8592   3.470   6.650   4.167
 2879TIP3   OH2 8593   2.642   2.824   6.722
 2879TIP3    H1 8594   2.603   2.737   6.712
 2879TIP3    H2 8595   2.645   2.838   6.817
 2880TIP3   OH2 8596   3.067   2.771   0.510
 2880TIP3    H1 8597   3.146   2.718   0.504
 2880TIP3    H2 8598   3.008   2.733   0.445
 2881TIP3   OH2 8599   4.536   2.112   1.123
 2881TIP3    H1 8600   4.460   2.113   1.064
 2881TIP3    H2 8601   4.610   2.135   1.066
 2882TIP3   OH2 8602   3.561   3.140   1.684
 2882TIP3    H1 8603   3.538   3.150   1.591
 2882TIP3    H2 8604   3.610   3.220   1.705
 2883TIP3   OH2 8605   4.740   4.114   5.514
 2883TIP3    H1 8606   4.836   4.124   5.516
 2883TIP3    H2 8607   4.723   4.038   5.570
 2884TIP3   OH2 8608   0.951   6.721   6.468
 2884TIP3    H1 8609   0.997   6.684   6.543
 2884TIP3    H2 8610   0.865   6.747   6.503
 2885TIP3   OH2 8611   6.097   4.664   4.924
 2885TIP3    H1 8612   6.170   4.622   4.969
 2885TIP3    H2 8613   6.021   4.645   4.978
 2886TIP3   OH2 8614   3.726   2.787   1.154
 2886TIP3    H1 8615   3.764   2.699   1.157
 2886TIP3    H2 8616   3.801   2.846   1.157
 2887TIP3   OH2 8617   2.003   5.811   4.765
 2887TIP3    H1 8618   1.920   5.844   4.730
 2887TIP3    H2 8619   1.981   5.777   4.851
 2888TIP3   OH2 8620   2.557   2.251   5.581
 2888TIP3    H1 8621   2.467   2.244   5.548
 2888TIP3    H2 8622   2.595   2.323   5.531
 2889TIP3   OH2 8623   2.823   1.107   4.695
 2889TIP3    H1 8624   2.892   1.145   4.750
 2889TIP3    H2 8625   2.753   1.084   4.757
 2890TIP3   OH2 8626   7.356   5.066   1.040
 2890TIP3    H1 8627   7.342   5.141   1.099
 2890TIP3    H2 8628   7.268   5.037   1.016
 2891TIP3   OH2 8629   5.913   7.166   3.021
 2891TIP3    H1 8630   5.917   7.072   3.041
 2891TIP3    H2 8631   5.822   7.191   3.040
 2892TIP3   OH2 8632   7.421   6.207   0.465
 2892TIP3    H1 8633   7.342   6.241   0.508
 2892TIP3    H2 8634   7.420   6.113   0.485
 2893TIP3   OH2 8635   4.728   1.177   4.838
 2893TIP3    H1 8636   4.806   1.127   4.816
 2893TIP3    H2 8637   4.751   1.223   4.918
 2894TIP3   OH2 8638   0.396   1.104   5.604
 2894TIP3    H1 8639   0.481   1.060   5.599
 2894TIP3    H2 8640   0.373   1.101   5.697
 2895TIP3   OH2 8641   2.943   6.347   2.814
 2895TIP3    H1 8642   2.871   6.290   2.787
 2895TIP3    H2 8643   3.022   6.301   2.786
 2896TIP3   OH2 8644   5.256   1.411   2.134
 2896TIP3    H1 8645   5.272   1.409   2.229
 2896TIP3    H2 8646   5.163   1.390   2.126
 2897TIP3   OH2 8647   8.024   4.598   2.368
 2897TIP3    H1 8648   8.018   4.650   2.448
 2897TIP3    H2 8649   8.001   4.510   2.395
 2898TIP3   OH2 8650   2.085   0.435   3.747
 2898TIP3    H1 8651   1.996   0.463   3.728
 2898TIP3    H2 8652   2.095   0.352   3.700
 2899TIP3   OH2 8653   0.114   6.841   2.935
 2899TIP3    H1 8654   0.050   6.820   3.004
 2899TIP3    H2 8655   0.196   6.856   2.982
 2900TIP3   OH2 8656   8.307   1.905   5.251
 2900TIP3    H1 8657   8.293   2.000   5.241
 2900TIP3    H2 8658   8.219   1.867   5.245
 2901TIP3   OH2 8659   2.542   5.090   5.706
 2901TIP3    H1 8660   2.604   5.119   5.773
 2901TIP3    H2 8661   2.506   5.171   5.670
 2902TIP3   OH2 8662   4.411   3.035   2.229
 2902TIP3    H1 8663   4.471   3.058   2.157
 2902TIP3    H2 8664   4.390   3.118   2.270
 2903TIP3   OH2 8665   6.758   4.187   6.729
 2903TIP3    H1 8666   6.666   4.189   6.757
 2903TIP3    H2 8667   6.794   4.271   6.759
 2904TIP3   OH2 8668   3.323   7.710   5.820
 2904TIP3    H1 8669   3.296   7.696   5.729
 2904TIP3    H2 8670   3.271   7.647   5.870
 2905TIP3   OH2 8671   3.136   4.644   6.716
 2905TIP3    H1 8672   3.124   4.554   6.686
 2905TIP3    H2 8673   3.180   4.635   6.800
 2906TIP3   OH2 8674   4.626   2.057   3.080
 2906TIP3    H1 8675   4.596   2.124   3.141
 2906TIP3    H2 8676   4.721   2.071   3.073
 2907TIP3   OH2 8677   2.225   2.812   5.249
 2907TIP3    H1 8678   2.293   2.874   5.273
 2907TIP3    H2 8679   2.165   2.812   5.323
 2908TIP3   OH2 8680   2.480   7.359   5.653
 2908TIP3    H1 8681   2.431   7.422   5.600
 2908TIP3    H2 8682   2.481   7.279   5.600
 2909TIP3   OH2 8683   7.829   2.996   3.007
 2909TIP3    H1 8684   7.832   3.075   3.060
 2909TIP3    H2 8685   7.803   3.026   2.919
 2910TIP3   OH2 8686   7.890   6.679   2.839
 2910TIP3    H1 8687   7.949   6.693   2.765
 2910TIP3    H2 8688   7.806   6.657   2.799
 2911TIP3   OH2 8689   1.487   7.173   2.729
 2911TIP3    H1 8690   1.413   7.116   2.750
 2911TIP3    H2 8691   1.544   7.120   2.674
 2912TIP3   OH2 8692   6.956   4.939   5.211
 2912TIP3    H1 8693   7.006   4.859   5.230
 2912TIP3    H2 8694   6.924   4.967   5.296
 2913TIP3   OH2 8695   5.687   4.707   0.408
 2913TIP3    H1 8696   5.754   4.753   0.459
 2913TIP3    H2 8697   5.706   4.614   0.421
 2914TIP3   OH2 8698   4.453   4.609   2.741
 2914TIP3    H1 8699   4.464   4.591   2.834
 2914TIP3    H2 8700   4.525   4.669   2.719
 2915TIP3   OH2 8701   7.941   5.501   5.065
 2915TIP3    H1 8702   7.878   5.512   5.136
 2915TIP3    H2 8703   7.966   5.409   5.069
 2916TIP3   OH2 8704   7.189   4.959   3.526
 2916TIP3    H1 8705   7.244   5.023   3.482
 2916TIP3    H2 8706   7.162   4.899   3.456
 2917TIP3   OH2 8707   8.154   6.184   4.536
 2917TIP3    H1 8708   8.203   6.267   4.540
 2917TIP3    H2 8709   8.217   6.121   4.502
 2918TIP3   OH2 8710   6.448   4.940   2.832
 2918TIP3    H1 8711   6.512   4.878   2.798
 2918TIP3    H2 8712   6.501   5.012   2.867
 2919TIP3   OH2 8713   6.045   3.560   3.339
 2919TIP3    H1 8714   6.116   3.496   3.336
 2919TIP3    H2 8715   6.005   3.556   3.252
 2920TIP3   OH2 8716   7.189   2.596   4.378
 2920TIP3    H1 8717   7.254   2.663   4.355
 2920TIP3    H2 8718   7.134   2.639   4.443
 2921TIP3   OH2 8719   0.034   1.063   3.812
 2921TIP3    H1 8720   0.101   1.131   3.819
 2921TIP3    H2 8721   0.013   1.059   3.719
 2922TIP3   OH2 8722   5.281   3.986   2.450
 2922TIP3    H1 8723   5.324   3.993   2.365
 2922TIP3    H2 8724   5.310   4.063   2.499
 2923TIP3   OH2 8725   5.084   2.562   2.976
 2923TIP3    H1 8726   5.013   2.595   2.921
 2923TIP3    H2 8727   5.044   2.549   3.061
 2924TIP3   OH2 8728   0.485   2.440   3.984
 2924TIP3    H1 8729   0.515   2.351   4.007
 2924TIP3    H2 8730   0.481   2.440   3.889
 2925TIP3   OH2 8731   3.835   1.182   2.217
 2925TIP3    H1 8732   3.892   1.187   2.140
 2925TIP3    H2 8733   3.760   1.238   2.196
 2926TIP3   OH2 8734   3.866   3.152   2.994
 2926TIP3    H1 8735   3.822   3.179   3.075
 2926TIP3    H2 8736   3.928   3.224   2.976
 2927TIP3   OH2 8737   2.471   0.230   2.366
 2927TIP3    H1 8738   2.425   0.307   2.334
 2927TIP3    H2 8739   2.432   0.212   2.451
 2928TIP3   OH2 8740   3.778   2.031   4.503
 2928TIP3    H1 8741   3.799   2.083   4.580
 2928TIP3    H2 8742   3.721   1.961   4.535
 2929TIP3   OH2 8743   1.885   6.178   3.978
 2929TIP3    H1 8744   1.935   6.254   4.008
 2929TIP3    H2 8745   1.806   6.178   4.033
 2930TIP3   OH2 8746   3.792   2.077   0.112
 2930TIP3    H1 8747   3.731   2.073   0.186
 2930TIP3    H2 8748   3.746   2.129   0.046
 2931TIP3   OH2 8749   3.664   3.389   1.746
 2931TIP3    H1 8750   3.733   3.359   1.805
 2931TIP3    H2 8751   3.686   3.480   1.726
 2932TIP3   OH2 8752   0.320   4.148   6.169
 2932TIP3    H1 8753   0.361   4.063   6.180
 2932TIP3    H2 8754   0.377   4.209   6.216
 2933TIP3   OH2 8755   1.975   2.473   2.756
 2933TIP3    H1 8756   2.039   2.514   2.813
 2933TIP3    H2 8757   1.954   2.390   2.799
 2934TIP3   OH2 8758   2.681   2.066   4.621
 2934TIP3    H1 8759   2.614   2.133   4.637
 2934TIP3    H2 8760   2.631   1.986   4.608
 2935TIP3   OH2 8761   0.267   6.842   5.236
 2935TIP3    H1 8762   0.219   6.880   5.162
 2935TIP3    H2 8763   0.349   6.891   5.239
 2936TIP3   OH2 8764   0.892   1.609   3.432
 2936TIP3    H1 8765   0.843   1.621   3.351
 2936TIP3    H2 8766   0.910   1.515   3.436
 2937TIP3   OH2 8767   0.573   2.863   5.758
 2937TIP3    H1 8768   0.556   2.939   5.703
 2937TIP3    H2 8769   0.593   2.899   5.845
 2938TIP3   OH2 8770   4.466   4.658   1.681
 2938TIP3    H1 8771   4.524   4.733   1.690
 2938TIP3    H2 8772   4.514   4.596   1.627
 2939TIP3   OH2 8773   5.928   6.564   1.605
 2939TIP3    H1 8774   5.889   6.643   1.566
 2939TIP3    H2 8775   5.898   6.493   1.548
 2940TIP3   OH2 8776   4.500   4.549   4.937
 2940TIP3    H1 8777   4.559   4.494   4.989
 2940TIP3    H2 8778   4.414   4.511   4.951
 2941TIP3   OH2 8779   4.980   1.723   6.218
 2941TIP3    H1 8780   4.936   1.644   6.187
 2941TIP3    H2 8781   5.018   1.698   6.302
 2942TIP3   OH2 8782   6.156   2.509   5.034
 2942TIP3    H1 8783   6.106   2.589   5.018
 2942TIP3    H2 8784   6.104   2.459   5.097
 2943TIP3   OH2 8785   3.153   1.454   5.653
 2943TIP3    H1 8786   3.066   1.439   5.689
 2943TIP3    H2 8787   3.181   1.537   5.692
 2944TIP3   OH2 8788   2.364   1.808   4.988
 2944TIP3    H1 8789   2.289   1.835   4.935
 2944TIP3    H2 8790   2.434   1.869   4.963
 2945TIP3   OH2 8791   2.310   2.411   0.120
 2945TIP3    H1 8792   2.337   2.337   0.065
 2945TIP3    H2 8793   2.241   2.375   0.176
 2946TIP3   OH2 8794   0.498   1.583   5.311
 2946TIP3    H1 8795   0.506   1.675   5.337
 2946TIP3    H2 8796   0.507   1.584   5.216
 2947TIP3   OH2 8797   7.228   0.602   3.179
 2947TIP3    H1 8798   7.261   0.533   3.236
 2947TIP3    H2 8799   7.230   0.682   3.232
 2948TIP3   OH2 8800   7.430   4.187   5.281
 2948TIP3    H1 8801   7.501   4.131   5.313
 2948TIP3    H2 8802   7.354   4.129   5.274
 2949TIP3   OH2 8803   0.775   1.926   1.561
 2949TIP3    H1 8804   0.719   1.983   1.507
 2949TIP3    H2 8805   0.852   1.980   1.580
 2950TIP3   OH2 8806   1.010   1.741   6.560
 2950TIP3    H1 8807   1.059   1.766   6.638
 2950TIP3    H2 8808   0.924   1.780   6.572
 2951TIP3   OH2 8809   8.008   6.442   3.401
 2951TIP3    H1 8810   7.922   6.452   3.362
 2951TIP3    H2 8811   7.991   6.396   3.483
 2952TIP3   OH2 8812   2.291   2.354   2.964
 2952TIP3    H1 8813   2.292   2.368   2.869
 2952TIP3    H2 8814   2.381   2.332   2.987
 2953TIP3   OH2 8815   2.585   4.309   0.911
 2953TIP3    H1 8816   2.591   4.381   0.975
 2953TIP3    H2 8817   2.605   4.351   0.827
 2954TIP3   OH2 8818   2.457   6.645   6.338
 2954TIP3    H1 8819   2.364   6.641   6.361
 2954TIP3    H2 8820   2.461   6.711   6.269
 2955TIP3   OH2 8821   7.041   4.692   0.793
 2955TIP3    H1 8822   7.125   4.701   0.838
 2955TIP3    H2 8823   6.976   4.727   0.855
 2956TIP3   OH2 8824   7.198   5.465   1.899
 2956TIP3    H1 8825   7.219   5.534   1.836
 2956TIP3    H2 8826   7.165   5.512   1.976
 2957TIP3   OH2 8827   2.939   5.339   0.238
 2957TIP3    H1 8828   2.870   5.378   0.184
 2957TIP3    H2 8829   2.952   5.402   0.309
 2958TIP3   OH2 8830   2.568   1.188   5.013
 2958TIP3    H1 8831   2.509   1.234   5.072
 2958TIP3    H2 8832   2.544   1.220   4.926
 2959TIP3   OH2 8833   6.159   2.150   5.129
 2959TIP3    H1 8834   6.219   2.091   5.173
 2959TIP3    H2 8835   6.204   2.173   5.047
 2960TIP3   OH2 8836   4.064   7.233   2.247
 2960TIP3    H1 8837   4.154   7.236   2.279
 2960TIP3    H2 8838   4.032   7.323   2.257
 2961TIP3   OH2 8839   0.496   2.697   2.725
 2961TIP3    H1 8840   0.438   2.748   2.669
 2961TIP3    H2 8841   0.442   2.626   2.759
 2962TIP3   OH2 8842   2.223   4.143   0.314
 2962TIP3    H1 8843   2.209   4.165   0.222
 2962TIP3    H2 8844   2.188   4.054   0.323
 2963TIP3   OH2 8845   3.508   0.295   5.586
 2963TIP3    H1 8846   3.603   0.304   5.576
 2963TIP3    H2 8847   3.479   0.378   5.623
 2964TIP3   OH2 8848   5.000   0.259  -0.013
 2964TIP3    H1 8849   4.936   0.244   0.057
 2964TIP3    H2 8850   5.084   0.262   0.032
 2965TIP3   OH2 8851   3.334   1.606   6.271
 2965TIP3    H1 8852   3.354   1.532   6.213
 2965TIP3    H2 8853   3.270   1.571   6.333
 2966TIP3   OH2 8854   7.348   4.353   0.667
 2966TIP3    H1 8855   7.265   4.384   0.632
 2966TIP3    H2 8856   7.353   4.391   0.755
 2967TIP3   OH2 8857   5.114   7.064   4.160
 2967TIP3    H1 8858   5.106   6.979   4.118
 2967TIP3    H2 8859   5.167   7.047   4.238
 2968TIP3   OH2 8860   7.170   5.249   0.782
 2968TIP3    H1 8861   7.094   5.306   0.799
 2968TIP3    H2 8862   7.149   5.168   0.828
 2969TIP3   OH2 8863   7.191   4.471   2.439
 2969TIP3    H1 8864   7.285   4.456   2.452
 2969TIP3    H2 8865   7.150   4.387   2.458
 2970TIP3   OH2 8866   1.266   5.794   1.345
 2970TIP3    H1 8867   1.307   5.872   1.383
 2970TIP3    H2 8868   1.243   5.820   1.255
 2971TIP3   OH2 8869   2.895   2.601   5.917
 2971TIP3    H1 8870   2.922   2.520   5.960
 2971TIP3    H2 8871   2.909   2.669   5.982
 2972TIP3   OH2 8872   0.495   1.427   2.495
 2972TIP3    H1 8873   0.581   1.426   2.453
 2972TIP3    H2 8874   0.465   1.336   2.491
 2973TIP3   OH2 8875   3.445   0.600   3.475
 2973TIP3    H1 8876   3.420   0.669   3.414
 2973TIP3    H2 8877   3.427   0.519   3.428
 2974TIP3   OH2 8878   1.496   1.431   4.874
 2974TIP3    H1 8879   1.592   1.439   4.874
 2974TIP3    H2 8880   1.465   1.521   4.869
 2975TIP3   OH2 8881   0.967   7.316   2.877
 2975TIP3    H1 8882   0.882   7.303   2.834
 2975TIP3    H2 8883   0.958   7.398   2.925
 2976TIP3   OH2 8884   7.902   6.978   2.000
 2976TIP3    H1 8885   7.930   6.904   1.945
 2976TIP3    H2 8886   7.861   7.039   1.938
 2977TIP3   OH2 8887   6.546   1.565   1.620
 2977TIP3    H1 8888   6.467   1.511   1.608
 2977TIP3    H2 8889   6.618   1.504   1.605
 2978TIP3   OH2 8890   8.099   7.564   5.042
 2978TIP3    H1 8891   8.082   7.636   4.981
 2978TIP3    H2 8892   8.136   7.495   4.988
 2979TIP3   OH2 8893   4.542   6.752   3.656
 2979TIP3    H1 8894   4.547   6.701   3.737
 2979TIP3    H2 8895   4.506   6.837   3.683
 2980TIP3   OH2 8896   6.101   4.882   0.258
 2980TIP3    H1 8897   6.045   4.845   0.190
 2980TIP3    H2 8898   6.116   4.810   0.319
 2981TIP3   OH2 8899   2.444   7.315   0.613
 2981TIP3    H1 8900   2.454   7.246   0.679
 2981TIP3    H2 8901   2.350   7.318   0.596
 2982TIP3   OH2 8902   2.830   6.141   1.251
 2982TIP3    H1 8903   2.773   6.089   1.194
 2982TIP3    H2 8904   2.917   6.130   1.214
 2983TIP3   OH2 8905   4.553   5.170   1.312
 2983TIP3    H1 8906   4.493   5.123   1.254
 2983TIP3    H2 8907   4.591   5.102   1.368
 2984TIP3   OH2 8908   1.170   1.930   4.954
 2984TIP3    H1 8909   1.156   1.865   4.886
 2984TIP3    H2 8910   1.208   2.005   4.909
 2985TIP3   OH2 8911   1.899   5.009   1.676
 2985TIP3    H1 8912   1.993   4.999   1.665
 2985TIP3    H2 8913   1.880   5.096   1.640
 2986TIP3   OH2 8914   0.825   4.229   0.249
 2986TIP3    H1 8915   0.877   4.291   0.300
 2986TIP3    H2 8916   0.778   4.177   0.315
 2987TIP3   OH2 8917   0.102   0.887   2.662
 2987TIP3    H1 8918   0.041   0.961   2.657
 2987TIP3    H2 8919   0.130   0.873   2.572
 2988TIP3   OH2 8920   7.016   3.839   2.655
 2988TIP3    H1 8921   6.939   3.783   2.651
 2988TIP3    H2 8922   7.001   3.895   2.731
 2989TIP3   OH2 8923   1.921   4.394   3.537
 2989TIP3    H1 8924   2.006   4.360   3.507
 2989TIP3    H2 8925   1.878   4.317   3.575
 2990TIP3   OH2 8926   3.919   5.140   0.268
 2990TIP3    H1 8927   3.886   5.194   0.196
 2990TIP3    H2 8928   3.840   5.116   0.317
 2991TIP3   OH2 8929   1.354   5.312   1.024
 2991TIP3    H1 8930   1.371   5.227   1.064
 2991TIP3    H2 8931   1.341   5.372   1.097
 2992TIP3   OH2 8932   3.212   2.717   3.479
 2992TIP3    H1 8933   3.273   2.718   3.553
 2992TIP3    H2 8934   3.178   2.628   3.477
 2993TIP3   OH2 8935   8.067   7.751   2.030
 2993TIP3    H1 8936   8.083   7.675   1.974
 2993TIP3    H2 8937   8.150   7.765   2.076
 2994TIP3   OH2 8938   2.113   7.545   3.055
 2994TIP3    H1 8939   2.020   7.532   3.036
 2994TIP3    H2 8940   2.159   7.492   2.989
 2995TIP3   OH2 8941   1.663   5.401   5.170
 2995TIP3    H1 8942   1.715   5.329   5.206
 2995TIP3    H2 8943   1.635   5.370   5.084
 2996TIP3   OH2 8944   0.510   3.523   4.874
 2996TIP3    H1 8945   0.480   3.614   4.866
 2996TIP3    H2 8946   0.578   3.515   4.807
 2997TIP3   OH2 8947   3.023   3.746   3.414
 2997TIP3    H1 8948   3.060   3.778   3.332
 2997TIP3    H2 8949   3.095   3.754   3.477
 2998TIP3   OH2 8950   0.018   1.748   2.586
 2998TIP3    H1 8951  -0.077   1.749   2.600
 2998TIP3    H2 8952   0.032   1.810   2.514
 2999TIP3   OH2 8953   0.994   5.485   0.373
 2999TIP3    H1 8954   0.952   5.506   0.457
 2999TIP3    H2 8955   1.051   5.560   0.356
 3000TIP3   OH2 8956   5.321   2.644   5.332
 3000TIP3    H1 8957   5.238   2.654   5.379
 3000TIP3    H2 8958   5.336   2.550   5.330
 3001TIP3   OH2 8959   1.673   1.905   1.909
 3001TIP3    H1 8960   1.751   1.932   1.958
 3001TIP3    H2 8961   1.701   1.905   1.818
 3002TIP3   OH2 8962   2.274   2.421   2.715
 3002TIP3    H1 8963   2.249   2.353   2.653
 3002TIP3    H2 8964   2.270   2.503   2.665
 3003TIP3   OH2 8965   0.810   7.016   6.033
 3003TIP3    H1 8966   0.776   6.990   5.947
 3003TIP3    H2 8967   0.899   7.045   6.015
 3004TIP3   OH2 8968   0.638   5.741   1.701
 3004TIP3    H1 8969   0.555   5.705   1.673
 3004TIP3    H2 8970   0.618   5.787   1.783
 3005TIP3   OH2 8971   2.535   6.440   2.683
 3005TIP3    H1 8972   2.594   6.509   2.714
 3005TIP3    H2 8973   2.451   6.461   2.723
 3006TIP3   OH2 8974   0.792   7.185   0.444
 3006TIP3    H1 8975   0.697   7.170   0.447
 3006TIP3    H2 8976   0.830   7.098   0.454
 3007TIP3   OH2 8977   7.304   6.039   3.481
 3007TIP3    H1 8978   7.384   6.088   3.500
 3007TIP3    H2 8979   7.249   6.102   3.434
 3008TIP3   OH2 8980   5.391   7.697   3.436
 3008TIP3    H1 8981   5.380   7.605   3.458
 3008TIP3    H2 8982   5.484   7.714   3.448
 3009TIP3   OH2 8983   0.542   5.845   1.949
 3009TIP3    H1 8984   0.471   5.783   1.963
 3009TIP3    H2 8985   0.514   5.924   1.995
 3010TIP3   OH2 8986   3.364   0.081   4.147
 3010TIP3    H1 8987   3.356   0.006   4.088
 3010TIP3    H2 8988   3.275   0.100   4.174
 3011TIP3   OH2 8989   2.383   7.796   3.388
 3011TIP3    H1 8990   2.330   7.766   3.314
 3011TIP3    H2 8991   2.371   7.891   3.388
 3012TIP3   OH2 8992   5.955   1.960   5.709
 3012TIP3    H1 8993   5.941   1.956   5.804
 3012TIP3    H2 8994   5.872   1.991   5.674
 3013TIP3   OH2 8995   4.316   6.421   1.788
 3013TIP3    H1 8996   4.291   6.329   1.780
 3013TIP3    H2 8997   4.411   6.420   1.774
 3014TIP3   OH2 8998   8.051   0.094   5.883
 3014TIP3    H1 8999   8.026   0.180   5.849
 3014TIP3    H2 9000   8.143   0.085   5.859
 3015TIP3   OH2 9001   7.873   1.116   3.460
 3015TIP3    H1 9002   7.823   1.143   3.537
 3015TIP3    H2 9003   7.824   1.149   3.386
 3016TIP3   OH2 9004   4.724   4.287   3.486
 3016TIP3    H1 9005   4.718   4.260   3.394
 3016TIP3    H2 9006   4.818   4.299   3.501
 3017TIP3   OH2 9007   3.162   5.104   0.647
 3017TIP3    H1 9008   3.105   5.181   0.645
 3017TIP3    H2 9009   3.143   5.058   0.566
 3018TIP3   OH2 9010   2.180   1.844   1.252
 3018TIP3    H1 9011   2.201   1.764   1.204
 3018TIP3    H2 9012   2.256   1.900   1.239
 3019TIP3   OH2 9013   6.117   0.412   0.683
 3019TIP3    H1 9014   6.166   0.447   0.757
 3019TIP3    H2 9015   6.050   0.357   0.722
 3020TIP3   OH2 9016   4.363   3.940   3.491
 3020TIP3    H1 9017   4.436   3.945   3.554
 3020TIP3    H2 9018   4.284   3.943   3.546
 3021TIP3   OH2 9019   7.389   0.783   2.901
 3021TIP3    H1 9020   7.364   0.801   2.810
 3021TIP3    H2 9021   7.483   0.764   2.896
 3022TIP3   OH2 9022   4.393   3.394   0.476
 3022TIP3    H1 9023   4.347   3.410   0.394
 3022TIP3    H2 9024   4.322   3.390   0.542
 3023TIP3   OH2 9025   3.108   5.594   4.598
 3023TIP3    H1 9026   3.077   5.556   4.515
 3023TIP3    H2 9027   3.028   5.612   4.647
 3024TIP3   OH2 9028   3.686   5.442   1.920
 3024TIP3    H1 9029   3.689   5.358   1.874
 3024TIP3    H2 9030   3.618   5.430   1.987
 3025TIP3   OH2 9031   7.982   6.414   1.881
 3025TIP3    H1 9032   7.993   6.391   1.974
 3025TIP3    H2 9033   7.928   6.344   1.845
 3026TIP3   OH2 9034   0.691   1.810   6.648
 3026TIP3    H1 9035   0.660   1.729   6.688
 3026TIP3    H2 9036   0.677   1.798   6.554
 3027TIP3   OH2 9037   5.939   1.456   3.951
 3027TIP3    H1 9038   5.870   1.395   3.924
 3027TIP3    H2 9039   5.906   1.496   4.031
 3028TIP3   OH2 9040   2.472   3.727   5.135
 3028TIP3    H1 9041   2.429   3.726   5.050
 3028TIP3    H2 9042   2.565   3.729   5.116
 3029TIP3   OH2 9043   7.308   3.639   1.024
 3029TIP3    H1 9044   7.231   3.585   1.040
 3029TIP3    H2 9045   7.374   3.605   1.084
 3030TIP3   OH2 9046   3.729   3.284   4.264
 3030TIP3    H1 9047   3.710   3.274   4.170
 3030TIP3    H2 9048   3.820   3.258   4.272
 3031TIP3   OH2 9049   5.465   7.062   6.714
 3031TIP3    H1 9050   5.482   7.112   6.793
 3031TIP3    H2 9051   5.462   6.971   6.743
 3032TIP3   OH2 9052   0.086   4.902   3.578
 3032TIP3    H1 9053   0.160   4.951   3.541
 3032TIP3    H2 9054   0.075   4.937   3.666
 3033TIP3   OH2 9055   1.951   0.959   0.491
 3033TIP3    H1 9056   1.882   0.981   0.428
 3033TIP3    H2 9057   2.000   0.887   0.450
 3034TIP3   OH2 9058   1.506   4.523   1.860
 3034TIP3    H1 9059   1.501   4.449   1.799
 3034TIP3    H2 9060   1.515   4.482   1.946
 3035TIP3   OH2 9061   0.632   0.130   3.554
 3035TIP3    H1 9062   0.725   0.116   3.539
 3035TIP3    H2 9063   0.621   0.126   3.649
 3036TIP3   OH2 9064   6.476   4.509   6.705
 3036TIP3    H1 9065   6.550   4.563   6.734
 3036TIP3    H2 9066   6.426   4.491   6.785
 3037TIP3   OH2 9067   5.843   1.352   5.044
 3037TIP3    H1 9068   5.834   1.279   5.106
 3037TIP3    H2 9069   5.771   1.412   5.067
 3038TIP3   OH2 9070   5.430   1.734   6.781
 3038TIP3    H1 9071   5.446   1.720   6.688
 3038TIP3    H2 9072   5.356   1.676   6.802
 3039TIP3   OH2 9073   1.460   0.340   3.731
 3039TIP3    H1 9074   1.505   0.317   3.812
 3039TIP3    H2 9075   1.528   0.376   3.674
 3040TIP3   OH2 9076   0.854   4.974   0.635
 3040TIP3    H1 9077   0.901   4.891   0.631
 3040TIP3    H2 9078   0.783   4.964   0.572
 3041TIP3   OH2 9079   1.445   1.305   0.626
 3041TIP3    H1 9080   1.434   1.362   0.550
 3041TIP3    H2 9081   1.418   1.218   0.595
 3042TIP3   OH2 9082   0.423   4.153   5.364
 3042TIP3    H1 9083   0.425   4.237   5.318
 3042TIP3    H2 9084   0.449   4.175   5.454
 3043TIP3   OH2 9085   6.883   1.989   4.934
 3043TIP3    H1 9086   6.812   2.005   4.872
 3043TIP3    H2 9087   6.960   1.972   4.879
 3044TIP3   OH2 9088   4.760   0.640   5.321
 3044TIP3    H1 9089   4.748   0.588   5.401
 3044TIP3    H2 9090   4.848   0.677   5.329
 3045TIP3   OH2 9091   7.896   4.699   6.640
 3045TIP3    H1 9092   7.880   4.642   6.715
 3045TIP3    H2 9093   7.848   4.779   6.660
 3046TIP3   OH2 9094   4.523   3.606   2.061
 3046TIP3    H1 9095   4.457   3.634   2.125
 3046TIP3    H2 9096   4.483   3.530   2.018
 3047TIP3   OH2 9097   3.294   2.949   0.917
 3047TIP3    H1 9098   3.279   2.973   0.825
 3047TIP3    H2 9099   3.385   2.919   0.919
 3048TIP3   OH2 9100   3.555   1.078   5.207
 3048TIP3    H1 9101   3.542   1.093   5.113
 3048TIP3    H2 9102   3.648   1.092   5.220
 3049TIP3   OH2 9103   2.974   6.777   4.427
 3049TIP3    H1 9104   3.017   6.692   4.432
 3049TIP3    H2 9105   2.918   6.772   4.349
 3050TIP3   OH2 9106   1.467   0.003   6.173
 3050TIP3    H1 9107   1.535  -0.028   6.232
 3050TIP3    H2 9108   1.499  -0.018   6.086
 3051TIP3   OH2 9109   1.407   3.162   5.971
 3051TIP3    H1 9110   1.421   3.072   5.998
 3051TIP3    H2 9111   1.312   3.171   5.966
 3052TIP3   OH2 9112   7.492   4.681   5.492
 3052TIP3    H1 9113   7.560   4.649   5.433
 3052TIP3    H2 9114   7.429   4.726   5.435
 3053TIP3   OH2 9115   6.054   4.102   1.736
 3053TIP3    H1 9116   6.116   4.079   1.667
 3053TIP3    H2 9117   6.096   4.074   1.817
 3054TIP3   OH2 9118   4.743   5.675   3.748
 3054TIP3    H1 9119   4.738   5.771   3.743
 3054TIP3    H2 9120   4.674   5.644   3.690
 3055TIP3   OH2 9121   0.783   1.910   3.352
 3055TIP3    H1 9122   0.812   1.946   3.436
 3055TIP3    H2 9123   0.703   1.860   3.373
 3056TIP3   OH2 9124   8.134   2.978   3.987
 3056TIP3    H1 9125   8.087   2.999   4.068
 3056TIP3    H2 9126   8.066   2.975   3.919
 3057TIP3   OH2 9127   5.480   2.713   6.390
 3057TIP3    H1 9128   5.536   2.671   6.455
 3057TIP3    H2 9129   5.521   2.798   6.373
 3058TIP3   OH2 9130   3.046   1.029   3.651
 3058TIP3    H1 9131   3.021   0.985   3.733
 3058TIP3    H2 9132   3.128   0.988   3.626
 3059TIP3   OH2 9133   5.401   2.855   2.804
 3059TIP3    H1 9134   5.475   2.813   2.849
 3059TIP3    H2 9135   5.441   2.923   2.750
 3060TIP3   OH2 9136   0.130   6.494   2.536
 3060TIP3    H1 9137   0.104   6.403   2.547
 3060TIP3    H2 9138   0.127   6.532   2.623
 3061TIP3   OH2 9139   0.657   1.219   3.719
 3061TIP3    H1 9140   0.741   1.230   3.763
 3061TIP3    H2 9141   0.635   1.306   3.687
 3062TIP3   OH2 9142   0.209   2.056   3.266
 3062TIP3    H1 9143   0.262   2.038   3.188
 3062TIP3    H2 9144   0.119   2.048   3.235
 3063TIP3   OH2 9145   4.816   5.390   4.100
 3063TIP3    H1 9146   4.821   5.481   4.130
 3063TIP3    H2 9147   4.731   5.359   4.131
 3064TIP3   OH2 9148   2.812   2.283   3.750
 3064TIP3    H1 9149   2.807   2.212   3.813
 3064TIP3    H2 9150   2.856   2.245   3.674
 3065TIP3   OH2 9151   6.030   0.015   2.451
 3065TIP3    H1 9152   5.937  -0.004   2.448
 3065TIP3    H2 9153   6.036   0.110   2.440
 3066TIP3   OH2 9154   2.463   0.698   3.233
 3066TIP3    H1 9155   2.535   0.636   3.232
 3066TIP3    H2 9156   2.502   0.782   3.210
 3067TIP3   OH2 9157   2.317   1.564   2.953
 3067TIP3    H1 9158   2.299   1.474   2.925
 3067TIP3    H2 9159   2.396   1.589   2.905
 3068TIP3   OH2 9160   7.723   4.811   2.265
 3068TIP3    H1 9161   7.677   4.807   2.349
 3068TIP3    H2 9162   7.811   4.842   2.287
 3069TIP3   OH2 9163   0.292   6.203   5.591
 3069TIP3    H1 9164   0.346   6.273   5.553
 3069TIP3    H2 9165   0.243   6.167   5.518
 3070TIP3   OH2 9166   6.626   5.233   1.647
 3070TIP3    H1 9167   6.655   5.158   1.595
 3070TIP3    H2 9168   6.707   5.273   1.679
 3071TIP3   OH2 9169   7.807   0.794   5.411
 3071TIP3    H1 9170   7.824   0.792   5.505
 3071TIP3    H2 9171   7.766   0.879   5.395
 3072TIP3   OH2 9172   8.006   2.796   6.710
 3072TIP3    H1 9173   7.996   2.747   6.792
 3072TIP3    H2 9174   7.919   2.791   6.668
 3073TIP3   OH2 9175   0.172   5.701   5.046
 3073TIP3    H1 9176   0.242   5.761   5.070
 3073TIP3    H2 9177   0.201   5.616   5.080
 3074TIP3   OH2 9178   8.109   3.400   5.059
 3074TIP3    H1 9179   8.085   3.491   5.044
 3074TIP3    H2 9180   8.182   3.384   4.998
 3075TIP3   OH2 9181   8.115   4.858   4.300
 3075TIP3    H1 9182   8.140   4.948   4.278
 3075TIP3    H2 9183   8.199   4.812   4.309
 3076TIP3   OH2 9184   2.880   1.207   1.650
 3076TIP3    H1 9185   2.945   1.189   1.718
 3076TIP3    H2 9186   2.931   1.243   1.577
 3077TIP3   OH2 9187   7.061   5.636   2.069
 3077TIP3    H1 9188   6.999   5.621   2.141
 3077TIP3    H2 9189   7.007   5.672   1.999
 3078TIP3   OH2 9190   3.097   5.584   1.077
 3078TIP3    H1 9191   3.179   5.576   1.126
 3078TIP3    H2 9192   3.051   5.657   1.119
 3079TIP3   OH2 9193   2.047   5.446   6.262
 3079TIP3    H1 9194   2.040   5.400   6.179
 3079TIP3    H2 9195   2.044   5.377   6.328
 3080TIP3   OH2 9196   2.978   5.348   2.962
 3080TIP3    H1 9197   2.944   5.339   3.051
 3080TIP3    H2 9198   2.981   5.258   2.928
 3081TIP3   OH2 9199   4.804   0.286   1.120
 3081TIP3    H1 9200   4.718   0.316   1.150
 3081TIP3    H2 9201   4.786   0.244   1.035
 3082TIP3   OH2 9202   2.656   1.186   5.840
 3082TIP3    H1 9203   2.655   1.140   5.756
 3082TIP3    H2 9204   2.724   1.253   5.830
 3083TIP3   OH2 9205   1.270   0.497   1.093
 3083TIP3    H1 9206   1.239   0.448   1.016
 3083TIP3    H2 9207   1.326   0.566   1.057
 3084TIP3   OH2 9208   0.740   2.388   1.923
 3084TIP3    H1 9209   0.699   2.432   1.997
 3084TIP3    H2 9210   0.712   2.296   1.930
 3085TIP3   OH2 9211   5.514   3.061   2.656
 3085TIP3    H1 9212   5.594   3.083   2.606
 3085TIP3    H2 9213   5.479   3.146   2.682
 3086TIP3   OH2 9214   6.831   3.530   4.892
 3086TIP3    H1 9215   6.819   3.535   4.987
 3086TIP3    H2 9216   6.775   3.599   4.856
 3087TIP3   OH2 9217   6.069   5.805   5.824
 3087TIP3    H1 9218   6.126   5.746   5.873
 3087TIP3    H2 9219   5.987   5.807   5.874
 3088TIP3   OH2 9220   1.351   5.872   4.838
 3088TIP3    H1 9221   1.275   5.853   4.782
 3088TIP3    H2 9222   1.419   5.811   4.808
 3089TIP3   OH2 9223   3.806   7.307   3.370
 3089TIP3    H1 9224   3.752   7.358   3.310
 3089TIP3    H2 9225   3.747   7.283   3.442
 3090TIP3   OH2 9226   4.086   7.365   0.507
 3090TIP3    H1 9227   4.129   7.377   0.592
 3090TIP3    H2 9228   4.021   7.297   0.522
 3091TIP3   OH2 9229   4.963   2.284   2.228
 3091TIP3    H1 9230   4.905   2.298   2.303
 3091TIP3    H2 9231   5.051   2.280   2.266
 3092TIP3   OH2 9232   0.803   5.747   0.197
 3092TIP3    H1 9233   0.766   5.758   0.109
 3092TIP3    H2 9234   0.795   5.653   0.215
 3093TIP3   OH2 9235   6.588   3.681   1.604
 3093TIP3    H1 9236   6.613   3.618   1.672
 3093TIP3    H2 9237   6.668   3.728   1.584
 3094TIP3   OH2 9238   6.631   1.773   3.784
 3094TIP3    H1 9239   6.613   1.709   3.853
 3094TIP3    H2 9240   6.722   1.758   3.760
 3095TIP3   OH2 9241   3.330   6.628   1.234
 3095TIP3    H1 9242   3.403   6.690   1.230
 3095TIP3    H2 9243   3.276   6.648   1.158
 3096TIP3   OH2 9244   7.939   5.007   4.105
 3096TIP3    H1 9245   7.895   4.964   4.178
 3096TIP3    H2 9246   7.887   5.084   4.086
 3097TIP3   OH2 9247   6.287   1.511   0.253
 3097TIP3    H1 9248   6.276   1.525   0.347
 3097TIP3    H2 9249   6.270   1.418   0.241
 3098TIP3   OH2 9250   3.603   0.493   1.441
 3098TIP3    H1 9251   3.533   0.460   1.497
 3098TIP3    H2 9252   3.607   0.430   1.369
 3099TIP3   OH2 9253   0.488   5.877   3.249
 3099TIP3    H1 9254   0.478   5.859   3.155
 3099TIP3    H2 9255   0.575   5.918   3.256
 3100TIP3   OH2 9256   2.094   6.930   5.672
 3100TIP3    H1 9257   2.146   6.920   5.592
 3100TIP3    H2 9258   2.138   6.875   5.736
 3101TIP3   OH2 9259   2.572   5.367   2.247
 3101TIP3    H1 9260   2.611   5.280   2.243
 3101TIP3    H2 9261   2.646   5.426   2.260
 3102TIP3   OH2 9262   5.678   2.455   2.987
 3102TIP3    H1 9263   5.620   2.405   3.045
 3102TIP3    H2 9264   5.760   2.404   2.986
 3103TIP3   OH2 9265   7.753   4.096   1.402
 3103TIP3    H1 9266   7.709   4.182   1.402
 3103TIP3    H2 9267   7.695   4.040   1.453
 3104TIP3   OH2 9268   6.367   2.595   1.848
 3104TIP3    H1 9269   6.274   2.574   1.844
 3104TIP3    H2 9270   6.399   2.581   1.759
 3105TIP3   OH2 9271   0.300   1.255   6.138
 3105TIP3    H1 9272   0.240   1.232   6.066
 3105TIP3    H2 9273   0.325   1.170   6.175
 3106TIP3   OH2 9274   2.567   2.688   6.007
 3106TIP3    H1 9275   2.565   2.652   5.918
 3106TIP3    H2 9276   2.655   2.726   6.015
 3107TIP3   OH2 9277   2.172   5.948   3.457
 3107TIP3    H1 9278   2.152   6.012   3.525
 3107TIP3    H2 9279   2.242   5.988   3.406
 3108TIP3   OH2 9280   4.377   4.379   0.482
 3108TIP3    H1 9281   4.436   4.445   0.518
 3108TIP3    H2 9282   4.407   4.366   0.392
 3109TIP3   OH2 9283   6.018   6.445   3.470
 3109TIP3    H1 9284   6.060   6.459   3.386
 3109TIP3    H2 9285   6.071   6.377   3.513
 3110TIP3   OH2 9286   5.230   0.375   5.195
 3110TIP3    H1 9287   5.322   0.402   5.201
 3110TIP3    H2 9288   5.218   0.315   5.268
 3111TIP3   OH2 9289   8.003   6.017   6.475
 3111TIP3    H1 9290   8.058   5.944   6.449
 3111TIP3    H2 9291   7.913   5.986   6.463
 3112TIP3   OH2 9292   5.662   0.154   2.702
 3112TIP3    H1 9293   5.724   0.216   2.741
 3112TIP3    H2 9294   5.680   0.071   2.745
 3113TIP3   OH2 9295   4.203   1.497   2.650
 3113TIP3    H1 9296   4.232   1.437   2.719
 3113TIP3    H2 9297   4.114   1.521   2.675
 3114TIP3   OH2 9298   3.851   5.222   6.600
 3114TIP3    H1 9299   3.773   5.167   6.591
 3114TIP3    H2 9300   3.826   5.288   6.665
 3115TIP3   OH2 9301   5.380   5.928   5.251
 3115TIP3    H1 9302   5.437   5.988   5.204
 3115TIP3    H2 9303   5.414   5.927   5.340
 3116TIP3   OH2 9304   5.884   5.911   0.458
 3116TIP3    H1 9305   5.826   5.905   0.534
 3116TIP3    H2 9306   5.949   5.842   0.472
 3117TIP3   OH2 9307   5.684   2.231   5.010
 3117TIP3    H1 9308   5.749   2.276   4.956
 3117TIP3    H2 9309   5.600   2.267   4.981
 3118TIP3   OH2 9310   4.969   7.178   0.678
 3118TIP3    H1 9311   4.925   7.180   0.593
 3118TIP3    H2 9312   4.933   7.253   0.726
 3119TIP3   OH2 9313   3.424   4.044   1.334
 3119TIP3    H1 9314   3.417   3.952   1.360
 3119TIP3    H2 9315   3.470   4.086   1.407
 3120TIP3   OH2 9316   5.181   6.225   1.327
 3120TIP3    H1 9317   5.223   6.170   1.261
 3120TIP3    H2 9318   5.244   6.231   1.398
 3121TIP3   OH2 9319   2.366   3.674   3.631
 3121TIP3    H1 9320   2.324   3.592   3.607
 3121TIP3    H2 9321   2.408   3.655   3.716
 3122TIP3   OH2 9322   7.352   6.070  -0.012
 3122TIP3    H1 9323   7.278   6.109   0.035
 3122TIP3    H2 9324   7.406   6.031   0.056
 3123TIP3   OH2 9325   0.627   1.276   2.000
 3123TIP3    H1 9326   0.722   1.276   1.997
 3123TIP3    H2 9327   0.601   1.340   1.934
 3124TIP3   OH2 9328   2.357   4.688   5.296
 3124TIP3    H1 9329   2.319   4.600   5.290
 3124TIP3    H2 9330   2.283   4.743   5.323
 3125TIP3   OH2 9331   5.838   7.044   3.630
 3125TIP3    H1 9332   5.895   6.968   3.615
 3125TIP3    H2 9333   5.752   7.006   3.645
 3126TIP3   OH2 9334   6.513   2.490   6.717
 3126TIP3    H1 9335   6.604   2.479   6.691
 3126TIP3    H2 9336   6.517   2.521   6.807
 3127TIP3   OH2 9337   6.338   6.096   1.534
 3127TIP3    H1 9338   6.380   6.179   1.514
 3127TIP3    H2 9339   6.316   6.058   1.448
 3128TIP3   OH2 9340   2.784   6.647   4.284
 3128TIP3    H1 9341   2.747   6.658   4.371
 3128TIP3    H2 9342   2.714   6.606   4.233
 3129TIP3   OH2 9343   3.919   6.818   0.729
 3129TIP3    H1 9344   3.977   6.835   0.803
 3129TIP3    H2 9345   3.847   6.767   0.766
 3130TIP3   OH2 9346   6.585   0.957   1.731
 3130TIP3    H1 9347   6.517   0.975   1.796
 3130TIP3    H2 9348   6.543   0.978   1.647
 3131TIP3   OH2 9349   5.498   7.512   6.344
 3131TIP3    H1 9350   5.565   7.444   6.355
 3131TIP3    H2 9351   5.425   7.482   6.399
 3132TIP3   OH2 9352   5.782   2.725   0.687
 3132TIP3    H1 9353   5.843   2.761   0.622
 3132TIP3    H2 9354   5.700   2.716   0.640
 3133TIP3   OH2 9355   2.668   6.338   5.259
 3133TIP3    H1 9356   2.743   6.289   5.292
 3133TIP3    H2 9357   2.692   6.430   5.274
 3134TIP3   OH2 9358   1.883   0.260   3.372
 3134TIP3    H1 9359   1.821   0.286   3.304
 3134TIP3    H2 9360   1.963   0.308   3.353
 3135TIP3   OH2 9361   1.892   3.419   6.356
 3135TIP3    H1 9362   1.946   3.446   6.431
 3135TIP3    H2 9363   1.803   3.444   6.381
 3136TIP3   OH2 9364   3.274   3.477   2.737
 3136TIP3    H1 9365   3.349   3.515   2.690
 3136TIP3    H2 9366   3.199   3.531   2.710
 3137TIP3   OH2 9367   2.733   3.051   6.150
 3137TIP3    H1 9368   2.749   2.979   6.211
 3137TIP3    H2 9369   2.642   3.041   6.123
 3138TIP3   OH2 9370   2.074   2.580   0.945
 3138TIP3    H1 9371   2.090   2.594   1.038
 3138TIP3    H2 9372   2.159   2.593   0.904
 3139TIP3   OH2 9373   3.042   5.930   1.545
 3139TIP3    H1 9374   3.116   5.982   1.576
 3139TIP3    H2 9375   2.965   5.985   1.563
 3140TIP3   OH2 9376   6.371   1.067   5.830
 3140TIP3    H1 9377   6.308   1.058   5.901
 3140TIP3    H2 9378   6.452   1.028   5.863
 3141TIP3   OH2 9379   5.780   6.190   1.729
 3141TIP3    H1 9380   5.817   6.190   1.817
 3141TIP3    H2 9381   5.856   6.185   1.671
 3142TIP3   OH2 9382   7.755   7.223   0.394
 3142TIP3    H1 9383   7.767   7.136   0.433
 3142TIP3    H2 9384   7.784   7.283   0.463
 3143TIP3   OH2 9385   7.632   6.039   1.285
 3143TIP3    H1 9386   7.690   6.051   1.209
 3143TIP3    H2 9387   7.593   5.952   1.271
 3144TIP3   OH2 9388   6.777   3.996   3.577
 3144TIP3    H1 9389   6.707   3.968   3.636
 3144TIP3    H2 9390   6.836   4.046   3.632
 3145TIP3   OH2 9391   6.523  -0.023   1.616
 3145TIP3    H1 9392   6.498  -0.013   1.524
 3145TIP3    H2 9393   6.571   0.057   1.636
 3146TIP3   OH2 9394   6.348   1.280   1.827
 3146TIP3    H1 9395   6.328   1.282   1.920
 3146TIP3    H2 9396   6.397   1.198   1.815
 3147TIP3   OH2 9397   0.393   2.707   6.405
 3147TIP3    H1 9398   0.444   2.646   6.353
 3147TIP3    H2 9399   0.450   2.731   6.478
 3148TIP3   OH2 9400   0.990   7.395   6.790
 3148TIP3    H1 9401   1.004   7.324   6.728
 3148TIP3    H2 9402   1.076   7.407   6.832
 3149TIP3   OH2 9403   3.470   4.724   3.653
 3149TIP3    H1 9404   3.535   4.770   3.705
 3149TIP3    H2 9405   3.485   4.631   3.673
 3150TIP3   OH2 9406   3.377   7.396   1.248
 3150TIP3    H1 9407   3.417   7.325   1.298
 3150TIP3    H2 9408   3.285   7.395   1.273
 3151TIP3   OH2 9409   6.615   6.347   5.070
 3151TIP3    H1 9410   6.683   6.293   5.111
 3151TIP3    H2 9411   6.547   6.285   5.045
 3152TIP3   OH2 9412   2.528   6.795   1.032
 3152TIP3    H1 9413   2.579   6.836   0.962
 3152TIP3    H2 9414   2.541   6.851   1.108
 3153TIP3   OH2 9415   2.288   6.869   5.866
 3153TIP3    H1 9416   2.315   6.816   5.791
 3153TIP3    H2 9417   2.353   6.938   5.871
 3154TIP3   OH2 9418   5.400   2.247   0.645
 3154TIP3    H1 9419   5.474   2.265   0.587
 3154TIP3    H2 9420   5.407   2.154   0.665
 3155TIP3   OH2 9421   7.883   1.802   3.523
 3155TIP3    H1 9422   7.866   1.760   3.439
 3155TIP3    H2 9423   7.937   1.739   3.571
 3156TIP3   OH2 9424   1.126   4.544   2.871
 3156TIP3    H1 9425   1.161   4.575   2.788
 3156TIP3    H2 9426   1.067   4.614   2.900
 3157TIP3   OH2 9427   2.654   1.368   2.176
 3157TIP3    H1 9428   2.629   1.459   2.192
 3157TIP3    H2 9429   2.608   1.344   2.096
 3158TIP3   OH2 9430   6.508   7.502   2.251
 3158TIP3    H1 9431   6.476   7.430   2.305
 3158TIP3    H2 9432   6.462   7.579   2.283
 3159TIP3   OH2 9433   4.294   7.247   2.018
 3159TIP3    H1 9434   4.295   7.292   2.103
 3159TIP3    H2 9435   4.235   7.172   2.031
 3160TIP3   OH2 9436   1.202   1.843   2.041
 3160TIP3    H1 9437   1.212   1.935   2.017
 3160TIP3    H2 9438   1.282   1.822   2.090
 3161TIP3   OH2 9439   7.495   6.402   0.631
 3161TIP3    H1 9440   7.472   6.317   0.594
 3161TIP3    H2 9441   7.590   6.403   0.633
 3162TIP3   OH2 9442   3.578   6.267   0.717
 3162TIP3    H1 9443   3.666   6.242   0.691
 3162TIP3    H2 9444   3.561   6.349   0.671
 3163TIP3   OH2 9445   0.015   0.975   6.206
 3163TIP3    H1 9446   0.092   0.995   6.260
 3163TIP3    H2 9447   0.024   0.882   6.185
 3164TIP3   OH2 9448   7.271   6.833   5.738
 3164TIP3    H1 9449   7.232   6.837   5.825
 3164TIP3    H2 9450   7.360   6.865   5.750
 3165TIP3   OH2 9451   0.650   6.705   5.809
 3165TIP3    H1 9452   0.555   6.708   5.815
 3165TIP3    H2 9453   0.677   6.796   5.799
 3166TIP3   OH2 9454   0.617   0.888   6.589
 3166TIP3    H1 9455   0.698   0.840   6.604
 3166TIP3    H2 9456   0.561   0.866   6.663
 3167TIP3   OH2 9457   0.212   1.292   6.753
 3167TIP3    H1 9458   0.202   1.334   6.839
 3167TIP3    H2 9459   0.306   1.290   6.738
 3168TIP3   OH2 9460   2.276   0.555   1.187
 3168TIP3    H1 9461   2.306   0.549   1.096
 3168TIP3    H2 9462   2.336   0.499   1.236
 3169TIP3   OH2 9463   6.728   6.281   4.376
 3169TIP3    H1 9464   6.706   6.216   4.310
 3169TIP3    H2 9465   6.814   6.254   4.409
 3170TIP3   OH2 9466   3.177   0.685   5.680
 3170TIP3    H1 9467   3.228   0.760   5.649
 3170TIP3    H2 9468   3.122   0.721   5.750
 3171TIP3   OH2 9469   4.988   7.289   4.640
 3171TIP3    H1 9470   4.964   7.313   4.550
 3171TIP3    H2 9471   4.987   7.194   4.640
 3172TIP3   OH2 9472   6.756   1.113   5.050
 3172TIP3    H1 9473   6.823   1.111   5.119
 3172TIP3    H2 9474   6.804   1.095   4.969
 3173TIP3   OH2 9475   3.319   6.130   2.311
 3173TIP3    H1 9476   3.232   6.119   2.272
 3173TIP3    H2 9477   3.315   6.214   2.356
 3174TIP3   OH2 9478   6.289   5.999   1.286
 3174TIP3    H1 9479   6.345   5.940   1.234
 3174TIP3    H2 9480   6.230   6.039   1.222
 3175TIP3   OH2 9481   2.021   5.711   5.952
 3175TIP3    H1 9482   2.009   5.691   5.859
 3175TIP3    H2 9483   2.113   5.691   5.970
 3176TIP3   OH2 9484   2.980   0.772   5.378
 3176TIP3    H1 9485   2.947   0.793   5.291
 3176TIP3    H2 9486   2.902   0.760   5.431
 3177TIP3   OH2 9487   3.550   6.302   5.867
 3177TIP3    H1 9488   3.534   6.212   5.897
 3177TIP3    H2 9489   3.483   6.317   5.800
 3178TIP3   OH2 9490   8.028   2.063   5.630
 3178TIP3    H1 9491   8.087   2.138   5.632
 3178TIP3    H2 9492   7.944   2.097   5.660
 3179TIP3   OH2 9493   6.346   4.971   3.092
 3179TIP3    H1 9494   6.334   4.942   3.002
 3179TIP3    H2 9495   6.441   4.970   3.105
 3180TIP3   OH2 9496   2.797   5.970   6.464
 3180TIP3    H1 9497   2.777   5.878   6.481
 3180TIP3    H2 9498   2.712   6.012   6.457
 3181TIP3   OH2 9499   3.286   6.035   6.806
 3181TIP3    H1 9500   3.352   6.053   6.739
 3181TIP3    H2 9501   3.234   5.964   6.769
 3182TIP3   OH2 9502   1.676   4.315   4.840
 3182TIP3    H1 9503   1.693   4.254   4.912
 3182TIP3    H2 9504   1.760   4.359   4.826
 3183TIP3   OH2 9505   2.770   4.446   5.608
 3183TIP3    H1 9506   2.817   4.371   5.644
 3183TIP3    H2 9507   2.820   4.523   5.638
 3184TIP3   OH2 9508   0.439   1.276   0.700
 3184TIP3    H1 9509   0.481   1.339   0.759
 3184TIP3    H2 9510   0.507   1.254   0.636
 3185TIP3   OH2 9511   2.115   2.776   3.205
 3185TIP3    H1 9512   2.158   2.857   3.177
 3185TIP3    H2 9513   2.044   2.764   3.143
 3186TIP3   OH2 9514   0.737   3.151   2.896
 3186TIP3    H1 9515   0.798   3.085   2.928
 3186TIP3    H2 9516   0.779   3.235   2.918
 3187TIP3   OH2 9517   4.363   6.385   5.292
 3187TIP3    H1 9518   4.379   6.479   5.293
 3187TIP3    H2 9519   4.444   6.346   5.261
 3188TIP3   OH2 9520   7.345   5.749   3.438
 3188TIP3    H1 9521   7.349   5.835   3.481
 3188TIP3    H2 9522   7.253   5.739   3.414
 3189TIP3   OH2 9523   7.236   7.021   0.979
 3189TIP3    H1 9524   7.287   6.956   0.932
 3189TIP3    H2 9525   7.145   6.992   0.969
 3190TIP3   OH2 9526  -0.014   6.417   4.400
 3190TIP3    H1 9527   0.077   6.400   4.377
 3190TIP3    H2 9528  -0.010   6.487   4.465
 3191TIP3   OH2 9529   5.308   4.772   4.942
 3191TIP3    H1 9530   5.354   4.696   4.979
 3191TIP3    H2 9531   5.374   4.840   4.938
 3192TIP3   OH2 9532   4.345   0.535   4.929
 3192TIP3    H1 9533   4.405   0.597   4.971
 3192TIP3    H2 9534   4.306   0.487   5.002
 3193TIP3   OH2 9535   7.470   3.506   1.194
 3193TIP3    H1 9536   7.488   3.433   1.133
 3193TIP3    H2 9537   7.432   3.463   1.271
 3194TIP3   OH2 9538   4.572   5.399   2.182
 3194TIP3    H1 9539   4.580   5.360   2.269
 3194TIP3    H2 9540   4.530   5.331   2.129
 3195TIP3   OH2 9541   7.272   7.403   2.240
 3195TIP3    H1 9542   7.309   7.491   2.243
 3195TIP3    H2 9543   7.321   7.359   2.171
 3196TIP3   OH2 9544   1.600   4.416   2.373
 3196TIP3    H1 9545   1.517   4.376   2.346
 3196TIP3    H2 9546   1.586   4.439   2.465
 3197TIP3   OH2 9547   8.248   2.228   2.367
 3197TIP3    H1 9548   8.211   2.207   2.453
 3197TIP3    H2 9549   8.225   2.153   2.313
 3198TIP3   OH2 9550   4.927   4.987   0.255
 3198TIP3    H1 9551   4.948   4.982   0.348
 3198TIP3    H2 9552   4.835   4.962   0.249
 3199TIP3   OH2 9553   7.585   5.571   2.596
 3199TIP3    H1 9554   7.501   5.551   2.555
 3199TIP3    H2 9555   7.594   5.666   2.587
 3200TIP3   OH2 9556   7.398   3.104   1.702
 3200TIP3    H1 9557   7.487   3.070   1.696
 3200TIP3    H2 9558   7.378   3.103   1.795
 3201TIP3   OH2 9559   2.582   4.967   4.981
 3201TIP3    H1 9560   2.572   5.036   4.915
 3201TIP3    H2 9561   2.523   4.993   5.052
 3202TIP3   OH2 9562   2.748   7.041   5.343
 3202TIP3    H1 9563   2.731   7.101   5.271
 3202TIP3    H2 9564   2.779   6.961   5.301
 3203TIP3   OH2 9565   8.108   6.863   5.291
 3203TIP3    H1 9566   8.073   6.779   5.264
 3203TIP3    H2 9567   8.162   6.892   5.217
 3204TIP3   OH2 9568   6.283   0.096   0.487
 3204TIP3    H1 9569   6.224   0.169   0.469
 3204TIP3    H2 9570   6.298   0.056   0.401
 3205TIP3   OH2 9571   4.843   1.509   3.326
 3205TIP3    H1 9572   4.895   1.586   3.303
 3205TIP3    H2 9573   4.865   1.491   3.417
 3206TIP3   OH2 9574   0.708   3.100   2.640
 3206TIP3    H1 9575   0.710   3.106   2.736
 3206TIP3    H2 9576   0.740   3.013   2.621
 3207TIP3   OH2 9577   6.863   4.065   1.884
 3207TIP3    H1 9578   6.887   4.078   1.792
 3207TIP3    H2 9579   6.788   4.123   1.898
 3208TIP3   OH2 9580   2.931   4.765   1.407
 3208TIP3    H1 9581   2.899   4.812   1.484
 3208TIP3    H2 9582   3.018   4.802   1.390
 3209TIP3   OH2 9583   6.956   3.514   2.736
 3209TIP3    H1 9584   6.937   3.471   2.819
 3209TIP3    H2 9585   7.048   3.493   2.718
 3210TIP3   OH2 9586   7.165   6.233   3.328
 3210TIP3    H1 9587   7.166   6.322   3.292
 3210TIP3    H2 9588   7.219   6.182   3.268
 3211TIP3   OH2 9589   5.271   1.871   3.675
 3211TIP3    H1 9590   5.355   1.840   3.709
 3211TIP3    H2 9591   5.207   1.846   3.741
 3212TIP3   OH2 9592   2.473   3.817   0.277
 3212TIP3    H1 9593   2.427   3.808   0.361
 3212TIP3    H2 9594   2.504   3.908   0.276
 3213TIP3   OH2 9595   2.845   7.065   1.120
 3213TIP3    H1 9596   2.875   7.040   1.033
 3213TIP3    H2 9597   2.889   7.148   1.138
 3214TIP3   OH2 9598   2.420   3.823   6.696
 3214TIP3    H1 9599   2.406   3.903   6.646
 3214TIP3    H2 9600   2.475   3.849   6.769
 3215TIP3   OH2 9601   3.621   3.301   6.075
 3215TIP3    H1 9602   3.571   3.237   6.025
 3215TIP3    H2 9603   3.568   3.318   6.153
 3216TIP3   OH2 9604   6.123   1.056   0.701
 3216TIP3    H1 9605   6.070   1.054   0.621
 3216TIP3    H2 9606   6.210   1.026   0.673
 3217TIP3   OH2 9607   1.059   4.844   4.727
 3217TIP3    H1 9608   1.068   4.903   4.801
 3217TIP3    H2 9609   1.145   4.803   4.718
 3218TIP3   OH2 9610   6.514   6.573   3.397
 3218TIP3    H1 9611   6.519   6.610   3.309
 3218TIP3    H2 9612   6.504   6.479   3.383
 3219TIP3   OH2 9613   4.617   5.056   2.261
 3219TIP3    H1 9614   4.674   5.132   2.251
 3219TIP3    H2 9615   4.639   5.020   2.347
 3220TIP3   OH2 9616   2.240   7.837   0.823
 3220TIP3    H1 9617   2.199   7.795   0.747
 3220TIP3    H2 9618   2.324   7.792   0.833
 3221TIP3   OH2 9619   1.529   2.259   2.108
 3221TIP3    H1 9620   1.512   2.292   2.196
 3221TIP3    H2 9621   1.621   2.278   2.092
 3222TIP3   OH2 9622   3.397   5.529   3.475
 3222TIP3    H1 9623   3.312   5.522   3.431
 3222TIP3    H2 9624   3.381   5.495   3.563
 3223TIP3   OH2 9625   3.862   4.166   2.151
 3223TIP3    H1 9626   3.953   4.159   2.182
 3223TIP3    H2 9627   3.856   4.255   2.116
 3224TIP3   OH2 9628   7.026   0.605   0.056
 3224TIP3    H1 9629   6.988   0.573   0.138
 3224TIP3    H2 9630   7.072   0.686   0.080
 3225TIP3   OH2 9631   1.106   0.803   0.693
 3225TIP3    H1 9632   1.012   0.821   0.681
 3225TIP3    H2 9633   1.135   0.870   0.755
 3226TIP3   OH2 9634   2.255   6.979   3.081
 3226TIP3    H1 9635   2.215   7.010   3.163
 3226TIP3    H2 9636   2.309   6.905   3.107
 3227TIP3   OH2 9637   6.606   6.316   6.506
 3227TIP3    H1 9638   6.633   6.243   6.451
 3227TIP3    H2 9639   6.632   6.290   6.595
 3228TIP3   OH2 9640   5.095   3.473   5.226
 3228TIP3    H1 9641   5.047   3.493   5.306
 3228TIP3    H2 9642   5.183   3.450   5.257
 3229TIP3   OH2 9643   1.488   7.627   3.220
 3229TIP3    H1 9644   1.547   7.553   3.238
 3229TIP3    H2 9645   1.539   7.684   3.163
 3230TIP3   OH2 9646   2.441   2.185   4.108
 3230TIP3    H1 9647   2.395   2.135   4.041
 3230TIP3    H2 9648   2.513   2.128   4.135
 3231TIP3   OH2 9649   5.304   1.452   1.863
 3231TIP3    H1 9650   5.215   1.430   1.837
 3231TIP3    H2 9651   5.307   1.434   1.957
 3232TIP3   OH2 9652   4.186   2.487   1.854
 3232TIP3    H1 9653   4.132   2.420   1.812
 3232TIP3    H2 9654   4.256   2.504   1.790
 3233TIP3   OH2 9655   8.118   2.305   0.994
 3233TIP3    H1 9656   8.108   2.329   0.902
 3233TIP3    H2 9657   8.094   2.212   0.997
 3234TIP3   OH2 9658   7.412   7.270   3.563
 3234TIP3    H1 9659   7.474   7.231   3.501
 3234TIP3    H2 9660   7.466   7.300   3.636
 3235TIP3   OH2 9661   3.549   1.681   4.245
 3235TIP3    H1 9662   3.595   1.764   4.246
 3235TIP3    H2 9663   3.476   1.693   4.306
 3236TIP3   OH2 9664   6.153   4.364   0.198
 3236TIP3    H1 9665   6.123   4.348   0.287
 3236TIP3    H2 9666   6.132   4.456   0.181
 3237TIP3   OH2 9667   0.764   6.733   0.234
 3237TIP3    H1 9668   0.736   6.657   0.183
 3237TIP3    H2 9669   0.781   6.697   0.322
 3238TIP3   OH2 9670   5.526   5.783   4.940
 3238TIP3    H1 9671   5.571   5.752   5.018
 3238TIP3    H2 9672   5.552   5.875   4.932
 3239TIP3   OH2 9673   6.502   3.494   5.790
 3239TIP3    H1 9674   6.478   3.574   5.837
 3239TIP3    H2 9675   6.488   3.516   5.697
 3240TIP3   OH2 9676   7.966   3.737   1.878
 3240TIP3    H1 9677   7.980   3.818   1.927
 3240TIP3    H2 9678   7.956   3.766   1.787
 3241TIP3   OH2 9679   5.979   4.209   0.729
 3241TIP3    H1 9680   5.982   4.162   0.812
 3241TIP3    H2 9681   5.897   4.259   0.733
 3242TIP3   OH2 9682   1.881   2.067   5.089
 3242TIP3    H1 9683   1.928   2.015   5.024
 3242TIP3    H2 9684   1.927   2.152   5.088
 3243TIP3   OH2 9685   0.385   7.456   0.617
 3243TIP3    H1 9686   0.298   7.456   0.657
 3243TIP3    H2 9687   0.416   7.366   0.626
 3244TIP3   OH2 9688   3.453   5.829   3.244
 3244TIP3    H1 9689   3.494   5.744   3.256
 3244TIP3    H2 9690   3.381   5.830   3.307
 3245TIP3   OH2 9691   3.430   1.956   5.361
 3245TIP3    H1 9692   3.420   2.050   5.375
 3245TIP3    H2 9693   3.472   1.949   5.275
 3246TIP3   OH2 9694   3.904   0.048   0.454
 3246TIP3    H1 9695   3.964   0.067   0.381
 3246TIP3    H2 9696   3.954  -0.009   0.512
 3247TIP3   OH2 9697   5.950   1.135   0.199
 3247TIP3    H1 9698   5.918   1.056   0.156
 3247TIP3    H2 9699   5.883   1.201   0.182
 3248TIP3   OH2 9700   5.357   3.847   3.324
 3248TIP3    H1 9701   5.348   3.752   3.321
 3248TIP3    H2 9702   5.274   3.881   3.292
 3249TIP3   OH2 9703   2.250   7.458   4.972
 3249TIP3    H1 9704   2.237   7.531   5.033
 3249TIP3    H2 9705   2.307   7.493   4.904
 3250TIP3   OH2 9706   0.181   3.697   6.041
 3250TIP3    H1 9707   0.169   3.758   6.113
 3250TIP3    H2 9708   0.132   3.619   6.067
 3251TIP3   OH2 9709   8.099   4.302   2.453
 3251TIP3    H1 9710   8.070   4.315   2.362
 3251TIP3    H2 9711   8.048   4.227   2.484
 3252TIP3   OH2 9712   3.998   7.510   2.242
 3252TIP3    H1 9713   4.077   7.548   2.204
 3252TIP3    H2 9714   3.976   7.569   2.314
 3253TIP3   OH2 9715   2.951   5.095   2.680
 3253TIP3    H1 9716   3.033   5.059   2.713
 3253TIP3    H2 9717   2.977   5.174   2.632
 3254TIP3   OH2 9718   7.512   1.305   6.103
 3254TIP3    H1 9719   7.555   1.322   6.019
 3254TIP3    H2 9720   7.513   1.390   6.147
 3255TIP3   OH2 9721   6.288   1.883   3.875
 3255TIP3    H1 9722   6.232   1.808   3.892
 3255TIP3    H2 9723   6.361   1.873   3.935
 3256TIP3   OH2 9724   5.597   7.667   2.334
 3256TIP3    H1 9725   5.572   7.674   2.242
 3256TIP3    H2 9726   5.688   7.636   2.332
 3257TIP3   OH2 9727   7.727   4.477   2.972
 3257TIP3    H1 9728   7.779   4.397   2.983
 3257TIP3    H2 9729   7.789   4.542   2.940
 3258TIP3   OH2 9730   6.727   0.159   1.832
 3258TIP3    H1 9731   6.808   0.157   1.782
 3258TIP3    H2 9732   6.749   0.115   1.914
 3259TIP3   OH2 9733   5.572   3.804   3.549
 3259TIP3    H1 9734   5.489   3.832   3.510
 3259TIP3    H2 9735   5.599   3.730   3.495
 3260TIP3   OH2 9736   3.021   3.494   1.437
 3260TIP3    H1 9737   3.052   3.429   1.500
 3260TIP3    H2 9738   2.951   3.450   1.389
 3261TIP3   OH2 9739   7.765   2.173   2.165
 3261TIP3    H1 9740   7.818   2.202   2.239
 3261TIP3    H2 9741   7.820   2.185   2.088
 3262TIP3   OH2 9742   2.744   0.036   1.063
 3262TIP3    H1 9743   2.741   0.006   0.973
 3262TIP3    H2 9744   2.653   0.057   1.085
 3263TIP3   OH2 9745   5.933   5.524   2.719
 3263TIP3    H1 9746   5.971   5.583   2.653
 3263TIP3    H2 9747   5.840   5.546   2.720
 3264TIP3   OH2 9748   3.722   7.132   6.470
 3264TIP3    H1 9749   3.632   7.155   6.450
 3264TIP3    H2 9750   3.762   7.115   6.385
 3265TIP3   OH2 9751   0.576   2.116   3.766
 3265TIP3    H1 9752   0.643   2.048   3.766
 3265TIP3    H2 9753   0.563   2.137   3.858
 3266TIP3   OH2 9754   0.420   0.615   3.970
 3266TIP3    H1 9755   0.332   0.578   3.977
 3266TIP3    H2 9756   0.420   0.689   4.031
 3267TIP3   OH2 9757   0.003   3.813   1.760
 3267TIP3    H1 9758  -0.065   3.831   1.695
 3267TIP3    H2 9759   0.069   3.764   1.711
 3268TIP3   OH2 9760   1.239   0.590   5.739
 3268TIP3    H1 9761   1.319   0.640   5.722
 3268TIP3    H2 9762   1.214   0.555   5.653
 3269TIP3   OH2 9763   4.792   4.235   2.119
 3269TIP3    H1 9764   4.840   4.317   2.120
 3269TIP3    H2 9765   4.828   4.187   2.044
 3270TIP3   OH2 9766   1.611   1.581   1.622
 3270TIP3    H1 9767   1.650   1.497   1.649
 3270TIP3    H2 9768   1.679   1.625   1.572
 3271TIP3   OH2 9769   0.091   1.205   2.832
 3271TIP3    H1 9770   0.103   1.145   2.906
 3271TIP3    H2 9771   0.058   1.151   2.761
 3272TIP3   OH2 9772   8.142   6.086   5.955
 3272TIP3    H1 9773   8.205   6.077   5.883
 3272TIP3    H2 9774   8.197   6.091   6.034
 3273TIP3   OH2 9775   0.600   0.949   3.824
 3273TIP3    H1 9776   0.550   0.985   3.897
 3273TIP3    H2 9777   0.648   1.024   3.788
 3274TIP3   OH2 9778   0.061   5.558   0.537
 3274TIP3    H1 9779   0.110   5.493   0.587
 3274TIP3    H2 9780   0.127   5.615   0.499
 3275TIP3   OH2 9781   4.567   1.306   1.815
 3275TIP3    H1 9782   4.503   1.241   1.785
 3275TIP3    H2 9783   4.514   1.382   1.840
 3276TIP3   OH2 9784   8.196   5.773   6.045
 3276TIP3    H1 9785   8.239   5.804   5.965
 3276TIP3    H2 9786   8.104   5.795   6.033
 3277TIP3   OH2 9787   0.935   0.395   2.398
 3277TIP3    H1 9788   0.868   0.349   2.449
 3277TIP3    H2 9789   1.017   0.373   2.441
 3278TIP3   OH2 9790   3.059   5.297   5.915
 3278TIP3    H1 9791   3.102   5.212   5.921
 3278TIP3    H2 9792   3.130   5.358   5.892
 3279TIP3   OH2 9793   6.158   1.108   6.064
 3279TIP3    H1 9794   6.125   1.189   6.104
 3279TIP3    H2 9795   6.081   1.070   6.021
 3280TIP3   OH2 9796   2.880   4.963   5.972
 3280TIP3    H1 9797   2.953   5.023   5.959
 3280TIP3    H2 9798   2.807   5.019   5.997
 3281TIP3   OH2 9799   1.539   4.033   6.744
 3281TIP3    H1 9800   1.483   4.107   6.768
 3281TIP3    H2 9801   1.622   4.073   6.719
 3282TIP3   OH2 9802   1.947   1.554   4.054
 3282TIP3    H1 9803   1.935   1.609   4.131
 3282TIP3    H2 9804   1.858   1.531   4.027
 3283TIP3   OH2 9805   6.818   0.218   5.152
 3283TIP3    H1 9806   6.725   0.233   5.167
 3283TIP3    H2 9807   6.822   0.164   5.073
 3284TIP3   OH2 9808   5.144   6.502   5.713
 3284TIP3    H1 9809   5.190   6.502   5.629
 3284TIP3    H2 9810   5.166   6.417   5.752
 3285TIP3   OH2 9811   1.561   4.786   0.432
 3285TIP3    H1 9812   1.542   4.705   0.480
 3285TIP3    H2 9813   1.650   4.808   0.457
 3286TIP3   OH2 9814   7.266   5.251   2.284
 3286TIP3    H1 9815   7.344   5.196   2.286
 3286TIP3    H2 9816   7.257   5.277   2.193
 3287TIP3   OH2 9817   3.326   7.505   1.893
 3287TIP3    H1 9818   3.327   7.547   1.979
 3287TIP3    H2 9819   3.355   7.574   1.833
 3288TIP3   OH2 9820   4.740   4.337   2.487
 3288TIP3    H1 9821   4.829   4.314   2.462
 3288TIP3    H2 9822   4.709   4.393   2.416
 3289TIP3   OH2 9823   2.919   0.606   0.164
 3289TIP3    H1 9824   2.852   0.650   0.112
 3289TIP3    H2 9825   2.876   0.525   0.195
 3290TIP3   OH2 9826   6.983   2.216   1.782
 3290TIP3    H1 9827   7.045   2.213   1.854
 3290TIP3    H2 9828   7.035   2.200   1.704
 3291TIP3   OH2 9829   1.579   3.771   1.971
 3291TIP3    H1 9830   1.487   3.748   1.980
 3291TIP3    H2 9831   1.592   3.843   2.032
 3292TIP3   OH2 9832   1.228   5.852   3.073
 3292TIP3    H1 9833   1.200   5.938   3.103
 3292TIP3    H2 9834   1.154   5.794   3.094
 3293TIP3   OH2 9835   2.427   2.860   2.489
 3293TIP3    H1 9836   2.506   2.823   2.529
 3293TIP3    H2 9837   2.426   2.951   2.517
 3294TIP3   OH2 9838   3.189   7.375   5.550
 3294TIP3    H1 9839   3.196   7.280   5.559
 3294TIP3    H2 9840   3.212   7.393   5.459
 3295TIP3   OH2 9841   5.541   2.153   5.346
 3295TIP3    H1 9842   5.517   2.091   5.415
 3295TIP3    H2 9843   5.634   2.171   5.361
 3296TIP3   OH2 9844   2.699   4.904   0.553
 3296TIP3    H1 9845   2.656   4.963   0.492
 3296TIP3    H2 9846   2.791   4.928   0.549
 3297TIP3   OH2 9847   5.212   6.139   1.762
 3297TIP3    H1 9848   5.159   6.202   1.809
 3297TIP3    H2 9849   5.302   6.156   1.791
 3298TIP3   OH2 9850   3.640   5.397   2.293
 3298TIP3    H1 9851   3.613   5.476   2.341
 3298TIP3    H2 9852   3.559   5.360   2.261
 3299TIP3   OH2 9853   2.842   7.109   5.023
 3299TIP3    H1 9854   2.808   7.047   4.959
 3299TIP3    H2 9855   2.791   7.189   5.009
 3300TIP3   OH2 9856   1.959   6.041   3.246
 3300TIP3    H1 9857   1.905   5.971   3.210
 3300TIP3    H2 9858   2.027   5.995   3.296
 3301TIP3   OH2 9859   7.472   1.366   5.187
 3301TIP3    H1 9860   7.512   1.424   5.122
 3301TIP3    H2 9861   7.427   1.426   5.247
 3302TIP3   OH2 9862   0.477   3.812   4.781
 3302TIP3    H1 9863   0.383   3.804   4.800
 3302TIP3    H2 9864   0.509   3.873   4.848
 3303TIP3   OH2 9865   5.533   6.940   0.903
 3303TIP3    H1 9866   5.599   6.938   0.834
 3303TIP3    H2 9867   5.485   7.022   0.888
 3304TIP3   OH2 9868   4.548   6.317   1.190
 3304TIP3    H1 9869   4.590   6.251   1.135
 3304TIP3    H2 9870   4.566   6.400   1.146
 3305TIP3   OH2 9871   6.916   6.151   5.528
 3305TIP3    H1 9872   6.833   6.164   5.575
 3305TIP3    H2 9873   6.922   6.225   5.468
 3306TIP3   OH2 9874   2.169   0.665   6.677
 3306TIP3    H1 9875   2.149   0.596   6.740
 3306TIP3    H2 9876   2.170   0.745   6.729
 3307TIP3   OH2 9877   1.008   1.826   0.410
 3307TIP3    H1 9878   1.043   1.910   0.378
 3307TIP3    H2 9879   0.997   1.840   0.504
 3308TIP3   OH2 9880   7.521   6.942   4.861
 3308TIP3    H1 9881   7.541   6.982   4.945
 3308TIP3    H2 9882   7.429   6.917   4.867
 3309TIP3   OH2 9883   3.075   0.219   5.096
 3309TIP3    H1 9884   3.139   0.150   5.080
 3309TIP3    H2 9885   3.116   0.299   5.062
 3310TIP3   OH2 9886   4.520   7.113   4.087
 3310TIP3    H1 9887   4.444   7.059   4.065
 3310TIP3    H2 9888   4.482   7.195   4.119
 3311TIP3   OH2 9889   1.495   2.920   5.775
 3311TIP3    H1 9890   1.491   2.910   5.870
 3311TIP3    H2 9891   1.538   3.005   5.761
 3312TIP3   OH2 9892   0.818   3.417   6.073
 3312TIP3    H1 9893   0.907   3.385   6.055
 3312TIP3    H2 9894   0.774   3.343   6.114
 3313TIP3   OH2 9895   4.647   0.678   3.714
 3313TIP3    H1 9896   4.616   0.643   3.798
 3313TIP3    H2 9897   4.742   0.665   3.717
 3314TIP3   OH2 9898   7.494   0.293   4.483
 3314TIP3    H1 9899   7.531   0.216   4.527
 3314TIP3    H2 9900   7.567   0.356   4.480
 3315TIP3   OH2 9901   5.631   5.653   1.572
 3315TIP3    H1 9902   5.662   5.679   1.486
 3315TIP3    H2 9903   5.684   5.576   1.595
 3316TIP3   OH2 9904   4.555   5.684   1.649
 3316TIP3    H1 9905   4.609   5.709   1.574
 3316TIP3    H2 9906   4.602   5.611   1.689
 3317TIP3   OH2 9907   3.714   0.255   1.755
 3317TIP3    H1 9908   3.734   0.343   1.723
 3317TIP3    H2 9909   3.715   0.200   1.677
 3318TIP3   OH2 9910   4.561   7.294   0.345
 3318TIP3    H1 9911   4.566   7.377   0.394
 3318TIP3    H2 9912   4.477   7.257   0.372
 3319TIP3   OH2 9913   2.882   3.725   0.698
 3319TIP3    H1 9914   2.953   3.752   0.639
 3319TIP3    H2 9915   2.802   3.757   0.656
 3320TIP3   OH2 9916   1.283   1.961   1.138
 3320TIP3    H1 9917   1.273   2.050   1.174
 3320TIP3    H2 9918   1.377   1.946   1.136
 3321TIP3   OH2 9919   2.483   1.270   4.745
 3321TIP3    H1 9920   2.415   1.288   4.680
 3321TIP3    H2 9921   2.549   1.218   4.699
 3322TIP3   OH2 9922   3.841   5.371   0.418
 3322TIP3    H1 9923   3.911   5.423   0.379
 3322TIP3    H2 9924   3.875   5.282   0.418
 3323TIP3   OH2 9925   5.582   3.741   0.835
 3323TIP3    H1 9926   5.660   3.703   0.793
 3323TIP3    H2 9927   5.560   3.816   0.779
 3324TIP3   OH2 9928   1.773   4.479   2.679
 3324TIP3    H1 9929   1.717   4.496   2.755
 3324TIP3    H2 9930   1.770   4.384   2.668
 3325TIP3   OH2 9931   1.316   3.841   5.090
 3325TIP3    H1 9932   1.386   3.893   5.051
 3325TIP3    H2 9933   1.361   3.788   5.156
 3326TIP3   OH2 9934   6.622   1.906   6.569
 3326TIP3    H1 9935   6.708   1.884   6.607
 3326TIP3    H2 9936   6.643   1.955   6.490
 3327TIP3   OH2 9937   6.838   3.744   1.473
 3327TIP3    H1 9938   6.850   3.838   1.484
 3327TIP3    H2 9939   6.806   3.734   1.383
 3328TIP3   OH2 9940   1.054   7.389   5.017
 3328TIP3    H1 9941   1.106   7.312   5.040
 3328TIP3    H2 9942   0.974   7.381   5.070
 3329TIP3   OH2 9943   2.893   2.037   1.634
 3329TIP3    H1 9944   2.868   2.046   1.542
 3329TIP3    H2 9945   2.988   2.024   1.632
 3330TIP3   OH2 9946   5.169   2.067   4.881
 3330TIP3    H1 9947   5.151   2.017   4.960
 3330TIP3    H2 9948   5.114   2.027   4.813
 3331TIP3   OH2 9949   3.921   7.631   0.743
 3331TIP3    H1 9950   3.877   7.701   0.696
 3331TIP3    H2 9951   4.014   7.652   0.737
 3332TIP3   OH2 9952   5.808   7.748   4.253
 3332TIP3    H1 9953   5.797   7.743   4.158
 3332TIP3    H2 9954   5.800   7.657   4.283
 3333TIP3   OH2 9955   4.533   2.712   2.287
 3333TIP3    H1 9956   4.594   2.666   2.229
 3333TIP3    H2 9957   4.454   2.658   2.287
 3334TIP3   OH2 9958   2.692   0.650   1.953
 3334TIP3    H1 9959   2.634   0.597   2.008
 3334TIP3    H2 9960   2.670   0.625   1.863
 3335TIP3   OH2 9961   1.896   6.605   4.387
 3335TIP3    H1 9962   1.896   6.510   4.370
 3335TIP3    H2 9963   1.988   6.626   4.403
 3336TIP3   OH2 9964   1.848   2.933   4.700
 3336TIP3    H1 9965   1.825   2.947   4.608
 3336TIP3    H2 9966   1.808   2.848   4.721
 3337TIP3   OH2 9967   2.408   1.279   1.166
 3337TIP3    H1 9968   2.371   1.355   1.120
 3337TIP3    H2 9969   2.406   1.209   1.100
 3338TIP3   OH2 9970   6.031   6.395   1.804
 3338TIP3    H1 9971   6.116   6.393   1.761
 3338TIP3    H2 9972   5.988   6.473   1.769
 3339TIP3   OH2 9973   0.030   6.895   0.540
 3339TIP3    H1 9974  -0.061   6.906   0.568
 3339TIP3    H2 9975   0.058   6.984   0.518
 3340TIP3   OH2 9976   2.054   6.156   4.724
 3340TIP3    H1 9977   2.006   6.102   4.787
 3340TIP3    H2 9978   2.143   6.121   4.727
 3341TIP3   OH2 9979   7.450   0.615   6.604
 3341TIP3    H1 9980   7.498   0.584   6.527
 3341TIP3    H2 9981   7.406   0.537   6.639
 3342TIP3   OH2 9982   0.028   3.130   1.410
 3342TIP3    H1 9983  -0.056   3.119   1.453
 3342TIP3    H2 9984   0.093   3.122   1.480
 3343TIP3   OH2 9985   7.238   4.772   0.990
 3343TIP3    H1 9986   7.256   4.713   1.063
 3343TIP3    H2 9987   7.324   4.801   0.960
 3344TIP3   OH2 9988   3.862   4.198   3.881
 3344TIP3    H1 9989   3.943   4.235   3.916
 3344TIP3    H2 9990   3.805   4.188   3.957
 3345TIP3   OH2 9991   0.464   5.166   6.260
 3345TIP3    H1 9992   0.545   5.132   6.222
 3345TIP3    H2 9993   0.467   5.260   6.241
 3346TIP3   OH2 9994   5.025   5.610   2.926
 3346TIP3    H1 9995   5.003   5.554   3.000
 3346TIP3    H2 9996   5.057   5.691   2.965
 3347TIP3   OH2 9997   0.421   5.051   2.115
 3347TIP3    H1 9998   0.404   5.124   2.056
 3347TIP3    H2 9999   0.393   4.973   2.067
 3348TIP3   OH210000   1.539   4.662   4.155
 3348TIP3    H110001   1.560   4.646   4.063
 3348TIP3    H210002   1.466   4.604   4.174
 3349TIP3   OH210003   5.256   5.262   2.104
 3349TIP3    H110004   5.315   5.315   2.051
 3349TIP3    H210005   5.314   5.215   2.164
 3350TIP3   OH210006   7.069   5.051   4.583
 3350TIP3    H110007   7.075   4.961   4.615
 3350TIP3    H210008   6.993   5.088   4.628
 3351TIP3   OH210009   5.219   2.047   4.524
 3351TIP3    H110010   5.307   2.072   4.552
 3351TIP3    H210011   5.233   1.994   4.445
 3352TIP3   OH210012   7.157   1.328   5.312
 3352TIP3    H110013   7.227   1.293   5.258
 3352TIP3    H210014   7.154   1.269   5.387
 3353TIP3   OH210015   2.319   0.477   3.028
 3353TIP3    H110016   2.370   0.542   3.076
 3353TIP3    H210017   2.359   0.393   3.051
 3354TIP3   OH210018   5.636   7.488   3.295
 3354TIP3    H110019   5.695   7.507   3.368
 3354TIP3    H210020   5.654   7.558   3.232
 3355TIP3   OH210021   0.338   7.603   2.408
 3355TIP3    H110022   0.379   7.640   2.485
 3355TIP3    H210023   0.411   7.571   2.355
 3356TIP3   OH210024   6.569   0.473   2.250
 3356TIP3    H110025   6.650   0.442   2.209
 3356TIP3    H210026   6.591   0.484   2.342
 3357TIP3   OH210027   6.870   0.619   3.702
 3357TIP3    H110028   6.958   0.598   3.735
 3357TIP3    H210029   6.828   0.534   3.688
 3358TIP3   OH210030   6.725   1.782   1.639
 3358TIP3    H110031   6.641   1.740   1.621
 3358TIP3    H210032   6.790   1.724   1.598
 3359TIP3   OH210033   7.538   4.211   4.552
 3359TIP3    H110034   7.603   4.282   4.558
 3359TIP3    H210035   7.505   4.217   4.462
 3360TIP3   OH210036   7.039   0.574   5.454
 3360TIP3    H110037   6.980   0.614   5.390
 3360TIP3    H210038   7.002   0.601   5.539
 3361TIP3   OH210039   2.010   0.850   2.209
 3361TIP3    H110040   1.937   0.872   2.150
 3361TIP3    H210041   1.968   0.817   2.288
 3362TIP3   OH210042   1.885   2.563   1.181
 3362TIP3    H110043   1.966   2.612   1.190
 3362TIP3    H210044   1.907   2.491   1.121
 3363TIP3   OH210045   7.670   1.146   1.069
 3363TIP3    H110046   7.676   1.187   1.156
 3363TIP3    H210047   7.654   1.219   1.009
 3364TIP3   OH210048   6.889   1.022   2.454
 3364TIP3    H110049   6.868   1.019   2.361
 3364TIP3    H210050   6.804   1.037   2.497
 3365TIP3   OH210051   1.099   2.785   4.464
 3365TIP3    H110052   1.150   2.842   4.407
 3365TIP3    H210053   1.158   2.712   4.483
 3366TIP3   OH210054   5.705   6.958   2.936
 3366TIP3    H110055   5.614   6.972   2.963
 3366TIP3    H210056   5.720   6.864   2.949
 3367TIP3   OH210057   5.923   6.592   6.694
 3367TIP3    H110058   5.833   6.562   6.706
 3367TIP3    H210059   5.916   6.686   6.678
 3368TIP3   OH210060   5.626   7.271   6.038
 3368TIP3    H110061   5.601   7.208   6.106
 3368TIP3    H210062   5.695   7.323   6.079
 3369TIP3   OH210063   1.166   0.284   5.142
 3369TIP3    H110064   1.071   0.288   5.152
 3369TIP3    H210065   1.180   0.276   5.048
 3370TIP3   OH210066   0.231   6.935   6.719
 3370TIP3    H110067   0.255   7.012   6.667
 3370TIP3    H210068   0.314   6.904   6.756
 3371TIP3   OH210069   0.554   5.834   0.094
 3371TIP3    H110070   0.588   5.863   0.010
 3371TIP3    H210071   0.459   5.842   0.085
 3372TIP3   OH210072   1.688   1.007   0.314
 3372TIP3    H110073   1.627   1.039   0.247
 3372TIP3    H210074   1.714   0.920   0.282
 3373TIP3   OH210075   5.763   6.091   6.090
 3373TIP3    H110076   5.676   6.089   6.129
 3373TIP3    H210077   5.822   6.115   6.162
 3374TIP3   OH210078   3.166   0.915   4.630
 3374TIP3    H110079   3.097   0.849   4.636
 3374TIP3    H210080   3.130   0.982   4.572
 3375TIP3   OH210081   5.500   5.889   3.741
 3375TIP3    H110082   5.538   5.871   3.827
 3375TIP3    H210083   5.412   5.924   3.760
 3376TIP3   OH210084   5.812   0.515   3.242
 3376TIP3    H110085   5.846   0.477   3.161
 3376TIP3    H210086   5.886   0.512   3.303
 3377TIP3   OH210087   6.419   3.602   2.899
 3377TIP3    H110088   6.362   3.633   2.969
 3377TIP3    H210089   6.416   3.672   2.833
 3378TIP3   OH210090   7.789   2.037   3.573
 3378TIP3    H110091   7.818   1.956   3.531
 3378TIP3    H210092   7.819   2.029   3.663
 3379TIP3   OH210093   5.360   4.156   0.149
 3379TIP3    H110094   5.441   4.160   0.099
 3379TIP3    H210095   5.291   4.153   0.083
 3380TIP3   OH210096   1.475   4.230   5.870
 3380TIP3    H110097   1.498   4.161   5.932
 3380TIP3    H210098   1.462   4.184   5.787
 3381TIP3   OH210099   1.694   3.017   3.144
 3381TIP3    H110100   1.702   3.046   3.054
 3381TIP3    H210101   1.605   3.039   3.170
 3382TIP3   OH210102   3.255   4.832   1.054
 3382TIP3    H110103   3.207   4.830   1.137
 3382TIP3    H210104   3.304   4.914   1.056
 3383TIP3   OH210105   3.468   7.718   0.789
 3383TIP3    H110106   3.455   7.772   0.867
 3383TIP3    H210107   3.561   7.729   0.768
 3384TIP3   OH210108   4.192   6.320   3.410
 3384TIP3    H110109   4.197   6.241   3.357
 3384TIP3    H210110   4.108   6.359   3.387
 3385TIP3   OH210111   5.685   6.118   4.462
 3385TIP3    H110112   5.681   6.198   4.410
 3385TIP3    H210113   5.675   6.149   4.553
 3386TIP3   OH210114   4.086   5.694   5.764
 3386TIP3    H110115   4.150   5.762   5.742
 3386TIP3    H210116   4.028   5.691   5.688
 3387TIP3   OH210117   5.883   3.750   4.114
 3387TIP3    H110118   5.843   3.685   4.056
 3387TIP3    H210119   5.813   3.774   4.175
 3388TIP3   OH210120   2.561   1.256   1.910
 3388TIP3    H110121   2.645   1.217   1.883
 3388TIP3    H210122   2.495   1.204   1.865
 3389TIP3   OH210123   1.425   2.505   4.690
 3389TIP3    H110124   1.363   2.434   4.673
 3389TIP3    H210125   1.374   2.569   4.741
 3390TIP3   OH210126   1.514   2.019   1.431
 3390TIP3    H110127   1.481   2.095   1.382
 3390TIP3    H210128   1.609   2.033   1.436
 3391TIP3   OH210129   4.455   7.503   3.304
 3391TIP3    H110130   4.394   7.455   3.248
 3391TIP3    H210131   4.428   7.480   3.393
 3392TIP3   OH210132   4.628   1.738   3.126
 3392TIP3    H110133   4.532   1.739   3.133
 3392TIP3    H210134   4.657   1.813   3.177
 3393TIP3   OH210135   1.294   6.885   5.633
 3393TIP3    H110136   1.212   6.835   5.637
 3393TIP3    H210137   1.360   6.825   5.668
 3394TIP3   OH210138   6.271   0.985   2.362
 3394TIP3    H110139   6.265   0.911   2.422
 3394TIP3    H210140   6.272   1.062   2.419
 3395TIP3   OH210141   2.912   5.574   3.416
 3395TIP3    H110142   2.972   5.506   3.445
 3395TIP3    H210143   2.825   5.534   3.423
 3396TIP3   OH210144   6.377   4.670   1.244
 3396TIP3    H110145   6.429   4.646   1.168
 3396TIP3    H210146   6.392   4.764   1.254
 3397TIP3   OH210147   1.878   6.413   0.182
 3397TIP3    H110148   1.973   6.406   0.192
 3397TIP3    H210149   1.852   6.332   0.140
 3398TIP3   OH210150   4.644   3.747   5.434
 3398TIP3    H110151   4.601   3.821   5.390
 3398TIP3    H210152   4.678   3.693   5.363
 3399TIP3   OH210153   4.605   5.865   0.810
 3399TIP3    H110154   4.619   5.844   0.903
 3399TIP3    H210155   4.686   5.840   0.767
 3400TIP3   OH210156   3.050   3.704   1.588
 3400TIP3    H110157   3.063   3.655   1.670
 3400TIP3    H210158   3.020   3.638   1.526
 3401TIP3   OH210159   3.350   5.613   2.785
 3401TIP3    H110160   3.337   5.695   2.833
 3401TIP3    H210161   3.437   5.621   2.748
 3402TIP3   OH210162   7.364   4.316   5.579
 3402TIP3    H110163   7.341   4.323   5.486
 3402TIP3    H210164   7.320   4.391   5.620
 3403TIP3   OH210165   6.967   6.726   4.178
 3403TIP3    H110166   6.986   6.633   4.166
 3403TIP3    H210167   7.053   6.768   4.178
 3404TIP3   OH210168   1.735   0.787   4.147
 3404TIP3    H110169   1.793   0.831   4.085
 3404TIP3    H210170   1.724   0.699   4.112
 3405TIP3   OH210171   4.959   5.159   3.819
 3405TIP3    H110172   4.955   5.094   3.749
 3405TIP3    H210173   4.897   5.227   3.792
 3406TIP3   OH210174   0.376   7.591   6.317
 3406TIP3    H110175   0.438   7.540   6.370
 3406TIP3    H210176   0.410   7.584   6.227
 3407TIP3   OH210177   5.581   1.602   0.448
 3407TIP3    H110178   5.545   1.514   0.434
 3407TIP3    H210179   5.622   1.624   0.364
 3408TIP3   OH210180   0.260   0.355   0.107
 3408TIP3    H110181   0.310   0.276   0.085
 3408TIP3    H210182   0.282   0.417   0.037
 3409TIP3   OH210183   2.954   7.723   6.660
 3409TIP3    H110184   3.007   7.664   6.606
 3409TIP3    H210185   2.871   7.677   6.671
 3410TIP3   OH210186   6.254   5.573   1.332
 3410TIP3    H110187   6.349   5.580   1.341
 3410TIP3    H210188   6.240   5.489   1.287
 3411TIP3   OH210189   3.835   5.690   5.585
 3411TIP3    H110190   3.879   5.755   5.531
 3411TIP3    H210191   3.742   5.703   5.569
 3412TIP3   OH210192   8.180   0.555   0.621
 3412TIP3    H110193   8.158   0.607   0.698
 3412TIP3    H210194   8.107   0.568   0.561
 3413TIP3   OH210195   4.323   7.541   2.459
 3413TIP3    H110196   4.315   7.451   2.429
 3413TIP3    H210197   4.270   7.592   2.397
 3414TIP3   OH210198   5.773   7.646   4.694
 3414TIP3    H110199   5.842   7.662   4.629
 3414TIP3    H210200   5.746   7.733   4.721
 3415TIP3   OH210201   1.966   3.754   2.839
 3415TIP3    H110202   2.012   3.838   2.834
 3415TIP3    H210203   1.907   3.754   2.764
 3416TIP3   OH210204   0.915   7.373   2.494
 3416TIP3    H110205   0.849   7.439   2.516
 3416TIP3    H210206   0.870   7.289   2.505
 3417TIP3   OH210207   0.189   6.326   4.074
 3417TIP3    H110208   0.130   6.308   4.001
 3417TIP3    H210209   0.191   6.244   4.124
 3418TIP3   OH210210   2.356   3.302   6.333
 3418TIP3    H110211   2.451   3.300   6.342
 3418TIP3    H210212   2.340   3.272   6.243
 3419TIP3   OH210213   4.747   0.078   6.082
 3419TIP3    H110214   4.817   0.116   6.135
 3419TIP3    H210215   4.681   0.052   6.146
 3420TIP3   OH210216   3.772   2.806   2.380
 3420TIP3    H110217   3.858   2.828   2.343
 3420TIP3    H210218   3.709   2.843   2.318
 3421TIP3   OH210219   1.070   1.238   6.317
 3421TIP3    H110220   0.983   1.267   6.341
 3421TIP3    H210221   1.101   1.303   6.254
 3422TIP3   OH210222   3.252   0.463   1.871
 3422TIP3    H110223   3.252   0.557   1.855
 3422TIP3    H210224   3.345   0.439   1.873
 3423TIP3   OH210225   0.915   1.753   4.571
 3423TIP3    H110226   0.884   1.667   4.600
 3423TIP3    H210227   0.837   1.808   4.572
 3424TIP3   OH210228   4.380   4.087   5.811
 3424TIP3    H110229   4.389   4.182   5.813
 3424TIP3    H210230   4.461   4.054   5.849
 3425TIP3   OH210231   7.277   4.533   3.938
 3425TIP3    H110232   7.183   4.553   3.933
 3425TIP3    H210233   7.320   4.616   3.922
 3426TIP3   OH210234   3.132   0.342   3.390
 3426TIP3    H110235   3.126   0.276   3.459
 3426TIP3    H210236   3.062   0.319   3.329
 3427TIP3   OH210237   1.772   1.425   4.840
 3427TIP3    H110238   1.782   1.515   4.811
 3427TIP3    H210239   1.812   1.372   4.771
 3428TIP3   OH210240   4.729   3.602   5.203
 3428TIP3    H110241   4.778   3.644   5.133
 3428TIP3    H210242   4.772   3.517   5.216
 3429TIP3   OH210243   0.893   7.179   4.748
 3429TIP3    H110244   0.907   7.193   4.654
 3429TIP3    H210245   0.970   7.129   4.776
 3430TIP3   OH210246   2.970   0.599   1.314
 3430TIP3    H110247   3.005   0.678   1.355
 3430TIP3    H210248   3.040   0.535   1.324
 3431TIP3   OH210249   7.061   5.384   3.458
 3431TIP3    H110250   7.096   5.471   3.442
 3431TIP3    H210251   7.065   5.372   3.553
 3432TIP3   OH210252   7.148   3.883   0.532
 3432TIP3    H110253   7.108   3.825   0.597
 3432TIP3    H210254   7.185   3.954   0.584
 3433TIP3   OH210255   4.289   5.659   4.364
 3433TIP3    H110256   4.328   5.578   4.397
 3433TIP3    H210257   4.333   5.674   4.280
 3434TIP3   OH210258   4.372   5.491   0.361
 3434TIP3    H110259   4.327   5.562   0.316
 3434TIP3    H210260   4.459   5.526   0.382
 3435TIP3   OH210261   4.060   6.344   1.039
 3435TIP3    H110262   4.146   6.338   0.998
 3435TIP3    H210263   4.077   6.378   1.127
 3436TIP3   OH210264   0.142   6.127   0.981
 3436TIP3    H110265   0.187   6.210   0.998
 3436TIP3    H210266   0.191   6.062   1.031
 3437TIP3   OH210267   5.748   6.362   3.644
 3437TIP3    H110268   5.834   6.349   3.604
 3437TIP3    H210269   5.700   6.416   3.581
 3438TIP3   OH210270   1.132   1.865   0.090
 3438TIP3    H110271   1.208   1.811   0.111
 3438TIP3    H210272   1.101   1.831   0.006
 3439TIP3   OH210273   0.973   6.862   0.144
 3439TIP3    H110274   0.891   6.826   0.178
 3439TIP3    H210275   1.033   6.857   0.218
 3440TIP3   OH210276   2.674   3.582   6.732
 3440TIP3    H110277   2.671   3.591   6.637
 3440TIP3    H210278   2.691   3.671   6.763
 3441TIP3   OH210279   2.152   2.669   2.887
 3441TIP3    H110280   2.152   2.741   2.823
 3441TIP3    H210281   2.240   2.632   2.880
 3442TIP3   OH210282   8.267   1.027   1.330
 3442TIP3    H110283   8.202   1.026   1.259
 3442TIP3    H210284   8.231   0.967   1.395
 3443TIP3   OH210285   1.647   6.729   0.874
 3443TIP3    H110286   1.648   6.649   0.927
 3443TIP3    H210287   1.555   6.754   0.871
 3444TIP3   OH210288   0.656   1.566   5.697
 3444TIP3    H110289   0.563   1.555   5.716
 3444TIP3    H210290   0.691   1.611   5.773
 3445TIP3   OH210291   2.848   5.708   2.999
 3445TIP3    H110292   2.913   5.744   3.059
 3445TIP3    H210293   2.805   5.639   3.049
 3446TIP3   OH210294   7.347   3.248   0.298
 3446TIP3    H110295   7.387   3.275   0.381
 3446TIP3    H210296   7.407   3.183   0.263
 3447TIP3   OH210297   4.467   2.470   1.740
 3447TIP3    H110298   4.464   2.543   1.677
 3447TIP3    H210299   4.461   2.392   1.686
 3448TIP3   OH210300   3.078   7.042   0.338
 3448TIP3    H110301   3.054   7.033   0.246
 3448TIP3    H210302   3.153   7.102   0.338
 3449TIP3   OH210303   8.226   6.665   4.991
 3449TIP3    H110304   8.247   6.727   4.921
 3449TIP3    H210305   8.298   6.602   4.990
 3450TIP3   OH210306   0.508   7.800   2.243
 3450TIP3    H110307   0.509   7.830   2.152
 3450TIP3    H210308   0.533   7.708   2.238
 3451TIP3   OH210309   3.428   2.508   4.563
 3451TIP3    H110310   3.428   2.566   4.488
 3451TIP3    H210311   3.349   2.532   4.612
 3452TIP3   OH210312   5.544   4.739   0.192
 3452TIP3    H110313   5.459   4.765   0.227
 3452TIP3    H210314   5.596   4.718   0.270
 3453TIP3   OH210315   6.776   1.010   3.580
 3453TIP3    H110316   6.763   1.093   3.533
 3453TIP3    H210317   6.692   0.995   3.625
 3454TIP3   OH210318   0.700   4.589   3.634
 3454TIP3    H110319   0.774   4.529   3.639
 3454TIP3    H210320   0.625   4.532   3.614
 3455TIP3   OH210321   1.723   2.997   3.611
 3455TIP3    H110322   1.747   2.961   3.525
 3455TIP3    H210323   1.648   3.054   3.592
 3456TIP3   OH210324   2.945   6.452   2.301
 3456TIP3    H110325   2.864   6.501   2.311
 3456TIP3    H210326   2.960   6.411   2.386
 3457TIP3   OH210327   3.461   6.710   6.072
 3457TIP3    H110328   3.448   6.689   5.980
 3457TIP3    H210329   3.540   6.764   6.074
 3458TIP3   OH210330   1.162   3.520   0.885
 3458TIP3    H110331   1.254   3.516   0.911
 3458TIP3    H210332   1.163   3.507   0.791
 3459TIP3   OH210333   5.986   6.973   0.827
 3459TIP3    H110334   6.001   6.993   0.735
 3459TIP3    H210335   5.957   7.056   0.865
 3460TIP3   OH210336   7.318   5.978   5.437
 3460TIP3    H110337   7.298   5.894   5.479
 3460TIP3    H210338   7.409   5.995   5.459
 3461TIP3   OH210339   7.498   6.615   2.442
 3461TIP3    H110340   7.519   6.521   2.447
 3461TIP3    H210341   7.412   6.618   2.399
 3462TIP3   OH210342   1.844   6.276   3.247
 3462TIP3    H110343   1.782   6.267   3.175
 3462TIP3    H210344   1.885   6.190   3.254
 3463TIP3   OH210345   2.670   4.860   2.347
 3463TIP3    H110346   2.680   4.902   2.432
 3463TIP3    H210347   2.758   4.858   2.310
 3464TIP3   OH210348   1.239   2.413   1.609
 3464TIP3    H110349   1.257   2.331   1.655
 3464TIP3    H210350   1.301   2.413   1.536
 3465TIP3   OH210351   1.454   7.769   1.330
 3465TIP3    H110352   1.387   7.705   1.352
 3465TIP3    H210353   1.450   7.834   1.400
 3466TIP3   OH210354   3.525   5.430   5.107
 3466TIP3    H110355   3.451   5.490   5.095
 3466TIP3    H210356   3.549   5.404   5.018
 3467TIP3   OH210357   7.781   2.317   4.044
 3467TIP3    H110358   7.781   2.221   4.033
 3467TIP3    H210359   7.855   2.334   4.103
 3468TIP3   OH210360   5.897   5.751   4.920
 3468TIP3    H110361   5.958   5.800   4.865
 3468TIP3    H210362   5.880   5.810   4.994
 3469TIP3   OH210363   0.295   7.434   1.335
 3469TIP3    H110364   0.362   7.421   1.402
 3469TIP3    H210365   0.231   7.364   1.350
 3470TIP3   OH210366   5.687   6.555   0.075
 3470TIP3    H110367   5.778   6.587   0.077
 3470TIP3    H210368   5.691   6.474   0.025
 3471TIP3   OH210369   2.566   6.947   0.248
 3471TIP3    H110370   2.609   7.022   0.289
 3471TIP3    H210371   2.474   6.955   0.273
 3472TIP3   OH210372   3.138   3.024   5.558
 3472TIP3    H110373   3.153   3.118   5.571
 3472TIP3    H210374   3.071   3.019   5.490
 3473TIP3   OH210375   6.553   2.593   2.774
 3473TIP3    H110376   6.468   2.571   2.813
 3473TIP3    H210377   6.531   2.651   2.701
 3474TIP3   OH210378   5.178   3.880   5.141
 3474TIP3    H110379   5.208   3.820   5.208
 3474TIP3    H210380   5.093   3.912   5.172
 3475TIP3   OH210381   2.910   4.705   0.668
 3475TIP3    H110382   2.960   4.754   0.734
 3475TIP3    H210383   2.961   4.715   0.588
 3476TIP3   OH210384   0.081   6.393   6.415
 3476TIP3    H110385   0.172   6.420   6.405
 3476TIP3    H210386   0.082   6.332   6.488
 3477TIP3   OH210387   1.231   0.344   3.595
 3477TIP3    H110388   1.314   0.345   3.643
 3477TIP3    H210389   1.170   0.388   3.654
 3478TIP3   OH210390   0.196   1.033   4.705
 3478TIP3    H110391   0.172   1.087   4.630
 3478TIP3    H210392   0.202   0.944   4.669
 3479TIP3   OH210393   6.387   0.483   4.231
 3479TIP3    H110394   6.456   0.543   4.260
 3479TIP3    H210395   6.352   0.524   4.152
 3480TIP3   OH210396   2.411   1.908   5.643
 3480TIP3    H110397   2.340   1.971   5.640
 3480TIP3    H210398   2.368   1.823   5.657
 3481TIP3   OH210399   5.484   7.137   3.752
 3481TIP3    H110400   5.510   7.218   3.709
 3481TIP3    H210401   5.417   7.099   3.695
 3482TIP3   OH210402   5.652   1.154   3.844
 3482TIP3    H110403   5.562   1.122   3.833
 3482TIP3    H210404   5.641   1.246   3.871
 3483TIP3   OH210405   3.168   3.642   2.298
 3483TIP3    H110406   3.108   3.716   2.289
 3483TIP3    H210407   3.112   3.567   2.313
 3484TIP3   OH210408   1.608   4.493   4.511
 3484TIP3    H110409   1.547   4.430   4.550
 3484TIP3    H210410   1.573   4.579   4.534
 3485TIP3   OH210411   5.156   3.680   2.561
 3485TIP3    H110412   5.078   3.641   2.602
 3485TIP3    H210413   5.211   3.605   2.538
 3486TIP3   OH210414   3.341   2.372   3.225
 3486TIP3    H110415   3.274   2.342   3.287
 3486TIP3    H210416   3.374   2.453   3.264
 3487TIP3   OH210417   5.225   7.606   6.196
 3487TIP3    H110418   5.290   7.632   6.261
 3487TIP3    H210419   5.257   7.523   6.161
 3488TIP3   OH210420   5.926   0.513   4.538
 3488TIP3    H110421   6.021   0.524   4.539
 3488TIP3    H210422   5.892   0.598   4.508
 3489TIP3   OH210423   1.716   7.847   0.850
 3489TIP3    H110424   1.627   7.817   0.868
 3489TIP3    H210425   1.770   7.806   0.918
 3490TIP3   OH210426   2.211   1.893   1.844
 3490TIP3    H110427   2.275   1.860   1.781
 3490TIP3    H210428   2.221   1.835   1.920
 3491TIP3   OH210429   1.642   1.085   1.748
 3491TIP3    H110430   1.663   1.001   1.706
 3491TIP3    H210431   1.610   1.060   1.835
 3492TIP3   OH210432   5.029   2.579   1.384
 3492TIP3    H110433   4.973   2.518   1.336
 3492TIP3    H210434   5.107   2.528   1.407
 3493TIP3   OH210435   6.379   5.770   3.200
 3493TIP3    H110436   6.302   5.713   3.199
 3493TIP3    H210437   6.409   5.767   3.291
 3494TIP3   OH210438   1.604   6.394   4.441
 3494TIP3    H110439   1.564   6.309   4.421
 3494TIP3    H210440   1.530   6.455   4.444
 3495TIP3   OH210441   0.804   4.015   5.764
 3495TIP3    H110442   0.890   4.029   5.723
 3495TIP3    H210443   0.759   3.954   5.706
 3496TIP3   OH210444   0.644   1.797   5.549
 3496TIP3    H110445   0.573   1.844   5.503
 3496TIP3    H210446   0.599   1.725   5.594
 3497TIP3   OH210447   6.533   6.459   5.333
 3497TIP3    H110448   6.609   6.417   5.374
 3497TIP3    H210449   6.554   6.460   5.240
 3498TIP3   OH210450   3.873   0.919   6.171
 3498TIP3    H110451   3.893   0.950   6.082
 3498TIP3    H210452   3.958   0.891   6.206
 3499TIP3   OH210453   8.012   4.924   0.331
 3499TIP3    H110454   7.978   4.865   0.265
 3499TIP3    H210455   7.988   4.884   0.415
 3500TIP3   OH210456   2.580   5.604   3.416
 3500TIP3    H110457   2.625   5.688   3.414
 3500TIP3    H210458   2.490   5.626   3.441
 3501TIP3   OH210459   4.205   5.978   4.170
 3501TIP3    H110460   4.227   6.059   4.123
 3501TIP3    H210461   4.131   5.942   4.121
 3502TIP3   OH210462   6.930   6.254   1.893
 3502TIP3    H110463   6.947   6.164   1.866
 3502TIP3    H210464   6.859   6.283   1.836
 3503TIP3   OH210465   7.641   3.909   1.731
 3503TIP3    H110466   7.642   3.822   1.770
 3503TIP3    H210467   7.729   3.944   1.748
 3504TIP3   OH210468   0.829   6.852   4.788
 3504TIP3    H110469   0.923   6.847   4.806
 3504TIP3    H210470   0.809   6.772   4.741
 3505TIP3   OH210471   6.722   7.002   2.832
 3505TIP3    H110472   6.631   6.974   2.819
 3505TIP3    H210473   6.715   7.075   2.894
 3506TIP3   OH210474  -0.031   0.609   6.649
 3506TIP3    H110475   0.025   0.590   6.574
 3506TIP3    H210476  -0.016   0.537   6.710
 3507TIP3   OH210477   2.697   7.373   3.900
 3507TIP3    H110478   2.629   7.436   3.921
 3507TIP3    H210479   2.667   7.332   3.819
 3508TIP3   OH210480   5.290   1.919   5.884
 3508TIP3    H110481   5.248   1.856   5.826
 3508TIP3    H210482   5.262   1.894   5.972
 3509TIP3   OH210483   3.668   3.110   6.523
 3509TIP3    H110484   3.689   3.038   6.464
 3509TIP3    H210485   3.638   3.068   6.603
 3510TIP3   OH210486   5.643   5.625   5.438
 3510TIP3    H110487   5.712   5.652   5.498
 3510TIP3    H210488   5.564   5.622   5.492
 3511TIP3   OH210489   2.182   1.426   1.410
 3511TIP3    H110490   2.140   1.396   1.329
 3511TIP3    H210491   2.273   1.441   1.386
 3512TIP3   OH210492   7.133   5.968   6.418
 3512TIP3    H110493   7.163   5.886   6.378
 3512TIP3    H210494   7.202   5.992   6.480
 3513TIP3   OH210495   2.398   0.754   0.788
 3513TIP3    H110496   2.392   0.818   0.859
 3513TIP3    H210497   2.400   0.669   0.833
 3514TIP3   OH210498   5.006   2.034   4.030
 3514TIP3    H110499   4.943   1.968   4.060
 3514TIP3    H210500   5.032   2.005   3.943
 3515TIP3   OH210501   0.076   5.590   2.051
 3515TIP3    H110502   0.000   5.554   2.097
 3515TIP3    H210503   0.040   5.625   1.969
 3516TIP3   OH210504   1.217   5.135   4.719
 3516TIP3    H110505   1.257   5.067   4.665
 3516TIP3    H210506   1.206   5.209   4.660
 3517TIP3   OH210507   7.670   1.437   3.178
 3517TIP3    H110508   7.604   1.484   3.229
 3517TIP3    H210509   7.630   1.427   3.092
 3518TIP3   OH210510   0.127   6.674   0.342
 3518TIP3    H110511   0.060   6.733   0.377
 3518TIP3    H210512   0.088   6.587   0.346
 3519TIP3   OH210513   5.566   3.503   4.079
 3519TIP3    H110514   5.554   3.571   4.014
 3519TIP3    H210515   5.539   3.422   4.035
 3520TIP3   OH210516   7.628   6.247   6.646
 3520TIP3    H110517   7.602   6.335   6.671
 3520TIP3    H210518   7.655   6.255   6.555
 3521TIP3   OH210519   2.558   7.504   3.015
 3521TIP3    H110520   2.510   7.587   3.021
 3521TIP3    H210521   2.521   7.461   2.938
 3522TIP3   OH210522   1.226   4.135   2.674
 3522TIP3    H110523   1.156   4.109   2.733
 3522TIP3    H210524   1.183   4.153   2.591
 3523TIP3   OH210525   5.373   1.017   0.060
 3523TIP3    H110526   5.405   1.076  -0.008
 3523TIP3    H210527   5.390   0.929   0.027
 3524TIP3   OH210528   7.867   6.888   6.411
 3524TIP3    H110529   7.936   6.869   6.348
 3524TIP3    H210530   7.908   6.873   6.497
 3525TIP3   OH210531   2.372   6.147   5.296
 3525TIP3    H110532   2.408   6.183   5.215
 3525TIP3    H210533   2.317   6.217   5.332
 3526TIP3   OH210534   8.208   3.731   3.376
 3526TIP3    H110535   8.200   3.768   3.464
 3526TIP3    H210536   8.251   3.800   3.325
 3527TIP3   OH210537   7.117   7.635   1.023
 3527TIP3    H110538   7.058   7.580   1.074
 3527TIP3    H210539   7.120   7.593   0.937
 3528TIP3   OH210540   2.076   4.261   0.511
 3528TIP3    H110541   2.111   4.279   0.598
 3528TIP3    H210542   2.151   4.231   0.460
 3529TIP3   OH210543   5.009   6.213   2.412
 3529TIP3    H110544   5.103   6.199   2.405
 3529TIP3    H210545   4.970   6.129   2.387
 3530TIP3   OH210546   1.798   3.142   2.026
 3530TIP3    H110547   1.812   3.234   2.001
 3530TIP3    H210548   1.749   3.146   2.107
 3531TIP3   OH210549   1.653   3.956   0.502
 3531TIP3    H110550   1.702   4.039   0.504
 3531TIP3    H210551   1.635   3.938   0.595
 3532TIP3   OH210552   5.990   6.988   2.265
 3532TIP3    H110553   6.053   6.939   2.318
 3532TIP3    H210554   6.033   6.998   2.180
 3533TIP3   OH210555   4.610   4.867   1.774
 3533TIP3    H110556   4.663   4.881   1.853
 3533TIP3    H210557   4.528   4.913   1.792
 3534TIP3   OH210558   2.601   2.407   6.138
 3534TIP3    H110559   2.559   2.373   6.217
 3534TIP3    H210560   2.607   2.501   6.152
 3535TIP3   OH210561   6.424   0.884   1.311
 3535TIP3    H110562   6.403   0.802   1.357
 3535TIP3    H210563   6.519   0.883   1.303
 3536TIP3   OH210564   4.943   4.408   4.680
 3536TIP3    H110565   5.017   4.426   4.737
 3536TIP3    H210566   4.938   4.484   4.622
 3537TIP3   OH210567   1.119   6.822   6.231
 3537TIP3    H110568   1.050   6.825   6.298
 3537TIP3    H210569   1.168   6.743   6.250
 3538TIP3   OH210570   2.757   6.584   2.774
 3538TIP3    H110571   2.824   6.526   2.811
 3538TIP3    H210572   2.713   6.622   2.851
 3539TIP3   OH210573   3.124   3.640   1.090
 3539TIP3    H110574   3.090   3.698   1.159
 3539TIP3    H210575   3.202   3.600   1.128
 3540TIP3   OH210576   5.722   3.195   3.961
 3540TIP3    H110577   5.749   3.191   3.870
 3540TIP3    H210578   5.803   3.195   4.011
 3541TIP3   OH210579   2.566   4.537   1.070
 3541TIP3    H110580   2.639   4.565   1.126
 3541TIP3    H210581   2.525   4.619   1.042
 3542TIP3   OH210582   7.013   5.032   1.503
 3542TIP3    H110583   6.985   4.968   1.569
 3542TIP3    H210584   7.018   4.982   1.422
 3543TIP3   OH210585   2.194   6.328   0.558
 3543TIP3    H110586   2.276   6.309   0.514
 3543TIP3    H210587   2.189   6.424   0.559
 3544TIP3   OH210588   0.161   6.620   1.300
 3544TIP3    H110589   0.136   6.693   1.243
 3544TIP3    H210590   0.135   6.646   1.388
 3545TIP3   OH210591   0.617   2.065   2.383
 3545TIP3    H110592   0.638   2.157   2.370
 3545TIP3    H210593   0.672   2.038   2.457
 3546TIP3   OH210594   6.131   3.283   2.952
 3546TIP3    H110595   6.039   3.260   2.965
 3546TIP3    H210596   6.179   3.202   2.971
 3547TIP3   OH210597   6.981   5.385   0.951
 3547TIP3    H110598   6.898   5.354   0.988
 3547TIP3    H210599   6.966   5.477   0.929
 3548TIP3   OH210600   4.647   4.403   4.676
 3548TIP3    H110601   4.675   4.486   4.637
 3548TIP3    H210602   4.560   4.422   4.711
 3549TIP3   OH210603   6.982   1.486   0.386
 3549TIP3    H110604   7.015   1.455   0.301
 3549TIP3    H210605   6.887   1.480   0.378
 3550TIP3   OH210606   5.015   7.342   2.276
 3550TIP3    H110607   5.058   7.262   2.245
 3550TIP3    H210608   5.070   7.374   2.347
 3551TIP3   OH210609   4.209   7.769   4.154
 3551TIP3    H110610   4.161   7.717   4.090
 3551TIP3    H210611   4.203   7.719   4.236
 3552TIP3   OH210612   0.615   0.289   0.971
 3552TIP3    H110613   0.613   0.244   0.887
 3552TIP3    H210614   0.531   0.267   1.012
 3553TIP3   OH210615   2.470   3.827   3.418
 3553TIP3    H110616   2.433   3.772   3.487
 3553TIP3    H210617   2.561   3.799   3.411
 3554TIP3   OH210618   4.525   3.908   5.232
 3554TIP3    H110619   4.461   3.906   5.161
 3554TIP3    H210620   4.578   3.986   5.215
 3555TIP3   OH210621   0.496   4.002   1.947
 3555TIP3    H110622   0.533   3.917   1.970
 3555TIP3    H210623   0.401   3.989   1.952
 3556TIP3   OH210624   4.359   6.628   2.941
 3556TIP3    H110625   4.275   6.674   2.948
 3556TIP3    H210626   4.343   6.558   2.877
 3557TIP3   OH210627   1.746   2.708   0.346
 3557TIP3    H110628   1.836   2.727   0.376
 3557TIP3    H210629   1.756   2.633   0.288
 3558TIP3   OH210630   2.911   4.659   0.280
 3558TIP3    H110631   2.975   4.659   0.351
 3558TIP3    H210632   2.870   4.745   0.285
 3559TIP3   OH210633   7.940   6.051   4.637
 3559TIP3    H110634   7.990   6.109   4.579
 3559TIP3    H210635   8.005   5.992   4.674
 3560TIP3   OH210636   2.392   2.034   0.990
 3560TIP3    H110637   2.361   1.948   1.018
 3560TIP3    H210638   2.428   2.020   0.902
 3561TIP3   OH210639   4.471   1.152   1.109
 3561TIP3    H110640   4.464   1.056   1.102
 3561TIP3    H210641   4.545   1.166   1.167
 3562TIP3   OH210642   5.935   3.528   2.634
 3562TIP3    H110643   6.007   3.469   2.659
 3562TIP3    H210644   5.935   3.527   2.538
 3563TIP3   OH210645   3.521   0.372   1.948
 3563TIP3    H110646   3.581   0.447   1.957
 3563TIP3    H210647   3.524   0.330   2.034
 3564TIP3   OH210648   6.355   7.766   0.936
 3564TIP3    H110649   6.339   7.801   1.024
 3564TIP3    H210650   6.418   7.826   0.897
 3565TIP3   OH210651   3.084   2.387   3.967
 3565TIP3    H110652   3.064   2.299   3.938
 3565TIP3    H210653   3.086   2.439   3.887
 3566TIP3   OH210654   4.088   6.197   6.352
 3566TIP3    H110655   4.179   6.176   6.374
 3566TIP3    H210656   4.067   6.139   6.279
 3567TIP3   OH210657   4.485  -0.007   6.740
 3567TIP3    H110658   4.463   0.008   6.648
 3567TIP3    H210659   4.510   0.080   6.773
 3568TIP3   OH210660   4.898   1.522   6.436
 3568TIP3    H110661   4.947   1.487   6.510
 3568TIP3    H210662   4.871   1.610   6.464
 3569TIP3   OH210663   2.088   6.411   3.084
 3569TIP3    H110664   2.071   6.328   3.128
 3569TIP3    H210665   2.062   6.395   2.993
 3570TIP3   OH210666   3.392   2.693   2.154
 3570TIP3    H110667   3.439   2.776   2.144
 3570TIP3    H210668   3.425   2.638   2.083
 3571TIP3   OH210669   1.820   2.335   0.440
 3571TIP3    H110670   1.781   2.249   0.452
 3571TIP3    H210671   1.866   2.352   0.523
 3572TIP3   OH210672   2.360   4.696   6.491
 3572TIP3    H110673   2.310   4.638   6.549
 3572TIP3    H210674   2.411   4.751   6.550
 3573TIP3   OH210675   1.511   5.816   1.935
 3573TIP3    H110676   1.467   5.739   1.901
 3573TIP3    H210677   1.593   5.822   1.884
 3574TIP3   OH210678   1.438   3.231   6.676
 3574TIP3    H110679   1.496   3.172   6.724
 3574TIP3    H210680   1.488   3.257   6.599
 3575TIP3   OH210681   4.423   5.369   2.874
 3575TIP3    H110682   4.357   5.373   2.943
 3575TIP3    H210683   4.374   5.346   2.795
 3576TIP3   OH210684   4.215   2.538   5.836
 3576TIP3    H110685   4.151   2.472   5.812
 3576TIP3    H210686   4.300   2.496   5.822
 3577TIP3   OH210687   3.089   3.101   1.051
 3577TIP3    H110688   3.158   3.037   1.034
 3577TIP3    H210689   3.135   3.182   1.072
 3578TIP3   OH210690   2.141   4.651   2.139
 3578TIP3    H110691   2.112   4.742   2.135
 3578TIP3    H210692   2.217   4.647   2.082
 3579TIP3   OH210693   3.984   2.966   2.848
 3579TIP3    H110694   3.912   2.911   2.816
 3579TIP3    H210695   3.954   2.997   2.933
 3580TIP3   OH210696   3.411   1.505   2.575
 3580TIP3    H110697   3.485   1.447   2.563
 3580TIP3    H210698   3.442   1.571   2.637
 3581TIP3   OH210699   3.407   0.387   0.851
 3581TIP3    H110700   3.428   0.296   0.832
 3581TIP3    H210701   3.360   0.385   0.934
 3582TIP3   OH210702   6.340   2.433   5.685
 3582TIP3    H110703   6.424   2.390   5.700
 3582TIP3    H210704   6.342   2.510   5.741
 3583TIP3   OH210705   6.900   5.237   0.491
 3583TIP3    H110706   6.905   5.180   0.567
 3583TIP3    H210707   6.831   5.199   0.436
 3584TIP3   OH210708   7.276   7.639   4.550
 3584TIP3    H110709   7.368   7.632   4.575
 3584TIP3    H210710   7.228   7.639   4.633
 3585TIP3   OH210711   8.263   7.199   3.487
 3585TIP3    H110712   8.260   7.135   3.558
 3585TIP3    H210713   8.319   7.270   3.520
 3586TIP3   OH210714   2.233   2.496   6.168
 3586TIP3    H110715   2.186   2.416   6.144
 3586TIP3    H210716   2.253   2.539   6.085
 3587TIP3   OH210717   4.746   5.259   2.895
 3587TIP3    H110718   4.665   5.295   2.931
 3587TIP3    H210719   4.814   5.287   2.956
 3588TIP3   OH210720   6.270   0.659   2.333
 3588TIP3    H110721   6.241   0.743   2.298
 3588TIP3    H210722   6.277   0.602   2.256
 3589TIP3   OH210723   1.154   3.892   1.797
 3589TIP3    H110724   1.144   3.812   1.745
 3589TIP3    H210725   1.072   3.900   1.846
 3590TIP3   OH210726   7.007   2.180   2.197
 3590TIP3    H110727   7.030   2.169   2.105
 3590TIP3    H210728   6.950   2.257   2.199
 3591TIP3   OH210729   6.141   6.432   5.953
 3591TIP3    H110730   6.086   6.448   5.876
 3591TIP3    H210731   6.118   6.503   6.014
 3592TIP3   OH210732   2.912   0.546   5.578
 3592TIP3    H110733   2.929   0.468   5.525
 3592TIP3    H210734   2.910   0.514   5.669
 3593TIP3   OH210735   0.583   5.729   5.878
 3593TIP3    H110736   0.557   5.769   5.795
 3593TIP3    H210737   0.592   5.802   5.938
 3594TIP3   OH210738   4.595   7.447   1.293
 3594TIP3    H110739   4.628   7.418   1.378
 3594TIP3    H210740   4.564   7.536   1.308
 3595TIP3   OH210741   3.976   6.886   5.487
 3595TIP3    H110742   3.981   6.886   5.582
 3595TIP3    H210743   4.024   6.806   5.461
 3596TIP3   OH210744   6.672   4.328   4.341
 3596TIP3    H110745   6.641   4.314   4.251
 3596TIP3    H210746   6.610   4.390   4.378
 3597TIP3   OH210747   0.023   2.894   4.445
 3597TIP3    H110748  -0.042   2.963   4.450
 3597TIP3    H210749   0.084   2.923   4.377
 3598TIP3   OH210750   5.259   0.335   0.331
 3598TIP3    H110751   5.173   0.311   0.365
 3598TIP3    H210752   5.277   0.421   0.370
 3599TIP3   OH210753   5.588   0.687   4.808
 3599TIP3    H110754   5.563   0.780   4.815
 3599TIP3    H210755   5.574   0.666   4.716
 3600TIP3   OH210756   6.630   3.820   2.210
 3600TIP3    H110757   6.643   3.781   2.124
 3600TIP3    H210758   6.683   3.900   2.209
 3601TIP3   OH210759   7.077   1.035   0.796
 3601TIP3    H110760   6.996   0.985   0.787
 3601TIP3    H210761   7.060   1.097   0.866
 3602TIP3   OH210762   3.212   1.113   5.055
 3602TIP3    H110763   3.298   1.107   5.014
 3602TIP3    H210764   3.212   1.041   5.119
 3603TIP3   OH210765   8.218   1.883   3.523
 3603TIP3    H110766   8.252   1.897   3.611
 3603TIP3    H210767   8.294   1.853   3.472
 3604TIP3   OH210768   3.937   5.406   6.160
 3604TIP3    H110769   3.886   5.389   6.081
 3604TIP3    H210770   4.027   5.381   6.136
 3605TIP3   OH210771   5.949   7.583   6.462
 3605TIP3    H110772   5.893   7.547   6.531
 3605TIP3    H210773   5.979   7.506   6.413
 3606TIP3   OH210774   0.686   1.361   1.047
 3606TIP3    H110775   0.749   1.362   1.119
 3606TIP3    H210776   0.639   1.277   1.057
 3607TIP3   OH210777   6.393   5.037   4.367
 3607TIP3    H110778   6.377   4.943   4.374
 3607TIP3    H210779   6.380   5.056   4.274
 3608TIP3   OH210780   1.101   6.859   3.845
 3608TIP3    H110781   1.073   6.771   3.820
 3608TIP3    H210782   1.193   6.848   3.871
 3609TIP3   OH210783   7.889   0.992   2.933
 3609TIP3    H110784   7.817   1.055   2.935
 3609TIP3    H210785   7.937   1.008   3.014
 3610TIP3   OH210786   2.995   5.039   1.048
 3610TIP3    H110787   2.978   5.133   1.042
 3610TIP3    H210788   3.078   5.032   1.095
 3611TIP3   OH210789   2.294   1.104   4.356
 3611TIP3    H110790   2.312   1.186   4.311
 3611TIP3    H210791   2.204   1.083   4.334
 3612TIP3   OH210792   3.077   7.611   1.388
 3612TIP3    H110793   2.984   7.601   1.408
 3612TIP3    H210794   3.107   7.680   1.447
 3613TIP3   OH210795   5.512   1.627   6.511
 3613TIP3    H110796   5.497   1.537   6.540
 3613TIP3    H210797   5.600   1.625   6.474
 3614TIP3   OH210798   0.709   0.363   2.844
 3614TIP3    H110799   0.627   0.376   2.892
 3614TIP3    H210800   0.756   0.296   2.893
 3615TIP3   OH210801   1.455   0.677   5.503
 3615TIP3    H110802   1.408   0.745   5.454
 3615TIP3    H210803   1.478   0.612   5.436
 3616TIP3   OH210804   0.264   4.344   1.565
 3616TIP3    H110805   0.336   4.313   1.619
 3616TIP3    H210806   0.263   4.286   1.489
 3617TIP3   OH210807   2.438   1.479   1.561
 3617TIP3    H110808   2.359   1.435   1.594
 3617TIP3    H210809   2.510   1.434   1.604
 3618TIP3   OH210810   0.279   3.563   3.268
 3618TIP3    H110811   0.304   3.530   3.355
 3618TIP3    H210812   0.287   3.487   3.211
 3619TIP3   OH210813   5.838   2.118   3.978
 3619TIP3    H110814   5.875   2.205   3.963
 3619TIP3    H210815   5.868   2.094   4.065
 3620TIP3   OH210816   0.273   2.983   2.996
 3620TIP3    H110817   0.211   2.979   2.923
 3620TIP3    H210818   0.332   3.055   2.975
 3621TIP3   OH210819   0.006   6.798   6.514
 3621TIP3    H110820   0.089   6.816   6.558
 3621TIP3    H210821  -0.061   6.828   6.576
 3622TIP3   OH210822   5.600   6.008   6.662
 3622TIP3    H110823   5.536   5.959   6.610
 3622TIP3    H210824   5.610   6.091   6.615
 3623TIP3   OH210825   7.412   2.180   1.662
 3623TIP3    H110826   7.452   2.186   1.749
 3623TIP3    H210827   7.456   2.248   1.611
 3624TIP3   OH210828   4.053   5.131   3.141
 3624TIP3    H110829   4.011   5.169   3.218
 3624TIP3    H210830   4.058   5.203   3.078
 3625TIP3   OH210831   3.097   5.271   4.688
 3625TIP3    H110832   3.170   5.300   4.633
 3625TIP3    H210833   3.078   5.182   4.659
 3626TIP3   OH210834   5.476   7.174   2.750
 3626TIP3    H110835   5.446   7.112   2.816
 3626TIP3    H210836   5.396   7.214   2.717
 3627TIP3   OH210837   7.191   0.384   5.746
 3627TIP3    H110838   7.123   0.441   5.783
 3627TIP3    H210839   7.142   0.323   5.690
 3628TIP3   OH210840   1.260   1.232   3.478
 3628TIP3    H110841   1.267   1.143   3.513
 3628TIP3    H210842   1.172   1.260   3.503
 3629TIP3   OH210843   5.157   3.507   1.338
 3629TIP3    H110844   5.093   3.563   1.383
 3629TIP3    H210845   5.233   3.506   1.396
 3630TIP3   OH210846   1.907   6.280   2.133
 3630TIP3    H110847   1.825   6.319   2.103
 3630TIP3    H210848   1.885   6.241   2.218
 3631TIP3   OH210849   0.755   2.817   2.609
 3631TIP3    H110850   0.667   2.792   2.639
 3631TIP3    H210851   0.784   2.743   2.555
 3632TIP3   OH210852   1.380   1.644   5.116
 3632TIP3    H110853   1.366   1.635   5.022
 3632TIP3    H210854   1.414   1.732   5.127
 3633TIP3   OH210855   3.716   3.024   2.570
 3633TIP3    H110856   3.732   2.941   2.526
 3633TIP3    H210857   3.699   3.086   2.498
 3634TIP3   OH210858   0.238   0.309   6.509
 3634TIP3    H110859   0.331   0.289   6.524
 3634TIP3    H210860   0.239   0.386   6.452
 3635TIP3   OH210861   2.315   2.342   4.522
 3635TIP3    H110862   2.297   2.427   4.562
 3635TIP3    H210863   2.360   2.364   4.440
 3636TIP3   OH210864   7.904   6.753   3.843
 3636TIP3    H110865   7.935   6.842   3.828
 3636TIP3    H210866   7.856   6.731   3.763
 3637TIP3   OH210867   8.328   0.398   1.637
 3637TIP3    H110868   8.260   0.465   1.642
 3637TIP3    H210869   8.280   0.316   1.623
 3638TIP3   OH210870   2.845   4.062   3.067
 3638TIP3    H110871   2.922   4.114   3.042
 3638TIP3    H210872   2.784   4.126   3.104
 3639TIP3   OH210873   2.665   1.437   3.407
 3639TIP3    H110874   2.579   1.456   3.369
 3639TIP3    H210875   2.670   1.342   3.409
 3640TIP3   OH210876   5.326   6.466   3.703
 3640TIP3    H110877   5.351   6.402   3.636
 3640TIP3    H210878   5.233   6.484   3.685
 3641TIP3   OH210879   3.346   0.177   5.413
 3641TIP3    H110880   3.344   0.099   5.469
 3641TIP3    H210881   3.394   0.242   5.464
 3642TIP3   OH210882   7.401   2.267   5.133
 3642TIP3    H110883   7.472   2.330   5.121
 3642TIP3    H210884   7.443   2.191   5.173
 3643TIP3   OH210885   6.878   4.080   4.245
 3643TIP3    H110886   6.827   4.157   4.270
 3643TIP3    H210887   6.967   4.112   4.235
 3644TIP3   OH210888   1.741   1.085   0.783
 3644TIP3    H110889   1.795   1.007   0.789
 3644TIP3    H210890   1.777   1.144   0.849
 3645TIP3   OH210891   5.310   5.654   5.213
 3645TIP3    H110892   5.356   5.606   5.145
 3645TIP3    H210893   5.355   5.739   5.217
 3646TIP3   OH210894   2.306   6.414   5.628
 3646TIP3    H110895   2.388   6.386   5.587
 3646TIP3    H210896   2.305   6.369   5.712
 3647TIP3   OH210897   2.368  -0.004   2.230
 3647TIP3    H110898   2.416   0.070   2.267
 3647TIP3    H210899   2.427  -0.040   2.164
 3648TIP3   OH210900   5.272   5.110   2.990
 3648TIP3    H110901   5.265   5.193   3.037
 3648TIP3    H210902   5.338   5.061   3.039
 3649TIP3   OH210903   5.076   2.996   4.457
 3649TIP3    H110904   5.065   3.078   4.504
 3649TIP3    H210905   5.008   2.996   4.390
 3650TIP3   OH210906   0.656   4.126   6.224
 3650TIP3    H110907   0.607   4.043   6.221
 3650TIP3    H210908   0.711   4.124   6.145
 3651TIP3   OH210909   8.150   7.032   5.858
 3651TIP3    H110910   8.240   7.051   5.884
 3651TIP3    H210911   8.115   7.115   5.827
 3652TIP3   OH210912   0.756   2.128   5.219
 3652TIP3    H110913   0.737   2.124   5.312
 3652TIP3    H210914   0.731   2.042   5.185
 3653TIP3   OH210915   7.724   3.243   0.393
 3653TIP3    H110916   7.695   3.331   0.369
 3653TIP3    H210917   7.812   3.255   0.429
 3654TIP3   OH210918   5.288   5.722   6.056
 3654TIP3    H110919   5.243   5.781   5.995
 3654TIP3    H210920   5.353   5.677   6.002
 3655TIP3   OH210921   0.790   5.362   1.350
 3655TIP3    H110922   0.808   5.271   1.325
 3655TIP3    H210923   0.854   5.413   1.301
 3656TIP3   OH210924   5.102   6.023   5.963
 3656TIP3    H110925   5.039   6.020   6.035
 3656TIP3    H210926   5.061   5.972   5.893
 3657TIP3   OH210927   7.077   0.688   4.465
 3657TIP3    H110928   7.116   0.601   4.455
 3657TIP3    H210929   7.136   0.735   4.524
 3658TIP3   OH210930   6.893   4.104   1.628
 3658TIP3    H110931   6.862   4.190   1.598
 3658TIP3    H210932   6.931   4.064   1.550
 3659TIP3   OH210933   3.584   1.064   5.736
 3659TIP3    H110934   3.560   1.001   5.668
 3659TIP3    H210935   3.648   1.121   5.694
 3660TIP3   OH210936   1.535   4.356   0.824
 3660TIP3    H110937   1.629   4.343   0.823
 3660TIP3    H210938   1.522   4.446   0.795
 3661TIP3   OH210939   2.409   0.245   3.876
 3661TIP3    H110940   2.496   0.214   3.903
 3661TIP3    H210941   2.349   0.201   3.937
 3662TIP3   OH210942   2.080   6.193   0.793
 3662TIP3    H110943   2.125   6.242   0.725
 3662TIP3    H210944   1.999   6.242   0.809
 3663TIP3   OH210945   4.138   4.983   5.180
 3663TIP3    H110946   4.130   5.029   5.096
 3663TIP3    H210947   4.061   4.927   5.184
 3664TIP3   OH210948   4.830   6.742   5.887
 3664TIP3    H110949   4.883   6.745   5.807
 3664TIP3    H210950   4.746   6.780   5.861
 3665TIP3   OH210951   4.083   2.742   4.390
 3665TIP3    H110952   4.050   2.698   4.469
 3665TIP3    H210953   4.050   2.689   4.318
 3666TIP3   OH210954   1.084   6.295   2.237
 3666TIP3    H110955   1.118   6.381   2.214
 3666TIP3    H210956   1.070   6.300   2.332
 3667TIP3   OH210957   5.678   5.015   4.040
 3667TIP3    H110958   5.709   4.943   3.986
 3667TIP3    H210959   5.626   4.973   4.109
 3668TIP3   OH210960   4.931   7.837   3.460
 3668TIP3    H110961   4.910   7.808   3.549
 3668TIP3    H210962   4.980   7.764   3.421
 3669TIP3   OH210963   7.642   5.277   4.894
 3669TIP3    H110964   7.581   5.302   4.825
 3669TIP3    H210965   7.591   5.281   4.974
 3670TIP3   OH210966   4.594   1.146   1.377
 3670TIP3    H110967   4.627   1.204   1.445
 3670TIP3    H210968   4.500   1.144   1.389
 3671TIP3   OH210969   0.303   6.831   6.122
 3671TIP3    H110970   0.387   6.854   6.082
 3671TIP3    H210971   0.277   6.750   6.078
 3672TIP3   OH210972   4.633   4.800   4.184
 3672TIP3    H110973   4.693   4.866   4.150
 3672TIP3    H210974   4.634   4.813   4.279
 3673TIP3   OH210975   4.858   4.793   1.033
 3673TIP3    H110976   4.829   4.713   0.988
 3673TIP3    H210977   4.941   4.815   0.991
 3674TIP3   OH210978   0.837   0.754   6.645
 3674TIP3    H110979   0.838   0.660   6.630
 3674TIP3    H210980   0.925   0.783   6.621
 3675TIP3   OH210981   4.691   1.637   1.851
 3675TIP3    H110982   4.689   1.731   1.834
 3675TIP3    H210983   4.744   1.601   1.780
 3676TIP3   OH210984   2.112   6.668   5.424
 3676TIP3    H110985   2.056   6.592   5.437
 3676TIP3    H210986   2.052   6.743   5.430
 3677TIP3   OH210987   5.095   3.087   0.087
 3677TIP3    H110988   5.011   3.051   0.115
 3677TIP3    H210989   5.092   3.179   0.115
 3678TIP3   OH210990   2.629   6.556   1.811
 3678TIP3    H110991   2.691   6.600   1.870
 3678TIP3    H210992   2.577   6.627   1.774
 3679TIP3   OH210993   6.357   1.213   3.210
 3679TIP3    H110994   6.296   1.176   3.274
 3679TIP3    H210995   6.304   1.230   3.133
 3680TIP3   OH210996   7.390   3.239   2.709
 3680TIP3    H110997   7.317   3.217   2.767
 3680TIP3    H210998   7.466   3.243   2.767
 3681TIP3   OH210999   7.103   2.160   4.216
 3681TIP3    H111000   7.144   2.200   4.292
 3681TIP3    H211001   7.075   2.073   4.246
 3682TIP3   OH211002   4.878   6.310   1.598
 3682TIP3    H111003   4.843   6.299   1.687
 3682TIP3    H211004   4.901   6.402   1.593
 3683TIP3   OH211005   7.145   0.804   6.244
 3683TIP3    H111006   7.098   0.845   6.172
 3683TIP3    H211007   7.237   0.810   6.219
 3684TIP3   OH211008   1.904   6.578   2.225
 3684TIP3    H111009   1.933   6.487   2.219
 3684TIP3    H211010   1.984   6.628   2.236
 3685TIP3   OH211011   2.549   0.079   5.461
 3685TIP3    H111012   2.606   0.144   5.502
 3685TIP3    H211013   2.479   0.065   5.525
 3686TIP3   OH211014   2.332   4.956   2.582
 3686TIP3    H111015   2.356   4.864   2.571
 3686TIP3    H211016   2.292   4.961   2.668
 3687TIP3   OH211017   5.427   6.063   0.051
 3687TIP3    H111018   5.492   6.121   0.092
 3687TIP3    H211019   5.420   5.989   0.112
 3688TIP3   OH211020   0.364   1.408   4.230
 3688TIP3    H111021   0.283   1.420   4.180
 3688TIP3    H211022   0.415   1.487   4.211
 3689TIP3   OH211023   8.248   7.479   5.548
 3689TIP3    H111024   8.240   7.557   5.602
 3689TIP3    H211025   8.219   7.507   5.461
 3690TIP3   OH211026   4.515   5.527   1.346
 3690TIP3    H111027   4.561   5.466   1.289
 3690TIP3    H211028   4.583   5.566   1.400
 3691TIP3   OH211029   3.538   0.423   6.533
 3691TIP3    H111030   3.489   0.370   6.470
 3691TIP3    H211031   3.505   0.394   6.619
 3692TIP3   OH211032   4.031   2.779   0.131
 3692TIP3    H111033   4.038   2.859   0.078
 3692TIP3    H211034   3.975   2.805   0.205
 3693TIP3   OH211035   1.583   4.577   3.897
 3693TIP3    H111036   1.613   4.627   3.822
 3693TIP3    H211037   1.500   4.539   3.869
 3694TIP3   OH211038   0.717   2.327   3.137
 3694TIP3    H111039   0.760   2.242   3.124
 3694TIP3    H211040   0.707   2.362   3.049
 3695TIP3   OH211041   5.644   6.957   6.527
 3695TIP3    H111042   5.712   7.025   6.520
 3695TIP3    H211043   5.576   6.997   6.581
 3696TIP3   OH211044   7.869   0.150   1.700
 3696TIP3    H111045   7.773   0.144   1.695
 3696TIP3    H211046   7.891   0.106   1.782
 3697TIP3   OH211047   6.637   0.737   3.843
 3697TIP3    H111048   6.573   0.684   3.795
 3697TIP3    H211049   6.722   0.707   3.810
 3698TIP3   OH211050   7.400   7.298   6.414
 3698TIP3    H111051   7.423   7.322   6.324
 3698TIP3    H211052   7.361   7.211   6.407
 3699TIP3   OH211053   7.765   4.080   4.116
 3699TIP3    H111054   7.675   4.060   4.142
 3699TIP3    H211055   7.785   4.162   4.159
 3700TIP3   OH211056   0.501   7.142   2.610
 3700TIP3    H111057   0.420   7.173   2.650
 3700TIP3    H211058   0.496   7.172   2.519
 3701TIP3   OH211059   0.899   2.060   4.805
 3701TIP3    H111060   0.925   1.975   4.770
 3701TIP3    H211061   0.914   2.121   4.733
 3702TIP3   OH211062   6.975   3.472   3.456
 3702TIP3    H111063   6.914   3.420   3.404
 3702TIP3    H211064   6.950   3.562   3.439
 3703TIP3   OH211065   5.223   0.175   2.462
 3703TIP3    H111066   5.140   0.206   2.498
 3703TIP3    H211067   5.280   0.252   2.464
 3704TIP3   OH211068   3.791   1.450   0.222
 3704TIP3    H111069   3.784   1.517   0.155
 3704TIP3    H211070   3.882   1.453   0.250
 3705TIP3   OH211071   2.362   3.044   5.302
 3705TIP3    H111072   2.404   3.104   5.363
 3705TIP3    H211073   2.298   3.097   5.256
 3706TIP3   OH211074   1.865   6.436   1.799
 3706TIP3    H111075   1.851   6.422   1.705
 3706TIP3    H211076   1.875   6.348   1.835
 3707TIP3   OH211077   1.726   7.190   5.363
 3707TIP3    H111078   1.780   7.168   5.287
 3707TIP3    H211079   1.667   7.258   5.332
 3708TIP3   OH211080   8.113   0.518   5.071
 3708TIP3    H111081   8.074   0.606   5.071
 3708TIP3    H211082   8.095   0.483   5.158
 3709TIP3   OH211083   0.861   4.596   0.332
 3709TIP3    H111084   0.903   4.534   0.273
 3709TIP3    H211085   0.791   4.546   0.374
 3710TIP3   OH211086   4.715   6.613   0.838
 3710TIP3    H111087   4.806   6.587   0.852
 3710TIP3    H211088   4.690   6.657   0.919
 3711TIP3   OH211089   6.063   3.551   6.006
 3711TIP3    H111090   6.146   3.596   5.990
 3711TIP3    H211091   6.019   3.550   5.921
 3712TIP3   OH211092   3.756   6.489   3.402
 3712TIP3    H111093   3.760   6.580   3.429
 3712TIP3    H211094   3.663   6.469   3.397
 3713TIP3   OH211095   1.181   7.756   1.047
 3713TIP3    H111096   1.135   7.749   0.964
 3713TIP3    H211097   1.238   7.679   1.051
 3714TIP3   OH211098   3.526   6.926   2.511
 3714TIP3    H111099   3.553   6.836   2.530
 3714TIP3    H211100   3.479   6.920   2.428
 3715TIP3   OH211101   3.657   2.461   6.177
 3715TIP3    H111102   3.696   2.505   6.102
 3715TIP3    H211103   3.655   2.369   6.152
 3716TIP3   OH211104   0.258   0.746   5.541
 3716TIP3    H111105   0.313   0.809   5.587
 3716TIP3    H211106   0.319   0.684   5.501
 3717TIP3   OH211107   2.172   7.353   0.598
 3717TIP3    H111108   2.162   7.282   0.535
 3717TIP3    H211109   2.097   7.410   0.583
 3718TIP3   OH211110   2.182   7.576   2.428
 3718TIP3    H111111   2.208   7.532   2.347
 3718TIP3    H211112   2.206   7.514   2.498
 3719TIP3   OH211113   3.287   6.054   0.549
 3719TIP3    H111114   3.197   6.085   0.535
 3719TIP3    H211115   3.283   5.960   0.534
 3720TIP3   OH211116   0.716   4.671   1.740
 3720TIP3    H111117   0.671   4.755   1.747
 3720TIP3    H211118   0.646   4.606   1.753
 3721TIP3   OH211119   7.938   3.418   4.181
 3721TIP3    H111120   7.964   3.480   4.113
 3721TIP3    H211121   7.845   3.436   4.195
 3722TIP3   OH211122   6.088   7.546   0.226
 3722TIP3    H111123   6.001   7.558   0.189
 3722TIP3    H211124   6.084   7.590   0.311
 3723TIP3   OH211125   6.922   7.404   2.485
 3723TIP3    H111126   6.954   7.469   2.422
 3723TIP3    H211127   6.831   7.429   2.500
 3724TIP3   OH211128   1.418   3.792   0.843
 3724TIP3    H111129   1.476   3.868   0.829
 3724TIP3    H211130   1.354   3.799   0.772
 3725TIP3   OH211131   1.457   2.908   0.415
 3725TIP3    H111132   1.511   2.907   0.494
 3725TIP3    H211133   1.461   2.818   0.381
 3726TIP3   OH211134   0.079   6.155   5.758
 3726TIP3    H111135   0.026   6.231   5.730
 3726TIP3    H211136   0.164   6.169   5.717
 3727TIP3   OH211137   6.269   1.100   5.367
 3727TIP3    H111138   6.285   1.093   5.461
 3727TIP3    H211139   6.354   1.123   5.330
 3728TIP3   OH211140   1.286   4.291   3.231
 3728TIP3    H111141   1.283   4.289   3.136
 3728TIP3    H211142   1.291   4.199   3.257
 3729TIP3   OH211143   5.417   7.023   2.019
 3729TIP3    H111144   5.459   7.052   1.938
 3729TIP3    H211145   5.342   6.972   1.990
 3730TIP3   OH211146   2.416   2.568   3.269
 3730TIP3    H111147   2.341   2.596   3.217
 3730TIP3    H211148   2.489   2.566   3.207
 3731TIP3   OH211149   7.397   1.618   2.776
 3731TIP3    H111150   7.451   1.653   2.705
 3731TIP3    H211151   7.311   1.603   2.735
 3732TIP3   OH211152   2.391   3.327   5.081
 3732TIP3    H111153   2.310   3.295   5.121
 3732TIP3    H211154   2.430   3.382   5.149
 3733TIP3   OH211155   5.105   7.141   3.836
 3733TIP3    H111156   5.095   7.100   3.922
 3733TIP3    H211157   5.164   7.214   3.850
 3734TIP3   OH211158   5.849   7.567   2.297
 3734TIP3    H111159   5.915   7.500   2.281
 3734TIP3    H211160   5.875   7.640   2.240
 3735TIP3   OH211161   6.713   4.925   3.615
 3735TIP3    H111162   6.734   5.013   3.586
 3735TIP3    H211163   6.789   4.897   3.665
 3736TIP3   OH211164   0.765   4.398   4.954
 3736TIP3    H111165   0.820   4.322   4.934
 3736TIP3    H211166   0.693   4.392   4.891
 3737TIP3   OH211167   1.434   4.750   6.326
 3737TIP3    H111168   1.501   4.804   6.368
 3737TIP3    H211169   1.407   4.688   6.394
 3738TIP3   OH211170   0.151   6.011   6.393
 3738TIP3    H111171   0.145   5.923   6.431
 3738TIP3    H211172   0.190   6.064   6.463
 3739TIP3   OH211173   0.448   6.146   2.330
 3739TIP3    H111174   0.417   6.081   2.393
 3739TIP3    H211175   0.454   6.098   2.247
 3740TIP3   OH211176   7.637   2.352   1.828
 3740TIP3    H111177   7.658   2.406   1.752
 3740TIP3    H211178   7.715   2.355   1.883
 3741TIP3   OH211179   2.750   3.898   5.961
 3741TIP3    H111180   2.745   3.982   5.915
 3741TIP3    H211181   2.807   3.915   6.036
 3742TIP3   OH211182   3.306   4.765   5.630
 3742TIP3    H111183   3.228   4.814   5.606
 3742TIP3    H211184   3.361   4.765   5.551
 3743TIP3   OH211185   6.891   2.169   6.244
 3743TIP3    H111186   6.879   2.157   6.150
 3743TIP3    H211187   6.911   2.262   6.255
 3744TIP3   OH211188   0.192   2.091   2.603
 3744TIP3    H111189   0.183   2.140   2.685
 3744TIP3    H211190   0.109   2.106   2.558
 3745TIP3   OH211191   4.360   6.087   1.761
 3745TIP3    H111192   4.363   5.998   1.726
 3745TIP3    H211193   4.452   6.113   1.769
 3746TIP3   OH211194   6.154   0.169   4.408
 3746TIP3    H111195   6.149   0.097   4.346
 3746TIP3    H211196   6.242   0.163   4.446
 3747TIP3   OH211197   2.190   3.163   6.527
 3747TIP3    H111198   2.220   3.204   6.609
 3747TIP3    H211199   2.243   3.205   6.459
 3748TIP3   OH211200   0.124   5.406   1.623
 3748TIP3    H111201   0.153   5.467   1.555
 3748TIP3    H211202   0.113   5.322   1.578
 3749TIP3   OH211203   2.675   3.030   0.521
 3749TIP3    H111204   2.738   3.068   0.460
 3749TIP3    H211205   2.692   2.936   0.516
 3750TIP3   OH211206   5.575   5.992   1.828
 3750TIP3    H111207   5.649   5.933   1.833
 3750TIP3    H211208   5.530   5.984   1.912
 3751TIP3   OH211209   0.453   2.279   3.043
 3751TIP3    H111210   0.488   2.260   2.956
 3751TIP3    H211211   0.528   2.267   3.102
 3752TIP3   OH211212   6.244   7.581   2.023
 3752TIP3    H111213   6.196   7.645   2.076
 3752TIP3    H211214   6.184   7.507   2.015
 3753TIP3   OH211215   2.937   1.987   5.448
 3753TIP3    H111216   2.897   1.905   5.419
 3753TIP3    H211217   3.030   1.968   5.454
 3754TIP3   OH211218   1.645   3.959   2.149
 3754TIP3    H111219   1.673   4.034   2.097
 3754TIP3    H211220   1.663   3.984   2.240
 3755TIP3   OH211221   4.812   7.218   0.460
 3755TIP3    H111222   4.737   7.268   0.426
 3755TIP3    H211223   4.833   7.157   0.390
 3756TIP3   OH211224   6.235   2.960   2.535
 3756TIP3    H111225   6.187   2.933   2.457
 3756TIP3    H211226   6.184   2.925   2.608
 3757TIP3   OH211227   4.398   6.268   1.403
 3757TIP3    H111228   4.310   6.239   1.378
 3757TIP3    H211229   4.439   6.295   1.321
 3758TIP3   OH211230   1.698   6.682   3.532
 3758TIP3    H111231   1.691   6.755   3.470
 3758TIP3    H211232   1.682   6.722   3.618
 3759TIP3   OH211233   6.848   2.185   1.034
 3759TIP3    H111234   6.928   2.151   0.993
 3759TIP3    H211235   6.787   2.197   0.961
 3760TIP3   OH211236   0.426   4.723   3.638
 3760TIP3    H111237   0.430   4.702   3.545
 3760TIP3    H211238   0.408   4.817   3.641
 3761TIP3   OH211239   4.462   3.194   4.790
 3761TIP3    H111240   4.519   3.145   4.730
 3761TIP3    H211241   4.484   3.286   4.774
 3762TIP3   OH211242   7.597   0.213   5.888
 3762TIP3    H111243   7.661   0.204   5.959
 3762TIP3    H211244   7.528   0.150   5.908
 3763TIP3   OH211245   6.430   1.281   5.615
 3763TIP3    H111246   6.367   1.349   5.637
 3763TIP3    H211247   6.436   1.227   5.694
 3764TIP3   OH211248   6.992   5.343   6.729
 3764TIP3    H111249   6.901   5.354   6.700
 3764TIP3    H211250   6.984   5.297   6.813
 3765TIP3   OH211251   5.133   7.588   1.274
 3765TIP3    H111252   5.115   7.682   1.274
 3765TIP3    H211253   5.077   7.552   1.205
 3766TIP3   OH211254   7.461   5.025   1.403
 3766TIP3    H111255   7.506   4.966   1.342
 3766TIP3    H211256   7.461   5.109   1.357
 3767TIP3   OH211257   5.013   0.918   2.125
 3767TIP3    H111258   4.922   0.927   2.153
 3767TIP3    H211259   5.011   0.931   2.030
 3768TIP3   OH211260   4.597   1.602   2.746
 3768TIP3    H111261   4.584   1.520   2.698
 3768TIP3    H211262   4.509   1.635   2.761
 3769TIP3   OH211263   7.615   2.343   6.140
 3769TIP3    H111264   7.695   2.291   6.136
 3769TIP3    H211265   7.581   2.330   6.228
 3770TIP3   OH211266   1.220   3.340   4.033
 3770TIP3    H111267   1.211   3.433   4.009
 3770TIP3    H211268   1.143   3.322   4.086
 3771TIP3   OH211269   4.530   0.429   2.052
 3771TIP3    H111270   4.570   0.366   1.993
 3771TIP3    H211271   4.542   0.392   2.139
 3772TIP3   OH211272   1.430  -0.024   1.964
 3772TIP3    H111273   1.406  -0.085   1.895
 3772TIP3    H211274   1.391   0.059   1.937
 3773TIP3   OH211275   0.937   6.224   4.423
 3773TIP3    H111276   0.963   6.304   4.469
 3773TIP3    H211277   0.844   6.236   4.406
 3774TIP3   OH211278   3.031   2.337   6.429
 3774TIP3    H111279   2.967   2.382   6.374
 3774TIP3    H211280   3.059   2.261   6.377
 3775TIP3   OH211281   2.311   6.431   2.441
 3775TIP3    H111282   2.291   6.520   2.468
 3775TIP3    H211283   2.273   6.376   2.510
 3776TIP3   OH211284   0.012   4.271   0.056
 3776TIP3    H111285   0.051   4.200   0.005
 3776TIP3    H211286   0.024   4.349   0.003
 3777TIP3   OH211287   0.802   5.348   4.477
 3777TIP3    H111288   0.793   5.360   4.383
 3777TIP3    H211289   0.878   5.290   4.487
 3778TIP3   OH211290   5.153   6.240   0.192
 3778TIP3    H111291   5.072   6.188   0.202
 3778TIP3    H211292   5.146   6.280   0.106
 3779TIP3   OH211293   3.254   6.692   2.003
 3779TIP3    H111294   3.347   6.712   2.014
 3779TIP3    H211295   3.253   6.605   1.963
 3780TIP3   OH211296   0.021   0.653   2.805
 3780TIP3    H111297   0.055   0.729   2.757
 3780TIP3    H211298  -0.073   0.669   2.813
 3781TIP3   OH211299   2.118   2.470   3.151
 3781TIP3    H111300   2.120   2.563   3.126
 3781TIP3    H211301   2.167   2.426   3.082
 3782TIP3   OH211302   3.262   3.214   4.158
 3782TIP3    H111303   3.189   3.195   4.217
 3782TIP3    H211304   3.272   3.309   4.160
 3783TIP3   OH211305   1.974   1.330   5.508
 3783TIP3    H111306   1.976   1.234   5.501
 3783TIP3    H211307   1.940   1.359   5.424
 3784TIP3   OH211308   1.412   0.942   5.437
 3784TIP3    H111309   1.370   0.970   5.356
 3784TIP3    H211310   1.475   1.011   5.456
 3785TIP3   OH211311   8.287   5.508   6.442
 3785TIP3    H111312   8.305   5.414   6.450
 3785TIP3    H211313   8.225   5.515   6.370
 3786TIP3   OH211314   1.294   2.357   6.632
 3786TIP3    H111315   1.336   2.382   6.714
 3786TIP3    H211316   1.350   2.395   6.564
 3787TIP3   OH211317   2.905   7.318   0.964
 3787TIP3    H111318   2.872   7.386   1.022
 3787TIP3    H211319   2.856   7.329   0.883
 3788TIP3   OH211320   7.101   3.146   6.709
 3788TIP3    H111321   7.154   3.120   6.785
 3788TIP3    H211322   7.011   3.132   6.738
 3789TIP3   OH211323   2.695   6.740   2.519
 3789TIP3    H111324   2.727   6.683   2.588
 3789TIP3    H211325   2.707   6.690   2.438
 3790TIP3   OH211326   6.177   3.468   5.044
 3790TIP3    H111327   6.222   3.388   5.015
 3790TIP3    H211328   6.108   3.480   4.979
 3791TIP3   OH211329   6.989   1.288   1.764
 3791TIP3    H111330   7.039   1.280   1.683
 3791TIP3    H211331   6.989   1.200   1.801
 3792TIP3   OH211332   1.754   7.148   0.319
 3792TIP3    H111333   1.688   7.217   0.328
 3792TIP3    H211334   1.758   7.108   0.406
 3793TIP3   OH211335   0.719   5.129   3.795
 3793TIP3    H111336   0.713   5.035   3.781
 3793TIP3    H211337   0.810   5.151   3.775
 3794TIP3   OH211338   1.104   6.043   2.071
 3794TIP3    H111339   1.096   6.072   1.980
 3794TIP3    H211340   1.105   6.124   2.123
 3795TIP3   OH211341   3.822   6.675   0.220
 3795TIP3    H111342   3.727   6.676   0.206
 3795TIP3    H211343   3.832   6.702   0.312
 3796TIP3   OH211344   7.752   3.148   4.107
 3796TIP3    H111345   7.757   3.067   4.056
 3796TIP3    H211346   7.843   3.166   4.132
 3797TIP3   OH211347   7.357   3.989   4.967
 3797TIP3    H111348   7.357   4.006   4.873
 3797TIP3    H211349   7.377   4.073   5.007
 3798TIP3   OH211350   7.165   4.265   1.299
 3798TIP3    H111351   7.097   4.329   1.277
 3798TIP3    H211352   7.118   4.182   1.307
 3799TIP3   OH211353   4.329   4.355   1.317
 3799TIP3    H111354   4.341   4.450   1.310
 3799TIP3    H211355   4.334   4.337   1.411
 3800TIP3   OH211356   6.231   3.705   2.596
 3800TIP3    H111357   6.306   3.747   2.637
 3800TIP3    H211358   6.155   3.752   2.629
 3801TIP3   OH211359   3.554   7.789   6.674
 3801TIP3    H111360   3.551   7.872   6.723
 3801TIP3    H211361   3.464   7.773   6.648
 3802TIP3   OH211362   4.230   5.232   5.080
 3802TIP3    H111363   4.274   5.194   5.004
 3802TIP3    H211364   4.162   5.288   5.042
 3803TIP3   OH211365   3.692   4.379   4.791
 3803TIP3    H111366   3.664   4.374   4.699
 3803TIP3    H211367   3.686   4.289   4.823
 3804TIP3   OH211368   5.882   4.968   0.532
 3804TIP3    H111369   5.955   4.967   0.470
 3804TIP3    H211370   5.833   5.047   0.511
 3805TIP3   OH211371   5.802   5.320   2.844
 3805TIP3    H111372   5.865   5.385   2.815
 3805TIP3    H211373   5.848   5.236   2.836
 3806TIP3   OH211374   4.393   2.700   5.584
 3806TIP3    H111375   4.461   2.680   5.648
 3806TIP3    H211376   4.342   2.619   5.578
 3807TIP3   OH211377   2.485   0.797   4.658
 3807TIP3    H111378   2.470   0.805   4.564
 3807TIP3    H211379   2.422   0.731   4.687
 3808TIP3   OH211380   4.769   0.825   0.077
 3808TIP3    H111381   4.712   0.882   0.128
 3808TIP3    H211382   4.823   0.885   0.026
 3809TIP3   OH211383   5.079   5.125   5.166
 3809TIP3    H111384   5.075   5.221   5.162
 3809TIP3    H211385   4.998   5.096   5.125
 3810TIP3   OH211386   2.707   0.328   1.495
 3810TIP3    H111387   2.726   0.364   1.408
 3810TIP3    H211388   2.687   0.405   1.548
 3811TIP3   OH211389   6.986   6.917   0.926
 3811TIP3    H111390   6.953   6.947   1.011
 3811TIP3    H211391   6.929   6.844   0.902
 3812TIP3   OH211392   7.720   2.244   2.568
 3812TIP3    H111393   7.627   2.247   2.550
 3812TIP3    H211394   7.726   2.233   2.663
 3813TIP3   OH211395   3.427   7.302   4.698
 3813TIP3    H111396   3.432   7.257   4.614
 3813TIP3    H211397   3.392   7.388   4.678
 3814TIP3   OH211398   7.952   5.638   1.838
 3814TIP3    H111399   7.885   5.571   1.853
 3814TIP3    H211400   7.903   5.721   1.835
 3815TIP3   OH211401   5.540   2.583   0.537
 3815TIP3    H111402   5.508   2.578   0.447
 3815TIP3    H211403   5.460   2.588   0.590
 3816TIP3   OH211404   4.656   7.833   5.959
 3816TIP3    H111405   4.569   7.817   5.922
 3816TIP3    H211406   4.655   7.786   6.043
 3817TIP3   OH211407   4.307   0.775   0.600
 3817TIP3    H111408   4.389   0.750   0.642
 3817TIP3    H211409   4.313   0.870   0.590
 3818TIP3   OH211410   2.597   7.244   0.371
 3818TIP3    H111411   2.529   7.223   0.435
 3818TIP3    H211412   2.550   7.286   0.299
 3819TIP3   OH211413   4.414   2.563   4.698
 3819TIP3    H111414   4.432   2.635   4.638
 3819TIP3    H211415   4.426   2.601   4.785
 3820TIP3   OH211416   0.635   6.778   1.822
 3820TIP3    H111417   0.553   6.797   1.777
 3820TIP3    H211418   0.611   6.772   1.915
 3821TIP3   OH211419   0.558   7.310   1.919
 3821TIP3    H111420   0.640   7.348   1.948
 3821TIP3    H211421   0.490   7.364   1.961
 3822TIP3   OH211422   5.914   7.735   2.558
 3822TIP3    H111423   5.929   7.645   2.587
 3822TIP3    H211424   5.880   7.725   2.469
 3823TIP3   OH211425   6.383   2.847   0.714
 3823TIP3    H111426   6.401   2.788   0.640
 3823TIP3    H211427   6.445   2.820   0.781
 3824TIP3   OH211428   6.546   1.423   4.599
 3824TIP3    H111429   6.557   1.484   4.527
 3824TIP3    H211430   6.635   1.400   4.625
 3825TIP3   OH211431   1.610   1.413   2.456
 3825TIP3    H111432   1.699   1.447   2.463
 3825TIP3    H211433   1.605   1.345   2.524
 3826TIP3   OH211434   1.517   3.210   4.545
 3826TIP3    H111435   1.482   3.243   4.463
 3826TIP3    H211436   1.562   3.285   4.584
 3827TIP3   OH211437   3.930   6.276   3.745
 3827TIP3    H111438   3.958   6.363   3.715
 3827TIP3    H211439   3.897   6.292   3.834
 3828TIP3   OH211440   2.067   1.061   1.221
 3828TIP3    H111441   2.070   0.999   1.149
 3828TIP3    H211442   1.977   1.055   1.253
 3829TIP3   OH211443   6.958   2.759   3.641
 3829TIP3    H111444   6.960   2.807   3.559
 3829TIP3    H211445   7.050   2.749   3.666
 3830TIP3   OH211446   2.547   6.997   3.625
 3830TIP3    H111447   2.605   6.931   3.662
 3830TIP3    H211448   2.600   7.077   3.623
 3831TIP3   OH211449   0.836   3.809   4.819
 3831TIP3    H111450   0.766   3.864   4.853
 3831TIP3    H211451   0.834   3.730   4.874
 3832TIP3   OH211452   4.300   6.297   0.852
 3832TIP3    H111453   4.269   6.206   0.845
 3832TIP3    H211454   4.395   6.290   0.844
 3833TIP3   OH211455   0.180   2.318   1.302
 3833TIP3    H111456   0.174   2.223   1.289
 3833TIP3    H211457   0.269   2.340   1.274
 3834TIP3   OH211458   0.522   6.240   0.387
 3834TIP3    H111459   0.597   6.193   0.424
 3834TIP3    H211460   0.560   6.306   0.329
 3835TIP3   OH211461   4.751   1.921   3.352
 3835TIP3    H111462   4.736   2.015   3.346
 3835TIP3    H211463   4.757   1.903   3.446
 3836TIP3   OH211464   6.479   6.333   3.277
 3836TIP3    H111465   6.558   6.349   3.225
 3836TIP3    H211466   6.491   6.245   3.313
 3837TIP3   OH211467   0.199   7.246   6.262
 3837TIP3    H111468   0.165   7.158   6.277
 3837TIP3    H211469   0.144   7.303   6.315
 3838TIP3   OH211470   6.901   6.747   3.792
 3838TIP3    H111471   6.876   6.804   3.865
 3838TIP3    H211472   6.975   6.792   3.750
 3839TIP3   OH211473   4.571   3.755   0.616
 3839TIP3    H111474   4.483   3.764   0.653
 3839TIP3    H211475   4.630   3.786   0.684
 3840TIP3   OH211476   1.505   4.681   0.843
 3840TIP3    H111477   1.511   4.614   0.775
 3840TIP3    H211478   1.452   4.751   0.803
 3841TIP3   OH211479   0.078   5.204   5.543
 3841TIP3    H111480   0.132   5.142   5.495
 3841TIP3    H211481   0.108   5.196   5.634
 3842TIP3   OH211482   5.351   0.270   5.682
 3842TIP3    H111483   5.287   0.307   5.743
 3842TIP3    H211484   5.433   0.314   5.704
 3843TIP3   OH211485   1.700   5.702   3.556
 3843TIP3    H111486   1.768   5.697   3.623
 3843TIP3    H211487   1.708   5.790   3.520
 3844TIP3   OH211488   3.840   0.341   2.277
 3844TIP3    H111489   3.755   0.325   2.236
 3844TIP3    H211490   3.867   0.255   2.310
 3845TIP3   OH211491   4.159   4.272   0.878
 3845TIP3    H111492   4.169   4.204   0.944
 3845TIP3    H211493   4.229   4.254   0.815
 3846TIP3   OH211494   7.320   3.126   5.500
 3846TIP3    H111495   7.301   3.199   5.558
 3846TIP3    H211496   7.351   3.166   5.419
 3847TIP3   OH211497   7.219   7.499   5.004
 3847TIP3    H111498   7.130   7.466   5.006
 3847TIP3    H211499   7.234   7.524   4.913
 3848TIP3   OH211500   8.081   1.491   2.626
 3848TIP3    H111501   8.090   1.501   2.531
 3848TIP3    H211502   8.022   1.561   2.653
 3849TIP3   OH211503   6.237   5.369   1.934
 3849TIP3    H111504   6.252   5.280   1.964
 3849TIP3    H211505   6.324   5.403   1.912
 3850TIP3   OH211506   6.625   0.716   5.503
 3850TIP3    H111507   6.702   0.738   5.451
 3850TIP3    H211508   6.561   0.686   5.439
 3851TIP3   OH211509   6.905   3.831   4.518
 3851TIP3    H111510   6.966   3.877   4.461
 3851TIP3    H211511   6.959   3.769   4.566
 3852TIP3   OH211512   5.522   7.444   2.790
 3852TIP3    H111513   5.612   7.453   2.823
 3852TIP3    H211514   5.521   7.358   2.748
 3853TIP3   OH211515   7.399   5.813   4.449
 3853TIP3    H111516   7.372   5.761   4.525
 3853TIP3    H211517   7.437   5.749   4.389
 3854TIP3   OH211518   1.159   1.242   2.845
 3854TIP3    H111519   1.070   1.208   2.855
 3854TIP3    H211520   1.158   1.326   2.890
 3855TIP3   OH211521   0.697   2.638   6.304
 3855TIP3    H111522   0.697   2.693   6.382
 3855TIP3    H211523   0.735   2.693   6.235
 3856TIP3   OH211524   6.410   4.750   1.589
 3856TIP3    H111525   6.455   4.719   1.668
 3856TIP3    H211526   6.395   4.844   1.606
 3857TIP3   OH211527   5.170   6.005   2.140
 3857TIP3    H111528   5.116   5.950   2.197
 3857TIP3    H211529   5.147   5.978   2.051
 3858TIP3   OH211530   1.976   5.958   2.237
 3858TIP3    H111531   1.905   6.006   2.195
 3858TIP3    H211532   1.944   5.868   2.243
 3859TIP3   OH211533   4.595   6.221   2.259
 3859TIP3    H111534   4.653   6.268   2.198
 3859TIP3    H211535   4.508   6.256   2.241
 3860TIP3   OH211536   7.841   2.904   6.337
 3860TIP3    H111537   7.754   2.942   6.330
 3860TIP3    H211538   7.825   2.811   6.355
 3861TIP3   OH211539   3.872   6.925   1.707
 3861TIP3    H111540   3.923   6.885   1.777
 3861TIP3    H211541   3.793   6.958   1.751
 3862TIP3   OH211542   8.073   5.808   1.408
 3862TIP3    H111543   8.064   5.881   1.346
 3862TIP3    H211544   8.150   5.831   1.460
 3863TIP3   OH211545   7.721   3.630   1.853
 3863TIP3    H111546   7.748   3.601   1.766
 3863TIP3    H211547   7.800   3.669   1.891
 3864TIP3   OH211548   3.324   5.166   3.810
 3864TIP3    H111549   3.242   5.125   3.839
 3864TIP3    H211550   3.298   5.251   3.776
 3865TIP3   OH211551   7.504   7.021   6.050
 3865TIP3    H111552   7.466   7.093   6.000
 3865TIP3    H211553   7.548   7.064   6.124
 3866TIP3   OH211554   2.095   3.829   4.673
 3866TIP3    H111555   2.128   3.743   4.697
 3866TIP3    H211556   2.158   3.862   4.609
 3867TIP3   OH211557   1.859   7.308   3.032
 3867TIP3    H111558   1.814   7.357   2.963
 3867TIP3    H211559   1.843   7.216   3.011
 3868TIP3   OH211560   7.711   5.462   1.824
 3868TIP3    H111561   7.642   5.489   1.884
 3868TIP3    H211562   7.751   5.386   1.865
 3869TIP3   OH211563   7.482   5.987   0.239
 3869TIP3    H111564   7.531   6.069   0.243
 3869TIP3    H211565   7.545   5.920   0.265
 3870TIP3   OH211566   7.645   4.626   0.072
 3870TIP3    H111567   7.626   4.720   0.068
 3870TIP3    H211568   7.591   4.594   0.145
 3871TIP3   OH211569   1.548   3.896   4.708
 3871TIP3    H111570   1.638   3.868   4.690
 3871TIP3    H211571   1.493   3.834   4.660
 3872TIP3   OH211572   3.185   0.242   4.792
 3872TIP3    H111573   3.251   0.212   4.855
 3872TIP3    H211574   3.162   0.163   4.742
 3873TIP3   OH211575   7.999   0.840   3.768
 3873TIP3    H111576   8.079   0.805   3.730
 3873TIP3    H211577   8.028   0.907   3.830
 3874TIP3   OH211578   2.155   3.952   2.469
 3874TIP3    H111579   2.223   3.930   2.533
 3874TIP3    H211580   2.086   3.888   2.485
 3875TIP3   OH211581   6.665   3.820   6.591
 3875TIP3    H111582   6.715   3.824   6.672
 3875TIP3    H211583   6.588   3.767   6.612
 3876TIP3   OH211584   3.025   5.695   6.482
 3876TIP3    H111585   3.103   5.737   6.446
 3876TIP3    H211586   3.058   5.631   6.545
 3877TIP3   OH211587   4.136   1.750   1.957
 3877TIP3    H111588   4.082   1.674   1.979
 3877TIP3    H211589   4.183   1.771   2.038
 3878TIP3   OH211590   2.205   1.087   2.124
 3878TIP3    H111591   2.290   1.072   2.164
 3878TIP3    H211592   2.153   1.010   2.147
 3879TIP3   OH211593   7.950   3.977   0.239
 3879TIP3    H111594   7.969   4.046   0.302
 3879TIP3    H211595   8.026   3.976   0.181
 3880TIP3   OH211596   1.758   3.659   5.991
 3880TIP3    H111597   1.688   3.662   6.057
 3880TIP3    H211598   1.740   3.579   5.941
 3881TIP3   OH211599   2.146   6.045   6.380
 3881TIP3    H111600   2.179   6.128   6.346
 3881TIP3    H211601   2.189   5.978   6.328
 3882TIP3   OH211602   7.611   6.868   2.490
 3882TIP3    H111603   7.700   6.844   2.514
 3882TIP3    H211604   7.563   6.786   2.488
 3883TIP3   OH211605   7.062   5.473   3.017
 3883TIP3    H111606   7.124   5.470   3.091
 3883TIP3    H211607   7.118   5.477   2.940
 3884TIP3   OH211608   0.300   1.715   3.580
 3884TIP3    H111609   0.226   1.769   3.552
 3884TIP3    H211610   0.377   1.772   3.570
 3885TIP3   OH211611   1.470   3.532   3.065
 3885TIP3    H111612   1.471   3.455   3.008
 3885TIP3    H211613   1.483   3.606   3.005
 3886TIP3   OH211614   0.475   0.846   3.602
 3886TIP3    H111615   0.481   0.757   3.636
 3886TIP3    H211616   0.482   0.902   3.680
 3887TIP3   OH211617   4.771   5.228   1.675
 3887TIP3    H111618   4.795   5.163   1.609
 3887TIP3    H211619   4.779   5.181   1.758
 3888TIP3   OH211620   1.059   5.165  -0.009
 3888TIP3    H111621   1.029   5.079  -0.038
 3888TIP3    H211622   0.980   5.219  -0.012
 3889TIP3   OH211623   0.625   1.478   1.372
 3889TIP3    H111624   0.700   1.441   1.324
 3889TIP3    H211625   0.657   1.561   1.406
 3890TIP3   OH211626   0.952   4.703   0.598
 3890TIP3    H111627   1.043   4.732   0.593
 3890TIP3    H211628   0.940   4.646   0.522
 3891TIP3   OH211629   1.090   6.936   2.325
 3891TIP3    H111630   1.121   7.007   2.381
 3891TIP3    H211631   0.994   6.939   2.333
 3892TIP3   OH211632   0.834   5.145   3.516
 3892TIP3    H111633   0.892   5.070   3.504
 3892TIP3    H211634   0.746   5.108   3.509
 3893TIP3   OH211635   7.782   0.930   0.720
 3893TIP3    H111636   7.789   0.859   0.784
 3893TIP3    H211637   7.836   1.000   0.755
 3894TIP3   OH211638   1.858   5.281   1.606
 3894TIP3    H111639   1.916   5.353   1.633
 3894TIP3    H211640   1.849   5.292   1.512
 3895TIP3   OH211641   7.995   7.381   3.565
 3895TIP3    H111642   7.983   7.286   3.573
 3895TIP3    H211643   7.916   7.418   3.604
 3896TIP3   OH211644   5.529   7.803   6.650
 3896TIP3    H111645   5.592   7.732   6.665
 3896TIP3    H211646   5.537   7.858   6.728
 3897TIP3   OH211647   2.968   2.813   5.704
 3897TIP3    H111648   3.008   2.731   5.676
 3897TIP3    H211649   3.016   2.881   5.656
 3898TIP3   OH211650   3.313   5.033   4.326
 3898TIP3    H111651   3.348   4.945   4.310
 3898TIP3    H211652   3.321   5.078   4.242
 3899TIP3   OH211653   1.058   5.366   4.072
 3899TIP3    H111654   1.128   5.309   4.103
 3899TIP3    H211655   1.084   5.388   3.982
 3900TIP3   OH211656   1.966   2.776   5.349
 3900TIP3    H111657   1.899   2.725   5.303
 3900TIP3    H211658   1.944   2.867   5.331
 3901TIP3   OH211659   4.597   7.083   2.355
 3901TIP3    H111660   4.542   7.011   2.385
 3901TIP3    H211661   4.572   7.157   2.412
 3902TIP3   OH211662   6.897   0.292   0.089
 3902TIP3    H111663   6.851   0.260   0.167
 3902TIP3    H211664   6.838   0.355   0.049
 3903TIP3   OH211665   0.429   3.052   6.022
 3903TIP3    H111666   0.432   3.108   6.099
 3903TIP3    H211667   0.448   2.964   6.055
 3904TIP3   OH211668   1.682   4.158   1.932
 3904TIP3    H111669   1.746   4.087   1.933
 3904TIP3    H211670   1.623   4.135   1.860
 3905TIP3   OH211671   4.559   5.615   6.126
 3905TIP3    H111672   4.651   5.638   6.118
 3905TIP3    H211673   4.514   5.675   6.067
 3906TIP3   OH211674   5.399   6.364   2.196
 3906TIP3    H111675   5.428   6.439   2.145
 3906TIP3    H211676   5.355   6.402   2.272
 3907TIP3   OH211677   0.942   1.001   6.551
 3907TIP3    H111678   0.849   1.020   6.555
 3907TIP3    H211679   0.972   1.007   6.642
 3908TIP3   OH211680   7.778   0.478   4.652
 3908TIP3    H111681   7.707   0.458   4.713
 3908TIP3    H211682   7.821   0.393   4.637
 3909TIP3   OH211683   5.661   3.651   6.136
 3909TIP3    H111684   5.599   3.653   6.208
 3909TIP3    H211685   5.629   3.582   6.078
 3910TIP3   OH211686   3.856   4.858   0.373
 3910TIP3    H111687   3.869   4.778   0.323
 3910TIP3    H211688   3.925   4.856   0.440
 3911TIP3   OH211689   4.236   2.093   2.286
 3911TIP3    H111690   4.154   2.080   2.240
 3911TIP3    H211691   4.295   2.027   2.250
 3912TIP3   OH211692   1.378   2.712   5.113
 3912TIP3    H111693   1.453   2.759   5.075
 3912TIP3    H211694   1.399   2.620   5.102
 3913TIP3   OH211695   7.261   3.901   0.998
 3913TIP3    H111696   7.171   3.894   1.029
 3913TIP3    H211697   7.301   3.817   1.019
 3914TIP3   OH211698   2.306   7.011   0.667
 3914TIP3    H111699   2.359   6.932   0.670
 3914TIP3    H211700   2.233   6.993   0.726
 3915TIP3   OH211701   1.808   1.801   3.366
 3915TIP3    H111702   1.727   1.767   3.406
 3915TIP3    H211703   1.834   1.732   3.305
 3916TIP3   OH211704   3.597   5.770   0.330
 3916TIP3    H111705   3.534   5.833   0.295
 3916TIP3    H211706   3.633   5.813   0.407
 3917TIP3   OH211707   6.694   4.715   5.211
 3917TIP3    H111708   6.600   4.713   5.228
 3917TIP3    H211709   6.726   4.792   5.257
 3918TIP3   OH211710   0.020   1.659   2.837
 3918TIP3    H111711   0.060   1.572   2.833
 3918TIP3    H211712   0.038   1.697   2.751
 3919TIP3   OH211713   2.788   3.488   4.854
 3919TIP3    H111714   2.762   3.400   4.829
 3919TIP3    H211715   2.876   3.498   4.817
 3920TIP3   OH211716   4.805   0.352   6.313
 3920TIP3    H111717   4.798   0.385   6.403
 3920TIP3    H211718   4.714   0.339   6.285
 3921TIP3   OH211719   5.319   6.221   6.536
 3921TIP3    H111720   5.342   6.276   6.611
 3921TIP3    H211721   5.230   6.248   6.513
 3922TIP3   OH211722   6.944   2.068   2.884
 3922TIP3    H111723   7.011   2.018   2.931
 3922TIP3    H211724   6.959   2.048   2.792
 3923TIP3   OH211725   4.700   1.830   0.983
 3923TIP3    H111726   4.630   1.787   0.933
 3923TIP3    H211727   4.761   1.861   0.916
 3924TIP3   OH211728   5.693   5.614   2.778
 3924TIP3    H111729   5.642   5.695   2.769
 3924TIP3    H211730   5.678   5.588   2.869
 3925TIP3   OH211731   6.154   7.238   6.610
 3925TIP3    H111732   6.101   7.217   6.534
 3925TIP3    H211733   6.153   7.159   6.664
 3926TIP3   OH211734   2.663   6.517   6.545
 3926TIP3    H111735   2.712   6.471   6.476
 3926TIP3    H211736   2.614   6.585   6.499
 3927TIP3   OH211737   3.699   3.899   1.668
 3927TIP3    H111738   3.761   3.938   1.607
 3927TIP3    H211739   3.725   3.807   1.673
 3928TIP3   OH211740   7.178   3.379   6.597
 3928TIP3    H111741   7.142   3.387   6.685
 3928TIP3    H211742   7.114   3.421   6.540
 3929TIP3   OH211743   8.286   6.459   2.309
 3929TIP3    H111744   8.246   6.379   2.344
 3929TIP3    H211745   8.352   6.483   2.374
 3930TIP3   OH211746   1.100   3.703   3.307
 3930TIP3    H111747   1.187   3.664   3.318
 3930TIP3    H211748   1.052   3.673   3.384
 3931TIP3   OH211749   4.661   4.788   3.652
 3931TIP3    H111750   4.662   4.870   3.604
 3931TIP3    H211751   4.661   4.720   3.585
 3932TIP3   OH211752   6.493   3.872   5.933
 3932TIP3    H111753   6.522   3.900   5.846
 3932TIP3    H211754   6.487   3.953   5.984
 3933TIP3   OH211755   7.793   3.374   5.992
 3933TIP3    H111756   7.786   3.462   5.954
 3933TIP3    H211757   7.852   3.385   6.066
 3934TIP3   OH211758   5.455   6.855   5.957
 3934TIP3    H111759   5.453   6.948   5.933
 3934TIP3    H211760   5.544   6.841   5.990
 3935TIP3   OH211761   7.885   0.640   3.245
 3935TIP3    H111762   7.818   0.610   3.184
 3935TIP3    H211763   7.851   0.721   3.281
 3936TIP3   OH211764   4.463   1.629   5.461
 3936TIP3    H111765   4.384   1.600   5.507
 3936TIP3    H211766   4.446   1.721   5.440
 3937TIP3   OH211767   7.154   0.032   5.578
 3937TIP3    H111768   7.105   0.102   5.535
 3937TIP3    H211769   7.244   0.064   5.580
 3938TIP3   OH211770   1.543   2.807   2.580
 3938TIP3    H111771   1.555   2.863   2.503
 3938TIP3    H211772   1.629   2.769   2.595
 3939TIP3   OH211773   5.632   6.921   2.179
 3939TIP3    H111774   5.695   6.993   2.184
 3939TIP3    H211775   5.554   6.960   2.140
 3940TIP3   OH211776   4.346   1.886   2.122
 3940TIP3    H111777   4.430   1.846   2.143
 3940TIP3    H211778   4.360   1.928   2.037
 3941TIP3   OH211779   6.642   5.822   1.995
 3941TIP3    H111780   6.598   5.773   1.926
 3941TIP3    H211781   6.573   5.873   2.037
 3942TIP3   OH211782   4.736   1.929   3.640
 3942TIP3    H111783   4.737   2.025   3.640
 3942TIP3    H211784   4.733   1.905   3.733
 3943TIP3   OH211785   4.131   7.711   3.079
 3943TIP3    H111786   4.143   7.763   3.000
 3943TIP3    H211787   4.199   7.743   3.139
 3944TIP3   OH211788   1.751   2.627   0.622
 3944TIP3    H111789   1.833   2.590   0.655
 3944TIP3    H211790   1.760   2.623   0.526
 3945TIP3   OH211791   1.157   1.821   4.694
 3945TIP3    H111792   1.073   1.815   4.648
 3945TIP3    H211793   1.216   1.764   4.644
 3946TIP3   OH211794   4.216   3.119   3.690
 3946TIP3    H111795   4.237   3.207   3.720
 3946TIP3    H211796   4.144   3.091   3.746
 3947TIP3   OH211797   0.276   2.113   6.109
 3947TIP3    H111798   0.218   2.186   6.088
 3947TIP3    H211799   0.354   2.129   6.055
 3948TIP3   OH211800   5.704   2.754   1.095
 3948TIP3    H111801   5.689   2.705   1.014
 3948TIP3    H211802   5.783   2.805   1.078
 3949TIP3   OH211803   3.344   4.499   2.782
 3949TIP3    H111804   3.368   4.533   2.695
 3949TIP3    H211805   3.383   4.561   2.843
 3950TIP3   OH211806   5.134   6.621   5.994
 3950TIP3    H111807   5.057   6.577   6.030
 3950TIP3    H211808   5.144   6.584   5.906
 3951TIP3   OH211809   6.404   0.446   1.763
 3951TIP3    H111810   6.365   0.425   1.677
 3951TIP3    H211811   6.404   0.363   1.810
 3952TIP3   OH211812   6.325   3.657   5.916
 3952TIP3    H111813   6.392   3.717   5.948
 3952TIP3    H211814   6.286   3.703   5.842
 3953TIP3   OH211815   2.552   2.209   1.389
 3953TIP3    H111816   2.524   2.251   1.470
 3953TIP3    H211817   2.645   2.234   1.380
 3954TIP3   OH211818   6.491   4.402   5.467
 3954TIP3    H111819   6.530   4.315   5.480
 3954TIP3    H211820   6.397   4.385   5.464
 3955TIP3   OH211821   1.755   6.999   0.830
 3955TIP3    H111822   1.708   7.026   0.908
 3955TIP3    H211823   1.714   6.917   0.803
 3956TIP3   OH211824   2.021   0.305   5.958
 3956TIP3    H111825   2.013   0.328   6.050
 3956TIP3    H211826   1.936   0.268   5.934
 3957TIP3   OH211827   4.651   5.337   6.602
 3957TIP3    H111828   4.584   5.329   6.670
 3957TIP3    H211829   4.625   5.274   6.535
 3958TIP3   OH211830   1.198   2.995   0.504
 3958TIP3    H111831   1.286   2.981   0.468
 3958TIP3    H211832   1.157   2.909   0.503
 3959TIP3   OH211833   3.772   6.688   2.171
 3959TIP3    H111834   3.811   6.604   2.196
 3959TIP3    H211835   3.837   6.729   2.114
 3960TIP3   OH211836   2.775   6.512   0.016
 3960TIP3    H111837   2.800   6.600   0.042
 3960TIP3    H211838   2.833   6.490  -0.057
 3961TIP3   OH211839   7.657   4.993   6.050
 3961TIP3    H111840   7.627   5.083   6.050
 3961TIP3    H211841   7.711   4.985   5.971
 3962TIP3   OH211842   0.187   0.719   0.350
 3962TIP3    H111843   0.225   0.701   0.436
 3962TIP3    H211844   0.241   0.790   0.314
 3963TIP3   OH211845   4.250   0.152   1.110
 3963TIP3    H111846   4.221   0.096   1.182
 3963TIP3    H211847   4.344   0.162   1.124
 3964TIP3   OH211848   0.935   4.932   5.672
 3964TIP3    H111849   1.029   4.928   5.692
 3964TIP3    H211850   0.926   4.883   5.591
 3965TIP3   OH211851   1.176   0.033   6.214
 3965TIP3    H111852   1.152   0.115   6.258
 3965TIP3    H211853   1.268   0.045   6.189
 3966TIP3   OH211854   5.489   4.840   3.704
 3966TIP3    H111855   5.518   4.919   3.751
 3966TIP3    H211856   5.552   4.831   3.633
 3967TIP3   OH211857   5.547   4.262   3.731
 3967TIP3    H111858   5.593   4.188   3.691
 3967TIP3    H211859   5.497   4.224   3.803
 3968TIP3   OH211860   4.915   5.416   0.097
 3968TIP3    H111861   4.946   5.506   0.086
 3968TIP3    H211862   4.880   5.392   0.011
 3969TIP3   OH211863   6.758   4.806   2.821
 3969TIP3    H111864   6.805   4.839   2.898
 3969TIP3    H211865   6.803   4.845   2.747
 3970TIP3   OH211866   3.384   4.854   6.425
 3970TIP3    H111867   3.329   4.877   6.499
 3970TIP3    H211868   3.329   4.797   6.371
 3971TIP3   OH211869   4.577   2.844   0.942
 3971TIP3    H111870   4.638   2.774   0.920
 3971TIP3    H211871   4.497   2.799   0.970
 3972TIP3   OH211872   0.320   4.635   5.139
 3972TIP3    H111873   0.293   4.628   5.231
 3972TIP3    H211874   0.326   4.545   5.109
 3973TIP3   OH211875   0.627   4.255   4.303
 3973TIP3    H111876   0.642   4.326   4.366
 3973TIP3    H211877   0.695   4.191   4.323
 3974TIP3   OH211878   6.510   7.688   5.810
 3974TIP3    H111879   6.457   7.754   5.855
 3974TIP3    H211880   6.595   7.692   5.853
 3975TIP3   OH211881   7.196   7.467   3.486
 3975TIP3    H111882   7.249   7.546   3.483
 3975TIP3    H211883   7.252   7.402   3.527
 3976TIP3   OH211884   3.970   5.607   1.749
 3976TIP3    H111885   3.981   5.683   1.806
 3976TIP3    H211886   3.986   5.640   1.661
 3977TIP3   OH211887   1.093   6.482   5.623
 3977TIP3    H111888   1.175   6.441   5.651
 3977TIP3    H211889   1.025   6.427   5.662
 3978TIP3   OH211890   6.598   2.286   1.131
 3978TIP3    H111891   6.693   2.295   1.142
 3978TIP3    H211892   6.580   2.194   1.151
 3979TIP3   OH211893   3.916   7.586   1.689
 3979TIP3    H111894   3.856   7.660   1.692
 3979TIP3    H211895   3.944   7.574   1.779
 3980TIP3   OH211896   4.693   2.232   2.394
 3980TIP3    H111897   4.641   2.252   2.316
 3980TIP3    H211898   4.630   2.237   2.466
 3981TIP3   OH211899   1.172   5.082   2.459
 3981TIP3    H111900   1.195   4.998   2.499
 3981TIP3    H211901   1.077   5.085   2.462
 3982TIP3   OH211902   2.745   3.280   1.569
 3982TIP3    H111903   2.699   3.228   1.504
 3982TIP3    H211904   2.818   3.224   1.597
 3983TIP3   OH211905   0.034   6.565   6.751
 3983TIP3    H111906   0.072   6.504   6.689
 3983TIP3    H211907  -0.059   6.566   6.730
 3984TIP3   OH211908   3.996   3.448   3.623
 3984TIP3    H111909   3.921   3.493   3.584
 3984TIP3    H211910   4.046   3.416   3.548
 3985TIP3   OH211911   2.937   5.977   5.851
 3985TIP3    H111912   3.022   5.936   5.837
 3985TIP3    H211913   2.875   5.919   5.808
 3986TIP3   OH211914   2.117   7.001   2.162
 3986TIP3    H111915   2.060   7.059   2.111
 3986TIP3    H211916   2.098   6.914   2.129
 3987TIP3   OH211917   7.367   4.399   6.587
 3987TIP3    H111918   7.392   4.376   6.497
 3987TIP3    H211919   7.278   4.431   6.580
 3988TIP3   OH211920   5.604   5.034   4.752
 3988TIP3    H111921   5.698   5.014   4.752
 3988TIP3    H211922   5.571   4.995   4.833
 3989TIP3   OH211923   5.778   4.501   4.303
 3989TIP3    H111924   5.703   4.514   4.245
 3989TIP3    H211925   5.792   4.586   4.344
 3990TIP3   OH211926   4.852   5.566   2.196
 3990TIP3    H111927   4.934   5.526   2.222
 3990TIP3    H211928   4.790   5.494   2.192
 3991TIP3   OH211929   6.489   6.852   3.454
 3991TIP3    H111930   6.403   6.868   3.414
 3991TIP3    H211931   6.502   6.758   3.445
 3992TIP3   OH211932   4.081   4.157   5.190
 3992TIP3    H111933   4.114   4.187   5.106
 3992TIP3    H211934   4.160   4.133   5.239
 3993TIP3   OH211935   6.517   7.785   1.681
 3993TIP3    H111936   6.505   7.866   1.632
 3993TIP3    H211937   6.428   7.759   1.706
 3994TIP3   OH211938   3.683   2.250   2.576
 3994TIP3    H111939   3.635   2.173   2.608
 3994TIP3    H211940   3.775   2.231   2.597
 3995TIP3   OH211941   2.197   6.669   2.497
 3995TIP3    H111942   2.103   6.666   2.476
 3995TIP3    H211943   2.217   6.762   2.505
 3996TIP3   OH211944   2.433   3.471   3.160
 3996TIP3    H111945   2.415   3.468   3.066
 3996TIP3    H211946   2.396   3.554   3.190
 3997TIP3   OH211947   5.362   1.004   4.282
 3997TIP3    H111948   5.454   0.979   4.278
 3997TIP3    H211949   5.337   1.020   4.191
 3998TIP3   OH211950   4.858   6.747   0.526
 3998TIP3    H111951   4.764   6.741   0.512
 3998TIP3    H211952   4.884   6.658   0.550
 3999TIP3   OH211953   1.292   5.694   6.298
 3999TIP3    H111954   1.318   5.607   6.265
 3999TIP3    H211955   1.252   5.737   6.222
 4000TIP3   OH211956   7.072   4.391   4.740
 4000TIP3    H111957   7.000   4.338   4.705
 4000TIP3    H211958   7.034   4.439   4.813
 4001TIP3   OH211959   1.318   1.226   6.508
 4001TIP3    H111960   1.224   1.235   6.493
 4001TIP3    H211961   1.326   1.215   6.603
 4002TIP3   OH211962   4.748   3.331   5.551
 4002TIP3    H111963   4.788   3.251   5.586
 4002TIP3    H211964   4.685   3.300   5.486
 4003TIP3   OH211965   6.206   1.750   5.268
 4003TIP3    H111966   6.281   1.708   5.310
 4003TIP3    H211967   6.136   1.685   5.275
 4004TIP3   OH211968   8.110   3.127   5.608
 4004TIP3    H111969   8.110   3.139   5.703
 4004TIP3    H211970   8.028   3.166   5.579
 4005TIP3   OH211971   3.961   2.901   0.720
 4005TIP3    H111972   3.930   2.821   0.762
 4005TIP3    H211973   3.905   2.970   0.757
 4006TIP3   OH211974   0.335   4.769   3.929
 4006TIP3    H111975   0.409   4.805   3.979
 4006TIP3    H211976   0.330   4.824   3.851
 4007TIP3   OH211977   3.059   7.440   3.097
 4007TIP3    H111978   3.008   7.358   3.101
 4007TIP3    H211979   2.997   7.507   3.125
 4008TIP3   OH211980   6.558   7.032   5.297
 4008TIP3    H111981   6.509   7.043   5.216
 4008TIP3    H211982   6.495   7.053   5.366
 4009TIP3   OH211983   7.014   1.320   3.864
 4009TIP3    H111984   6.988   1.273   3.785
 4009TIP3    H211985   7.110   1.317   3.864
 4010TIP3   OH211986   2.270   3.768   2.645
 4010TIP3    H111987   2.213   3.817   2.705
 4010TIP3    H211988   2.337   3.730   2.701
 4011TIP3   OH211989   7.954   0.172   6.299
 4011TIP3    H111990   7.950   0.136   6.388
 4011TIP3    H211991   8.040   0.145   6.267
 4012TIP3   OH211992   6.841   2.258   3.425
 4012TIP3    H111993   6.760   2.300   3.455
 4012TIP3    H211994   6.811   2.181   3.377
 4013TIP3   OH211995   3.655   4.744   4.416
 4013TIP3    H111996   3.680   4.652   4.418
 4013TIP3    H211997   3.588   4.752   4.485
 4014TIP3   OH211998   4.265   3.432   4.045
 4014TIP3    H111999   4.336   3.367   4.044
 4014TIP3    H212000   4.237   3.437   3.953
 4015TIP3   OH212001   7.569   5.441   3.214
 4015TIP3    H112002   7.563   5.347   3.199
 4015TIP3    H212003   7.661   5.462   3.199
 4016TIP3   OH212004   3.709   7.667   4.015
 4016TIP3    H112005   3.720   7.708   4.101
 4016TIP3    H212006   3.799   7.649   3.986
 4017TIP3   OH212007   6.006   2.406   2.270
 4017TIP3    H112008   5.926   2.449   2.240
 4017TIP3    H212009   5.992   2.389   2.363
 4018TIP3   OH212010   1.368   1.738   0.191
 4018TIP3    H112011   1.462   1.720   0.196
 4018TIP3    H212012   1.353   1.804   0.259
 4019TIP3   OH212013   5.826   0.991   0.528
 4019TIP3    H112014   5.898   1.006   0.466
 4019TIP3    H212015   5.748   1.018   0.481
 4020TIP3   OH212016   4.574   1.344   2.651
 4020TIP3    H112017   4.655   1.314   2.692
 4020TIP3    H212018   4.507   1.284   2.683
 4021TIP3   OH212019   6.639   1.633   1.051
 4021TIP3    H112020   6.601   1.676   0.975
 4021TIP3    H212021   6.567   1.582   1.089
 4022TIP3   OH212022   4.739   1.810   5.531
 4022TIP3    H112023   4.794   1.885   5.510
 4022TIP3    H212024   4.745   1.802   5.626
 4023TIP3   OH212025   3.158   2.350   2.993
 4023TIP3    H112026   3.207   2.299   2.928
 4023TIP3    H212027   3.222   2.367   3.062
 4024TIP3   OH212028   4.959   2.874   2.982
 4024TIP3    H112029   4.882   2.818   2.995
 4024TIP3    H212030   4.979   2.865   2.889
 4025TIP3   OH212031   0.064   6.011   2.346
 4025TIP3    H112032   0.007   5.961   2.288
 4025TIP3    H212033   0.147   5.963   2.347
 4026TIP3   OH212034   0.319   1.449   5.011
 4026TIP3    H112035   0.244   1.392   5.024
 4026TIP3    H212036   0.318   1.508   5.086
 4027TIP3   OH212037   1.076   1.718   3.598
 4027TIP3    H112038   1.070   1.800   3.549
 4027TIP3    H212039   1.021   1.657   3.549
 4028TIP3   OH212040   6.529   2.075   2.643
 4028TIP3    H112041   6.460   2.054   2.706
 4028TIP3    H212042   6.483   2.117   2.571
 4029TIP3   OH212043   5.959   7.290   4.945
 4029TIP3    H112044   6.031   7.305   5.006
 4029TIP3    H212045   5.986   7.333   4.864
 4030TIP3   OH212046   1.854   1.820   3.897
 4030TIP3    H112047   1.912   1.772   3.838
 4030TIP3    H212048   1.795   1.868   3.840
 4031TIP3   OH212049   8.006   5.792   5.028
 4031TIP3    H112050   8.068   5.754   5.091
 4031TIP3    H212051   8.051   5.787   4.944
 4032TIP3   OH212052   1.730   5.112   2.728
 4032TIP3    H112053   1.760   5.092   2.640
 4032TIP3    H212054   1.684   5.032   2.756
 4033TIP3   OH212055   7.256   5.463   6.773
 4033TIP3    H112056   7.313   5.428   6.705
 4033TIP3    H212057   7.167   5.440   6.744
 4034TIP3   OH212058   8.019   4.477   4.913
 4034TIP3    H112059   7.979   4.496   4.828
 4034TIP3    H212060   7.979   4.541   4.972
 4035TIP3   OH212061   4.259   4.658   0.938
 4035TIP3    H112062   4.299   4.578   0.905
 4035TIP3    H212063   4.286   4.663   1.030
 4036TIP3   OH212064   5.479   5.757   2.021
 4036TIP3    H112065   5.517   5.697   1.957
 4036TIP3    H212066   5.415   5.704   2.068
 4037TIP3   OH212067   0.991   6.162   5.126
 4037TIP3    H112068   0.977   6.212   5.046
 4037TIP3    H212069   1.066   6.203   5.167
 4038TIP3   OH212070   4.769   0.584   3.298
 4038TIP3    H112071   4.813   0.640   3.363
 4038TIP3    H212072   4.699   0.639   3.263
 4039TIP3   OH212073   8.123   5.428   2.080
 4039TIP3    H112074   8.052   5.489   2.095
 4039TIP3    H212075   8.109   5.397   1.990
 4040TIP3   OH212076   2.529   2.653   5.717
 4040TIP3    H112077   2.554   2.642   5.625
 4040TIP3    H212078   2.437   2.625   5.720
 4041TIP3   OH212079   2.124   1.310   4.885
 4041TIP3    H112080   2.095   1.272   4.802
 4041TIP3    H212081   2.143   1.402   4.864
 4042TIP3   OH212082   7.975   1.112   4.195
 4042TIP3    H112083   7.923   1.191   4.177
 4042TIP3    H212084   8.053   1.122   4.141
 4043TIP3   OH212085   4.601   2.406   1.297
 4043TIP3    H112086   4.532   2.350   1.332
 4043TIP3    H212087   4.592   2.397   1.202
 4044TIP3   OH212088   7.979   3.086   1.049
 4044TIP3    H112089   8.015   3.174   1.054
 4044TIP3    H212090   8.041   3.032   1.098
 4045TIP3   OH212091   1.819   4.531   0.562
 4045TIP3    H112092   1.731   4.559   0.587
 4045TIP3    H212093   1.862   4.511   0.646
 4046TIP3   OH212094   3.834   1.709   3.631
 4046TIP3    H112095   3.924   1.733   3.650
 4046TIP3    H212096   3.800   1.677   3.715
 4047TIP3   OH212097   6.942   0.727   5.688
 4047TIP3    H112098   6.933   0.811   5.642
 4047TIP3    H212099   6.917   0.746   5.778
 4048TIP3   OH212100   7.004   1.022   3.746
 4048TIP3    H112101   6.910   1.013   3.729
 4048TIP3    H212102   7.019   0.970   3.825
 4049TIP3   OH212103   3.346   1.439   6.051
 4049TIP3    H112104   3.355   1.369   5.987
 4049TIP3    H212105   3.273   1.492   6.019
 4050TIP3   OH212106   3.668   7.662   3.683
 4050TIP3    H112107   3.600   7.719   3.719
 4050TIP3    H212108   3.657   7.579   3.730
 4051TIP3   OH212109   8.128   0.117   2.316
 4051TIP3    H112110   8.222   0.135   2.315
 4051TIP3    H212111   8.115   0.054   2.245
 4052TIP3   OH212112   4.895   3.468   3.914
 4052TIP3    H112113   4.883   3.560   3.936
 4052TIP3    H212114   4.808   3.438   3.887
 4053TIP3   OH212115   5.809   3.934   2.274
 4053TIP3    H112116   5.771   3.849   2.250
 4053TIP3    H212117   5.797   3.939   2.369
 4054TIP3   OH212118   6.495   5.479   1.655
 4054TIP3    H112119   6.557   5.545   1.625
 4054TIP3    H212120   6.539   5.395   1.638
 4055TIP3   OH212121   6.573   1.082   3.993
 4055TIP3    H112122   6.664   1.109   4.002
 4055TIP3    H212123   6.527   1.131   4.062
 4056TIP3   OH212124   2.001   5.202   2.296
 4056TIP3    H112125   2.012   5.171   2.206
 4056TIP3    H212126   2.012   5.297   2.291
 4057TIP3   OH212127   1.218   3.593   3.930
 4057TIP3    H112128   1.138   3.620   3.885
 4057TIP3    H212129   1.280   3.574   3.859
 4058TIP3   OH212130   0.465   2.504   3.679
 4058TIP3    H112131   0.390   2.558   3.651
 4058TIP3    H212132   0.541   2.558   3.659
 4059TIP3   OH212133   2.456   3.643   6.494
 4059TIP3    H112134   2.459   3.695   6.574
 4059TIP3    H212135   2.525   3.678   6.439
 4060TIP3   OH212136   5.298   0.831   4.700
 4060TIP3    H112137   5.310   0.785   4.616
 4060TIP3    H212138   5.223   0.889   4.684
 4061TIP3   OH212139   5.780   5.047   6.624
 4061TIP3    H112140   5.746   5.055   6.535
 4061TIP3    H212141   5.740   4.967   6.658
 4062TIP3   OH212142   5.101   3.863   5.993
 4062TIP3    H112143   5.121   3.777   5.958
 4062TIP3    H212144   5.145   3.866   6.078
 4063TIP3   OH212145   7.277   0.745   1.779
 4063TIP3    H112146   7.297   0.733   1.872
 4063TIP3    H212147   7.187   0.714   1.770
 4064TIP3   OH212148   3.792   5.410   3.259
 4064TIP3    H112149   3.747   5.492   3.281
 4064TIP3    H212150   3.864   5.437   3.203
 4065TIP3   OH212151   1.462   3.718   5.540
 4065TIP3    H112152   1.524   3.646   5.535
 4065TIP3    H212153   1.480   3.761   5.623
 4066TIP3   OH212154   5.855   2.205   1.180
 4066TIP3    H112155   5.943   2.168   1.189
 4066TIP3    H212156   5.838   2.248   1.263
 4067TIP3   OH212157   4.353   4.392   4.610
 4067TIP3    H112158   4.360   4.330   4.682
 4067TIP3    H212159   4.381   4.343   4.533
 4068TIP3   OH212160   3.214   2.055   5.932
 4068TIP3    H112161   3.278   2.038   5.863
 4068TIP3    H212162   3.201   1.970   5.974
 4069TIP3   OH212163   5.969   5.961   5.077
 4069TIP3    H112164   5.969   6.057   5.077
 4069TIP3    H212165   6.061   5.938   5.062
 4070TIP3   OH212166   7.391   6.115   4.152
 4070TIP3    H112167   7.393   6.020   4.165
 4070TIP3    H212168   7.379   6.150   4.240
 4071TIP3   OH212169   0.653   0.413   3.321
 4071TIP3    H112170   0.567   0.418   3.362
 4071TIP3    H212171   0.643   0.345   3.254
 4072TIP3   OH212172   8.061   1.350   1.505
 4072TIP3    H112173   8.004   1.275   1.523
 4072TIP3    H212174   8.001   1.425   1.499
 4073TIP3   OH212175   6.440   3.848   5.546
 4073TIP3    H112176   6.482   3.871   5.463
 4073TIP3    H212177   6.465   3.757   5.561
 4074TIP3   OH212178   7.959   2.730   1.581
 4074TIP3    H112179   7.904   2.784   1.524
 4074TIP3    H212180   7.974   2.784   1.658
 4075TIP3   OH212181   8.069   3.007   4.456
 4075TIP3    H112182   8.006   2.947   4.496
 4075TIP3    H212183   8.016   3.062   4.398
 4076TIP3   OH212184   7.695   7.260   4.350
 4076TIP3    H112185   7.673   7.240   4.259
 4076TIP3    H212186   7.743   7.343   4.346
 4077TIP3   OH212187   6.119   2.564   6.105
 4077TIP3    H112188   6.120   2.594   6.196
 4077TIP3    H212189   6.124   2.469   6.111
 4078TIP3   OH212190   7.399   5.222   5.080
 4078TIP3    H112191   7.421   5.158   5.012
 4078TIP3    H212192   7.364   5.170   5.152
 4079TIP3   OH212193   4.392   6.406   2.208
 4079TIP3    H112194   4.432   6.451   2.134
 4079TIP3    H212195   4.298   6.425   2.201
 4080TIP3   OH212196   7.100   0.563   5.982
 4080TIP3    H112197   7.076   0.655   5.991
 4080TIP3    H212198   7.078   0.524   6.067
 4081TIP3   OH212199   6.174   7.603   4.925
 4081TIP3    H112200   6.121   7.644   4.993
 4081TIP3    H212201   6.112   7.554   4.872
 4082TIP3   OH212202   3.426   6.499   1.708
 4082TIP3    H112203   3.386   6.503   1.621
 4082TIP3    H212204   3.451   6.589   1.728
 4083TIP3   OH212205   1.710   0.622   0.831
 4083TIP3    H112206   1.667   0.602   0.748
 4083TIP3    H212207   1.712   0.717   0.835
 4084TIP3   OH212208   2.422   5.879   6.572
 4084TIP3    H112209   2.375   5.829   6.505
 4084TIP3    H212210   2.478   5.939   6.522
 4085TIP3   OH212211   7.673   0.500   5.100
 4085TIP3    H112212   7.691   0.592   5.121
 4085TIP3    H212213   7.759   0.458   5.098
 4086TIP3   OH212214   2.953   6.322   3.233
 4086TIP3    H112215   2.951   6.361   3.320
 4086TIP3    H212216   2.879   6.361   3.187
 4087TIP3   OH212217   1.017   5.612   3.010
 4087TIP3    H112218   1.080   5.545   2.983
 4087TIP3    H212219   0.939   5.593   2.959
 4088TIP3   OH212220   1.906   0.792   2.483
 4088TIP3    H112221   1.812   0.804   2.473
 4088TIP3    H212222   1.922   0.701   2.456
 4089TIP3   OH212223   3.980   5.108   1.829
 4089TIP3    H112224   4.018   5.141   1.748
 4089TIP3    H212225   4.008   5.169   1.896
 4090TIP3   OH212226   3.901   2.098   1.360
 4090TIP3    H112227   3.977   2.151   1.337
 4090TIP3    H212228   3.833   2.161   1.383
 4091TIP3   OH212229   3.480   5.883   2.694
 4091TIP3    H112230   3.517   5.931   2.767
 4091TIP3    H212231   3.556   5.849   2.646
 4092TIP3   OH212232   6.686   5.507   3.130
 4092TIP3    H112233   6.636   5.564   3.072
 4092TIP3    H212234   6.652   5.419   3.111
 4093TIP3   OH212235   2.202   1.211   6.169
 4093TIP3    H112236   2.200   1.139   6.232
 4093TIP3    H212237   2.170   1.287   6.219
 4094TIP3   OH212238   1.637   4.412   2.087
 4094TIP3    H112239   1.671   4.343   2.030
 4094TIP3    H212240   1.661   4.384   2.175
 4095TIP3   OH212241   0.538   2.567   1.745
 4095TIP3    H112242   0.572   2.615   1.669
 4095TIP3    H212243   0.616   2.543   1.795
 4096TIP3   OH212244   4.096   3.835   4.987
 4096TIP3    H112245   4.082   3.828   5.081
 4096TIP3    H212246   4.011   3.816   4.948
 4097TIP3   OH212247   5.927   3.123   0.624
 4097TIP3    H112248   5.911   3.046   0.569
 4097TIP3    H212249   5.861   3.187   0.597
 4098TIP3   OH212250   3.209   2.209   5.239
 4098TIP3    H112251   3.113   2.204   5.245
 4098TIP3    H212252   3.228   2.183   5.149
 4099TIP3   OH212253   2.955   3.909   6.140
 4099TIP3    H112254   2.946   4.004   6.148
 4099TIP3    H212255   3.037   3.888   6.185
 4100TIP3   OH212256   4.026   4.591   0.274
 4100TIP3    H112257   4.094   4.640   0.321
 4100TIP3    H212258   4.073   4.519   0.233
 4101TIP3   OH212259   1.989   0.481   1.784
 4101TIP3    H112260   1.899   0.447   1.783
 4101TIP3    H212261   2.043   0.405   1.803
 4102TIP3   OH212262   4.380   5.647   5.044
 4102TIP3    H112263   4.336   5.723   5.083
 4102TIP3    H212264   4.462   5.639   5.093
 4103TIP3   OH212265   0.790   3.946   1.553
 4103TIP3    H112266   0.720   4.010   1.544
 4103TIP3    H212267   0.761   3.870   1.503
 4104TIP3   OH212268   6.173   5.613   0.065
 4104TIP3    H112269   6.102   5.673   0.043
 4104TIP3    H212270   6.143   5.567   0.143
 4105TIP3   OH212271   3.335   4.109   5.016
 4105TIP3    H112272   3.339   4.109   4.921
 4105TIP3    H212273   3.242   4.119   5.036
 4106TIP3   OH212274   7.076   0.339   5.202
 4106TIP3    H112275   7.042   0.424   5.173
 4106TIP3    H212276   6.999   0.282   5.202
 4107TIP3   OH212277   3.608   4.521   5.802
 4107TIP3    H112278   3.602   4.429   5.826
 4107TIP3    H212279   3.519   4.546   5.780
 4108TIP3   OH212280   2.590   5.063   3.027
 4108TIP3    H112281   2.652   5.045   3.097
 4108TIP3    H212282   2.638   5.117   2.965
 4109TIP3   OH212283   5.382   4.123   1.946
 4109TIP3    H112284   5.353   4.067   1.874
 4109TIP3    H212285   5.335   4.206   1.931
 4110TIP3   OH212286   4.730   1.107   6.726
 4110TIP3    H112287   4.693   1.175   6.782
 4110TIP3    H212288   4.726   1.027   6.778
 4111TIP3   OH212289   5.617   6.879   3.761
 4111TIP3    H112290   5.580   6.967   3.748
 4111TIP3    H212291   5.629   6.872   3.856
 4112TIP3   OH212292   4.251   0.494   1.138
 4112TIP3    H112293   4.213   0.515   1.224
 4112TIP3    H212294   4.194   0.426   1.102
 4113TIP3   OH212295   4.653   5.321   1.068
 4113TIP3    H112296   4.593   5.279   1.130
 4113TIP3    H212297   4.713   5.251   1.042
 4114TIP3   OH212298   7.381   4.781   6.563
 4114TIP3    H112299   7.391   4.865   6.607
 4114TIP3    H212300   7.320   4.732   6.618
 4115TIP3   OH212301   4.070   4.895   3.550
 4115TIP3    H112302   4.138   4.922   3.488
 4115TIP3    H212303   4.034   4.977   3.583
 4116TIP3   OH212304   2.871   4.510   1.517
 4116TIP3    H112305   2.918   4.591   1.496
 4116TIP3    H212306   2.864   4.510   1.612
 4117TIP3   OH212307   0.136   0.481   1.089
 4117TIP3    H112308   0.192   0.488   1.012
 4117TIP3    H212309   0.074   0.553   1.081
 4118TIP3   OH212310   7.422   0.871   6.647
 4118TIP3    H112311   7.329   0.851   6.660
 4118TIP3    H212312   7.458   0.791   6.609
 4119TIP3   OH212313   7.866   5.306   1.262
 4119TIP3    H112314   7.889   5.334   1.350
 4119TIP3    H212315   7.901   5.375   1.205
 4120TIP3   OH212316   4.422   2.939   3.656
 4120TIP3    H112317   4.348   2.998   3.641
 4120TIP3    H212318   4.382   2.856   3.680
 4121TIP3   OH212319   0.828   0.736   4.969
 4121TIP3    H112320   0.736   0.763   4.966
 4121TIP3    H212321   0.855   0.734   4.877
 4122TIP3   OH212322   6.359   3.140   1.288
 4122TIP3    H112323   6.404   3.055   1.291
 4122TIP3    H212324   6.278   3.126   1.337
 4123TIP3   OH212325   1.358   2.972   3.879
 4123TIP3    H112326   1.414   2.914   3.932
 4123TIP3    H212327   1.277   2.923   3.868
 4124TIP3   OH212328   3.120   5.218   5.344
 4124TIP3    H112329   3.050   5.206   5.279
 4124TIP3    H212330   3.079   5.196   5.428
 4125TIP3   OH212331   3.870   3.000   5.361
 4125TIP3    H112332   3.956   2.963   5.378
 4125TIP3    H212333   3.887   3.091   5.336
 4126TIP3   OH212334   3.134   2.580   2.191
 4126TIP3    H112335   3.216   2.628   2.194
 4126TIP3    H212336   3.125   2.542   2.278
 4127TIP3   OH212337   8.086   0.048   5.388
 4127TIP3    H112338   8.168   0.074   5.429
 4127TIP3    H212339   8.066   0.118   5.326
 4128TIP3   OH212340   2.674   4.317   0.353
 4128TIP3    H112341   2.741   4.339   0.417
 4128TIP3    H212342   2.630   4.241   0.390
 4129TIP3   OH212343   7.503   4.017   4.201
 4129TIP3    H112344   7.456   4.094   4.233
 4129TIP3    H212345   7.447   3.982   4.132
 4130TIP3   OH212346   2.186   0.032   3.354
 4130TIP3    H112347   2.188  -0.030   3.426
 4130TIP3    H212348   2.277   0.061   3.345
 4131TIP3   OH212349   1.590   5.582   5.968
 4131TIP3    H112350   1.654   5.646   5.999
 4131TIP3    H212351   1.640   5.525   5.909
 4132TIP3   OH212352   4.850   3.166   3.499
 4132TIP3    H112353   4.901   3.246   3.490
 4132TIP3    H212354   4.835   3.157   3.593
 4133TIP3   OH212355   7.202   5.861   5.797
 4133TIP3    H112356   7.112   5.829   5.789
 4133TIP3    H212357   7.195   5.955   5.780
 4134TIP3   OH212358   0.718   7.727   1.446
 4134TIP3    H112359   0.708   7.655   1.384
 4134TIP3    H212360   0.684   7.692   1.528
 4135TIP3   OH212361   4.793   0.270   0.198
 4135TIP3    H112362   4.739   0.326   0.253
 4135TIP3    H212363   4.735   0.246   0.125
 4136TIP3   OH212364   2.116   1.648   1.655
 4136TIP3    H112365   2.208   1.672   1.650
 4136TIP3    H212366   2.116   1.553   1.665
 4137TIP3   OH212367   6.072   1.287   5.388
 4137TIP3    H112368   6.129   1.213   5.367
 4137TIP3    H212369   6.091   1.306   5.480
 4138TIP3   OH212370   0.600   2.581   0.604
 4138TIP3    H112371   0.674   2.615   0.655
 4138TIP3    H212372   0.543   2.540   0.668
 4139TIP3   OH212373   3.952   4.058   3.156
 4139TIP3    H112374   3.865   4.091   3.135
 4139TIP3    H212375   4.012   4.121   3.118
 4140TIP3   OH212376   7.767   6.603   0.049
 4140TIP3    H112377   7.782   6.666  -0.021
 4140TIP3    H212378   7.688   6.556   0.023
 4141TIP3   OH212379   1.211   1.473   4.188
 4141TIP3    H112380   1.251   1.391   4.218
 4141TIP3    H212381   1.168   1.508   4.266
 4142TIP3   OH212382   2.435   0.951   6.647
 4142TIP3    H112383   2.402   1.041   6.646
 4142TIP3    H212384   2.388   0.909   6.719
 4143TIP3   OH212385   5.613   1.399   5.960
 4143TIP3    H112386   5.653   1.338   6.022
 4143TIP3    H212387   5.681   1.465   5.945
 4144TIP3   OH212388   0.357   4.766   2.031
 4144TIP3    H112389   0.333   4.709   2.104
 4144TIP3    H212390   0.420   4.715   1.980
 4145TIP3   OH212391   3.763   2.814   6.427
 4145TIP3    H112392   3.781   2.831   6.335
 4145TIP3    H212393   3.750   2.719   6.432
 4146TIP3   OH212394   1.196   5.944   5.224
 4146TIP3    H112395   1.224   5.973   5.311
 4146TIP3    H212396   1.229   6.011   5.164
 4147TIP3   OH212397   5.946   7.416   2.646
 4147TIP3    H112398   5.901   7.408   2.730
 4147TIP3    H212399   5.931   7.332   2.603
 4148TIP3   OH212400   3.359   7.519   6.803
 4148TIP3    H112401   3.313   7.574   6.739
 4148TIP3    H212402   3.414   7.462   6.750
 4149TIP3   OH212403   0.639   3.561   1.091
 4149TIP3    H112404   0.712   3.574   1.150
 4149TIP3    H212405   0.583   3.638   1.104
 4150TIP3   OH212406   3.624   1.273   6.492
 4150TIP3    H112407   3.680   1.237   6.423
 4150TIP3    H212408   3.673   1.259   6.573
 4151TIP3   OH212409   1.250   3.894   0.643
 4151TIP3    H112410   1.167   3.942   0.644
 4151TIP3    H212411   1.267   3.878   0.550
 4152TIP3   OH212412   7.548   7.785   4.849
 4152TIP3    H112413   7.590   7.705   4.881
 4152TIP3    H212414   7.519   7.763   4.761
 4153TIP3   OH212415   1.347   4.289   3.533
 4153TIP3    H112416   1.270   4.234   3.547
 4153TIP3    H212417   1.310   4.374   3.508
 4154TIP3   OH212418   5.430   4.518   5.074
 4154TIP3    H112419   5.470   4.439   5.109
 4154TIP3    H212420   5.401   4.494   4.986
 4155TIP3   OH212421   7.395   7.275   5.958
 4155TIP3    H112422   7.315   7.224   5.966
 4155TIP3    H212423   7.409   7.312   6.045
 4156TIP3   OH212424   7.184   7.507   2.828
 4156TIP3    H112425   7.165   7.460   2.747
 4156TIP3    H212426   7.175   7.599   2.806
 4157TIP3   OH212427   2.312   3.413   1.018
 4157TIP3    H112428   2.312   3.344   0.951
 4157TIP3    H212429   2.376   3.383   1.083
 4158TIP3   OH212430   7.582   0.639   0.963
 4158TIP3    H112431   7.543   0.723   0.986
 4158TIP3    H212432   7.542   0.576   1.023
 4159TIP3   OH212433   7.285   0.287   4.833
 4159TIP3    H112434   7.307   0.242   4.752
 4159TIP3    H212435   7.255   0.217   4.891
 4160TIP3   OH212436   1.516   3.306   2.944
 4160TIP3    H112437   1.479   3.221   2.968
 4160TIP3    H212438   1.569   3.287   2.866
 4161TIP3   OH212439   1.455   6.727   2.727
 4161TIP3    H112440   1.365   6.694   2.726
 4161TIP3    H212441   1.446   6.822   2.722
 4162TIP3   OH212442   6.186   0.453   0.166
 4162TIP3    H112443   6.126   0.436   0.093
 4162TIP3    H212444   6.239   0.373   0.172
 4163TIP3   OH212445   5.664   7.251   3.099
 4163TIP3    H112446   5.601   7.179   3.094
 4163TIP3    H212447   5.613   7.327   3.125
 4164TIP3   OH212448   1.225   3.983   3.591
 4164TIP3    H112449   1.196   3.900   3.628
 4164TIP3    H212450   1.209   4.047   3.660
 4165TIP3   OH212451   5.240   1.221   1.277
 4165TIP3    H112452   5.229   1.282   1.349
 4165TIP3    H212453   5.268   1.275   1.203
 4166TIP3   OH212454   4.242   0.234   3.649
 4166TIP3    H112455   4.285   0.175   3.587
 4166TIP3    H212456   4.280   0.320   3.630
 4167TIP3   OH212457   5.550   4.563   1.836
 4167TIP3    H112458   5.634   4.540   1.798
 4167TIP3    H212459   5.531   4.490   1.896
 4168TIP3   OH212460   4.708   3.002   0.415
 4168TIP3    H112461   4.754   2.929   0.456
 4168TIP3    H212462   4.661   3.044   0.486
 4169TIP3   OH212463   2.703   2.469   3.443
 4169TIP3    H112464   2.780   2.475   3.387
 4169TIP3    H212465   2.662   2.386   3.418
 4170TIP3   OH212466   3.282   3.070   0.655
 4170TIP3    H112467   3.258   3.162   0.641
 4170TIP3    H212468   3.366   3.061   0.610
 4171TIP3   OH212469   6.595   2.261   3.522
 4171TIP3    H112470   6.524   2.218   3.474
 4171TIP3    H212471   6.599   2.215   3.606
 4172TIP3   OH212472   5.043   4.799   4.907
 4172TIP3    H112473   5.000   4.809   4.991
 4172TIP3    H212474   5.135   4.816   4.925
 4173TIP3   OH212475   4.021   5.980   4.411
 4173TIP3    H112476   4.088   5.961   4.346
 4173TIP3    H212477   3.984   5.894   4.433
 4174TIP3   OH212478   1.675   0.125   4.815
 4174TIP3    H112479   1.613   0.058   4.845
 4174TIP3    H212480   1.756   0.105   4.863
 4175TIP3   OH212481   6.929   1.691   1.894
 4175TIP3    H112482   6.909   1.761   1.831
 4175TIP3    H212483   6.918   1.732   1.980
 4176TIP3   OH212484   4.815   3.076   6.503
 4176TIP3    H112485   4.881   3.088   6.435
 4176TIP3    H212486   4.840   3.140   6.571
 4177TIP3   OH212487   3.750   3.574   3.541
 4177TIP3    H112488   3.692   3.609   3.473
 4177TIP3    H212489   3.788   3.651   3.583
 4178TIP3   OH212490   6.427   0.946   6.391
 4178TIP3    H112491   6.351   0.897   6.424
 4178TIP3    H212492   6.488   0.947   6.465
 4179TIP3   OH212493   0.979   4.439   6.580
 4179TIP3    H112494   0.938   4.524   6.569
 4179TIP3    H212495   0.955   4.390   6.501
 4180TIP3   OH212496   4.172   1.878   0.226
 4180TIP3    H112497   4.099   1.833   0.183
 4180TIP3    H212498   4.135   1.962   0.255
 4181TIP3   OH212499   2.785   2.638   6.521
 4181TIP3    H112500   2.738   2.705   6.571
 4181TIP3    H212501   2.765   2.556   6.566
 4182TIP3   OH212502   7.916   7.527   1.508
 4182TIP3    H112503   7.943   7.618   1.524
 4182TIP3    H212504   7.966   7.501   1.430
 4183TIP3   OH212505   0.507   0.056   4.155
 4183TIP3    H112506   0.461   0.063   4.071
 4183TIP3    H212507   0.446   0.009   4.212
 4184TIP3   OH212508   7.325   4.785   0.431
 4184TIP3    H112509   7.317   4.843   0.506
 4184TIP3    H212510   7.236   4.772   0.399
 4185TIP3   OH212511   4.154   3.971   2.525
 4185TIP3    H112512   4.197   3.950   2.442
 4185TIP3    H212513   4.061   3.955   2.508
 4186TIP3   OH212514   5.327   5.713   2.389
 4186TIP3    H112515   5.403   5.768   2.370
 4186TIP3    H212516   5.269   5.768   2.441
 4187TIP3   OH212517   6.899   7.052   6.450
 4187TIP3    H112518   6.857   7.106   6.517
 4187TIP3    H212519   6.983   7.028   6.487
 4188TIP3   OH212520   2.782   2.749   2.564
 4188TIP3    H112521   2.711   2.698   2.603
 4188TIP3    H212522   2.842   2.766   2.636
 4189TIP3   OH212523   7.059   6.980   6.214
 4189TIP3    H112524   7.059   6.884   6.211
 4189TIP3    H212525   6.978   7.002   6.261
 4190TIP3   OH212526   8.180   4.611   0.240
 4190TIP3    H112527   8.234   4.691   0.238
 4190TIP3    H212528   8.215   4.560   0.313
 4191TIP3   OH212529   3.349   6.916   5.380
 4191TIP3    H112530   3.292   6.980   5.422
 4191TIP3    H212531   3.297   6.882   5.307
 4192TIP3   OH212532   0.859   4.807   3.307
 4192TIP3    H112533   0.897   4.868   3.243
 4192TIP3    H212534   0.907   4.825   3.388
 4193TIP3   OH212535   0.456   5.638   0.299
 4193TIP3    H112536   0.484   5.549   0.278
 4193TIP3    H212537   0.533   5.692   0.278
 4194TIP3   OH212538   5.052   4.069   0.990
 4194TIP3    H112539   5.132   4.074   0.938
 4194TIP3    H212540   5.028   3.976   0.988
 4195TIP3   OH212541   0.285   2.817   2.368
 4195TIP3    H112542   0.215   2.881   2.352
 4195TIP3    H212543   0.366   2.865   2.349
 4196TIP3   OH212544   4.575   3.250   3.521
 4196TIP3    H112545   4.495   3.199   3.507
 4196TIP3    H212546   4.625   3.200   3.585
 4197TIP3   OH212547   2.663   0.637   3.728
 4197TIP3    H112548   2.639   0.728   3.712
 4197TIP3    H212549   2.580   0.589   3.731
 4198TIP3   OH212550   3.629   5.690   6.279
 4198TIP3    H112551   3.609   5.749   6.206
 4198TIP3    H212552   3.551   5.634   6.287
 4199TIP3   OH212553   7.711   4.290   4.296
 4199TIP3    H112554   7.720   4.378   4.261
 4199TIP3    H212555   7.733   4.298   4.389
 4200TIP3   OH212556   7.029   4.033   6.580
 4200TIP3    H112557   6.959   3.976   6.612
 4200TIP3    H212558   7.056   4.084   6.657
 4201TIP3   OH212559   4.536   1.674   0.801
 4201TIP3    H112560   4.451   1.718   0.803
 4201TIP3    H212561   4.529   1.607   0.869
 4202TIP3   OH212562   6.490   7.624   5.550
 4202TIP3    H112563   6.505   7.644   5.642
 4202TIP3    H212564   6.512   7.531   5.541
 4203TIP3   OH212565   6.310   7.483   3.986
 4203TIP3    H112566   6.281   7.465   3.897
 4203TIP3    H212567   6.342   7.573   3.984
 4204TIP3   OH212568   4.792   1.530   6.771
 4204TIP3    H112569   4.757   1.441   6.780
 4204TIP3    H212570   4.755   1.562   6.689
 4205TIP3   OH212571   3.261   2.857   1.921
 4205TIP3    H112572   3.340   2.804   1.930
 4205TIP3    H212573   3.277   2.933   1.977
 4206TIP3   OH212574   5.776   0.800   0.119
 4206TIP3    H112575   5.688   0.837   0.130
 4206TIP3    H212576   5.810   0.844   0.040
 4207TIP3   OH212577   5.657   2.857   6.686
 4207TIP3    H112578   5.618   2.885   6.603
 4207TIP3    H212579   5.657   2.762   6.682
 4208TIP3   OH212580   3.581   0.510   5.180
 4208TIP3    H112581   3.561   0.602   5.161
 4208TIP3    H212582   3.498   0.474   5.212
 4209TIP3   OH212583   2.006   0.534   2.394
 4209TIP3    H112584   2.082   0.524   2.337
 4209TIP3    H212585   1.945   0.467   2.365
 4210TIP3   OH212586   1.492   1.713   0.469
 4210TIP3    H112587   1.452   1.626   0.478
 4210TIP3    H212588   1.585   1.698   0.485
 4211TIP3   OH212589   6.562   4.576   4.142
 4211TIP3    H112590   6.619   4.608   4.212
 4211TIP3    H212591   6.581   4.633   4.068
 4212TIP3   OH212592   1.865   4.572   1.874
 4212TIP3    H112593   1.816   4.639   1.922
 4212TIP3    H212594   1.801   4.502   1.860
 4213TIP3   OH212595   2.242   5.786   1.928
 4213TIP3    H112596   2.270   5.841   2.002
 4213TIP3    H212597   2.197   5.713   1.969
 4214TIP3   OH212598   6.527   2.318   6.346
 4214TIP3    H112599   6.487   2.282   6.267
 4214TIP3    H212600   6.620   2.297   6.337
 4215TIP3   OH212601   3.733   4.668   2.531
 4215TIP3    H112602   3.827   4.679   2.546
 4215TIP3    H212603   3.693   4.747   2.569
 4216TIP3   OH212604   2.524   4.345   1.668
 4216TIP3    H112605   2.579   4.309   1.738
 4216TIP3    H212606   2.446   4.288   1.667
 4217TIP3   OH212607   7.945   2.428   2.754
 4217TIP3    H112608   7.934   2.338   2.784
 4217TIP3    H212609   8.010   2.465   2.815
 4218TIP3   OH212610   6.863   1.240   2.110
 4218TIP3    H112611   6.855   1.180   2.036
 4218TIP3    H212612   6.866   1.327   2.070
 4219TIP3   OH212613   8.270   5.158   3.255
 4219TIP3    H112614   8.241   5.136   3.343
 4219TIP3    H212615   8.194   5.201   3.215
 4220TIP3   OH212616   1.876   6.628   3.049
 4220TIP3    H112617   1.909   6.607   2.961
 4220TIP3    H212618   1.901   6.552   3.102
 4221TIP3   OH212619   5.448   5.957   5.539
 4221TIP3    H112620   5.394   5.913   5.605
 4221TIP3    H212621   5.423   6.049   5.545
 4222TIP3   OH212622   5.447   4.477   4.352
 4222TIP3    H112623   5.365   4.493   4.305
 4222TIP3    H212624   5.491   4.409   4.300
 4223TIP3   OH212625   6.980   6.621   1.163
 4223TIP3    H112626   7.068   6.646   1.191
 4223TIP3    H212627   6.994   6.568   1.084
 4224TIP3   OH212628   3.640   0.508   6.074
 4224TIP3    H112629   3.682   0.594   6.082
 4224TIP3    H212630   3.552   0.528   6.043
 4225TIP3   OH212631   7.782   6.343   1.611
 4225TIP3    H112632   7.868   6.385   1.610
 4225TIP3    H212633   7.757   6.336   1.518
 4226TIP3   OH212634   1.937   6.448   5.426
 4226TIP3    H112635   1.993   6.372   5.442
 4226TIP3    H212636   1.901   6.433   5.339
 4227TIP3   OH212637   6.842   2.392   0.711
 4227TIP3    H112638   6.862   2.482   0.687
 4227TIP3    H212639   6.918   2.341   0.681
 4228TIP3   OH212640   7.794   5.584   4.622
 4228TIP3    H112641   7.735   5.513   4.599
 4228TIP3    H212642   7.786   5.592   4.717
 4229TIP3   OH212643   5.275   2.860   3.108
 4229TIP3    H112644   5.338   2.843   3.038
 4229TIP3    H212645   5.196   2.812   3.081
 4230TIP3   OH212646   7.296   1.317   4.198
 4230TIP3    H112647   7.306   1.385   4.130
 4230TIP3    H212648   7.205   1.289   4.189
 4231TIP3   OH212649   3.236   0.434   6.337
 4231TIP3    H112650   3.314   0.482   6.310
 4231TIP3    H212651   3.269   0.350   6.370
 4232TIP3   OH212652   5.689   3.991   1.906
 4232TIP3    H112653   5.699   3.998   1.811
 4232TIP3    H212654   5.630   4.063   1.929
 4233TIP3   OH212655   4.054   2.361   1.657
 4233TIP3    H112656   4.123   2.404   1.606
 4233TIP3    H212657   3.972   2.398   1.624
 4234TIP3   OH212658   6.564   7.058   0.505
 4234TIP3    H112659   6.583   7.067   0.599
 4234TIP3    H212660   6.560   6.963   0.490
 4235TIP3   OH212661   2.169   7.111   2.620
 4235TIP3    H112662   2.230   7.059   2.568
 4235TIP3    H212663   2.163   7.065   2.703
 4236TIP3   OH212664   2.405   6.582   3.572
 4236TIP3    H112665   2.338   6.627   3.623
 4236TIP3    H212666   2.386   6.607   3.481
 4237TIP3   OH212667   2.660   2.203   6.409
 4237TIP3    H112668   2.666   2.279   6.467
 4237TIP3    H212669   2.566   2.186   6.400
 4238TIP3   OH212670   5.042   0.562   3.469
 4238TIP3    H112671   4.985   0.634   3.441
 4238TIP3    H212672   5.113   0.562   3.405
 4239TIP3   OH212673   5.714   1.351   3.312
 4239TIP3    H112674   5.788   1.392   3.357
 4239TIP3    H212675   5.754   1.298   3.244
 4240TIP3   OH212676   1.372   6.068   3.330
 4240TIP3    H112677   1.454   6.021   3.315
 4240TIP3    H212678   1.360   6.064   3.425
 4241TIP3   OH212679   4.934   5.590   0.648
 4241TIP3    H112680   5.003   5.525   0.663
 4241TIP3    H212681   4.938   5.608   0.554
 4242TIP3   OH212682   4.778   2.710   0.116
 4242TIP3    H112683   4.692   2.685   0.150
 4242TIP3    H212684   4.802   2.640   0.055
 4243TIP3   OH212685   4.650   0.861   6.610
 4243TIP3    H112686   4.737   0.894   6.633
 4243TIP3    H212687   4.612   0.929   6.554
 4244TIP3   OH212688   5.020   3.608   5.912
 4244TIP3    H112689   5.106   3.603   5.953
 4244TIP3    H212690   5.010   3.524   5.867
 4245TIP3   OH212691   0.509   7.538   4.735
 4245TIP3    H112692   0.555   7.519   4.817
 4245TIP3    H212693   0.442   7.470   4.729
 4246TIP3   OH212694   5.927   3.362   1.707
 4246TIP3    H112695   6.014   3.400   1.716
 4246TIP3    H212696   5.900   3.384   1.618
 4247TIP3   OH212697   3.843   2.757   3.014
 4247TIP3    H112698   3.843   2.785   3.105
 4247TIP3    H212699   3.792   2.824   2.968
 4248TIP3   OH212700   0.864   3.367   3.246
 4248TIP3    H112701   0.862   3.462   3.254
 4248TIP3    H212702   0.934   3.340   3.305
 4249TIP3   OH212703   5.674   3.480   2.459
 4249TIP3    H112704   5.639   3.567   2.438
 4249TIP3    H212705   5.762   3.480   2.421
 4250TIP3   OH212706   7.111   3.946   5.951
 4250TIP3    H112707   7.016   3.951   5.939
 4250TIP3    H212708   7.134   4.026   5.998
 4251TIP3   OH212709   2.560   0.379   4.263
 4251TIP3    H112710   2.465   0.381   4.266
 4251TIP3    H212711   2.586   0.471   4.253
 4252TIP3   OH212712   5.465   0.678   0.070
 4252TIP3    H112713   5.399   0.695   0.137
 4252TIP3    H212714   5.522   0.611   0.109
 4253TIP3   OH212715   5.597   6.533   2.736
 4253TIP3    H112716   5.640   6.612   2.703
 4253TIP3    H212717   5.622   6.464   2.674
 4254TIP3   OH212718   8.044   6.447   1.615
 4254TIP3    H112719   8.038   6.418   1.706
 4254TIP3    H212720   8.111   6.515   1.616
 4255TIP3   OH212721   6.770   4.495   5.362
 4255TIP3    H112722   6.737   4.568   5.310
 4255TIP3    H212723   6.708   4.423   5.345
 4256TIP3   OH212724   3.968   1.507   4.357
 4256TIP3    H112725   4.033   1.567   4.394
 4256TIP3    H212726   3.997   1.420   4.383
 4257TIP3   OH212727   5.415   4.471   2.092
 4257TIP3    H112728   5.450   4.556   2.066
 4257TIP3    H212729   5.320   4.481   2.083
 4258TIP3   OH212730   2.419   5.661   3.867
 4258TIP3    H112731   2.398   5.572   3.897
 4258TIP3    H212732   2.343   5.713   3.891
 4259TIP3   OH212733   4.899   2.390   1.991
 4259TIP3    H112734   4.912   2.328   2.063
 4259TIP3    H212735   4.985   2.399   1.950
 4260TIP3   OH212736   7.209   3.793   1.577
 4260TIP3    H112737   7.168   3.712   1.545
 4260TIP3    H212738   7.198   3.790   1.672
 4261TIP3   OH212739   6.016   0.679   1.061
 4261TIP3    H112740   5.979   0.700   1.146
 4261TIP3    H212741   5.966   0.733   0.999
 4262TIP3   OH212742   2.919   5.716   2.733
 4262TIP3    H112743   2.875   5.634   2.711
 4262TIP3    H212744   2.899   5.730   2.826
 4263TIP3   OH212745   7.935   3.010   4.737
 4263TIP3    H112746   7.908   3.007   4.646
 4263TIP3    H212747   7.857   2.985   4.786
 4264TIP3   OH212748   3.288   0.531   4.522
 4264TIP3    H112749   3.317   0.450   4.565
 4264TIP3    H212750   3.368   0.578   4.501
 4265TIP3   OH212751   4.303   5.556   0.950
 4265TIP3    H112752   4.223   5.553   0.897
 4265TIP3    H212753   4.357   5.486   0.914
 4266TIP3   OH212754   1.119   4.718   0.217
 4266TIP3    H112755   1.210   4.698   0.192
 4266TIP3    H212756   1.114   4.692   0.309
 4267TIP3   OH212757   8.034   6.481   2.176
 4267TIP3    H112758   8.117   6.452   2.214
 4267TIP3    H212759   7.987   6.520   2.250
 4268TIP3   OH212760   6.489   1.866   1.858
 4268TIP3    H112761   6.567   1.902   1.901
 4268TIP3    H212762   6.471   1.784   1.905
 4269TIP3   OH212763   6.303   4.264   2.422
 4269TIP3    H112764   6.316   4.182   2.470
 4269TIP3    H212765   6.287   4.236   2.332
 4270TIP3   OH212766   2.893   3.676   2.533
 4270TIP3    H112767   2.804   3.657   2.560
 4270TIP3    H212768   2.896   3.772   2.525
 4271TIP3   OH212769   1.655   4.558   1.550
 4271TIP3    H112770   1.571   4.538   1.592
 4271TIP3    H212771   1.709   4.480   1.564
 4272TIP3   OH212772   0.452   2.500   6.220
 4272TIP3    H112773   0.490   2.499   6.132
 4272TIP3    H212774   0.525   2.476   6.278
 4273TIP3   OH212775   3.435   4.548   5.394
 4273TIP3    H112776   3.402   4.493   5.323
 4273TIP3    H212777   3.471   4.486   5.457
 4274TIP3   OH212778   4.211   1.660   5.058
 4274TIP3    H112779   4.295   1.693   5.029
 4274TIP3    H212780   4.219   1.565   5.051
 4275TIP3   OH212781   2.421   0.754   3.970
 4275TIP3    H112782   2.432   0.849   3.966
 4275TIP3    H212783   2.417   0.727   3.878
 4276TIP3   OH212784   6.064   7.446   5.715
 4276TIP3    H112785   6.043   7.438   5.622
 4276TIP3    H212786   6.108   7.531   5.722
 4277TIP3   OH212787   1.934   6.863   3.160
 4277TIP3    H112788   1.912   6.929   3.094
 4277TIP3    H212789   1.924   6.780   3.115
 4278TIP3   OH212790   8.190   1.891   0.612
 4278TIP3    H112791   8.141   1.973   0.617
 4278TIP3    H212792   8.161   1.851   0.530
 4279TIP3   OH212793   6.440   2.639   3.944
 4279TIP3    H112794   6.506   2.707   3.962
 4279TIP3    H212795   6.479   2.586   3.875
 4280TIP3   OH212796   3.192   1.178   5.484
 4280TIP3    H112797   3.140   1.179   5.564
 4280TIP3    H212798   3.126   1.179   5.414
 4281TIP3   OH212799   5.858   6.065   3.452
 4281TIP3    H112800   5.767   6.040   3.438
 4281TIP3    H212801   5.886   6.100   3.367
 4282TIP3   OH212802   7.753   4.800   0.957
 4282TIP3    H112803   7.804   4.878   0.935
 4282TIP3    H212804   7.776   4.781   1.048
 4283TIP3   OH212805   7.363   1.206   0.186
 4283TIP3    H112806   7.413   1.149   0.243
 4283TIP3    H212807   7.407   1.291   0.192
 4284TIP3   OH212808   5.359   1.111   0.317
 4284TIP3    H112809   5.346   1.090   0.224
 4284TIP3    H212810   5.290   1.175   0.337
 4285TIP3   OH212811   3.075   1.049   6.491
 4285TIP3    H112812   3.162   1.019   6.517
 4285TIP3    H212813   3.019   0.972   6.499
 4286TIP3   OH212814   2.796   6.430   2.537
 4286TIP3    H112815   2.709   6.432   2.498
 4286TIP3    H212816   2.781   6.442   2.630
 4287TIP3   OH212817   0.974   2.163   2.363
 4287TIP3    H112818   0.927   2.095   2.411
 4287TIP3    H212819   1.065   2.136   2.365
 4288TIP3   OH212820   7.644   1.392  -0.033
 4288TIP3    H112821   7.624   1.394   0.060
 4288TIP3    H212822   7.674   1.481  -0.053
 4289TIP3   OH212823   1.966   2.435   3.740
 4289TIP3    H112824   1.928   2.353   3.709
 4289TIP3    H212825   1.941   2.500   3.674
 4290TIP3   OH212826   4.167   7.494   1.075
 4290TIP3    H112827   4.191   7.434   1.146
 4290TIP3    H212828   4.074   7.511   1.090
 4291TIP3   OH212829   4.744   3.066   1.463
 4291TIP3    H112830   4.832   3.089   1.433
 4291TIP3    H212831   4.694   3.053   1.382
 4292TIP3   OH212832   6.983   0.366   0.463
 4292TIP3    H112833   7.007   0.446   0.415
 4292TIP3    H212834   6.898   0.341   0.427
 4293TIP3   OH212835   4.104   2.672   0.528
 4293TIP3    H112836   4.182   2.710   0.489
 4293TIP3    H212837   4.129   2.652   0.618
 4294TIP3   OH212838   5.143   1.630   2.424
 4294TIP3    H112839   5.120   1.643   2.516
 4294TIP3    H212840   5.073   1.673   2.376
 4295TIP3   OH212841   2.314   5.073   1.172
 4295TIP3    H112842   2.363   5.154   1.187
 4295TIP3    H212843   2.252   5.069   1.245
 4296TIP3   OH212844   4.838   6.937   1.609
 4296TIP3    H112845   4.764   6.949   1.550
 4296TIP3    H212846   4.799   6.922   1.695
 4297TIP3   OH212847   5.685   1.181   4.229
 4297TIP3    H112848   5.649   1.259   4.186
 4297TIP3    H212849   5.778   1.182   4.206
 4298TIP3   OH212850   0.409   5.585   6.043
 4298TIP3    H112851   0.471   5.608   5.974
 4298TIP3    H212852   0.382   5.668   6.081
 4299TIP3   OH212853   3.823   0.776   3.981
 4299TIP3    H112854   3.745   0.807   3.935
 4299TIP3    H212855   3.832   0.834   4.056
 4300TIP3   OH212856   7.511   4.587   3.518
 4300TIP3    H112857   7.458   4.606   3.596
 4300TIP3    H212858   7.601   4.599   3.547
 4301TIP3   OH212859   2.233   4.494   3.128
 4301TIP3    H112860   2.294   4.567   3.136
 4301TIP3    H212861   2.261   4.433   3.196
 4302TIP3   OH212862   6.664   1.781   5.432
 4302TIP3    H112863   6.624   1.781   5.519
 4302TIP3    H212864   6.630   1.702   5.390
 4303TIP3   OH212865   1.300   0.174   1.785
 4303TIP3    H112866   1.335   0.262   1.769
 4303TIP3    H212867   1.208   0.187   1.807
 4304TIP3   OH212868   5.591   0.733   3.160
 4304TIP3    H112869   5.659   0.786   3.120
 4304TIP3    H212870   5.599   0.647   3.118
 4305TIP3   OH212871   2.356   2.418   4.226
 4305TIP3    H112872   2.406   2.340   4.203
 4305TIP3    H212873   2.269   2.402   4.189
 4306TIP3   OH212874   6.438   0.195   1.843
 4306TIP3    H112875   6.400   0.110   1.823
 4306TIP3    H212876   6.528   0.190   1.813
 4307TIP3   OH212877   6.517   5.968   6.363
 4307TIP3    H112878   6.525   5.885   6.411
 4307TIP3    H212879   6.603   6.009   6.372
 4308TIP3   OH212880   0.213   6.043   4.089
 4308TIP3    H112881   0.179   6.008   4.171
 4308TIP3    H212882   0.272   5.976   4.056
 4309TIP3   OH212883   7.771   2.688   1.105
 4309TIP3    H112884   7.844   2.682   1.044
 4309TIP3    H212885   7.745   2.597   1.120
 4310TIP3   OH212886   4.166   6.735   4.979
 4310TIP3    H112887   4.212   6.779   5.051
 4310TIP3    H212888   4.094   6.689   5.021
 4311TIP3   OH212889   3.548   0.144   3.369
 4311TIP3    H112890   3.544   0.053   3.398
 4311TIP3    H212891   3.617   0.183   3.423
 4312TIP3   OH212892   6.399   5.774   3.943
 4312TIP3    H112893   6.393   5.699   4.003
 4312TIP3    H212894   6.453   5.742   3.870
 4313TIP3   OH212895   4.502   5.180   2.052
 4313TIP3    H112896   4.422   5.127   2.061
 4313TIP3    H212897   4.561   5.145   2.118
 4314TIP3   OH212898   0.864   7.759   1.894
 4314TIP3    H112899   0.929   7.689   1.879
 4314TIP3    H212900   0.914   7.830   1.933
 4315TIP3   OH212901   3.738   6.729   6.200
 4315TIP3    H112902   3.757   6.652   6.146
 4315TIP3    H212903   3.716   6.798   6.137
 4316TIP3   OH212904   6.549   3.613   3.645
 4316TIP3    H112905   6.643   3.601   3.630
 4316TIP3    H212906   6.517   3.525   3.666
 4317TIP3   OH212907   6.188   2.726   4.293
 4317TIP3    H112908   6.123   2.782   4.334
 4317TIP3    H212909   6.270   2.746   4.338
 4318TIP3   OH212910   7.859   7.343   2.013
 4318TIP3    H112911   7.807   7.274   2.054
 4318TIP3    H212912   7.798   7.416   2.003
 4319TIP3   OH212913   0.126   3.007   4.018
 4319TIP3    H112914   0.031   3.006   4.021
 4319TIP3    H212915   0.148   2.960   3.938
 4320TIP3   OH212916   2.687   7.600   6.599
 4320TIP3    H112917   2.601   7.643   6.598
 4320TIP3    H212918   2.730   7.631   6.519
 4321TIP3   OH212919   3.367   1.263   5.825
 4321TIP3    H112920   3.432   1.215   5.773
 4321TIP3    H212921   3.321   1.317   5.761
 4322TIP3   OH212922   2.000   7.722   6.740
 4322TIP3    H112923   1.918   7.769   6.759
 4322TIP3    H212924   2.068   7.777   6.779
 4323TIP3   OH212925   1.247   1.485   5.785
 4323TIP3    H112926   1.334   1.467   5.821
 4323TIP3    H212927   1.252   1.454   5.695
 4324TIP3   OH212928   1.643   0.945   0.577
 4324TIP3    H112929   1.675   0.980   0.494
 4324TIP3    H212930   1.680   1.004   0.643
 4325TIP3   OH212931   2.791   4.057   0.085
 4325TIP3    H112932   2.760   4.147   0.094
 4325TIP3    H212933   2.886   4.064   0.082
 4326TIP3   OH212934   5.706   4.029   3.671
 4326TIP3    H112935   5.663   3.945   3.657
 4326TIP3    H212936   5.799   4.013   3.654
 4327TIP3   OH212937   0.209   3.989   1.913
 4327TIP3    H112938   0.203   4.082   1.889
 4327TIP3    H212939   0.181   3.942   1.834
 4328TIP3   OH212940   6.439   3.784   3.839
 4328TIP3    H112941   6.362   3.736   3.871
 4328TIP3    H212942   6.487   3.719   3.787
 4329TIP3   OH212943   2.872   4.384   1.017
 4329TIP3    H112944   2.863   4.358   1.109
 4329TIP3    H212945   2.872   4.480   1.018
 4330TIP3   OH212946   6.972   1.525   1.147
 4330TIP3    H112947   7.010   1.585   1.083
 4330TIP3    H212948   6.983   1.570   1.231
 4331TIP3   OH212949   2.905   4.673   4.429
 4331TIP3    H112950   2.900   4.607   4.498
 4331TIP3    H212951   2.994   4.706   4.433
 4332TIP3   OH212952   6.640   0.598   5.110
 4332TIP3    H112953   6.621   0.682   5.068
 4332TIP3    H212954   6.556   0.572   5.149
 4333TIP3   OH212955   1.426   6.983   6.346
 4333TIP3    H112956   1.337   6.955   6.322
 4333TIP3    H212957   1.460   7.023   6.266
 4334TIP3   OH212958   7.553   5.808   1.116
 4334TIP3    H112959   7.590   5.857   1.042
 4334TIP3    H212960   7.507   5.735   1.076
 4335TIP3   OH212961   6.302   4.012   1.670
 4335TIP3    H112962   6.388   4.054   1.673
 4335TIP3    H212963   6.309   3.940   1.732
 4336TIP3   OH212964   3.864   3.943   2.464
 4336TIP3    H112965   3.795   4.002   2.495
 4336TIP3    H212966   3.833   3.914   2.378
 4337TIP3   OH212967   3.665   0.752   6.259
 4337TIP3    H112968   3.748   0.778   6.218
 4337TIP3    H212969   3.604   0.822   6.237
 4338TIP3   OH212970   6.399   0.589   0.322
 4338TIP3    H112971   6.330   0.534   0.285
 4338TIP3    H212972   6.480   0.539   0.308
 4339TIP3   OH212973   2.604   2.858   4.334
 4339TIP3    H112974   2.558   2.911   4.269
 4339TIP3    H212975   2.549   2.865   4.413
 4340TIP3   OH212976   1.230   2.626   1.792
 4340TIP3    H112977   1.288   2.678   1.736
 4340TIP3    H212978   1.241   2.536   1.760
 4341TIP3   OH212979   4.259   0.793   1.678
 4341TIP3    H112980   4.254   0.798   1.583
 4341TIP3    H212981   4.176   0.828   1.709
 4342TIP3   OH212982   1.788   4.867   0.528
 4342TIP3    H112983   1.877   4.843   0.501
 4342TIP3    H212984   1.800   4.927   0.601
 4343TIP3   OH212985   3.280   3.488   4.185
 4343TIP3    H112986   3.316   3.515   4.100
 4343TIP3    H212987   3.191   3.523   4.186
 4344TIP3   OH212988   7.328   2.607   4.777
 4344TIP3    H112989   7.402   2.655   4.741
 4344TIP3    H212990   7.361   2.519   4.794
 4345TIP3   OH212991   6.109   5.694   5.465
 4345TIP3    H112992   6.204   5.685   5.470
 4345TIP3    H212993   6.092   5.784   5.492
 4346TIP3   OH212994   3.685   0.659   3.600
 4346TIP3    H112995   3.715   0.575   3.636
 4346TIP3    H212996   3.600   0.638   3.561
 4347TIP3   OH212997   4.390   4.033   2.944
 4347TIP3    H112998   4.325   4.035   2.874
 4347TIP3    H212999   4.395   3.942   2.970
 4348TIP3   OH213000   7.469   7.356   2.574
 4348TIP3    H113001   7.380   7.344   2.607
 4348TIP3    H213002   7.473   7.300   2.496
 4349TIP3   OH213003   5.059   1.631   5.189
 4349TIP3    H113004   4.967   1.658   5.179
 4349TIP3    H213005   5.092   1.687   5.259
 4350TIP3   OH213006   7.195   2.426   1.580
 4350TIP3    H113007   7.283   2.399   1.555
 4350TIP3    H213008   7.165   2.481   1.508
 4351TIP3   OH213009   5.291   7.722   4.636
 4351TIP3    H113010   5.297   7.714   4.731
 4351TIP3    H213011   5.197   7.736   4.619
 4352TIP3   OH213012   6.368   5.782   2.333
 4352TIP3    H113013   6.392   5.851   2.394
 4352TIP3    H213014   6.345   5.828   2.252
 4353TIP3   OH213015   3.011   0.222   3.021
 4353TIP3    H113016   3.105   0.235   3.007
 4353TIP3    H213017   2.970   0.261   2.944
 4354TIP3   OH213018   6.676   7.118   0.052
 4354TIP3    H113019   6.762   7.092   0.085
 4354TIP3    H213020   6.686   7.116  -0.043
 4355TIP3   OH213021   4.372   6.805   1.065
 4355TIP3    H113022   4.449   6.861   1.078
 4355TIP3    H213023   4.361   6.759   1.147
 4356TIP3   OH213024   2.007   4.915   2.638
 4356TIP3    H113025   1.970   4.834   2.601
 4356TIP3    H213026   1.965   4.985   2.588
 4357TIP3   OH213027   6.146   2.099   6.358
 4357TIP3    H113028   6.239   2.086   6.374
 4357TIP3    H213029   6.128   2.050   6.278
 4358TIP3   OH213030   7.136   6.470   3.175
 4358TIP3    H113031   7.055   6.517   3.195
 4358TIP3    H213032   7.126   6.442   3.084
 4359TIP3   OH213033   0.932   2.658   2.096
 4359TIP3    H113034   0.907   2.585   2.152
 4359TIP3    H213035   0.952   2.617   2.011
 4360TIP3   OH213036   3.841   3.149   5.707
 4360TIP3    H113037   3.872   3.083   5.769
 4360TIP3    H213038   3.920   3.195   5.679
 4361TIP3   OH213039   3.643   3.172   2.814
 4361TIP3    H113040   3.722   3.173   2.868
 4361TIP3    H213041   3.577   3.218   2.866
 4362TIP3   OH213042   1.147   4.576   1.660
 4362TIP3    H113043   1.114   4.616   1.741
 4362TIP3    H213044   1.069   4.567   1.605
 4363TIP3   OH213045   2.891   5.413   2.704
 4363TIP3    H113046   2.899   5.392   2.798
 4363TIP3    H213047   2.975   5.454   2.682
 4364TIP3   OH213048   2.147   3.541   4.759
 4364TIP3    H113049   2.218   3.599   4.785
 4364TIP3    H213050   2.179   3.453   4.779
 4365TIP3   OH213051   3.432   6.270   1.211
 4365TIP3    H113052   3.404   6.283   1.120
 4365TIP3    H213053   3.464   6.356   1.238
 4366TIP3   OH213054   5.106   2.972   0.451
 4366TIP3    H113055   5.048   2.948   0.379
 4366TIP3    H213056   5.098   3.067   0.459
 4367TIP3   OH213057   0.666   4.467   2.063
 4367TIP3    H113058   0.753   4.478   2.102
 4367TIP3    H213059   0.655   4.373   2.056
 4368TIP3   OH213060   1.678   5.332   4.890
 4368TIP3    H113061   1.692   5.402   4.825
 4368TIP3    H213062   1.716   5.254   4.849
 4369TIP3   OH213063   1.138   1.709   1.177
 4369TIP3    H113064   1.177   1.794   1.157
 4369TIP3    H213065   1.209   1.647   1.160
 4370TIP3   OH213066   2.586   5.508   3.661
 4370TIP3    H113067   2.585   5.538   3.569
 4370TIP3    H213068   2.541   5.577   3.709
 4371TIP3   OH213069   0.252   2.019   0.564
 4371TIP3    H113070   0.264   2.011   0.470
 4371TIP3    H213071   0.175   1.965   0.583
 4372TIP3   OH213072   0.935   7.660   2.392
 4372TIP3    H113073   0.879   7.597   2.438
 4372TIP3    H213074   1.022   7.646   2.430
 4373TIP3   OH213075   3.706   4.589   5.179
 4373TIP3    H113076   3.701   4.575   5.274
 4373TIP3    H213077   3.736   4.506   5.144
 4374TIP3   OH213078   0.401   2.539   4.722
 4374TIP3    H113079   0.466   2.499   4.780
 4374TIP3    H213080   0.433   2.628   4.708
 4375TIP3   OH213081   5.986   2.319   6.241
 4375TIP3    H113082   5.981   2.257   6.314
 4375TIP3    H213083   6.024   2.268   6.169
 4376TIP3   OH213084   7.097   3.140   5.254
 4376TIP3    H113085   7.056   3.223   5.278
 4376TIP3    H213086   7.188   3.162   5.236
 4377TIP3   OH213087   5.191   4.148   5.684
 4377TIP3    H113088   5.260   4.082   5.697
 4377TIP3    H213089   5.136   4.140   5.762
 4378TIP3   OH213090   2.815   1.304   2.395
 4378TIP3    H113091   2.760   1.327   2.320
 4378TIP3    H213092   2.794   1.213   2.413
 4379TIP3   OH213093   4.644   0.387   1.325
 4379TIP3    H113094   4.623   0.480   1.314
 4379TIP3    H213095   4.731   0.387   1.365
 4380TIP3   OH213096   5.932   4.300   2.353
 4380TIP3    H113097   5.858   4.360   2.368
 4380TIP3    H213098   5.896   4.234   2.294
 4381TIP3   OH213099   5.320   1.378   3.482
 4381TIP3    H113100   5.356   1.456   3.441
 4381TIP3    H213101   5.237   1.407   3.520
 4382TIP3   OH213102   6.109   4.980   3.826
 4382TIP3    H113103   6.163   4.905   3.849
 4382TIP3    H213104   6.156   5.022   3.754
 4383TIP3   OH213105   7.091   7.314   4.335
 4383TIP3    H113106   7.062   7.353   4.253
 4383TIP3    H213107   7.184   7.335   4.341
 4384TIP3   OH213108   4.617   2.862   1.939
 4384TIP3    H113109   4.642   2.775   1.909
 4384TIP3    H213110   4.648   2.921   1.870
 4385TIP3   OH213111   6.261   4.053   5.783
 4385TIP3    H113112   6.200   4.095   5.843
 4385TIP3    H213113   6.241   3.960   5.788
 4386TIP3   OH213114   7.497   2.110   2.474
 4386TIP3    H113115   7.422   2.164   2.449
 4386TIP3    H213116   7.543   2.093   2.391
 4387TIP3   OH213117   3.933   4.045   6.614
 4387TIP3    H113118   3.897   4.041   6.525
 4387TIP3    H213119   3.884   4.116   6.656
 4388TIP3   OH213120   5.030   0.914   4.604
 4388TIP3    H113121   4.954   0.904   4.662
 4388TIP3    H213122   4.992   0.923   4.517
 4389TIP3   OH213123   3.436   1.780   4.492
 4389TIP3    H113124   3.507   1.791   4.555
 4389TIP3    H213125   3.378   1.854   4.508
 4390TIP3   OH213126   2.958   4.863   6.731
 4390TIP3    H113127   3.025   4.794   6.731
 4390TIP3    H213128   2.982   4.920   6.803
 4391TIP3   OH213129   3.445   4.180   0.649
 4391TIP3    H113130   3.467   4.140   0.734
 4391TIP3    H213131   3.467   4.273   0.662
 4392TIP3   OH213132   1.508   6.075   5.203
 4392TIP3    H113133   1.449   6.114   5.268
 4392TIP3    H213134   1.456   6.070   5.123
 4393TIP3   OH213135   1.652   4.127   2.374
 4393TIP3    H113136   1.722   4.161   2.319
 4393TIP3    H213137   1.581   4.191   2.365
 4394TIP3   OH213138   3.402   4.214   2.963
 4394TIP3    H113139   3.489   4.216   2.921
 4394TIP3    H213140   3.401   4.292   3.019
 4395TIP3   OH213141   4.265   7.776   4.977
 4395TIP3    H113142   4.335   7.814   5.029
 4395TIP3    H213143   4.300   7.770   4.889
 4396TIP3   OH213144   4.693   1.290   6.459
 4396TIP3    H113145   4.635   1.255   6.528
 4396TIP3    H213146   4.776   1.305   6.503
 4397TIP3   OH213147   2.434   5.805   5.627
 4397TIP3    H113148   2.523   5.817   5.660
 4397TIP3    H213149   2.441   5.819   5.533
 4398TIP3   OH213150   2.511   3.164   1.110
 4398TIP3    H113151   2.538   3.177   1.201
 4398TIP3    H213152   2.539   3.075   1.089
 4399TIP3   OH213153   4.475   1.553   4.107
 4399TIP3    H113154   4.521   1.516   4.182
 4399TIP3    H213155   4.516   1.638   4.093
 4400TIP3   OH213156   1.346   6.403   5.167
 4400TIP3    H113157   1.384   6.454   5.095
 4400TIP3    H213158   1.416   6.398   5.232
 4401TIP3   OH213159   7.502   3.983   0.931
 4401TIP3    H113160   7.409   3.969   0.949
 4401TIP3    H213161   7.543   3.981   1.017
 4402TIP3   OH213162   4.056   7.106   6.506
 4402TIP3    H113163   3.990   7.107   6.437
 4402TIP3    H213164   4.025   7.038   6.567
 4403TIP3   OH213165   0.040   2.063   2.974
 4403TIP3    H113166  -0.054   2.058   2.956
 4403TIP3    H213167   0.072   2.132   2.917
 4404TIP3   OH213168   7.374   2.955   3.318
 4404TIP3    H113169   7.411   2.880   3.271
 4404TIP3    H213170   7.413   2.950   3.405
 4405TIP3   OH213171   4.428   4.403   5.822
 4405TIP3    H113172   4.403   4.455   5.898
 4405TIP3    H213173   4.508   4.445   5.789
 4406TIP3   OH213174   5.559   5.583   0.415
 4406TIP3    H113175   5.546   5.677   0.410
 4406TIP3    H213176   5.637   5.566   0.362
 4407TIP3   OH213177   1.335   4.147   6.155
 4407TIP3    H113178   1.396   4.074   6.163
 4407TIP3    H213179   1.386   4.225   6.177
 4408TIP3   OH213180   7.581   6.888   6.387
 4408TIP3    H113181   7.562   6.954   6.320
 4408TIP3    H213182   7.674   6.901   6.407
 4409TIP3   OH213183   7.866   2.905   3.265
 4409TIP3    H113184   7.793   2.947   3.311
 4409TIP3    H213185   7.854   2.930   3.173
 4410TIP3   OH213186   5.399   3.190   0.465
 4410TIP3    H113187   5.307   3.214   0.465
 4410TIP3    H213188   5.409   3.134   0.388
 4411TIP3   OH213189   0.890   6.299   4.103
 4411TIP3    H113190   0.896   6.229   4.038
 4411TIP3    H213191   0.815   6.274   4.158
 4412TIP3   OH213192   1.780   4.068   5.850
 4412TIP3    H113193   1.763   4.162   5.847
 4412TIP3    H213194   1.794   4.044   5.758
 4413TIP3   OH213195   1.771   4.310   1.697
 4413TIP3    H113196   1.713   4.290   1.624
 4413TIP3    H213197   1.736   4.259   1.770
 4414TIP3   OH213198   0.524   2.932   2.299
 4414TIP3    H113199   0.523   3.026   2.280
 4414TIP3    H213200   0.581   2.894   2.232
 4415TIP3   OH213201   6.209   5.207   3.928
 4415TIP3    H113202   6.174   5.278   3.875
 4415TIP3    H213203   6.163   5.129   3.895
 4416TIP3   OH213204   4.983   6.978   0.368
 4416TIP3    H113205   4.970   6.951   0.277
 4416TIP3    H213206   4.972   6.898   0.419
 4417TIP3   OH213207   2.354   3.983   5.080
 4417TIP3    H113208   2.356   4.056   5.018
 4417TIP3    H213209   2.403   4.015   5.156
 4418TIP3   OH213210   5.005   4.564   4.441
 4418TIP3    H113211   5.044   4.492   4.391
 4418TIP3    H213212   5.065   4.637   4.430
 4419TIP3   OH213213   4.242   4.452   4.922
 4419TIP3    H113214   4.195   4.419   4.845
 4419TIP3    H213215   4.174   4.494   4.975
 4420TIP3   OH213216   1.713   6.772   6.751
 4420TIP3    H113217   1.635   6.798   6.702
 4420TIP3    H213218   1.680   6.744   6.836
 4421TIP3   OH213219   3.017   0.460   1.081
 4421TIP3    H113220   3.051   0.540   1.040
 4421TIP3    H213221   2.989   0.488   1.168
 4422TIP3   OH213222   3.372   6.167   4.177
 4422TIP3    H113223   3.461   6.189   4.205
 4422TIP3    H213224   3.317   6.191   4.251
 4423TIP3   OH213225   4.236   0.746   4.084
 4423TIP3    H113226   4.218   0.722   3.993
 4423TIP3    H213227   4.149   0.748   4.125
 4424TIP3   OH213228   1.283   4.426   6.396
 4424TIP3    H113229   1.217   4.488   6.365
 4424TIP3    H213230   1.334   4.475   6.461
 4425TIP3   OH213231   0.158   0.416   1.984
 4425TIP3    H113232   0.201   0.501   1.992
 4425TIP3    H213233   0.204   0.372   1.912
 4426TIP3   OH213234   3.102   2.552   5.643
 4426TIP3    H113235   3.149   2.510   5.571
 4426TIP3    H213236   3.171   2.585   5.701
 4427TIP3   OH213237   2.171   6.417   5.996
 4427TIP3    H113238   2.237   6.485   5.991
 4427TIP3    H213239   2.094   6.461   6.033
 4428TIP3   OH213240   6.780   4.042   1.136
 4428TIP3    H113241   6.765   4.064   1.044
 4428TIP3    H213242   6.699   4.064   1.180
 4429TIP3   OH213243   8.068   1.087   1.149
 4429TIP3    H113244   8.002   1.020   1.131
 4429TIP3    H213245   8.018   1.168   1.160
 4430TIP3   OH213246   6.846   3.279   5.251
 4430TIP3    H113247   6.812   3.210   5.194
 4430TIP3    H213248   6.811   3.259   5.338
 4431TIP3   OH213249   1.014   0.639   2.227
 4431TIP3    H113250   0.988   0.550   2.251
 4431TIP3    H213251   0.959   0.660   2.151
 4432TIP3   OH213252   4.935   3.564   6.742
 4432TIP3    H113253   4.958   3.494   6.803
 4432TIP3    H213254   4.847   3.591   6.769
 4433TIP3   OH213255   1.197   7.655   2.493
 4433TIP3    H113256   1.265   7.675   2.429
 4433TIP3    H213257   1.243   7.653   2.577
 4434TIP3   OH213258   2.708   4.188   6.418
 4434TIP3    H113259   2.750   4.251   6.476
 4434TIP3    H213260   2.744   4.207   6.332
 4435TIP3   OH213261   8.195   0.765   1.813
 4435TIP3    H113262   8.124   0.745   1.753
 4435TIP3    H213263   8.209   0.684   1.862
 4436TIP3   OH213264   0.682   1.769   4.196
 4436TIP3    H113265   0.616   1.829   4.231
 4436TIP3    H213266   0.756   1.825   4.173
 4437TIP3   OH213267   8.101   7.779   6.128
 4437TIP3    H113268   8.112   7.854   6.068
 4437TIP3    H213269   8.191   7.753   6.149
 4438TIP3   OH213270   2.413   2.355   0.732
 4438TIP3    H113271   2.445   2.379   0.646
 4438TIP3    H213272   2.481   2.299   0.769
 4439TIP3   OH213273   7.115   1.784   3.161
 4439TIP3    H113274   7.107   1.878   3.171
 4439TIP3    H213275   7.207   1.769   3.140
 4440TIP3   OH213276   2.111   5.062   3.364
 4440TIP3    H113277   2.173   5.053   3.292
 4440TIP3    H213278   2.145   5.133   3.417
 4441TIP3   OH213279   4.204   5.492   5.918
 4441TIP3    H113280   4.129   5.550   5.906
 4441TIP3    H213281   4.179   5.411   5.874
 4442TIP3   OH213282   7.210   2.749   6.686
 4442TIP3    H113283   7.214   2.704   6.771
 4442TIP3    H213284   7.124   2.790   6.685
 4443TIP3   OH213285   0.026   6.967   1.728
 4443TIP3    H113286   0.111   6.977   1.772
 4443TIP3    H213287   0.027   6.877   1.696
 4444TIP3   OH213288   1.346   6.573   4.719
 4444TIP3    H113289   1.308   6.501   4.769
 4444TIP3    H213290   1.386   6.532   4.643
 4445TIP3   OH213291   6.182   1.465   6.564
 4445TIP3    H113292   6.183   1.560   6.549
 4445TIP3    H213293   6.275   1.442   6.575
 4446TIP3   OH213294   1.093   3.743   5.981
 4446TIP3    H113295   1.102   3.804   6.054
 4446TIP3    H213296   1.000   3.721   5.979
 4447TIP3   OH213297   5.885   5.354   4.620
 4447TIP3    H113298   5.828   5.312   4.555
 4447TIP3    H213299   5.833   5.426   4.654
 4448TIP3   OH213300   3.498   3.146   3.661
 4448TIP3    H113301   3.477   3.143   3.754
 4448TIP3    H213302   3.417   3.176   3.619
 4449TIP3   OH213303   4.015   6.710   4.321
 4449TIP3    H113304   3.947   6.687   4.257
 4449TIP3    H213305   4.023   6.631   4.375
 4450TIP3   OH213306   2.037   1.175   3.534
 4450TIP3    H113307   2.006   1.197   3.446
 4450TIP3    H213308   1.966   1.124   3.572
 4451TIP3   OH213309   8.101   3.269   1.808
 4451TIP3    H113310   8.075   3.348   1.761
 4451TIP3    H213311   8.165   3.300   1.872
 4452TIP3   OH213312   7.923   1.995   3.812
 4452TIP3    H113313   8.007   2.038   3.796
 4452TIP3    H213314   7.945   1.904   3.830
 4453TIP3   OH213315   3.889   0.925   4.179
 4453TIP3    H113316   3.971   0.949   4.222
 4453TIP3    H213317   3.821   0.951   4.240
 4454TIP3   OH213318   0.659   4.506   6.070
 4454TIP3    H113319   0.702   4.538   6.149
 4454TIP3    H213320   0.727   4.512   6.002
 4455TIP3   OH213321   0.816   3.615   5.000
 4455TIP3    H113322   0.894   3.631   5.054
 4455TIP3    H213323   0.834   3.531   4.958
 4456TIP3   OH213324   6.326   6.272   1.762
 4456TIP3    H113325   6.331   6.255   1.668
 4456TIP3    H213326   6.404   6.228   1.798
 4457TIP3   OH213327   2.281   1.584   4.528
 4457TIP3    H113328   2.226   1.505   4.533
 4457TIP3    H213329   2.351   1.568   4.591
 4458TIP3   OH213330   4.928   5.986   2.314
 4458TIP3    H113331   4.909   5.917   2.377
 4458TIP3    H213332   4.855   5.982   2.251
 4459TIP3   OH213333   5.237   0.017   1.642
 4459TIP3    H113334   5.311  -0.007   1.698
 4459TIP3    H213335   5.172   0.054   1.702
 4460TIP3   OH213336   5.170   1.465   2.763
 4460TIP3    H113337   5.084   1.502   2.745
 4460TIP3    H213338   5.170   1.448   2.857
 4461TIP3   OH213339   7.406   0.095   2.206
 4461TIP3    H113340   7.406   0.022   2.268
 4461TIP3    H213341   7.351   0.065   2.133
 4462TIP3   OH213342   4.309   0.270   2.333
 4462TIP3    H113343   4.230   0.278   2.280
 4462TIP3    H213344   4.366   0.213   2.282
 4463TIP3   OH213345   0.527   1.598   6.766
 4463TIP3    H113346   0.458   1.651   6.726
 4463TIP3    H213347   0.491   1.509   6.769
 4464TIP3   OH213348   0.902   5.359   6.185
 4464TIP3    H113349   0.935   5.448   6.171
 4464TIP3    H213350   0.948   5.328   6.263
 4465TIP3   OH213351   5.535   5.319   2.840
 4465TIP3    H113352   5.503   5.327   2.751
 4465TIP3    H213353   5.631   5.316   2.831
 4466TIP3   OH213354   7.474   2.391   3.717
 4466TIP3    H113355   7.431   2.463   3.671
 4466TIP3    H213356   7.431   2.312   3.684
 4467TIP3   OH213357   1.474   4.832   3.231
 4467TIP3    H113358   1.385   4.867   3.221
 4467TIP3    H213359   1.528   4.889   3.176
 4468TIP3   OH213360   5.085   3.248   0.502
 4468TIP3    H113361   5.029   3.218   0.573
 4468TIP3    H213362   5.065   3.341   0.493
 4469TIP3   OH213363   4.465   4.561   3.312
 4469TIP3    H113364   4.458   4.490   3.248
 4469TIP3    H213365   4.382   4.609   3.303
 4470TIP3   OH213366   0.253   1.991   0.301
 4470TIP3    H113367   0.244   1.903   0.265
 4470TIP3    H213368   0.199   2.046   0.244
 4471TIP3   OH213369   0.555   4.910   3.995
 4471TIP3    H113370   0.607   4.984   3.963
 4471TIP3    H213371   0.618   4.840   4.007
 4472TIP3   OH213372   6.058   4.168   5.922
 4472TIP3    H113373   5.986   4.105   5.916
 4472TIP3    H213374   6.058   4.213   5.838
 4473TIP3   OH213375   1.649   5.319   3.515
 4473TIP3    H113376   1.599   5.400   3.513
 4473TIP3    H213377   1.596   5.256   3.467
 4474TIP3   OH213378   6.010   2.941   0.060
 4474TIP3    H113379   5.980   2.861   0.103
 4474TIP3    H213380   6.081   2.973   0.115
 4475TIP3   OH213381   1.052   3.765   2.402
 4475TIP3    H113382   1.039   3.683   2.355
 4475TIP3    H213383   1.085   3.826   2.335
 4476TIP3   OH213384   0.537   5.426   0.067
 4476TIP3    H113385   0.480   5.386   0.002
 4476TIP3    H213386   0.607   5.467   0.017
 4477TIP3   OH213387   1.097   5.897   2.345
 4477TIP3    H113388   1.166   5.946   2.390
 4477TIP3    H213389   1.067   5.833   2.410
 4478TIP3   OH213390   7.555   6.953   0.496
 4478TIP3    H113391   7.528   6.925   0.409
 4478TIP3    H213392   7.646   6.981   0.486
 4479TIP3   OH213393   4.858   0.825   3.067
 4479TIP3    H113394   4.815   0.764   3.008
 4479TIP3    H213395   4.788   0.860   3.122
 4480TIP3   OH213396   5.592   5.919   3.412
 4480TIP3    H113397   5.582   5.921   3.317
 4480TIP3    H213398   5.564   5.831   3.437
 4481TIP3   OH213399   4.670   7.409   4.259
 4481TIP3    H113400   4.698   7.377   4.173
 4481TIP3    H213401   4.751   7.425   4.306
 4482TIP3   OH213402   6.244   1.526   0.508
 4482TIP3    H113403   6.244   1.581   0.586
 4482TIP3    H213404   6.290   1.447   0.535
 4483TIP3   OH213405   1.571   6.385   5.829
 4483TIP3    H113406   1.663   6.382   5.803
 4483TIP3    H213407   1.573   6.379   5.925
 4484TIP3   OH213408   6.753   0.255   0.365
 4484TIP3    H113409   6.705   0.268   0.447
 4484TIP3    H213410   6.684   0.244   0.299
 4485TIP3   OH213411   3.839   1.739   4.985
 4485TIP3    H113412   3.912   1.678   4.985
 4485TIP3    H213413   3.796   1.725   4.901
 4486TIP3   OH213414   7.942   5.843   3.946
 4486TIP3    H113415   8.006   5.876   4.008
 4486TIP3    H213416   7.944   5.748   3.958
 4487TIP3   OH213417   7.997   7.051   3.808
 4487TIP3    H113418   8.072   7.005   3.771
 4487TIP3    H213419   7.947   7.079   3.732
 4488TIP3   OH213420   2.916   2.026   0.138
 4488TIP3    H113421   2.852   1.957   0.119
 4488TIP3    H213422   2.903   2.091   0.068
 4489TIP3   OH213423   3.570   4.871   0.356
 4489TIP3    H113424   3.587   4.963   0.336
 4489TIP3    H213425   3.645   4.843   0.409
 4490TIP3   OH213426   5.844   5.078   3.183
 4490TIP3    H113427   5.769   5.064   3.125
 4490TIP3    H213428   5.917   5.034   3.140
 4491TIP3   OH213429   7.318   2.473   3.027
 4491TIP3    H113430   7.346   2.517   2.947
 4491TIP3    H213431   7.396   2.427   3.058
 4492TIP3   OH213432   4.871   5.639   4.332
 4492TIP3    H113433   4.868   5.650   4.237
 4492TIP3    H213434   4.780   5.625   4.358
 4493TIP3   OH213435   3.404   0.871   4.721
 4493TIP3    H113436   3.442   0.937   4.664
 4493TIP3    H213437   3.310   0.878   4.707
 4494TIP3   OH213438   5.251   4.329   3.638
 4494TIP3    H113439   5.340   4.295   3.652
 4494TIP3    H213440   5.209   4.321   3.723
 4495TIP3   OH213441   2.569   4.492   3.033
 4495TIP3    H113442   2.652   4.463   2.994
 4495TIP3    H213443   2.522   4.533   2.960
 4496TIP3   OH213444   0.318   1.841   2.801
 4496TIP3    H113445   0.275   1.895   2.736
 4496TIP3    H213446   0.337   1.758   2.756
 4497TIP3   OH213447   1.097   4.455   3.856
 4497TIP3    H113448   1.105   4.536   3.906
 4497TIP3    H213449   1.065   4.391   3.919
 4498TIP3   OH213450   2.542   5.723   2.774
 4498TIP3    H113451   2.564   5.634   2.746
 4498TIP3    H213452   2.447   5.721   2.787
 4499TIP3   OH213453   3.695   0.465   3.309
 4499TIP3    H113454   3.694   0.401   3.380
 4499TIP3    H213455   3.618   0.519   3.325
 4500TIP3   OH213456   2.862   1.163   4.148
 4500TIP3    H113457   2.942   1.111   4.146
 4500TIP3    H213458   2.792   1.100   4.132
 4501TIP3   OH213459   2.038   1.612   5.077
 4501TIP3    H113460   2.007   1.523   5.092
 4501TIP3    H213461   2.118   1.619   5.129
 4502TIP3   OH213462   7.796   4.590   1.443
 4502TIP3    H113463   7.738   4.662   1.470
 4502TIP3    H213464   7.737   4.516   1.427
 4503TIP3   OH213465   4.772   1.018   3.533
 4503TIP3    H113466   4.683   1.000   3.565
 4503TIP3    H213467   4.758   1.052   3.444
 4504TIP3   OH213468   2.413   0.231   3.593
 4504TIP3    H113469   2.318   0.237   3.581
 4504TIP3    H213470   2.424   0.189   3.678
 4505TIP3   OH213471   3.668   4.157   3.246
 4505TIP3    H113472   3.587   4.179   3.292
 4505TIP3    H213473   3.645   4.083   3.190
 4506TIP3   OH213474   6.068   7.030   4.972
 4506TIP3    H113475   6.110   7.060   4.892
 4506TIP3    H213476   6.096   7.093   5.039
 4507TIP3   OH213477   0.382   3.977   6.680
 4507TIP3    H113478   0.380   4.053   6.622
 4507TIP3    H213479   0.327   4.001   6.754
 4508TIP3   OH213480   5.634   7.284   3.529
 4508TIP3    H113481   5.581   7.345   3.477
 4508TIP3    H213482   5.647   7.209   3.471
 4509TIP3   OH213483   4.162   7.359   2.932
 4509TIP3    H113484   4.087   7.399   2.976
 4509TIP3    H213485   4.236   7.373   2.991
 4510TIP3   OH213486   7.162   4.641   6.715
 4510TIP3    H113487   7.119   4.676   6.794
 4510TIP3    H213488   7.120   4.556   6.702
 4511TIP3   OH213489   3.639   3.313   5.617
 4511TIP3    H113490   3.666   3.381   5.678
 4511TIP3    H213491   3.711   3.251   5.616
 4512TIP3   OH213492   1.310   6.031   3.597
 4512TIP3    H113493   1.233   6.065   3.644
 4512TIP3    H213494   1.339   5.958   3.651
 4513TIP3   OH213495   1.972   6.837   2.393
 4513TIP3    H113496   2.007   6.899   2.328
 4513TIP3    H213497   1.879   6.831   2.372
 4514TIP3   OH213498   1.350   7.295   6.070
 4514TIP3    H113499   1.411   7.367   6.053
 4514TIP3    H213500   1.405   7.216   6.065
 4515TIP3   OH213501   2.600   0.235   4.657
 4515TIP3    H113502   2.568   0.315   4.617
 4515TIP3    H213503   2.575   0.243   4.749
 4516TIP3   OH213504   3.096   1.323   2.960
 4516TIP3    H113505   3.014   1.274   2.948
 4516TIP3    H213506   3.114   1.360   2.874
 4517TIP3   OH213507   1.414   5.193   3.393
 4517TIP3    H113508   1.353   5.248   3.442
 4517TIP3    H213509   1.371   5.107   3.389
 4518TIP3   OH213510   0.762   2.241   0.906
 4518TIP3    H113511   0.769   2.208   0.816
 4518TIP3    H213512   0.850   2.271   0.927
 4519TIP3   OH213513   5.731   3.599   4.735
 4519TIP3    H113514   5.678   3.619   4.811
 4519TIP3    H213515   5.819   3.627   4.759
 4520TIP3   OH213516   3.679   5.381   6.420
 4520TIP3    H113517   3.640   5.339   6.343
 4520TIP3    H213518   3.772   5.360   6.413
 4521TIP3   OH213519   4.422   6.557   0.453
 4521TIP3    H113520   4.470   6.587   0.376
 4521TIP3    H213521   4.449   6.616   0.523
 4522TIP3   OH213522   1.115   3.836   4.786
 4522TIP3    H113523   1.152   3.855   4.872
 4522TIP3    H213524   1.021   3.847   4.798
 4523TIP3   OH213525   6.769   6.230   2.895
 4523TIP3    H113526   6.692   6.242   2.841
 4523TIP3    H213527   6.818   6.311   2.887
 4524TIP3   OH213528   3.442   0.138   1.824
 4524TIP3    H113529   3.475   0.228   1.826
 4524TIP3    H213530   3.518   0.083   1.842
 4525TIP3   OH213531   4.982   3.720   1.444
 4525TIP3    H113532   5.033   3.756   1.518
 4525TIP3    H213533   4.908   3.780   1.435
 4526TIP3   OH213534   4.150   2.263   5.001
 4526TIP3    H113535   4.244   2.251   5.008
 4526TIP3    H213536   4.112   2.191   5.052
 4527TIP3   OH213537   6.206   5.358   5.209
 4527TIP3    H113538   6.116   5.389   5.208
 4527TIP3    H213539   6.214   5.306   5.129
 4528TIP3   OH213540   1.527   0.285   1.207
 4528TIP3    H113541   1.434   0.264   1.204
 4528TIP3    H213542   1.530   0.380   1.196
 4529TIP3   OH213543   7.121   1.159   0.322
 4529TIP3    H113544   7.186   1.191   0.261
 4529TIP3    H213545   7.038   1.161   0.273
 4530TIP3   OH213546   0.814   5.755   0.723
 4530TIP3    H113547   0.790   5.845   0.701
 4530TIP3    H213548   0.732   5.713   0.749
 4531TIP3   OH213549   1.808   4.399   0.819
 4531TIP3    H113550   1.869   4.457   0.864
 4531TIP3    H213551   1.851   4.314   0.820
 4532TIP3   OH213552   1.018   0.628   0.110
 4532TIP3    H113553   1.026   0.694   0.041
 4532TIP3    H213554   0.968   0.670   0.179
 4533TIP3   OH213555   0.933   4.875   0.078
 4533TIP3    H113556   1.003   4.834   0.128
 4533TIP3    H213557   0.853   4.835   0.111
 4534TIP3   OH213558   1.824   6.534   3.733
 4534TIP3    H113559   1.858   6.450   3.702
 4534TIP3    H213560   1.773   6.568   3.660
 4535TIP3   OH213561   1.847   7.669   5.922
 4535TIP3    H113562   1.933   7.710   5.922
 4535TIP3    H213563   1.786   7.742   5.934
 4536TIP3   OH213564   3.244   4.306   0.429
 4536TIP3    H113565   3.165   4.334   0.474
 4536TIP3    H213566   3.310   4.300   0.498
 4537TIP3   OH213567   5.417   3.716   2.123
 4537TIP3    H113568   5.506   3.731   2.088
 4537TIP3    H213569   5.414   3.768   2.203
 4538TIP3   OH213570   6.905   6.728   1.853
 4538TIP3    H113571   6.960   6.804   1.868
 4538TIP3    H213572   6.963   6.653   1.869
 4539TIP3   OH213573   1.510   1.542   2.722
 4539TIP3    H113574   1.522   1.447   2.723
 4539TIP3    H213575   1.460   1.558   2.642
 4540TIP3   OH213576   0.033   5.165   0.371
 4540TIP3    H113577  -0.040   5.195   0.318
 4540TIP3    H213578  -0.005   5.143   0.455
 4541TIP3   OH213579   7.791   6.213   0.105
 4541TIP3    H113580   7.745   6.184   0.027
 4541TIP3    H213581   7.724   6.219   0.173
 4542TIP3   OH213582   2.598   0.083   2.971
 4542TIP3    H113583   2.542   0.154   3.002
 4542TIP3    H213584   2.538   0.023   2.927
 4543TIP3   OH213585   2.627   3.414   3.716
 4543TIP3    H113586   2.561   3.393   3.650
 4543TIP3    H213587   2.680   3.335   3.722
 4544TIP3   OH213588   5.200   1.590   4.946
 4544TIP3    H113589   5.167   1.624   5.029
 4544TIP3    H213590   5.289   1.626   4.938
 4545TIP3   OH213591   0.529   1.521   0.410
 4545TIP3    H113592   0.495   1.544   0.496
 4545TIP3    H213593   0.566   1.602   0.375
 4546TIP3   OH213594   2.926   4.990   4.703
 4546TIP3    H113595   3.005   4.941   4.724
 4546TIP3    H213596   2.931   5.003   4.608
 4547TIP3   OH213597   5.087   6.143   2.993
 4547TIP3    H113598   5.030   6.200   3.045
 4547TIP3    H213599   5.133   6.203   2.935
 4548TIP3   OH213600   7.933   1.950   0.300
 4548TIP3    H113601   7.897   1.861   0.299
 4548TIP3    H213602   7.931   1.977   0.208
 4549TIP3   OH213603   8.008   2.644   0.902
 4549TIP3    H113604   8.013   2.592   0.822
 4549TIP3    H213605   8.001   2.735   0.871
 4550TIP3   OH213606   5.501   6.185   5.106
 4550TIP3    H113607   5.567   6.253   5.091
 4550TIP3    H213608   5.496   6.138   5.022
 4551TIP3   OH213609   7.813   5.871   1.531
 4551TIP3    H113610   7.899   5.829   1.532
 4551TIP3    H213611   7.791   5.879   1.438
 4552TIP3   OH213612   5.060   2.702   1.922
 4552TIP3    H113613   5.051   2.721   1.829
 4552TIP3    H213614   5.107   2.618   1.925
 4553TIP3   OH213615   7.642   3.094   0.166
 4553TIP3    H113616   7.687   3.144   0.234
 4553TIP3    H213617   7.689   3.118   0.085
 4554TIP3   OH213618   8.231   7.449   0.211
 4554TIP3    H113619   8.210   7.388   0.141
 4554TIP3    H213620   8.322   7.429   0.234
 4555TIP3   OH213621   6.963   5.074   6.553
 4555TIP3    H113622   7.009   5.112   6.628
 4555TIP3    H213623   6.998   5.120   6.477
 4556TIP3   OH213624   6.083   1.014   0.392
 4556TIP3    H113625   6.037   1.075   0.333
 4556TIP3    H213626   6.065   0.928   0.355
 4557TIP3   OH213627   3.094   6.791   4.949
 4557TIP3    H113628   3.026   6.736   4.909
 4557TIP3    H213629   3.124   6.847   4.878
 4558TIP3   OH213630   3.946   3.612   3.965
 4558TIP3    H113631   4.002   3.687   3.983
 4558TIP3    H213632   3.957   3.555   4.042
 4559TIP3   OH213633   1.398   3.068   3.008
 4559TIP3    H113634   1.326   3.005   3.007
 4559TIP3    H213635   1.469   3.024   2.961
 4560TIP3   OH213636   3.412   5.432   3.154
 4560TIP3    H113637   3.403   5.438   3.249
 4560TIP3    H213638   3.330   5.468   3.120
 4561TIP3   OH213639   0.396   5.801   6.491
 4561TIP3    H113640   0.332   5.732   6.475
 4561TIP3    H213641   0.437   5.776   6.574
 4562TIP3   OH213642   5.990   2.543   6.572
 4562TIP3    H113643   5.978   2.626   6.619
 4562TIP3    H213644   5.903   2.521   6.539
 4563TIP3   OH213645   3.970   4.948   6.583
 4563TIP3    H113646   3.926   5.033   6.589
 4563TIP3    H213647   4.022   4.953   6.503
 4564TIP3   OH213648   2.788   2.440   4.623
 4564TIP3    H113649   2.850   2.467   4.691
 4564TIP3    H213650   2.802   2.502   4.552
 4565TIP3   OH213651   0.347   5.438   0.542
 4565TIP3    H113652   0.370   5.351   0.508
 4565TIP3    H213653   0.349   5.495   0.465
 4566TIP3   OH213654   4.633   5.275   3.386
 4566TIP3    H113655   4.721   5.250   3.415
 4566TIP3    H213656   4.647   5.318   3.302
 4567TIP3   OH213657   7.253   3.695   6.008
 4567TIP3    H113658   7.203   3.775   5.996
 4567TIP3    H213659   7.240   3.671   6.099
 4568TIP3   OH213660   2.927   7.651   2.254
 4568TIP3    H113661   2.993   7.692   2.309
 4568TIP3    H213662   2.970   7.574   2.217
 4569TIP3   OH213663   1.192   4.235   4.687
 4569TIP3    H113664   1.159   4.172   4.623
 4569TIP3    H213665   1.287   4.224   4.685
 4570TIP3   OH213666   4.916   4.879   5.152
 4570TIP3    H113667   4.833   4.886   5.106
 4570TIP3    H213668   4.896   4.830   5.231
 4571TIP3   OH213669   3.257   0.891   5.203
 4571TIP3    H113670   3.230   0.829   5.135
 4571TIP3    H213671   3.234   0.848   5.286
 4572TIP3   OH213672   1.262   7.281   0.710
 4572TIP3    H113673   1.349   7.269   0.673
 4572TIP3    H213674   1.208   7.216   0.666
 4573TIP3   OH213675   5.503   3.971   1.606
 4573TIP3    H113676   5.502   3.982   1.511
 4573TIP3    H213677   5.589   4.002   1.633
 4574TIP3   OH213678   0.529   6.596   2.752
 4574TIP3    H113679   0.507   6.671   2.697
 4574TIP3    H213680   0.467   6.601   2.825
 4575TIP3   OH213681   4.670   6.816   1.076
 4575TIP3    H113682   4.747   6.779   1.118
 4575TIP3    H213683   4.704   6.882   1.017
 4576TIP3   OH213684   6.907   3.521   1.602
 4576TIP3    H113685   6.868   3.453   1.548
 4576TIP3    H213686   6.885   3.603   1.558
 4577TIP3   OH213687   4.105   7.078   5.979
 4577TIP3    H113688   4.014   7.071   5.950
 4577TIP3    H213689   4.122   6.994   6.022
 4578TIP3   OH213690   6.289   0.408   3.148
 4578TIP3    H113691   6.378   0.379   3.166
 4578TIP3    H213692   6.299   0.486   3.092
 4579TIP3   OH213693   4.074   3.331   5.674
 4579TIP3    H113694   4.148   3.378   5.710
 4579TIP3    H213695   4.026   3.397   5.623
 4580TIP3   OH213696   0.106   6.507   1.580
 4580TIP3    H113697   0.121   6.424   1.535
 4580TIP3    H213698   0.190   6.528   1.620
 4581TIP3   OH213699   4.082   4.443   6.549
 4581TIP3    H113700   4.014   4.482   6.494
 4581TIP3    H213701   4.038   4.423   6.631
 4582TIP3   OH213702   6.060   3.987   5.241
 4582TIP3    H113703   6.145   3.946   5.223
 4582TIP3    H213704   6.006   3.915   5.274
 4583TIP3   OH213705   2.329   0.897   3.698
 4583TIP3    H113706   2.270   0.899   3.623
 4583TIP3    H213707   2.279   0.937   3.770
 4584TIP3   OH213708   7.593   7.475   6.570
 4584TIP3    H113709   7.621   7.389   6.538
 4584TIP3    H213710   7.608   7.534   6.496
 4585TIP3   OH213711   6.405   2.506   6.078
 4585TIP3    H113712   6.464   2.581   6.065
 4585TIP3    H213713   6.318   2.540   6.058
 4586TIP3   OH213714   6.331   4.043   3.710
 4586TIP3    H113715   6.409   4.005   3.669
 4586TIP3    H213716   6.261   3.981   3.689
 4587TIP3   OH213717   1.243   0.201   4.783
 4587TIP3    H113718   1.196   0.274   4.743
 4587TIP3    H213719   1.176   0.150   4.828
 4588TIP3   OH213720   0.343   7.666   1.590
 4588TIP3    H113721   0.353   7.573   1.607
 4588TIP3    H213722   0.270   7.694   1.645
 4589TIP3   OH213723   7.113   1.225   0.566
 4589TIP3    H113724   7.119   1.196   0.475
 4589TIP3    H213725   7.098   1.145   0.616
 4590TIP3   OH213726   6.063   3.904   4.968
 4590TIP3    H113727   6.128   3.963   4.930
 4590TIP3    H213728   6.044   3.941   5.054
 4591TIP3   OH213729   6.046   2.210   2.538
 4591TIP3    H113730   6.020   2.164   2.458
 4591TIP3    H213731   6.023   2.150   2.609
 4592TIP3   OH213732   4.482   5.201   5.975
 4592TIP3    H113733   4.564   5.249   5.969
 4592TIP3    H213734   4.506   5.110   5.957
 4593TIP3   OH213735   8.015   6.337   5.219
 4593TIP3    H113736   8.019   6.267   5.284
 4593TIP3    H213737   7.963   6.301   5.147
 4594TIP3   OH213738   0.900   5.939   5.289
 4594TIP3    H113739   0.987   5.901   5.297
 4594TIP3    H213740   0.912   6.015   5.231
 4595TIP3   OH213741   8.093   4.930   6.235
 4595TIP3    H113742   8.009   4.893   6.207
 4595TIP3    H213743   8.077   5.024   6.239
 4596TIP3   OH213744   4.017   6.187   5.791
 4596TIP3    H113745   4.006   6.214   5.700
 4596TIP3    H213746   3.992   6.264   5.842
 4597TIP3   OH213747   1.368   6.422   3.467
 4597TIP3    H113748   1.372   6.356   3.536
 4597TIP3    H213749   1.453   6.417   3.424
 4598TIP3   OH213750   2.331   5.913   1.333
 4598TIP3    H113751   2.254   5.904   1.277
 4598TIP3    H213752   2.300   5.967   1.407
 4599TIP3   OH213753   3.521   1.763   5.944
 4599TIP3    H113754   3.551   1.812   6.020
 4599TIP3    H213755   3.564   1.678   5.952
 4600TIP3   OH213756   6.500   4.087   1.091
 4600TIP3    H113757   6.448   4.113   1.167
 4600TIP3    H213758   6.443   4.030   1.040
 4601TIP3   OH213759   2.188   5.387   1.949
 4601TIP3    H113760   2.127   5.316   1.968
 4601TIP3    H213761   2.220   5.368   1.861
 4602TIP3   OH213762   5.285   7.049   3.326
 4602TIP3    H113763   5.315   7.096   3.404
 4602TIP3    H213764   5.193   7.071   3.318
 4603TIP3   OH213765   3.488   0.072   1.175
 4603TIP3    H113766   3.501   0.014   1.250
 4603TIP3    H213767   3.479   0.014   1.100
 4604TIP3   OH213768   6.022   6.177   1.557
 4604TIP3    H113769   6.027   6.125   1.477
 4604TIP3    H213770   6.071   6.257   1.536
 4605TIP3   OH213771   3.989   2.186   3.248
 4605TIP3    H113772   4.028   2.213   3.165
 4605TIP3    H213773   3.912   2.135   3.223
 4606TIP3   OH213774   4.663   3.527   1.408
 4606TIP3    H113775   4.644   3.510   1.315
 4606TIP3    H213776   4.743   3.477   1.425
 4607TIP3   OH213777   7.046   1.893   1.535
 4607TIP3    H113778   6.981   1.895   1.606
 4607TIP3    H213779   7.088   1.979   1.538
 4608TIP3   OH213780   3.021   5.201   6.261
 4608TIP3    H113781   3.071   5.281   6.249
 4608TIP3    H213782   3.086   5.134   6.281
 4609TIP3   OH213783   7.739   2.948   4.920
 4609TIP3    H113784   7.695   2.865   4.904
 4609TIP3    H213785   7.670   3.014   4.913
 4610TIP3   OH213786   1.329   0.031   4.572
 4610TIP3    H113787   1.309   0.091   4.643
 4610TIP3    H213788   1.388   0.081   4.514
 4611TIP3   OH213789   6.193   1.749   6.611
 4611TIP3    H113790   6.209   1.843   6.619
 4611TIP3    H213791   6.169   1.737   6.519
 4612TIP3   OH213792   0.826   6.881   5.491
 4612TIP3    H113793   0.921   6.874   5.496
 4612TIP3    H213794   0.811   6.966   5.449
 4613TIP3   OH213795   7.376   6.837   0.867
 4613TIP3    H113796   7.336   6.750   0.865
 4613TIP3    H213797   7.465   6.824   0.833
 4614TIP3   OH213798   0.277   4.255   3.812
 4614TIP3    H113799   0.321   4.328   3.770
 4614TIP3    H213800   0.345   4.189   3.826
 4615TIP3   OH213801   6.073   2.594   1.913
 4615TIP3    H113802   5.980   2.604   1.892
 4615TIP3    H213803   6.079   2.612   2.007
 4616TIP3   OH213804   7.197   1.754   3.632
 4616TIP3    H113805   7.262   1.702   3.679
 4616TIP3    H213806   7.158   1.811   3.699
 4617TIP3   OH213807   6.818   3.264   0.595
 4617TIP3    H113808   6.779   3.274   0.682
 4617TIP3    H213809   6.850   3.174   0.594
 4618TIP3   OH213810   2.790   6.015   0.705
 4618TIP3    H113811   2.819   6.083   0.765
 4618TIP3    H213812   2.855   6.014   0.635
 4619TIP3   OH213813   1.035   1.738   5.099
 4619TIP3    H113814   1.087   1.812   5.067
 4619TIP3    H213815   1.002   1.696   5.020
 4620TIP3   OH213816   8.155   2.587   1.880
 4620TIP3    H113817   8.196   2.547   1.803
 4620TIP3    H213818   8.206   2.668   1.894
 4621TIP3   OH213819   1.647   4.016   1.110
 4621TIP3    H113820   1.676   3.984   1.196
 4621TIP3    H213821   1.709   4.085   1.088
 4622TIP3   OH213822   0.601   0.959   3.371
 4622TIP3    H113823   0.612   0.871   3.407
 4622TIP3    H213824   0.517   0.989   3.406
 4623TIP3   OH213825   7.591   6.241   3.248
 4623TIP3    H113826   7.498   6.228   3.226
 4623TIP3    H213827   7.590   6.299   3.324
 4624TIP3   OH213828   5.640   7.267   1.545
 4624TIP3    H113829   5.657   7.343   1.490
 4624TIP3    H213830   5.544   7.265   1.554
 4625TIP3   OH213831   7.380   0.834   5.305
 4625TIP3    H113832   7.371   0.778   5.228
 4625TIP3    H213833   7.413   0.775   5.373
 4626TIP3   OH213834   1.876   2.916   0.027
 4626TIP3    H113835   1.958   2.903   0.075
 4626TIP3    H213836   1.894   2.880  -0.060
 4627TIP3   OH213837   6.587   1.136   3.338
 4627TIP3    H113838   6.608   1.167   3.426
 4627TIP3    H213839   6.510   1.188   3.312
 4628TIP3   OH213840   4.678   7.106   1.205
 4628TIP3    H113841   4.756   7.092   1.152
 4628TIP3    H213842   4.605   7.110   1.142
 4629TIP3   OH213843   2.658   0.609   5.155
 4629TIP3    H113844   2.687   0.542   5.093
 4629TIP3    H213845   2.726   0.676   5.152
 4630TIP3   OH213846   2.726   2.771   0.601
 4630TIP3    H113847   2.704   2.679   0.584
 4630TIP3    H213848   2.811   2.769   0.643
 4631TIP3   OH213849   5.444   1.871   6.432
 4631TIP3    H113850   5.473   1.779   6.430
 4631TIP3    H213851   5.490   1.909   6.506
 4632TIP3   OH213852   1.053   4.548   4.188
 4632TIP3    H113853   1.071   4.626   4.135
 4632TIP3    H213854   1.138   4.524   4.226
 4633TIP3   OH213855   3.752   6.255   6.050
 4633TIP3    H113856   3.824   6.300   6.007
 4633TIP3    H213857   3.673   6.295   6.013
 4634TIP3   OH213858   5.129   1.695   3.438
 4634TIP3    H113859   5.089   1.638   3.503
 4634TIP3    H213860   5.062   1.706   3.371
 4635TIP3   OH213861   2.605   7.108   2.865
 4635TIP3    H113862   2.576   7.081   2.952
 4635TIP3    H213863   2.583   7.034   2.808
 4636TIP3   OH213864   6.562   6.059   1.806
 4636TIP3    H113865   6.596   5.993   1.745
 4636TIP3    H213866   6.625   6.132   1.798
 4637TIP3   OH213867   1.955   6.041   3.764
 4637TIP3    H113868   2.020   6.100   3.727
 4637TIP3    H213869   1.909   6.093   3.829
 4638TIP3   OH213870   4.725   1.425   5.555
 4638TIP3    H113871   4.679   1.423   5.471
 4638TIP3    H213872   4.663   1.463   5.616
 4639TIP3   OH213873   6.800   0.374   3.454
 4639TIP3    H113874   6.780   0.445   3.393
 4639TIP3    H213875   6.846   0.309   3.401
 4640TIP3   OH213876   2.863   6.943   2.993
 4640TIP3    H113877   2.802   6.998   2.943
 4640TIP3    H213878   2.923   7.006   3.033
 4641TIP3   OH213879   4.377   1.493   3.557
 4641TIP3    H113880   4.408   1.562   3.498
 4641TIP3    H213881   4.389   1.529   3.645
 4642TIP3   OH213882   4.396   6.520   1.523
 4642TIP3    H113883   4.402   6.424   1.518
 4642TIP3    H213884   4.481   6.547   1.558
 4643TIP3   OH213885   7.051   2.818   2.186
 4643TIP3    H113886   6.972   2.872   2.188
 4643TIP3    H213887   7.122   2.878   2.214
 4644TIP3   OH213888   7.544   6.373   4.092
 4644TIP3    H113889   7.599   6.441   4.131
 4644TIP3    H213890   7.506   6.327   4.167
 4645TIP3   OH213891   4.063   0.240   2.873
 4645TIP3    H113892   3.987   0.237   2.815
 4645TIP3    H213893   4.132   0.194   2.825
 4646TIP3   OH213894   6.217   6.670   6.553
 4646TIP3    H113895   6.300   6.626   6.534
 4646TIP3    H213896   6.223   6.692   6.646
 4647TIP3   OH213897   1.922   1.572   1.210
 4647TIP3    H113898   1.911   1.613   1.124
 4647TIP3    H213899   1.970   1.492   1.193
 4648TIP3   OH213900   4.253   0.920   6.752
 4648TIP3    H113901   4.285   0.929   6.841
 4648TIP3    H213902   4.201   0.998   6.736
 4649TIP3   OH213903   1.903   7.165   0.609
 4649TIP3    H113904   1.979   7.181   0.664
 4649TIP3    H213905   1.860   7.089   0.649
 4650TIP3   OH213906   0.561   7.164   4.799
 4650TIP3    H113907   0.496   7.094   4.791
 4650TIP3    H213908   0.635   7.123   4.843
 4651TIP3   OH213909   6.177   6.409   0.081
 4651TIP3    H113910   6.220   6.409   0.166
 4651TIP3    H213911   6.246   6.386   0.019
 4652TIP3   OH213912  -0.036   5.860   3.699
 4652TIP3    H113913   0.056   5.871   3.722
 4652TIP3    H213914  -0.038   5.781   3.645
 4653TIP3   OH213915   6.112   0.211   3.085
 4653TIP3    H113916   6.174   0.283   3.095
 4653TIP3    H213917   6.167   0.136   3.062
 4654TIP3   OH213918   7.278   0.205   2.568
 4654TIP3    H113919   7.214   0.271   2.594
 4654TIP3    H213920   7.250   0.178   2.480
 4655TIP3   OH213921   4.549   7.497   6.346
 4655TIP3    H113922   4.466   7.451   6.358
 4655TIP3    H213923   4.616   7.433   6.373
 4656TIP3   OH213924   0.282   6.880   3.981
 4656TIP3    H113925   0.259   6.790   4.004
 4656TIP3    H213926   0.376   6.887   3.998
 4657TIP3   OH213927   4.514   2.694   0.658
 4657TIP3    H113928   4.567   2.617   0.638
 4657TIP3    H213929   4.574   2.754   0.701
 4658TIP3   OH213930   3.704   5.021   2.154
 4658TIP3    H113931   3.629   5.008   2.212
 4658TIP3    H213932   3.680   5.095   2.099
 4659TIP3   OH213933   7.212   6.212   0.210
 4659TIP3    H113934   7.280   6.155   0.245
 4659TIP3    H213935   7.156   6.231   0.285
 4660TIP3   OH213936   7.250   6.930   4.964
 4660TIP3    H113937   7.249   6.954   5.056
 4660TIP3    H213938   7.205   7.002   4.920
 4661TIP3   OH213939   4.827   7.483   2.127
 4661TIP3    H113940   4.870   7.566   2.148
 4661TIP3    H213941   4.890   7.416   2.153
 4662TIP3   OH213942   7.129   6.302   2.443
 4662TIP3    H113943   7.186   6.310   2.366
 4662TIP3    H213944   7.049   6.348   2.418
 4663TIP3   OH213945   2.640   5.616   0.389
 4663TIP3    H113946   2.587   5.545   0.353
 4663TIP3    H213947   2.596   5.696   0.362
 4664TIP3   OH213948   6.512   5.323   4.466
 4664TIP3    H113949   6.505   5.294   4.375
 4664TIP3    H213950   6.448   5.394   4.473
 4665TIP3   OH213951   7.374   4.076   2.526
 4665TIP3    H113952   7.406   4.010   2.587
 4665TIP3    H213953   7.298   4.036   2.484
 4666TIP3   OH213954   5.562   0.168   4.796
 4666TIP3    H113955   5.617   0.140   4.870
 4666TIP3    H213956   5.605   0.246   4.762
 4667TIP3   OH213957   2.946   2.121   3.021
 4667TIP3    H113958   2.984   2.209   3.016
 4667TIP3    H213959   2.965   2.082   2.936
 4668TIP3   OH213960   7.580   1.187   2.025
 4668TIP3    H113961   7.603   1.182   2.118
 4668TIP3    H213962   7.561   1.096   2.000
 4669TIP3   OH213963   4.712   2.671   2.913
 4669TIP3    H113964   4.639   2.682   2.974
 4669TIP3    H213965   4.697   2.586   2.872
 4670TIP3   OH213966   1.945   4.395   5.630
 4670TIP3    H113967   1.996   4.316   5.645
 4670TIP3    H213968   1.889   4.403   5.707
 4671TIP3   OH213969   2.480   2.663   3.560
 4671TIP3    H113970   2.574   2.650   3.548
 4671TIP3    H213971   2.444   2.664   3.471
 4672TIP3   OH213972   5.400   5.021   1.858
 4672TIP3    H113973   5.439   5.038   1.944
 4672TIP3    H213974   5.474   5.001   1.802
 4673TIP3   OH213975   6.437   7.039   3.926
 4673TIP3    H113976   6.477   6.952   3.933
 4673TIP3    H213977   6.369   7.029   3.861
 4674TIP3   OH213978   0.590   5.013   3.483
 4674TIP3    H113979   0.541   5.054   3.411
 4674TIP3    H213980   0.599   4.921   3.456
 4675TIP3   OH213981   0.707   3.861   6.249
 4675TIP3    H113982   0.765   3.925   6.208
 4675TIP3    H213983   0.663   3.818   6.176
 4676TIP3   OH213984   3.580   5.603   5.968
 4676TIP3    H113985   3.602   5.510   5.969
 4676TIP3    H213986   3.658   5.645   5.934
 4677TIP3   OH213987   2.038   5.135   4.735
 4677TIP3    H113988   1.962   5.192   4.739
 4677TIP3    H213989   2.024   5.073   4.807
 4678TIP3   OH213990   4.198   3.253   4.920
 4678TIP3    H113991   4.156   3.260   5.005
 4678TIP3    H213992   4.210   3.158   4.907
 4679TIP3   OH213993   0.581   7.124   0.863
 4679TIP3    H113994   0.670   7.146   0.893
 4679TIP3    H213995   0.540   7.083   0.939
 4680TIP3   OH213996   6.804   4.159   5.627
 4680TIP3    H113997   6.726   4.121   5.666
 4680TIP3    H213998   6.850   4.200   5.701
 4681TIP3   OH213999   0.890   7.189   5.717
 4681TIP3    H114000   0.969   7.152   5.757
 4681TIP3    H214001   0.905   7.283   5.717
 4682TIP3   OH214002   2.243   0.867   6.059
 4682TIP3    H114003   2.281   0.873   6.147
 4682TIP3    H214004   2.296   0.927   6.006
 4683TIP3   OH214005   0.418   1.913   1.975
 4683TIP3    H114006   0.328   1.888   1.996
 4683TIP3    H214007   0.411   2.003   1.944
 4684TIP3   OH214008   5.873   1.853   0.629
 4684TIP3    H114009   5.887   1.807   0.712
 4684TIP3    H214010   5.818   1.927   0.651
 4685TIP3   OH214011   7.488   2.826   6.591
 4685TIP3    H114012   7.398   2.809   6.619
 4685TIP3    H214013   7.513   2.906   6.637
 4686TIP3   OH214014   0.266   5.673   4.734
 4686TIP3    H114015   0.321   5.663   4.812
 4686TIP3    H214016   0.178   5.650   4.765
 4687TIP3   OH214017   7.108   3.820   6.260
 4687TIP3    H114018   7.032   3.877   6.271
 4687TIP3    H214019   7.141   3.805   6.349
 4688TIP3   OH214020   3.332   4.007   6.320
 4688TIP3    H114021   3.359   4.060   6.395
 4688TIP3    H214022   3.329   3.918   6.354
 4689TIP3   OH214023   5.523   0.440   3.787
 4689TIP3    H114024   5.544   0.354   3.825
 4689TIP3    H214025   5.428   0.446   3.795
 4690TIP3   OH214026   2.596   7.018   5.764
 4690TIP3    H114027   2.629   6.928   5.764
 4690TIP3    H214028   2.597   7.044   5.856
 4691TIP3   OH214029   2.720   3.192   5.716
 4691TIP3    H114030   2.777   3.268   5.703
 4691TIP3    H214031   2.764   3.141   5.784
 4692TIP3   OH214032   2.895   0.702   4.123
 4692TIP3    H114033   2.840   0.741   4.191
 4692TIP3    H214034   2.838   0.639   4.079
 4693TIP3   OH214035   1.718   5.369   2.148
 4693TIP3    H114036   1.753   5.388   2.061
 4693TIP3    H214037   1.684   5.453   2.180
 4694TIP3   OH214038   7.530   1.861   3.655
 4694TIP3    H114039   7.482   1.788   3.693
 4694TIP3    H214040   7.614   1.861   3.701
 4695TIP3   OH214041   0.945   2.610   4.342
 4695TIP3    H114042   0.880   2.669   4.306
 4695TIP3    H214043   1.009   2.667   4.384
 4696TIP3   OH214044   3.576   6.330   2.837
 4696TIP3    H114045   3.523   6.318   2.758
 4696TIP3    H214046   3.666   6.341   2.805
 4697TIP3   OH214047   2.783   5.835   0.942
 4697TIP3    H114048   2.742   5.909   0.897
 4697TIP3    H214049   2.847   5.801   0.880
 4698TIP3   OH214050   2.078   6.246   5.539
 4698TIP3    H114051   2.138   6.298   5.591
 4698TIP3    H214052   2.096   6.155   5.565
 4699TIP3   OH214053   7.886   5.638   1.334
 4699TIP3    H114054   7.880   5.627   1.239
 4699TIP3    H214055   7.971   5.677   1.349
 4700TIP3   OH214056   0.771   2.069   6.705
 4700TIP3    H114057   0.771   2.116   6.621
 4700TIP3    H214058   0.756   1.978   6.683
 4701TIP3   OH214059   4.827   3.131   6.127
 4701TIP3    H114060   4.744   3.163   6.163
 4701TIP3    H214061   4.816   3.139   6.032
 4702TIP3   OH214062   4.773   4.108   4.738
 4702TIP3    H114063   4.830   4.038   4.770
 4702TIP3    H214064   4.690   4.064   4.720
 4703TIP3   OH214065   3.198   1.876   5.514
 4703TIP3    H114066   3.170   1.800   5.463
 4703TIP3    H214067   3.282   1.902   5.475
 4704TIP3   OH214068   0.580   6.912   0.606
 4704TIP3    H114069   0.552   6.839   0.661
 4704TIP3    H214070   0.584   6.987   0.665
 4705TIP3   OH214071   6.251   5.763   6.597
 4705TIP3    H114072   6.339   5.726   6.604
 4705TIP3    H214073   6.193   5.691   6.624
 4706TIP3   OH214074   0.879   3.981   1.844
 4706TIP3    H114075   0.820   3.952   1.775
 4706TIP3    H214076   0.899   4.072   1.822
 4707TIP3   OH214077   1.917   4.155   0.875
 4707TIP3    H114078   1.969   4.081   0.843
 4707TIP3    H214079   1.966   4.187   0.951
 4708TIP3   OH214080   5.376   0.422   5.428
 4708TIP3    H114081   5.369   0.484   5.356
 4708TIP3    H214082   5.454   0.449   5.476
 4709TIP3   OH214083   4.634   0.194   5.658
 4709TIP3    H114084   4.637   0.228   5.747
 4709TIP3    H214085   4.578   0.254   5.610
 4710TIP3   OH214086   4.197   3.944   1.717
 4710TIP3    H114087   4.107   3.970   1.735
 4710TIP3    H214088   4.189   3.864   1.664
 4711TIP3   OH214089   0.826   1.283   2.905
 4711TIP3    H114090   0.733   1.294   2.887
 4711TIP3    H214091   0.844   1.192   2.883
 4712TIP3   OH214092   0.767   4.961   4.825
 4712TIP3    H114093   0.808   4.889   4.779
 4712TIP3    H214094   0.775   4.938   4.918
 4713TIP3   OH214095   7.762   6.056   3.118
 4713TIP3    H114096   7.748   6.141   3.159
 4713TIP3    H214097   7.840   6.067   3.064
 4714TIP3   OH214098   0.134   0.721   2.415
 4714TIP3    H114099   0.076   0.797   2.403
 4714TIP3    H214100   0.082   0.647   2.384
 4715TIP3   OH214101   7.506   4.148   3.831
 4715TIP3    H114102   7.483   4.227   3.783
 4715TIP3    H214103   7.598   4.133   3.810
 4716TIP3   OH214104   4.096   4.080   0.149
 4716TIP3    H114105   4.189   4.068   0.166
 4716TIP3    H214106   4.062   3.991   0.138
 4717TIP3   OH214107   5.865   1.770   0.894
 4717TIP3    H114108   5.869   1.800   0.985
 4717TIP3    H214109   5.807   1.693   0.897
 4718TIP3   OH214110   2.598   2.039   0.350
 4718TIP3    H114111   2.613   2.113   0.291
 4718TIP3    H214112   2.683   1.995   0.357
 4719TIP3   OH214113   4.085   1.917   6.370
 4719TIP3    H114114   4.169   1.873   6.358
 4719TIP3    H214115   4.089   1.993   6.312
 4720TIP3   OH214116   4.142   0.579   2.133
 4720TIP3    H114117   4.087   0.606   2.060
 4720TIP3    H214118   4.206   0.519   2.094
 4721TIP3   OH214119   7.416   1.721   3.042
 4721TIP3    H114120   7.400   1.691   2.953
 4721TIP3    H214121   7.500   1.768   3.036
 4722TIP3   OH214122   1.011   4.647   2.141
 4722TIP3    H114123   0.938   4.624   2.200
 4722TIP3    H214124   1.055   4.720   2.185
 4723TIP3   OH214125   6.639   4.991   4.504
 4723TIP3    H114126   6.562   5.036   4.468
 4723TIP3    H214127   6.607   4.951   4.585
 4724TIP3   OH214128   6.982   5.695   3.747
 4724TIP3    H114129   6.974   5.759   3.818
 4724TIP3    H214130   6.998   5.748   3.669
 4725TIP3   OH214131   3.727   6.182   1.025
 4725TIP3    H114132   3.732   6.147   0.936
 4725TIP3    H214133   3.638   6.163   1.054
 4726TIP3   OH214134   3.618   5.143   0.320
 4726TIP3    H114135   3.617   5.213   0.254
 4726TIP3    H214136   3.537   5.155   0.369
 4727TIP3   OH214137   5.332   3.420   1.546
 4727TIP3    H114138   5.276   3.439   1.622
 4727TIP3    H214139   5.415   3.464   1.566
 4728TIP3   OH214140   1.136   4.625   5.224
 4728TIP3    H114141   1.221   4.634   5.266
 4728TIP3    H214142   1.146   4.550   5.164
 4729TIP3   OH214143   6.920   0.328   4.309
 4729TIP3    H114144   6.868   0.379   4.247
 4729TIP3    H214145   6.886   0.353   4.395
 4730TIP3   OH214146   8.138   1.331   0.399
 4730TIP3    H114147   8.116   1.262   0.462
 4730TIP3    H214148   8.228   1.312   0.373
 4731TIP3   OH214149   1.554   7.456   5.971
 4731TIP3    H114150   1.594   7.530   5.925
 4731TIP3    H214151   1.612   7.382   5.952
 4732TIP3   OH214152   4.027   0.870   1.837
 4732TIP3    H114153   3.942   0.863   1.879
 4732TIP3    H214154   4.089   0.878   1.909
 4733TIP3   OH214155   7.501   4.240   5.993
 4733TIP3    H114156   7.528   4.331   5.987
 4733TIP3    H214157   7.413   4.243   6.030
 4734TIP3   OH214158   8.242   2.610   0.647
 4734TIP3    H114159   8.325   2.565   0.661
 4734TIP3    H214160   8.245   2.685   0.705
 4735TIP3   OH214161   2.200   5.988   5.068
 4735TIP3    H114162   2.188   5.990   5.163
 4735TIP3    H214163   2.203   6.080   5.042
 4736TIP3   OH214164   2.026   7.064   3.991
 4736TIP3    H114165   1.962   7.057   3.921
 4736TIP3    H214166   1.986   7.122   4.056
 4737TIP3   OH214167   3.343   4.732   0.336
 4737TIP3    H114168   3.371   4.679   0.261
 4737TIP3    H214169   3.424   4.755   0.381
 4738TIP3   OH214170   0.934   5.201   2.411
 4738TIP3    H114171   0.975   5.162   2.334
 4738TIP3    H214172   0.843   5.216   2.386
 4739TIP3   OH214173   2.831   1.453   4.522
 4739TIP3    H114174   2.843   1.479   4.613
 4739TIP3    H214175   2.907   1.399   4.502
 4740TIP3   OH214176   7.374   0.469   3.372
 4740TIP3    H114177   7.436   0.534   3.338
 4740TIP3    H214178   7.424   0.419   3.436
 4741TIP3   OH214179   0.934   6.684   1.754
 4741TIP3    H114180   0.846   6.706   1.787
 4741TIP3    H214181   0.964   6.764   1.712
 4742TIP3   OH214182   0.652   0.478   3.983
 4742TIP3    H114183   0.598   0.557   3.972
 4742TIP3    H214184   0.621   0.439   4.064
 4743TIP3   OH214185   2.572   1.462   3.843
 4743TIP3    H114186   2.600   1.432   3.929
 4743TIP3    H214187   2.632   1.419   3.782
 4744TIP3   OH214188   5.843   3.272   5.552
 4744TIP3    H114189   5.821   3.180   5.543
 4744TIP3    H214190   5.806   3.298   5.637
 4745TIP3   OH214191   2.335   3.970   3.217
 4745TIP3    H114192   2.365   3.910   3.285
 4745TIP3    H214193   2.356   3.927   3.135
 4746TIP3   OH214194   5.554   5.115   3.316
 4746TIP3    H114195   5.470   5.071   3.301
 4746TIP3    H214196   5.572   5.162   3.235
 4747TIP3   OH214197   2.990   0.233   5.617
 4747TIP3    H114198   2.979   0.138   5.616
 4747TIP3    H214199   3.081   0.247   5.644
 4748TIP3   OH214200   5.728   2.747   5.626
 4748TIP3    H114201   5.746   2.719   5.716
 4748TIP3    H214202   5.654   2.692   5.598
 4749TIP3   OH214203   3.791   1.224   5.601
 4749TIP3    H114204   3.735   1.277   5.658
 4749TIP3    H214205   3.878   1.230   5.640
 4750TIP3   OH214206   5.676   3.901   5.055
 4750TIP3    H114207   5.630   3.981   5.029
 4750TIP3    H214208   5.641   3.833   4.997
 4751TIP3   OH214209   6.252   3.277   4.470
 4751TIP3    H114210   6.204   3.360   4.463
 4751TIP3    H214211   6.288   3.277   4.559
 4752TIP3   OH214212   4.043   1.575   1.270
 4752TIP3    H114213   4.017   1.631   1.197
 4752TIP3    H214214   4.093   1.633   1.328
 4753TIP3   OH214215   4.444   0.086   2.158
 4753TIP3    H114216   4.377   0.098   2.090
 4753TIP3    H214217   4.527   0.089   2.111
 4754TIP3   OH214218   3.143   7.308   0.155
 4754TIP3    H114219   3.139   7.386   0.100
 4754TIP3    H214220   3.060   7.310   0.204
 4755TIP3   OH214221   4.262   1.447   3.278
 4755TIP3    H114222   4.351   1.474   3.298
 4755TIP3    H214223   4.265   1.352   3.274
 4756TIP3   OH214224   5.609   2.760   3.642
 4756TIP3    H114225   5.683   2.815   3.615
 4756TIP3    H214226   5.645   2.671   3.646
 4757TIP3   OH214227   7.451   4.645   1.497
 4757TIP3    H114228   7.537   4.686   1.490
 4757TIP3    H214229   7.457   4.589   1.575
 4758TIP3   OH214230   4.569   0.360   3.252
 4758TIP3    H114231   4.662   0.359   3.231
 4758TIP3    H214232   4.562   0.417   3.329
 4759TIP3   OH214233   5.475   2.831   5.462
 4759TIP3    H114234   5.439   2.763   5.406
 4759TIP3    H214235   5.545   2.870   5.410
 4760TIP3   OH214236   1.176   6.695   2.680
 4760TIP3    H114237   1.171   6.620   2.739
 4760TIP3    H214238   1.099   6.687   2.624
 4761TIP3   OH214239   0.833   7.521   6.538
 4761TIP3    H114240   0.923   7.513   6.571
 4761TIP3    H214241   0.789   7.443   6.571
 4762TIP3   OH214242   3.740   6.264   5.266
 4762TIP3    H114243   3.717   6.357   5.272
 4762TIP3    H214244   3.814   6.254   5.325
 4763TIP3   OH214245   6.271   0.486   0.895
 4763TIP3    H114246   6.349   0.440   0.926
 4763TIP3    H214247   6.239   0.533   0.971
 4764TIP3   OH214248   3.456   1.039   4.924
 4764TIP3    H114249   3.415   0.972   4.870
 4764TIP3    H214250   3.512   1.087   4.863
 4765TIP3   OH214251   1.995   3.950   3.825
 4765TIP3    H114252   2.014   3.867   3.780
 4765TIP3    H214253   1.915   3.932   3.874
 4766TIP3   OH214254   5.681   4.004   6.101
 4766TIP3    H114255   5.761   3.984   6.150
 4766TIP3    H214256   5.645   4.081   6.146
 4767TIP3   OH214257   5.281   5.157   6.476
 4767TIP3    H114258   5.290   5.203   6.393
 4767TIP3    H214259   5.238   5.074   6.453
 4768TIP3   OH214260   7.894   4.926   5.518
 4768TIP3    H114261   7.956   4.857   5.499
 4768TIP3    H214262   7.924   4.963   5.601
 4769TIP3   OH214263   7.363   0.088   0.882
 4769TIP3    H114264   7.393   0.095   0.791
 4769TIP3    H214265   7.422   0.025   0.923
 4770TIP3   OH214266   6.587   1.482   0.673
 4770TIP3    H114267   6.491   1.481   0.666
 4770TIP3    H214268   6.608   1.403   0.723
 4771TIP3   OH214269   4.371   3.899   1.332
 4771TIP3    H114270   4.405   3.963   1.270
 4771TIP3    H214271   4.303   3.852   1.283
 4772TIP3   OH214272   7.505   6.380   4.404
 4772TIP3    H114273   7.565   6.321   4.450
 4772TIP3    H214274   7.546   6.466   4.412
 4773TIP3   OH214275   4.225   5.735   0.214
 4773TIP3    H114276   4.285   5.798   0.255
 4773TIP3    H214277   4.165   5.790   0.163
 4774TIP3   OH214278   4.753   4.380   2.752
 4774TIP3    H114279   4.701   4.302   2.770
 4774TIP3    H214280   4.743   4.394   2.658
 4775TIP3   OH214281   3.682   7.303   4.997
 4775TIP3    H114282   3.771   7.307   4.962
 4775TIP3    H214283   3.652   7.394   4.995
 4776TIP3   OH214284   7.159   2.886   6.126
 4776TIP3    H114285   7.188   2.968   6.084
 4776TIP3    H214286   7.069   2.904   6.151
 4777TIP3   OH214287   3.186   7.182   2.423
 4777TIP3    H114288   3.119   7.124   2.387
 4777TIP3    H214289   3.207   7.144   2.509
 4778TIP3   OH214290   5.116   7.259   5.085
 4778TIP3    H114291   5.137   7.172   5.051
 4778TIP3    H214292   5.025   7.252   5.113
 4779TIP3   OH214293   1.973   4.010   6.383
 4779TIP3    H114294   1.946   3.937   6.439
 4779TIP3    H214295   2.067   4.021   6.401
 4780TIP3   OH214296   2.702   2.789   2.044
 4780TIP3    H114297   2.678   2.882   2.049
 4780TIP3    H214298   2.641   2.745   2.102
 4781TIP3   OH214299   5.914   3.287   5.063
 4781TIP3    H114300   5.833   3.334   5.084
 4781TIP3    H214301   5.967   3.351   5.017
 4782TIP3   OH214302   2.954   6.195   6.438
 4782TIP3    H114303   2.903   6.115   6.428
 4782TIP3    H214304   2.981   6.195   6.530
 4783TIP3   OH214305   0.358   2.392   2.676
 4783TIP3    H114306   0.336   2.435   2.759
 4783TIP3    H214307   0.313   2.444   2.610
 4784TIP3   OH214308   0.546   2.896   3.067
 4784TIP3    H114309   0.466   2.943   3.043
 4784TIP3    H214310   0.521   2.804   3.066
 4785TIP3   OH214311   1.480   7.148   3.404
 4785TIP3    H114312   1.400   7.111   3.442
 4785TIP3    H214313   1.473   7.128   3.311
 4786TIP3   OH214314   5.880   0.985   1.800
 4786TIP3    H114315   5.974   0.999   1.805
 4786TIP3    H214316   5.853   0.970   1.890
 4787TIP3   OH214317   5.354   5.318   4.462
 4787TIP3    H114318   5.343   5.247   4.525
 4787TIP3    H214319   5.265   5.336   4.430
 4788TIP3   OH214320   2.484   3.979   1.009
 4788TIP3    H114321   2.570   4.020   1.001
 4788TIP3    H214322   2.442   3.993   0.925
 4789TIP3   OH214323   6.919   6.908   3.234
 4789TIP3    H114324   6.994   6.966   3.223
 4789TIP3    H214325   6.851   6.964   3.271
 4790TIP3   OH214326   2.630   4.134   2.338
 4790TIP3    H114327   2.606   4.158   2.428
 4790TIP3    H214328   2.561   4.172   2.284
 4791TIP3   OH214329   3.001   7.147   3.155
 4791TIP3    H114330   2.991   7.129   3.249
 4791TIP3    H214331   2.915   7.179   3.128
 4792TIP3   OH214332   7.556   4.170   5.733
 4792TIP3    H114333   7.521   4.152   5.820
 4792TIP3    H214334   7.492   4.229   5.693
 4793TIP3   OH214335   5.469   1.806   0.106
 4793TIP3    H114336   5.395   1.781   0.050
 4793TIP3    H214337   5.516   1.723   0.122
 4794TIP3   OH214338   3.259   0.204   0.635
 4794TIP3    H114339   3.349   0.201   0.669
 4794TIP3    H214340   3.249   0.121   0.588
 4795TIP3   OH214341   2.323   4.824   0.232
 4795TIP3    H114342   2.229   4.810   0.219
 4795TIP3    H214343   2.364   4.764   0.169
 4796TIP3   OH214344   0.817   2.881   3.049
 4796TIP3    H114345   0.822   2.924   3.134
 4796TIP3    H214346   0.723   2.874   3.031
 4797TIP3   OH214347   6.105   6.416   4.197
 4797TIP3    H114348   6.045   6.460   4.256
 4797TIP3    H214349   6.055   6.342   4.162
 4798TIP3   OH214350   1.269   2.157   2.368
 4798TIP3    H114351   1.325   2.235   2.361
 4798TIP3    H214352   1.313   2.102   2.433
 4799TIP3   OH214353   7.105   4.402   6.385
 4799TIP3    H114354   7.069   4.435   6.302
 4799TIP3    H214355   7.194   4.374   6.364
 4800TIP3   OH214356   0.822   1.106   1.809
 4800TIP3    H114357   0.881   1.181   1.810
 4800TIP3    H214358   0.823   1.073   1.899
 4801TIP3   OH214359   1.615   1.746   5.965
 4801TIP3    H114360   1.607   1.839   5.940
 4801TIP3    H214361   1.666   1.707   5.895
 4802TIP3   OH214362   5.348   3.899   3.923
 4802TIP3    H114363   5.279   3.853   3.971
 4802TIP3    H214364   5.427   3.847   3.940
 4803TIP3   OH214365   5.261   7.149   5.614
 4803TIP3    H114366   5.337   7.193   5.653
 4803TIP3    H214367   5.284   7.137   5.522
 4804TIP3   OH214368   5.521   6.715   2.370
 4804TIP3    H114369   5.449   6.731   2.432
 4804TIP3    H214370   5.511   6.785   2.305
 4805TIP3   OH214371   4.475   1.889   0.020
 4805TIP3    H114372   4.431   1.960   0.068
 4805TIP3    H214373   4.473   1.815   0.080
 4806TIP3   OH214374   0.009   5.923   5.537
 4806TIP3    H114375   0.082   5.860   5.535
 4806TIP3    H214376   0.045   6.002   5.497
 4807TIP3   OH214377   5.460   2.175   4.320
 4807TIP3    H114378   5.534   2.115   4.311
 4807TIP3    H214379   5.387   2.131   4.276
 4808TIP3   OH214380   3.098   6.533   4.535
 4808TIP3    H114381   3.043   6.500   4.606
 4808TIP3    H214382   3.184   6.496   4.551
 4809TIP3   OH214383   3.602   1.637   6.633
 4809TIP3    H114384   3.539   1.674   6.695
 4809TIP3    H214385   3.686   1.643   6.677
 4810TIP3   OH214386   6.869  -0.008   0.147
 4810TIP3    H114387   6.908   0.055   0.087
 4810TIP3    H214388   6.775   0.011   0.145
 4811TIP3   OH214389   1.275   6.110   5.656
 4811TIP3    H114390   1.239   6.130   5.742
 4811TIP3    H214391   1.345   6.047   5.672
 4812TIP3   OH214392   5.263   3.720   3.638
 4812TIP3    H114393   5.182   3.679   3.668
 4812TIP3    H214394   5.281   3.679   3.553
 4813TIP3   OH214395   6.261   6.968   0.557
 4813TIP3    H114396   6.333   7.016   0.599
 4813TIP3    H214397   6.228   6.910   0.625
 4814TIP3   OH214398   7.374   6.262   3.924
 4814TIP3    H114399   7.417   6.336   3.966
 4814TIP3    H214400   7.352   6.203   3.995
 4815TIP3   OH214401   6.339   2.702   5.829
 4815TIP3    H114402   6.273   2.707   5.760
 4815TIP3    H214403   6.405   2.766   5.803
 4816TIP3   OH214404   2.672   0.854   0.478
 4816TIP3    H114405   2.662   0.795   0.553
 4816TIP3    H214406   2.763   0.843   0.450
 4817TIP3   OH214407   1.374   1.024   0.607
 4817TIP3    H114408   1.339   0.980   0.684
 4817TIP3    H214409   1.460   0.985   0.594
 4818TIP3   OH214410   0.081   1.868   1.650
 4818TIP3    H114411   0.044   1.780   1.654
 4818TIP3    H214412   0.063   1.906   1.735
 4819TIP3   OH214413   4.396   1.097   0.351
 4819TIP3    H114414   4.420   1.183   0.386
 4819TIP3    H214415   4.304   1.086   0.378
 4820TIP3   OH214416   5.860   7.664   1.389
 4820TIP3    H114417   5.794   7.596   1.376
 4820TIP3    H214418   5.942   7.616   1.397
 4821TIP3   OH214419   6.469   6.361   4.447
 4821TIP3    H114420   6.550   6.323   4.413
 4821TIP3    H214421   6.410   6.286   4.457
 4822TIP3   OH214422   4.950   2.416   0.679
 4822TIP3    H114423   5.033   2.433   0.722
 4822TIP3    H214424   4.973   2.368   0.600
 4823TIP3   OH214425   5.087   0.586   5.284
 4823TIP3    H114426   5.124   0.667   5.248
 4823TIP3    H214427   5.138   0.516   5.244
 4824TIP3   OH214428   2.587   6.664   0.368
 4824TIP3    H114429   2.581   6.757   0.347
 4824TIP3    H214430   2.678   6.641   0.353
 4825TIP3   OH214431   2.879   4.641   2.150
 4825TIP3    H114432   2.790   4.607   2.146
 4825TIP3    H214433   2.920   4.593   2.223
 4826TIP3   OH214434   6.103   6.528   3.009
 4826TIP3    H114435   6.142   6.497   3.090
 4826TIP3    H214436   6.058   6.609   3.033
 4827TIP3   OH214437   2.694   6.923   1.522
 4827TIP3    H114438   2.652   6.838   1.509
 4827TIP3    H214439   2.770   6.904   1.577
 4828TIP3   OH214440   8.075   1.078   3.917
 4828TIP3    H114441   8.166   1.049   3.920
 4828TIP3    H214442   8.071   1.137   3.841
 4829TIP3   OH214443   6.865   3.820   4.138
 4829TIP3    H114444   6.876   3.835   4.044
 4829TIP3    H214445   6.900   3.900   4.179
 4830TIP3   OH214446   7.479   7.299   3.239
 4830TIP3    H114447   7.558   7.336   3.198
 4830TIP3    H214448   7.415   7.369   3.234
 4831TIP3   OH214449   5.145   0.575   5.545
 4831TIP3    H114450   5.113   0.602   5.458
 4831TIP3    H214451   5.196   0.496   5.527
 4832TIP3   OH214452   3.377   3.567   5.640
 4832TIP3    H114453   3.436   3.596   5.710
 4832TIP3    H214454   3.425   3.584   5.559
 4833TIP3   OH214455   2.574   1.229   0.893
 4833TIP3    H114456   2.490   1.184   0.882
 4833TIP3    H214457   2.634   1.161   0.923
 4834TIP3   OH214458   6.169   6.959   2.678
 4834TIP3    H114459   6.161   7.043   2.722
 4834TIP3    H214460   6.085   6.946   2.635
 4835TIP3   OH214461   6.257   0.441   4.721
 4835TIP3    H114462   6.253   0.407   4.632
 4835TIP3    H214463   6.349   0.464   4.734
 4836TIP3   OH214464   6.008   0.099   0.335
 4836TIP3    H114465   5.920   0.074   0.364
 4836TIP3    H214466   6.029   0.177   0.386
 4837TIP3   OH214467   6.417   4.971   6.639
 4837TIP3    H114468   6.352   4.974   6.709
 4837TIP3    H214469   6.366   4.957   6.559
 4838TIP3   OH214470   7.330   2.708   4.082
 4838TIP3    H114471   7.339   2.717   4.177
 4838TIP3    H214472   7.362   2.792   4.047
 4839TIP3   OH214473   5.206   7.220   3.544
 4839TIP3    H114474   5.112   7.234   3.530
 4839TIP3    H214475   5.212   7.134   3.587
 4840TIP3   OH214476   4.859   0.341   3.173
 4840TIP3    H114477   4.839   0.422   3.221
 4840TIP3    H214478   4.898   0.371   3.092
 4841TIP3   OH214479   3.210   5.946   4.288
 4841TIP3    H114480   3.245   6.025   4.329
 4841TIP3    H214481   3.286   5.902   4.251
 4842TIP3   OH214482   1.168   3.415   2.615
 4842TIP3    H114483   1.075   3.408   2.594
 4842TIP3    H214484   1.188   3.508   2.605
 4843TIP3   OH214485   6.102   7.301   5.264
 4843TIP3    H114486   6.129   7.210   5.280
 4843TIP3    H214487   6.183   7.352   5.272
 4844TIP3   OH214488   4.104   0.293   4.782
 4844TIP3    H114489   4.090   0.198   4.785
 4844TIP3    H214490   4.165   0.311   4.853
 4845TIP3   OH214491   3.773   4.192   0.077
 4845TIP3    H114492   3.790   4.110   0.124
 4845TIP3    H214493   3.844   4.198   0.013
 4846TIP3   OH214494   7.452   3.330   4.643
 4846TIP3    H114495   7.421   3.397   4.704
 4846TIP3    H214496   7.439   3.369   4.556
 4847TIP3   OH214497   7.539   0.602   3.624
 4847TIP3    H114498   7.524   0.655   3.545
 4847TIP3    H214499   7.621   0.635   3.660
 4848TIP3   OH214500   4.501   3.014   0.243
 4848TIP3    H114501   4.581   3.018   0.296
 4848TIP3    H214502   4.481   3.106   0.223
 4849TIP3   OH214503   6.959   4.269   3.457
 4849TIP3    H114504   7.014   4.347   3.451
 4849TIP3    H214505   6.943   4.244   3.366
 4850TIP3   OH214506   7.522   5.470   6.247
 4850TIP3    H114507   7.504   5.507   6.333
 4850TIP3    H214508   7.442   5.486   6.197
 4851TIP3   OH214509   1.495   1.319   5.126
 4851TIP3    H114510   1.505   1.363   5.042
 4851TIP3    H214511   1.401   1.320   5.143
 4852TIP3   OH214512   2.022   1.045   4.279
 4852TIP3    H114513   1.948   1.102   4.259
 4852TIP3    H214514   1.990   0.988   4.349
 4853TIP3   OH214515   0.584   2.960   0.638
 4853TIP3    H114516   0.573   2.921   0.551
 4853TIP3    H214517   0.565   2.889   0.699
 4854TIP3   OH214518   4.684   6.828   2.606
 4854TIP3    H114519   4.641   6.764   2.663
 4854TIP3    H214520   4.624   6.902   2.603
 4855TIP3   OH214521   3.150   6.592   3.149
 4855TIP3    H114522   3.239   6.620   3.126
 4855TIP3    H214523   3.144   6.503   3.115
 4856TIP3   OH214524   3.454   0.836   2.745
 4856TIP3    H114525   3.382   0.849   2.807
 4856TIP3    H214526   3.423   0.768   2.686
 4857TIP3   OH214527   6.039   2.949   5.347
 4857TIP3    H114528   6.061   2.929   5.438
 4857TIP3    H214529   6.012   2.865   5.309
 4858TIP3   OH214530   7.088   4.389   6.670
 4858TIP3    H114531   7.124   4.302   6.684
 4858TIP3    H214532   7.049   4.386   6.583
 4859TIP3   OH214533   3.539   3.098   1.410
 4859TIP3    H114534   3.601   3.030   1.437
 4859TIP3    H214535   3.496   3.062   1.332
 4860TIP3   OH214536   5.380   3.630   3.029
 4860TIP3    H114537   5.377   3.714   2.983
 4860TIP3    H214538   5.288   3.610   3.049
 4861TIP3   OH214539   4.661   0.039   0.382
 4861TIP3    H114540   4.619   0.108   0.331
 4861TIP3    H214541   4.706  -0.014   0.317
 4862TIP3   OH214542   5.463   5.811   0.181
 4862TIP3    H114543   5.397   5.750   0.213
 4862TIP3    H214544   5.511   5.838   0.260
 4863TIP3   OH214545   6.176   1.408   4.059
 4863TIP3    H114546   6.090   1.401   4.020
 4863TIP3    H214547   6.234   1.363   3.998
 4864TIP3   OH214548   5.013   4.524   3.042
 4864TIP3    H114549   5.087   4.574   3.007
 4864TIP3    H214550   4.976   4.581   3.109
 4865TIP3   OH214551   1.015   2.532   3.939
 4865TIP3    H114552   0.955   2.536   3.865
 4865TIP3    H214553   0.968   2.483   4.007
 4866TIP3   OH214554   2.923   1.202   6.030
 4866TIP3    H114555   2.923   1.266   5.958
 4866TIP3    H214556   2.844   1.222   6.080
 4867TIP3   OH214557   4.816   4.568   0.318
 4867TIP3    H114558   4.760   4.625   0.264
 4867TIP3    H214559   4.758   4.537   0.388
 4868TIP3   OH214560   4.366   4.798   4.102
 4868TIP3    H114561   4.398   4.802   4.012
 4868TIP3    H214562   4.442   4.820   4.156
 4869TIP3   OH214563   2.005   1.899   4.902
 4869TIP3    H114564   2.024   1.829   4.965
 4869TIP3    H214565   2.060   1.879   4.827
 4870TIP3   OH214566   5.476   0.093   3.485
 4870TIP3    H114567   5.503   0.024   3.546
 4870TIP3    H214568   5.519   0.172   3.519
 4871TIP3   OH214569   4.638   3.816   1.357
 4871TIP3    H114570   4.667   3.732   1.392
 4871TIP3    H214571   4.543   3.813   1.363
 4872TIP3   OH214572   0.613   0.241   1.582
 4872TIP3    H114573   0.626   0.184   1.507
 4872TIP3    H214574   0.564   0.187   1.645
 4873TIP3   OH214575   1.677   7.610   2.059
 4873TIP3    H114576   1.750   7.567   2.102
 4873TIP3    H214577   1.691   7.704   2.075
 4874TIP3   OH214578   6.801   1.500   6.586
 4874TIP3    H114579   6.793   1.595   6.578
 4874TIP3    H214580   6.776   1.482   6.677
 4875TIP3   OH214581   2.219   5.328   3.389
 4875TIP3    H114582   2.269   5.396   3.343
 4875TIP3    H214583   2.136   5.370   3.410
 4876TIP3   OH214584   6.888   5.504   2.260
 4876TIP3    H114585   6.856   5.413   2.255
 4876TIP3    H214586   6.809   5.557   2.260
 4877TIP3   OH214587   6.683   3.601   2.404
 4877TIP3    H114588   6.648   3.667   2.345
 4877TIP3    H214589   6.622   3.527   2.395
 4878TIP3   OH214590   7.080   1.696   0.574
 4878TIP3    H114591   7.029   1.628   0.529
 4878TIP3    H214592   7.146   1.722   0.510
 4879TIP3   OH214593   6.871   5.149   1.114
 4879TIP3    H114594   6.819   5.096   1.054
 4879TIP3    H214595   6.951   5.098   1.127
 4880TIP3   OH214596   3.498   3.329   0.817
 4880TIP3    H114597   3.431   3.335   0.884
 4880TIP3    H214598   3.451   3.332   0.734
 4881TIP3   OH214599   4.133   0.703   5.491
 4881TIP3    H114600   4.094   0.743   5.569
 4881TIP3    H214601   4.183   0.629   5.525
 4882TIP3   OH214602   5.248   7.378   1.025
 4882TIP3    H114603   5.290   7.415   0.948
 4882TIP3    H214604   5.155   7.373   1.002
 4883TIP3   OH214605   5.370   3.583   1.124
 4883TIP3    H114606   5.403   3.539   1.045
 4883TIP3    H214607   5.333   3.665   1.091
 4884TIP3   OH214608   7.389   4.997   4.884
 4884TIP3    H114609   7.429   4.953   4.809
 4884TIP3    H214610   7.329   4.932   4.921
 4885TIP3   OH214611   6.907   0.522   6.561
 4885TIP3    H114612   6.912   0.611   6.527
 4885TIP3    H214613   6.815   0.510   6.584
 4886TIP3   OH214614   4.563   5.341   2.452
 4886TIP3    H114615   4.627   5.303   2.512
 4886TIP3    H214616   4.553   5.432   2.481
 4887TIP3   OH214617   5.041   0.285   0.742
 4887TIP3    H114618   5.026   0.191   0.751
 4887TIP3    H214619   5.032   0.320   0.831
 4888TIP3   OH214620   7.385   0.725   3.849
 4888TIP3    H114621   7.372   0.647   3.795
 4888TIP3    H214622   7.461   0.704   3.903
 4889TIP3   OH214623   5.666   1.395   3.939
 4889TIP3    H114624   5.686   1.431   3.853
 4889TIP3    H214625   5.607   1.459   3.979
 4890TIP3   OH214626   5.147   0.263   2.790
 4890TIP3    H114627   5.232   0.221   2.784
 4890TIP3    H214628   5.109   0.253   2.703
 4891TIP3   OH214629   6.897   3.164   5.964
 4891TIP3    H114630   6.919   3.206   5.881
 4891TIP3    H214631   6.951   3.210   6.029
 4892TIP3   OH214632   5.866   0.160   3.677
 4892TIP3    H114633   5.918   0.145   3.598
 4892TIP3    H214634   5.886   0.084   3.733
 4893TIP3   OH214635   7.615   6.376   2.298
 4893TIP3    H114636   7.670   6.389   2.221
 4893TIP3    H214637   7.657   6.305   2.346
 4894TIP3   OH214638   3.223   4.054   0.971
 4894TIP3    H114639   3.140   4.082   0.930
 4894TIP3    H214640   3.259   3.990   0.910
 4895TIP3   OH214641   4.705   7.113   4.899
 4895TIP3    H114642   4.618   7.113   4.939
 4895TIP3    H214643   4.753   7.183   4.944
 4896TIP3   OH214644   1.060   6.574   2.216
 4896TIP3    H114645   1.068   6.546   2.125
 4896TIP3    H214646   1.020   6.660   2.212
 4897TIP3   OH214647   7.763   5.372   0.887
 4897TIP3    H114648   7.685   5.419   0.859
 4897TIP3    H214649   7.819   5.368   0.809
 4898TIP3   OH214650   4.414   0.621   1.507
 4898TIP3    H114651   4.400   0.651   1.597
 4898TIP3    H214652   4.505   0.644   1.488
 4899TIP3   OH214653   5.852   0.745   4.390
 4899TIP3    H114654   5.820   0.826   4.349
 4899TIP3    H214655   5.919   0.713   4.330
 4900TIP3   OH214656   7.688   5.296   1.508
 4900TIP3    H114657   7.702   5.339   1.593
 4900TIP3    H214658   7.594   5.301   1.494
 4901TIP3   OH214659   3.364   3.075   2.154
 4901TIP3    H114660   3.274   3.062   2.182
 4901TIP3    H214661   3.375   3.170   2.150
 4902TIP3   OH214662   0.713   6.796   1.089
 4902TIP3    H114663   0.757   6.790   1.174
 4902TIP3    H214664   0.678   6.885   1.086
 4903TIP3   OH214665   6.189   5.460   1.641
 4903TIP3    H114666   6.282   5.481   1.636
 4903TIP3    H214667   6.172   5.445   1.734
 4904TIP3   OH214668   3.273   5.922   3.952
 4904TIP3    H114669   3.197   5.976   3.930
 4904TIP3    H214670   3.319   5.972   4.020
 4905TIP3   OH214671   7.381   4.633   2.999
 4905TIP3    H114672   7.287   4.624   3.012
 4905TIP3    H214673   7.421   4.589   3.074
 4906TIP3   OH214674   6.506   7.496   6.746
 4906TIP3    H114675   6.432   7.518   6.689
 4906TIP3    H214676   6.518   7.402   6.734
 4907TIP3   OH214677   4.749   2.720   3.251
 4907TIP3    H114678   4.766   2.804   3.292
 4907TIP3    H214679   4.676   2.737   3.190
 4908TIP3   OH214680   5.033   7.780   2.959
 4908TIP3    H114681   5.100   7.842   2.985
 4908TIP3    H214682   4.990   7.754   3.041
 4909TIP3   OH214683   5.981   5.382   0.431
 4909TIP3    H114684   5.957   5.445   0.363
 4909TIP3    H214685   6.074   5.363   0.414
 4910TIP3   OH214686   2.363   4.104   2.651
 4910TIP3    H114687   2.370   4.195   2.623
 4910TIP3    H214688   2.387   4.106   2.744
 4911TIP3   OH214689   2.896   3.523   3.895
 4911TIP3    H114690   2.812   3.477   3.888
 4911TIP3    H214691   2.875   3.613   3.871
 4912TIP3   OH214692   7.683   1.516   2.408
 4912TIP3    H114693   7.735   1.447   2.366
 4912TIP3    H214694   7.597   1.510   2.366
 4913TIP3   OH214695   2.712   6.579   5.535
 4913TIP3    H114696   2.764   6.499   5.531
 4913TIP3    H214697   2.667   6.583   5.451
 4914TIP3   OH214698   7.806   2.862   1.381
 4914TIP3    H114699   7.816   2.954   1.359
 4914TIP3    H214700   7.798   2.817   1.297
 4915TIP3   OH214701   5.227   7.771   2.759
 4915TIP3    H114702   5.271   7.810   2.834
 4915TIP3    H214703   5.139   7.751   2.790
 4916TIP3   OH214704   3.332   4.951   2.835
 4916TIP3    H114705   3.388   4.895   2.889
 4916TIP3    H214706   3.377   4.955   2.751
 4917TIP3   OH214707   5.902   6.560   4.962
 4917TIP3    H114708   5.837   6.561   5.032
 4917TIP3    H214709   5.865   6.617   4.894
 4918TIP3   OH214710   6.321   7.479   1.511
 4918TIP3    H114711   6.413   7.488   1.487
 4918TIP3    H214712   6.274   7.494   1.429
 4919TIP3   OH214713   4.126   7.064   5.338
 4919TIP3    H114714   4.068   7.001   5.381
 4919TIP3    H214715   4.096   7.149   5.371
 4920TIP3   OH214716   3.531   1.062   0.520
 4920TIP3    H114717   3.530   1.015   0.436
 4920TIP3    H214718   3.447   1.042   0.560
 4921TIP3   OH214719   4.309   1.694   6.041
 4921TIP3    H114720   4.381   1.689   6.105
 4921TIP3    H214721   4.238   1.644   6.081
 4922TIP3   OH214722   5.873   4.177   5.319
 4922TIP3    H114723   5.925   4.098   5.306
 4922TIP3    H214724   5.794   4.146   5.363
 4923TIP3   OH214725   3.885   0.235   6.130
 4923TIP3    H114726   3.891   0.270   6.219
 4923TIP3    H214727   3.955   0.170   6.125
 4924TIP3   OH214728   0.262   6.035   4.567
 4924TIP3    H114729   0.200   5.962   4.572
 4924TIP3    H214730   0.221   6.105   4.617
 4925TIP3   OH214731   4.474   4.522   3.007
 4925TIP3    H114732   4.561   4.505   3.044
 4925TIP3    H214733   4.451   4.441   2.961
 4926TIP3   OH214734   2.228   3.536   6.410
 4926TIP3    H114735   2.298   3.584   6.454
 4926TIP3    H214736   2.263   3.448   6.398
 4927TIP3   OH214737   6.093   7.810   5.156
 4927TIP3    H114738   6.074   7.810   5.250
 4927TIP3    H214739   6.188   7.814   5.151
 4928TIP3   OH214740   7.750   5.229   4.076
 4928TIP3    H114741   7.814   5.276   4.129
 4928TIP3    H214742   7.668   5.277   4.089
 4929TIP3   OH214743   5.738   6.200   5.836
 4929TIP3    H114744   5.750   6.162   5.923
 4929TIP3    H214745   5.644   6.212   5.828
 4930TIP3   OH214746   5.203   5.349   5.505
 4930TIP3    H114747   5.276   5.336   5.445
 4930TIP3    H214748   5.241   5.334   5.592
 4931TIP3   OH214749   1.236   2.029   5.803
 4931TIP3    H114750   1.184   2.017   5.882
 4931TIP3    H214751   1.265   1.941   5.779
 4932TIP3   OH214752   2.276   6.090   3.247
 4932TIP3    H114753   2.306   6.001   3.228
 4932TIP3    H214754   2.265   6.130   3.161
 4933TIP3   OH214755   5.210   5.910   2.589
 4933TIP3    H114756   5.124   5.908   2.632
 4933TIP3    H214757   5.266   5.957   2.650
 4934TIP3   OH214758   1.129   4.631   6.361
 4934TIP3    H114759   1.072   4.675   6.423
 4934TIP3    H214760   1.156   4.699   6.300
 4935TIP3   OH214761   4.815   7.368   0.862
 4935TIP3    H114762   4.759   7.290   0.859
 4935TIP3    H214763   4.867   7.358   0.941
 4936TIP3   OH214764   4.409   4.844   2.238
 4936TIP3    H114765   4.476   4.895   2.285
 4936TIP3    H214766   4.389   4.772   2.298
 4937TIP3   OH214767   4.101   0.625   4.848
 4937TIP3    H114768   4.172   0.576   4.889
 4937TIP3    H214769   4.145   0.694   4.798
 4938TIP3   OH214770   3.682   6.661   0.805
 4938TIP3    H114771   3.657   6.617   0.725
 4938TIP3    H214772   3.698   6.590   0.868
 4939TIP3   OH214773   1.173   3.272   0.425
 4939TIP3    H114774   1.168   3.177   0.436
 4939TIP3    H214775   1.100   3.306   0.477
 4940TIP3   OH214776   1.877   7.184   2.573
 4940TIP3    H114777   1.902   7.275   2.587
 4940TIP3    H214778   1.960   7.136   2.572
 4941TIP3   OH214779   3.548   3.504   0.157
 4941TIP3    H114780   3.610   3.559   0.109
 4941TIP3    H214781   3.572   3.414   0.134
 4942TIP3   OH214782   2.699   3.245   4.746
 4942TIP3    H114783   2.651   3.193   4.811
 4942TIP3    H214784   2.650   3.234   4.665
 4943TIP3   OH214785   4.477   2.611   4.334
 4943TIP3    H114786   4.515   2.532   4.371
 4943TIP3    H214787   4.496   2.680   4.398
 4944TIP3   OH214788   2.185   2.054   6.777
 4944TIP3    H114789   2.116   2.040   6.712
 4944TIP3    H214790   2.267   2.048   6.728
 4945TIP3   OH214791   1.601   7.020   5.132
 4945TIP3    H114792   1.539   6.977   5.191
 4945TIP3    H214793   1.644   7.086   5.186
 4946TIP3   OH214794   8.047   7.153   4.044
 4946TIP3    H114795   8.100   7.083   4.081
 4946TIP3    H214796   8.020   7.121   3.958
 4947TIP3   OH214797   5.536   2.985   1.556
 4947TIP3    H114798   5.558   2.965   1.465
 4947TIP3    H214799   5.452   3.030   1.552
 4948TIP3   OH214800   3.020   7.163   1.655
 4948TIP3    H114801   3.044   7.200   1.740
 4948TIP3    H214802   2.953   7.098   1.676
 4949TIP3   OH214803   0.774   1.462   5.215
 4949TIP3    H114804   0.696   1.514   5.198
 4949TIP3    H214805   0.800   1.487   5.304
 4950TIP3   OH214806   6.265   4.531   3.487
 4950TIP3    H114807   6.221   4.559   3.568
 4950TIP3    H214808   6.316   4.454   3.512
 4951TIP3   OH214809   5.906   1.545   4.823
 4951TIP3    H114810   5.984   1.582   4.865
 4951TIP3    H214811   5.876   1.477   4.883
 4952TIP3   OH214812   2.356   7.554   0.956
 4952TIP3    H114813   2.428   7.618   0.949
 4952TIP3    H214814   2.321   7.568   1.044
 4953TIP3   OH214815   5.356   2.316   3.613
 4953TIP3    H114816   5.290   2.324   3.682
 4953TIP3    H214817   5.439   2.315   3.660
 4954TIP3   OH214818   6.069   3.416   3.799
 4954TIP3    H114819   6.138   3.465   3.755
 4954TIP3    H214820   6.104   3.328   3.808
 4955TIP3   OH214821   2.715   0.542   3.991
 4955TIP3    H114822   2.634   0.521   4.036
 4955TIP3    H214823   2.688   0.588   3.912
 4956TIP3   OH214824   5.754   6.878   0.724
 4956TIP3    H114825   5.827   6.863   0.784
 4956TIP3    H214826   5.783   6.841   0.641
 4957TIP3   OH214827   3.385   6.666   2.978
 4957TIP3    H114828   3.434   6.746   2.962
 4957TIP3    H214829   3.419   6.633   3.061
 4958TIP3   OH214830   8.261   6.456   0.390
 4958TIP3    H114831   8.258   6.366   0.422
 4958TIP3    H214832   8.187   6.499   0.432
 4959TIP3   OH214833   6.550   2.885   5.775
 4959TIP3    H114834   6.642   2.883   5.748
 4959TIP3    H214835   6.521   2.974   5.757
 4960TIP3   OH214836   0.159   3.504   0.025
 4960TIP3    H114837   0.116   3.525   0.108
 4960TIP3    H214838   0.245   3.470   0.051
 4961TIP3   OH214839   5.299   6.736   6.191
 4961TIP3    H114840   5.243   6.681   6.137
 4961TIP3    H214841   5.334   6.802   6.131
 4962TIP3   OH214842   4.710   3.857   6.576
 4962TIP3    H114843   4.675   3.928   6.630
 4962TIP3    H214844   4.800   3.884   6.556
 4963TIP3   OH214845   7.887   6.885   0.092
 4963TIP3    H114846   7.928   6.957   0.141
 4963TIP3    H214847   7.899   6.808   0.147
 4964TIP3   OH214848   4.096   5.118   0.019
 4964TIP3    H114849   4.037   5.191   0.037
 4964TIP3    H214850   4.111   5.078   0.105
 4965TIP3   OH214851   2.522   6.341   0.114
 4965TIP3    H114852   2.498   6.434   0.119
 4965TIP3    H214853   2.614   6.338   0.140
 4966TIP3   OH214854   5.312   1.987   1.846
 4966TIP3    H114855   5.293   1.917   1.783
 4966TIP3    H214856   5.278   1.955   1.929
 4967TIP3   OH214857   4.955   7.682   2.246
 4967TIP3    H114858   5.043   7.715   2.227
 4967TIP3    H214859   4.967   7.619   2.316
 4968TIP3   OH214860   4.095   0.391   0.593
 4968TIP3    H114861   4.075   0.477   0.629
 4968TIP3    H214862   4.106   0.407   0.499
 4969TIP3   OH214863   4.404   7.005   3.715
 4969TIP3    H114864   4.473   7.036   3.773
 4969TIP3    H214865   4.327   7.057   3.738
 4970TIP3   OH214866   4.096   1.645   3.338
 4970TIP3    H114867   4.144   1.578   3.291
 4970TIP3    H214868   4.162   1.691   3.389
 4971TIP3   OH214869   6.040   4.907   5.265
 4971TIP3    H114870   6.036   4.814   5.289
 4971TIP3    H214871   6.049   4.953   5.348
 4972TIP3   OH214872   0.933   4.260   2.796
 4972TIP3    H114873   0.885   4.312   2.860
 4972TIP3    H214874   0.992   4.206   2.848
 4973TIP3   OH214875   4.596   1.765   1.488
 4973TIP3    H114876   4.654   1.817   1.545
 4973TIP3    H214877   4.634   1.775   1.401
 4974TIP3   OH214878   4.152   5.022   0.936
 4974TIP3    H114879   4.061   5.033   0.964
 4974TIP3    H214880   4.176   5.107   0.898
 4975TIP3   OH214881   5.151   3.221   3.203
 4975TIP3    H114882   5.055   3.223   3.199
 4975TIP3    H214883   5.179   3.233   3.112
 4976TIP3   OH214884   1.329   0.728   3.316
 4976TIP3    H114885   1.332   0.811   3.268
 4976TIP3    H214886   1.263   0.676   3.269
 4977TIP3   OH214887   2.051   4.357   5.104
 4977TIP3    H114888   2.142   4.354   5.134
 4977TIP3    H214889   2.004   4.298   5.163
 4978TIP3   OH214890   6.823   6.406   5.880
 4978TIP3    H114891   6.781   6.322   5.895
 4978TIP3    H214892   6.755   6.460   5.839
 4979TIP3   OH214893   7.539   4.696   4.821
 4979TIP3    H114894   7.582   4.740   4.748
 4979TIP3    H214895   7.487   4.627   4.779
 4980TIP3   OH214896   8.176   7.553   5.948
 4980TIP3    H114897   8.258   7.572   5.992
 4980TIP3    H214898   8.186   7.593   5.861
 4981TIP3   OH214899   5.685   0.582   6.150
 4981TIP3    H114900   5.723   0.495   6.161
 4981TIP3    H214901   5.620   0.571   6.080
 4982TIP3   OH214902   1.906   2.426   6.386
 4982TIP3    H114903   1.830   2.436   6.328
 4982TIP3    H214904   1.965   2.497   6.361
 4983TIP3   OH214905   6.255   5.265   1.456
 4983TIP3    H114906   6.164   5.253   1.427
 4983TIP3    H214907   6.249   5.323   1.532
 4984TIP3   OH214908   0.473   3.826   2.820
 4984TIP3    H114909   0.459   3.757   2.755
 4984TIP3    H214910   0.437   3.790   2.901
 4985TIP3   OH214911   4.081   7.368   4.774
 4985TIP3    H114912   4.072   7.449   4.724
 4985TIP3    H214913   4.014   7.310   4.739
 4986TIP3   OH214914   1.453   2.364   3.309
 4986TIP3    H114915   1.467   2.280   3.266
 4986TIP3    H214916   1.374   2.399   3.268
 4987TIP3   OH214917   3.095   7.560   0.720
 4987TIP3    H114918   3.069   7.567   0.812
 4987TIP3    H214919   3.157   7.631   0.707
 4988TIP3   OH214920   0.292   3.753   2.066
 4988TIP3    H114921   0.242   3.692   2.121
 4988TIP3    H214922   0.225   3.810   2.027
 4989TIP3   OH214923   5.677   0.223   6.630
 4989TIP3    H114924   5.698   0.298   6.573
 4989TIP3    H214925   5.602   0.182   6.588
 4990TIP3   OH214926   8.139   6.163   2.728
 4990TIP3    H114927   8.120   6.103   2.656
 4990TIP3    H214928   8.064   6.154   2.787
 4991TIP3   OH214929   6.758   4.096   6.198
 4991TIP3    H114930   6.744   4.190   6.186
 4991TIP3    H214931   6.717   4.077   6.283
 4992TIP3   OH214932   3.522   2.683   1.845
 4992TIP3    H114933   3.521   2.778   1.833
 4992TIP3    H214934   3.588   2.668   1.913
 4993TIP3   OH214935   1.077   1.146   0.628
 4993TIP3    H114936   1.019   1.096   0.686
 4993TIP3    H214937   1.165   1.119   0.653
 4994TIP3   OH214938   3.869   6.535   5.573
 4994TIP3    H114939   3.955   6.575   5.558
 4994TIP3    H214940   3.883   6.442   5.555
 4995TIP3   OH214941   5.719   2.557   1.690
 4995TIP3    H114942   5.714   2.647   1.659
 4995TIP3    H214943   5.779   2.514   1.630
 4996TIP3   OH214944   3.807   0.780   3.330
 4996TIP3    H114945   3.872   0.839   3.368
 4996TIP3    H214946   3.794   0.712   3.396
 4997TIP3   OH214947   2.730   6.193   2.734
 4997TIP3    H114948   2.644   6.191   2.691
 4997TIP3    H214949   2.733   6.112   2.785
 4998TIP3   OH214950   0.910   2.967   4.524
 4998TIP3    H114951   0.850   2.952   4.597
 4998TIP3    H214952   0.984   2.908   4.541
 4999TIP3   OH214953   6.540   6.163   0.811
 4999TIP3    H114954   6.626   6.134   0.781
 4999TIP3    H214955   6.532   6.253   0.778
 5000TIP3   OH214956   5.622   4.882   5.248
 5000TIP3    H114957   5.567   4.952   5.283
 5000TIP3    H214958   5.703   4.888   5.298
 5001TIP3   OH214959   6.148   0.320   3.551
 5001TIP3    H114960   6.093   0.383   3.598
 5001TIP3    H214961   6.238   0.345   3.574
 5002TIP3   OH214962   3.907   5.032   2.482
 5002TIP3    H114963   3.946   5.053   2.397
 5002TIP3    H214964   3.949   4.951   2.508
 5003TIP3   OH214965   2.229   2.653   2.562
 5003TIP3    H114966   2.179   2.732   2.586
 5003TIP3    H214967   2.316   2.686   2.542
 5004TIP3   OH214968   5.247   4.182   0.566
 5004TIP3    H114969   5.265   4.262   0.516
 5004TIP3    H214970   5.270   4.111   0.506
 5005TIP3   OH214971   2.737   3.062   5.133
 5005TIP3    H114972   2.648   3.040   5.106
 5005TIP3    H214973   2.782   3.084   5.051
 5006TIP3   OH214974   4.068   4.341   4.436
 5006TIP3    H114975   4.157   4.311   4.422
 5006TIP3    H214976   4.062   4.422   4.385
 5007TIP3   OH214977   7.071   1.742   6.144
 5007TIP3    H114978   7.037   1.768   6.230
 5007TIP3    H214979   7.096   1.825   6.103
 5008TIP3   OH214980   4.694   0.928   1.030
 5008TIP3    H114981   4.776   0.961   0.993
 5008TIP3    H214982   4.643   0.901   0.953
 5009TIP3   OH214983   4.665   2.492   0.512
 5009TIP3    H114984   4.712   2.510   0.430
 5009TIP3    H214985   4.596   2.431   0.487
 5010TIP3   OH214986   8.117   0.584   3.941
 5010TIP3    H114987   8.064   0.558   4.016
 5010TIP3    H214988   8.180   0.647   3.977
 5011TIP3   OH214989   5.180   4.555   6.167
 5011TIP3    H114990   5.252   4.503   6.131
 5011TIP3    H214991   5.122   4.490   6.208
 5012TIP3   OH214992   0.376   3.970   0.977
 5012TIP3    H114993   0.316   4.033   0.939
 5012TIP3    H214994   0.392   3.906   0.907
 5013TIP3   OH214995   1.492   2.437   4.194
 5013TIP3    H114996   1.470   2.345   4.206
 5013TIP3    H214997   1.414   2.476   4.154
 5014TIP3   OH214998   1.218   1.950   3.469
 5014TIP3    H114999   1.298   1.999   3.451
 5014TIP3    H215000   1.209   1.952   3.564
 5015TIP3   OH215001   5.239   7.152   0.773
 5015TIP3    H115002   5.229   7.096   0.849
 5015TIP3    H215003   5.150   7.160   0.738
 5016TIP3   OH215004   2.416   1.989   1.307
 5016TIP3    H115005   2.463   2.070   1.325
 5016TIP3    H215006   2.463   1.923   1.358
 5017TIP3   OH215007   0.781   5.361   1.620
 5017TIP3    H115008   0.868   5.336   1.650
 5017TIP3    H215009   0.792   5.379   1.527
 5018TIP3   OH215010   3.796   4.016   6.365
 5018TIP3    H115011   3.817   3.927   6.336
 5018TIP3    H215012   3.818   4.071   6.290
 5019TIP3   OH215013   1.181   1.451   5.154
 5019TIP3    H115014   1.247   1.519   5.138
 5019TIP3    H215015   1.107   1.498   5.193
 5020TIP3   OH215016   4.128   0.346   4.171
 5020TIP3    H115017   4.150   0.260   4.135
 5020TIP3    H215018   4.033   0.345   4.180
 5021TIP3   OH215019   6.503   4.498   4.483
 5021TIP3    H115020   6.428   4.450   4.518
 5021TIP3    H215021   6.468   4.583   4.460
 5022TIP3   OH215022   7.422   7.773   5.293
 5022TIP3    H115023   7.393   7.860   5.319
 5022TIP3    H215024   7.518   7.778   5.296
 5023TIP3   OH215025   3.259   3.661   6.176
 5023TIP3    H115026   3.313   3.582   6.168
 5023TIP3    H215027   3.293   3.705   6.254
 5024TIP3   OH215028   3.642   2.215   3.763
 5024TIP3    H115029   3.684   2.231   3.679
 5024TIP3    H215030   3.647   2.120   3.775
 5025TIP3   OH215031   1.901   3.772   3.139
 5025TIP3    H115032   1.827   3.711   3.137
 5025TIP3    H215033   1.960   3.741   3.071
 5026TIP3   OH215034   6.598   5.953   5.013
 5026TIP3    H115035   6.624   5.863   5.029
 5026TIP3    H215036   6.680   6.003   5.012
 5027TIP3   OH215037   1.211   6.344   3.884
 5027TIP3    H115038   1.169   6.405   3.946
 5027TIP3    H215039   1.221   6.263   3.933
 5028TIP3   OH215040   0.753   0.899   2.717
 5028TIP3    H115041   0.758   0.988   2.682
 5028TIP3    H215042   0.674   0.862   2.678
 5029TIP3   OH215043   3.318   0.627   6.655
 5029TIP3    H115044   3.410   0.652   6.659
 5029TIP3    H215045   3.319   0.531   6.661
 5030TIP3   OH215046   7.024   4.318   5.515
 5030TIP3    H115047   7.014   4.366   5.598
 5030TIP3    H215048   6.946   4.263   5.510
 5031TIP3   OH215049   1.895   1.440   1.995
 5031TIP3    H115050   1.891   1.347   1.976
 5031TIP3    H215051   1.958   1.447   2.067
 5032TIP3   OH215052   5.348   1.382   4.563
 5032TIP3    H115053   5.268   1.345   4.601
 5032TIP3    H215054   5.418   1.324   4.593
 5033TIP3   OH215055   1.220   1.335   5.540
 5033TIP3    H115056   1.288   1.360   5.477
 5033TIP3    H215057   1.156   1.286   5.488
 5034TIP3   OH215058   0.375   3.708   3.059
 5034TIP3    H115059   0.341   3.795   3.077
 5034TIP3    H215060   0.353   3.656   3.136
 5035TIP3   OH215061   6.241   7.207   1.309
 5035TIP3    H115062   6.179   7.280   1.309
 5035TIP3    H215063   6.273   7.204   1.219
 5036TIP3   OH215064   1.760   3.232   2.431
 5036TIP3    H115065   1.813   3.305   2.400
 5036TIP3    H215066   1.732   3.258   2.519
 5037TIP3   OH215067   7.017   7.732   4.782
 5037TIP3    H115068   6.975   7.742   4.696
 5037TIP3    H215069   6.946   7.705   4.840
 5038TIP3   OH215070   2.605   1.304   4.368
 5038TIP3    H115071   2.633   1.218   4.399
 5038TIP3    H215072   2.670   1.365   4.401
 5039TIP3   OH215073   3.180   6.335   6.332
 5039TIP3    H115074   3.194   6.322   6.238
 5039TIP3    H215075   3.113   6.271   6.356
 5040TIP3   OH215076   2.372   5.166   6.513
 5040TIP3    H115077   2.320   5.242   6.487
 5040TIP3    H215078   2.449   5.169   6.456
 5041TIP3   OH215079   0.738   0.752   3.130
 5041TIP3    H115080   0.721   0.716   3.217
 5041TIP3    H215081   0.806   0.818   3.144
 5042TIP3   OH215082   5.069   4.448   2.592
 5042TIP3    H115083   5.070   4.412   2.680
 5042TIP3    H215084   5.041   4.376   2.536
 5043TIP3   OH215085   7.391   0.601   5.520
 5043TIP3    H115086   7.423   0.511   5.527
 5043TIP3    H215087   7.344   0.616   5.602
 5044TIP3   OH215088   5.740   2.037   2.061
 5044TIP3    H115089   5.681   2.047   2.136
 5044TIP3    H215090   5.768   2.127   2.041
 5045TIP3   OH215091   6.594   5.214   3.909
 5045TIP3    H115092   6.686   5.221   3.882
 5045TIP3    H215093   6.584   5.281   3.977
 5046TIP3   OH215094   3.883   4.801   1.078
 5046TIP3    H115095   3.818   4.871   1.086
 5046TIP3    H215096   3.960   4.836   1.124
 5047TIP3   OH215097   0.175   2.515   0.796
 5047TIP3    H115098   0.242   2.451   0.819
 5047TIP3    H215099   0.158   2.562   0.877
 5048TIP3   OH215100   4.110   2.029   3.460
 5048TIP3    H115101   4.069   2.063   3.381
 5048TIP3    H215102   4.152   1.947   3.432
 5049TIP3   OH215103   0.289   6.080   6.659
 5049TIP3    H115104   0.209   6.080   6.711
 5049TIP3    H215105   0.356   6.046   6.718
 5050TIP3   OH215106   5.441   1.300   1.685
 5050TIP3    H115107   5.407   1.363   1.748
 5050TIP3    H215108   5.401   1.217   1.710
 5051TIP3   OH215109   3.680   6.574   5.011
 5051TIP3    H115110   3.707   6.526   4.933
 5051TIP3    H215111   3.727   6.532   5.083
 5052TIP3   OH215112   7.105   7.315   1.943
 5052TIP3    H115113   7.107   7.274   1.857
 5052TIP3    H215114   7.195   7.308   1.975
 5053TIP3   OH215115   4.778   7.804   4.512
 5053TIP3    H115116   4.842   7.792   4.441
 5053TIP3    H215117   4.703   7.751   4.485
 5054TIP3   OH215118   2.345   4.406   1.105
 5054TIP3    H115119   2.369   4.343   1.037
 5054TIP3    H215120   2.409   4.477   1.095
 5055TIP3   OH215121   7.074   4.683   5.290
 5055TIP3    H115122   7.033   4.624   5.353
 5055TIP3    H215123   7.098   4.627   5.216
 5056TIP3   OH215124   7.452   1.040   0.984
 5056TIP3    H115125   7.535   1.074   1.018
 5056TIP3    H215126   7.452   0.948   1.009
 5057TIP3   OH215127   1.285   5.678   2.706
 5057TIP3    H115128   1.268   5.639   2.792
 5057TIP3    H215129   1.344   5.751   2.725
 5058TIP3   OH215130   2.714   5.773   5.735
 5058TIP3    H115131   2.766   5.707   5.782
 5058TIP3    H215132   2.733   5.756   5.643
 5059TIP3   OH215133   0.064   3.948   3.329
 5059TIP3    H115134  -0.009   4.009   3.320
 5059TIP3    H215135   0.069   3.932   3.424
 5060TIP3   OH215136   1.175   1.895   1.704
 5060TIP3    H115137   1.106   1.834   1.727
 5060TIP3    H215138   1.237   1.843   1.653
 5061TIP3   OH215139   3.922   5.605   3.928
 5061TIP3    H115140   3.979   5.554   3.986
 5061TIP3    H215141   3.846   5.548   3.914
 5062TIP3   OH215142   7.260   0.100   3.440
 5062TIP3    H115143   7.223   0.162   3.503
 5062TIP3    H215144   7.207   0.111   3.361
 5063TIP3   OH215145   3.594   4.932   4.837
 5063TIP3    H115146   3.529   4.995   4.868
 5063TIP3    H215147   3.677   4.962   4.875
 5064TIP3   OH215148   4.216   2.502   2.989
 5064TIP3    H115149   4.141   2.520   3.046
 5064TIP3    H215150   4.212   2.570   2.922
 5065TIP3   OH215151   4.422   5.984   1.109
 5065TIP3    H115152   4.516   6.004   1.115
 5065TIP3    H215153   4.418   5.889   1.100
 5066TIP3   OH215154   2.805   3.308   6.258
 5066TIP3    H115155   2.723   3.308   6.308
 5066TIP3    H215156   2.792   3.241   6.191
 5067TIP3   OH215157   2.695   5.312   5.789
 5067TIP3    H115158   2.773   5.368   5.785
 5067TIP3    H215159   2.622   5.373   5.790
 5068TIP3   OH215160   0.106   4.516   3.908
 5068TIP3    H115161   0.148   4.577   3.969
 5068TIP3    H215162   0.176   4.493   3.846
 5069TIP3   OH215163   0.525   5.391   1.472
 5069TIP3    H115164   0.471   5.312   1.481
 5069TIP3    H215165   0.608   5.359   1.435
 5070TIP3   OH215166   7.636   2.910   5.222
 5070TIP3    H115167   7.619   2.952   5.138
 5070TIP3    H215168   7.683   2.976   5.273
 5071TIP3   OH215169   1.902   2.869   2.228
 5071TIP3    H115170   1.982   2.891   2.180
 5071TIP3    H215171   1.872   2.787   2.190
 5072TIP3   OH215172   0.523   0.655   5.510
 5072TIP3    H115173   0.548   0.736   5.554
 5072TIP3    H215174   0.504   0.594   5.581
 5073TIP3   OH215175   6.938   7.775   3.924
 5073TIP3    H115176   6.853   7.818   3.926
 5073TIP3    H215177   6.931   7.703   3.986
 5074TIP3   OH215178   6.144   5.148   0.753
 5074TIP3    H115179   6.145   5.242   0.769
 5074TIP3    H215180   6.136   5.108   0.840
 5075TIP3   OH215181   0.349   1.850   5.850
 5075TIP3    H115182   0.295   1.864   5.927
 5075TIP3    H215183   0.288   1.855   5.776
 5076TIP3   OH215184   7.348   2.948   0.582
 5076TIP3    H115185   7.429   2.916   0.621
 5076TIP3    H215186   7.355   2.926   0.489
 5077TIP3   OH215187   1.194   0.559   0.503
 5077TIP3    H115188   1.265   0.501   0.475
 5077TIP3    H215189   1.220   0.645   0.471
 5078TIP3   OH215190   3.424   5.116   4.956
 5078TIP3    H115191   3.465   5.196   4.924
 5078TIP3    H215192   3.333   5.140   4.971
 5079TIP3   OH215193   1.163   2.766   3.786
 5079TIP3    H115194   1.125   2.759   3.874
 5079TIP3    H215195   1.095   2.735   3.727
 5080TIP3   OH215196   1.390   4.193   0.656
 5080TIP3    H115197   1.421   4.273   0.698
 5080TIP3    H215198   1.464   4.165   0.601
 5081TIP3   OH215199   7.325   4.147   4.732
 5081TIP3    H115200   7.270   4.125   4.657
 5081TIP3    H215201   7.402   4.189   4.694
 5082TIP3   OH215202   2.815   7.550   3.159
 5082TIP3    H115203   2.756   7.588   3.224
 5082TIP3    H215204   2.760   7.492   3.107
 5083TIP3   OH215205   7.495   3.088   6.673
 5083TIP3    H115206   7.496   3.089   6.769
 5083TIP3    H215207   7.442   3.163   6.648
 5084TIP3   OH215208   5.970   6.103   5.369
 5084TIP3    H115209   5.909   6.036   5.401
 5084TIP3    H215210   6.009   6.139   5.449
 5085TIP3   OH215211   3.158   2.228   0.029
 5085TIP3    H115212   3.170   2.168   0.102
 5085TIP3    H215213   3.158   2.172  -0.049
 5086TIP3   OH215214   2.037   1.199   0.606
 5086TIP3    H115215   2.005   1.112   0.586
 5086TIP3    H215216   2.123   1.203   0.563
 5087TIP3   OH215217   5.002   7.489   1.873
 5087TIP3    H115218   4.967   7.443   1.797
 5087TIP3    H215219   5.004   7.423   1.942
 5088TIP3   OH215220   5.267   2.069   1.025
 5088TIP3    H115221   5.301   2.151   0.988
 5088TIP3    H215222   5.173   2.083   1.032
 5089TIP3   OH215223   0.456   7.385   3.575
 5089TIP3    H115224   0.481   7.468   3.616
 5089TIP3    H215225   0.511   7.380   3.497
 5090TIP3   OH215226   5.596   4.572   6.591
 5090TIP3    H115227   5.690   4.558   6.590
 5090TIP3    H215228   5.564   4.516   6.663
 5091TIP3   OH215229   0.613   3.799   4.286
 5091TIP3    H115230   0.665   3.726   4.320
 5091TIP3    H215231   0.629   3.871   4.346
 5092TIP3   OH215232   6.545   2.763   4.700
 5092TIP3    H115233   6.508   2.851   4.709
 5092TIP3    H215234   6.469   2.707   4.680
 5093TIP3   OH215235   4.386   1.397   6.402
 5093TIP3    H115236   4.341   1.405   6.486
 5093TIP3    H215237   4.425   1.310   6.404
 5094TIP3   OH215238   2.283   7.350   2.598
 5094TIP3    H115239   2.215   7.284   2.610
 5094TIP3    H215240   2.350   7.306   2.546
 5095TIP3   OH215241   0.815   2.854   4.274
 5095TIP3    H115242   0.872   2.878   4.347
 5095TIP3    H215243   0.741   2.810   4.314
 5096TIP3   OH215244   8.147   3.310   0.264
 5096TIP3    H115245   8.233   3.344   0.291
 5096TIP3    H215246   8.084   3.371   0.303
 5097TIP3   OH215247   3.673   3.733   3.152
 5097TIP3    H115248   3.667   3.812   3.097
 5097TIP3    H215249   3.696   3.766   3.238
 5098TIP3   OH215250   2.676   0.200   2.181
 5098TIP3    H115251   2.733   0.264   2.223
 5098TIP3    H215252   2.605   0.186   2.245
 5099TIP3   OH215253   2.547   0.804   2.477
 5099TIP3    H115254   2.543   0.771   2.387
 5099TIP3    H215255   2.630   0.772   2.511
 5100TIP3   OH215256   6.687   4.749   6.074
 5100TIP3    H115257   6.751   4.775   6.140
 5100TIP3    H215258   6.670   4.657   6.092
 5101TIP3   OH215259   1.527   6.980   1.276
 5101TIP3    H115260   1.460   7.026   1.326
 5101TIP3    H215261   1.570   6.923   1.340
 5102TIP3   OH215262   1.069   7.513   1.391
 5102TIP3    H115263   1.162   7.490   1.393
 5102TIP3    H215264   1.069   7.609   1.392
 5103TIP3   OH215265   2.491   3.001   6.303
 5103TIP3    H115266   2.462   2.911   6.316
 5103TIP3    H215267   2.510   3.033   6.391
 5104TIP3   OH215268   0.126   1.249   5.919
 5104TIP3    H115269   0.049   1.293   5.881
 5104TIP3    H215270   0.133   1.167   5.870
 5105TIP3   OH215271   6.112   2.682   4.576
 5105TIP3    H115272   6.074   2.745   4.514
 5105TIP3    H215273   6.191   2.650   4.532
 5106TIP3   OH215274   5.632   2.070   5.815
 5106TIP3    H115275   5.613   2.010   5.887
 5106TIP3    H215276   5.653   2.014   5.741
 5107TIP3   OH215277   8.107   0.759   5.500
 5107TIP3    H115278   8.168   0.723   5.565
 5107TIP3    H215279   8.073   0.683   5.454
 5108TIP3   OH215280   8.079   1.992   2.930
 5108TIP3    H115281   8.032   1.919   2.888
 5108TIP3    H215282   8.078   1.971   3.023
 5109TIP3   OH215283   3.368   1.458   4.958
 5109TIP3    H115284   3.442   1.440   5.016
 5109TIP3    H215285   3.408   1.502   4.883
 5110TIP3   OH215286   2.152   7.102   1.247
 5110TIP3    H115287   2.191   7.074   1.330
 5110TIP3    H215288   2.198   7.050   1.181
 5111TIP3   OH215289   8.213   2.046   0.833
 5111TIP3    H115290   8.205   1.967   0.780
 5111TIP3    H215291   8.126   2.060   0.870
 5112TIP3   OH215292   4.948   0.434   5.774
 5112TIP3    H115293   5.023   0.380   5.799
 5112TIP3    H215294   4.874   0.373   5.772
 5113TIP3   OH215295   0.143   1.675   1.060
 5113TIP3    H115296   0.139   1.735   0.986
 5113TIP3    H215297   0.236   1.652   1.067
 5114TIP3   OH215298   5.648   3.397   3.693
 5114TIP3    H115299   5.628   3.304   3.684
 5114TIP3    H215300   5.681   3.424   3.607
 5115TIP3   OH215301   4.037   0.350   1.567
 5115TIP3    H115302   3.951   0.389   1.580
 5115TIP3    H215303   4.081   0.411   1.508
 5116TIP3   OH215304   2.512   5.362   1.539
 5116TIP3    H115305   2.427   5.354   1.494
 5116TIP3    H215306   2.554   5.436   1.496
 5117TIP3   OH215307   5.189   6.152   3.604
 5117TIP3    H115308   5.206   6.120   3.693
 5117TIP3    H215309   5.274   6.149   3.561
 5118TIP3   OH215310   5.444   5.202   3.821
 5118TIP3    H115311   5.433   5.195   3.916
 5118TIP3    H215312   5.355   5.204   3.787
 5119TIP3   OH215313   6.002   6.106   0.319
 5119TIP3    H115314   6.087   6.066   0.304
 5119TIP3    H215315   5.961   6.053   0.387
 5120TIP3   OH215316   2.428   7.090   1.908
 5120TIP3    H115317   2.475   7.040   1.975
 5120TIP3    H215318   2.337   7.090   1.937
 5121TIP3   OH215319   4.901   2.505   2.589
 5121TIP3    H115320   4.809   2.477   2.584
 5121TIP3    H215321   4.897   2.600   2.590
 5122TIP3   OH215322   8.276   2.500   2.415
 5122TIP3    H115323   8.291   2.406   2.407
 5122TIP3    H215324   8.182   2.508   2.431
 5123TIP3   OH215325   0.787   2.495   4.999
 5123TIP3    H115326   0.779   2.533   5.086
 5123TIP3    H215327   0.873   2.453   4.998
 5124TIP3   OH215328   6.609   0.358   3.896
 5124TIP3    H115329   6.538   0.293   3.893
 5124TIP3    H215330   6.664   0.335   3.821
 5125TIP3   OH215331   6.754   1.008   5.783
 5125TIP3    H115332   6.758   0.946   5.711
 5125TIP3    H215333   6.680   0.978   5.836
 5126TIP3   OH215334   5.123   6.803   4.046
 5126TIP3    H115335   5.040   6.756   4.056
 5126TIP3    H215336   5.171   6.782   4.126
 5127TIP3   OH215337   8.012   0.056   0.925
 5127TIP3    H115338   7.973  -0.011   0.869
 5127TIP3    H215339   7.978   0.138   0.891
 5128TIP3   OH215340   5.344   6.493   1.521
 5128TIP3    H115341   5.392   6.528   1.447
 5128TIP3    H215342   5.362   6.399   1.521
 5129TIP3   OH215343   4.585   6.078   6.497
 5129TIP3    H115344   4.679   6.082   6.517
 5129TIP3    H215345   4.561   5.986   6.513
 5130TIP3   OH215346   1.785   5.288   3.794
 5130TIP3    H115347   1.762   5.356   3.858
 5130TIP3    H215348   1.880   5.276   3.807
 5131TIP3   OH215349   6.081   3.952   2.640
 5131TIP3    H115350   6.035   3.903   2.708
 5131TIP3    H215351   6.037   4.037   2.637
 5132TIP3   OH215352   5.122   1.943   6.746
 5132TIP3    H115353   5.165   2.013   6.697
 5132TIP3    H215354   5.162   1.945   6.833
 5133TIP3   OH215355   5.618   5.432   5.702
 5133TIP3    H115356   5.640   5.365   5.637
 5133TIP3    H215357   5.702   5.471   5.726
 5134TIP3   OH215358   4.771   2.131   0.909
 5134TIP3    H115359   4.751   2.072   0.836
 5134TIP3    H215360   4.781   2.217   0.868
 5135TIP3   OH215361   4.634   3.720   6.350
 5135TIP3    H115362   4.544   3.691   6.361
 5135TIP3    H215363   4.651   3.775   6.427
 5136TIP3   OH215364   1.026   1.795   3.154
 5136TIP3    H115365   0.970   1.718   3.144
 5136TIP3    H215366   0.969   1.860   3.197
 5137TIP3   OH215367   1.171   5.280   5.995
 5137TIP3    H115368   1.162   5.374   5.978
 5137TIP3    H215369   1.188   5.274   6.089
 5138TIP3   OH215370   6.138   4.614   4.331
 5138TIP3    H115371   6.075   4.675   4.292
 5138TIP3    H215372   6.083   4.545   4.370
 5139TIP3   OH215373   7.404   4.461   4.726
 5139TIP3    H115374   7.402   4.479   4.632
 5139TIP3    H215375   7.313   4.438   4.747
 5140TIP3   OH215376   7.332   2.047   3.053
 5140TIP3    H115377   7.275   2.123   3.045
 5140TIP3    H215378   7.404   2.077   3.108
 5141TIP3   OH215379   0.716   7.567   0.054
 5141TIP3    H115380   0.731   7.509   0.128
 5141TIP3    H215381   0.630   7.542   0.020
 5142TIP3   OH215382   4.556   6.746   1.692
 5142TIP3    H115383   4.608   6.801   1.752
 5142TIP3    H215384   4.612   6.735   1.616
 5143TIP3   OH215385   2.826   2.228   1.328
 5143TIP3    H115386   2.818   2.133   1.321
 5143TIP3    H215387   2.909   2.241   1.375
 5144TIP3   OH215388   2.907   0.879   0.347
 5144TIP3    H115389   2.969   0.818   0.306
 5144TIP3    H215390   2.866   0.925   0.273
 5145TIP3   OH215391   4.593   2.014   4.026
 5145TIP3    H115392   4.664   2.070   4.058
 5145TIP3    H215393   4.572   2.049   3.939
 5146TIP3   OH215394   3.202   0.792   0.627
 5146TIP3    H115395   3.224   0.706   0.591
 5146TIP3    H215396   3.107   0.795   0.626
 5147TIP3   OH215397   4.134   1.082   1.688
 5147TIP3    H115398   4.120   1.098   1.595
 5147TIP3    H215399   4.069   1.015   1.711
 5148TIP3   OH215400   0.325   3.376   1.516
 5148TIP3    H115401   0.408   3.334   1.494
 5148TIP3    H215402   0.273   3.307   1.558
 5149TIP3   OH215403   5.060   5.388   2.251
 5149TIP3    H115404   5.097   5.392   2.340
 5149TIP3    H215405   5.131   5.420   2.195
 5150TIP3   OH215406   7.397   1.594   3.750
 5150TIP3    H115407   7.360   1.548   3.825
 5150TIP3    H215408   7.430   1.524   3.693
 5151TIP3   OH215409   7.454   0.331   0.717
 5151TIP3    H115410   7.507   0.409   0.735
 5151TIP3    H215411   7.412   0.349   0.633
 5152TIP3   OH215412   7.644   6.608   2.738
 5152TIP3    H115413   7.598   6.537   2.692
 5152TIP3    H215414   7.595   6.621   2.818
 5153TIP3   OH215415   2.464   7.432   5.909
 5153TIP3    H115416   2.476   7.385   5.827
 5153TIP3    H215417   2.520   7.386   5.971
 5154TIP3   OH215418   1.621   1.219   2.646
 5154TIP3    H115419   1.715   1.215   2.665
 5154TIP3    H215420   1.580   1.179   2.723
 5155TIP3   OH215421   1.100   4.877   5.222
 5155TIP3    H115422   1.169   4.889   5.287
 5155TIP3    H215423   1.094   4.782   5.211
 5156TIP3   OH215424   0.105   7.427   3.266
 5156TIP3    H115425   0.026   7.477   3.249
 5156TIP3    H215426   0.103   7.410   3.360
 5157TIP3   OH215427   6.675   5.901   3.380
 5157TIP3    H115428   6.680   5.902   3.284
 5157TIP3    H215429   6.607   5.838   3.400
 5158TIP3   OH215430   5.799   0.541   3.884
 5158TIP3    H115431   5.794   0.586   3.968
 5158TIP3    H215432   5.708   0.541   3.852
 5159TIP3   OH215433   5.974   0.143   3.434
 5159TIP3    H115434   6.049   0.201   3.443
 5159TIP3    H215435   5.949   0.152   3.342
 5160TIP3   OH215436   7.150   1.640   0.212
 5160TIP3    H115437   7.192   1.662   0.296
 5160TIP3    H215438   7.082   1.706   0.202
 5161TIP3   OH215439   0.363   5.189   2.928
 5161TIP3    H115440   0.449   5.228   2.937
 5161TIP3    H215441   0.323   5.236   2.854
 5162TIP3   OH215442   2.875   5.133   0.562
 5162TIP3    H115443   2.806   5.192   0.532
 5162TIP3    H215444   2.860   5.124   0.656
 5163TIP3   OH215445   2.231   7.157   3.425
 5163TIP3    H115446   2.182   7.076   3.409
 5163TIP3    H215447   2.208   7.214   3.351
 5164TIP3   OH215448   3.496   6.763   0.577
 5164TIP3    H115449   3.516   6.748   0.485
 5164TIP3    H215450   3.413   6.812   0.576
 5165TIP3   OH215451   4.723   4.729   1.508
 5165TIP3    H115452   4.818   4.738   1.503
 5165TIP3    H215453   4.706   4.637   1.491
 5166TIP3   OH215454   3.753   0.673   2.647
 5166TIP3    H115455   3.733   0.722   2.727
 5166TIP3    H215456   3.809   0.732   2.596
 5167TIP3   OH215457   0.791   7.393   0.246
 5167TIP3    H115458   0.809   7.324   0.310
 5167TIP3    H215459   0.877   7.417   0.212
 5168TIP3   OH215460   0.294   5.937   5.097
 5168TIP3    H115461   0.231   5.982   5.040
 5168TIP3    H215462   0.301   5.994   5.173
 5169TIP3   OH215463   1.599   0.396   0.144
 5169TIP3    H115464   1.634   0.410   0.056
 5169TIP3    H215465   1.511   0.360   0.131
 5170TIP3   OH215466   5.390   5.320   5.990
 5170TIP3    H115467   5.410   5.252   5.926
 5170TIP3    H215468   5.380   5.400   5.938
 5171TIP3   OH215469   6.036   4.436   3.982
 5171TIP3    H115470   6.065   4.447   3.892
 5171TIP3    H215471   6.105   4.382   4.023
 5172TIP3   OH215472   2.263   0.096   3.069
 5172TIP3    H115473   2.198   0.074   3.136
 5172TIP3    H215474   2.215   0.087   2.986
 5173TIP3   OH215475   2.146   7.191   5.639
 5173TIP3    H115476   2.114   7.115   5.688
 5173TIP3    H215477   2.088   7.196   5.562
 5174TIP3   OH215478   3.955   6.347   3.279
 5174TIP3    H115479   3.877   6.378   3.325
 5174TIP3    H215480   3.942   6.252   3.271
 5175TIP3   OH215481   3.115   5.103   3.218
 5175TIP3    H115482   3.058   5.046   3.167
 5175TIP3    H215483   3.062   5.181   3.235
 5176TIP3   OH215484   6.637   1.536   5.317
 5176TIP3    H115485   6.568   1.510   5.256
 5176TIP3    H215486   6.718   1.513   5.272
 5177TIP3   OH215487   4.446   6.902   2.470
 5177TIP3    H115488   4.354   6.923   2.486
 5177TIP3    H215489   4.445   6.817   2.427
 5178TIP3   OH215490   2.251   6.947   2.796
 5178TIP3    H115491   2.254   6.945   2.891
 5178TIP3    H215492   2.337   6.913   2.769
 5179TIP3   OH215493   6.129   4.756   0.518
 5179TIP3    H115494   6.151   4.694   0.588
 5179TIP3    H215495   6.085   4.702   0.452
 5180TIP3   OH215496   7.557   1.843   3.370
 5180TIP3    H115497   7.475   1.869   3.330
 5180TIP3    H215498   7.548   1.868   3.462
 5181TIP3   OH215499   1.084   4.902   6.256
 5181TIP3    H115500   1.117   4.883   6.168
 5181TIP3    H215501   1.138   4.975   6.286
 5182TIP3   OH215502   7.118   2.572   2.126
 5182TIP3    H115503   7.090   2.662   2.141
 5182TIP3    H215504   7.174   2.577   2.048
 5183TIP3   OH215505   4.121   3.734   1.538
 5183TIP3    H115506   4.093   3.665   1.478
 5183TIP3    H215507   4.111   3.815   1.488
 5184TIP3   OH215508   2.590   5.131   0.434
 5184TIP3    H115509   2.517   5.181   0.470
 5184TIP3    H215510   2.569   5.120   0.342
 5185TIP3   OH215511   6.102   7.409   6.060
 5185TIP3    H115512   6.185   7.430   6.017
 5185TIP3    H215513   6.070   7.331   6.016
 5186TIP3   OH215514   5.376   2.275   5.015
 5186TIP3    H115515   5.334   2.193   4.989
 5186TIP3    H215516   5.379   2.327   4.934
 5187TIP3   OH215517   1.262   1.021   0.356
 5187TIP3    H115518   1.301   1.031   0.443
 5187TIP3    H215519   1.224   1.107   0.336
 5188TIP3   OH215520   6.885   5.421   5.072
 5188TIP3    H115521   6.868   5.401   4.980
 5188TIP3    H215522   6.936   5.346   5.105
 5189TIP3   OH215523   6.332   4.306   3.630
 5189TIP3    H115524   6.423   4.291   3.605
 5189TIP3    H215525   6.305   4.223   3.671
 5190TIP3   OH215526   7.743   3.580   5.190
 5190TIP3    H115527   7.807   3.515   5.219
 5190TIP3    H215528   7.682   3.588   5.263
 5191TIP3   OH215529   0.879   2.984   3.298
 5191TIP3    H115530   0.885   2.890   3.315
 5191TIP3    H215531   0.908   3.025   3.380
 5192TIP3   OH215532   7.779   6.967   2.778
 5192TIP3    H115533   7.812   6.904   2.714
 5192TIP3    H215534   7.743   6.913   2.848
 5193TIP3   OH215535   5.617   2.379   3.721
 5193TIP3    H115536   5.657   2.442   3.661
 5193TIP3    H215537   5.665   2.297   3.704
 5194TIP3   OH215538   1.703   3.496   3.649
 5194TIP3    H115539   1.754   3.423   3.614
 5194TIP3    H215540   1.744   3.516   3.733
 5195TIP3   OH215541   1.830   3.163   1.702
 5195TIP3    H115542   1.882   3.239   1.728
 5195TIP3    H215543   1.834   3.164   1.606
 5196TIP3   OH215544   3.867   7.538   4.925
 5196TIP3    H115545   3.908   7.461   4.965
 5196TIP3    H215546   3.934   7.606   4.929
 5197TIP3   OH215547   0.141   6.444   0.876
 5197TIP3    H115548   0.063   6.394   0.852
 5197TIP3    H215549   0.125   6.532   0.843
 5198TIP3   OH215550   2.479   4.616   1.697
 5198TIP3    H115551   2.518   4.529   1.702
 5198TIP3    H215552   2.447   4.634   1.785
 5199TIP3   OH215553   1.074   7.080   3.317
 5199TIP3    H115554   0.992   7.057   3.273
 5199TIP3    H215555   1.133   7.104   3.246
 5200TIP3   OH215556   3.220   1.554   1.915
 5200TIP3    H115557   3.223   1.631   1.971
 5200TIP3    H215558   3.242   1.587   1.828
 5201TIP3   OH215559   6.479   7.769   6.302
 5201TIP3    H115560   6.451   7.692   6.253
 5201TIP3    H215561   6.563   7.793   6.263
 5202TIP3   OH215562   1.274   0.941   2.818
 5202TIP3    H115563   1.199   0.987   2.779
 5202TIP3    H215564   1.237   0.860   2.853
 5203TIP3   OH215565   2.453   0.516   6.680
 5203TIP3    H115566   2.381   0.453   6.674
 5203TIP3    H215567   2.531   0.462   6.688
 5204TIP3   OH215568   4.422   5.079   4.091
 5204TIP3    H115569   4.435   5.126   4.008
 5204TIP3    H215570   4.509   5.078   4.131
 5205TIP3   OH215571   8.104   2.876   3.006
 5205TIP3    H115572   8.182   2.920   2.972
 5205TIP3    H215573   8.033   2.907   2.950
 5206TIP3   OH215574   0.847   2.432   4.165
 5206TIP3    H115575   0.840   2.337   4.176
 5206TIP3    H215576   0.886   2.463   4.246
 5207TIP3   OH215577   5.923   6.997   3.247
 5207TIP3    H115578   5.840   7.011   3.292
 5207TIP3    H215579   5.975   7.075   3.266
 5208TIP3   OH215580   1.735   5.122   4.703
 5208TIP3    H115581   1.750   5.033   4.670
 5208TIP3    H215582   1.713   5.173   4.625
 5209TIP3   OH215583   4.008   4.437   1.357
 5209TIP3    H115584   4.027   4.430   1.264
 5209TIP3    H215585   4.074   4.497   1.391
 5210TIP3   OH215586   1.069   4.931   1.431
 5210TIP3    H115587   0.994   4.925   1.490
 5210TIP3    H215588   1.087   5.024   1.424
 5211TIP3   OH215589   6.902   7.809   1.320
 5211TIP3    H115590   6.839   7.738   1.310
 5211TIP3    H215591   6.953   7.808   1.239
 5212TIP3   OH215592   3.572   5.637   2.408
 5212TIP3    H115593   3.641   5.701   2.393
 5212TIP3    H215594   3.491   5.681   2.383
 5213TIP3   OH215595   2.293   0.345   4.301
 5213TIP3    H115596   2.287   0.407   4.228
 5213TIP3    H215597   2.204   0.339   4.335
 5214TIP3   OH215598   1.656   2.886   1.691
 5214TIP3    H115599   1.702   2.911   1.771
 5214TIP3    H215600   1.676   2.793   1.680
 5215TIP3   OH215601   3.191   7.503   5.937
 5215TIP3    H115602   3.252   7.432   5.956
 5215TIP3    H215603   3.141   7.472   5.861
 5216TIP3   OH215604   1.263   2.717   3.458
 5216TIP3    H115605   1.204   2.653   3.498
 5216TIP3    H215606   1.270   2.689   3.366
 5217TIP3   OH215607   1.100   2.076   0.570
 5217TIP3    H115608   1.051   2.023   0.633
 5217TIP3    H215609   1.041   2.148   0.549
 5218TIP3   OH215610   0.559   6.052   5.808
 5218TIP3    H115611   0.617   6.019   5.876
 5218TIP3    H215612   0.482   6.085   5.855
 5219TIP3   OH215613   7.245   6.440   0.057
 5219TIP3    H115614   7.223   6.365   0.112
 5219TIP3    H215615   7.340   6.445   0.060
 5220TIP3   OH215616   5.963   0.523   2.717
 5220TIP3    H115617   5.928   0.489   2.800
 5220TIP3    H215618   6.058   0.516   2.727
 5221TIP3   OH215619   3.901   1.387   3.662
 5221TIP3    H115620   3.935   1.298   3.671
 5221TIP3    H215621   3.838   1.397   3.733
 5222TIP3   OH215622   5.218   2.691   2.175
 5222TIP3    H115623   5.148   2.700   2.111
 5222TIP3    H215624   5.298   2.683   2.123
 5223TIP3   OH215625   3.261   3.388   3.238
 5223TIP3    H115626   3.238   3.367   3.148
 5223TIP3    H215627   3.313   3.469   3.231
 5224TIP3   OH215628   6.356   6.778   5.222
 5224TIP3    H115629   6.363   6.785   5.318
 5224TIP3    H215630   6.264   6.759   5.206
 5225TIP3   OH215631   7.227   3.899   3.403
 5225TIP3    H115632   7.312   3.917   3.362
 5225TIP3    H215633   7.211   3.974   3.460
 5226TIP3   OH215634   0.581   1.720   3.356
 5226TIP3    H115635   0.571   1.775   3.434
 5226TIP3    H215636   0.511   1.655   3.362
 5227TIP3   OH215637   2.089   1.499   2.181
 5227TIP3    H115638   2.125   1.420   2.221
 5227TIP3    H215639   2.053   1.549   2.254
 5228TIP3   OH215640   5.860   3.433   4.158
 5228TIP3    H115641   5.851   3.452   4.251
 5228TIP3    H215642   5.773   3.449   4.122
 5229TIP3   OH215643   0.157   2.517   4.049
 5229TIP3    H115644   0.218   2.579   4.088
 5229TIP3    H215645   0.123   2.561   3.971
 5230TIP3   OH215646   1.273   7.678   6.241
 5230TIP3    H115647   1.285   7.761   6.195
 5230TIP3    H215648   1.192   7.642   6.204
 5231TIP3   OH215649   5.053   0.974   3.867
 5231TIP3    H115650   5.045   0.987   3.773
 5231TIP3    H215651   5.094   0.888   3.876
 5232TIP3   OH215652   1.733   2.767   4.181
 5232TIP3    H115653   1.769   2.737   4.097
 5232TIP3    H215654   1.743   2.692   4.239
 5233TIP3   OH215655   2.860   4.448   1.813
 5233TIP3    H115656   2.825   4.510   1.876
 5233TIP3    H215657   2.954   4.452   1.825
 5234TIP3   OH215658   4.349   4.456   5.380
 5234TIP3    H115659   4.287   4.528   5.393
 5234TIP3    H215660   4.402   4.484   5.305
 5235TIP3   OH215661   5.505   5.599   4.680
 5235TIP3    H115662   5.498   5.636   4.768
 5235TIP3    H215663   5.461   5.663   4.624
 5236TIP3   OH215664   6.604   5.624   2.544
 5236TIP3    H115665   6.535   5.637   2.610
 5236TIP3    H215666   6.677   5.587   2.594
 5237TIP3   OH215667   5.127   5.127   0.792
 5237TIP3    H115668   5.144   5.220   0.805
 5237TIP3    H215669   5.213   5.088   0.782
 5238TIP3   OH215670   5.477   7.422   5.119
 5238TIP3    H115671   5.565   7.445   5.088
 5238TIP3    H215672   5.418   7.459   5.053
 5239TIP3   OH215673   6.490   6.901   5.020
 5239TIP3    H115674   6.448   6.875   5.102
 5239TIP3    H215675   6.479   6.825   4.962
 5240TIP3   OH215676   0.929   4.632   4.976
 5240TIP3    H115677   1.009   4.594   4.940
 5240TIP3    H215678   0.867   4.560   4.979
 5241TIP3   OH215679   4.646   0.432   1.659
 5241TIP3    H115680   4.725   0.485   1.666
 5241TIP3    H215681   4.602   0.465   1.580
 5242TIP3   OH215682   2.719   6.609   2.265
 5242TIP3    H115683   2.704   6.650   2.180
 5242TIP3    H215684   2.669   6.528   2.261
 5243TIP3   OH215685   7.549   0.355   3.726
 5243TIP3    H115686   7.535   0.302   3.647
 5243TIP3    H215687   7.568   0.443   3.694
 5244TIP3   OH215688   2.273   4.237   5.378
 5244TIP3    H115689   2.266   4.297   5.305
 5244TIP3    H215690   2.338   4.172   5.351
 5245TIP3   OH215691   3.796   4.625   2.272
 5245TIP3    H115692   3.872   4.682   2.259
 5245TIP3    H215693   3.767   4.644   2.361
 5246TIP3   OH215694   6.368   0.921   4.067
 5246TIP3    H115695   6.408   0.884   4.146
 5246TIP3    H215696   6.434   0.983   4.034
 5247TIP3   OH215697   4.832   1.158   6.071
 5247TIP3    H115698   4.847   1.109   6.152
 5247TIP3    H215699   4.897   1.123   6.010
 5248TIP3   OH215700   2.976   3.153   6.002
 5248TIP3    H115701   2.901   3.124   6.053
 5248TIP3    H215702   3.040   3.182   6.068
 5249TIP3   OH215703   3.354   3.933   5.221
 5249TIP3    H115704   3.372   3.985   5.143
 5249TIP3    H215705   3.263   3.952   5.242
 5250TIP3   OH215706   4.664   7.709   0.621
 5250TIP3    H115707   4.619   7.643   0.568
 5250TIP3    H215708   4.614   7.789   0.608
 5251TIP3   OH215709   6.035   6.971   1.186
 5251TIP3    H115710   6.068   6.977   1.276
 5251TIP3    H215711   6.112   6.990   1.131
 5252TIP3   OH215712   5.825   1.406   0.308
 5252TIP3    H115713   5.890   1.359   0.361
 5252TIP3    H215714   5.858   1.496   0.305
 5253TIP3   OH215715   0.429   7.820   0.439
 5253TIP3    H115716   0.334   7.809   0.434
 5253TIP3    H215717   0.464   7.736   0.409
 5254TIP3   OH215718   6.623   5.909   6.085
 5254TIP3    H115719   6.563   5.919   6.159
 5254TIP3    H215720   6.698   5.862   6.122
 5255TIP3   OH215721   7.121   3.098   1.672
 5255TIP3    H115722   7.214   3.083   1.687
 5255TIP3    H215723   7.109   3.192   1.685
 5256TIP3   OH215724   3.127   0.853   4.189
 5256TIP3    H115725   3.037   0.834   4.163
 5256TIP3    H215726   3.119   0.914   4.261
 5257TIP3   OH215727   7.929   6.249   4.404
 5257TIP3    H115728   8.014   6.217   4.431
 5257TIP3    H215729   7.919   6.333   4.449
 5258TIP3   OH215730   6.120   7.191   3.309
 5258TIP3    H115731   6.135   7.255   3.240
 5258TIP3    H215732   6.082   7.241   3.381
 5259TIP3   OH215733   7.775   6.114   2.379
 5259TIP3    H115734   7.802   6.157   2.460
 5259TIP3    H215735   7.799   6.022   2.393
 5260TIP3   OH215736   5.773   5.442   5.019
 5260TIP3    H115737   5.732   5.519   5.058
 5260TIP3    H215738   5.725   5.428   4.937
 5261TIP3   OH215739   1.641   5.584   2.814
 5261TIP3    H115740   1.599   5.500   2.832
 5261TIP3    H215741   1.621   5.601   2.723
 5262TIP3   OH215742   7.932   6.860   1.557
 5262TIP3    H115743   7.966   6.796   1.495
 5262TIP3    H215744   7.843   6.831   1.575
 5263TIP3   OH215745   6.802   1.183   1.540
 5263TIP3    H115746   6.712   1.158   1.560
 5263TIP3    H215747   6.819   1.259   1.595
 5264TIP3   OH215748   3.824   4.053   5.133
 5264TIP3    H115749   3.796   3.966   5.159
 5264TIP3    H215750   3.915   4.059   5.163
 5265TIP3   OH215751   2.229   5.720   1.498
 5265TIP3    H115752   2.275   5.748   1.418
 5265TIP3    H215753   2.262   5.779   1.566
 5266TIP3   OH215754   0.852   3.017   6.387
 5266TIP3    H115755   0.893   3.040   6.471
 5266TIP3    H215756   0.759   3.009   6.407
 5267TIP3   OH215757   7.852   1.819   5.563
 5267TIP3    H115758   7.891   1.849   5.480
 5267TIP3    H215759   7.890   1.876   5.630
 5268TIP3   OH215760   5.676   1.273   6.193
 5268TIP3    H115761   5.741   1.310   6.253
 5268TIP3    H215762   5.620   1.220   6.249
 5269TIP3   OH215763   4.052   5.150   3.999
 5269TIP3    H115764   4.073   5.099   4.077
 5269TIP3    H215765   4.063   5.088   3.927
 5270TIP3   OH215766   7.555   5.731   4.867
 5270TIP3    H115767   7.639   5.685   4.858
 5270TIP3    H215768   7.554   5.761   4.958
 5271TIP3   OH215769   0.055   2.681   3.848
 5271TIP3    H115770   0.127   2.743   3.846
 5271TIP3    H215771   0.006   2.698   3.767
 5272TIP3   OH215772   6.763   2.558   1.454
 5272TIP3    H115773   6.776   2.501   1.531
 5272TIP3    H215774   6.676   2.594   1.466
 5273TIP3   OH215775   4.508   0.023   4.351
 5273TIP3    H115776   4.469   0.080   4.418
 5273TIP3    H215777   4.488   0.067   4.268
 5274TIP3   OH215778   2.233   0.463   4.704
 5274TIP3    H115779   2.263   0.548   4.737
 5274TIP3    H215780   2.307   0.430   4.653
 5275TIP3   OH215781   5.975   6.555   4.396
 5275TIP3    H115782   5.961   6.494   4.468
 5275TIP3    H215783   5.892   6.602   4.388
 5276TIP3   OH215784   7.108   0.880   3.971
 5276TIP3    H115785   7.119   0.786   3.958
 5276TIP3    H215786   7.189   0.909   4.012
 5277TIP3   OH215787   1.128   7.261   2.000
 5277TIP3    H115788   1.185   7.195   2.039
 5277TIP3    H215789   1.039   7.229   2.017
 5278TIP3   OH215790   1.201   3.590   2.869
 5278TIP3    H115791   1.254   3.608   2.791
 5278TIP3    H215792   1.110   3.592   2.837
 5279TIP3   OH215793   2.867   1.413   3.193
 5279TIP3    H115794   2.828   1.371   3.269
 5279TIP3    H215795   2.793   1.451   3.145
 5280TIP3   OH215796   4.563   3.989   6.751
 5280TIP3    H115797   4.539   4.047   6.679
 5280TIP3    H215798   4.499   4.007   6.819
 5281TIP3   OH215799   7.752   5.638   0.575
 5281TIP3    H115800   7.807   5.576   0.529
 5281TIP3    H215801   7.691   5.584   0.626
 5282TIP3   OH215802   1.368   6.608   5.962
 5282TIP3    H115803   1.396   6.594   5.871
 5282TIP3    H215804   1.308   6.535   5.980
 5283TIP3   OH215805   4.328   4.294   4.333
 5283TIP3    H115806   4.314   4.225   4.267
 5283TIP3    H215807   4.347   4.372   4.281
 5284TIP3   OH215808   4.685   7.387   1.902
 5284TIP3    H115809   4.739   7.449   1.951
 5284TIP3    H215810   4.710   7.301   1.937
 5285TIP3   OH215811   6.059   1.307   1.790
 5285TIP3    H115812   6.060   1.399   1.766
 5285TIP3    H215813   6.145   1.291   1.829
 5286TIP3   OH215814   5.172   3.535   1.763
 5286TIP3    H115815   5.084   3.551   1.796
 5286TIP3    H215816   5.205   3.622   1.741
 5287TIP3   OH215817   2.574   4.139   1.412
 5287TIP3    H115818   2.617   4.138   1.326
 5287TIP3    H215819   2.632   4.190   1.468
 5288TIP3   OH215820   3.513   6.605   3.609
 5288TIP3    H115821   3.462   6.627   3.687
 5288TIP3    H215822   3.483   6.518   3.584
 5289TIP3   OH215823   8.229   6.873   2.234
 5289TIP3    H115824   8.166   6.944   2.223
 5289TIP3    H215825   8.314   6.915   2.222
 5290TIP3   OH215826   6.743   3.588   4.115
 5290TIP3    H115827   6.791   3.670   4.119
 5290TIP3    H215828   6.728   3.565   4.206
 5291TIP3   OH215829   6.321   6.539   4.590
 5291TIP3    H115830   6.320   6.484   4.511
 5291TIP3    H215831   6.259   6.497   4.649
 5292TIP3   OH215832   1.091   3.061   0.133
 5292TIP3    H115833   1.018   3.065   0.195
 5292TIP3    H215834   1.169   3.064   0.187
 5293TIP3   OH215835   1.539   0.044   5.643
 5293TIP3    H115836   1.541   0.134   5.610
 5293TIP3    H215837   1.487  -0.004   5.579
 5294TIP3   OH215838   7.613   6.398   3.498
 5294TIP3    H115839   7.694   6.393   3.549
 5294TIP3    H215840   7.575   6.482   3.522
 5295TIP3   OH215841   6.347   6.742   4.859
 5295TIP3    H115842   6.276   6.720   4.918
 5295TIP3    H215843   6.357   6.666   4.802
 5296TIP3   OH215844   5.172   5.098   1.729
 5296TIP3    H115845   5.110   5.142   1.787
 5296TIP3    H215846   5.230   5.049   1.787
 5297TIP3   OH215847   0.744   7.481   4.049
 5297TIP3    H115848   0.791   7.564   4.057
 5297TIP3    H215849   0.731   7.452   4.139
 5298TIP3   OH215850   4.024   0.499   0.323
 5298TIP3    H115851   4.059   0.500   0.234
 5298TIP3    H215852   3.965   0.424   0.325
 5299TIP3   OH215853   6.700   5.077   1.353
 5299TIP3    H115854   6.732   5.099   1.265
 5299TIP3    H215855   6.767   5.019   1.389
 5300TIP3   OH215856   4.309   3.538   3.523
 5300TIP3    H115857   4.346   3.589   3.451
 5300TIP3    H215858   4.261   3.467   3.480
 5301TIP3   OH215859   7.937   0.316   6.625
 5301TIP3    H115860   8.009   0.368   6.588
 5301TIP3    H215861   7.947   0.326   6.720
 5302TIP3   OH215862   2.324   2.268   5.805
 5302TIP3    H115863   2.264   2.208   5.847
 5302TIP3    H215864   2.268   2.332   5.761
 5303TIP3   OH215865   7.023   2.143   3.930
 5303TIP3    H115866   7.054   2.233   3.917
 5303TIP3    H215867   7.036   2.127   4.023
 5304TIP3   OH215868   1.882   6.561   6.644
 5304TIP3    H115869   1.864   6.609   6.725
 5304TIP3    H215870   1.801   6.567   6.594
 5305TIP3   OH215871   2.116   7.813   0.065
 5305TIP3    H115872   2.210   7.817   0.046
 5305TIP3    H215873   2.074   7.829  -0.020
 5306TIP3   OH215874   8.283   2.006   6.489
 5306TIP3    H115875   8.245   2.028   6.404
 5306TIP3    H215876   8.346   1.937   6.470
 5307TIP3   OH215877   2.965   7.321   5.211
 5307TIP3    H115878   2.942   7.380   5.140
 5307TIP3    H215879   2.882   7.280   5.237
 5308TIP3   OH215880   4.279   2.809   2.948
 5308TIP3    H115881   4.199   2.837   2.993
 5308TIP3    H215882   4.260   2.822   2.855
 5309TIP3   OH215883   4.116   5.257   1.140
 5309TIP3    H115884   4.163   5.254   1.056
 5309TIP3    H215885   4.185   5.255   1.206
 5310TIP3   OH215886   7.398   3.887   6.198
 5310TIP3    H115887   7.317   3.877   6.149
 5310TIP3    H215888   7.443   3.803   6.189
 5311TIP3   OH215889   7.232   5.487   2.804
 5311TIP3    H115890   7.210   5.424   2.735
 5311TIP3    H215891   7.325   5.506   2.789
 5312TIP3   OH215892   4.135   6.871   6.360
 5312TIP3    H115893   4.225   6.839   6.357
 5312TIP3    H215894   4.140   6.955   6.405
 5313TIP3   OH215895   7.734   0.208   5.364
 5313TIP3    H115896   7.719   0.172   5.451
 5313TIP3    H215897   7.678   0.286   5.360
 5314TIP3   OH215898   1.207   0.831   4.633
 5314TIP3    H115899   1.199   0.925   4.618
 5314TIP3    H215900   1.217   0.794   4.546
 5315TIP3   OH215901   0.026   0.998   1.919
 5315TIP3    H115902   0.068   1.024   1.837
 5315TIP3    H215903  -0.024   0.919   1.897
 5316TIP3   OH215904   7.772   1.335   1.856
 5316TIP3    H115905   7.833   1.263   1.837
 5316TIP3    H215906   7.698   1.292   1.899
 5317TIP3   OH215907   6.920   7.720   5.473
 5317TIP3    H115908   6.855   7.773   5.427
 5317TIP3    H215909   6.986   7.699   5.407
 5318TIP3   OH215910   0.565   0.247   5.290
 5318TIP3    H115911   0.504   0.318   5.270
 5318TIP3    H215912   0.547   0.181   5.223
 5319TIP3   OH215913   2.320   4.252   4.183
 5319TIP3    H115914   2.353   4.322   4.127
 5319TIP3    H215915   2.252   4.209   4.130
 5320TIP3   OH215916   2.455   2.771   0.142
 5320TIP3    H115917   2.425   2.752   0.053
 5320TIP3    H215918   2.447   2.688   0.189
 5321TIP3   OH215919   6.985   6.808   5.920
 5321TIP3    H115920   6.964   6.755   5.843
 5321TIP3    H215921   7.072   6.777   5.947
 5322TIP3   OH215922   0.884   0.644   1.817
 5322TIP3    H115923   0.817   0.586   1.783
 5322TIP3    H215924   0.854   0.666   1.906
 5323TIP3   OH215925   5.802   4.470   0.492
 5323TIP3    H115926   5.758   4.386   0.505
 5323TIP3    H215927   5.857   4.481   0.570
 5324TIP3   OH215928   3.906   1.357   6.693
 5324TIP3    H115929   3.955   1.287   6.735
 5324TIP3    H215930   3.816   1.345   6.723
 5325TIP3   OH215931   7.085   4.460   0.626
 5325TIP3    H115932   7.052   4.546   0.651
 5325TIP3    H215933   7.057   4.449   0.535
 5326TIP3   OH215934   4.169   2.780   5.929
 5326TIP3    H115935   4.148   2.836   5.854
 5326TIP3    H215936   4.174   2.692   5.892
 5327TIP3   OH215937   0.575   1.532   2.176
 5327TIP3    H115938   0.577   1.515   2.082
 5327TIP3    H215939   0.643   1.474   2.212
 5328TIP3   OH215940   7.869   4.055   2.149
 5328TIP3    H115941   7.837   4.123   2.089
 5328TIP3    H215942   7.790   4.015   2.184
 5329TIP3   OH215943   1.044   1.254   1.761
 5329TIP3    H115944   1.053   1.347   1.781
 5329TIP3    H215945   1.065   1.209   1.843
 5330TIP3   OH215946   4.386   5.703   5.895
 5330TIP3    H115947   4.329   5.637   5.935
 5330TIP3    H215948   4.343   5.725   5.812
 5331TIP3   OH215949   4.065   2.085   1.625
 5331TIP3    H115950   4.037   2.066   1.536
 5331TIP3    H215951   4.089   2.178   1.623
 5332TIP3   OH215952   3.291   6.312   3.947
 5332TIP3    H115953   3.333   6.262   4.017
 5332TIP3    H215954   3.294   6.402   3.977
 5333TIP3   OH215955   1.183   1.528   6.588
 5333TIP3    H115956   1.210   1.501   6.500
 5333TIP3    H215957   1.118   1.596   6.574
 5334TIP3   OH215958   7.933   4.961   2.368
 5334TIP3    H115959   7.996   4.918   2.426
 5334TIP3    H215960   7.986   4.994   2.296
 5335TIP3   OH215961   8.016   1.039   4.782
 5335TIP3    H115962   8.055   1.023   4.696
 5335TIP3    H215963   8.043   0.964   4.836
 5336TIP3   OH215964   7.378   4.263   1.118
 5336TIP3    H115965   7.414   4.177   1.138
 5336TIP3    H215966   7.313   4.278   1.187
 5337TIP3   OH215967   0.201   6.609   4.094
 5337TIP3    H115968   0.206   6.514   4.106
 5337TIP3    H215969   0.107   6.629   4.100
 5338TIP3   OH215970   6.153   6.337   6.267
 5338TIP3    H115971   6.151   6.321   6.172
 5338TIP3    H215972   6.238   6.305   6.296
 5339TIP3   OH215973   2.081   7.219   0.374
 5339TIP3    H115974   2.009   7.198   0.434
 5339TIP3    H215975   2.037   7.235   0.290
 5340TIP3   OH215976   2.082   2.904   1.465
 5340TIP3    H115977   2.103   2.941   1.551
 5340TIP3    H215978   2.013   2.960   1.431
 5341TIP3   OH215979   3.976   0.602   1.841
 5341TIP3    H115980   3.925   0.579   1.763
 5341TIP3    H215981   4.025   0.680   1.815
 5342TIP3   OH215982   5.688   7.610   1.112
 5342TIP3    H115983   5.673   7.537   1.053
 5342TIP3    H215984   5.610   7.666   1.100
 5343TIP3   OH215985   4.224   0.506   5.171
 5343TIP3    H115986   4.312   0.503   5.209
 5343TIP3    H215987   4.173   0.443   5.223
 5344TIP3   OH215988   2.356   6.013   2.063
 5344TIP3    H115989   2.346   6.108   2.066
 5344TIP3    H215990   2.447   5.999   2.036
 5345TIP3   OH215991   4.614   3.310   6.106
 5345TIP3    H115992   4.618   3.300   6.011
 5345TIP3    H215993   4.646   3.398   6.123
 5346TIP3   OH215994   4.316   1.401   3.929
 5346TIP3    H115995   4.294   1.333   3.992
 5346TIP3    H215996   4.383   1.453   3.972
 5347TIP3   OH215997   7.343   7.251   2.941
 5347TIP3    H115998   7.391   7.274   3.021
 5347TIP3    H215999   7.302   7.333   2.913
 5348TIP3   OH216000   2.458   5.891   5.353
 5348TIP3    H116001   2.410   5.956   5.301
 5348TIP3    H216002   2.485   5.825   5.290
 5349TIP3   OH216003   4.530   2.638   0.197
 5349TIP3    H116004   4.455   2.627   0.140
 5349TIP3    H216005   4.493   2.669   0.280
 5350TIP3   OH216006   6.746  -0.007   5.540
 5350TIP3    H116007   6.758   0.074   5.489
 5350TIP3    H216008   6.673   0.013   5.599
 5351TIP3   OH216009   2.851   4.554   3.250
 5351TIP3    H116010   2.804   4.535   3.168
 5351TIP3    H216011   2.854   4.471   3.296
 5352TIP3   OH216012   0.742   0.400   3.615
 5352TIP3    H116013   0.681   0.331   3.588
 5352TIP3    H216014   0.814   0.394   3.552
 5353TIP3   OH216015   6.757   7.646   3.683
 5353TIP3    H116016   6.752   7.671   3.591
 5353TIP3    H216017   6.828   7.582   3.687
 5354TIP3   OH216018   8.162   0.124   3.782
 5354TIP3    H116019   8.076   0.126   3.739
 5354TIP3    H216020   8.165   0.038   3.825
 5355TIP3   OH216021   4.371   2.192   1.681
 5355TIP3    H116022   4.388   2.218   1.771
 5355TIP3    H216023   4.320   2.111   1.688
 5356TIP3   OH216024  -0.025   7.007   0.057
 5356TIP3    H116025  -0.030   6.936  -0.007
 5356TIP3    H216026   0.043   6.979   0.118
 5357TIP3   OH216027   2.553   3.702   1.716
 5357TIP3    H116028   2.561   3.648   1.794
 5357TIP3    H216029   2.643   3.712   1.685
 5358TIP3   OH216030   3.841   0.302   0.323
 5358TIP3    H116031   3.830   0.211   0.353
 5358TIP3    H216032   3.754   0.341   0.331
 5359TIP3   OH216033   5.123   1.648   0.901
 5359TIP3    H116034   5.125   1.705   0.978
 5359TIP3    H216035   5.171   1.570   0.928
 5360TIP3   OH216036   3.568   1.053   4.152
 5360TIP3    H116037   3.531   0.979   4.201
 5360TIP3    H216038   3.588   1.017   4.066
 5361TIP3   OH216039   5.517   4.228   0.378
 5361TIP3    H116040   5.491   4.311   0.338
 5361TIP3    H216041   5.485   4.161   0.317
 5362TIP3   OH216042   4.487   0.319   0.874
 5362TIP3    H116043   4.536   0.347   0.952
 5362TIP3    H216044   4.498   0.224   0.873
 5363TIP3   OH216045   2.239   7.762   4.513
 5363TIP3    H116046   2.219   7.852   4.539
 5363TIP3    H216047   2.179   7.744   4.440
 5364TIP3   OH216048   2.127   5.723   6.249
 5364TIP3    H116049   2.088   5.648   6.293
 5364TIP3    H216050   2.098   5.717   6.158
 5365TIP3   OH216051   4.847   4.867   5.466
 5365TIP3    H116052   4.762   4.897   5.434
 5365TIP3    H216053   4.895   4.948   5.486
 5366TIP3   OH216054   1.816   2.349   3.994
 5366TIP3    H116055   1.758   2.344   3.918
 5366TIP3    H216056   1.893   2.396   3.962
 5367TIP3   OH216057   5.666   5.218   5.183
 5367TIP3    H116058   5.728   5.146   5.195
 5367TIP3    H216059   5.707   5.274   5.117
 5368TIP3   OH216060   3.443   0.187   4.966
 5368TIP3    H116061   3.468   0.122   4.900
 5368TIP3    H216062   3.477   0.270   4.932
 5369TIP3   OH216063   1.216   0.250   6.683
 5369TIP3    H116064   1.253   0.300   6.610
 5369TIP3    H216065   1.293   0.216   6.730
 5370TIP3   OH216066   3.534   6.329   3.302
 5370TIP3    H116067   3.489   6.259   3.256
 5370TIP3    H216068   3.490   6.334   3.387
 5371TIP3   OH216069   0.314   6.359   3.196
 5371TIP3    H116070   0.298   6.442   3.151
 5371TIP3    H216071   0.226   6.327   3.220
 5372TIP3   OH216072   1.990   4.476   0.357
 5372TIP3    H116073   2.010   4.393   0.399
 5372TIP3    H216074   1.929   4.520   0.417
 5373TIP3   OH216075   0.252   5.225   4.592
 5373TIP3    H116076   0.257   5.130   4.587
 5373TIP3    H216077   0.339   5.255   4.565
 5374TIP3   OH216078   5.401   2.715   4.427
 5374TIP3    H116079   5.479   2.662   4.444
 5374TIP3    H216080   5.353   2.666   4.360
 5375TIP3   OH216081   3.868   1.690   1.658
 5375TIP3    H116082   3.945   1.666   1.607
 5375TIP3    H216083   3.842   1.776   1.623
 5376TIP3   OH216084   7.032   1.236   4.220
 5376TIP3    H116085   7.023   1.198   4.132
 5376TIP3    H216086   6.984   1.318   4.215
 5377TIP3   OH216087   5.149   2.002   0.744
 5377TIP3    H116088   5.055   2.013   0.760
 5377TIP3    H216089   5.191   2.031   0.825
 5378TIP3   OH216090   8.266   4.684   6.263
 5378TIP3    H116091   8.193   4.645   6.310
 5378TIP3    H216092   8.344   4.640   6.297
 5379TIP3   OH216093   5.619   0.862   6.080
 5379TIP3    H116094   5.673   0.818   6.145
 5379TIP3    H216095   5.681   0.891   6.013
 5380TIP3   OH216096   8.078   4.792   2.555
 5380TIP3    H116097   8.170   4.821   2.552
 5380TIP3    H216098   8.073   4.739   2.634
 5381TIP3   OH216099   0.729   4.131   6.595
 5381TIP3    H116100   0.779   4.167   6.522
 5381TIP3    H216101   0.737   4.036   6.586
 5382TIP3   OH216102   1.323   5.918   2.834
 5382TIP3    H116103   1.302   5.888   2.922
 5382TIP3    H216104   1.285   6.006   2.829
 5383TIP3   OH216105   2.393   5.027   5.192
 5383TIP3    H116106   2.319   5.085   5.179
 5383TIP3    H216107   2.393   5.008   5.286
 5384TIP3   OH216108   6.761   7.245   6.649
 5384TIP3    H116109   6.684   7.221   6.597
 5384TIP3    H216110   6.738   7.218   6.738
 5385TIP3   OH216111   3.110   7.178   1.274
 5385TIP3    H116112   3.092   7.240   1.345
 5385TIP3    H216113   3.094   7.092   1.312
 5386TIP3   OH216114   5.220   3.420   6.588
 5386TIP3    H116115   5.269   3.423   6.670
 5386TIP3    H216116   5.243   3.501   6.543
 5387TIP3   OH216117   0.859   2.887   1.256
 5387TIP3    H116118   0.896   2.802   1.234
 5387TIP3    H216119   0.904   2.949   1.199
 5388TIP3   OH216120   6.748   4.602   1.744
 5388TIP3    H116121   6.789   4.652   1.814
 5388TIP3    H216122   6.813   4.601   1.674
 5389TIP3   OH216123   2.166   3.186   5.159
 5389TIP3    H116124   2.111   3.135   5.099
 5389TIP3    H216125   2.109   3.256   5.191
 5390TIP3   OH216126   6.066   5.142   5.488
 5390TIP3    H116127   6.151   5.162   5.527
 5390TIP3    H216128   6.026   5.227   5.469
 5391TIP3   OH216129   6.519   7.228   1.983
 5391TIP3    H116130   6.463   7.203   2.056
 5391TIP3    H216131   6.461   7.274   1.923
 5392TIP3   OH216132   2.820   0.342   0.256
 5392TIP3    H116133   2.735   0.362   0.295
 5392TIP3    H216134   2.879   0.330   0.331
 5393TIP3   OH216135   6.401   6.780   0.221
 5393TIP3    H116136   6.477   6.828   0.254
 5393TIP3    H216137   6.429   6.749   0.135
 5394TIP3   OH216138   3.673   2.968   5.562
 5394TIP3    H116139   3.712   2.984   5.476
 5394TIP3    H216140   3.721   3.025   5.621
 5395TIP3   OH216141   5.929   6.018  -0.029
 5395TIP3    H116142   5.971   5.960   0.034
 5395TIP3    H216143   5.930   6.104   0.013
 5396TIP3   OH216144   4.089   0.031  -0.016
 5396TIP3    H116145   4.095   0.021   0.079
 5396TIP3    H216146   4.070   0.124  -0.029
 5397TIP3   OH216147   3.111   1.825   0.024
 5397TIP3    H116148   3.027   1.844   0.067
 5397TIP3    H216149   3.117   1.893  -0.044
 5398TIP3   OH216150   6.019   6.361   0.415
 5398TIP3    H116151   5.992   6.275   0.383
 5398TIP3    H216152   6.112   6.367   0.392
 5399TIP3   OH216153   4.546   5.120   6.487
 5399TIP3    H116154   4.623   5.079   6.446
 5399TIP3    H216155   4.499   5.047   6.527
 5400TIP3   OH216156   6.784   3.714   2.639
 5400TIP3    H116157   6.827   3.636   2.674
 5400TIP3    H216158   6.717   3.680   2.579
 5401TIP3   OH216159   2.576   4.287   5.001
 5401TIP3    H116160   2.638   4.268   5.072
 5401TIP3    H216161   2.624   4.267   4.921
 5402TIP3   OH216162   5.743   3.939   6.767
 5402TIP3    H116163   5.725   3.875   6.836
 5402TIP3    H216164   5.729   3.892   6.685
 5403TIP3   OH216165   0.321   7.144   5.733
 5403TIP3    H116166   0.255   7.180   5.674
 5403TIP3    H216167   0.273   7.083   5.789
 5404TIP3   OH216168   5.864   5.325   1.204
 5404TIP3    H116169   5.887   5.383   1.130
 5404TIP3    H216170   5.851   5.239   1.164
 5405TIP3   OH216171   4.284   3.178   1.655
 5405TIP3    H116172   4.324   3.095   1.680
 5405TIP3    H216173   4.214   3.153   1.594
 5406TIP3   OH216174   3.398   4.790   5.229
 5406TIP3    H116175   3.425   4.761   5.142
 5406TIP3    H216176   3.416   4.716   5.287
 5407TIP3   OH216177   2.164   2.488   5.733
 5407TIP3    H116178   2.205   2.519   5.653
 5407TIP3    H216179   2.186   2.554   5.799
 5408TIP3   OH216180   3.419   5.722   5.772
 5408TIP3    H116181   3.464   5.784   5.716
 5408TIP3    H216182   3.476   5.713   5.849
 5409TIP3   OH216183   8.128   2.661   4.027
 5409TIP3    H116184   8.191   2.724   3.991
 5409TIP3    H216185   8.103   2.697   4.112
 5410TIP3   OH216186   2.206   7.111   4.756
 5410TIP3    H116187   2.157   7.193   4.756
 5410TIP3    H216188   2.149   7.050   4.709
 5411TIP3   OH216189   5.105   7.660   5.205
 5411TIP3    H116190   5.142   7.640   5.290
 5411TIP3    H216191   5.158   7.611   5.143
 5412TIP3   OH216192   1.397   7.690   1.897
 5412TIP3    H116193   1.468   7.754   1.900
 5412TIP3    H216194   1.326   7.729   1.948
 5413TIP3   OH216195   0.781   7.396   5.879
 5413TIP3    H116196   0.840   7.322   5.893
 5413TIP3    H216197   0.728   7.372   5.803
 5414TIP3   OH216198   2.853   1.954   1.370
 5414TIP3    H116199   2.890   1.871   1.400
 5414TIP3    H216200   2.803   1.931   1.292
 5415TIP3   OH216201   7.910   3.251   0.666
 5415TIP3    H116202   7.822   3.216   0.650
 5415TIP3    H216203   7.917   3.255   0.762
 5416TIP3   OH216204   4.664   3.981   3.077
 5416TIP3    H116205   4.668   4.074   3.099
 5416TIP3    H216206   4.637   3.938   3.158
 5417TIP3   OH216207   0.882   6.311   1.808
 5417TIP3    H116208   0.787   6.311   1.822
 5417TIP3    H216209   0.897   6.237   1.749
 5418TIP3   OH216210   2.794   7.582   5.310
 5418TIP3    H116211   2.765   7.512   5.368
 5418TIP3    H216212   2.867   7.624   5.356
 5419TIP3   OH216213   1.761   7.492   0.260
 5419TIP3    H116214   1.700   7.551   0.305
 5419TIP3    H216215   1.839   7.545   0.245
 5420TIP3   OH216216   2.003   2.786   0.465
 5420TIP3    H116217   2.022   2.793   0.559
 5420TIP3    H216218   2.049   2.860   0.426
 5421TIP3   OH216219   8.018   5.476   4.444
 5421TIP3    H116220   7.956   5.499   4.513
 5421TIP3    H216221   8.065   5.400   4.478
 5422TIP3   OH216222   5.079   5.302   1.891
 5422TIP3    H116223   5.048   5.391   1.908
 5422TIP3    H216224   5.141   5.284   1.961
 5423TIP3   OH216225   0.090   3.976   2.402
 5423TIP3    H116226   0.046   3.935   2.476
 5423TIP3    H216227   0.055   4.065   2.400
 5424TIP3   OH216228   1.421   3.222   0.889
 5424TIP3    H116229   1.513   3.208   0.913
 5424TIP3    H216230   1.409   3.317   0.895
 5425TIP3   OH216231   6.265   1.440   2.659
 5425TIP3    H116232   6.321   1.437   2.737
 5425TIP3    H216233   6.296   1.517   2.611
 5426TIP3   OH216234   7.461   2.106   3.602
 5426TIP3    H116235   7.376   2.082   3.566
 5426TIP3    H216236   7.511   2.025   3.603
 5427TIP3   OH216237   5.212   2.423   1.217
 5427TIP3    H116238   5.234   2.486   1.149
 5427TIP3    H216239   5.117   2.416   1.212
 5428TIP3   OH216240   6.545   7.404   0.544
 5428TIP3    H116241   6.584   7.316   0.549
 5428TIP3    H216242   6.518   7.423   0.634
 5429TIP3   OH216243   1.689   6.931   2.267
 5429TIP3    H116244   1.725   6.989   2.200
 5429TIP3    H216245   1.684   6.845   2.225
 5430TIP3   OH216246   6.926   0.173   3.270
 5430TIP3    H116247   7.014   0.200   3.246
 5430TIP3    H216248   6.936   0.081   3.297
 5431TIP3   OH216249   3.561   1.371   5.155
 5431TIP3    H116250   3.646   1.334   5.180
 5431TIP3    H216251   3.505   1.357   5.232
 5432TIP3   OH216252   4.864   2.252   4.208
 5432TIP3    H116253   4.860   2.157   4.219
 5432TIP3    H216254   4.925   2.281   4.276
 5433TIP3   OH216255   5.322   5.266   3.433
 5433TIP3    H116256   5.248   5.289   3.489
 5433TIP3    H216257   5.288   5.273   3.344
 5434TIP3   OH216258   5.398   5.234   1.238
 5434TIP3    H116259   5.396   5.183   1.157
 5434TIP3    H216260   5.325   5.295   1.230
 5435TIP3   OH216261   5.078   4.254   4.943
 5435TIP3    H116262   5.133   4.275   5.018
 5435TIP3    H216263   5.140   4.228   4.875
 5436TIP3   OH216264   5.909   4.812   2.704
 5436TIP3    H116265   5.984   4.822   2.762
 5436TIP3    H216266   5.936   4.853   2.622
 5437TIP3   OH216267   5.863   5.489   3.556
 5437TIP3    H116268   5.880   5.577   3.522
 5437TIP3    H216269   5.768   5.481   3.554
 5438TIP3   OH216270   5.675   5.274   5.487
 5438TIP3    H116271   5.758   5.251   5.443
 5438TIP3    H216272   5.619   5.306   5.416
 5439TIP3   OH216273   4.805   4.605   6.665
 5439TIP3    H116274   4.732   4.632   6.721
 5439TIP3    H216275   4.883   4.633   6.712
 5440TIP3   OH216276   4.697   3.132   2.915
 5440TIP3    H116277   4.664   3.046   2.892
 5440TIP3    H216278   4.782   3.138   2.872
 5441TIP3   OH216279   7.084   3.302   6.121
 5441TIP3    H116280   7.046   3.389   6.118
 5441TIP3    H216281   7.163   3.312   6.174
 5442TIP3   OH216282   2.222   6.984   1.501
 5442TIP3    H116283   2.299   7.036   1.526
 5442TIP3    H216284   2.256   6.896   1.488
 5443TIP3   OH216285   1.528   6.750   4.795
 5443TIP3    H116286   1.454   6.690   4.787
 5443TIP3    H216287   1.594   6.716   4.735
 5444TIP3   OH216288   8.178   6.897   3.699
 5444TIP3    H116289   8.172   6.886   3.604
 5444TIP3    H216290   8.250   6.840   3.724
 5445TIP3   OH216291   0.505   5.272   3.628
 5445TIP3    H116292   0.505   5.299   3.720
 5445TIP3    H216293   0.554   5.190   3.628
 5446TIP3   OH216294   1.772   5.971   0.651
 5446TIP3    H116295   1.731   5.924   0.579
 5446TIP3    H216296   1.865   5.974   0.628
 5447TIP3   OH216297   0.179   1.032   5.426
 5447TIP3    H116298   0.246   1.055   5.491
 5447TIP3    H216299   0.126   1.112   5.417
 5448TIP3   OH216300   7.829   5.824   4.444
 5448TIP3    H116301   7.812   5.731   4.452
 5448TIP3    H216302   7.863   5.850   4.529
 5449TIP3   OH216303   0.902   0.520   1.290
 5449TIP3    H116304   0.826   0.491   1.240
 5449TIP3    H216305   0.891   0.615   1.298
 5450TIP3   OH216306   0.372   3.977   4.997
 5450TIP3    H116307   0.297   4.004   4.944
 5450TIP3    H216308   0.334   3.927   5.069
 5451TIP3   OH216309   6.907   3.557   6.183
 5451TIP3    H116310   6.909   3.652   6.199
 5451TIP3    H216311   6.814   3.536   6.175
 5452TIP3   OH216312   3.538   0.792   5.839
 5452TIP3    H116313   3.627   0.764   5.821
 5452TIP3    H216314   3.528   0.874   5.791
 5453TIP3   OH216315   0.232   2.409   1.930
 5453TIP3    H116316   0.196   2.453   2.007
 5453TIP3    H216317   0.226   2.474   1.860
 5454TIP3   OH216318   3.786   7.820   5.974
 5454TIP3    H116319   3.729   7.827   6.050
 5454TIP3    H216320   3.848   7.751   5.995
 5455TIP3   OH216321   2.825   7.271   2.980
 5455TIP3    H116322   2.888   7.251   2.910
 5455TIP3    H216323   2.740   7.247   2.943
 5456TIP3   OH216324   7.624   3.634   2.119
 5456TIP3    H116325   7.674   3.667   2.044
 5456TIP3    H216326   7.536   3.617   2.084
 5457TIP3   OH216327   4.763   5.805   5.272
 5457TIP3    H116328   4.814   5.758   5.337
 5457TIP3    H216329   4.811   5.887   5.259
 5458TIP3   OH216330   7.190   0.307   3.225
 5458TIP3    H116331   7.257   0.242   3.205
 5458TIP3    H216332   7.237   0.377   3.270
 5459TIP3   OH216333   3.574   2.030   2.733
 5459TIP3    H116334   3.499   1.978   2.702
 5459TIP3    H216335   3.599   1.988   2.815
 5460TIP3   OH216336   3.466   7.185   5.702
 5460TIP3    H116337   3.417   7.229   5.771
 5460TIP3    H216338   3.419   7.103   5.687
 5461TIP3   OH216339   7.595   5.090   2.964
 5461TIP3    H116340   7.556   5.131   3.041
 5461TIP3    H216341   7.564   5.000   2.966
 5462TIP3   OH216342   1.030   5.729   2.081
 5462TIP3    H116343   0.936   5.721   2.096
 5462TIP3    H216344   1.047   5.675   2.004
 5463TIP3   OH216345   5.451   4.838   3.238
 5463TIP3    H116346   5.417   4.846   3.149
 5463TIP3    H216347   5.539   4.800   3.227
 5464TIP3   OH216348   1.071   0.896   4.127
 5464TIP3    H116349   1.018   0.830   4.083
 5464TIP3    H216350   1.157   0.890   4.085
 5465TIP3   OH216351   1.150   1.447   4.524
 5465TIP3    H116352   1.090   1.453   4.599
 5465TIP3    H216353   1.179   1.355   4.524
 5466TIP3   OH216354   0.406   3.094   3.259
 5466TIP3    H116355   0.500   3.080   3.261
 5466TIP3    H216356   0.369   3.008   3.240
 5467TIP3   OH216357   5.203   6.339   0.952
 5467TIP3    H116358   5.298   6.336   0.965
 5467TIP3    H216359   5.166   6.317   1.037
 5468TIP3   OH216360   5.668   7.458   5.421
 5468TIP3    H116361   5.650   7.364   5.418
 5468TIP3    H216362   5.608   7.497   5.357
 5469TIP3   OH216363   2.128   7.748   5.892
 5469TIP3    H116364   2.071   7.822   5.915
 5469TIP3    H216365   2.138   7.755   5.797
 5470TIP3   OH216366   5.962   4.209   2.624
 5470TIP3    H116367   5.964   4.220   2.529
 5470TIP3    H216368   6.011   4.285   2.657
 5471TIP3   OH216369   3.410   1.899   0.966
 5471TIP3    H116370   3.473   1.827   0.963
 5471TIP3    H216371   3.447   1.961   1.030
 5472TIP3   OH216372   2.478   1.311   6.189
 5472TIP3    H116373   2.406   1.254   6.161
 5472TIP3    H216374   2.441   1.363   6.261
 5473TIP3   OH216375   7.998   4.467   1.071
 5473TIP3    H116376   7.914   4.422   1.079
 5473TIP3    H216377   8.058   4.399   1.040
 5474TIP3   OH216378   5.557   1.650   4.027
 5474TIP3    H116379   5.652   1.665   4.027
 5474TIP3    H216380   5.527   1.687   3.944
 5475TIP3   OH216381   4.383   7.066   5.254
 5475TIP3    H116382   4.293   7.059   5.287
 5475TIP3    H216383   4.412   7.152   5.284
 5476TIP3   OH216384   1.320   6.206   4.587
 5476TIP3    H116385   1.277   6.245   4.510
 5476TIP3    H216386   1.275   6.122   4.598
 5477TIP3   OH216387   5.613   1.036   1.697
 5477TIP3    H116388   5.603   1.131   1.706
 5477TIP3    H216389   5.688   1.015   1.752
 5478TIP3   OH216390   1.529   4.140   3.667
 5478TIP3    H116391   1.504   4.136   3.759
 5478TIP3    H216392   1.467   4.202   3.628
 5479TIP3   OH216393   4.192   2.412   2.137
 5479TIP3    H116394   4.183   2.422   2.042
 5479TIP3    H216395   4.203   2.318   2.150
 5480TIP3   OH216396   4.825   3.941   1.530
 5480TIP3    H116397   4.757   3.904   1.473
 5480TIP3    H216398   4.789   3.932   1.618
 5481TIP3   OH216399   4.040   3.961   5.583
 5481TIP3    H116400   4.095   3.988   5.509
 5481TIP3    H216401   4.102   3.939   5.652
 5482TIP3   OH216402   1.928   5.498   5.253
 5482TIP3    H116403   1.840   5.476   5.224
 5482TIP3    H216404   1.975   5.521   5.173
 5483TIP3   OH216405   2.865   7.020   3.383
 5483TIP3    H116406   2.924   6.986   3.450
 5483TIP3    H216407   2.803   6.950   3.367
 5484TIP3   OH216408   1.477   1.893   5.262
 5484TIP3    H116409   1.409   1.960   5.260
 5484TIP3    H216410   1.543   1.925   5.201
 5485TIP3   OH216411   3.163   1.297   3.740
 5485TIP3    H116412   3.131   1.211   3.712
 5485TIP3    H216413   3.203   1.281   3.825
 5486TIP3   OH216414   3.602   6.466   1.284
 5486TIP3    H116415   3.600   6.556   1.253
 5486TIP3    H216416   3.695   6.448   1.300
 5487TIP3   OH216417   5.816   7.229   4.018
 5487TIP3    H116418   5.910   7.245   4.011
 5487TIP3    H216419   5.784   7.238   3.928
 5488TIP3   OH216420   2.680   5.612   5.108
 5488TIP3    H116421   2.666   5.666   5.030
 5488TIP3    H216422   2.592   5.599   5.144
 5489TIP3   OH216423   8.122   6.760   4.428
 5489TIP3    H116424   8.140   6.678   4.381
 5489TIP3    H216425   8.121   6.827   4.360
 5490TIP3   OH216426   2.414   5.685   6.392
 5490TIP3    H116427   2.380   5.637   6.467
 5490TIP3    H216428   2.398   5.628   6.317
 5491TIP3   OH216429   2.195   6.385   0.206
 5491TIP3    H116430   2.281   6.382   0.246
 5491TIP3    H216431   2.208   6.349   0.118
 5492TIP3   OH216432   1.404   2.245   5.335
 5492TIP3    H116433   1.339   2.315   5.323
 5492TIP3    H216434   1.412   2.205   5.248
 5493TIP3   OH216435   8.032   2.877   3.544
 5493TIP3    H116436   8.083   2.799   3.566
 5493TIP3    H216437   8.080   2.917   3.471
 5494TIP3   OH216438   2.111   0.239   2.116
 5494TIP3    H116439   2.200   0.206   2.114
 5494TIP3    H216440   2.065   0.181   2.177
 5495TIP3   OH216441   2.648   4.299   2.589
 5495TIP3    H116442   2.557   4.327   2.603
 5495TIP3    H216443   2.691   4.377   2.553
 5496TIP3   OH216444   2.436   7.424   1.906
 5496TIP3    H116445   2.385   7.345   1.922
 5496TIP3    H216446   2.406   7.454   1.819
 5497TIP3   OH216447   6.857   0.954   0.450
 5497TIP3    H116448   6.864   0.896   0.527
 5497TIP3    H216449   6.860   1.042   0.486
 5498TIP3   OH216450   1.899   5.990   2.618
 5498TIP3    H116451   1.827   6.031   2.570
 5498TIP3    H216452   1.923   6.053   2.685
 5499TIP3   OH216453   4.443   5.232   6.765
 5499TIP3    H116454   4.425   5.142   6.792
 5499TIP3    H216455   4.382   5.248   6.693
 5500TIP3   OH216456   8.018   5.830   3.417
 5500TIP3    H116457   7.968   5.748   3.416
 5500TIP3    H216458   8.015   5.857   3.509
 5501TIP3   OH216459   3.445   2.950   5.708
 5501TIP3    H116460   3.508   2.957   5.636
 5501TIP3    H216461   3.360   2.971   5.668
 5502TIP3   OH216462   1.384   7.340   0.270
 5502TIP3    H116463   1.297   7.358   0.306
 5502TIP3    H216464   1.368   7.317   0.178
 5503TIP3   OH216465   3.764   2.033   5.828
 5503TIP3    H116466   3.708   1.993   5.761
 5503TIP3    H216467   3.758   2.127   5.811
 5504TIP3   OH216468   4.568   3.564   2.696
 5504TIP3    H116469   4.588   3.600   2.609
 5504TIP3    H216470   4.577   3.639   2.755
 5505TIP3   OH216471   5.256   7.295   2.643
 5505TIP3    H116472   5.247   7.337   2.557
 5505TIP3    H216473   5.191   7.338   2.698
 5506TIP3   OH216474   7.763   3.103   6.017
 5506TIP3    H116475   7.730   3.190   5.991
 5506TIP3    H216476   7.855   3.118   6.038
 5507TIP3   OH216477   2.000   2.017   4.080
 5507TIP3    H116478   1.965   1.932   4.051
 5507TIP3    H216479   1.999   2.071   4.000
 5508TIP3   OH216480   8.294   2.182   5.232
 5508TIP3    H116481   8.311   2.257   5.176
 5508TIP3    H216482   8.209   2.201   5.272
 5509TIP3   OH216483   7.071   4.106   2.196
 5509TIP3    H116484   7.005   4.157   2.148
 5509TIP3    H216485   7.036   4.017   2.195
 5510TIP3   OH216486   2.836   1.813   6.734
 5510TIP3    H116487   2.761   1.840   6.787
 5510TIP3    H216488   2.870   1.895   6.697
 5511TIP3   OH216489   0.119   7.772   4.198
 5511TIP3    H116490   0.057   7.844   4.205
 5511TIP3    H216491   0.082   7.714   4.132
 5512TIP3   OH216492   0.805   6.986   1.614
 5512TIP3    H116493   0.717   6.958   1.639
 5512TIP3    H216494   0.851   6.997   1.698
 5513TIP3   OH216495   7.553   0.595   2.333
 5513TIP3    H116496   7.641   0.562   2.353
 5513TIP3    H216497   7.519   0.533   2.268
 5514TIP3   OH216498   3.822   7.107   4.050
 5514TIP3    H116499   3.911   7.142   4.050
 5514TIP3    H216500   3.807   7.079   3.960
 5515TIP3   OH216501   4.978   5.037   3.098
 5515TIP3    H116502   4.964   5.132   3.096
 5515TIP3    H216503   4.964   5.009   3.008
 5516TIP3   OH216504   0.844   2.840   6.178
 5516TIP3    H116505   0.924   2.788   6.188
 5516TIP3    H216506   0.859   2.917   6.233
 5517TIP3   OH216507   0.956   4.187   4.849
 5517TIP3    H116508   1.017   4.226   4.786
 5517TIP3    H216509   1.008   4.174   4.928
 5518TIP3   OH216510   5.529   4.094   4.916
 5518TIP3    H116511   5.536   4.031   4.844
 5518TIP3    H216512   5.440   4.128   4.909
 5519TIP3   OH216513   5.114   7.648   6.717
 5519TIP3    H116514   5.162   7.702   6.654
 5519TIP3    H216515   5.085   7.711   6.784
 5520TIP3   OH216516   7.659   6.706   0.281
 5520TIP3    H116517   7.702   6.685   0.198
 5520TIP3    H216518   7.606   6.629   0.301
 5521TIP3   OH216519   5.580   7.188   5.633
 5521TIP3    H116520   5.621   7.129   5.696
 5521TIP3    H216521   5.544   7.259   5.685
 5522TIP3   OH216522   7.959   1.177   2.055
 5522TIP3    H116523   8.003   1.166   1.970
 5522TIP3    H216524   8.001   1.112   2.112
 5523TIP3   OH216525   7.625   2.455   0.584
 5523TIP3    H116526   7.670   2.528   0.628
 5523TIP3    H216527   7.533   2.480   0.584
 5524TIP3   OH216528   0.491   0.816   5.861
 5524TIP3    H116529   0.432   0.782   5.929
 5524TIP3    H216530   0.571   0.765   5.871
 5525TIP3   OH216531   4.548   3.966   3.728
 5525TIP3    H116532   4.541   4.057   3.699
 5525TIP3    H216533   4.600   3.970   3.808
 5526TIP3   OH216534   2.125   2.316   4.093
 5526TIP3    H116535   2.035   2.288   4.076
 5526TIP3    H216536   2.138   2.391   4.036
 5527TIP3   OH216537   6.843   5.844   4.253
 5527TIP3    H116538   6.923   5.892   4.278
 5527TIP3    H216539   6.787   5.911   4.215
 5528TIP3   OH216540   6.399   3.882   0.749
 5528TIP3    H116541   6.409   3.789   0.729
 5528TIP3    H216542   6.488   3.916   0.755
 5529TIP3   OH216543   2.692   2.118   3.134
 5529TIP3    H116544   2.634   2.154   3.067
 5529TIP3    H216545   2.777   2.110   3.091
 5530TIP3   OH216546   3.606   3.337   6.393
 5530TIP3    H116547   3.580   3.379   6.475
 5530TIP3    H216548   3.616   3.244   6.416
 5531TIP3   OH216549   7.782   4.442   2.402
 5531TIP3    H116550   7.757   4.397   2.322
 5531TIP3    H216551   7.715   4.510   2.414
 5532TIP3   OH216552   4.330   2.425   1.199
 5532TIP3    H116553   4.393   2.462   1.137
 5532TIP3    H216554   4.259   2.489   1.201
 5533TIP3   OH216555   1.395   5.100   1.196
 5533TIP3    H116556   1.445   5.152   1.258
 5533TIP3    H216557   1.409   5.009   1.224
 5534TIP3   OH216558   3.422   7.108   4.461
 5534TIP3    H116559   3.379   7.150   4.387
 5534TIP3    H216560   3.359   7.043   4.491
 5535TIP3   OH216561   7.082   0.525   1.901
 5535TIP3    H116562   6.989   0.546   1.895
 5535TIP3    H216563   7.097   0.508   1.994
 5536TIP3   OH216564   7.080   5.168   4.302
 5536TIP3    H116565   7.102   5.261   4.296
 5536TIP3    H216566   7.053   5.155   4.393
 5537TIP3   OH216567   1.699   0.816   4.642
 5537TIP3    H116568   1.672   0.757   4.713
 5537TIP3    H216569   1.658   0.778   4.564
 5538TIP3   OH216570   0.685   5.477   1.080
 5538TIP3    H116571   0.649   5.390   1.060
 5538TIP3    H216572   0.763   5.458   1.132
 5539TIP3   OH216573   4.750   3.745   3.661
 5539TIP3    H116574   4.698   3.680   3.614
 5539TIP3    H216575   4.807   3.783   3.594
 5540TIP3   OH216576   8.249   4.285   4.893
 5540TIP3    H116577   8.191   4.254   4.823
 5540TIP3    H216578   8.202   4.358   4.933
 5541TIP3   OH216579   1.917   2.379   5.722
 5541TIP3    H116580   2.008   2.410   5.724
 5541TIP3    H216581   1.915   2.308   5.786
 5542TIP3   OH216582   0.716   1.170   5.834
 5542TIP3    H116583   0.772   1.181   5.757
 5542TIP3    H216584   0.657   1.245   5.832
 5543TIP3   OH216585   4.817   1.394   4.226
 5543TIP3    H116586   4.885   1.420   4.164
 5543TIP3    H216587   4.840   1.304   4.252
 5544TIP3   OH216588   6.895   0.804   2.893
 5544TIP3    H116589   6.925   0.894   2.879
 5544TIP3    H216590   6.831   0.810   2.964
 5545TIP3   OH216591   2.080   3.062   5.473
 5545TIP3    H116592   2.124   3.092   5.393
 5545TIP3    H216593   1.987   3.075   5.456
 5546TIP3   OH216594   6.683   7.445   0.962
 5546TIP3    H116595   6.671   7.532   0.999
 5546TIP3    H216596   6.661   7.385   1.034
 5547TIP3   OH216597   5.306   6.821   2.517
 5547TIP3    H116598   5.242   6.879   2.558
 5547TIP3    H216599   5.283   6.733   2.548
 5548TIP3   OH216600   6.421   1.218   4.172
 5548TIP3    H116601   6.364   1.175   4.235
 5548TIP3    H216602   6.364   1.240   4.099
 5549TIP3   OH216603   4.451   1.309   4.435
 5549TIP3    H116604   4.520   1.243   4.440
 5549TIP3    H216605   4.498   1.390   4.414
 5550TIP3   OH216606   3.076   0.464   2.787
 5550TIP3    H116607   3.023   0.528   2.834
 5550TIP3    H216608   3.165   0.479   2.819
 5551TIP3   OH216609   6.776   3.758   3.112
 5551TIP3    H116610   6.854   3.810   3.128
 5551TIP3    H216611   6.741   3.792   3.030
 5552TIP3   OH216612   7.787   6.538   5.693
 5552TIP3    H116613   7.768   6.616   5.640
 5552TIP3    H216614   7.775   6.465   5.633
 5553TIP3   OH216615   3.261   0.472   5.008
 5553TIP3    H116616   3.288   0.472   5.099
 5553TIP3    H216617   3.339   0.499   4.959
 5554TIP3   OH216618   3.443   2.581   5.296
 5554TIP3    H116619   3.494   2.579   5.376
 5554TIP3    H216620   3.507   2.600   5.227
 5555TIP3   OH216621   8.160   7.390   4.110
 5555TIP3    H116622   8.134   7.308   4.067
 5555TIP3    H216623   8.198   7.362   4.193
 5556TIP3   OH216624   1.993   0.547   5.196
 5556TIP3    H116625   1.939   0.562   5.274
 5556TIP3    H216626   1.945   0.482   5.145
 5557TIP3   OH216627   4.453   0.357   5.826
 5557TIP3    H116628   4.422   0.443   5.855
 5557TIP3    H216629   4.534   0.343   5.875
 5558TIP3   OH216630   7.216   0.153   5.072
 5558TIP3    H116631   7.145   0.214   5.091
 5558TIP3    H216632   7.267   0.150   5.153
 5559TIP3   OH216633   3.575   0.876   0.281
 5559TIP3    H116634   3.639   0.813   0.246
 5559TIP3    H216635   3.490   0.839   0.259
 5560TIP3   OH216636   6.794   3.433   3.688
 5560TIP3    H116637   6.877   3.467   3.653
 5560TIP3    H216638   6.750   3.395   3.612
 5561TIP3   OH216639   2.298   6.408   6.729
 5561TIP3    H116640   2.262   6.491   6.697
 5561TIP3    H216641   2.242   6.383   6.802
 5562TIP3   OH216642   1.125   4.226   2.428
 5562TIP3    H116643   1.063   4.282   2.474
 5562TIP3    H216644   1.079   4.196   2.350
 5563TIP3   OH216645   3.757   7.653   4.705
 5563TIP3    H116646   3.696   7.595   4.659
 5563TIP3    H216647   3.781   7.605   4.784
 5564TIP3   OH216648   0.390   1.719   6.294
 5564TIP3    H116649   0.469   1.770   6.312
 5564TIP3    H216650   0.419   1.628   6.299
 5565TIP3   OH216651   7.590   7.626   3.202
 5565TIP3    H116652   7.561   7.618   3.112
 5565TIP3    H216653   7.516   7.593   3.254
 5566TIP3   OH216654   1.734   6.846   4.367
 5566TIP3    H116655   1.734   6.852   4.271
 5566TIP3    H216656   1.783   6.766   4.385
 5567TIP3   OH216657   7.133   5.659   1.089
 5567TIP3    H116658   7.197   5.589   1.098
 5567TIP3    H216659   7.106   5.679   1.179
 5568TIP3   OH216660   7.432   1.971   1.482
 5568TIP3    H116661   7.429   1.892   1.535
 5568TIP3    H216662   7.428   2.043   1.545
 5569TIP3   OH216663   0.483   7.393   1.546
 5569TIP3    H116664   0.487   7.379   1.640
 5569TIP3    H216665   0.547   7.332   1.509
 5570TIP3   OH216666   7.880   6.109   5.069
 5570TIP3    H116667   7.823   6.125   4.994
 5570TIP3    H216668   7.920   6.025   5.050
 5571TIP3   OH216669   3.670   2.039   0.372
 5571TIP3    H116670   3.597   2.100   0.378
 5571TIP3    H216671   3.630   1.953   0.376
 5572TIP3   OH216672   1.514   4.393   6.241
 5572TIP3    H116673   1.441   4.385   6.303
 5572TIP3    H216674   1.592   4.377   6.294
 5573TIP3   OH216675   4.162   2.160   5.740
 5573TIP3    H116676   4.141   2.134   5.650
 5573TIP3    H216677   4.127   2.249   5.748
 5574TIP3   OH216678   3.438   1.788   3.964
 5574TIP3    H116679   3.411   1.700   3.935
 5574TIP3    H216680   3.437   1.783   4.059
 5575TIP3   OH216681   2.395   7.558   5.496
 5575TIP3    H116682   2.302   7.549   5.519
 5575TIP3    H216683   2.394   7.591   5.406
 5576TIP3   OH216684   1.594   4.202   0.121
 5576TIP3    H116685   1.586   4.269   0.189
 5576TIP3    H216686   1.610   4.251   0.040
 5577TIP3   OH216687   3.494   7.834   0.209
 5577TIP3    H116688   3.518   7.743   0.190
 5577TIP3    H216689   3.406   7.828   0.246
 5578TIP3   OH216690   7.063   3.306   4.037
 5578TIP3    H116691   7.044   3.251   3.961
 5578TIP3    H216692   7.039   3.394   4.011
 5579TIP3   OH216693   3.316   1.072   4.368
 5579TIP3    H116694   3.383   1.065   4.436
 5579TIP3    H216695   3.354   1.031   4.291
 5580TIP3   OH216696   1.847   4.568   5.113
 5580TIP3    H116697   1.901   4.492   5.090
 5580TIP3    H216698   1.901   4.619   5.173
 5581TIP3   OH216699   2.211   0.211   1.185
 5581TIP3    H116700   2.178   0.229   1.273
 5581TIP3    H216701   2.283   0.272   1.173
 5582TIP3   OH216702   6.502   1.953   0.198
 5582TIP3    H116703   6.515   1.902   0.278
 5582TIP3    H216704   6.584   2.002   0.187
 5583TIP3   OH216705   5.451   1.630   6.076
 5583TIP3    H116706   5.468   1.539   6.051
 5583TIP3    H216707   5.525   1.654   6.131
 5584TIP3   OH216708   3.615   1.210   3.097
 5584TIP3    H116709   3.703   1.174   3.108
 5584TIP3    H216710   3.571   1.149   3.037
 5585TIP3   OH216711   1.608   7.590   0.951
 5585TIP3    H116712   1.636   7.616   1.038
 5585TIP3    H216713   1.637   7.500   0.942
 5586TIP3   OH216714   0.304   6.582   2.337
 5586TIP3    H116715   0.390   6.540   2.331
 5586TIP3    H216716   0.258   6.531   2.404
 5587TIP3   OH216717   5.692   3.527   5.175
 5587TIP3    H116718   5.733   3.490   5.253
 5587TIP3    H216719   5.664   3.615   5.200
 5588TIP3   OH216720   7.590   0.139   1.643
 5588TIP3    H116721   7.562   0.047   1.643
 5588TIP3    H216722   7.582   0.167   1.552
 5589TIP3   OH216723   3.752   2.586   4.006
 5589TIP3    H116724   3.830   2.560   4.054
 5589TIP3    H216725   3.680   2.543   4.052
 5590TIP3   OH216726   7.650   7.614   6.332
 5590TIP3    H116727   7.738   7.645   6.309
 5590TIP3    H216728   7.592   7.654   6.268
 5591TIP3   OH216729   7.619   3.325   0.975
 5591TIP3    H116730   7.674   3.247   0.965
 5591TIP3    H216731   7.631   3.372   0.893
 5592TIP3   OH216732   1.932   7.285   0.141
 5592TIP3    H116733   1.846   7.311   0.175
 5592TIP3    H216734   1.918   7.270   0.048
 5593TIP3   OH216735   2.938   4.495   6.321
 5593TIP3    H116736   2.860   4.482   6.375
 5593TIP3    H216737   2.929   4.584   6.288
 5594TIP3   OH216738   7.010   2.434   3.574
 5594TIP3    H116739   6.950   2.374   3.529
 5594TIP3    H216740   6.995   2.518   3.532
 5595TIP3   OH216741   2.231   2.596   1.621
 5595TIP3    H116742   2.226   2.687   1.648
 5595TIP3    H216743   2.153   2.555   1.659
 5596TIP3   OH216744   8.212   6.665   4.029
 5596TIP3    H116745   8.195   6.757   4.005
 5596TIP3    H216746   8.202   6.617   3.947
 5597TIP3   OH216747   1.843   7.048   3.799
 5597TIP3    H116748   1.771   6.985   3.793
 5597TIP3    H216749   1.901   7.027   3.726
 5598TIP3   OH216750   0.383   6.416   3.910
 5598TIP3    H116751   0.310   6.392   3.968
 5598TIP3    H216752   0.444   6.343   3.918
 5599TIP3   OH216753   2.092   4.957   3.714
 5599TIP3    H116754   2.133   4.875   3.742
 5599TIP3    H216755   2.143   5.025   3.756
 5600TIP3   OH216756   7.046   5.247   1.880
 5600TIP3    H116757   6.959   5.285   1.888
 5600TIP3    H216758   7.106   5.321   1.892
 5601TIP3   OH216759   3.898   3.238   6.119
 5601TIP3    H116760   3.934   3.249   6.031
 5601TIP3    H216761   3.818   3.291   6.119
 5602TIP3   OH216762   3.437   0.740   2.142
 5602TIP3    H116763   3.492   0.814   2.166
 5602TIP3    H216764   3.427   0.747   2.047
 5603TIP3   OH216765   4.169   0.334   1.849
 5603TIP3    H116766   4.130   0.342   1.762
 5603TIP3    H216767   4.221   0.414   1.860
 5604TIP3   OH216768   7.464   6.093   1.513
 5604TIP3    H116769   7.527   6.091   1.441
 5604TIP3    H216770   7.410   6.015   1.500
 5605TIP3   OH216771   2.534   0.818   0.238
 5605TIP3    H116772   2.565   0.834   0.327
 5605TIP3    H216773   2.439   0.833   0.243
 5606TIP3   OH216774   5.034   0.959   3.265
 5606TIP3    H116775   5.003   0.915   3.186
 5606TIP3    H216776   4.991   1.045   3.262
 5607TIP3   OH216777   4.175   5.012   5.451
 5607TIP3    H116778   4.085   4.983   5.443
 5607TIP3    H216779   4.210   5.010   5.362
 5608TIP3   OH216780   7.798   4.932   0.003
 5608TIP3    H116781   7.728   4.892   0.055
 5608TIP3    H216782   7.796   5.024   0.027
 5609TIP3   OH216783   1.653   7.309   0.874
 5609TIP3    H116784   1.586   7.276   0.934
 5609TIP3    H216785   1.724   7.245   0.880
 5610TIP3   OH216786   5.267   6.206   2.373
 5610TIP3    H116787   5.306   6.132   2.420
 5610TIP3    H216788   5.327   6.223   2.300
 5611TIP3   OH216789   2.244   7.224   3.919
 5611TIP3    H116790   2.262   7.193   3.830
 5611TIP3    H216791   2.181   7.162   3.955
 5612TIP3   OH216792   4.624   6.589   5.653
 5612TIP3    H116793   4.571   6.515   5.624
 5612TIP3    H216794   4.702   6.585   5.597
 5613TIP3   OH216795   7.549   2.055   5.234
 5613TIP3    H116796   7.615   1.987   5.218
 5613TIP3    H216797   7.488   2.015   5.296
 5614TIP3   OH216798   3.961   7.152   3.007
 5614TIP3    H116799   4.030   7.218   3.012
 5614TIP3    H216800   3.931   7.157   2.916
 5615TIP3   OH216801   8.008   1.081   3.167
 5615TIP3    H116802   8.084   1.134   3.143
 5615TIP3    H216803   7.940   1.144   3.191
 5616TIP3   OH216804   0.086   6.519   4.793
 5616TIP3    H116805   0.113   6.483   4.878
 5616TIP3    H216806   0.143   6.595   4.780
 5617TIP3   OH216807   4.200   5.628   3.060
 5617TIP3    H116808   4.195   5.576   3.141
 5617TIP3    H216809   4.262   5.698   3.080
 5618TIP3   OH216810   7.012   0.816   2.590
 5618TIP3    H116811   6.962   0.896   2.570
 5618TIP3    H216812   7.103   0.841   2.578
 5619TIP3   OH216813   0.780   7.114   2.534
 5619TIP3    H116814   0.697   7.133   2.577
 5619TIP3    H216815   0.762   7.040   2.477
 5620TIP3   OH216816   5.854   2.001   4.523
 5620TIP3    H116817   5.844   1.906   4.535
 5620TIP3    H216818   5.807   2.039   4.597
 5621TIP3   OH216819   1.930   5.431   2.624
 5621TIP3    H116820   1.881   5.511   2.608
 5621TIP3    H216821   2.009   5.438   2.571
 5622TIP3   OH216822   1.241   7.464   3.834
 5622TIP3    H116823   1.334   7.447   3.818
 5622TIP3    H216824   1.199   7.379   3.824
 5623TIP3   OH216825   1.719   6.098   5.488
 5623TIP3    H116826   1.679   6.018   5.454
 5623TIP3    H216827   1.757   6.073   5.572
 5624TIP3   OH216828   5.486   4.381   6.394
 5624TIP3    H116829   5.443   4.464   6.416
 5624TIP3    H216830   5.416   4.316   6.399
 5625TIP3   OH216831   6.836   7.465   5.834
 5625TIP3    H116832   6.775   7.413   5.885
 5625TIP3    H216833   6.799   7.554   5.835
 5626TIP3   OH216834   7.964   4.576   4.654
 5626TIP3    H116835   8.010   4.596   4.572
 5626TIP3    H216836   7.910   4.653   4.670
 5627TIP3   OH216837   7.249   4.683   3.629
 5627TIP3    H116838   7.198   4.703   3.550
 5627TIP3    H216839   7.290   4.766   3.652
 5628TIP3   OH216840   4.658   3.149   1.216
 5628TIP3    H116841   4.611   3.155   1.133
 5628TIP3    H216842   4.706   3.232   1.222
 5629TIP3   OH216843   6.052   0.491   3.335
 5629TIP3    H116844   6.055   0.437   3.414
 5629TIP3    H216845   6.110   0.446   3.274
 5630TIP3   OH216846   3.276   3.620   6.627
 5630TIP3    H116847   3.222   3.698   6.641
 5630TIP3    H216848   3.229   3.550   6.672
 5631TIP3   OH216849   4.907   2.739   5.116
 5631TIP3    H116850   4.936   2.653   5.146
 5631TIP3    H216851   4.898   2.790   5.196
 5632TIP3   OH216852   4.540   3.287   6.382
 5632TIP3    H116853   4.467   3.235   6.349
 5632TIP3    H216854   4.594   3.305   6.305
 5633TIP3   OH216855   1.406   6.788   3.932
 5633TIP3    H116856   1.426   6.850   4.002
 5633TIP3    H216857   1.424   6.702   3.969
 5634TIP3   OH216858   0.837   4.676   4.676
 5634TIP3    H116859   0.897   4.725   4.733
 5634TIP3    H216860   0.895   4.631   4.614
 5635TIP3   OH216861   1.506   7.240   0.499
 5635TIP3    H116862   1.451   7.286   0.435
 5635TIP3    H216863   1.573   7.304   0.524
 5636TIP3   OH216864   4.084   1.041   5.241
 5636TIP3    H116865   4.042   0.957   5.222
 5636TIP3    H216866   4.068   1.094   5.163
 5637TIP3   OH216867   5.794   4.955   5.470
 5637TIP3    H116868   5.865   4.996   5.520
 5637TIP3    H216869   5.737   4.917   5.537
 5638TIP3   OH216870   0.534   2.745   5.147
 5638TIP3    H116871   0.520   2.794   5.228
 5638TIP3    H216872   0.620   2.704   5.158
 5639TIP3   OH216873   2.929   5.920   6.750
 5639TIP3    H116874   2.918   5.897   6.658
 5639TIP3    H216875   2.840   5.928   6.784
 5640TIP3   OH216876   1.693   1.513   3.925
 5640TIP3    H116877   1.610   1.509   3.973
 5640TIP3    H216878   1.692   1.436   3.868
 5641TIP3   OH216879   0.211   3.978   2.879
 5641TIP3    H116880   0.288   3.950   2.829
 5641TIP3    H216881   0.209   4.073   2.868
 5642TIP3   OH216882   3.437   2.644   3.252
 5642TIP3    H116883   3.454   2.667   3.160
 5642TIP3    H216884   3.360   2.696   3.275
 5643TIP3   OH216885   4.217   4.696   3.403
 5643TIP3    H116886   4.186   4.620   3.451
 5643TIP3    H216887   4.258   4.751   3.471
 5644TIP3   OH216888   4.482   1.188   3.832
 5644TIP3    H116889   4.392   1.181   3.802
 5644TIP3    H216890   4.498   1.282   3.838
 5645TIP3   OH216891   4.815   5.118   1.016
 5645TIP3    H116892   4.831   5.092   0.926
 5645TIP3    H216893   4.793   5.036   1.061
 5646TIP3   OH216894   1.600   0.756   4.363
 5646TIP3    H116895   1.666   0.770   4.295
 5646TIP3    H216896   1.521   0.797   4.329
 5647TIP3   OH216897   0.711   5.728   5.541
 5647TIP3    H116898   0.641   5.729   5.476
 5647TIP3    H216899   0.739   5.820   5.547
 5648TIP3   OH216900   4.570   5.327   5.692
 5648TIP3    H116901   4.492   5.288   5.730
 5648TIP3    H216902   4.547   5.419   5.680
 5649TIP3   OH216903   1.047   5.344   0.972
 5649TIP3    H116904   1.109   5.374   0.906
 5649TIP3    H216905   1.009   5.265   0.935
 5650TIP3   OH216906   5.859   0.216   0.780
 5650TIP3    H116907   5.769   0.232   0.749
 5650TIP3    H216908   5.893   0.148   0.721
 5651TIP3   OH216909   6.099   6.392   6.775
 5651TIP3    H116910   6.045   6.313   6.772
 5651TIP3    H216911   6.043   6.460   6.739
 5652TIP3   OH216912   0.520   1.351   5.925
 5652TIP3    H116913   0.457   1.280   5.936
 5652TIP3    H216914   0.473   1.418   5.875
 5653TIP3   OH216915   8.250   1.878   4.243
 5653TIP3    H116916   8.196   1.926   4.181
 5653TIP3    H216917   8.327   1.933   4.256
 5654TIP3   OH216918   4.254   2.605   2.404
 5654TIP3    H116919   4.270   2.516   2.435
 5654TIP3    H216920   4.178   2.597   2.347
 5655TIP3   OH216921   4.244   6.582   0.779
 5655TIP3    H116922   4.231   6.632   0.859
 5655TIP3    H216923   4.334   6.600   0.752
 5656TIP3   OH216924   4.847   1.043   6.334
 5656TIP3    H116925   4.859   1.006   6.422
 5656TIP3    H216926   4.801   1.126   6.349
 5657TIP3   OH216927   8.155   2.181   4.975
 5657TIP3    H116928   8.235   2.140   4.943
 5657TIP3    H216929   8.087   2.153   4.914
 5658TIP3   OH216930   3.230   6.864   2.881
 5658TIP3    H116931   3.134   6.865   2.877
 5658TIP3    H216932   3.252   6.783   2.926
 5659TIP3   OH216933   8.127   3.851   1.556
 5659TIP3    H116934   8.106   3.936   1.518
 5659TIP3    H216935   8.062   3.791   1.520
 5660TIP3   OH216936   0.382   5.514   2.551
 5660TIP3    H116937   0.477   5.506   2.543
 5660TIP3    H216938   0.367   5.523   2.645
 5661TIP3   OH216939   7.560   2.340   1.515
 5661TIP3    H116940   7.634   2.282   1.496
 5661TIP3    H216941   7.591   2.427   1.491
 5662TIP3   OH216942   3.573   1.304   4.525
 5662TIP3    H116943   3.612   1.369   4.468
 5662TIP3    H216944   3.583   1.341   4.613
 5663TIP3   OH216945   4.995   0.325   2.539
 5663TIP3    H116946   4.920   0.286   2.493
 5663TIP3    H216947   4.984   0.419   2.527
 5664TIP3   OH216948   1.727   0.093   4.306
 5664TIP3    H116949   1.679   0.015   4.331
 5664TIP3    H216950   1.728   0.147   4.385
 5665TIP3   OH216951   2.922   1.461   1.905
 5665TIP3    H116952   2.912   1.380   1.955
 5665TIP3    H216953   2.990   1.509   1.952
 5666TIP3   OH216954   7.418   1.195   1.737
 5666TIP3    H116955   7.464   1.146   1.804
 5666TIP3    H216956   7.420   1.285   1.766
 5667TIP3   OH216957   8.153   3.455   3.356
 5667TIP3    H116958   8.182   3.392   3.422
 5667TIP3    H216959   8.175   3.540   3.392
 5668TIP3   OH216960   1.201   6.228   6.665
 5668TIP3    H116961   1.191   6.313   6.707
 5668TIP3    H216962   1.170   6.241   6.576
 5669TIP3   OH216963   4.295   2.041   2.751
 5669TIP3    H116964   4.236   2.023   2.678
 5669TIP3    H216965   4.271   2.129   2.780
 5670TIP3   OH216966   6.288   6.905   4.616
 5670TIP3    H116967   6.244   6.977   4.659
 5670TIP3    H216968   6.312   6.845   4.686
 5671TIP3   OH216969   2.313   5.035   4.912
 5671TIP3    H116970   2.299   5.044   5.007
 5671TIP3    H216971   2.292   4.944   4.893
 5672TIP3   OH216972   3.198   4.642   3.180
 5672TIP3    H116973   3.241   4.701   3.242
 5672TIP3    H216974   3.271   4.602   3.131
 5673TIP3   OH216975   0.152   3.573   2.951
 5673TIP3    H116976   0.221   3.625   2.993
 5673TIP3    H216977   0.072   3.602   2.994
 5674TIP3   OH216978   5.725   0.449   5.012
 5674TIP3    H116979   5.768   0.379   4.963
 5674TIP3    H216980   5.797   0.501   5.049
 5675TIP3   OH216981   5.917   4.073   0.391
 5675TIP3    H116982   5.922   4.006   0.322
 5675TIP3    H216983   5.959   4.149   0.353
 5676TIP3   OH216984   3.088   7.829   4.797
 5676TIP3    H116985   3.159   7.779   4.837
 5676TIP3    H216986   3.018   7.829   4.863
 5677TIP3   OH216987   4.116   7.011   3.822
 5677TIP3    H116988   4.180   6.968   3.878
 5677TIP3    H216989   4.085   7.086   3.873
 5678TIP3   OH216990   0.775   2.437   3.812
 5678TIP3    H116991   0.781   2.427   3.717
 5678TIP3    H216992   0.686   2.467   3.827
 5679TIP3   OH216993   7.705   3.647   1.265
 5679TIP3    H116994   7.624   3.667   1.219
 5679TIP3    H216995   7.737   3.732   1.295
 5680TIP3   OH216996   4.106   3.035   6.174
 5680TIP3    H116997   4.095   2.960   6.232
 5680TIP3    H216998   4.032   3.092   6.195
 5681TIP3   OH216999   2.240   0.894   0.618
 5681TIP3    H117000   2.256   0.959   0.686
 5681TIP3    H217001   2.284   0.815   0.651
 5682TIP3   OH217002   1.816   1.814   2.576
 5682TIP3    H117003   1.840   1.895   2.621
 5682TIP3    H217004   1.723   1.825   2.556
 5683TIP3   OH217005   8.003   2.820   4.983
 5683TIP3    H117006   7.925   2.870   5.004
 5683TIP3    H217007   8.073   2.885   4.975
 5684TIP3   OH217008   2.148   7.809   3.633
 5684TIP3    H117009   2.123   7.899   3.653
 5684TIP3    H217010   2.159   7.807   3.537
 5685TIP3   OH217011   3.090   5.903   2.398
 5685TIP3    H117012   3.057   5.918   2.486
 5685TIP3    H217013   3.094   5.990   2.358
 5686TIP3   OH217014   0.596   2.583   2.250
 5686TIP3    H117015   0.633   2.669   2.225
 5686TIP3    H217016   0.537   2.561   2.178
 5687TIP3   OH217017   1.993   0.086   2.348
 5687TIP3    H117018   2.060   0.084   2.417
 5687TIP3    H217019   1.991  -0.004   2.314
 5688TIP3   OH217020   0.508   6.398   2.371
 5688TIP3    H117021   0.467   6.313   2.355
 5688TIP3    H217022   0.570   6.409   2.299
 5689TIP3   OH217023   2.686   1.564   6.130
 5689TIP3    H117024   2.632   1.488   6.151
 5689TIP3    H217025   2.633   1.616   6.071
 5690TIP3   OH217026   5.243   7.163   6.441
 5690TIP3    H117027   5.252   7.068   6.445
 5690TIP3    H217028   5.293   7.195   6.515
 5691TIP3   OH217029   2.297   5.386   4.360
 5691TIP3    H117030   2.360   5.336   4.413
 5691TIP3    H217031   2.292   5.339   4.277
 5692TIP3   OH217032   8.173   0.868   1.524
 5692TIP3    H117033   8.102   0.830   1.576
 5692TIP3    H217034   8.250   0.815   1.545
 5693TIP3   OH217035   4.394   0.566   4.449
 5693TIP3    H117036   4.345   0.497   4.493
 5693TIP3    H217037   4.390   0.543   4.356
 5694TIP3   OH217038   0.197   6.606   2.088
 5694TIP3    H117039   0.245   6.612   2.170
 5694TIP3    H217040   0.107   6.631   2.111
 5695TIP3   OH217041   5.436   2.771   1.749
 5695TIP3    H117042   5.513   2.826   1.731
 5695TIP3    H217043   5.426   2.719   1.670
 5696TIP3   OH217044   2.029   0.997   0.187
 5696TIP3    H117045   1.982   0.941   0.125
 5696TIP3    H217046   1.996   1.085   0.171
 5697TIP3   OH217047   0.189   1.861   6.107
 5697TIP3    H117048   0.224   1.801   6.173
 5697TIP3    H217049   0.240   1.941   6.120
 5698TIP3   OH217050   2.234   1.287   2.360
 5698TIP3    H117051   2.223   1.194   2.383
 5698TIP3    H217052   2.300   1.320   2.421
 5699TIP3   OH217053   0.710   0.600   2.645
 5699TIP3    H117054   0.663   0.611   2.728
 5699TIP3    H217055   0.741   0.509   2.647
 5700TIP3   OH217056   2.810   3.245   2.779
 5700TIP3    H117057   2.839   3.164   2.822
 5700TIP3    H217058   2.828   3.314   2.842
 5701TIP3   OH217059   3.196   4.937   4.764
 5701TIP3    H117060   3.274   4.973   4.721
 5701TIP3    H217061   3.186   4.989   4.843
 5702TIP3   OH217062   3.919   1.054   5.929
 5702TIP3    H117063   3.980   1.054   5.855
 5702TIP3    H217064   3.927   1.142   5.966
 5703TIP3   OH217065   2.220   1.169   5.089
 5703TIP3    H117066   2.306   1.211   5.088
 5703TIP3    H217067   2.173   1.209   5.016
 5704TIP3   OH217068   3.212   1.298   3.259
 5704TIP3    H117069   3.142   1.303   3.324
 5704TIP3    H217070   3.170   1.317   3.176
 5705TIP3   OH217071   0.846   7.644   3.342
 5705TIP3    H117072   0.809   7.684   3.263
 5705TIP3    H217073   0.772   7.599   3.382
 5706TIP3   OH217074   0.400   5.306   1.167
 5706TIP3    H117075   0.411   5.337   1.257
 5706TIP3    H217076   0.458   5.231   1.160
 5707TIP3   OH217077   2.183   1.373   0.082
 5707TIP3    H117078   2.090   1.363   0.103
 5707TIP3    H217079   2.214   1.440   0.144
 5708TIP3   OH217080   0.507   6.954   1.574
 5708TIP3    H117081   0.451   6.883   1.603
 5708TIP3    H217082   0.473   6.978   1.488
 5709TIP3   OH217083   5.317   5.111   2.720
 5709TIP3    H117084   5.242   5.163   2.693
 5709TIP3    H217085   5.312   5.108   2.815
 5710TIP3   OH217086   1.256   7.228   3.106
 5710TIP3    H117087   1.200   7.166   3.059
 5710TIP3    H217088   1.204   7.308   3.110
 5711TIP3   OH217089   5.823   2.499   0.905
 5711TIP3    H117090   5.800   2.577   0.854
 5711TIP3    H217091   5.878   2.448   0.846
 5712TIP3   OH217092   3.952   5.819   1.917
 5712TIP3    H117093   3.868   5.828   1.964
 5712TIP3    H217094   3.962   5.901   1.870
 5713TIP3   OH217095   8.272   3.288   6.310
 5713TIP3    H117096   8.230   3.311   6.393
 5713TIP3    H217097   8.301   3.198   6.321
 5714TIP3   OH217098   2.338   6.881   2.235
 5714TIP3    H117099   2.270   6.943   2.209
 5714TIP3    H217100   2.315   6.799   2.191
 5715TIP3   OH217101   3.997   3.200   1.054
 5715TIP3    H117102   3.998   3.104   1.060
 5715TIP3    H217103   3.918   3.220   1.004
 5716TIP3   OH217104   0.184   4.319   4.097
 5716TIP3    H117105   0.160   4.327   4.005
 5716TIP3    H217106   0.252   4.252   4.098
 5717TIP3   OH217107   3.769   2.251   0.749
 5717TIP3    H117108   3.693   2.198   0.725
 5717TIP3    H217109   3.735   2.339   0.762
 5718TIP3   OH217110   2.895   0.224   2.359
 5718TIP3    H117111   2.957   0.249   2.291
 5718TIP3    H217112   2.933   0.147   2.401
 5719TIP3   OH217113   1.380   6.099   6.097
 5719TIP3    H117114   1.441   6.165   6.066
 5719TIP3    H217115   1.420   6.016   6.073
 5720TIP3   OH217116   8.276   2.663   1.337
 5720TIP3    H117117   8.250   2.619   1.256
 5720TIP3    H217118   8.370   2.678   1.327
 5721TIP3   OH217119   1.718   2.540   4.337
 5721TIP3    H117120   1.650   2.508   4.278
 5721TIP3    H217121   1.671   2.571   4.414
 5722TIP3   OH217122   2.090   4.889   2.017
 5722TIP3    H117123   2.000   4.872   1.989
 5722TIP3    H217124   2.143   4.877   1.938
 5723TIP3   OH217125   4.424   7.596   6.787
 5723TIP3    H117126   4.497   7.577   6.728
 5723TIP3    H217127   4.429   7.691   6.801
 5724TIP3   OH217128   2.435   4.791   3.626
 5724TIP3    H117129   2.497   4.856   3.592
 5724TIP3    H217130   2.355   4.805   3.575
 5725TIP3   OH217131   0.731   2.459   1.392
 5725TIP3    H117132   0.803   2.461   1.455
 5725TIP3    H217133   0.692   2.372   1.402
 5726TIP3   OH217134   4.151   7.647   6.617
 5726TIP3    H117135   4.186   7.729   6.654
 5726TIP3    H217136   4.058   7.648   6.641
 5727TIP3   OH217137   3.285   7.504   4.489
 5727TIP3    H117138   3.357   7.472   4.435
 5727TIP3    H217139   3.209   7.501   4.432
 5728TIP3   OH217140   7.372   7.211   6.706
 5728TIP3    H117141   7.406   7.124   6.683
 5728TIP3    H217142   7.375   7.261   6.624
 5729TIP3   OH217143   1.288   5.740   6.581
 5729TIP3    H117144   1.249   5.818   6.620
 5729TIP3    H217145   1.267   5.746   6.488
 5730TIP3   OH217146   7.434   3.867   5.531
 5730TIP3    H117147   7.365   3.916   5.575
 5730TIP3    H217148   7.494   3.934   5.499
 5731TIP3   OH217149   3.249   5.792   0.467
 5731TIP3    H117150   3.328   5.761   0.512
 5731TIP3    H217151   3.259   5.761   0.377
 5732TIP3   OH217152   7.386   1.599   1.913
 5732TIP3    H117153   7.341   1.529   1.960
 5732TIP3    H217154   7.460   1.557   1.870
 5733TIP3   OH217155   4.651   4.679   0.103
 5733TIP3    H117156   4.630   4.586   0.096
 5733TIP3    H217157   4.569   4.724   0.080
 5734TIP3   OH217158   4.192   6.596   2.122
 5734TIP3    H117159   4.144   6.640   2.051
 5734TIP3    H217160   4.284   6.612   2.101
 5735TIP3   OH217161   1.372   1.975   3.028
 5735TIP3    H117162   1.307   1.980   2.957
 5735TIP3    H217163   1.345   1.899   3.080
 5736TIP3   OH217164   3.453   5.004   5.693
 5736TIP3    H117165   3.365   5.031   5.721
 5736TIP3    H217166   3.455   4.910   5.706
 5737TIP3   OH217167   1.936   6.708   4.904
 5737TIP3    H117168   1.959   6.796   4.935
 5737TIP3    H217169   1.887   6.724   4.823
 5738TIP3   OH217170   1.013   2.305   2.643
 5738TIP3    H117171   1.033   2.330   2.553
 5738TIP3    H217172   1.001   2.210   2.638
 5739TIP3   OH217173   0.526   6.229   2.916
 5739TIP3    H117174   0.512   6.256   2.825
 5739TIP3    H217175   0.462   6.279   2.967
 5740TIP3   OH217176   7.044   0.709   0.824
 5740TIP3    H117177   7.053   0.755   0.907
 5740TIP3    H217178   7.133   0.688   0.797
 5741TIP3   OH217179   2.609   6.709   5.740
 5741TIP3    H117180   2.516   6.717   5.721
 5741TIP3    H217181   2.645   6.661   5.665
 5742TIP3   OH217182   5.725   4.788   3.233
 5742TIP3    H117183   5.813   4.799   3.196
 5742TIP3    H217184   5.701   4.876   3.263
 5743TIP3   OH217185   3.113   6.297   0.031
 5743TIP3    H117186   3.207   6.284   0.045
 5743TIP3    H217187   3.089   6.230  -0.033
 5744TIP3   OH217188   1.016   0.193   3.336
 5744TIP3    H117189   1.103   0.230   3.321
 5744TIP3    H217190   1.014   0.115   3.282
 5745TIP3   OH217191   2.021   1.242   1.524
 5745TIP3    H117192   2.070   1.324   1.515
 5745TIP3    H217193   1.931   1.266   1.503
 5746TIP3   OH217194   4.303   7.337   0.111
 5746TIP3    H117195   4.267   7.425   0.126
 5746TIP3    H217196   4.300   7.295   0.197
 5747TIP3   OH217197   4.990   0.197   6.195
 5747TIP3    H117198   4.950   0.237   6.272
 5747TIP3    H217199   5.033   0.269   6.149
 5748TIP3   OH217200   2.901   6.332   0.604
 5748TIP3    H117201   2.852   6.414   0.605
 5748TIP3    H217202   2.976   6.350   0.546
 5749TIP3   OH217203   2.681   1.042   1.761
 5749TIP3    H117204   2.727   0.970   1.805
 5749TIP3    H217205   2.748   1.084   1.708
 5750TIP3   OH217206   0.342   3.127   5.678
 5750TIP3    H117207   0.384   3.193   5.733
 5750TIP3    H217208   0.268   3.172   5.638
 5751TIP3   OH217209   4.189   3.299   3.445
 5751TIP3    H117210   4.151   3.231   3.501
 5751TIP3    H217211   4.267   3.258   3.407
 5752TIP3   OH217212   4.190   3.731   1.190
 5752TIP3    H117213   4.205   3.716   1.097
 5752TIP3    H217214   4.095   3.725   1.201
 5753TIP3   OH217215   8.202   3.181   2.371
 5753TIP3    H117216   8.163   3.253   2.421
 5753TIP3    H217217   8.128   3.139   2.327
 5754TIP3   OH217218   3.667   6.747   1.286
 5754TIP3    H117219   3.641   6.830   1.246
 5754TIP3    H217220   3.731   6.772   1.353
 5755TIP3   OH217221   3.799   3.154   2.327
 5755TIP3    H117222   3.841   3.128   2.246
 5755TIP3    H217223   3.871   3.179   2.385
 5756TIP3   OH217224   1.961   3.183   0.724
 5756TIP3    H117225   1.918   3.099   0.744
 5756TIP3    H217226   2.045   3.159   0.687
 5757TIP3   OH217227   4.877   5.095   5.881
 5757TIP3    H117228   4.827   5.168   5.917
 5757TIP3    H217229   4.870   5.106   5.786
 5758TIP3   OH217230   4.917   1.271   6.619
 5758TIP3    H117231   4.867   1.197   6.656
 5758TIP3    H217232   4.988   1.284   6.681
 5759TIP3   OH217233   0.865   5.882   0.439
 5759TIP3    H117234   0.945   5.862   0.487
 5759TIP3    H217235   0.866   5.823   0.364
 5760TIP3   OH217236   5.587   1.943   6.650
 5760TIP3    H117237   5.587   2.014   6.715
 5760TIP3    H217238   5.623   1.868   6.696
 5761TIP3   OH217239   1.500   6.498   0.420
 5761TIP3    H117240   1.543   6.414   0.406
 5761TIP3    H217241   1.463   6.492   0.508
 5762TIP3   OH217242   2.617   2.364   2.430
 5762TIP3    H117243   2.564   2.326   2.360
 5762TIP3    H217244   2.658   2.441   2.391
 5763TIP3   OH217245   2.003   5.239   6.438
 5763TIP3    H117246   1.952   5.233   6.520
 5763TIP3    H217247   1.983   5.157   6.392
 5764TIP3   OH217248   8.249   6.574   2.842
 5764TIP3    H117249   8.267   6.481   2.852
 5764TIP3    H217250   8.243   6.607   2.931
 5765TIP3   OH217251   5.007   5.882   2.771
 5765TIP3    H117252   5.011   5.897   2.865
 5765TIP3    H217253   4.914   5.875   2.751
 5766TIP3   OH217254   7.841   3.137   2.767
 5766TIP3    H117255   7.928   3.154   2.804
 5766TIP3    H217256   7.857   3.072   2.699
 5767TIP3   OH217257   2.618   4.956   4.176
 5767TIP3    H117258   2.655   4.868   4.172
 5767TIP3    H217259   2.669   5.001   4.243
 5768TIP3   OH217260   5.063   2.730   4.504
 5768TIP3    H117261   5.044   2.824   4.514
 5768TIP3    H217262   5.083   2.720   4.411
 5769TIP3   OH217263   5.943   4.667   4.118
 5769TIP3    H117264   5.848   4.678   4.114
 5769TIP3    H217265   5.959   4.575   4.098
 5770TIP3   OH217266   8.269   5.260   6.770
 5770TIP3    H117267   8.189   5.216   6.742
 5770TIP3    H217268   8.269   5.342   6.721
 5771TIP3   OH217269   1.247   0.577   5.020
 5771TIP3    H117270   1.320   0.568   4.959
 5771TIP3    H217271   1.230   0.487   5.049
 5772TIP3   OH217272   3.266   4.089   4.722
 5772TIP3    H117273   3.319   4.010   4.713
 5772TIP3    H217274   3.293   4.146   4.650
 5773TIP3   OH217275   4.520   6.031   1.506
 5773TIP3    H117276   4.434   6.000   1.535
 5773TIP3    H217277   4.503   6.115   1.464
 5774TIP3   OH217278   1.834   5.125   1.198
 5774TIP3    H117279   1.811   5.211   1.163
 5774TIP3    H217280   1.769   5.109   1.267
 5775TIP3   OH217281   0.335   5.784   4.068
 5775TIP3    H117282   0.357   5.812   4.157
 5775TIP3    H217283   0.378   5.700   4.057
 5776TIP3   OH217284   2.474   2.953   3.000
 5776TIP3    H117285   2.431   2.961   3.085
 5776TIP3    H217286   2.556   3.000   3.009
 5777TIP3   OH217287   0.045   4.258   3.048
 5777TIP3    H117288   0.109   4.260   2.977
 5777TIP3    H217289  -0.039   4.245   3.004
 5778TIP3   OH217290   3.382   1.886   3.367
 5778TIP3    H117291   3.376   1.809   3.312
 5778TIP3    H217292   3.398   1.852   3.455
 5779TIP3   OH217293   3.000   6.303   4.679
 5779TIP3    H117294   2.905   6.303   4.681
 5779TIP3    H217295   3.026   6.323   4.769
 5780TIP3   OH217296   2.616   5.647   4.202
 5780TIP3    H117297   2.671   5.639   4.124
 5780TIP3    H217298   2.531   5.612   4.176
 5781TIP3   OH217299   4.208   7.771   1.856
 5781TIP3    H117300   4.232   7.848   1.805
 5781TIP3    H217301   4.167   7.805   1.935
 5782TIP3   OH217302   5.963   3.858   0.234
 5782TIP3    H117303   5.990   3.796   0.303
 5782TIP3    H217304   5.903   3.807   0.179
 5783TIP3   OH217305   6.752   6.875   0.280
 5783TIP3    H117306   6.795   6.948   0.235
 5783TIP3    H217307   6.715   6.822   0.209
 5784TIP3   OH217308   0.907   4.359   0.011
 5784TIP3    H117309   0.939   4.303   0.082
 5784TIP3    H217310   0.985   4.387  -0.035
 5785TIP3   OH217311   4.185   0.467   4.580
 5785TIP3    H117312   4.165   0.433   4.667
 5785TIP3    H217313   4.148   0.402   4.520
 5786TIP3   OH217314   3.843   1.670   4.140
 5786TIP3    H117315   3.883   1.604   4.195
 5786TIP3    H217316   3.785   1.719   4.198
 5787TIP3   OH217317   6.663   3.255   6.104
 5787TIP3    H117318   6.617   3.184   6.149
 5787TIP3    H217319   6.736   3.212   6.059
 5788TIP3   OH217320   3.109   5.319   1.085
 5788TIP3    H117321   3.094   5.413   1.070
 5788TIP3    H217322   3.196   5.303   1.049
 5789TIP3   OH217323   5.235   6.777   3.327
 5789TIP3    H117324   5.256   6.869   3.313
 5789TIP3    H217325   5.279   6.755   3.409
 5790TIP3   OH217326   4.754   2.231   3.686
 5790TIP3    H117327   4.828   2.213   3.744
 5790TIP3    H217328   4.786   2.301   3.629
 5791TIP3   OH217329   1.192   4.128   5.748
 5791TIP3    H117330   1.277   4.113   5.708
 5791TIP3    H217331   1.132   4.073   5.697
 5792TIP3   OH217332   5.412   0.839   5.308
 5792TIP3    H117333   5.386   0.923   5.344
 5792TIP3    H217334   5.500   0.823   5.343
 5793TIP3   OH217335   0.590   0.665   2.885
 5793TIP3    H117336   0.606   0.718   2.964
 5793TIP3    H217337   0.553   0.584   2.919
 5794TIP3   OH217338   1.345   5.043   0.138
 5794TIP3    H117339   1.361   5.057   0.232
 5794TIP3    H217340   1.421   5.083   0.095
 5795TIP3   OH217341   1.552   1.884   1.153
 5795TIP3    H117342   1.563   1.937   1.232
 5795TIP3    H217343   1.586   1.798   1.178
 5796TIP3   OH217344   1.890   7.394   1.767
 5796TIP3    H117345   1.919   7.306   1.742
 5796TIP3    H217346   1.796   7.385   1.782
 5797TIP3   OH217347   4.224   6.075   0.200
 5797TIP3    H117348   4.271   6.077   0.117
 5797TIP3    H217349   4.134   6.056   0.177
 5798TIP3   OH217350   5.324   7.197   2.241
 5798TIP3    H117351   5.365   7.131   2.185
 5798TIP3    H217352   5.255   7.149   2.288
 5799TIP3   OH217353   2.218   0.750   1.649
 5799TIP3    H117354   2.171   0.714   1.573
 5799TIP3    H217355   2.188   0.841   1.655
 5800TIP3   OH217356   3.526   1.047   4.511
 5800TIP3    H117357   3.611   1.018   4.476
 5800TIP3    H217358   3.543   1.136   4.542
 5801TIP3   OH217359   3.656   4.143   4.909
 5801TIP3    H117360   3.675   4.063   4.861
 5801TIP3    H217361   3.672   4.121   5.001
 5802TIP3   OH217362   0.794   7.779   3.120
 5802TIP3    H117363   0.834   7.788   3.034
 5802TIP3    H217364   0.778   7.869   3.148
 5803TIP3   OH217365   6.356   1.979   5.250
 5803TIP3    H117366   6.319   1.890   5.244
 5803TIP3    H217367   6.440   1.973   5.204
 5804TIP3   OH217368   6.865   4.770   1.976
 5804TIP3    H117369   6.910   4.843   2.019
 5804TIP3    H217370   6.853   4.705   2.045
 5805TIP3   OH217371   7.300   5.537   6.069
 5805TIP3    H117372   7.337   5.611   6.019
 5805TIP3    H217373   7.278   5.472   6.002
 5806TIP3   OH217374   7.962   4.048   2.542
 5806TIP3    H117375   7.883   4.067   2.592
 5806TIP3    H217376   7.952   3.957   2.513
 5807TIP3   OH217377   1.387  -0.034   2.855
 5807TIP3    H117378   1.479  -0.055   2.840
 5807TIP3    H217379   1.377   0.055   2.822
 5808TIP3   OH217380   7.253   3.361   5.615
 5808TIP3    H117381   7.227   3.432   5.673
 5808TIP3    H217382   7.333   3.392   5.573
 5809TIP3   OH217383   1.342   4.325   1.018
 5809TIP3    H117384   1.320   4.233   1.031
 5809TIP3    H217385   1.411   4.324   0.951
 5810TIP3   OH217386   2.048   0.679   0.454
 5810TIP3    H117387   2.039   0.614   0.523
 5810TIP3    H217388   2.143   0.690   0.444
 5811TIP3   OH217389   1.520   4.259   2.631
 5811TIP3    H117390   1.449   4.206   2.669
 5811TIP3    H217391   1.600   4.215   2.660
 5812TIP3   OH217392   0.068   4.795   0.463
 5812TIP3    H117393   0.081   4.814   0.370
 5812TIP3    H217394   0.007   4.862   0.493
 5813TIP3   OH217395   4.407   5.246   3.524
 5813TIP3    H117396   4.466   5.252   3.449
 5813TIP3    H217397   4.324   5.281   3.493
 5814TIP3   OH217398   2.915   1.962   5.047
 5814TIP3    H117399   2.823   1.962   5.071
 5814TIP3    H217400   2.961   1.938   5.127
 5815TIP3   OH217401   3.336   6.403   0.552
 5815TIP3    H117402   3.356   6.484   0.600
 5815TIP3    H217403   3.420   6.359   0.543
 5816TIP3   OH217404   6.444   1.816   5.767
 5816TIP3    H117405   6.437   1.725   5.793
 5816TIP3    H217406   6.370   1.830   5.708
 5817TIP3   OH217407   5.171   5.771   1.125
 5817TIP3    H117408   5.173   5.701   1.191
 5817TIP3    H217409   5.169   5.852   1.177
 5818TIP3   OH217410   4.969   1.976   6.432
 5818TIP3    H117411   5.055   1.935   6.423
 5818TIP3    H217412   4.907   1.903   6.434
 5819TIP3   OH217413   7.850   1.730   2.486
 5819TIP3    H117414   7.828   1.802   2.427
 5819TIP3    H217415   7.820   1.651   2.441
 5820TIP3   OH217416   2.619   5.171   6.375
 5820TIP3    H117417   2.564   5.184   6.298
 5820TIP3    H217418   2.678   5.099   6.350
 5821TIP3   OH217419   4.333   7.629   3.771
 5821TIP3    H117420   4.303   7.718   3.788
 5821TIP3    H217421   4.393   7.611   3.843
 5822TIP3   OH217422   3.031   6.539   0.164
 5822TIP3    H117423   3.029   6.601   0.092
 5822TIP3    H217424   3.059   6.456   0.124
 5823TIP3   OH217425   1.965   1.455   0.548
 5823TIP3    H117426   2.022   1.501   0.609
 5823TIP3    H217427   1.966   1.364   0.579
 5824TIP3   OH217428   3.501   6.464   5.557
 5824TIP3    H117429   3.457   6.531   5.504
 5824TIP3    H217430   3.486   6.382   5.511
 5825TIP3   OH217431   1.241   6.500   1.202
 5825TIP3    H117432   1.170   6.481   1.264
 5825TIP3    H217433   1.251   6.420   1.151
 5826TIP3   OH217434   3.541   2.979   1.954
 5826TIP3    H117435   3.555   3.047   1.888
 5826TIP3    H217436   3.475   3.016   2.013
 5827TIP3   OH217437   7.227   4.425   6.066
 5827TIP3    H117438   7.213   4.337   6.103
 5827TIP3    H217439   7.140   4.464   6.065
 5828TIP3   OH217440   4.194   5.327   2.352
 5828TIP3    H117441   4.211   5.406   2.301
 5828TIP3    H217442   4.102   5.307   2.334
 5829TIP3   OH217443   6.307   3.244   6.658
 5829TIP3    H117444   6.219   3.242   6.620
 5829TIP3    H217445   6.302   3.182   6.731
 5830TIP3   OH217446   0.676   4.451   0.473
 5830TIP3    H117447   0.645   4.376   0.422
 5830TIP3    H217448   0.605   4.469   0.535
 5831TIP3   OH217449   7.397   6.492   6.253
 5831TIP3    H117450   7.465   6.518   6.314
 5831TIP3    H217451   7.440   6.489   6.167
 5832TIP3   OH217452   5.934   6.405   1.228
 5832TIP3    H117453   5.885   6.418   1.147
 5832TIP3    H217454   5.867   6.397   1.296
 5833TIP3   OH217455   4.557   3.542   5.605
 5833TIP3    H117456   4.606   3.479   5.552
 5833TIP3    H217457   4.572   3.626   5.562
 5834TIP3   OH217458   3.059   0.971   6.196
 5834TIP3    H117459   3.056   0.882   6.161
 5834TIP3    H217460   3.072   0.960   6.290
 5835TIP3   OH217461   2.416   3.921   2.360
 5835TIP3    H117462   2.470   3.934   2.438
 5835TIP3    H217463   2.326   3.930   2.392
 5836TIP3   OH217464   2.294   2.952   3.464
 5836TIP3    H117465   2.214   2.899   3.459
 5836TIP3    H217466   2.286   3.014   3.391
 5837TIP3   OH217467   0.507   5.010   1.267
 5837TIP3    H117468   0.525   5.013   1.173
 5837TIP3    H217469   0.579   5.059   1.307
 5838TIP3   OH217470   2.394   7.212   4.146
 5838TIP3    H117471   2.369   7.209   4.054
 5838TIP3    H217472   2.395   7.306   4.167
 5839TIP3   OH217473   0.570   2.701   1.496
 5839TIP3    H117474   0.597   2.647   1.422
 5839TIP3    H217475   0.582   2.791   1.465
 5840TIP3   OH217476   1.011   0.200   1.544
 5840TIP3    H117477   1.084   0.236   1.494
 5840TIP3    H217478   0.950   0.273   1.552
 5841TIP3   OH217479   7.112   6.388   2.914
 5841TIP3    H117480   7.040   6.451   2.907
 5841TIP3    H217481   7.102   6.332   2.837
 5842TIP3   OH217482   2.132   6.927   4.261
 5842TIP3    H117483   2.107   6.914   4.170
 5842TIP3    H217484   2.164   6.842   4.290
 5843TIP3   OH217485   2.744   7.608   4.648
 5843TIP3    H117486   2.758   7.688   4.597
 5843TIP3    H217487   2.718   7.639   4.735
 5844TIP3   OH217488   0.061   4.309   1.223
 5844TIP3    H117489   0.036   4.402   1.227
 5844TIP3    H217490   0.147   4.309   1.181
 5845TIP3   OH217491   8.174   6.652   1.791
 5845TIP3    H117492   8.203   6.668   1.881
 5845TIP3    H217493   8.079   6.656   1.795
 5846TIP3   OH217494   3.440   6.756   1.714
 5846TIP3    H117495   3.383   6.829   1.740
 5846TIP3    H217496   3.526   6.779   1.750
 5847TIP3   OH217497   0.888   5.159   1.190
 5847TIP3    H117498   0.903   5.079   1.140
 5847TIP3    H217499   0.974   5.200   1.197
 5848TIP3   OH217500   3.547   2.353   1.212
 5848TIP3    H117501   3.636   2.389   1.203
 5848TIP3    H217502   3.535   2.342   1.307
 5849TIP3   OH217503   1.001   2.543   1.517
 5849TIP3    H117504   1.095   2.562   1.521
 5849TIP3    H217505   0.994   2.452   1.547
 5850TIP3   OH217506   8.137   1.089   0.578
 5850TIP3    H117507   8.143   1.131   0.664
 5850TIP3    H217508   8.211   1.027   0.576
 5851TIP3   OH217509   6.178   1.675   2.083
 5851TIP3    H117510   6.108   1.640   2.027
 5851TIP3    H217511   6.178   1.618   2.160
 5852TIP3   OH217512   4.422   7.696  -0.040
 5852TIP3    H117513   4.368   7.773  -0.023
 5852TIP3    H217514   4.442   7.661   0.047
 5853TIP3   OH217515   3.755   0.220   2.877
 5853TIP3    H117516   3.802   0.140   2.899
 5853TIP3    H217517   3.703   0.198   2.800
 5854TIP3   OH217518   7.439   0.350   5.599
 5854TIP3    H117519   7.423   0.261   5.569
 5854TIP3    H217520   7.366   0.369   5.659
 5855TIP3   OH217521   4.415   6.279   3.094
 5855TIP3    H117522   4.335   6.328   3.114
 5855TIP3    H217523   4.387   6.212   3.032
 5856TIP3   OH217524   3.074   4.750   5.939
 5856TIP3    H117525   3.130   4.827   5.942
 5856TIP3    H217526   2.986   4.785   5.928
 5857TIP3   OH217527   0.102   5.372   1.277
 5857TIP3    H117528   0.181   5.357   1.225
 5857TIP3    H217529   0.101   5.466   1.293
 5858TIP3   OH217530   1.902   5.707   5.651
 5858TIP3    H117531   1.992   5.739   5.659
 5858TIP3    H217532   1.881   5.720   5.558
 5859TIP3   OH217533   5.316   2.422   2.952
 5859TIP3    H117534   5.243   2.483   2.964
 5859TIP3    H217535   5.319   2.406   2.858
 5860TIP3   OH217536   7.463   4.044   0.417
 5860TIP3    H117537   7.430   3.955   0.430
 5860TIP3    H217538   7.384   4.095   0.396
 5861TIP3   OH217539   2.595   1.856   1.477
 5861TIP3    H117540   2.652   1.810   1.539
 5861TIP3    H217541   2.646   1.930   1.447
 5862TIP3   OH217542   8.274   1.153   4.820
 5862TIP3    H117543   8.332   1.086   4.786
 5862TIP3    H217544   8.186   1.121   4.799
 5863TIP3   OH217545   0.806   2.655   0.782
 5863TIP3    H117546   0.753   2.602   0.842
 5863TIP3    H217547   0.874   2.693   0.838
 5864TIP3   OH217548   5.108   7.502   5.486
 5864TIP3    H117549   5.103   7.439   5.558
 5864TIP3    H217550   5.168   7.462   5.423
 5865TIP3   OH217551   6.329   2.007   5.949
 5865TIP3    H117552   6.381   1.929   5.932
 5865TIP3    H217553   6.312   2.044   5.862
 5866TIP3   OH217554   5.599   0.961   4.879
 5866TIP3    H117555   5.629   0.937   4.967
 5866TIP3    H217556   5.676   0.950   4.823
 5867TIP3   OH217557   4.767   2.037   2.105
 5867TIP3    H117558   4.777   2.111   2.166
 5867TIP3    H217559   4.693   1.987   2.142
 5868TIP3   OH217560   1.332   3.495   6.319
 5868TIP3    H117561   1.421   3.495   6.286
 5868TIP3    H217562   1.324   3.579   6.365
 5869TIP3   OH217563   1.607   1.668   2.282
 5869TIP3    H117564   1.570   1.687   2.368
 5869TIP3    H217565   1.563   1.730   2.223
 5870TIP3   OH217566   7.768   6.506   3.269
 5870TIP3    H117567   7.707   6.440   3.301
 5870TIP3    H217568   7.713   6.568   3.221
 5871TIP3   OH217569   0.722   5.506   1.836
 5871TIP3    H117570   0.752   5.447   1.766
 5871TIP3    H217571   0.698   5.587   1.791
 5872TIP3   OH217572   1.490   5.120   5.345
 5872TIP3    H117573   1.458   5.086   5.261
 5872TIP3    H217574   1.453   5.208   5.351
 5873TIP3   OH217575   3.854   5.359   4.965
 5873TIP3    H117576   3.860   5.452   4.984
 5873TIP3    H217577   3.837   5.318   5.050
 5874TIP3   OH217578   5.330   7.649   1.851
 5874TIP3    H117579   5.251   7.642   1.797
 5874TIP3    H217580   5.336   7.564   1.896
 5875TIP3   OH217581   7.272   3.686   5.117
 5875TIP3    H117582   7.338   3.638   5.067
 5875TIP3    H217583   7.207   3.712   5.052
 5876TIP3   OH217584   0.773   5.943   6.714
 5876TIP3    H117585   0.732   5.911   6.794
 5876TIP3    H217586   0.831   5.871   6.687
 5877TIP3   OH217587   1.187   5.570   6.803
 5877TIP3    H117588   1.199   5.622   6.723
 5877TIP3    H217589   1.095   5.544   6.801
 5878TIP3   OH217590   0.445   6.110   3.671
 5878TIP3    H117591   0.506   6.159   3.725
 5878TIP3    H217592   0.495   6.035   3.640
 5879TIP3   OH217593   2.501   6.282   1.557
 5879TIP3    H117594   2.537   6.291   1.469
 5879TIP3    H217595   2.456   6.365   1.573
 5880TIP3   OH217596   0.994   5.567   4.283
 5880TIP3    H117597   1.015   5.490   4.229
 5880TIP3    H217598   0.898   5.567   4.286
 5881TIP3   OH217599   6.744   4.372   6.234
 5881TIP3    H117600   6.682   4.403   6.167
 5881TIP3    H217601   6.702   4.395   6.317
 5882TIP3   OH217602   6.632   2.740   1.760
 5882TIP3    H117603   6.721   2.750   1.794
 5882TIP3    H217604   6.581   2.704   1.833
 5883TIP3   OH217605   8.056   5.316   3.165
 5883TIP3    H117606   8.063   5.323   3.070
 5883TIP3    H217607   7.977   5.366   3.187
 5884TIP3   OH217608   0.630   1.349   3.400
 5884TIP3    H117609   0.537   1.328   3.405
 5884TIP3    H217610   0.663   1.298   3.326
 5885TIP3   OH217611   3.577   2.944   0.327
 5885TIP3    H117612   3.566   2.862   0.374
 5885TIP3    H217613   3.586   3.010   0.395
 5886TIP3   OH217614   3.124   3.703   2.673
 5886TIP3    H117615   3.141   3.790   2.637
 5886TIP3    H217616   3.062   3.664   2.613
 5887TIP3   OH217617   3.786   4.794   1.993
 5887TIP3    H117618   3.768   4.872   2.046
 5887TIP3    H217619   3.878   4.803   1.967
 5888TIP3   OH217620   4.856   0.238   5.028
 5888TIP3    H117621   4.881   0.280   5.111
 5888TIP3    H217622   4.764   0.215   5.039
 5889TIP3   OH217623   3.047   3.105   3.127
 5889TIP3    H117624   3.139   3.114   3.101
 5889TIP3    H217625   3.003   3.070   3.050
 5890TIP3   OH217626   7.091   4.713   5.622
 5890TIP3    H117627   7.011   4.695   5.672
 5890TIP3    H217628   7.140   4.630   5.624
 5891TIP3   OH217629   4.367   0.100   2.823
 5891TIP3    H117630   4.313   0.028   2.856
 5891TIP3    H217631   4.326   0.124   2.740
 5892TIP3   OH217632   6.633   1.378   4.209
 5892TIP3    H117633   6.563   1.314   4.195
 5892TIP3    H217634   6.599   1.436   4.277
 5893TIP3   OH217635   2.135   4.181   3.758
 5893TIP3    H117636   2.111   4.092   3.784
 5893TIP3    H217637   2.218   4.198   3.803
 5894TIP3   OH217638   2.081   2.878   2.676
 5894TIP3    H117639   2.102   2.959   2.629
 5894TIP3    H217640   2.012   2.903   2.738
 5895TIP3   OH217641   7.818   5.899   0.644
 5895TIP3    H117642   7.894   5.908   0.587
 5895TIP3    H217643   7.793   5.807   0.635
 5896TIP3   OH217644   6.066   7.216   0.129
 5896TIP3    H117645   5.982   7.217   0.084
 5896TIP3    H217646   6.070   7.300   0.175
 5897TIP3   OH217647   3.577   7.098   1.543
 5897TIP3    H117648   3.660   7.125   1.583
 5897TIP3    H217649   3.592   7.109   1.449
 5898TIP3   OH217650   3.782   0.321   2.572
 5898TIP3    H117651   3.708   0.263   2.590
 5898TIP3    H217652   3.775   0.341   2.479
 5899TIP3   OH217653   2.519   7.252   2.470
 5899TIP3    H117654   2.488   7.161   2.475
 5899TIP3    H217655   2.608   7.244   2.434
 5900TIP3   OH217656   5.634   0.309   3.571
 5900TIP3    H117657   5.596   0.357   3.645
 5900TIP3    H217658   5.723   0.288   3.600
 5901TIP3   OH217659   7.970   3.674   2.751
 5901TIP3    H117660   7.928   3.699   2.668
 5901TIP3    H217661   7.930   3.731   2.816
 5902TIP3   OH217662   1.321   6.786   1.159
 5902TIP3    H117663   1.395   6.836   1.194
 5902TIP3    H217664   1.340   6.695   1.185
 5903TIP3   OH217665   2.402   0.059   5.681
 5903TIP3    H117666   2.309   0.076   5.696
 5903TIP3    H217667   2.441   0.057   5.768
 5904TIP3   OH217668   6.730   3.721   1.222
 5904TIP3    H117669   6.665   3.717   1.152
 5904TIP3    H217670   6.771   3.634   1.221
 5905TIP3   OH217671   0.302   4.039   0.667
 5905TIP3    H117672   0.290   4.062   0.575
 5905TIP3    H217673   0.395   4.016   0.674
 5906TIP3   OH217674   4.204   3.281   4.628
 5906TIP3    H117675   4.225   3.282   4.721
 5906TIP3    H217676   4.225   3.192   4.600
 5907TIP3   OH217677   8.295   1.302   1.305
 5907TIP3    H117678   8.241   1.339   1.376
 5907TIP3    H217679   8.307   1.210   1.329
 5908TIP3   OH217680   4.925   0.703   6.035
 5908TIP3    H117681   4.916   0.608   6.022
 5908TIP3    H217682   5.018   0.720   6.023
 5909TIP3   OH217683   5.327   5.717   2.778
 5909TIP3    H117684   5.264   5.782   2.747
 5909TIP3    H217685   5.412   5.751   2.750
 5910TIP3   OH217686   2.599   5.102   3.624
 5910TIP3    H117687   2.624   5.104   3.716
 5910TIP3    H217688   2.523   5.159   3.619
 5911TIP3   OH217689   7.746   0.287   0.791
 5911TIP3    H117690   7.720   0.226   0.861
 5911TIP3    H217691   7.744   0.234   0.712
 5912TIP3   OH217692   3.140   5.160   1.306
 5912TIP3    H117693   3.125   5.237   1.253
 5912TIP3    H217694   3.175   5.194   1.389
 5913TIP3   OH217695   3.066   5.765   4.035
 5913TIP3    H117696   3.133   5.804   3.980
 5913TIP3    H217697   3.090   5.791   4.124
 5914TIP3   OH217698   1.158   7.254   1.214
 5914TIP3    H117699   1.231   7.213   1.260
 5914TIP3    H217700   1.163   7.346   1.239
 5915TIP3   OH217701   4.687   6.114   1.015
 5915TIP3    H117702   4.767   6.164   1.032
 5915TIP3    H217703   4.664   6.136   0.925
 5916TIP3   OH217704   3.387   3.754   6.406
 5916TIP3    H117705   3.354   3.705   6.481
 5916TIP3    H217706   3.478   3.775   6.429
 5917TIP3   OH217707   4.178   0.154   2.628
 5917TIP3    H117708   4.164   0.248   2.622
 5917TIP3    H217709   4.142   0.119   2.547
 5918TIP3   OH217710   8.154   3.934   1.960
 5918TIP3    H117711   8.218   3.918   2.031
 5918TIP3    H217712   8.191   3.887   1.885
 5919TIP3   OH217713   7.485   5.855   2.802
 5919TIP3    H117714   7.497   5.907   2.881
 5919TIP3    H217715   7.499   5.764   2.830
 5920TIP3   OH217716   0.153   3.292   2.975
 5920TIP3    H117717   0.232   3.324   3.020
 5920TIP3    H217718   0.100   3.371   2.963
 5921TIP3   OH217719   6.849   0.756   0.614
 5921TIP3    H117720   6.767   0.720   0.647
 5921TIP3    H217721   6.912   0.743   0.685
 5922TIP3   OH217722   8.003   2.757   4.290
 5922TIP3    H117723   8.083   2.727   4.333
 5922TIP3    H217724   7.960   2.812   4.356
 5923TIP3   OH217725   0.164   5.712   0.875
 5923TIP3    H117726   0.132   5.752   0.794
 5923TIP3    H217727   0.146   5.777   0.943
 5924TIP3   OH217728   5.341   2.679   3.641
 5924TIP3    H117729   5.432   2.701   3.621
 5924TIP3    H217730   5.342   2.657   3.734
 5925TIP3   OH217731   0.982   5.750   3.588
 5925TIP3    H117732   1.064   5.778   3.547
 5925TIP3    H217733   0.915   5.764   3.521
 5926TIP3   OH217734   0.316   5.175   6.634
 5926TIP3    H117735   0.282   5.235   6.701
 5926TIP3    H217736   0.411   5.186   6.639
 5927TIP3   OH217737   6.418   0.192   4.483
 5927TIP3    H117738   6.479   0.196   4.410
 5927TIP3    H217739   6.393   0.283   4.499
 5928TIP3   OH217740   3.781   4.476   5.444
 5928TIP3    H117741   3.862   4.425   5.446
 5928TIP3    H217742   3.757   4.486   5.537
 5929TIP3   OH217743   7.798   2.854   4.065
 5929TIP3    H117744   7.888   2.843   4.097
 5929TIP3    H217745   7.802   2.828   3.973
 5930TIP3   OH217746   5.047   2.772   6.392
 5930TIP3    H117747   5.061   2.812   6.478
 5930TIP3    H217748   4.960   2.802   6.366
 5931TIP3   OH217749   7.831   3.647   5.902
 5931TIP3    H117750   7.907   3.595   5.878
 5931TIP3    H217751   7.865   3.717   5.958
 5932TIP3   OH217752   4.459   0.912   4.793
 5932TIP3    H117753   4.520   0.840   4.809
 5932TIP3    H217754   4.444   0.910   4.698
 5933TIP3   OH217755   1.664   2.913   3.931
 5933TIP3    H117756   1.647   2.898   4.024
 5933TIP3    H217757   1.703   3.000   3.928
 5934TIP3   OH217758   3.077   6.334   4.941
 5934TIP3    H117759   3.157   6.376   4.975
 5934TIP3    H217760   3.011   6.350   5.009
 5935TIP3   OH217761   2.845   0.791   5.137
 5935TIP3    H117762   2.898   0.725   5.092
 5935TIP3    H217763   2.847   0.867   5.078
 5936TIP3   OH217764   4.108   1.649   4.545
 5936TIP3    H117765   4.161   1.579   4.584
 5936TIP3    H217766   4.060   1.686   4.619
 5937TIP3   OH217767   0.825   7.188   3.136
 5937TIP3    H117768   0.865   7.144   3.061
 5937TIP3    H217769   0.739   7.216   3.105
 5938TIP3   OH217770   3.142   1.483   6.421
 5938TIP3    H117771   3.096   1.564   6.444
 5938TIP3    H217772   3.110   1.418   6.484
 5939TIP3   OH217773   2.741   0.234   0.017
 5939TIP3    H117774   2.801   0.261   0.086
 5939TIP3    H217775   2.797   0.194  -0.050
 5940TIP3   OH217776   3.725   5.832   2.081
 5940TIP3    H117777   3.657   5.779   2.039
 5940TIP3    H217778   3.679   5.911   2.111
 5941TIP3   OH217779   7.204   5.901   0.409
 5941TIP3    H117780   7.221   5.920   0.316
 5941TIP3    H217781   7.157   5.818   0.408
 5942TIP3   OH217782   4.583   6.212   5.198
 5942TIP3    H117783   4.648   6.143   5.189
 5942TIP3    H217784   4.610   6.278   5.134
 5943TIP3   OH217785   3.849   5.634   5.010
 5943TIP3    H117786   3.848   5.694   5.085
 5943TIP3    H217787   3.941   5.629   4.984
 5944TIP3   OH217788   1.638   2.900   6.255
 5944TIP3    H117789   1.639   2.888   6.350
 5944TIP3    H217790   1.731   2.911   6.232
 5945TIP3   OH217791   7.761   1.657   3.026
 5945TIP3    H117792   7.756   1.566   3.053
 5945TIP3    H217793   7.740   1.656   2.933
 5946TIP3   OH217794   3.114   4.693   0.480
 5946TIP3    H117795   3.156   4.644   0.550
 5946TIP3    H217796   3.184   4.706   0.415
 5947TIP3   OH217797   1.014   3.029   3.594
 5947TIP3    H117798   1.011   3.095   3.663
 5947TIP3    H217799   1.097   3.046   3.549
 5948TIP3   OH217800   4.207   2.869   5.201
 5948TIP3    H117801   4.297   2.865   5.236
 5948TIP3    H217802   4.158   2.805   5.254
 5949TIP3   OH217803   0.136   7.827   0.485
 5949TIP3    H117804   0.075   7.899   0.503
 5949TIP3    H217805   0.087   7.748   0.506
 5950TIP3   OH217806   2.015   1.943   1.441
 5950TIP3    H117807   1.991   1.870   1.498
 5950TIP3    H217808   2.082   1.907   1.383
 5951TIP3   OH217809   1.769   2.556   3.023
 5951TIP3    H117810   1.780   2.539   2.929
 5951TIP3    H217811   1.752   2.470   3.061
 5952TIP3   OH217812   2.681   4.618   3.538
 5952TIP3    H117813   2.599   4.631   3.585
 5952TIP3    H217814   2.658   4.557   3.468
 5953TIP3   OH217815   7.391   2.333   1.995
 5953TIP3    H117816   7.346   2.404   1.948
 5953TIP3    H217817   7.480   2.333   1.958
 5954TIP3   OH217818   6.710   5.476   6.325
 5954TIP3    H117819   6.667   5.555   6.359
 5954TIP3    H217820   6.771   5.509   6.259
 5955TIP3   OH217821   7.419   5.297   1.459
 5955TIP3    H117822   7.385   5.235   1.524
 5955TIP3    H217823   7.357   5.370   1.462
 5956TIP3   OH217824   4.104   5.334   5.334
 5956TIP3    H117825   4.074   5.256   5.380
 5956TIP3    H217826   4.170   5.302   5.273
 5957TIP3   OH217827   6.364   4.815   0.765
 5957TIP3    H117828   6.342   4.886   0.705
 5957TIP3    H217829   6.406   4.749   0.709
 5958TIP3   OH217830   7.535   1.573   6.173
 5958TIP3    H117831   7.622   1.609   6.188
 5958TIP3    H217832   7.476   1.632   6.220
 5959TIP3   OH217833   1.836   1.732   6.186
 5959TIP3    H117834   1.812   1.697   6.100
 5959TIP3    H217835   1.766   1.701   6.245
 5960TIP3   OH217836   7.147   0.498   2.172
 5960TIP3    H117837   7.215   0.522   2.235
 5960TIP3    H217838   7.069   0.482   2.226
 5961TIP3   OH217839   4.339   7.423   3.545
 5961TIP3    H117840   4.252   7.389   3.522
 5961TIP3    H217841   4.323   7.488   3.613
 5962TIP3   OH217842   2.454   7.018   3.365
 5962TIP3    H117843   2.385   7.079   3.391
 5962TIP3    H217844   2.474   6.969   3.445
 5963TIP3   OH217845   5.826   5.804   5.964
 5963TIP3    H117846   5.794   5.886   6.001
 5963TIP3    H217847   5.834   5.744   6.038
 5964TIP3   OH217848   0.537   2.738   6.632
 5964TIP3    H117849   0.510   2.809   6.690
 5964TIP3    H217850   0.632   2.731   6.645
 5965TIP3   OH217851   1.123   5.956   6.661
 5965TIP3    H117852   1.092   5.995   6.579
 5965TIP3    H217853   1.138   6.031   6.719
 5966TIP3   OH217854   2.387   7.713   2.775
 5966TIP3    H117855   2.457   7.768   2.810
 5966TIP3    H217856   2.349   7.767   2.705
 5967TIP3   OH217857   3.921   6.155   1.330
 5967TIP3    H117858   3.963   6.185   1.249
 5967TIP3    H217859   3.828   6.174   1.317
 5968TIP3   OH217860   2.703   5.152   2.793
 5968TIP3    H117861   2.766   5.199   2.739
 5968TIP3    H217862   2.665   5.087   2.734
 5969TIP3   OH217863   1.967   6.399   2.831
 5969TIP3    H117864   1.994   6.465   2.768
 5969TIP3    H217865   1.918   6.335   2.779
 5970TIP3   OH217866   7.294   5.283   6.286
 5970TIP3    H117867   7.257   5.355   6.233
 5970TIP3    H217868   7.234   5.275   6.360
 5971TIP3   OH217869   2.441   4.994   4.430
 5971TIP3    H117870   2.429   5.086   4.403
 5971TIP3    H217871   2.373   4.947   4.382
 5972TIP3   OH217872   2.515   4.273   6.649
 5972TIP3    H117873   2.576   4.281   6.576
 5972TIP3    H217874   2.524   4.355   6.697
 5973TIP3   OH217875   0.838   3.517   5.754
 5973TIP3    H117876   0.930   3.540   5.746
 5973TIP3    H217877   0.823   3.512   5.849
 5974TIP3   OH217878   5.505   2.269   3.095
 5974TIP3    H117879   5.436   2.319   3.051
 5974TIP3    H217880   5.458   2.211   3.155
 5975TIP3   OH217881   4.297   4.636   1.220
 5975TIP3    H117882   4.372   4.693   1.237
 5975TIP3    H217883   4.222   4.695   1.215
 5976TIP3   OH217884   6.942   5.824   5.432
 5976TIP3    H117885   6.974   5.812   5.522
 5976TIP3    H217886   6.929   5.918   5.424
 5977TIP3   OH217887   1.593   2.517   1.109
 5977TIP3    H117888   1.570   2.429   1.138
 5977TIP3    H217889   1.679   2.507   1.069
 5978TIP3   OH217890   1.061   7.085   2.975
 5978TIP3    H117891   1.040   7.163   2.923
 5978TIP3    H217892   0.988   7.025   2.961
 5979TIP3   OH217893   0.491   2.208   5.113
 5979TIP3    H117894   0.569   2.172   5.155
 5979TIP3    H217895   0.488   2.299   5.143
 5980TIP3   OH217896   7.725   4.219   3.091
 5980TIP3    H117897   7.634   4.241   3.074
 5980TIP3    H217898   7.741   4.250   3.180
 5981TIP3   OH217899   4.533   1.498   5.773
 5981TIP3    H117900   4.519   1.466   5.863
 5981TIP3    H217901   4.473   1.572   5.766
 5982TIP3   OH217902   5.473   4.558   1.530
 5982TIP3    H117903   5.474   4.558   1.625
 5982TIP3    H217904   5.564   4.541   1.505
 5983TIP3   OH217905   6.894   7.140   3.993
 5983TIP3    H117906   6.864   7.153   3.903
 5983TIP3    H217907   6.857   7.056   4.019
 5984TIP3   OH217908   6.831   2.450   6.283
 5984TIP3    H117909   6.862   2.448   6.374
 5984TIP3    H217910   6.802   2.540   6.269
 5985TIP3   OH217911   4.791   0.578   5.573
 5985TIP3    H117912   4.871   0.575   5.626
 5985TIP3    H217913   4.724   0.610   5.633
 5986TIP3   OH217914   6.276   5.997   6.123
 5986TIP3    H117915   6.242   6.025   6.038
 5986TIP3    H217916   6.332   6.070   6.151
 5987TIP3   OH217917   5.775   4.287   4.467
 5987TIP3    H117918   5.779   4.373   4.425
 5987TIP3    H217919   5.819   4.228   4.405
 5988TIP3   OH217920   0.158   1.466   3.672
 5988TIP3    H117921   0.186   1.398   3.611
 5988TIP3    H217922   0.194   1.547   3.636
 5989TIP3   OH217923   6.867   6.604   3.292
 5989TIP3    H117924   6.837   6.689   3.261
 5989TIP3    H217925   6.904   6.622   3.379
 5990TIP3   OH217926   5.180   1.966   2.112
 5990TIP3    H117927   5.181   2.059   2.089
 5990TIP3    H217928   5.150   1.964   2.203
 5991TIP3   OH217929   7.434   5.256   6.500
 5991TIP3    H117930   7.510   5.313   6.513
 5991TIP3    H217931   7.404   5.274   6.411
 5992TIP3   OH217932   7.879   5.332   2.251
 5992TIP3    H117933   7.971   5.308   2.239
 5992TIP3    H217934   7.833   5.287   2.180
 5993TIP3   OH217935   2.846   3.041   1.190
 5993TIP3    H117936   2.886   2.978   1.130
 5993TIP3    H217937   2.913   3.107   1.204
 5994TIP3   OH217938   2.608   5.240   1.820
 5994TIP3    H117939   2.666   5.169   1.847
 5994TIP3    H217940   2.547   5.250   1.894
 5995TIP3   OH217941   3.292   5.606   6.780
 5995TIP3    H117942   3.313   5.513   6.779
 5995TIP3    H217943   3.372   5.649   6.749
 5996TIP3   OH217944   5.808   1.332   1.220
 5996TIP3    H117945   5.822   1.425   1.235
 5996TIP3    H217946   5.879   1.306   1.162
 5997TIP3   OH217947   3.626   5.631   4.843
 5997TIP3    H117948   3.652   5.646   4.752
 5997TIP3    H217949   3.704   5.652   4.894
 5998TIP3   OH217950   1.313   6.117   2.442
 5998TIP3    H117951   1.338   6.144   2.354
 5998TIP3    H217952   1.286   6.198   2.485
 5999TIP3   OH217953   7.557   1.726   0.197
 5999TIP3    H117954   7.600   1.736   0.282
 5999TIP3    H217955   7.608   1.658   0.152
 6000TIP3   OH217956   5.513   3.400   2.657
 6000TIP3    H117957   5.568   3.422   2.582
 6000TIP3    H217958   5.559   3.438   2.732
 6001TIP3   OH217959   3.832   7.287   2.011
 6001TIP3    H117960   3.904   7.238   2.051
 6001TIP3    H217961   3.869   7.375   1.996
 6002TIP3   OH217962   6.481   4.648   1.883
 6002TIP3    H117963   6.407   4.621   1.937
 6002TIP3    H217964   6.519   4.722   1.930
 6003TIP3   OH217965   1.731   4.360   3.893
 6003TIP3    H117966   1.682   4.442   3.902
 6003TIP3    H217967   1.796   4.379   3.826
 6004TIP3   OH217968   7.261   1.379   4.535
 6004TIP3    H117969   7.350   1.344   4.537
 6004TIP3    H217970   7.224   1.347   4.453
 6005TIP3   OH217971   0.455   5.016   0.993
 6005TIP3    H117972   0.443   5.030   0.899
 6005TIP3    H217973   0.400   4.941   1.013
 6006TIP3   OH217974   3.929   1.391   1.419
 6006TIP3    H117975   3.846   1.439   1.414
 6006TIP3    H217976   3.992   1.449   1.376
 6007TIP3   OH217977   4.249   6.333   0.572
 6007TIP3    H117978   4.263   6.334   0.666
 6007TIP3    H217979   4.295   6.411   0.540
 6008TIP3   OH217980   5.042   7.809   1.925
 6008TIP3    H117981   5.007   7.732   1.881
 6008TIP3    H217982   4.986   7.821   2.001
 6009TIP3   OH217983   4.454   6.520   3.770
 6009TIP3    H117984   4.431   6.500   3.679
 6009TIP3    H217985   4.410   6.452   3.821
 6010TIP3   OH217986   2.437   3.062   4.182
 6010TIP3    H117987   2.398   3.007   4.114
 6010TIP3    H217988   2.364   3.111   4.218
 6011TIP3   OH217989   0.918   1.191   3.188
 6011TIP3    H117990   0.875   1.224   3.108
 6011TIP3    H217991   0.949   1.103   3.164
 6012TIP3   OH217992   4.341   2.051   0.430
 6012TIP3    H117993   4.286   2.022   0.357
 6012TIP3    H217994   4.292   2.122   0.470
 6013TIP3   OH217995   4.938   7.039   3.573
 6013TIP3    H117996   5.019   7.046   3.623
 6013TIP3    H217997   4.936   6.948   3.543
 6014TIP3   OH217998   2.399   7.442   6.470
 6014TIP3    H117999   2.400   7.532   6.501
 6014TIP3    H218000   2.419   7.449   6.376
 6015TIP3   OH218001   1.231   3.192   4.550
 6015TIP3    H118002   1.255   3.256   4.483
 6015TIP3    H218003   1.311   3.179   4.600
 6016TIP3   OH218004   1.205   4.187   0.444
 6016TIP3    H118005   1.143   4.129   0.488
 6016TIP3    H218006   1.271   4.207   0.510
 6017TIP3   OH218007   7.627   3.276   5.663
 6017TIP3    H118008   7.581   3.334   5.602
 6017TIP3    H218009   7.563   3.259   5.732
 6018TIP3   OH218010   8.129   7.681   1.287
 6018TIP3    H118011   8.082   7.653   1.209
 6018TIP3    H218012   8.221   7.674   1.264
 6019TIP3   OH218013   2.115   5.721   4.384
 6019TIP3    H118014   2.097   5.809   4.416
 6019TIP3    H218015   2.065   5.714   4.302
 6020TIP3   OH218016   3.182   0.567   4.222
 6020TIP3    H118017   3.146   0.655   4.218
 6020TIP3    H218018   3.230   0.565   4.305
 6021TIP3   OH218019   7.805   6.505   6.204
 6021TIP3    H118020   7.803   6.542   6.116
 6021TIP3    H218021   7.890   6.462   6.210
 6022TIP3   OH218022   5.117   4.217   1.302
 6022TIP3    H118023   5.105   4.194   1.210
 6022TIP3    H218024   5.028   4.228   1.336
 6023TIP3   OH218025   7.076   6.877   0.519
 6023TIP3    H118026   7.019   6.946   0.485
 6023TIP3    H218027   7.144   6.924   0.568
 6024TIP3   OH218028   0.321   2.845   3.779
 6024TIP3    H118029   0.399   2.792   3.795
 6024TIP3    H218030   0.355   2.933   3.765
 6025TIP3   OH218031   1.177   3.555   4.671
 6025TIP3    H118032   1.132   3.626   4.717
 6025TIP3    H218033   1.191   3.488   4.738
 6026TIP3   OH218034   1.374   6.709   3.662
 6026TIP3    H118035   1.319   6.639   3.697
 6026TIP3    H218036   1.393   6.764   3.738
 6027TIP3   OH218037   3.330   4.761   3.397
 6027TIP3    H118038   3.370   4.745   3.482
 6027TIP3    H218039   3.374   4.840   3.364
 6028TIP3   OH218040   2.050   4.680   0.195
 6028TIP3    H118041   2.034   4.591   0.225
 6028TIP3    H218042   1.972   4.703   0.145
 6029TIP3   OH218043   7.085   5.952   4.581
 6029TIP3    H118044   7.029   5.891   4.630
 6029TIP3    H218045   7.159   5.969   4.640
 6030TIP3   OH218046   2.195   6.254   2.719
 6030TIP3    H118047   2.189   6.208   2.636
 6030TIP3    H218048   2.128   6.213   2.774
 6031TIP3   OH218049   8.109   5.198   2.268
 6031TIP3    H118050   8.191   5.213   2.314
 6031TIP3    H218051   8.132   5.204   2.175
 6032TIP3   OH218052   2.805   5.971   4.571
 6032TIP3    H118053   2.720   6.003   4.601
 6032TIP3    H218054   2.787   5.932   4.485
 6033TIP3   OH218055   1.070   3.180   2.186
 6033TIP3    H118056   1.032   3.118   2.124
 6033TIP3    H218057   1.077   3.130   2.268
 6034TIP3   OH218058   6.251   1.383   4.547
 6034TIP3    H118059   6.346   1.396   4.539
 6034TIP3    H218060   6.238   1.289   4.535
 6035TIP3   OH218061   6.574   4.516   6.041
 6035TIP3    H118062   6.492   4.520   6.089
 6035TIP3    H218063   6.549   4.496   5.951
 6036TIP3   OH218064   6.360   3.017   0.963
 6036TIP3    H118065   6.307   3.040   1.040
 6036TIP3    H218066   6.296   3.011   0.892
 6037TIP3   OH218067   5.113   3.007   5.544
 6037TIP3    H118068   5.043   2.992   5.480
 6037TIP3    H218069   5.101   2.938   5.609
 6038TIP3   OH218070   3.277   3.343   1.002
 6038TIP3    H118071   3.184   3.366   1.005
 6038TIP3    H218072   3.300   3.324   1.093
 6039TIP3   OH218073   7.555   3.342   1.554
 6039TIP3    H118074   7.615   3.317   1.483
 6039TIP3    H218075   7.469   3.313   1.524
 6040TIP3   OH218076   5.491   4.272   1.354
 6040TIP3    H118077   5.470   4.181   1.334
 6040TIP3    H218078   5.513   4.311   1.270
 6041TIP3   OH218079   0.599   3.756   0.252
 6041TIP3    H118080   0.509   3.778   0.274
 6041TIP3    H218081   0.593   3.678   0.198
 6042TIP3   OH218082   1.061   3.733   2.087
 6042TIP3    H118083   0.988   3.692   2.042
 6042TIP3    H218084   1.133   3.729   2.024
 6043TIP3   OH218085   6.799   5.947   3.111
 6043TIP3    H118086   6.849   5.865   3.101
 6043TIP3    H218087   6.861   6.015   3.086
 6044TIP3   OH218088   2.399   5.905   1.703
 6044TIP3    H118089   2.470   5.959   1.739
 6044TIP3    H218090   2.369   5.853   1.777
 6045TIP3   OH218091   2.809   4.970   3.261
 6045TIP3    H118092   2.795   5.023   3.339
 6045TIP3    H218093   2.732   4.913   3.256
 6046TIP3   OH218094   4.129   4.802   4.764
 6046TIP3    H118095   4.041   4.824   4.793
 6046TIP3    H218096   4.118   4.723   4.711
 6047TIP3   OH218097   7.129   0.868   4.697
 6047TIP3    H118098   7.053   0.810   4.692
 6047TIP3    H218099   7.129   0.900   4.787
 6048TIP3   OH218100   5.151   4.511   2.111
 6048TIP3    H118101   5.064   4.499   2.074
 6048TIP3    H218102   5.136   4.559   2.192
 6049TIP3   OH218103   3.250   6.368   3.007
 6049TIP3    H118104   3.339   6.343   3.029
 6049TIP3    H218105   3.255   6.398   2.916
 6050TIP3   OH218106   3.786   0.274   5.859
 6050TIP3    H118107   3.695   0.304   5.860
 6050TIP3    H218108   3.805   0.250   5.949
 6051TIP3   OH218109   5.438   5.346   5.307
 6051TIP3    H118110   5.501   5.283   5.274
 6051TIP3    H218111   5.429   5.411   5.237
 6052TIP3   OH218112   7.493   0.387   2.687
 6052TIP3    H118113   7.564   0.323   2.695
 6052TIP3    H218114   7.414   0.333   2.679
 6053TIP3   OH218115   5.347   4.382   5.997
 6053TIP3    H118116   5.346   4.309   5.936
 6053TIP3    H218117   5.351   4.460   5.941
 6054TIP3   OH218118   8.260   0.364   5.655
 6054TIP3    H118119   8.280   0.456   5.669
 6054TIP3    H218120   8.181   0.349   5.707
 6055TIP3   OH218121   4.763   4.771   6.140
 6055TIP3    H118122   4.800   4.716   6.208
 6055TIP3    H218123   4.787   4.728   6.058
 6056TIP3   OH218124   4.797   4.933   2.771
 6056TIP3    H118125   4.878   4.973   2.801
 6056TIP3    H218126   4.803   4.842   2.800
 6057TIP3   OH218127  -0.026   3.841   6.737
 6057TIP3    H118128   0.040   3.808   6.798
 6057TIP3    H218129  -0.023   3.936   6.748
 6058TIP3   OH218130   1.755   1.645   0.468
 6058TIP3    H118131   1.792   1.678   0.386
 6058TIP3    H218132   1.809   1.569   0.490
 6059TIP3   OH218133   6.162   2.525   1.348
 6059TIP3    H118134   6.118   2.532   1.263
 6059TIP3    H218135   6.218   2.602   1.352
 6060TIP3   OH218136   4.735   7.716   1.013
 6060TIP3    H118137   4.785   7.692   1.091
 6060TIP3    H218138   4.678   7.641   0.996
 6061TIP3   OH218139   4.102   4.229   0.417
 6061TIP3    H118140   4.149   4.158   0.373
 6061TIP3    H218141   4.171   4.289   0.445
 6062TIP3   OH218142   1.759   0.179   5.336
 6062TIP3    H118143   1.679   0.223   5.308
 6062TIP3    H218144   1.794   0.235   5.405
 6063TIP3   OH218145   6.913   1.235   3.119
 6063TIP3    H118146   6.923   1.293   3.194
 6063TIP3    H218147   6.881   1.153   3.157
 6064TIP3   OH218148   6.934   2.502   3.841
 6064TIP3    H118149   6.869   2.435   3.860
 6064TIP3    H218150   6.937   2.506   3.746
 6065TIP3   OH218151   2.357   3.122   6.098
 6065TIP3    H118152   2.407   3.073   6.163
 6065TIP3    H218153   2.409   3.115   6.017
 6066TIP3   OH218154   2.081   1.852   5.983
 6066TIP3    H118155   2.146   1.797   6.027
 6066TIP3    H218156   2.077   1.818   5.894
 6067TIP3   OH218157   4.247   1.976   1.793
 6067TIP3    H118158   4.180   1.973   1.726
 6067TIP3    H218159   4.210   1.926   1.867
 6068TIP3   OH218160   8.237   7.190   3.216
 6068TIP3    H118161   8.243   7.217   3.307
 6068TIP3    H218162   8.295   7.251   3.169
 6069TIP3   OH218163   0.370   6.328   6.066
 6069TIP3    H118164   0.365   6.397   6.000
 6069TIP3    H218165   0.331   6.366   6.145
 6070TIP3   OH218166   4.527   4.085   6.488
 6070TIP3    H118167   4.602   4.107   6.433
 6070TIP3    H218168   4.468   4.037   6.429
 6071TIP3   OH218169   2.328   5.886   6.244
 6071TIP3    H118170   2.415   5.846   6.239
 6071TIP3    H218171   2.268   5.813   6.238
 6072TIP3   OH218172   6.074   2.459   3.000
 6072TIP3    H118173   6.012   2.386   2.995
 6072TIP3    H218174   6.025   2.530   3.041
 6073TIP3   OH218175   4.518   6.826   4.898
 6073TIP3    H118176   4.492   6.783   4.979
 6073TIP3    H218177   4.493   6.918   4.911
 6074TIP3   OH218178   6.872   1.244   0.262
 6074TIP3    H118179   6.777   1.236   0.276
 6074TIP3    H218180   6.880   1.299   0.185
 6075TIP3   OH218181   1.509   2.059   4.810
 6075TIP3    H118182   1.576   2.019   4.866
 6075TIP3    H218183   1.560   2.112   4.748
 6076TIP3   OH218184   1.305   2.306   3.060
 6076TIP3    H118185   1.235   2.346   3.008
 6076TIP3    H218186   1.299   2.212   3.039
 6077TIP3   OH218187   8.013   3.148   4.218
 6077TIP3    H118188   8.105   3.148   4.245
 6077TIP3    H218189   7.991   3.241   4.209
 6078TIP3   OH218190   2.586   2.547   4.316
 6078TIP3    H118191   2.564   2.638   4.297
 6078TIP3    H218192   2.505   2.499   4.297
 6079TIP3   OH218193   4.282   1.716   0.408
 6079TIP3    H118194   4.366   1.694   0.367
 6079TIP3    H218195   4.236   1.768   0.342
 6080TIP3   OH218196   8.031   7.342   1.270
 6080TIP3    H118197   8.079   7.333   1.352
 6080TIP3    H218198   7.969   7.269   1.271
 6081TIP3   OH218199   3.922   6.539   4.755
 6081TIP3    H118200   3.921   6.633   4.736
 6081TIP3    H218201   3.948   6.534   4.847
 6082TIP3   OH218202   0.671   6.294   5.677
 6082TIP3    H118203   0.679   6.258   5.765
 6082TIP3    H218204   0.626   6.226   5.626
 6083TIP3   OH218205   3.602   5.667   3.793
 6083TIP3    H118206   3.616   5.710   3.709
 6083TIP3    H218207   3.670   5.600   3.797
 6084TIP3   OH218208   0.338   5.409   5.704
 6084TIP3    H118209   0.289   5.475   5.754
 6084TIP3    H218210   0.422   5.451   5.684
 6085TIP3   OH218211   6.319   0.373   5.745
 6085TIP3    H118212   6.281   0.296   5.701
 6085TIP3    H218213   6.276   0.448   5.703
 6086TIP3   OH218214   2.182   5.988   5.614
 6086TIP3    H118215   2.197   5.895   5.630
 6086TIP3    H218216   2.201   6.030   5.698
 6087TIP3   OH218217   8.152   3.569   6.718
 6087TIP3    H118218   8.228   3.521   6.687
 6087TIP3    H218219   8.178   3.661   6.711
 6088TIP3   OH218220   4.993   6.364   2.638
 6088TIP3    H118221   4.915   6.415   2.659
 6088TIP3    H218222   4.974   6.324   2.553
 6089TIP3   OH218223   0.418   7.718   6.065
 6089TIP3    H118224   0.431   7.802   6.021
 6089TIP3    H218225   0.504   7.676   6.063
 6090TIP3   OH218226   8.055   2.028   4.110
 6090TIP3    H118227   8.061   2.054   4.018
 6090TIP3    H218228   8.029   2.108   4.155
 6091TIP3   OH218229   6.258   4.072   4.887
 6091TIP3    H118230   6.306   4.094   4.807
 6091TIP3    H218231   6.225   4.156   4.919
 6092TIP3   OH218232   8.090   3.065   6.753
 6092TIP3    H118233   8.074   2.975   6.726
 6092TIP3    H218234   8.115   3.059   6.845
 6093TIP3   OH218235   5.346   5.078   0.630
 6093TIP3    H118236   5.389   4.993   0.634
 6093TIP3    H218237   5.415   5.142   0.649
 6094TIP3   OH218238   6.138   6.945   6.512
 6094TIP3    H118239   6.180   6.862   6.533
 6094TIP3    H218240   6.110   6.936   6.421
 6095TIP3   OH218241   6.653   4.972   0.140
 6095TIP3    H118242   6.740   5.011   0.144
 6095TIP3    H218243   6.645   4.924   0.222
 6096TIP3   OH218244   0.191   6.138   4.916
 6096TIP3    H118245   0.281   6.154   4.885
 6096TIP3    H218246   0.153   6.225   4.925
 6097TIP3   OH218247   8.077   5.595   3.712
 6097TIP3    H118248   8.163   5.583   3.671
 6097TIP3    H218249   8.029   5.651   3.651
 6098TIP3   OH218250   3.927   0.095   2.335
 6098TIP3    H118251   3.918   0.012   2.382
 6098TIP3    H218252   4.013   0.089   2.293
 6099TIP3   OH218253   0.659   6.424   4.418
 6099TIP3    H118254   0.588   6.399   4.477
 6099TIP3    H218255   0.639   6.515   4.395
 6100TIP3   OH218256   0.174   6.291   4.620
 6100TIP3    H118257   0.111   6.360   4.643
 6100TIP3    H218258   0.247   6.305   4.680
 6101TIP3   OH218259   2.645   0.444   1.213
 6101TIP3    H118260   2.644   0.540   1.214
 6101TIP3    H218261   2.682   0.421   1.128
 6102TIP3   OH218262   2.916   0.217   0.959
 6102TIP3    H118263   2.970   0.261   1.025
 6102TIP3    H218264   2.879   0.142   1.005
 6103TIP3   OH218265   5.023   4.864   1.603
 6103TIP3    H118266   5.085   4.934   1.584
 6103TIP3    H218267   5.044   4.795   1.540
 6104TIP3   OH218268   0.211   1.270   1.964
 6104TIP3    H118269   0.190   1.363   1.969
 6104TIP3    H218270   0.189   1.244   1.875
 6105TIP3   OH218271   6.556   5.392   1.033
 6105TIP3    H118272   6.510   5.385   1.117
 6105TIP3    H218273   6.518   5.469   0.991
 6106TIP3   OH218274   4.076   6.070   1.529
 6106TIP3    H118275   4.012   6.123   1.481
 6106TIP3    H218276   4.148   6.057   1.468
 6107TIP3   OH218277   5.968   3.314   6.136
 6107TIP3    H118278   6.047   3.292   6.186
 6107TIP3    H218279   5.998   3.376   6.070
 6108TIP3   OH218280   0.468   1.497   1.891
 6108TIP3    H118281   0.534   1.473   1.825
 6108TIP3    H218282   0.388   1.514   1.840
 6109TIP3   OH218283   7.749   0.749  -0.031
 6109TIP3    H118284   7.686   0.713   0.032
 6109TIP3    H218285   7.834   0.720   0.001
 6110TIP3   OH218286   4.911   2.973   5.860
 6110TIP3    H118287   4.888   2.893   5.812
 6110TIP3    H218288   5.003   2.961   5.884
 6111TIP3   OH218289   5.052   5.179   0.124
 6111TIP3    H118290   5.005   5.262   0.132
 6111TIP3    H218291   4.992   5.114   0.161
 6112TIP3   OH218292   4.657   4.837   5.059
 6112TIP3    H118293   4.578   4.813   5.107
 6112TIP3    H218294   4.644   4.800   4.972
 6113TIP3   OH218295   1.570   5.864   5.407
 6113TIP3    H118296   1.531   5.925   5.345
 6113TIP3    H218297   1.612   5.797   5.352
 6114TIP3   OH218298   4.517   1.185   0.830
 6114TIP3    H118299   4.496   1.191   0.924
 6114TIP3    H218300   4.576   1.111   0.823
 6115TIP3   OH218301   4.667   5.460   1.773
 6115TIP3    H118302   4.733   5.400   1.740
 6115TIP3    H218303   4.588   5.406   1.783
 6116TIP3   OH218304   1.962   2.894   3.748
 6116TIP3    H118305   1.985   2.853   3.664
 6116TIP3    H218306   1.898   2.962   3.725
 6117TIP3   OH218307   3.633   2.501   6.703
 6117TIP3    H118308   3.631   2.406   6.690
 6117TIP3    H218309   3.684   2.534   6.629
 6118TIP3   OH218310   4.025   6.834   6.100
 6118TIP3    H118311   3.957   6.770   6.120
 6118TIP3    H218312   4.075   6.842   6.181
 6119TIP3   OH218313   5.419   2.945   1.051
 6119TIP3    H118314   5.508   2.982   1.048
 6119TIP3    H218315   5.362   3.022   1.059
 6120TIP3   OH218316   1.284   1.767   3.215
 6120TIP3    H118317   1.281   1.787   3.308
 6120TIP3    H218318   1.194   1.775   3.186
 6121TIP3   OH218319   6.258   1.609   3.334
 6121TIP3    H118320   6.293   1.698   3.346
 6121TIP3    H218321   6.336   1.556   3.317
 6122TIP3   OH218322   7.662   3.874   4.399
 6122TIP3    H118323   7.616   3.892   4.317
 6122TIP3    H218324   7.594   3.883   4.466
 6123TIP3   OH218325   7.568   0.575   4.467
 6123TIP3    H118326   7.568   0.603   4.376
 6123TIP3    H218327   7.659   0.580   4.494
 6124TIP3   OH218328   5.359   7.269   0.516
 6124TIP3    H118329   5.452   7.245   0.514
 6124TIP3    H218330   5.315   7.193   0.477
 6125TIP3   OH218331   0.974   5.565   5.135
 6125TIP3    H118332   1.054   5.525   5.101
 6125TIP3    H218333   0.992   5.581   5.227
 6126TIP3   OH218334   5.657   2.000   1.256
 6126TIP3    H118335   5.695   2.083   1.227
 6126TIP3    H218336   5.586   1.983   1.195
 6127TIP3   OH218337   6.142   0.034   1.030
 6127TIP3    H118338   6.180   0.115   1.062
 6127TIP3    H218339   6.182  -0.034   1.085
 6128TIP3   OH218340   4.165   2.145   2.013
 6128TIP3    H118341   4.133   2.149   1.923
 6128TIP3    H218342   4.097   2.099   2.061
 6129TIP3   OH218343   7.144   4.159   3.830
 6129TIP3    H118344   7.198   4.081   3.818
 6129TIP3    H218345   7.196   4.216   3.887
 6130TIP3   OH218346   6.114   6.668   0.648
 6130TIP3    H118347   6.158   6.674   0.563
 6130TIP3    H218348   6.095   6.575   0.659
 6131TIP3   OH218349   8.040   0.355   2.435
 6131TIP3    H118350   8.034   0.321   2.524
 6131TIP3    H218351   8.065   0.280   2.381
 6132TIP3   OH218352   3.080   3.020   4.723
 6132TIP3    H118353   3.019   2.946   4.725
 6132TIP3    H218354   3.163   2.981   4.694
 6133TIP3   OH218355   3.383   1.333   1.938
 6133TIP3    H118356   3.426   1.342   1.853
 6133TIP3    H218357   3.331   1.412   1.948
 6134TIP3   OH218358   6.107   2.879   2.786
 6134TIP3    H118359   6.017   2.910   2.774
 6134TIP3    H218360   6.098   2.786   2.806
 6135TIP3   OH218361   5.882   6.208   3.144
 6135TIP3    H118362   5.974   6.197   3.169
 6135TIP3    H218363   5.885   6.228   3.050
 6136TIP3   OH218364   6.394   4.759   0.308
 6136TIP3    H118365   6.354   4.682   0.348
 6136TIP3    H218366   6.470   4.778   0.362
 6137TIP3   OH218367   5.295   5.148   4.067
 6137TIP3    H118368   5.320   5.104   4.148
 6137TIP3    H218369   5.242   5.084   4.020
 6138TIP3   OH218370   1.288   4.520   6.091
 6138TIP3    H118371   1.211   4.463   6.081
 6138TIP3    H218372   1.326   4.495   6.175
 6139TIP3   OH218373   3.643   3.952   5.450
 6139TIP3    H118374   3.551   3.975   5.465
 6139TIP3    H218375   3.687   4.035   5.438
 6140TIP3   OH218376   6.680   4.188   2.623
 6140TIP3    H118377   6.695   4.150   2.710
 6140TIP3    H218378   6.715   4.122   2.562
 6141TIP3   OH218379   3.071   3.788   0.509
 6141TIP3    H118380   3.120   3.768   0.589
 6141TIP3    H218381   3.099   3.876   0.485
 6142TIP3   OH218382   4.369   6.646   3.248
 6142TIP3    H118383   4.433   6.715   3.229
 6142TIP3    H218384   4.355   6.603   3.164
 6143TIP3   OH218385   3.836   1.922   0.659
 6143TIP3    H118386   3.838   1.880   0.573
 6143TIP3    H218387   3.743   1.932   0.678
 6144TIP3   OH218388   1.312   2.076   2.105
 6144TIP3    H118389   1.283   2.072   2.196
 6144TIP3    H218390   1.379   2.145   2.104
 6145TIP3   OH218391   0.687   7.519   5.269
 6145TIP3    H118392   0.730   7.524   5.184
 6145TIP3    H218393   0.605   7.566   5.258
 6146TIP3   OH218394   2.519   0.047   5.195
 6146TIP3    H118395   2.551   0.063   5.283
 6146TIP3    H218396   2.468  -0.034   5.202
 6147TIP3   OH218397   7.610   0.270   3.007
 6147TIP3    H118398   7.643   0.225   3.085
 6147TIP3    H218399   7.530   0.314   3.037
 6148TIP3   OH218400   3.309   0.921   0.412
 6148TIP3    H118401   3.254   0.879   0.479
 6148TIP3    H218402   3.315   0.855   0.343
 6149TIP3   OH218403   6.805   2.974   3.508
 6149TIP3    H118404   6.748   3.024   3.450
 6149TIP3    H218405   6.874   2.940   3.451
 6150TIP3   OH218406   7.664   3.806   2.356
 6150TIP3    H118407   7.658   3.750   2.278
 6150TIP3    H218408   7.618   3.886   2.331
 6151TIP3   OH218409   1.223   1.389   3.200
 6151TIP3    H118410   1.186   1.326   3.261
 6151TIP3    H218411   1.195   1.474   3.233
 6152TIP3   OH218412   0.931   4.539   1.059
 6152TIP3    H118413   0.890   4.588   0.987
 6152TIP3    H218414   1.012   4.506   1.022
 6153TIP3   OH218415   2.894   6.405   3.509
 6153TIP3    H118416   2.805   6.427   3.483
 6153TIP3    H218417   2.907   6.449   3.592
 6154TIP3   OH218418   3.126   0.657   1.605
 6154TIP3    H118419   3.207   0.655   1.655
 6154TIP3    H218420   3.136   0.731   1.545
 6155TIP3   OH218421   7.881   5.665   6.657
 6155TIP3    H118422   7.799   5.673   6.706
 6155TIP3    H218423   7.945   5.713   6.709
 6156TIP3   OH218424   7.006   6.294   1.147
 6156TIP3    H118425   7.024   6.215   1.095
 6156TIP3    H218426   7.067   6.359   1.113
 6157TIP3   OH218427   5.908   6.342   5.252
 6157TIP3    H118428   5.917   6.259   5.300
 6157TIP3    H218429   5.823   6.376   5.279
 6158TIP3   OH218430   6.481   6.003   5.811
 6158TIP3    H118431   6.553   6.045   5.858
 6158TIP3    H218432   6.403   6.051   5.838
 6159TIP3   OH218433   1.977   6.293   6.303
 6159TIP3    H118434   1.989   6.347   6.381
 6159TIP3    H218435   2.065   6.265   6.278
 6160TIP3   OH218436   1.002   3.141   3.050
 6160TIP3    H118437   1.044   3.227   3.051
 6160TIP3    H218438   0.955   3.137   3.134
 6161TIP3   OH218439   5.373   1.179   3.712
 6161TIP3    H118440   5.321   1.250   3.751
 6161TIP3    H218441   5.422   1.222   3.642
 6162TIP3   OH218442   5.182   5.387   1.212
 6162TIP3    H118443   5.142   5.357   1.293
 6162TIP3    H218444   5.118   5.368   1.144
 6163TIP3   OH218445   5.382   1.645   3.404
 6163TIP3    H118446   5.411   1.733   3.428
 6163TIP3    H218447   5.289   1.644   3.425
 6164TIP3   OH218448   5.932   7.330   1.536
 6164TIP3    H118449   5.838   7.320   1.546
 6164TIP3    H218450   5.966   7.241   1.537
 6165TIP3   OH218451   5.070   1.319   4.861
 6165TIP3    H118452   5.038   1.249   4.918
 6165TIP3    H218453   5.110   1.382   4.921
 6166TIP3   OH218454   1.421   4.550   5.258
 6166TIP3    H118455   1.489   4.509   5.205
 6166TIP3    H218456   1.409   4.490   5.332
 6167TIP3   OH218457   1.922   2.761   6.558
 6167TIP3    H118458   1.949   2.765   6.466
 6167TIP3    H218459   2.001   2.783   6.607
 6168TIP3   OH218460   6.970   3.809   2.217
 6168TIP3    H118461   6.944   3.789   2.127
 6168TIP3    H218462   6.998   3.725   2.253
 6169TIP3   OH218463   1.529   2.026   0.075
 6169TIP3    H118464   1.532   2.016  -0.020
 6169TIP3    H218465   1.440   2.001   0.100
 6170TIP3   OH218466   3.492   0.063   6.751
 6170TIP3    H118467   3.519   0.070   6.843
 6170TIP3    H218468   3.553   0.119   6.704
 6171TIP3   OH218469   0.191   7.648   5.429
 6171TIP3    H118470   0.160   7.584   5.493
 6171TIP3    H218471   0.281   7.623   5.411
 6172TIP3   OH218472   2.700   3.489   5.942
 6172TIP3    H118473   2.655   3.451   5.866
 6172TIP3    H218474   2.780   3.438   5.951
 6173TIP3   OH218475   0.581   0.781   0.443
 6173TIP3    H118476   0.566   0.726   0.520
 6173TIP3    H218477   0.558   0.869   0.472
 6174TIP3   OH218478   4.191   3.348   0.930
 6174TIP3    H118479   4.151   3.435   0.928
 6174TIP3    H218480   4.133   3.296   0.986
 6175TIP3   OH218481   5.058   0.648   2.086
 6175TIP3    H118482   5.065   0.741   2.110
 6175TIP3    H218483   4.964   0.630   2.085
 6176TIP3   OH218484   7.785   7.547   3.395
 6176TIP3    H118485   7.729   7.582   3.327
 6176TIP3    H218486   7.856   7.503   3.349
 6177TIP3   OH218487   3.892   6.588   2.477
 6177TIP3    H118488   3.877   6.542   2.395
 6177TIP3    H218489   3.830   6.661   2.475
 6178TIP3   OH218490   1.874   2.129   4.455
 6178TIP3    H118491   1.823   2.152   4.378
 6178TIP3    H218492   1.957   2.175   4.444
 6179TIP3   OH218493   3.589   4.383   0.025
 6179TIP3    H118494   3.647   4.307   0.034
 6179TIP3    H218495   3.506   4.345  -0.004
 6180TIP3   OH218496   1.744   3.219   2.754
 6180TIP3    H118497   1.805   3.209   2.827
 6180TIP3    H218498   1.757   3.141   2.700
 6181TIP3   OH218499   0.697   6.022   0.977
 6181TIP3    H118500   0.695   5.972   1.058
 6181TIP3    H218501   0.730   6.108   1.002
 6182TIP3   OH218502   2.138   2.632   4.292
 6182TIP3    H118503   2.215   2.600   4.245
 6182TIP3    H218504   2.149   2.599   4.381
 6183TIP3   OH218505   6.155   4.905   2.138
 6183TIP3    H118506   6.094   4.971   2.170
 6183TIP3    H218507   6.169   4.846   2.212
 6184TIP3   OH218508   0.472   7.464   4.044
 6184TIP3    H118509   0.487   7.378   4.083
 6184TIP3    H218510   0.559   7.504   4.041
 6185TIP3   OH218511   8.047   5.586   0.974
 6185TIP3    H118512   8.076   5.667   0.932
 6185TIP3    H218513   7.956   5.602   0.998
 6186TIP3   OH218514   4.044   2.973   4.970
 6186TIP3    H118515   4.107   2.946   5.037
 6186TIP3    H218516   4.060   2.915   4.896
 6187TIP3   OH218517   7.432   1.187   3.970
 6187TIP3    H118518   7.415   1.238   4.050
 6187TIP3    H218519   7.527   1.190   3.960
 6188TIP3   OH218520   0.905   1.960   0.743
 6188TIP3    H118521   0.823   1.997   0.710
 6188TIP3    H218522   0.898   1.866   0.726
 6189TIP3   OH218523   5.283   4.153   4.369
 6189TIP3    H118524   5.274   4.112   4.283
 6189TIP3    H218525   5.336   4.091   4.419
 6190TIP3   OH218526   2.930   2.458   2.454
 6190TIP3    H118527   2.947   2.427   2.365
 6190TIP3    H218528   2.858   2.521   2.444
 6191TIP3   OH218529   7.367   2.272   0.951
 6191TIP3    H118530   7.387   2.183   0.981
 6191TIP3    H218531   7.447   2.322   0.966
 6192TIP3   OH218532   1.227   3.143   3.251
 6192TIP3    H118533   1.246   3.127   3.158
 6192TIP3    H218534   1.204   3.057   3.286
 6193TIP3   OH218535   5.550   7.225   5.271
 6193TIP3    H118536   5.523   7.304   5.224
 6193TIP3    H218537   5.601   7.175   5.207
 6194TIP3   OH218538   4.353   2.900   1.764
 6194TIP3    H118539   4.432   2.880   1.714
 6194TIP3    H218540   4.366   2.857   1.848
 6195TIP3   OH218541   5.228   0.870   6.652
 6195TIP3    H118542   5.171   0.931   6.699
 6195TIP3    H218543   5.203   0.783   6.685
 6196TIP3   OH218544   6.971   1.450   1.990
 6196TIP3    H118545   6.942   1.539   1.970
 6196TIP3    H218546   6.991   1.411   1.905
 6197TIP3   OH218547   1.281   2.539   0.540
 6197TIP3    H118548   1.203   2.567   0.589
 6197TIP3    H218549   1.250   2.530   0.450
 6198TIP3   OH218550   7.821   3.379   4.975
 6198TIP3    H118551   7.849   3.437   4.905
 6198TIP3    H218552   7.900   3.361   5.026
 6199TIP3   OH218553   4.682   3.272   4.223
 6199TIP3    H118554   4.702   3.209   4.292
 6199TIP3    H218555   4.752   3.262   4.159
 6200TIP3   OH218556   3.018   1.216   4.856
 6200TIP3    H118557   3.078   1.160   4.905
 6200TIP3    H218558   3.071   1.291   4.830
 6201TIP3   OH218559   3.402   0.662   6.045
 6201TIP3    H118560   3.389   0.702   6.130
 6201TIP3    H218561   3.440   0.731   5.991
 6202TIP3   OH218562   6.375   3.175   5.015
 6202TIP3    H118563   6.444   3.238   5.036
 6202TIP3    H218564   6.362   3.125   5.096
 6203TIP3   OH218565   3.133   1.210   2.188
 6203TIP3    H118566   3.148   1.116   2.202
 6203TIP3    H218567   3.218   1.251   2.204
 6204TIP3   OH218568   2.681   3.207   5.359
 6204TIP3    H118569   2.717   3.155   5.287
 6204TIP3    H218570   2.665   3.293   5.321
 6205TIP3   OH218571   7.676   5.568   3.922
 6205TIP3    H118572   7.637   5.610   3.999
 6205TIP3    H218573   7.770   5.570   3.939
 6206TIP3   OH218574   0.976   2.166   5.037
 6206TIP3    H118575   0.894   2.178   5.084
 6206TIP3    H218576   0.949   2.154   4.945
 6207TIP3   OH218577   2.875   6.605   0.398
 6207TIP3    H118578   2.888   6.685   0.448
 6207TIP3    H218579   2.931   6.616   0.320
 6208TIP3   OH218580   8.146   0.015   5.078
 6208TIP3    H118581   8.108   0.081   5.136
 6208TIP3    H218582   8.126   0.046   4.990
 6209TIP3   OH218583   1.845   5.030   4.935
 6209TIP3    H118584   1.786   5.000   5.005
 6209TIP3    H218585   1.788   5.045   4.860
 6210TIP3   OH218586   3.249   1.514   5.398
 6210TIP3    H118587   3.208   1.475   5.475
 6210TIP3    H218588   3.211   1.467   5.324
 6211TIP3   OH218589   7.225   4.250   3.267
 6211TIP3    H118590   7.166   4.322   3.288
 6211TIP3    H218591   7.229   4.198   3.347
 6212TIP3   OH218592   0.687   3.205   2.385
 6212TIP3    H118593   0.740   3.132   2.354
 6212TIP3    H218594   0.709   3.214   2.478
 6213TIP3   OH218595   1.158   1.288   0.308
 6213TIP3    H118596   1.184   1.348   0.378
 6213TIP3    H218597   1.193   1.328   0.228
 6214TIP3   OH218598   5.373   5.482   2.989
 6214TIP3    H118599   5.380   5.572   2.957
 6214TIP3    H218600   5.434   5.433   2.935
 6215TIP3   OH218601   2.848   7.152   5.587
 6215TIP3    H118602   2.867   7.083   5.650
 6215TIP3    H218603   2.790   7.111   5.523
 6216TIP3   OH218604   3.719   0.746   1.241
 6216TIP3    H118605   3.717   0.661   1.287
 6216TIP3    H218606   3.698   0.725   1.150
 6217TIP3   OH218607   2.569   6.889   6.226
 6217TIP3    H118608   2.572   6.844   6.142
 6217TIP3    H218609   2.654   6.870   6.266
 6218TIP3   OH218610   4.253   4.005   6.375
 6218TIP3    H118611   4.239   3.967   6.462
 6218TIP3    H218612   4.245   4.100   6.390
 6219TIP3   OH218613   6.052   2.854   0.506
 6219TIP3    H118614   6.000   2.818   0.434
 6219TIP3    H218615   6.127   2.895   0.463
 6220TIP3   OH218616   7.092   0.403   0.710
 6220TIP3    H118617   7.060   0.401   0.620
 6220TIP3    H218618   7.152   0.477   0.713
 6221TIP3   OH218619   5.789   5.591   4.715
 6221TIP3    H118620   5.819   5.660   4.774
 6221TIP3    H218621   5.697   5.614   4.697
 6222TIP3   OH218622   0.204   1.767   4.555
 6222TIP3    H118623   0.113   1.796   4.561
 6222TIP3    H218624   0.200   1.672   4.568
 6223TIP3   OH218625   1.571   2.188   2.588
 6223TIP3    H118626   1.495   2.141   2.554
 6223TIP3    H218627   1.612   2.227   2.510
 6224TIP3   OH218628   4.492   0.641   0.766
 6224TIP3    H118629   4.507   0.619   0.858
 6224TIP3    H218630   4.423   0.581   0.738
 6225TIP3   OH218631   1.856   3.266   3.010
 6225TIP3    H118632   1.895   3.350   2.986
 6225TIP3    H218633   1.812   3.283   3.093
 6226TIP3   OH218634   0.148   0.211   1.079
 6226TIP3    H118635   0.131   0.303   1.063
 6226TIP3    H218636   0.111   0.194   1.166
 6227TIP3   OH218637   2.767   7.417   5.543
 6227TIP3    H118638   2.800   7.336   5.582
 6227TIP3    H218639   2.674   7.399   5.525
 6228TIP3   OH218640   4.773   6.684   4.832
 6228TIP3    H118641   4.804   6.771   4.806
 6228TIP3    H218642   4.679   6.696   4.845
 6229TIP3   OH218643   7.857   7.615   0.428
 6229TIP3    H118644   7.763   7.600   0.418
 6229TIP3    H218645   7.886   7.545   0.487
 6230TIP3   OH218646   7.880   6.128   4.140
 6230TIP3    H118647   7.876   6.170   4.226
 6230TIP3    H218648   7.956   6.069   4.146
 6231TIP3   OH218649   2.386   5.489   6.664
 6231TIP3    H118650   2.401   5.501   6.758
 6231TIP3    H218651   2.462   5.439   6.634
 6232TIP3   OH218652   0.525   7.213   6.284
 6232TIP3    H118653   0.568   7.138   6.243
 6232TIP3    H218654   0.435   7.185   6.296
 6233TIP3   OH218655   0.289   5.119   0.275
 6233TIP3    H118656   0.319   5.067   0.350
 6233TIP3    H218657   0.196   5.135   0.293
 6234TIP3   OH218658   7.943   2.958   3.796
 6234TIP3    H118659   7.975   2.924   3.713
 6234TIP3    H218660   7.877   3.023   3.772
 6235TIP3   OH218661   4.976   2.230   6.232
 6235TIP3    H118662   5.001   2.296   6.297
 6235TIP3    H218663   4.962   2.151   6.283
 6236TIP3   OH218664   1.463   3.531   0.934
 6236TIP3    H118665   1.547   3.497   0.965
 6236TIP3    H218666   1.473   3.626   0.939
 6237TIP3   OH218667   1.438   7.712   0.604
 6237TIP3    H118668   1.451   7.719   0.699
 6237TIP3    H218669   1.373   7.643   0.593
 6238TIP3   OH218670   3.902   4.304   4.190
 6238TIP3    H118671   3.919   4.269   4.277
 6238TIP3    H218672   3.979   4.280   4.139
 6239TIP3   OH218673   5.465   7.720   4.006
 6239TIP3    H118674   5.410   7.698   4.081
 6239TIP3    H218675   5.481   7.637   3.962
 6240TIP3   OH218676   6.558   7.367   4.317
 6240TIP3    H118677   6.576   7.317   4.397
 6240TIP3    H218678   6.634   7.351   4.261
 6241TIP3   OH218679   4.928   3.156   5.667
 6241TIP3    H118680   4.893   3.081   5.715
 6241TIP3    H218681   5.011   3.125   5.631
 6242TIP3   OH218682   5.898   2.308   5.914
 6242TIP3    H118683   5.951   2.379   5.949
 6242TIP3    H218684   5.960   2.255   5.863
 6243TIP3   OH218685   0.032   4.181   6.126
 6243TIP3    H118686  -0.014   4.255   6.087
 6243TIP3    H218687   0.124   4.206   6.122
 6244TIP3   OH218688   0.402   7.654   1.111
 6244TIP3    H118689   0.357   7.569   1.104
 6244TIP3    H218690   0.427   7.674   1.021
 6245TIP3   OH218691   3.124   6.091   4.810
 6245TIP3    H118692   3.086   6.107   4.896
 6245TIP3    H218693   3.101   6.168   4.759
 6246TIP3   OH218694   2.825   1.378   3.766
 6246TIP3    H118695   2.867   1.367   3.852
 6246TIP3    H218696   2.895   1.411   3.710
 6247TIP3   OH218697   6.437   2.734   3.473
 6247TIP3    H118698   6.502   2.752   3.405
 6247TIP3    H218699   6.481   2.756   3.555
 6248TIP3   OH218700   5.637   1.057   0.338
 6248TIP3    H118701   5.544   1.067   0.361
 6248TIP3    H218702   5.641   1.079   0.245
 6249TIP3   OH218703   4.179   5.573   0.580
 6249TIP3    H118704   4.247   5.578   0.513
 6249TIP3    H218705   4.185   5.657   0.627
 6250TIP3   OH218706   7.592   1.376   5.464
 6250TIP3    H118707   7.597   1.464   5.502
 6250TIP3    H218708   7.682   1.356   5.439
 6251TIP3   OH218709   2.998   7.491   5.684
 6251TIP3    H118710   2.910   7.490   5.646
 6251TIP3    H218711   3.053   7.452   5.617
 6252TIP3   OH218712   1.439   5.017   0.419
 6252TIP3    H118713   1.349   4.988   0.433
 6252TIP3    H218714   1.491   4.937   0.424
 6253TIP3   OH218715   2.415   3.683   4.861
 6253TIP3    H118716   2.437   3.770   4.829
 6253TIP3    H218717   2.456   3.623   4.798
 6254TIP3   OH218718   5.124   0.712   3.063
 6254TIP3    H118719   5.116   0.617   3.057
 6254TIP3    H218720   5.036   0.742   3.087
 6255TIP3   OH218721   3.877   6.461   0.531
 6255TIP3    H118722   3.950   6.469   0.469
 6255TIP3    H218723   3.913   6.487   0.615
 6256TIP3   OH218724   2.053   2.146   1.853
 6256TIP3    H118725   2.116   2.203   1.810
 6256TIP3    H218726   2.087   2.058   1.839
 6257TIP3   OH218727   1.412   0.540   6.128
 6257TIP3    H118728   1.461   0.460   6.113
 6257TIP3    H218729   1.327   0.525   6.086
 6258TIP3   OH218730   5.305   0.055   0.275
 6258TIP3    H118731   5.210   0.056   0.265
 6258TIP3    H218732   5.326   0.143   0.306
 6259TIP3   OH218733   4.860   4.133   5.035
 6259TIP3    H118734   4.936   4.174   4.993
 6259TIP3    H218735   4.891   4.047   5.063
 6260TIP3   OH218736   2.633   7.246   3.660
 6260TIP3    H118737   2.553   7.299   3.659
 6260TIP3    H218738   2.676   7.267   3.577
 6261TIP3   OH218739   3.111   4.180   3.056
 6261TIP3    H118740   3.204   4.157   3.045
 6261TIP3    H218741   3.092   4.240   2.984
 6262TIP3   OH218742   7.876   1.071   0.480
 6262TIP3    H118743   7.962   1.097   0.514
 6262TIP3    H218744   7.834   1.027   0.554
 6263TIP3   OH218745   6.398   0.667   6.258
 6263TIP3    H118746   6.332   0.642   6.323
 6263TIP3    H218747   6.397   0.763   6.259
 6264TIP3   OH218748   7.985   5.285   4.207
 6264TIP3    H118749   8.073   5.322   4.220
 6264TIP3    H218750   7.962   5.247   4.292
 6265TIP3   OH218751   5.831   0.981   2.074
 6265TIP3    H118752   5.798   0.905   2.122
 6265TIP3    H218753   5.828   1.053   2.137
 6266TIP3   OH218754   7.060   2.031   3.672
 6266TIP3    H118755   7.021   1.977   3.740
 6266TIP3    H218756   7.071   2.117   3.713
 6267TIP3   OH218757   8.154   3.384   0.586
 6267TIP3    H118758   8.082   3.327   0.611
 6267TIP3    H218759   8.132   3.412   0.497
 6268TIP3   OH218760   0.813   4.900   6.205
 6268TIP3    H118761   0.813   4.865   6.115
 6268TIP3    H218762   0.905   4.895   6.232
 6269TIP3   OH218763   2.230   3.058   1.076
 6269TIP3    H118764   2.252   2.981   1.128
 6269TIP3    H218765   2.296   3.123   1.100
 6270TIP3   OH218766   2.145   0.246   1.783
 6270TIP3    H118767   2.119   0.155   1.766
 6270TIP3    H218768   2.204   0.240   1.858
 6271TIP3   OH218769   8.207   5.265   0.752
 6271TIP3    H118770   8.155   5.276   0.832
 6271TIP3    H218771   8.271   5.335   0.755
 6272TIP3   OH218772   1.735   7.017   5.607
 6272TIP3    H118773   1.691   7.082   5.552
 6272TIP3    H218774   1.764   7.065   5.684
 6273TIP3   OH218775   0.384   0.033   6.561
 6273TIP3    H118776   0.463   0.088   6.557
 6273TIP3    H218777   0.402  -0.040   6.501
 6274TIP3   OH218778   7.645   6.109   4.001
 6274TIP3    H118779   7.566   6.158   3.978
 6274TIP3    H218780   7.688   6.163   4.068
 6275TIP3   OH218781   8.178   6.080   3.408
 6275TIP3    H118782   8.271   6.096   3.423
 6275TIP3    H218783   8.171   5.985   3.400
 6276TIP3   OH218784   1.138   2.829   2.239
 6276TIP3    H118785   1.075   2.810   2.168
 6276TIP3    H218786   1.090   2.888   2.298
 6277TIP3   OH218787   3.344   4.764   2.310
 6277TIP3    H118788   3.249   4.758   2.316
 6277TIP3    H218789   3.367   4.842   2.359
 6278TIP3   OH218790   3.080   2.988   3.467
 6278TIP3    H118791   3.123   2.909   3.500
 6278TIP3    H218792   3.027   2.958   3.394
 6279TIP3   OH218793   4.676   6.697   1.448
 6279TIP3    H118794   4.649   6.636   1.380
 6279TIP3    H218795   4.658   6.783   1.411
 6280TIP3   OH218796   7.210   4.490   1.884
 6280TIP3    H118797   7.199   4.582   1.858
 6280TIP3    H218798   7.298   4.467   1.856
 6281TIP3   OH218799   4.285   7.237   0.375
 6281TIP3    H118800   4.226   7.305   0.408
 6281TIP3    H218801   4.263   7.159   0.426
 6282TIP3   OH218802   0.574   3.172   5.421
 6282TIP3    H118803   0.606   3.214   5.501
 6282TIP3    H218804   0.481   3.157   5.437
 6283TIP3   OH218805   0.382   1.687   2.354
 6283TIP3    H118806   0.357   1.626   2.424
 6283TIP3    H218807   0.312   1.753   2.355
 6284TIP3   OH218808   8.289   0.831   0.526
 6284TIP3    H118809   8.212   0.864   0.478
 6284TIP3    H218810   8.332   0.772   0.464
 6285TIP3   OH218811   2.668   5.721   4.863
 6285TIP3    H118812   2.736   5.685   4.806
 6285TIP3    H218813   2.586   5.696   4.823
 6286TIP3   OH218814   0.397   0.252   0.453
 6286TIP3    H118815   0.390   0.159   0.432
 6286TIP3    H218816   0.376   0.257   0.547
 6287TIP3   OH218817   0.074   7.228   5.988
 6287TIP3    H118818   0.106   7.289   5.921
 6287TIP3    H218819   0.132   7.243   6.063
 6288TIP3   OH218820   0.985   0.998   1.339
 6288TIP3    H118821   0.982   0.973   1.432
 6288TIP3    H218822   0.950   1.087   1.338
 6289TIP3   OH218823   8.136   1.251   6.308
 6289TIP3    H118824   8.191   1.330   6.306
 6289TIP3    H218825   8.143   1.214   6.220
 6290TIP3   OH218826   7.807   1.208   1.560
 6290TIP3    H118827   7.812   1.173   1.471
 6290TIP3    H218828   7.720   1.248   1.565
 6291TIP3   OH218829   8.020   0.117   4.397
 6291TIP3    H118830   8.080   0.046   4.375
 6291TIP3    H218831   7.950   0.111   4.332
 6292TIP3   OH218832   1.799   0.088   3.679
 6292TIP3    H118833   1.720   0.034   3.677
 6292TIP3    H218834   1.772   0.171   3.640
 6293TIP3   OH218835   1.825   1.445   6.473
 6293TIP3    H118836   1.745   1.448   6.525
 6293TIP3    H218837   1.799   1.476   6.386
 6294TIP3   OH218838   5.090   2.617   0.412
 6294TIP3    H118839   5.154   2.559   0.453
 6294TIP3    H218840   5.139   2.662   0.343
 6295TIP3   OH218841   0.133   6.804   3.772
 6295TIP3    H118842   0.169   6.844   3.850
 6295TIP3    H218843   0.186   6.725   3.759
 6296TIP3   OH218844   6.794   0.224   4.846
 6296TIP3    H118845   6.723   0.176   4.804
 6296TIP3    H218846   6.871   0.202   4.794
 6297TIP3   OH218847   8.175   4.090   6.320
 6297TIP3    H118848   8.146   4.175   6.354
 6297TIP3    H218849   8.231   4.112   6.245
 6298TIP3   OH218850   0.872   0.688   5.442
 6298TIP3    H118851   0.860   0.630   5.517
 6298TIP3    H218852   0.840   0.773   5.471
 6299TIP3   OH218853   5.478   2.572   1.249
 6299TIP3    H118854   5.537   2.596   1.177
 6299TIP3    H218855   5.499   2.481   1.269
 6300TIP3   OH218856   5.441   3.040   4.896
 6300TIP3    H118857   5.500   2.973   4.929
 6300TIP3    H218858   5.487   3.079   4.822
 6301TIP3   OH218859   4.800   2.238   0.407
 6301TIP3    H118860   4.885   2.221   0.447
 6301TIP3    H218861   4.817   2.234   0.313
 6302TIP3   OH218862   5.576   0.662   3.651
 6302TIP3    H118863   5.521   0.636   3.577
 6302TIP3    H218864   5.587   0.582   3.702
 6303TIP3   OH218865   0.314   2.047   4.470
 6303TIP3    H118866   0.272   1.982   4.527
 6303TIP3    H218867   0.341   2.117   4.530
 6304TIP3   OH218868   2.143   4.611   3.618
 6304TIP3    H118869   2.155   4.630   3.711
 6304TIP3    H218870   2.161   4.695   3.574
 6305TIP3   OH218871   0.600   5.494   5.656
 6305TIP3    H118872   0.654   5.571   5.636
 6305TIP3    H218873   0.658   5.436   5.705
 6306TIP3   OH218874   4.988   7.228   6.419
 6306TIP3    H118875   4.998   7.312   6.463
 6306TIP3    H218876   5.077   7.192   6.417
 6307TIP3   OH218877   5.916   6.171   6.304
 6307TIP3    H118878   5.998   6.215   6.280
 6307TIP3    H218879   5.872   6.233   6.362
 6308TIP3   OH218880   4.894   1.162   1.101
 6308TIP3    H118881   4.867   1.227   1.166
 6308TIP3    H218882   4.969   1.201   1.058
 6309TIP3   OH218883   3.752   0.549   6.418
 6309TIP3    H118884   3.719   0.595   6.341
 6309TIP3    H218885   3.687   0.482   6.437
 6310TIP3   OH218886   8.194   6.354   0.765
 6310TIP3    H118887   8.195   6.422   0.697
 6310TIP3    H218888   8.245   6.282   0.727
 6311TIP3   OH218889   5.289   5.095   4.635
 6311TIP3    H118890   5.290   5.008   4.595
 6311TIP3    H218891   5.229   5.088   4.709
 6312TIP3   OH218892   4.578   3.919   5.889
 6312TIP3    H118893   4.527   3.838   5.887
 6312TIP3    H218894   4.636   3.912   5.813
 6313TIP3   OH218895   4.845   5.332   5.671
 6313TIP3    H118896   4.751   5.334   5.692
 6313TIP3    H218897   4.848   5.307   5.579
 6314TIP3   OH218898   6.388   3.100   6.440
 6314TIP3    H118899   6.412   3.025   6.494
 6314TIP3    H218900   6.348   3.162   6.502
 6315TIP3   OH218901   3.423   4.081   2.381
 6315TIP3    H118902   3.341   4.047   2.345
 6315TIP3    H218903   3.407   4.174   2.394
 6316TIP3   OH218904   8.278   4.860   3.844
 6316TIP3    H118905   8.200   4.914   3.833
 6316TIP3    H218906   8.262   4.784   3.788
 6317TIP3   OH218907   4.890   4.249   5.269
 6317TIP3    H118908   4.817   4.282   5.320
 6317TIP3    H218909   4.851   4.182   5.213
 6318TIP3   OH218910   3.989   6.054   1.801
 6318TIP3    H118911   4.049   6.056   1.727
 6318TIP3    H218912   3.925   6.122   1.781
 6319TIP3   OH218913   1.988   1.954   6.583
 6319TIP3    H118914   1.932   1.897   6.636
 6319TIP3    H218915   1.933   2.030   6.564
 6320TIP3   OH218916   7.235   7.246   0.831
 6320TIP3    H118917   7.307   7.210   0.779
 6320TIP3    H218918   7.231   7.188   0.908
 6321TIP3   OH218919   3.081   2.560   2.810
 6321TIP3    H118920   3.061   2.499   2.881
 6321TIP3    H218921   3.157   2.522   2.766
 6322TIP3   OH218922   7.039   6.511   0.924
 6322TIP3    H118923   7.128   6.490   0.896
 6322TIP3    H218924   6.987   6.435   0.898
 6323TIP3   OH218925   1.444   7.764   2.337
 6323TIP3    H118926   1.456   7.682   2.384
 6323TIP3    H218927   1.531   7.805   2.337
 6324TIP3   OH218928   2.453   2.552   3.812
 6324TIP3    H118929   2.545   2.544   3.837
 6324TIP3    H218930   2.453   2.538   3.717
 6325TIP3   OH218931   8.055   1.603   5.412
 6325TIP3    H118932   8.067   1.508   5.411
 6325TIP3    H218933   8.085   1.630   5.499
 6326TIP3   OH218934   5.287   2.171   5.780
 6326TIP3    H118935   5.287   2.094   5.837
 6326TIP3    H218936   5.314   2.243   5.836
 6327TIP3   OH218937   4.742   0.625   2.093
 6327TIP3    H118938   4.683   0.689   2.133
 6327TIP3    H218939   4.689   0.546   2.084
 6328TIP3   OH218940   7.422   4.450   0.924
 6328TIP3    H118941   7.515   4.455   0.900
 6328TIP3    H218942   7.420   4.390   0.998
 6329TIP3   OH218943   2.824   6.807   0.069
 6329TIP3    H118944   2.880   6.884   0.058
 6329TIP3    H218945   2.745   6.840   0.112
 6330TIP3   OH218946   1.679   2.252   5.068
 6330TIP3    H118947   1.712   2.164   5.051
 6330TIP3    H218948   1.744   2.292   5.125
 6331TIP3   OH218949   4.916   0.903   4.324
 6331TIP3    H118950   4.833   0.857   4.327
 6331TIP3    H218951   4.974   0.845   4.274
 6332TIP3   OH218952   4.480   2.601   1.457
 6332TIP3    H118953   4.520   2.685   1.438
 6332TIP3    H218954   4.500   2.546   1.381
 6333TIP3   OH218955   5.009   5.679   2.451
 6333TIP3    H118956   5.048   5.623   2.384
 6333TIP3    H218957   5.054   5.655   2.532
 6334TIP3   OH218958   7.588   0.557   1.645
 6334TIP3    H118959   7.560   0.648   1.637
 6334TIP3    H218960   7.590   0.525   1.554
 6335TIP3   OH218961   4.648   6.026   6.219
 6335TIP3    H118962   4.627   6.056   6.308
 6335TIP3    H218963   4.577   5.965   6.198
 6336TIP3   OH218964   2.063   1.705   2.724
 6336TIP3    H118965   2.108   1.787   2.704
 6336TIP3    H218966   1.985   1.706   2.669
 6337TIP3   OH218967   3.269   6.988   1.707
 6337TIP3    H118968   3.266   7.050   1.779
 6337TIP3    H218969   3.220   7.031   1.636
 6338TIP3   OH218970   2.795   2.633   1.535
 6338TIP3    H118971   2.786   2.647   1.440
 6338TIP3    H218972   2.705   2.629   1.566
 6339TIP3   OH218973   8.212   2.636   4.407
 6339TIP3    H118974   8.212   2.572   4.479
 6339TIP3    H218975   8.271   2.705   4.437
 6340TIP3   OH218976   1.412   0.026   1.028
 6340TIP3    H118977   1.476  -0.045   1.033
 6340TIP3    H218978   1.427   0.065   0.941
 6341TIP3   OH218979   2.861   4.271   3.328
 6341TIP3    H118980   2.845   4.182   3.361
 6341TIP3    H218981   2.956   4.274   3.314
 6342TIP3   OH218982   3.404   5.510   1.684
 6342TIP3    H118983   3.371   5.565   1.755
 6342TIP3    H218984   3.499   5.520   1.687
 6343TIP3   OH218985   2.885   1.341   1.208
 6343TIP3    H118986   2.925   1.329   1.122
 6343TIP3    H218987   2.794   1.362   1.190
 6344TIP3   OH218988   4.298   2.235   6.609
 6344TIP3    H118989   4.334   2.235   6.520
 6344TIP3    H218990   4.268   2.326   6.622
 6345TIP3   OH218991   2.915   3.729   0.042
 6345TIP3    H118992   2.834   3.700   0.084
 6345TIP3    H218993   2.980   3.724   0.113
 6346TIP3   OH218994   6.169   4.373   5.712
 6346TIP3    H118995   6.225   4.345   5.640
 6346TIP3    H218996   6.118   4.445   5.676
 6347TIP3   OH218997   2.366   3.352   5.504
 6347TIP3    H118998   2.435   3.386   5.447
 6347TIP3    H218999   2.286   3.394   5.472
 6348TIP3   OH219000   3.359   5.537   6.180
 6348TIP3    H119001   3.401   5.586   6.109
 6348TIP3    H219002   3.397   5.449   6.174
 6349TIP3   OH219003   0.334   3.503   3.547
 6349TIP3    H119004   0.428   3.507   3.526
 6349TIP3    H219005   0.330   3.449   3.626
 6350TIP3   OH219006   0.236   4.287   5.876
 6350TIP3    H119007   0.302   4.353   5.858
 6350TIP3    H219008   0.277   4.230   5.941
 6351TIP3   OH219009   4.769   1.030   2.869
 6351TIP3    H119010   4.708   0.966   2.906
 6351TIP3    H219011   4.856   0.998   2.894
 6352TIP3   OH219012   3.658   5.172   0.612
 6352TIP3    H119013   3.638   5.167   0.518
 6352TIP3    H219014   3.753   5.168   0.617
 6353TIP3   OH219015   2.088   4.166   0.077
 6353TIP3    H119016   2.115   4.155  -0.014
 6353TIP3    H219017   2.014   4.227   0.073
 6354TIP3   OH219018   7.044   3.763   4.905
 6354TIP3    H119019   6.975   3.812   4.949
 6354TIP3    H219020   7.001   3.725   4.828
 6355TIP3   OH219021   0.093   3.869   6.249
 6355TIP3    H119022   0.075   3.801   6.313
 6355TIP3    H219023   0.041   3.944   6.278
 6356TIP3   OH219024   7.616   7.359   0.659
 6356TIP3    H119025   7.626   7.416   0.582
 6356TIP3    H219026   7.706   7.340   0.686
 6357TIP3   OH219027   2.037   4.386   1.671
 6357TIP3    H119028   2.035   4.481   1.655
 6357TIP3    H219029   1.945   4.361   1.678
 6358TIP3   OH219030   2.842   2.349   5.051
 6358TIP3    H119031   2.767   2.400   5.082
 6358TIP3    H219032   2.905   2.353   5.123
 6359TIP3   OH219033   2.348   7.649   4.786
 6359TIP3    H119034   2.273   7.682   4.736
 6359TIP3    H219035   2.408   7.724   4.792
 6360TIP3   OH219036   4.675   3.013   2.190
 6360TIP3    H119037   4.654   2.976   2.276
 6360TIP3    H219038   4.648   2.946   2.127
 6361TIP3   OH219039   2.578   2.293   5.892
 6361TIP3    H119040   2.593   2.323   5.982
 6361TIP3    H219041   2.482   2.290   5.884
 6362TIP3   OH219042   2.507   3.045   5.879
 6362TIP3    H119043   2.539   3.094   5.803
 6362TIP3    H219044   2.572   2.975   5.891
 6363TIP3   OH219045   6.958   1.679   1.362
 6363TIP3    H119046   6.992   1.748   1.419
 6363TIP3    H219047   6.869   1.708   1.340
 6364TIP3   OH219048   2.726   1.034   5.614
 6364TIP3    H119049   2.633   1.044   5.594
 6364TIP3    H219050   2.747   0.945   5.587
 6365TIP3   OH219051   7.214   5.574   0.381
 6365TIP3    H119052   7.296   5.571   0.332
 6365TIP3    H219053   7.239   5.556   0.472
 6366TIP3   OH219054   7.234   1.055   4.355
 6366TIP3    H119055   7.296   1.093   4.294
 6366TIP3    H219056   7.287   1.028   4.430
 6367TIP3   OH219057   5.246   3.896   4.860
 6367TIP3    H119058   5.311   3.833   4.829
 6367TIP3    H219059   5.233   3.873   4.952
 6368TIP3   OH219060   5.848   5.178   4.410
 6368TIP3    H119061   5.891   5.093   4.398
 6368TIP3    H219062   5.887   5.234   4.343
 6369TIP3   OH219063   4.722   6.475   3.769
 6369TIP3    H119064   4.627   6.488   3.769
 6369TIP3    H219065   4.733   6.382   3.750
 6370TIP3   OH219066   5.625   0.244   3.971
 6370TIP3    H119067   5.571   0.195   4.034
 6370TIP3    H219068   5.704   0.266   4.020
 6371TIP3   OH219069   0.385   4.507   5.764
 6371TIP3    H119070   0.449   4.577   5.782
 6371TIP3    H219071   0.343   4.534   5.683
 6372TIP3   OH219072   3.423   1.446   2.918
 6372TIP3    H119073   3.416   1.460   3.012
 6372TIP3    H219074   3.340   1.478   2.883
 6373TIP3   OH219075   1.606   6.619   3.095
 6373TIP3    H119076   1.608   6.563   3.173
 6373TIP3    H219077   1.696   6.619   3.063
 6374TIP3   OH219078   4.763   1.488   3.055
 6374TIP3    H119079   4.700   1.559   3.040
 6374TIP3    H219080   4.823   1.523   3.122
 6375TIP3   OH219081   4.817   4.761   5.848
 6375TIP3    H119082   4.814   4.856   5.835
 6375TIP3    H219083   4.909   4.742   5.870
 6376TIP3   OH219084   0.637   0.998   5.323
 6376TIP3    H119085   0.597   0.966   5.404
 6376TIP3    H219086   0.638   1.093   5.332
 6377TIP3   OH219087   3.420   7.718   3.886
 6377TIP3    H119088   3.345   7.768   3.918
 6377TIP3    H219089   3.485   7.724   3.956
 6378TIP3   OH219090   3.568   1.656   0.975
 6378TIP3    H119091   3.527   1.613   0.900
 6378TIP3    H219092   3.660   1.664   0.952
 6379TIP3   OH219093   0.576   6.041   1.726
 6379TIP3    H119094   0.646   5.991   1.769
 6379TIP3    H219095   0.499   5.984   1.732
 6380TIP3   OH219096   3.178   1.676   2.468
 6380TIP3    H119097   3.186   1.745   2.534
 6380TIP3    H219098   3.254   1.621   2.480
 6381TIP3   OH219099   3.752   4.104   0.645
 6381TIP3    H119100   3.673   4.153   0.666
 6381TIP3    H219101   3.756   4.104   0.549
 6382TIP3   OH219102   2.725   1.608   4.328
 6382TIP3    H119103   2.762   1.559   4.401
 6382TIP3    H219104   2.639   1.636   4.360
 6383TIP3   OH219105   1.435   3.665   4.545
 6383TIP3    H119106   1.420   3.715   4.466
 6383TIP3    H219107   1.348   3.654   4.584
 6384TIP3   OH219108   6.313   3.755   4.908
 6384TIP3    H119109   6.224   3.766   4.942
 6384TIP3    H219110   6.313   3.802   4.824
 6385TIP3   OH219111   1.485   2.307   0.121
 6385TIP3    H119112   1.531   2.225   0.105
 6385TIP3    H219113   1.400   2.281   0.156
 6386TIP3   OH219114   0.567   7.485   2.248
 6386TIP3    H119115   0.659   7.474   2.226
 6386TIP3    H219116   0.523   7.491   2.163
 6387TIP3   OH219117   7.960   6.283   6.523
 6387TIP3    H119118   7.986   6.192   6.507
 6387TIP3    H219119   7.870   6.288   6.490
 6388TIP3   OH219120   6.429   1.476   1.110
 6388TIP3    H119121   6.345   1.437   1.087
 6388TIP3    H219122   6.473   1.408   1.162
 6389TIP3   OH219123   6.348   6.487   2.658
 6389TIP3    H119124   6.356   6.512   2.566
 6389TIP3    H219125   6.274   6.538   2.691
 6390TIP3   OH219126   7.394   3.371   3.143
 6390TIP3    H119127   7.314   3.399   3.099
 6390TIP3    H219128   7.465   3.395   3.084
 6391TIP3   OH219129   1.670   0.079   2.103
 6391TIP3    H119130   1.746   0.110   2.053
 6391TIP3    H219131   1.613   0.039   2.038
 6392TIP3   OH219132   5.238   7.364   1.420
 6392TIP3    H119133   5.169   7.326   1.475
 6392TIP3    H219134   5.205   7.450   1.396
 6393TIP3   OH219135   2.798   7.101   4.339
 6393TIP3    H119136   2.759   7.130   4.257
 6393TIP3    H219137   2.731   7.120   4.405
 6394TIP3   OH219138   7.788   1.535   0.999
 6394TIP3    H119139   7.882   1.514   1.001
 6394TIP3    H219140   7.761   1.531   1.091
 6395TIP3   OH219141   3.565   5.460   1.027
 6395TIP3    H119142   3.528   5.517   0.959
 6395TIP3    H219143   3.655   5.446   1.001
 6396TIP3   OH219144   1.676   1.288   4.611
 6396TIP3    H119145   1.597   1.341   4.616
 6396TIP3    H219146   1.693   1.278   4.517
 6397TIP3   OH219147   5.556   2.650   0.870
 6397TIP3    H119148   5.513   2.569   0.899
 6397TIP3    H219149   5.489   2.696   0.819
 6398TIP3   OH219150   3.621   1.825   3.021
 6398TIP3    H119151   3.610   1.752   3.083
 6398TIP3    H219152   3.537   1.871   3.023
 6399TIP3   OH219153   3.614   7.023   1.919
 6399TIP3    H119154   3.661   7.102   1.943
 6399TIP3    H219155   3.540   7.054   1.867
 6400TIP3   OH219156   0.939   6.270   5.759
 6400TIP3    H119157   0.846   6.274   5.738
 6400TIP3    H219158   0.970   6.191   5.715
 6401TIP3   OH219159   0.598   0.155   1.309
 6401TIP3    H119160   0.531   0.153   1.241
 6401TIP3    H219161   0.680   0.164   1.260
 6402TIP3   OH219162   6.335   3.006   4.433
 6402TIP3    H119163   6.266   3.062   4.400
 6402TIP3    H219164   6.415   3.058   4.425
 6403TIP3   OH219165   6.037   1.365   2.521
 6403TIP3    H119166   6.104   1.385   2.587
 6403TIP3    H219167   5.957   1.405   2.555
 6404TIP3   OH219168   5.503   6.311   4.617
 6404TIP3    H119169   5.495   6.359   4.534
 6404TIP3    H219170   5.420   6.328   4.662
 6405TIP3   OH219171   1.001   3.779   0.481
 6405TIP3    H119172   1.022   3.855   0.536
 6405TIP3    H219173   1.079   3.766   0.426
 6406TIP3   OH219174   1.924   0.827   3.044
 6406TIP3    H119175   1.957   0.895   2.985
 6406TIP3    H219176   1.974   0.749   3.020
 6407TIP3   OH219177   5.654   6.380   5.360
 6407TIP3    H119178   5.679   6.316   5.426
 6407TIP3    H219179   5.560   6.367   5.347
 6408TIP3   OH219180   4.172   6.425   3.111
 6408TIP3    H119181   4.130   6.449   3.029
 6408TIP3    H219182   4.101   6.425   3.175
 6409TIP3   OH219183   1.873   6.970   0.180
 6409TIP3    H119184   1.808   6.915   0.223
 6409TIP3    H219185   1.843   7.060   0.198
 6410TIP3   OH219186   7.191   5.717   0.759
 6410TIP3    H119187   7.239   5.650   0.709
 6410TIP3    H219188   7.254   5.750   0.823
 6411TIP3   OH219189   6.956   3.190   1.284
 6411TIP3    H119190   6.884   3.207   1.345
 6411TIP3    H219191   6.913   3.151   1.208
 6412TIP3   OH219192   1.416   3.975   1.852
 6412TIP3    H119193   1.475   3.899   1.851
 6412TIP3    H219194   1.331   3.940   1.823
 6413TIP3   OH219195   2.819   2.970   5.469
 6413TIP3    H119196   2.797   3.053   5.428
 6413TIP3    H219197   2.782   2.976   5.557
 6414TIP3   OH219198   2.667   4.470   6.374
 6414TIP3    H119199   2.665   4.564   6.394
 6414TIP3    H219200   2.647   4.465   6.281
 6415TIP3   OH219201   5.975   6.563   2.580
 6415TIP3    H119202   5.941   6.628   2.519
 6415TIP3    H219203   6.019   6.614   2.648
 6416TIP3   OH219204   3.157   4.888   1.308
 6416TIP3    H119205   3.154   4.984   1.306
 6416TIP3    H219206   3.215   4.868   1.381
 6417TIP3   OH219207   2.745   2.760   1.274
 6417TIP3    H119208   2.828   2.806   1.258
 6417TIP3    H219209   2.681   2.829   1.285
 6418TIP3   OH219210   7.619   4.202   0.817
 6418TIP3    H119211   7.566   4.128   0.846
 6418TIP3    H219212   7.594   4.215   0.725
 6419TIP3   OH219213   1.443   3.751   4.286
 6419TIP3    H119214   1.348   3.754   4.275
 6419TIP3    H219215   1.478   3.761   4.198
 6420TIP3   OH219216   1.659   2.582   2.420
 6420TIP3    H119217   1.719   2.630   2.476
 6420TIP3    H219218   1.613   2.649   2.370
 6421TIP3   OH219219   2.848   1.501   4.792
 6421TIP3    H119220   2.866   1.417   4.834
 6421TIP3    H219221   2.763   1.528   4.827
 6422TIP3   OH219222   5.051   3.649   0.577
 6422TIP3    H119223   5.129   3.653   0.522
 6422TIP3    H219224   5.046   3.735   0.619
 6423TIP3   OH219225   8.061   2.341   3.436
 6423TIP3    H119226   8.056   2.246   3.429
 6423TIP3    H219227   8.082   2.371   3.347
 6424TIP3   OH219228   2.067   7.754   0.627
 6424TIP3    H119229   2.038   7.669   0.594
 6424TIP3    H219230   2.035   7.817   0.563
 6425TIP3   OH219231   0.179   4.555   3.458
 6425TIP3    H119232   0.217   4.511   3.382
 6425TIP3    H219233   0.121   4.622   3.421
 6426TIP3   OH219234   6.219   6.411   3.854
 6426TIP3    H119235   6.125   6.424   3.865
 6426TIP3    H219236   6.238   6.451   3.769
 6427TIP3   OH219237   6.054   1.470   2.965
 6427TIP3    H119238   5.964   1.483   2.934
 6427TIP3    H219239   6.100   1.550   2.940
 6428TIP3   OH219240   4.772   1.715   2.583
 6428TIP3    H119241   4.746   1.807   2.576
 6428TIP3    H219242   4.697   1.672   2.623
 6429TIP3   OH219243   0.328   1.948   3.059
 6429TIP3    H119244   0.317   1.956   2.964
 6429TIP3    H219245   0.360   1.859   3.072
 6430TIP3   OH219246   7.985   6.413   0.122
 6430TIP3    H119247   7.947   6.499   0.141
 6430TIP3    H219248   7.912   6.352   0.135
 6431TIP3   OH219249   2.408   5.529   0.940
 6431TIP3    H119250   2.388   5.591   0.870
 6431TIP3    H219251   2.444   5.453   0.895
 6432TIP3   OH219252   0.590   7.469   6.071
 6432TIP3    H119253   0.646   7.434   6.002
 6432TIP3    H219254   0.640   7.453   6.152
 6433TIP3   OH219255   5.290   3.203   5.853
 6433TIP3    H119256   5.380   3.209   5.821
 6433TIP3    H219257   5.254   3.291   5.841
 6434TIP3   OH219258   5.989   7.675   1.079
 6434TIP3    H119259   6.000   7.618   1.003
 6434TIP3    H219260   5.909   7.644   1.121
 6435TIP3   OH219261   1.113   0.329   2.736
 6435TIP3    H119262   1.163   0.410   2.722
 6435TIP3    H219263   1.107   0.321   2.831
 6436TIP3   OH219264   7.118   2.966   6.473
 6436TIP3    H119265   7.065   2.925   6.542
 6436TIP3    H219266   7.134   2.895   6.410
 6437TIP3   OH219267   6.328   2.368   5.419
 6437TIP3    H119268   6.371   2.283   5.423
 6437TIP3    H219269   6.327   2.399   5.509
 6438TIP3   OH219270   0.923   1.783   1.779
 6438TIP3    H119271   0.895   1.837   1.852
 6438TIP3    H219272   0.861   1.802   1.709
 6439TIP3   OH219273   0.030   7.025   1.430
 6439TIP3    H119274   0.079   7.094   1.475
 6439TIP3    H219275  -0.009   6.973   1.500
 6440TIP3   OH219276   2.919   2.812   1.032
 6440TIP3    H119277   3.000   2.774   1.063
 6440TIP3    H219278   2.913   2.785   0.940
 6441TIP3   OH219279   7.858   2.837   4.526
 6441TIP3    H119280   7.778   2.847   4.476
 6441TIP3    H219281   7.840   2.763   4.584
 6442TIP3   OH219282   4.225   2.306   2.465
 6442TIP3    H119283   4.136   2.338   2.454
 6442TIP3    H219284   4.230   2.228   2.410
 6443TIP3   OH219285   7.777   1.568   0.179
 6443TIP3    H119286   7.841   1.497   0.180
 6443TIP3    H219287   7.802   1.623   0.253
 6444TIP3   OH219288   2.842   3.789   5.287
 6444TIP3    H119289   2.800   3.724   5.231
 6444TIP3    H219290   2.801   3.872   5.262
 6445TIP3   OH219291   6.725   2.376   5.122
 6445TIP3    H119292   6.713   2.471   5.131
 6445TIP3    H219293   6.637   2.340   5.133
 6446TIP3   OH219294   0.679   5.017   1.469
 6446TIP3    H119295   0.703   5.019   1.561
 6446TIP3    H219296   0.670   4.924   1.448
 6447TIP3   OH219297   5.901   5.945   4.106
 6447TIP3    H119298   5.995   5.927   4.110
 6447TIP3    H219299   5.887   5.974   4.016
 6448TIP3   OH219300   4.345   3.338   5.743
 6448TIP3    H119301   4.438   3.355   5.725
 6448TIP3    H219302   4.343   3.309   5.834
 6449TIP3   OH219303   5.013   4.627   1.454
 6449TIP3    H119304   5.035   4.617   1.362
 6449TIP3    H219305   5.069   4.562   1.499
 6450TIP3   OH219306   2.755   5.083   4.430
 6450TIP3    H119307   2.841   5.042   4.419
 6450TIP3    H219308   2.772   5.157   4.489
 6451TIP3   OH219309   6.893   6.418   2.363
 6451TIP3    H119310   6.803   6.386   2.358
 6451TIP3    H219311   6.907   6.465   2.281
 6452TIP3   OH219312   5.471   4.120   3.408
 6452TIP3    H119313   5.421   4.103   3.488
 6452TIP3    H219314   5.429   4.065   3.342
 6453TIP3   OH219315   1.874   6.010   6.176
 6453TIP3    H119316   1.799   6.061   6.205
 6453TIP3    H219317   1.944   6.032   6.239
 6454TIP3   OH219318   0.606   7.096   4.498
 6454TIP3    H119319   0.567   7.140   4.423
 6454TIP3    H219320   0.629   7.167   4.558
 6455TIP3   OH219321   7.328   1.853   4.052
 6455TIP3    H119322   7.416   1.832   4.023
 6455TIP3    H219323   7.334   1.943   4.085
 6456TIP3   OH219324   7.461   1.820   2.277
 6456TIP3    H119325   7.505   1.897   2.241
 6456TIP3    H219326   7.368   1.843   2.277
 6457TIP3   OH219327   0.595   4.941   1.784
 6457TIP3    H119328   0.507   4.933   1.747
 6457TIP3    H219329   0.602   5.033   1.810
 6458TIP3   OH219330   4.338   4.228   1.560
 6458TIP3    H119331   4.405   4.160   1.565
 6458TIP3    H219332   4.335   4.265   1.648
 6459TIP3   OH219333   6.448   5.208   3.642
 6459TIP3    H119334   6.513   5.212   3.713
 6459TIP3    H219335   6.419   5.298   3.631
 6460TIP3   OH219336   0.966   6.599   3.751
 6460TIP3    H119337   0.923   6.631   3.672
 6460TIP3    H219338   1.050   6.565   3.721
 6461TIP3   OH219339   3.920   3.548   3.282
 6461TIP3    H119340   3.847   3.571   3.225
 6461TIP3    H219341   3.944   3.459   3.256
 6462TIP3   OH219342   8.144   5.323   1.005
 6462TIP3    H119343   8.135   5.418   0.997
 6462TIP3    H219344   8.133   5.305   1.098
 6463TIP3   OH219345   3.757   4.597   0.788
 6463TIP3    H119346   3.719   4.684   0.801
 6463TIP3    H219347   3.852   4.611   0.793
 6464TIP3   OH219348   7.426   0.081   5.587
 6464TIP3    H119349   7.426  -0.005   5.547
 6464TIP3    H219350   7.518   0.107   5.590
 6465TIP3   OH219351   2.094   5.597   6.659
 6465TIP3    H119352   2.000   5.583   6.643
 6465TIP3    H219353   2.110   5.686   6.625
 6466TIP3   OH219354   5.581   7.001   2.533
 6466TIP3    H119355   5.518   7.068   2.556
 6466TIP3    H219356   5.560   6.979   2.442
 6467TIP3   OH219357   3.783   1.967   1.145
 6467TIP3    H119358   3.840   2.005   1.212
 6467TIP3    H219359   3.818   2.001   1.062
 6468TIP3   OH219360   7.095   2.112   6.465
 6468TIP3    H119361   7.167   2.138   6.407
 6468TIP3    H219362   7.018   2.154   6.428
 6469TIP3   OH219363   2.306   7.347   1.150
 6469TIP3    H119364   2.253   7.373   1.075
 6469TIP3    H219365   2.269   7.263   1.178
 6470TIP3   OH219366   4.099   7.647   5.288
 6470TIP3    H119367   4.078   7.695   5.368
 6470TIP3    H219368   4.176   7.692   5.253
 6471TIP3   OH219369   4.567   5.079   4.390
 6471TIP3    H119370   4.657   5.111   4.377
 6471TIP3    H219371   4.578   4.995   4.434
 6472TIP3   OH219372   3.660   6.932   0.158
 6472TIP3    H119373   3.653   6.981   0.240
 6472TIP3    H219374   3.605   6.855   0.172
 6473TIP3   OH219375   1.666   4.306   4.304
 6473TIP3    H119376   1.757   4.298   4.275
 6473TIP3    H219377   1.664   4.387   4.355
 6474TIP3   OH219378   4.474   0.491   5.289
 6474TIP3    H119379   4.529   0.569   5.285
 6474TIP3    H219380   4.527   0.421   5.251
 6475TIP3   OH219381   4.320   3.215   6.030
 6475TIP3    H119382   4.328   3.125   6.060
 6475TIP3    H219383   4.357   3.267   6.101
 6476TIP3   OH219384   6.257   3.948   2.924
 6476TIP3    H119385   6.232   4.026   2.975
 6476TIP3    H219386   6.173   3.907   2.902
 6477TIP3   OH219387   2.945   2.032   2.703
 6477TIP3    H119388   2.909   2.024   2.615
 6477TIP3    H219389   2.911   1.956   2.751
 6478TIP3   OH219390   7.125   0.202   0.932
 6478TIP3    H119391   7.215   0.171   0.924
 6478TIP3    H219392   7.108   0.246   0.848
 6479TIP3   OH219393   1.308   7.196   4.141
 6479TIP3    H119394   1.212   7.199   4.139
 6479TIP3    H219395   1.329   7.103   4.142
 6480TIP3   OH219396   8.242   4.444   6.046
 6480TIP3    H119397   8.326   4.489   6.048
 6480TIP3    H219398   8.176   4.514   6.044
 6481TIP3   OH219399   6.126   6.671   6.108
 6481TIP3    H119400   6.104   6.737   6.042
 6481TIP3    H219401   6.092   6.707   6.190
 6482TIP3   OH219402   2.080   5.480   2.181
 6482TIP3    H119403   2.071   5.437   2.096
 6482TIP3    H219404   2.174   5.476   2.200
 6483TIP3   OH219405   2.239   4.111   6.336
 6483TIP3    H119406   2.208   4.084   6.249
 6483TIP3    H219407   2.253   4.205   6.328
 6484TIP3   OH219408   7.153   1.187   2.133
 6484TIP3    H119409   7.150   1.164   2.226
 6484TIP3    H219410   7.065   1.222   2.115
 6485TIP3   OH219411   2.206   3.176   4.275
 6485TIP3    H119412   2.152   3.138   4.344
 6485TIP3    H219413   2.175   3.266   4.266
 6486TIP3   OH219414   0.171   1.792   1.951
 6486TIP3    H119415   0.117   1.759   2.023
 6486TIP3    H219416   0.180   1.717   1.892
 6487TIP3   OH219417   2.104   3.067   4.515
 6487TIP3    H119418   2.030   3.126   4.526
 6487TIP3    H219419   2.070   2.981   4.537
 6488TIP3   OH219420   8.059   7.649   2.871
 6488TIP3    H119421   7.970   7.621   2.848
 6488TIP3    H219422   8.110   7.635   2.792
 6489TIP3   OH219423   2.061   3.630   4.390
 6489TIP3    H119424   2.151   3.640   4.421
 6489TIP3    H219425   2.011   3.607   4.468
 6490TIP3   OH219426   5.836   2.945   2.778
 6490TIP3    H119427   5.785   2.870   2.808
 6490TIP3    H219428   5.784   3.022   2.804
 6491TIP3   OH219429   6.826   6.859   4.402
 6491TIP3    H119430   6.862   6.803   4.334
 6491TIP3    H219431   6.899   6.914   4.430
 6492TIP3   OH219432   2.979   3.488   0.417
 6492TIP3    H119433   2.978   3.580   0.442
 6492TIP3    H219434   2.911   3.447   0.471
 6493TIP3   OH219435   0.309  -0.010   2.169
 6493TIP3    H119436   0.280   0.077   2.196
 6493TIP3    H219437   0.253  -0.032   2.094
 6494TIP3   OH219438   5.429   2.386   5.270
 6494TIP3    H119439   5.469   2.307   5.306
 6494TIP3    H219440   5.404   2.361   5.181
 6495TIP3   OH219441   2.485   5.784   2.265
 6495TIP3    H119442   2.528   5.820   2.342
 6495TIP3    H219443   2.503   5.848   2.196
 6496TIP3   OH219444   0.264   6.626   4.458
 6496TIP3    H119445   0.313   6.687   4.404
 6496TIP3    H219446   0.284   6.539   4.422
 6497TIP3   OH219447   3.017   0.880   0.007
 6497TIP3    H119448   3.057   0.950   0.060
 6497TIP3    H219449   2.925   0.880   0.032
 6498TIP3   OH219450   6.253   6.955   3.334
 6498TIP3    H119451   6.251   6.910   3.249
 6498TIP3    H219452   6.208   7.037   3.318
 6499TIP3   OH219453   7.081   3.031   0.230
 6499TIP3    H119454   7.154   3.063   0.282
 6499TIP3    H219455   7.120   2.972   0.166
 6500TIP3   OH219456   1.319   3.376   5.205
 6500TIP3    H119457   1.357   3.291   5.182
 6500TIP3    H219458   1.226   3.366   5.186
 6501TIP3   OH219459   5.852   6.876   6.708
 6501TIP3    H119460   5.782   6.856   6.645
 6501TIP3    H219461   5.816   6.948   6.761
 6502TIP3   OH219462   1.753   4.727   0.942
 6502TIP3    H119463   1.663   4.716   0.911
 6502TIP3    H219464   1.776   4.816   0.915
 6503TIP3   OH219465   2.260   3.458   0.575
 6503TIP3    H119466   2.228   3.462   0.485
 6503TIP3    H219467   2.205   3.519   0.623
 6504TIP3   OH219468   4.905   0.785   3.439
 6504TIP3    H119469   4.850   0.833   3.501
 6504TIP3    H219470   4.930   0.850   3.374
 6505TIP3   OH219471   0.822   2.498   5.885
 6505TIP3    H119472   0.875   2.490   5.965
 6505TIP3    H219473   0.885   2.524   5.818
 6506TIP3   OH219474   1.808   3.366   5.985
 6506TIP3    H119475   1.888   3.335   6.026
 6506TIP3    H219476   1.819   3.345   5.892
 6507TIP3   OH219477   7.213   6.236   4.604
 6507TIP3    H119478   7.258   6.151   4.600
 6507TIP3    H219479   7.219   6.262   4.696
 6508TIP3   OH219480   3.376   6.018   5.191
 6508TIP3    H119481   3.301   5.975   5.149
 6508TIP3    H219482   3.433   5.945   5.218
 6509TIP3   OH219483   0.416   5.593   1.623
 6509TIP3    H119484   0.433   5.500   1.609
 6509TIP3    H219485   0.414   5.630   1.535
 6510TIP3   OH219486   4.721   0.851   1.881
 6510TIP3    H119487   4.747   0.802   1.959
 6510TIP3    H219488   4.749   0.941   1.898
 6511TIP3   OH219489   6.503   2.090   3.084
 6511TIP3    H119490   6.550   2.133   3.013
 6511TIP3    H219491   6.572   2.062   3.144
 6512TIP3   OH219492   6.614   7.495   1.657
 6512TIP3    H119493   6.574   7.572   1.698
 6512TIP3    H219494   6.678   7.465   1.721
 6513TIP3   OH219495   2.889   4.022   6.604
 6513TIP3    H119496   2.959   4.084   6.582
 6513TIP3    H219497   2.819   4.040   6.541
 6514TIP3   OH219498   5.873   7.236   0.695
 6514TIP3    H119499   5.907   7.238   0.785
 6514TIP3    H219500   5.941   7.191   0.644
 6515TIP3   OH219501   6.143   1.804   4.685
 6515TIP3    H119502   6.080   1.767   4.746
 6515TIP3    H219503   6.209   1.736   4.674
 6516TIP3   OH219504   1.880   5.106   3.596
 6516TIP3    H119505   1.960   5.055   3.587
 6516TIP3    H219506   1.811   5.048   3.563
 6517TIP3   OH219507   5.723   1.777   1.936
 6517TIP3    H119508   5.778   1.825   1.999
 6517TIP3    H219509   5.673   1.845   1.892
 6518TIP3   OH219510   3.358   3.738   2.903
 6518TIP3    H119511   3.373   3.656   2.856
 6518TIP3    H219512   3.263   3.748   2.904
 6519TIP3   OH219513   1.361   5.670   4.500
 6519TIP3    H119514   1.423   5.617   4.450
 6519TIP3    H219515   1.371   5.640   4.590
 6520TIP3   OH219516   2.689   2.123   2.070
 6520TIP3    H119517   2.758   2.058   2.053
 6520TIP3    H219518   2.654   2.144   1.983
 6521TIP3   OH219519   6.513   7.035   1.210
 6521TIP3    H119520   6.502   7.016   1.304
 6521TIP3    H219521   6.521   6.949   1.169
 6522TIP3   OH219522   7.718   4.348   1.097
 6522TIP3    H119523   7.657   4.282   1.063
 6522TIP3    H219524   7.662   4.411   1.143
 6523TIP3   OH219525   6.284   5.859   0.035
 6523TIP3    H119526   6.291   5.861   0.130
 6523TIP3    H219527   6.253   5.770   0.015
 6524TIP3   OH219528   0.197   3.368   1.849
 6524TIP3    H119529   0.256   3.389   1.922
 6524TIP3    H219530   0.110   3.366   1.889
 6525TIP3   OH219531   5.830   1.834   3.957
 6525TIP3    H119532   5.880   1.832   4.039
 6525TIP3    H219533   5.821   1.927   3.936
 6526TIP3   OH219534   6.146   6.945   5.552
 6526TIP3    H119535   6.164   6.854   5.575
 6526TIP3    H219536   6.062   6.964   5.594
 6527TIP3   OH219537   5.971   1.235   4.191
 6527TIP3    H119538   6.030   1.215   4.263
 6527TIP3    H219539   6.029   1.245   4.115
 6528TIP3   OH219540   0.361   7.462   2.902
 6528TIP3    H119541   0.333   7.398   2.968
 6528TIP3    H219542   0.419   7.521   2.950
 6529TIP3   OH219543   2.771   4.689   6.530
 6529TIP3    H119544   2.730   4.678   6.616
 6529TIP3    H219545   2.828   4.765   6.540
 6530TIP3   OH219546   6.576   3.523   4.602
 6530TIP3    H119547   6.485   3.551   4.605
 6530TIP3    H219548   6.618   3.569   4.674
 6531TIP3   OH219549   3.361   6.649   3.830
 6531TIP3    H119550   3.320   6.722   3.875
 6531TIP3    H219551   3.366   6.579   3.895
 6532TIP3   OH219552   6.180   0.953   5.654
 6532TIP3    H119553   6.255   0.982   5.705
 6532TIP3    H219554   6.200   0.863   5.630
 6533TIP3   OH219555   8.073   5.332   2.896
 6533TIP3    H119556   8.005   5.292   2.843
 6533TIP3    H219557   8.095   5.413   2.851
 6534TIP3   OH219558   8.043   4.316   4.437
 6534TIP3    H119559   8.051   4.403   4.399
 6534TIP3    H219560   7.950   4.305   4.453
 6535TIP3   OH219561   5.685   3.360   1.796
 6535TIP3    H119562   5.658   3.335   1.707
 6535TIP3    H219563   5.781   3.357   1.793
 6536TIP3   OH219564   8.027   6.204   5.481
 6536TIP3    H119565   7.993   6.187   5.569
 6536TIP3    H219566   8.108   6.251   5.495
 6537TIP3   OH219567   5.680   6.194   5.549
 6537TIP3    H119568   5.696   6.220   5.640
 6537TIP3    H219569   5.707   6.102   5.545
 6538TIP3   OH219570   0.241   2.911   1.008
 6538TIP3    H119571   0.195   2.971   0.949
 6538TIP3    H219572   0.225   2.947   1.096
 6539TIP3   OH219573   8.072   6.487   4.238
 6539TIP3    H119574   8.106   6.551   4.175
 6539TIP3    H219575   8.148   6.435   4.264
 6540TIP3   OH219576   5.049   7.579   3.675
 6540TIP3    H119577   4.957   7.607   3.677
 6540TIP3    H219578   5.068   7.567   3.582
 6541TIP3   OH219579   1.803   1.962   0.097
 6541TIP3    H119580   1.715   2.000   0.093
 6541TIP3    H219581   1.803   1.896   0.028
 6542TIP3   OH219582   0.131   0.719   4.203
 6542TIP3    H119583   0.204   0.674   4.247
 6542TIP3    H219584   0.147   0.706   4.110
 6543TIP3   OH219585   5.222   5.369   2.469
 6543TIP3    H119586   5.280   5.306   2.425
 6543TIP3    H219587   5.276   5.408   2.538
 6544TIP3   OH219588   6.106   0.333   1.803
 6544TIP3    H119589   6.154   0.284   1.870
 6544TIP3    H219590   6.030   0.279   1.783
 6545TIP3   OH219591   6.777   0.689   1.122
 6545TIP3    H119592   6.813   0.602   1.136
 6545TIP3    H219593   6.770   0.697   1.027
 6546TIP3   OH219594   7.776   4.632   1.916
 6546TIP3    H119595   7.767   4.570   1.844
 6546TIP3    H219596   7.868   4.624   1.943
 6547TIP3   OH219597   7.790   0.744   2.639
 6547TIP3    H119598   7.877   0.784   2.643
 6547TIP3    H219599   7.808   0.652   2.617
 6548TIP3   OH219600   3.549   4.262   5.801
 6548TIP3    H119601   3.616   4.193   5.798
 6548TIP3    H219602   3.474   4.219   5.842
 6549TIP3   OH219603   1.677   0.974   3.344
 6549TIP3    H119604   1.685   1.062   3.308
 6549TIP3    H219605   1.638   0.922   3.273
 6550TIP3   OH219606   1.683   3.575   5.118
 6550TIP3    H119607   1.682   3.481   5.134
 6550TIP3    H219608   1.592   3.603   5.131
 6551TIP3   OH219609   7.803   5.125   4.686
 6551TIP3    H119610   7.893   5.130   4.719
 6551TIP3    H219611   7.758   5.199   4.728
 6552TIP3   OH219612   2.029   5.812   1.758
 6552TIP3    H119613   2.114   5.784   1.792
 6552TIP3    H219614   2.003   5.741   1.698
 6553TIP3   OH219615   0.773   5.909   6.310
 6553TIP3    H119616   0.710   5.978   6.330
 6553TIP3    H219617   0.748   5.836   6.366
 6554TIP3   OH219618   7.450   4.874   3.072
 6554TIP3    H119619   7.426   4.793   3.027
 6554TIP3    H219620   7.439   4.854   3.165
 6555TIP3   OH219621   3.927   7.398   3.996
 6555TIP3    H119622   3.963   7.455   4.064
 6555TIP3    H219623   3.992   7.327   3.987
 6556TIP3   OH219624   1.431   3.100   5.495
 6556TIP3    H119625   1.338   3.111   5.515
 6556TIP3    H219626   1.465   3.189   5.490
 6557TIP3   OH219627   1.760   5.099   0.690
 6557TIP3    H119628   1.760   5.057   0.776
 6557TIP3    H219629   1.822   5.172   0.699
 6558TIP3   OH219630   2.840   2.227   5.667
 6558TIP3    H119631   2.922   2.187   5.638
 6558TIP3    H219632   2.852   2.320   5.651
 6559TIP3   OH219633   5.687   5.727   3.628
 6559TIP3    H119634   5.652   5.814   3.650
 6559TIP3    H219635   5.613   5.668   3.641
 6560TIP3   OH219636   7.361   3.194   1.049
 6560TIP3    H119637   7.418   3.231   0.981
 6560TIP3    H219638   7.421   3.164   1.117
 6561TIP3   OH219639   4.315   7.587   1.676
 6561TIP3    H119640   4.304   7.632   1.593
 6561TIP3    H219641   4.286   7.651   1.742
 6562TIP3   OH219642   4.352   5.157   0.360
 6562TIP3    H119643   4.321   5.242   0.326
 6562TIP3    H219644   4.350   5.099   0.284
 6563TIP3   OH219645   3.326   6.736   3.391
 6563TIP3    H119646   3.279   6.751   3.473
 6563TIP3    H219647   3.256   6.731   3.325
 6564TIP3   OH219648   1.592   0.540   5.267
 6564TIP3    H119649   1.586   0.619   5.212
 6564TIP3    H219650   1.663   0.489   5.227
 6565TIP3   OH219651   6.803   6.444   3.952
 6565TIP3    H119652   6.839   6.532   3.950
 6565TIP3    H219653   6.759   6.438   4.037
 6566TIP3   OH219654   6.899   2.436   2.183
 6566TIP3    H119655   6.873   2.455   2.273
 6566TIP3    H219656   6.982   2.484   2.171
 6567TIP3   OH219657   5.121   1.654   5.883
 6567TIP3    H119658   5.076   1.624   5.804
 6567TIP3    H219659   5.116   1.580   5.944
 6568TIP3   OH219660   2.774   3.928   1.984
 6568TIP3    H119661   2.689   3.953   1.947
 6568TIP3    H219662   2.805   3.858   1.926
 6569TIP3   OH219663   4.432   1.156   6.545
 6569TIP3    H119664   4.435   1.145   6.639
 6569TIP3    H219665   4.339   1.151   6.523
 6570TIP3   OH219666   1.843   1.526   6.769
 6570TIP3    H119667   1.861   1.521   6.675
 6570TIP3    H219668   1.882   1.447   6.805
 6571TIP3   OH219669   3.111   0.914   1.805
 6571TIP3    H119670   3.135   1.002   1.835
 6571TIP3    H219671   3.043   0.886   1.867
 6572TIP3   OH219672   2.499   6.810   6.575
 6572TIP3    H119673   2.459   6.828   6.490
 6572TIP3    H219674   2.581   6.860   6.575
 6573TIP3   OH219675   7.420   1.138   4.778
 6573TIP3    H119676   7.350   1.175   4.832
 6573TIP3    H219677   7.494   1.127   4.837
 6574TIP3   OH219678   0.402   6.312   4.780
 6574TIP3    H119679   0.489   6.306   4.739
 6574TIP3    H219680   0.419   6.339   4.870
 6575TIP3   OH219681   2.226   6.641   3.053
 6575TIP3    H119682   2.173   6.562   3.049
 6575TIP3    H219683   2.204   6.690   2.973
 6576TIP3   OH219684   6.777   5.352   0.182
 6576TIP3    H119685   6.744   5.374   0.269
 6576TIP3    H219686   6.737   5.416   0.124
 6577TIP3   OH219687   4.845   4.385   0.113
 6577TIP3    H119688   4.837   4.432   0.196
 6577TIP3    H219689   4.891   4.304   0.135
 6578TIP3   OH219690   6.842   4.973   2.279
 6578TIP3    H119691   6.907   4.909   2.308
 6578TIP3    H219692   6.880   5.013   2.201
 6579TIP3   OH219693   6.593   3.494   6.200
 6579TIP3    H119694   6.631   3.419   6.153
 6579TIP3    H219695   6.595   3.468   6.292
 6580TIP3   OH219696   2.178   1.911   5.171
 6580TIP3    H119697   2.256   1.962   5.146
 6580TIP3    H219698   2.182   1.834   5.114
 6581TIP3   OH219699   1.777   0.820   2.059
 6581TIP3    H119700   1.762   0.725   2.055
 6581TIP3    H219701   1.695   0.856   2.094
 6582TIP3   OH219702   2.249   1.872   4.740
 6582TIP3    H119703   2.290   1.831   4.663
 6582TIP3    H219704   2.242   1.964   4.716
 6583TIP3   OH219705   4.869   3.403   2.544
 6583TIP3    H119706   4.827   3.348   2.478
 6583TIP3    H219707   4.959   3.369   2.551
 6584TIP3   OH219708   2.381   2.487   1.126
 6584TIP3    H119709   2.355   2.405   1.084
 6584TIP3    H219710   2.342   2.482   1.213
 6585TIP3   OH219711   2.187   5.049   2.817
 6585TIP3    H119712   2.129   5.078   2.887
 6585TIP3    H219713   2.135   4.985   2.768
 6586TIP3   OH219714   7.861   1.544   1.437
 6586TIP3    H119715   7.883   1.568   1.527
 6586TIP3    H219716   7.785   1.598   1.415
 6587TIP3   OH219717   2.927   7.751   4.136
 6587TIP3    H119718   2.836   7.727   4.155
 6587TIP3    H219719   2.935   7.740   4.041
 6588TIP3   OH219720   4.007   6.997   2.720
 6588TIP3    H119721   3.996   6.912   2.679
 6588TIP3    H219722   3.930   7.007   2.776
 6589TIP3   OH219723   2.442   4.589   4.646
 6589TIP3    H119724   2.495   4.618   4.571
 6589TIP3    H219725   2.353   4.613   4.623
 6590TIP3   OH219726   0.013   5.864   1.080
 6590TIP3    H119727  -0.067   5.824   1.116
 6590TIP3    H219728  -0.011   5.956   1.066
 6591TIP3   OH219729   7.735   7.353   3.145
 6591TIP3    H119730   7.795   7.427   3.149
 6591TIP3    H219731   7.757   7.308   3.063
 6592TIP3   OH219732   0.921   4.961   2.636
 6592TIP3    H119733   0.900   5.007   2.717
 6592TIP3    H219734   0.851   4.985   2.575
 6593TIP3   OH219735   3.472   6.924   1.187
 6593TIP3    H119736   3.508   7.011   1.176
 6593TIP3    H219737   3.460   6.915   1.282
 6594TIP3   OH219738   2.872   3.968   3.450
 6594TIP3    H119739   2.781   3.959   3.423
 6594TIP3    H219740   2.902   3.879   3.465
 6595TIP3   OH219741   6.576   6.733   2.871
 6595TIP3    H119742   6.556   6.640   2.859
 6595TIP3    H219743   6.652   6.734   2.928
 6596TIP3   OH219744   3.815   5.633   6.619
 6596TIP3    H119745   3.730   5.669   6.642
 6596TIP3    H219746   3.805   5.601   6.530
 6597TIP3   OH219747   3.387   1.710   3.152
 6597TIP3    H119748   3.338   1.686   3.073
 6597TIP3    H219749   3.419   1.627   3.187
 6598TIP3   OH219750   0.735   0.684   5.914
 6598TIP3    H119751   0.741   0.726   6.000
 6598TIP3    H219752   0.813   0.713   5.867
 6599TIP3   OH219753   0.313   4.904   0.480
 6599TIP3    H119754   0.315   4.917   0.574
 6599TIP3    H219755   0.258   4.827   0.468
 6600TIP3   OH219756   2.336   4.524   5.964
 6600TIP3    H119757   2.299   4.612   5.969
 6600TIP3    H219758   2.353   4.509   5.871
 6601TIP3   OH219759   1.578   3.332   6.159
 6601TIP3    H119760   1.671   3.344   6.138
 6601TIP3    H219761   1.547   3.267   6.096
 6602TIP3   OH219762   7.966   5.198   5.403
 6602TIP3    H119763   7.926   5.121   5.365
 6602TIP3    H219764   7.894   5.260   5.414
 6603TIP3   OH219765   3.433   7.146   4.922
 6603TIP3    H119766   3.437   7.204   4.847
 6603TIP3    H219767   3.340   7.126   4.932
 6604TIP3   OH219768   5.533   0.457   1.710
 6604TIP3    H119769   5.491   0.543   1.708
 6604TIP3    H219770   5.606   0.467   1.771
 6605TIP3   OH219771   6.556   0.344   0.894
 6605TIP3    H119772   6.529   0.434   0.910
 6605TIP3    H219773   6.652   0.346   0.904
 6606TIP3   OH219774   7.518   6.321   5.808
 6606TIP3    H119775   7.498   6.235   5.771
 6606TIP3    H219776   7.563   6.368   5.737
 6607TIP3   OH219777   0.395   6.792   2.019
 6607TIP3    H119778   0.461   6.773   2.086
 6607TIP3    H219779   0.325   6.728   2.036
 6608TIP3   OH219780   4.954   3.575   2.909
 6608TIP3    H119781   5.031   3.547   2.861
 6608TIP3    H219782   4.913   3.641   2.853
 6609TIP3   OH219783   7.249   0.176   4.535
 6609TIP3    H119784   7.337   0.212   4.528
 6609TIP3    H219785   7.213   0.181   4.447
 6610TIP3   OH219786   4.305   0.622   6.213
 6610TIP3    H119787   4.226   0.575   6.239
 6610TIP3    H219788   4.335   0.665   6.293
 6611TIP3   OH219789   4.115   1.977   6.004
 6611TIP3    H119790   4.188   1.916   6.012
 6611TIP3    H219791   4.088   1.971   5.912
 6612TIP3   OH219792   1.194   4.670   2.610
 6612TIP3    H119793   1.113   4.679   2.560
 6612TIP3    H219794   1.224   4.760   2.622
 6613TIP3   OH219795   1.474   0.287   3.019
 6613TIP3    H119796   1.449   0.256   2.933
 6613TIP3    H219797   1.570   0.282   3.019
 6614TIP3   OH219798   6.415   7.774   0.045
 6614TIP3    H119799   6.408   7.683   0.074
 6614TIP3    H219800   6.424   7.768  -0.050
 6615TIP3   OH219801   5.141   7.058   1.025
 6615TIP3    H119802   5.177   7.103   1.101
 6615TIP3    H219803   5.160   6.965   1.040
 6616TIP3   OH219804   5.263   5.605   3.659
 6616TIP3    H119805   5.208   5.672   3.617
 6616TIP3    H219806   5.276   5.638   3.748
 6617TIP3   OH219807   4.781   0.156   3.901
 6617TIP3    H119808   4.698   0.204   3.896
 6617TIP3    H219809   4.833   0.191   3.828
 6618TIP3   OH219810   4.895   2.977   5.280
 6618TIP3    H119811   4.834   3.013   5.216
 6618TIP3    H219812   4.982   3.005   5.250
 6619TIP3   OH219813   0.701   2.819   2.126
 6619TIP3    H119814   0.775   2.758   2.126
 6619TIP3    H219815   0.701   2.857   2.038
 6620TIP3   OH219816   1.325   0.650   1.434
 6620TIP3    H119817   1.308   0.705   1.510
 6620TIP3    H219818   1.346   0.564   1.471
 6621TIP3   OH219819   1.067   0.758   5.121
 6621TIP3    H119820   1.136   0.720   5.067
 6621TIP3    H219821   0.991   0.765   5.064
 6622TIP3   OH219822   7.278   6.611   5.500
 6622TIP3    H119823   7.366   6.574   5.492
 6622TIP3    H219824   7.280   6.659   5.583
 6623TIP3   OH219825   2.608   5.069   4.718
 6623TIP3    H119826   2.699   5.090   4.700
 6623TIP3    H219827   2.585   5.003   4.652
 6624TIP3   OH219828   6.926   4.831   6.211
 6624TIP3    H119829   6.963   4.809   6.297
 6624TIP3    H219830   6.934   4.926   6.206
 6625TIP3   OH219831   1.649   6.151   3.816
 6625TIP3    H119832   1.587   6.115   3.879
 6625TIP3    H219833   1.708   6.205   3.868
 6626TIP3   OH219834   7.217   5.851   0.120
 6626TIP3    H119835   7.270   5.772   0.111
 6626TIP3    H219836   7.213   5.886   0.031
 6627TIP3   OH219837   0.186   4.728   3.108
 6627TIP3    H119838   0.254   4.666   3.081
 6627TIP3    H219839   0.232   4.812   3.114
 6628TIP3   OH219840   7.433   7.023   1.177
 6628TIP3    H119841   7.440   7.043   1.084
 6628TIP3    H219842   7.494   7.083   1.219
 6629TIP3   OH219843   7.551   0.040   3.879
 6629TIP3    H119844   7.632   0.088   3.896
 6629TIP3    H219845   7.481   0.103   3.898
 6630TIP3   OH219846   1.540   4.793   5.507
 6630TIP3    H119847   1.580   4.837   5.433
 6630TIP3    H219848   1.574   4.703   5.502
 6631TIP3   OH219849   3.154   4.386   1.185
 6631TIP3    H119850   3.091   4.321   1.216
 6631TIP3    H219851   3.237   4.338   1.180
 6632TIP3   OH219852   0.088   7.237   1.001
 6632TIP3    H119853   0.054   7.253   1.089
 6632TIP3    H219854   0.180   7.263   1.006
 6633TIP3   OH219855   0.055   1.432   5.130
 6633TIP3    H119856   0.087   1.491   5.199
 6633TIP3    H219857  -0.010   1.483   5.083
 6634TIP3   OH219858   5.161   7.837   2.481
 6634TIP3    H119859   5.206   7.789   2.551
 6634TIP3    H219860   5.231   7.864   2.422
 6635TIP3   OH219861   1.135   1.629   1.893
 6635TIP3    H119862   1.055   1.672   1.863
 6635TIP3    H219863   1.183   1.697   1.939
 6636TIP3   OH219864   4.624   1.556   6.557
 6636TIP3    H119865   4.536   1.550   6.593
 6636TIP3    H219866   4.626   1.492   6.486
 6637TIP3   OH219867   2.772   0.581   0.502
 6637TIP3    H119868   2.825   0.502   0.509
 6637TIP3    H219869   2.744   0.584   0.410
 6638TIP3   OH219870   2.031   3.474   2.933
 6638TIP3    H119871   2.027   3.563   2.900
 6638TIP3    H219872   2.108   3.436   2.891
 6639TIP3   OH219873   0.707   2.181   4.276
 6639TIP3    H119874   0.766   2.106   4.269
 6639TIP3    H219875   0.741   2.230   4.351
 6640TIP3   OH219876   6.890   2.036   1.267
 6640TIP3    H119877   6.850   2.065   1.349
 6640TIP3    H219878   6.832   2.070   1.199
 6641TIP3   OH219879   2.562   6.082   6.415
 6641TIP3    H119880   2.491   6.130   6.457
 6641TIP3    H219881   2.553   6.100   6.322
 6642TIP3   OH219882   2.985   5.486   0.669
 6642TIP3    H119883   2.987   5.582   0.660
 6642TIP3    H219884   2.893   5.463   0.660
 6643TIP3   OH219885   5.861   5.227   0.727
 6643TIP3    H119886   5.824   5.210   0.640
 6643TIP3    H219887   5.953   5.203   0.719
 6644TIP3   OH219888   5.285   4.612   2.875
 6644TIP3    H119889   5.281   4.526   2.833
 6644TIP3    H219890   5.291   4.593   2.969
 6645TIP3   OH219891   8.246   3.510   6.134
 6645TIP3    H119892   8.203   3.546   6.211
 6645TIP3    H219893   8.288   3.430   6.166
 6646TIP3   OH219894   0.776   6.171   2.147
 6646TIP3    H119895   0.833   6.242   2.178
 6646TIP3    H219896   0.728   6.144   2.226
 6647TIP3   OH219897   5.210   6.903   6.501
 6647TIP3    H119898   5.198   6.945   6.586
 6647TIP3    H219899   5.182   6.812   6.514
 6648TIP3   OH219900   4.386   6.539   5.877
 6648TIP3    H119901   4.296   6.561   5.900
 6648TIP3    H219902   4.439   6.574   5.949
 6649TIP3   OH219903   3.479   1.971   2.450
 6649TIP3    H119904   3.567   2.005   2.431
 6649TIP3    H219905   3.452   1.929   2.368
 6650TIP3   OH219906   3.347   1.790   0.216
 6650TIP3    H119907   3.439   1.763   0.208
 6650TIP3    H219908   3.298   1.708   0.208
 6651TIP3   OH219909   4.365   4.660   2.448
 6651TIP3    H119910   4.421   4.587   2.425
 6651TIP3    H219911   4.352   4.653   2.542
 6652TIP3   OH219912   4.740   5.125   0.531
 6652TIP3    H119913   4.769   5.133   0.440
 6652TIP3    H219914   4.682   5.199   0.544
 6653TIP3   OH219915   8.011   0.055   6.620
 6653TIP3    H119916   8.104   0.052   6.640
 6653TIP3    H219917   7.989   0.149   6.622
 6654TIP3   OH219918   1.914   3.548   4.628
 6654TIP3    H119919   1.854   3.596   4.685
 6654TIP3    H219920   1.989   3.527   4.684
 6655TIP3   OH219921   3.485   1.307   0.613
 6655TIP3    H119922   3.510   1.225   0.656
 6655TIP3    H219923   3.509   1.295   0.521
 6656TIP3   OH219924   3.327   0.084   4.555
 6656TIP3    H119925   3.266   0.154   4.529
 6656TIP3    H219926   3.282   0.003   4.531
 6657TIP3   OH219927   2.988   7.532   6.224
 6657TIP3    H119928   3.069   7.563   6.184
 6657TIP3    H219929   2.946   7.480   6.155
 6658TIP3   OH219930   1.962   1.222   3.266
 6658TIP3    H119931   1.869   1.197   3.262
 6658TIP3    H219932   2.008   1.147   3.230
 6659TIP3   OH219933   7.740   6.005   6.728
 6659TIP3    H119934   7.718   6.097   6.716
 6659TIP3    H219935   7.690   5.978   6.806
 6660TIP3   OH219936   4.971   1.029   5.869
 6660TIP3    H119937   5.031   0.960   5.898
 6660TIP3    H219938   4.904   0.983   5.818
 6661TIP3   OH219939   3.640   7.653   6.151
 6661TIP3    H119940   3.545   7.641   6.149
 6661TIP3    H219941   3.660   7.662   6.244
 6662TIP3   OH219942   3.054   5.562   3.821
 6662TIP3    H119943   3.020   5.623   3.756
 6662TIP3    H219944   3.075   5.617   3.897
 6663TIP3   OH219945   2.250   4.850   6.286
 6663TIP3    H119946   2.244   4.919   6.352
 6663TIP3    H219947   2.284   4.774   6.334
 6664TIP3   OH219948   4.753   1.819   3.896
 6664TIP3    H119949   4.819   1.797   3.962
 6664TIP3    H219950   4.678   1.851   3.947
 6665TIP3   OH219951   0.089   4.318   4.511
 6665TIP3    H119952   0.039   4.316   4.430
 6665TIP3    H219953   0.056   4.395   4.558
 6666TIP3   OH219954   0.620   5.306   2.659
 6666TIP3    H119955   0.682   5.365   2.616
 6666TIP3    H219956   0.604   5.346   2.745
 6667TIP3   OH219957   0.940   7.732   4.146
 6667TIP3    H119958   0.979   7.792   4.081
 6667TIP3    H219959   1.005   7.662   4.155
 6668TIP3   OH219960   1.894   4.975   6.404
 6668TIP3    H119961   1.885   4.968   6.499
 6668TIP3    H219962   1.822   4.922   6.369
 6669TIP3   OH219963   3.388   4.600   0.911
 6669TIP3    H119964   3.361   4.689   0.935
 6669TIP3    H219965   3.311   4.547   0.927
 6670TIP3   OH219966   5.515   3.880   1.056
 6670TIP3    H119967   5.564   3.832   0.990
 6670TIP3    H219968   5.426   3.843   1.052
 6671TIP3   OH219969   3.903   3.540   5.161
 6671TIP3    H119970   3.815   3.556   5.194
 6671TIP3    H219971   3.960   3.592   5.219
 6672TIP3   OH219972   5.050   1.754   2.650
 6672TIP3    H119973   5.054   1.848   2.665
 6672TIP3    H219974   4.958   1.732   2.662
 6673TIP3   OH219975   4.273   2.646   0.093
 6673TIP3    H119976   4.279   2.682   0.005
 6673TIP3    H219977   4.193   2.686   0.130
 6674TIP3   OH219978   5.039   1.096   3.587
 6674TIP3    H119979   4.955   1.064   3.555
 6674TIP3    H219980   5.041   1.188   3.563
 6675TIP3   OH219981   8.008   4.851   4.931
 6675TIP3    H119982   7.932   4.862   4.988
 6675TIP3    H219983   7.972   4.854   4.843
 6676TIP3   OH219984   6.891   4.214   3.709
 6676TIP3    H119985   6.970   4.195   3.759
 6676TIP3    H219986   6.922   4.231   3.620
 6677TIP3   OH219987   7.845   7.139   4.993
 6677TIP3    H119988   7.754   7.171   4.988
 6677TIP3    H219989   7.860   7.127   5.087
 6678TIP3   OH219990   1.447   5.219   1.855
 6678TIP3    H119991   1.440   5.157   1.928
 6678TIP3    H219992   1.373   5.197   1.799
 6679TIP3   OH219993   4.293   1.811   1.091
 6679TIP3    H119994   4.310   1.891   1.043
 6679TIP3    H219995   4.340   1.822   1.174
 6680TIP3   OH219996   6.070   3.495   0.283
 6680TIP3    H119997   6.158   3.514   0.250
 6680TIP3    H219998   6.067   3.400   0.288
 6681TIP3   OH219999   2.414   2.279   6.621
 6681TIP3    H120000   2.323   2.309   6.627
 6681TIP3    H220001   2.408   2.185   6.606
 6682TIP3   OH220002   2.128   6.023   4.432
 6682TIP3    H120003   2.089   6.076   4.363
 6682TIP3    H220004   2.112   6.072   4.513
 6683TIP3   OH220005   6.692   2.180   0.796
 6683TIP3    H120006   6.696   2.123   0.719
 6683TIP3    H220007   6.747   2.255   0.773
 6684TIP3   OH220008   8.096   1.567   4.379
 6684TIP3    H120009   8.031   1.514   4.331
 6684TIP3    H220010   8.180   1.535   4.348
 6685TIP3   OH220011   6.313   7.496   0.851
 6685TIP3    H120012   6.221   7.491   0.877
 6685TIP3    H220013   6.343   7.581   0.882
 6686TIP3   OH220014   5.219   1.941   0.029
 6686TIP3    H120015   5.290   2.004   0.013
 6686TIP3    H220016   5.140   1.987   0.000
 6687TIP3   OH220017   4.697   5.940   3.708
 6687TIP3    H120018   4.732   5.975   3.790
 6687TIP3    H220019   4.758   5.970   3.641
 6688TIP3   OH220020   1.688   3.440   4.341
 6688TIP3    H120021   1.700   3.531   4.312
 6688TIP3    H220022   1.673   3.447   4.435
 6689TIP3   OH220023   7.871   1.830   0.029
 6689TIP3    H120024   7.790   1.783   0.009
 6689TIP3    H220025   7.925   1.820  -0.049
 6690TIP3   OH220026   6.183   0.134   2.076
 6690TIP3    H120027   6.261   0.175   2.114
 6690TIP3    H220028   6.117   0.204   2.076
 6691TIP3   OH220029   7.024   4.449   3.257
 6691TIP3    H120030   6.963   4.509   3.300
 6691TIP3    H220031   7.015   4.470   3.164
 6692TIP3   OH220032   5.849   4.759   0.708
 6692TIP3    H120033   5.872   4.833   0.653
 6692TIP3    H220034   5.767   4.784   0.750
 6693TIP3   OH220035   3.251   1.762   0.647
 6693TIP3    H120036   3.185   1.750   0.579
 6693TIP3    H220037   3.201   1.780   0.727
 6694TIP3   OH220038   1.917   0.580   5.994
 6694TIP3    H120039   2.006   0.560   5.965
 6694TIP3    H220040   1.861   0.520   5.946
 6695TIP3   OH220041   5.725   6.659   4.428
 6695TIP3    H120042   5.658   6.727   4.417
 6695TIP3    H220043   5.684   6.580   4.391
 6696TIP3   OH220044   5.571   6.400   4.943
 6696TIP3    H120045   5.496   6.365   4.894
 6696TIP3    H220046   5.563   6.495   4.935
 6697TIP3   OH220047   4.528   0.701   5.664
 6697TIP3    H120048   4.547   0.794   5.673
 6697TIP3    H220049   4.531   0.668   5.754
 6698TIP3   OH220050   3.925   4.757   6.102
 6698TIP3    H120051   3.977   4.836   6.114
 6698TIP3    H220052   3.879   4.772   6.019
 6699TIP3   OH220053   4.463   0.456   0.296
 6699TIP3    H120054   4.511   0.483   0.218
 6699TIP3    H220055   4.390   0.517   0.301
 6700TIP3   OH220056   0.402   7.191   0.671
 6700TIP3    H120057   0.320   7.148   0.694
 6700TIP3    H220058   0.460   7.176   0.746
 6701TIP3   OH220059   4.863   7.040   1.006
 6701TIP3    H120060   4.956   7.050   1.025
 6701TIP3    H220061   4.860   7.003   0.917
 6702TIP3   OH220062   7.852   1.478   5.648
 6702TIP3    H120063   7.769   1.515   5.620
 6702TIP3    H220064   7.918   1.524   5.595
 6703TIP3   OH220065   2.509   4.318   4.639
 6703TIP3    H120066   2.503   4.411   4.661
 6703TIP3    H220067   2.581   4.285   4.693
 6704TIP3   OH220068   2.273   7.282   1.512
 6704TIP3    H120069   2.285   7.362   1.462
 6704TIP3    H220070   2.342   7.223   1.481
 6705TIP3   OH220071   2.041   0.633   0.776
 6705TIP3    H120072   2.008   0.551   0.741
 6705TIP3    H220073   2.050   0.618   0.870
 6706TIP3   OH220074   7.589   5.909   6.531
 6706TIP3    H120075   7.631   5.916   6.445
 6706TIP3    H220076   7.652   5.946   6.592
 6707TIP3   OH220077   7.768   4.082   0.491
 6707TIP3    H120078   7.698   4.145   0.510
 6707TIP3    H220079   7.815   4.074   0.573
 6708TIP3   OH220080   8.139   5.570   6.681
 6708TIP3    H120081   8.199   5.539   6.613
 6708TIP3    H220082   8.053   5.570   6.639
 6709TIP3   OH220083   2.084   1.533   6.078
 6709TIP3    H120084   2.026   1.570   6.144
 6709TIP3    H220085   2.050   1.444   6.064
 6710TIP3   OH220086   5.842   0.922   6.284
 6710TIP3    H120087   5.867   0.901   6.374
 6710TIP3    H220088   5.858   1.016   6.276
 6711TIP3   OH220089   4.489   6.255   6.188
 6711TIP3    H120090   4.553   6.321   6.213
 6711TIP3    H220091   4.540   6.175   6.175
 6712TIP3   OH220092   1.532   2.103   5.635
 6712TIP3    H120093   1.438   2.106   5.655
 6712TIP3    H220094   1.559   2.195   5.632
 6713TIP3   OH220095   1.624   7.606   2.692
 6713TIP3    H120096   1.615   7.632   2.601
 6713TIP3    H220097   1.555   7.540   2.705
 6714TIP3   OH220098   7.715   3.838   2.810
 6714TIP3    H120099   7.674   3.868   2.891
 6714TIP3    H220100   7.739   3.918   2.765
 6715TIP3   OH220101   4.133   4.448   3.572
 6715TIP3    H120102   4.103   4.362   3.603
 6715TIP3    H220103   4.062   4.481   3.518
 6716TIP3   OH220104   7.967   0.571   5.360
 6716TIP3    H120105   7.908   0.513   5.408
 6716TIP3    H220106   7.917   0.651   5.347
 6717TIP3   OH220107   2.943   5.757   4.402
 6717TIP3    H120108   2.969   5.843   4.435
 6717TIP3    H220109   2.855   5.771   4.365
 6718TIP3   OH220110   1.387   7.731   5.885
 6718TIP3    H120111   1.376   7.739   5.790
 6718TIP3    H220112   1.325   7.663   5.910
 6719TIP3   OH220113   1.292   3.009   3.536
 6719TIP3    H120114   1.306   3.035   3.627
 6719TIP3    H220115   1.283   2.914   3.538
 6720TIP3   OH220116   4.725   0.451   3.913
 6720TIP3    H120117   4.649   0.474   3.860
 6720TIP3    H220118   4.690   0.426   3.998
 6721TIP3   OH220119   4.579   6.789   0.255
 6721TIP3    H120120   4.673   6.803   0.244
 6721TIP3    H220121   4.549   6.759   0.169
 6722TIP3   OH220122   0.017   6.333   2.063
 6722TIP3    H120123  -0.024   6.249   2.081
 6722TIP3    H220124   0.001   6.385   2.142
 6723TIP3   OH220125   2.123   7.824   2.267
 6723TIP3    H120126   2.165   7.739   2.280
 6723TIP3    H220127   2.068   7.813   2.190
 6724TIP3   OH220128   5.469   1.541   3.163
 6724TIP3    H120129   5.438   1.574   3.247
 6724TIP3    H220130   5.527   1.468   3.185
 6725TIP3   OH220131   0.925   3.729   0.104
 6725TIP3    H120132   0.876   3.756   0.027
 6725TIP3    H220133   0.913   3.800   0.167
 6726TIP3   OH220134   3.952   6.686   1.069
 6726TIP3    H120135   3.966   6.674   1.163
 6726TIP3    H220136   3.877   6.632   1.048
 6727TIP3   OH220137   0.749   6.509   3.294
 6727TIP3    H120138   0.672   6.538   3.344
 6727TIP3    H220139   0.803   6.588   3.285
 6728TIP3   OH220140   7.109   4.191   4.160
 6728TIP3    H120141   7.140   4.265   4.108
 6728TIP3    H220142   7.154   4.115   4.124
 6729TIP3   OH220143   1.420   1.223   1.508
 6729TIP3    H120144   1.346   1.172   1.540
 6729TIP3    H220145   1.389   1.314   1.509
 6730TIP3   OH220146   7.520   5.881   3.710
 6730TIP3    H120147   7.434   5.918   3.730
 6730TIP3    H220148   7.578   5.958   3.704
 6731TIP3   OH220149   5.591   4.040   2.488
 6731TIP3    H120150   5.528   4.107   2.517
 6731TIP3    H220151   5.632   4.079   2.411
 6732TIP3   OH220152   1.360   1.581   1.090
 6732TIP3    H120153   1.445   1.615   1.116
 6732TIP3    H220154   1.381   1.509   1.030
 6733TIP3   OH220155   3.177   0.342   4.065
 6733TIP3    H120156   3.171   0.268   4.125
 6733TIP3    H220157   3.196   0.417   4.121
 6734TIP3   OH220158   4.458   5.709   1.131
 6734TIP3    H120159   4.470   5.661   1.213
 6734TIP3    H220160   4.426   5.644   1.069
 6735TIP3   OH220161   8.123   4.390   5.327
 6735TIP3    H120162   8.106   4.341   5.407
 6735TIP3    H220163   8.206   4.356   5.295
 6736TIP3   OH220164   5.621   4.741   2.057
 6736TIP3    H120165   5.706   4.751   2.099
 6736TIP3    H220166   5.641   4.720   1.966
 6737TIP3   OH220167   3.956   3.552   6.040
 6737TIP3    H120168   3.955   3.511   5.954
 6737TIP3    H220169   4.049   3.566   6.059
 6738TIP3   OH220170   4.151   4.364   0.183
 6738TIP3    H120171   4.164   4.313   0.103
 6738TIP3    H220172   4.091   4.311   0.236
 6739TIP3   OH220173   3.093   7.427   1.767
 6739TIP3    H120174   3.037   7.378   1.827
 6739TIP3    H220175   3.166   7.456   1.821
 6740TIP3   OH220176   0.967   5.059   3.204
 6740TIP3    H120177   0.965   5.134   3.145
 6740TIP3    H220178   1.040   5.077   3.263
 6741TIP3   OH220179   1.760   7.522   6.249
 6741TIP3    H120180   1.771   7.446   6.193
 6741TIP3    H220181   1.839   7.525   6.302
 6742TIP3   OH220182   2.502   1.727   3.567
 6742TIP3    H120183   2.594   1.702   3.565
 6742TIP3    H220184   2.473   1.705   3.656
 6743TIP3   OH220185   2.379   6.325   3.681
 6743TIP3    H120186   2.472   6.306   3.665
 6743TIP3    H220187   2.365   6.410   3.639
 6744TIP3   OH220188   6.837   1.044   6.060
 6744TIP3    H120189   6.761   0.987   6.053
 6744TIP3    H220190   6.899   1.011   5.995
 6745TIP3   OH220191   4.467   0.478   3.821
 6745TIP3    H120192   4.417   0.441   3.893
 6745TIP3    H220193   4.413   0.461   3.743
 6746TIP3   OH220194   3.837   5.266   2.155
 6746TIP3    H120195   3.883   5.337   2.110
 6746TIP3    H220196   3.777   5.309   2.215
 6747TIP3   OH220197   7.195   5.505   1.392
 6747TIP3    H120198   7.105   5.534   1.380
 6747TIP3    H220199   7.232   5.503   1.304
 6748TIP3   OH220200   3.485   3.662   5.400
 6748TIP3    H120201   3.470   3.751   5.367
 6748TIP3    H220202   3.412   3.611   5.366
 6749TIP3   OH220203   5.854   0.050   2.947
 6749TIP3    H120204   5.912  -0.017   2.909
 6749TIP3    H220205   5.864   0.040   3.041
 6750TIP3   OH220206   4.094   2.120   4.755
 6750TIP3    H120207   4.119   2.205   4.793
 6750TIP3    H220208   4.176   2.083   4.723
 6751TIP3   OH220209   1.225   4.330   5.124
 6751TIP3    H120210   1.160   4.262   5.143
 6751TIP3    H220211   1.303   4.303   5.172
 6752TIP3   OH220212   1.607   3.307   1.409
 6752TIP3    H120213   1.573   3.232   1.458
 6752TIP3    H220214   1.529   3.353   1.378
 6753TIP3   OH220215   0.082   2.383   1.560
 6753TIP3    H120216   0.006   2.441   1.566
 6753TIP3    H220217   0.100   2.378   1.466
 6754TIP3   OH220218   1.296   3.468   6.642
 6754TIP3    H120219   1.322   3.519   6.565
 6754TIP3    H220220   1.355   3.392   6.641
 6755TIP3   OH220221   4.039   3.519   4.209
 6755TIP3    H120222   4.020   3.433   4.248
 6755TIP3    H220223   4.118   3.505   4.156
 6756TIP3   OH220224   3.457   3.851   2.542
 6756TIP3    H120225   3.470   3.932   2.493
 6756TIP3    H220226   3.485   3.782   2.483
 6757TIP3   OH220227   6.773   2.047   4.444
 6757TIP3    H120228   6.868   2.045   4.437
 6757TIP3    H220229   6.746   2.120   4.389
 6758TIP3   OH220230   6.009   3.227   0.061
 6758TIP3    H120231   6.086   3.268   0.023
 6758TIP3    H220232   6.036   3.138   0.082
 6759TIP3   OH220233   5.250   2.234   3.849
 6759TIP3    H120234   5.173   2.233   3.907
 6759TIP3    H220235   5.319   2.274   3.902
 6760TIP3   OH220236   5.312   6.196   5.594
 6760TIP3    H120237   5.290   6.231   5.508
 6760TIP3    H220238   5.238   6.138   5.616
 6761TIP3   OH220239   3.350   3.064   3.090
 6761TIP3    H120240   3.402   3.129   3.042
 6761TIP3    H220241   3.381   3.069   3.180
 6762TIP3   OH220242   1.173   3.443   4.406
 6762TIP3    H120243   1.114   3.498   4.355
 6762TIP3    H220244   1.183   3.490   4.490
 6763TIP3   OH220245   7.576   2.262   2.810
 6763TIP3    H120246   7.512   2.328   2.782
 6763TIP3    H220247   7.597   2.286   2.901
 6764TIP3   OH220248   3.921   1.109   3.963
 6764TIP3    H120249   3.860   1.050   3.919
 6764TIP3    H220250   3.872   1.140   4.040
 6765TIP3   OH220251   2.022   3.428   5.185
 6765TIP3    H120252   2.036   3.508   5.134
 6765TIP3    H220253   1.927   3.415   5.182
 6766TIP3   OH220254   7.286   1.667   4.259
 6766TIP3    H120255   7.303   1.745   4.207
 6766TIP3    H220256   7.235   1.699   4.334
 6767TIP3   OH220257   2.589   6.211   0.595
 6767TIP3    H120258   2.542   6.184   0.674
 6767TIP3    H220259   2.679   6.180   0.608
 6768TIP3   OH220260   2.639   4.288   3.528
 6768TIP3    H120261   2.719   4.310   3.480
 6768TIP3    H220262   2.573   4.349   3.495
 6769TIP3   OH220263   7.284   1.954   4.695
 6769TIP3    H120264   7.351   1.898   4.654
 6769TIP3    H220265   7.299   1.945   4.789
 6770TIP3   OH220266   3.938   5.373   4.137
 6770TIP3    H120267   3.926   5.314   4.212
 6770TIP3    H220268   3.987   5.322   4.073
 6771TIP3   OH220269   5.276   4.224   6.356
 6771TIP3    H120270   5.231   4.159   6.410
 6771TIP3    H220271   5.206   4.267   6.308
 6772TIP3   OH220272   0.709   5.317   0.723
 6772TIP3    H120273   0.647   5.370   0.773
 6772TIP3    H220274   0.655   5.269   0.661
 6773TIP3   OH220275   4.589   5.167   5.052
 6773TIP3    H120276   4.548   5.236   5.105
 6773TIP3    H220277   4.578   5.088   5.104
 6774TIP3   OH220278   5.089   2.739   0.035
 6774TIP3    H120279   5.032   2.800   0.082
 6774TIP3    H220280   5.170   2.739   0.085
 6775TIP3   OH220281   5.967   7.552   5.156
 6775TIP3    H120282   5.999   7.626   5.208
 6775TIP3    H220283   6.008   7.475   5.197
 6776TIP3   OH220284   3.669   1.502   1.620
 6776TIP3    H120285   3.737   1.569   1.613
 6776TIP3    H220286   3.630   1.498   1.533
 6777TIP3   OH220287   3.614   6.555   4.447
 6777TIP3    H120288   3.601   6.624   4.382
 6777TIP3    H220289   3.672   6.594   4.513
 6778TIP3   OH220290   5.822   2.266   1.941
 6778TIP3    H120291   5.916   2.269   1.961
 6778TIP3    H220292   5.816   2.212   1.862
 6779TIP3   OH220293   6.356   6.462   5.566
 6779TIP3    H120294   6.429   6.434   5.621
 6779TIP3    H220295   6.385   6.444   5.476
 6780TIP3   OH220296   6.111   7.185   2.819
 6780TIP3    H120297   6.022   7.185   2.855
 6780TIP3    H220298   6.166   7.213   2.893
 6781TIP3   OH220299   7.876   7.097   3.566
 6781TIP3    H120300   7.790   7.129   3.539
 6781TIP3    H220301   7.927   7.093   3.484
 6782TIP3   OH220302   7.367   0.054   4.201
 6782TIP3    H120303   7.405   0.141   4.186
 6782TIP3    H220304   7.274   0.071   4.217
 6783TIP3   OH220305   7.887   3.271   5.549
 6783TIP3    H120306   7.806   3.288   5.597
 6783TIP3    H220307   7.913   3.358   5.516
 6784TIP3   OH220308   4.605   3.158   6.662
 6784TIP3    H120309   4.668   3.125   6.598
 6784TIP3    H220310   4.600   3.252   6.646
 6785TIP3   OH220311   4.833   5.187   1.934
 6785TIP3    H120312   4.909   5.235   1.903
 6785TIP3    H220313   4.857   5.094   1.926
 6786TIP3   OH220314   1.699   5.098   0.372
 6786TIP3    H120315   1.722   5.091   0.465
 6786TIP3    H220316   1.603   5.090   0.371
 6787TIP3   OH220317   7.740   7.434   3.640
 6787TIP3    H120318   7.761   7.454   3.549
 6787TIP3    H220319   7.660   7.484   3.657
 6788TIP3   OH220320   4.817   6.548   0.273
 6788TIP3    H120321   4.847   6.532   0.362
 6788TIP3    H220322   4.894   6.582   0.227
 6789TIP3   OH220323   7.805   5.168   1.763
 6789TIP3    H120324   7.768   5.186   1.850
 6789TIP3    H220325   7.730   5.147   1.708
 6790TIP3   OH220326   7.267   4.143   3.503
 6790TIP3    H120327   7.233   4.216   3.555
 6790TIP3    H220328   7.358   4.166   3.485
 6791TIP3   OH220329   3.755   1.589   3.161
 6791TIP3    H120330   3.840   1.598   3.119
 6791TIP3    H220331   3.756   1.502   3.201
 6792TIP3   OH220332   7.660   2.107   0.335
 6792TIP3    H120333   7.675   2.047   0.262
 6792TIP3    H220334   7.602   2.174   0.300
 6793TIP3   OH220335   3.924   4.852   1.749
 6793TIP3    H120336   3.944   4.942   1.773
 6793TIP3    H220337   3.830   4.842   1.764
 6794TIP3   OH220338   6.010   6.821   5.913
 6794TIP3    H120339   6.018   6.884   5.842
 6794TIP3    H220340   5.920   6.789   5.907
 6795TIP3   OH220341   1.472   3.495   1.813
 6795TIP3    H120342   1.509   3.546   1.741
 6795TIP3    H220343   1.517   3.411   1.808
 6796TIP3   OH220344   4.567   2.084   2.784
 6796TIP3    H120345   4.488   2.029   2.781
 6796TIP3    H220346   4.608   2.062   2.867
 6797TIP3   OH220347   2.885   4.568   4.691
 6797TIP3    H120348   2.819   4.567   4.760
 6797TIP3    H220349   2.961   4.611   4.732
 6798TIP3   OH220350   6.112   2.700   0.752
 6798TIP3    H120351   6.095   2.776   0.696
 6798TIP3    H220352   6.206   2.684   0.742
 6799TIP3   OH220353   0.563   1.470   0.826
 6799TIP3    H120354   0.596   1.456   0.915
 6799TIP3    H220355   0.574   1.563   0.811
 6800TIP3   OH220356   2.480   4.095   5.290
 6800TIP3    H120357   2.555   4.131   5.243
 6800TIP3    H220358   2.513   4.078   5.378
 6801TIP3   OH220359   3.698   7.443   6.414
 6801TIP3    H120360   3.793   7.447   6.402
 6801TIP3    H220361   3.672   7.534   6.429
 6802TIP3   OH220362   1.133   4.062   5.144
 6802TIP3    H120363   1.096   3.983   5.186
 6802TIP3    H220364   1.224   4.064   5.172
 6803TIP3   OH220365   8.113   1.656   3.175
 6803TIP3    H120366   8.195   1.693   3.141
 6803TIP3    H220367   8.055   1.731   3.186
 6804TIP3   OH220368   4.834   1.083   5.241
 6804TIP3    H120369   4.761   1.023   5.228
 6804TIP3    H220370   4.825   1.112   5.332
 6805TIP3   OH220371   5.230   0.702   2.812
 6805TIP3    H120372   5.187   0.692   2.897
 6805TIP3    H220373   5.271   0.789   2.816
 6806TIP3   OH220374   8.111   4.834   4.569
 6806TIP3    H120375   8.130   4.891   4.495
 6806TIP3    H220376   8.021   4.857   4.594
 6807TIP3   OH220377   1.221   4.733   0.552
 6807TIP3    H120378   1.296   4.678   0.574
 6807TIP3    H220379   1.240   4.817   0.593
 6808TIP3   OH220380   1.986   1.042   4.922
 6808TIP3    H120381   1.994   1.127   4.967
 6808TIP3    H220382   1.900   1.045   4.880
 6809TIP3   OH220383   0.366   5.957   2.521
 6809TIP3    H120384   0.305   5.890   2.553
 6809TIP3    H220385   0.353   6.031   2.581
 6810TIP3   OH220386   0.523   4.493   1.510
 6810TIP3    H120387   0.485   4.421   1.460
 6810TIP3    H220388   0.451   4.526   1.563
 6811TIP3   OH220389   8.015   7.295   5.329
 6811TIP3    H120390   8.105   7.264   5.317
 6811TIP3    H220391   8.025   7.386   5.360
 6812TIP3   OH220392   1.233   1.247   2.385
 6812TIP3    H120393   1.321   1.224   2.414
 6812TIP3    H220394   1.242   1.335   2.348
 6813TIP3   OH220395   6.301   0.247   1.142
 6813TIP3    H120396   6.227   0.303   1.165
 6813TIP3    H220397   6.374   0.280   1.193
 6814TIP3   OH220398   3.730   1.125   4.835
 6814TIP3    H120399   3.781   1.178   4.897
 6814TIP3    H220400   3.770   1.038   4.838
 6815TIP3   OH220401   8.201   0.401   2.932
 6815TIP3    H120402   8.175   0.437   3.017
 6815TIP3    H220403   8.282   0.447   2.910
 6816TIP3   OH220404   3.685   6.415   1.628
 6816TIP3    H120405   3.650   6.503   1.645
 6816TIP3    H220406   3.750   6.401   1.697
 6817TIP3   OH220407   6.937   7.054   0.155
 6817TIP3    H120408   7.002   6.985   0.163
 6817TIP3    H220409   6.986   7.129   0.121
 6818TIP3   OH220410   1.379   7.793   4.973
 6818TIP3    H120411   1.334   7.713   4.946
 6818TIP3    H220412   1.465   7.763   5.004
 6819TIP3   OH220413   0.992   3.297   0.618
 6819TIP3    H120414   1.005   3.297   0.713
 6819TIP3    H220415   0.910   3.249   0.605
 6820TIP3   OH220416   4.491   6.002   0.598
 6820TIP3    H120417   4.480   6.072   0.663
 6820TIP3    H220418   4.534   5.931   0.646
 6821TIP3   OH220419   2.674   0.786   0.775
 6821TIP3    H120420   2.697   0.818   0.862
 6821TIP3    H220421   2.579   0.799   0.770
 6822TIP3   OH220422   0.620   2.619   4.229
 6822TIP3    H120423   0.694   2.566   4.199
 6822TIP3    H220424   0.651   2.661   4.309
 6823TIP3   OH220425   6.246   0.419   4.449
 6823TIP3    H120426   6.288   0.447   4.368
 6823TIP3    H220427   6.198   0.340   4.425
 6824TIP3   OH220428   6.247   7.685   1.275
 6824TIP3    H120429   6.210   7.773   1.268
 6824TIP3    H220430   6.191   7.630   1.221
 6825TIP3   OH220431   4.309   7.339   4.063
 6825TIP3    H120432   4.337   7.430   4.076
 6825TIP3    H220433   4.341   7.316   3.975
 6826TIP3   OH220434   4.890   2.156   5.044
 6826TIP3    H120435   4.820   2.165   4.979
 6826TIP3    H220436   4.934   2.075   5.020
 6827TIP3   OH220437   5.680   3.732   2.061
 6827TIP3    H120438   5.740   3.694   1.997
 6827TIP3    H220439   5.658   3.818   2.025
 6828TIP3   OH220440   2.777   0.045   2.729
 6828TIP3    H120441   2.727  -0.027   2.691
 6828TIP3    H220442   2.714   0.117   2.736
 6829TIP3   OH220443   5.938   0.395   1.392
 6829TIP3    H120444   6.011   0.425   1.445
 6829TIP3    H220445   5.863   0.443   1.425
 6830TIP3   OH220446   7.733   3.367   3.920
 6830TIP3    H120447   7.810   3.421   3.937
 6830TIP3    H220448   7.721   3.316   4.000
 6831TIP3   OH220449   6.222   4.686   1.962
 6831TIP3    H120450   6.175   4.699   1.880
 6831TIP3    H220451   6.205   4.767   2.012
 6832TIP3   OH220452   2.836   0.055   4.518
 6832TIP3    H120453   2.765   0.119   4.512
 6832TIP3    H220454   2.844   0.036   4.611
 6833TIP3   OH220455   8.318   6.718   5.869
 6833TIP3    H120456   8.225   6.725   5.891
 6833TIP3    H220457   8.357   6.798   5.903
 6834TIP3   OH220458   7.371   4.494   4.465
 6834TIP3    H120459   7.460   4.527   4.459
 6834TIP3    H220460   7.338   4.495   4.375
 6835TIP3   OH220461   5.115   0.633   6.755
 6835TIP3    H120462   5.021   0.645   6.770
 6835TIP3    H220463   5.119   0.575   6.679
 6836TIP3   OH220464   8.186   6.144   3.688
 6836TIP3    H120465   8.202   6.050   3.696
 6836TIP3    H220466   8.145   6.154   3.602
 6837TIP3   OH220467   4.339   2.671   3.662
 6837TIP3    H120468   4.392   2.591   3.659
 6837TIP3    H220469   4.287   2.662   3.742
 6838TIP3   OH220470   2.601   0.994   4.807
 6838TIP3    H120471   2.554   1.003   4.890
 6838TIP3    H220472   2.541   0.946   4.750
 6839TIP3   OH220473   3.997   7.672   6.098
 6839TIP3    H120474   4.091   7.652   6.098
 6839TIP3    H220475   3.985   7.732   6.172
 6840TIP3   OH220476   1.663   4.306   3.055
 6840TIP3    H120477   1.630   4.393   3.078
 6840TIP3    H220478   1.755   4.308   3.081
 6841TIP3   OH220479   7.830   5.904   2.593
 6841TIP3    H120480   7.835   5.896   2.688
 6841TIP3    H220481   7.737   5.898   2.573
 6842TIP3   OH220482   4.227   5.950   0.481
 6842TIP3    H120483   4.260   5.995   0.404
 6842TIP3    H220484   4.294   5.965   0.548
 6843TIP3   OH220485   1.527   2.341   0.814
 6843TIP3    H120486   1.442   2.307   0.844
 6843TIP3    H220487   1.511   2.434   0.797
 6844TIP3   OH220488   6.737   7.072   3.343
 6844TIP3    H120489   6.733   7.040   3.433
 6844TIP3    H220490   6.645   7.077   3.315
 6845TIP3   OH220491   7.750   6.068   1.038
 6845TIP3    H120492   7.840   6.088   1.011
 6845TIP3    H220493   7.696   6.120   0.978
 6846TIP3   OH220494   1.704   3.970   1.646
 6846TIP3    H120495   1.645   3.898   1.624
 6846TIP3    H220496   1.730   4.006   1.561
 6847TIP3   OH220497   3.729   2.254   1.495
 6847TIP3    H120498   3.739   2.339   1.536
 6847TIP3    H220499   3.636   2.234   1.503
 6848TIP3   OH220500   1.827   5.989   4.562
 6848TIP3    H120501   1.807   5.944   4.480
 6848TIP3    H220502   1.873   6.069   4.534
 6849TIP3   OH220503   6.777   2.456   3.033
 6849TIP3    H120504   6.738   2.399   2.967
 6849TIP3    H220505   6.720   2.446   3.110
 6850TIP3   OH220506   7.459   4.538   3.237
 6850TIP3    H120507   7.541   4.587   3.243
 6850TIP3    H220508   7.433   4.525   3.329
 6851TIP3   OH220509   0.938   7.786   5.171
 6851TIP3    H120510   0.922   7.879   5.187
 6851TIP3    H220511   0.875   7.762   5.103
 6852TIP3   OH220512   0.942   3.527   0.280
 6852TIP3    H120513   1.030   3.547   0.313
 6852TIP3    H220514   0.922   3.599   0.220
 6853TIP3   OH220515   5.661   1.930   5.592
 6853TIP3    H120516   5.687   1.888   5.510
 6853TIP3    H220517   5.569   1.953   5.579
 6854TIP3   OH220518   6.481   6.719   1.467
 6854TIP3    H120519   6.388   6.700   1.454
 6854TIP3    H220520   6.486   6.815   1.466
 6855TIP3   OH220521   3.559   5.058   5.186
 6855TIP3    H120522   3.495   5.062   5.256
 6855TIP3    H220523   3.507   5.062   5.106
 6856TIP3   OH220524   4.580   3.391   1.840
 6856TIP3    H120525   4.656   3.341   1.811
 6856TIP3    H220526   4.540   3.425   1.760
 6857TIP3   OH220527   7.763   3.621   4.471
 6857TIP3    H120528   7.727   3.697   4.426
 6857TIP3    H220529   7.740   3.634   4.563
 6858TIP3   OH220530   2.519   2.321   3.677
 6858TIP3    H120531   2.596   2.307   3.732
 6858TIP3    H220532   2.553   2.319   3.588
 6859TIP3   OH220533   5.790   2.993   5.541
 6859TIP3    H120534   5.769   2.977   5.450
 6859TIP3    H220535   5.754   2.918   5.589
 6860TIP3   OH220536   8.173   5.387   5.184
 6860TIP3    H120537   8.174   5.292   5.170
 6860TIP3    H220538   8.231   5.401   5.258
 6861TIP3   OH220539   4.673   2.211   3.365
 6861TIP3    H120540   4.750   2.268   3.362
 6861TIP3    H220541   4.600   2.271   3.374
 6862TIP3   OH220542   4.612   4.330   4.273
 6862TIP3    H120543   4.583   4.358   4.186
 6862TIP3    H220544   4.536   4.347   4.330
 6863TIP3   OH220545   2.074   4.930   4.321
 6863TIP3    H120546   2.044   4.993   4.256
 6863TIP3    H220547   2.096   4.984   4.397
 6864TIP3   OH220548   2.605   7.249   1.754
 6864TIP3    H120549   2.560   7.253   1.669
 6864TIP3    H220550   2.560   7.181   1.802
 6865TIP3   OH220551   2.348   5.053   5.491
 6865TIP3    H120552   2.412   5.003   5.541
 6865TIP3    H220553   2.319   5.122   5.551
 6866TIP3   OH220554   1.426   6.850   0.377
 6866TIP3    H120555   1.515   6.881   0.363
 6866TIP3    H220556   1.432   6.755   0.367
 6867TIP3   OH220557   0.540   5.603   5.334
 6867TIP3    H120558   0.537   5.679   5.276
 6867TIP3    H220559   0.616   5.554   5.304
 6868TIP3   OH220560   7.416   2.778   4.357
 6868TIP3    H120561   7.498   2.824   4.339
 6868TIP3    H220562   7.390   2.808   4.444
 6869TIP3   OH220563   2.500   3.917   4.690
 6869TIP3    H120564   2.442   3.985   4.724
 6869TIP3    H220565   2.468   3.900   4.601
 6870TIP3   OH220566   4.389   7.111   0.652
 6870TIP3    H120567   4.316   7.103   0.714
 6870TIP3    H220568   4.408   7.205   0.650
 6871TIP3   OH220569   3.288   0.052   5.177
 6871TIP3    H120570   3.290   0.093   5.263
 6871TIP3    H220571   3.368   0.082   5.133
 6872TIP3   OH220572   4.658   6.816   6.319
 6872TIP3    H120573   4.693   6.741   6.270
 6872TIP3    H220574   4.565   6.817   6.298
 6873TIP3   OH220575   6.601   0.084   4.724
 6873TIP3    H120576   6.583  -0.010   4.725
 6873TIP3    H220577   6.519   0.124   4.695
 6874TIP3   OH220578   6.617   5.221   6.410
 6874TIP3    H120579   6.522   5.216   6.401
 6874TIP3    H220580   6.640   5.307   6.374
 6875TIP3   OH220581   6.630   5.006   4.166
 6875TIP3    H120582   6.594   4.978   4.250
 6875TIP3    H220583   6.556   4.999   4.105
 6876TIP3   OH220584   6.114   3.535   1.771
 6876TIP3    H120585   6.148   3.599   1.708
 6876TIP3    H220586   6.191   3.488   1.801
 6877TIP3   OH220587   0.849   5.242   0.399
 6877TIP3    H120588   0.857   5.168   0.460
 6877TIP3    H220589   0.880   5.317   0.450
 6878TIP3   OH220590   5.559   0.576   0.846
 6878TIP3    H120591   5.510   0.658   0.842
 6878TIP3    H220592   5.509   0.516   0.791
 6879TIP3   OH220593   0.826   3.407   2.975
 6879TIP3    H120594   0.870   3.480   2.933
 6879TIP3    H220595   0.863   3.404   3.064
 6880TIP3   OH220596   3.573   5.697   1.196
 6880TIP3    H120597   3.623   5.660   1.269
 6880TIP3    H220598   3.617   5.665   1.117
 6881TIP3   OH220599   7.095   5.352   4.645
 6881TIP3    H120600   7.107   5.281   4.708
 6881TIP3    H220601   7.092   5.432   4.698
 6882TIP3   OH220602   2.916   1.846   3.735
 6882TIP3    H120603   2.820   1.840   3.741
 6882TIP3    H220604   2.947   1.812   3.819
 6883TIP3   OH220605   1.055   2.871   2.722
 6883TIP3    H120606   0.972   2.826   2.702
 6883TIP3    H220607   1.119   2.800   2.728
 6884TIP3   OH220608   2.758   3.489   0.798
 6884TIP3    H120609   2.811   3.563   0.768
 6884TIP3    H220610   2.673   3.529   0.821
 6885TIP3   OH220611   4.425   3.758   1.682
 6885TIP3    H120612   4.392   3.809   1.756
 6885TIP3    H220613   4.366   3.683   1.675
 6886TIP3   OH220614   3.896   2.339   6.645
 6886TIP3    H120615   3.829   2.297   6.590
 6886TIP3    H220616   3.933   2.267   6.697
 6887TIP3   OH220617   4.504   3.219   2.042
 6887TIP3    H120618   4.597   3.197   2.043
 6887TIP3    H220619   4.497   3.291   1.979
 6888TIP3   OH220620   7.664   6.316   2.959
 6888TIP3    H120621   7.577   6.336   2.924
 6888TIP3    H220622   7.652   6.311   3.054
 6889TIP3   OH220623   5.191   1.842   5.368
 6889TIP3    H120624   5.274   1.821   5.325
 6889TIP3    H220625   5.172   1.766   5.423
 6890TIP3   OH220626   3.912   0.092   4.008
 6890TIP3    H120627   3.953   0.026   3.953
 6890TIP3    H220628   3.975   0.109   4.077
 6891TIP3   OH220629   6.653   4.571   3.296
 6891TIP3    H120630   6.653   4.492   3.243
 6891TIP3    H220631   6.647   4.643   3.232
 6892TIP3   OH220632   7.583   1.163   2.318
 6892TIP3    H120633   7.489   1.158   2.335
 6892TIP3    H220634   7.617   1.078   2.346
 6893TIP3   OH220635   1.624   7.616   3.551
 6893TIP3    H120636   1.656   7.705   3.540
 6893TIP3    H220637   1.662   7.568   3.477
 6894TIP3   OH220638   0.870   4.540   5.837
 6894TIP3    H120639   0.939   4.475   5.822
 6894TIP3    H220640   0.798   4.512   5.781
 6895TIP3   OH220641   6.218   5.657   1.054
 6895TIP3    H120642   6.178   5.744   1.061
 6895TIP3    H220643   6.205   5.618   1.141
 6896TIP3   OH220644   0.223   6.208   1.424
 6896TIP3    H120645   0.145   6.165   1.461
 6896TIP3    H220646   0.293   6.144   1.438
 6897TIP3   OH220647   6.020   5.063   6.267
 6897TIP3    H120648   5.995   4.985   6.317
 6897TIP3    H220649   6.016   5.035   6.175
 6898TIP3   OH220650   2.817   3.105   1.857
 6898TIP3    H120651   2.723   3.121   1.849
 6898TIP3    H220652   2.839   3.056   1.778
 6899TIP3   OH220653   2.108   1.556   0.767
 6899TIP3    H120654   2.137   1.647   0.764
 6899TIP3    H220655   2.190   1.505   0.769
 6900TIP3   OH220656   0.024   4.761   1.522
 6900TIP3    H120657   0.057   4.825   1.459
 6900TIP3    H220658   0.098   4.703   1.538
 6901TIP3   OH220659   2.614   0.006   0.807
 6901TIP3    H120660   2.562   0.048   0.876
 6901TIP3    H220661   2.578  -0.083   0.801
 6902TIP3   OH220662   5.363   3.362   3.505
 6902TIP3    H120663   5.414   3.281   3.496
 6902TIP3    H220664   5.310   3.348   3.583
 6903TIP3   OH220665   1.158   5.051   6.603
 6903TIP3    H120666   1.214   5.058   6.526
 6903TIP3    H220667   1.073   5.025   6.569
 6904TIP3   OH220668   0.597   5.169   0.514
 6904TIP3    H120669   0.542   5.230   0.465
 6904TIP3    H220670   0.593   5.088   0.464
 6905TIP3   OH220671   0.198   1.779   0.147
 6905TIP3    H120672   0.246   1.697   0.147
 6905TIP3    H220673   0.191   1.803   0.055
 6906TIP3   OH220674   2.753   0.913   0.104
 6906TIP3    H120675   2.674   0.885   0.150
 6906TIP3    H220676   2.722   0.974   0.037
 6907TIP3   OH220677   6.863   0.152   2.280
 6907TIP3    H120678   6.958   0.146   2.289
 6907TIP3    H220679   6.829   0.143   2.369
 6908TIP3   OH220680   3.389   7.718   4.297
 6908TIP3    H120681   3.337   7.704   4.376
 6908TIP3    H220682   3.368   7.644   4.240
 6909TIP3   OH220683   4.421   4.999   6.199
 6909TIP3    H120684   4.354   4.961   6.142
 6909TIP3    H220685   4.414   5.093   6.185
 6910TIP3   OH220686   5.729   1.110   5.528
 6910TIP3    H120687   5.815   1.070   5.511
 6910TIP3    H220688   5.731   1.192   5.479
 6911TIP3   OH220689   0.755   7.225   1.479
 6911TIP3    H120690   0.803   7.160   1.530
 6911TIP3    H220691   0.794   7.309   1.505
 6912TIP3   OH220692   6.157   0.845   2.117
 6912TIP3    H120693   6.124   0.864   2.029
 6912TIP3    H220694   6.169   0.930   2.157
 6913TIP3   OH220695   1.915   5.876   5.089
 6913TIP3    H120696   1.874   5.955   5.125
 6913TIP3    H220697   2.009   5.894   5.093
 6914TIP3   OH220698   4.674   6.278   2.528
 6914TIP3    H120699   4.629   6.230   2.458
 6914TIP3    H220700   4.686   6.213   2.597
 6915TIP3   OH220701   6.032   2.816   5.928
 6915TIP3    H120702   6.115   2.776   5.953
 6915TIP3    H220703   6.055   2.881   5.862
 6916TIP3   OH220704   0.216   2.610   2.183
 6916TIP3    H120705   0.309   2.618   2.164
 6916TIP3    H220706   0.202   2.663   2.261
 6917TIP3   OH220707   0.067   7.428   2.589
 6917TIP3    H120708   0.074   7.486   2.665
 6917TIP3    H220709   0.101   7.481   2.516
 6918TIP3   OH220710   1.963   7.225   1.111
 6918TIP3    H120711   1.897   7.239   1.179
 6918TIP3    H220712   2.039   7.190   1.158
 6919TIP3   OH220713   5.257   4.484   0.767
 6919TIP3    H120714   5.334   4.463   0.716
 6919TIP3    H220715   5.183   4.458   0.712
 6920TIP3   OH220716   2.503   6.457   3.197
 6920TIP3    H120717   2.518   6.435   3.105
 6920TIP3    H220718   2.579   6.421   3.243
 6921TIP3   OH220719   3.077   1.361   4.449
 6921TIP3    H120720   3.137   1.388   4.518
 6921TIP3    H220721   3.107   1.408   4.372
 6922TIP3   OH220722   2.474   6.385   6.337
 6922TIP3    H120723   2.471   6.367   6.431
 6922TIP3    H220724   2.497   6.477   6.330
 6923TIP3   OH220725   7.560   6.782   1.912
 6923TIP3    H120726   7.497   6.712   1.896
 6923TIP3    H220727   7.614   6.749   1.985
 6924TIP3   OH220728   0.299   0.924   2.076
 6924TIP3    H120729   0.351   0.983   2.130
 6924TIP3    H220730   0.249   0.982   2.018
 6925TIP3   OH220731   7.502   7.621   2.941
 6925TIP3    H120732   7.492   7.701   2.889
 6925TIP3    H220733   7.531   7.555   2.877
 6926TIP3   OH220734   1.596   4.541   5.996
 6926TIP3    H120735   1.599   4.523   6.090
 6926TIP3    H220736   1.503   4.536   5.973
 6927TIP3   OH220737   3.060   3.716   5.827
 6927TIP3    H120738   3.005   3.662   5.884
 6927TIP3    H220739   3.126   3.656   5.793
 6928TIP3   OH220740   3.546   2.346   4.769
 6928TIP3    H120741   3.517   2.262   4.731
 6928TIP3    H220742   3.524   2.411   4.702
 6929TIP3   OH220743   7.683   4.823   1.544
 6929TIP3    H120744   7.746   4.894   1.549
 6929TIP3    H220745   7.645   4.818   1.631
 6930TIP3   OH220746   2.381   2.029   2.751
 6930TIP3    H120747   2.405   2.114   2.790
 6930TIP3    H220748   2.287   2.021   2.767
 6931TIP3   OH220749   1.828   7.790   1.090
 6931TIP3    H120750   1.842   7.726   1.159
 6931TIP3    H220751   1.791   7.867   1.134
 6932TIP3   OH220752   5.915   0.228   5.063
 6932TIP3    H120753   5.932   0.248   5.155
 6932TIP3    H220754   5.992   0.260   5.017
 6933TIP3   OH220755   0.873   7.092   2.071
 6933TIP3    H120756   0.877   7.126   1.982
 6933TIP3    H220757   0.785   7.112   2.101
 6934TIP3   OH220758   1.250   2.252   0.928
 6934TIP3    H120759   1.175   2.217   0.976
 6934TIP3    H220760   1.257   2.343   0.957
 6935TIP3   OH220761   4.513   5.891   2.844
 6935TIP3    H120762   4.462   5.944   2.784
 6935TIP3    H220763   4.512   5.803   2.806
 6936TIP3   OH220764   5.039   5.610   1.944
 6936TIP3    H120765   4.970   5.676   1.952
 6936TIP3    H220766   5.089   5.617   2.026
 6937TIP3   OH220767   3.476   6.797   4.283
 6937TIP3    H120768   3.503   6.874   4.234
 6937TIP3    H220769   3.483   6.824   4.375
 6938TIP3   OH220770   8.157   5.821   6.355
 6938TIP3    H120771   8.192   5.830   6.266
 6938TIP3    H220772   8.233   5.798   6.408
 6939TIP3   OH220773   0.084   6.358   5.346
 6939TIP3    H120774   0.077   6.449   5.317
 6939TIP3    H220775   0.178   6.338   5.340
 6940TIP3   OH220776   7.531   7.622   4.628
 6940TIP3    H120777   7.554   7.529   4.619
 6940TIP3    H220778   7.589   7.667   4.567
 6941TIP3   OH220779   3.363   5.092   5.374
 6941TIP3    H120780   3.271   5.071   5.357
 6941TIP3    H220781   3.373   5.079   5.468
 6942TIP3   OH220782   6.184   4.785   4.027
 6942TIP3    H120783   6.092   4.766   4.049
 6942TIP3    H220784   6.212   4.709   3.976
 6943TIP3   OH220785   0.901   7.456   4.794
 6943TIP3    H120786   0.882   7.363   4.786
 6943TIP3    H220787   0.955   7.463   4.873
 6944TIP3   OH220788   4.381   6.493   3.504
 6944TIP3    H120789   4.322   6.423   3.475
 6944TIP3    H220790   4.401   6.541   3.423
 6945TIP3   OH220791   5.371   4.771   1.788
 6945TIP3    H120792   5.450   4.728   1.822
 6945TIP3    H220793   5.358   4.846   1.847
 6946TIP3   OH220794   0.366   7.219   0.097
 6946TIP3    H120795   0.407   7.134   0.111
 6946TIP3    H220796   0.378   7.237   0.004
 6947TIP3   OH220797   5.924   1.170   6.397
 6947TIP3    H120798   6.009   1.154   6.356
 6947TIP3    H220799   5.943   1.181   6.490
 6948TIP3   OH220800   0.605   2.190   4.010
 6948TIP3    H120801   0.698   2.193   3.986
 6948TIP3    H220802   0.605   2.180   4.105
 6949TIP3   OH220803   5.934   2.685   5.221
 6949TIP3    H120804   5.891   2.628   5.285
 6949TIP3    H220805   5.868   2.700   5.154
 6950TIP3   OH220806   2.336   4.828   1.527
 6950TIP3    H120807   2.273   4.787   1.467
 6950TIP3    H220808   2.330   4.777   1.607
 6951TIP3   OH220809   7.023   6.640   2.605
 6951TIP3    H120810   6.960   6.624   2.535
 6951TIP3    H220811   7.014   6.565   2.664
 6952TIP3   OH220812   0.371   6.713   5.819
 6952TIP3    H120813   0.366   6.617   5.823
 6952TIP3    H220814   0.303   6.738   5.756
 6953TIP3   OH220815   4.228   4.745   2.805
 6953TIP3    H120816   4.259   4.787   2.885
 6953TIP3    H220817   4.298   4.683   2.782
 6954TIP3   OH220818   7.371   5.643   0.006
 6954TIP3    H120819   7.433   5.570   0.005
 6954TIP3    H220820   7.426   5.721   0.004
 6955TIP3   OH220821   5.068   2.793   2.710
 6955TIP3    H120822   5.077   2.767   2.618
 6955TIP3    H220823   5.156   2.821   2.736
 6956TIP3   OH220824   3.248   3.525   5.325
 6956TIP3    H120825   3.227   3.525   5.231
 6956TIP3    H220826   3.176   3.573   5.366
 6957TIP3   OH220827   2.442   4.481   4.040
 6957TIP3    H120828   2.432   4.544   3.969
 6957TIP3    H220829   2.471   4.534   4.114
 6958TIP3   OH220830   2.702   3.478   2.417
 6958TIP3    H120831   2.651   3.527   2.481
 6958TIP3    H220832   2.718   3.393   2.459
 6959TIP3   OH220833   5.330   7.458   0.775
 6959TIP3    H120834   5.389   7.528   0.747
 6959TIP3    H220835   5.341   7.390   0.708
 6960TIP3   OH220836   6.239   5.503   2.785
 6960TIP3    H120837   6.327   5.469   2.795
 6960TIP3    H220838   6.241   5.551   2.702
 6961TIP3   OH220839   4.910   1.483   1.641
 6961TIP3    H120840   4.948   1.571   1.635
 6961TIP3    H220841   4.954   1.443   1.716
 6962TIP3   OH220842   2.722   4.016   5.167
 6962TIP3    H120843   2.801   4.070   5.158
 6962TIP3    H220844   2.714   3.971   5.083
 6963TIP3   OH220845   6.845   5.080   0.702
 6963TIP3    H120846   6.816   4.991   0.722
 6963TIP3    H220847   6.783   5.136   0.748
 6964TIP3   OH220848   4.523   2.959   6.189
 6964TIP3    H120849   4.451   2.899   6.170
 6964TIP3    H220850   4.564   2.975   6.104
 6965TIP3   OH220851   4.779   5.940   2.940
 6965TIP3    H120852   4.808   5.895   3.019
 6965TIP3    H220853   4.686   5.918   2.933
 6966TIP3   OH220854   1.734   1.686   5.133
 6966TIP3    H120855   1.817   1.647   5.107
 6966TIP3    H220856   1.684   1.614   5.171
 6967TIP3   OH220857   7.606   4.295   0.532
 6967TIP3    H120858   7.660   4.373   0.516
 6967TIP3    H220859   7.518   4.329   0.546
 6968TIP3   OH220860   4.138   5.328   3.494
 6968TIP3    H120861   4.149   5.315   3.588
 6968TIP3    H220862   4.064   5.272   3.470
 6969TIP3   OH220863   4.685   5.828   1.075
 6969TIP3    H120864   4.608   5.785   1.112
 6969TIP3    H220865   4.711   5.892   1.141
 6970TIP3   OH220866   6.052   3.702   0.468
 6970TIP3    H120867   6.040   3.619   0.421
 6970TIP3    H220868   6.145   3.723   0.454
 6971TIP3   OH220869   7.110   5.612   5.025
 6971TIP3    H120870   7.075   5.662   5.099
 6971TIP3    H220871   7.049   5.540   5.013
 6972TIP3   OH220872   5.238   4.335   0.320
 6972TIP3    H120873   5.252   4.246   0.288
 6972TIP3    H220874   5.315   4.384   0.290
 6973TIP3   OH220875   2.985   0.891   5.744
 6973TIP3    H120876   3.020   0.974   5.713
 6973TIP3    H220877   2.914   0.871   5.683
 6974TIP3   OH220878   4.420   4.292   3.163
 6974TIP3    H120879   4.383   4.257   3.082
 6974TIP3    H220880   4.348   4.289   3.226
 6975TIP3   OH220881   6.795   7.748   1.677
 6975TIP3    H120882   6.699   7.752   1.673
 6975TIP3    H220883   6.821   7.837   1.703
 6976TIP3   OH220884   4.651   0.399   2.641
 6976TIP3    H120885   4.633   0.378   2.732
 6976TIP3    H220886   4.565   0.409   2.601
 6977TIP3   OH220887   0.662   2.087   5.474
 6977TIP3    H120888   0.670   2.066   5.567
 6977TIP3    H220889   0.568   2.094   5.459
 6978TIP3   OH220890   6.924   7.444   1.501
 6978TIP3    H120891   6.944   7.350   1.498
 6978TIP3    H220892   6.884   7.463   1.416
 6979TIP3   OH220893   2.785   5.871   2.302
 6979TIP3    H120894   2.858   5.932   2.299
 6979TIP3    H220895   2.750   5.880   2.390
 6980TIP3   OH220896   7.864   7.805   6.253
 6980TIP3    H120897   7.816   7.873   6.207
 6980TIP3    H220898   7.948   7.799   6.207
 6981TIP3   OH220899   7.834   0.208   4.584
 6981TIP3    H120900   7.894   0.172   4.518
 6981TIP3    H220901   7.804   0.131   4.633
 6982TIP3   OH220902   4.929   3.215   4.637
 6982TIP3    H120903   4.916   3.305   4.667
 6982TIP3    H220904   4.842   3.185   4.612
 6983TIP3   OH220905   2.683   6.192   6.149
 6983TIP3    H120906   2.767   6.165   6.114
 6983TIP3    H220907   2.620   6.129   6.112
 6984TIP3   OH220908   2.298   6.328   3.369
 6984TIP3    H120909   2.351   6.381   3.309
 6984TIP3    H220910   2.289   6.244   3.324
 6985TIP3   OH220911   3.375   6.598   2.709
 6985TIP3    H120912   3.463   6.621   2.680
 6985TIP3    H220913   3.378   6.607   2.804
 6986TIP3   OH220914   5.976   6.129   3.690
 6986TIP3    H120915   6.070   6.135   3.671
 6986TIP3    H220916   5.935   6.120   3.604
 6987TIP3   OH220917   1.036   3.150   2.599
 6987TIP3    H120918   1.034   3.062   2.636
 6987TIP3    H220919   1.119   3.187   2.632
 6988TIP3   OH220920   7.114   6.626   0.644
 6988TIP3    H120921   7.167   6.628   0.723
 6988TIP3    H220922   7.104   6.718   0.620
 6989TIP3   OH220923   1.307   2.682   3.175
 6989TIP3    H120924   1.372   2.670   3.106
 6989TIP3    H220925   1.239   2.735   3.135
 6990TIP3   OH220926   2.309   3.199   2.043
 6990TIP3    H120927   2.298   3.252   2.121
 6990TIP3    H220928   2.289   3.258   1.970
 6991TIP3   OH220929   4.554   4.822   6.359
 6991TIP3    H120930   4.492   4.892   6.338
 6991TIP3    H220931   4.581   4.788   6.273
 6992TIP3   OH220932   4.184   5.271   0.827
 6992TIP3    H120933   4.111   5.319   0.788
 6992TIP3    H220934   4.252   5.272   0.759
 6993TIP3   OH220935   6.872   5.826   0.110
 6993TIP3    H120936   6.940   5.777   0.157
 6993TIP3    H220937   6.797   5.825   0.168
 6994TIP3   OH220938   2.588   3.454   3.374
 6994TIP3    H120939   2.528   3.457   3.299
 6994TIP3    H220940   2.613   3.362   3.381
 6995TIP3   OH220941   0.030   2.037   1.897
 6995TIP3    H120942   0.063   2.123   1.926
 6995TIP3    H220943   0.094   1.975   1.930
 6996TIP3   OH220944   6.787   6.098   0.687
 6996TIP3    H120945   6.842   6.021   0.672
 6996TIP3    H220946   6.738   6.108   0.605
 6997TIP3   OH220947   6.279   2.664   2.252
 6997TIP3    H120948   6.247   2.590   2.304
 6997TIP3    H220949   6.324   2.720   2.315
 6998TIP3   OH220950   2.991   3.968   3.971
 6998TIP3    H120951   2.940   3.893   4.003
 6998TIP3    H220952   2.944   4.044   4.005
 6999TIP3   OH220953   8.266   1.563   5.967
 6999TIP3    H120954   8.327   1.531   5.901
 6999TIP3    H220955   8.180   1.534   5.936
 7000TIP3   OH220956   3.914   6.989   1.099
 7000TIP3    H120957   3.925   6.894   1.092
 7000TIP3    H220958   3.993   7.019   1.143
 7001TIP3   OH220959   0.468   2.942   2.572
 7001TIP3    H120960   0.491   2.950   2.480
 7001TIP3    H220961   0.528   3.001   2.617
 7002TIP3   OH220962   3.316   5.641   6.425
 7002TIP3    H120963   3.343   5.579   6.493
 7002TIP3    H220964   3.328   5.593   6.343
 7003TIP3   OH220965   4.967   2.924   4.924
 7003TIP3    H120966   4.967   2.871   5.004
 7003TIP3    H220967   5.054   2.911   4.887
 7004TIP3   OH220968   3.278   5.503   2.462
 7004TIP3    H120969   3.209   5.513   2.528
 7004TIP3    H220970   3.308   5.592   2.446
 7005TIP3   OH220971   5.866   0.105   1.406
 7005TIP3    H120972   5.890   0.198   1.407
 7005TIP3    H220973   5.939   0.061   1.448
 7006TIP3   OH220974   2.053   3.376   6.149
 7006TIP3    H120975   2.016   3.386   6.237
 7006TIP3    H220976   2.092   3.462   6.131
 7007TIP3   OH220977   3.077   3.505   4.442
 7007TIP3    H120978   3.061   3.427   4.495
 7007TIP3    H220979   3.045   3.482   4.355
 7008TIP3   OH220980   1.742   1.409   6.212
 7008TIP3    H120981   1.780   1.379   6.129
 7008TIP3    H220982   1.691   1.334   6.242
 7009TIP3   OH220983   3.413   5.023   0.022
 7009TIP3    H120984   3.491   4.968   0.023
 7009TIP3    H220985   3.351   4.978   0.078
 7010TIP3   OH220986   4.830   2.412   3.493
 7010TIP3    H120987   4.741   2.434   3.466
 7010TIP3    H220988   4.854   2.483   3.553
 7011TIP3   OH220989   2.107   1.429   2.734
 7011TIP3    H120990   2.101   1.525   2.728
 7011TIP3    H220991   2.158   1.414   2.813
 7012TIP3   OH220992   6.609   0.016   3.789
 7012TIP3    H120993   6.562  -0.064   3.765
 7012TIP3    H220994   6.540   0.074   3.822
 7013TIP3   OH220995   3.052   0.919   1.459
 7013TIP3    H120996   3.112   0.989   1.487
 7013TIP3    H220997   2.971   0.965   1.438
 7014TIP3   OH220998   1.915   0.715   6.510
 7014TIP3    H120999   1.995   0.667   6.529
 7014TIP3    H221000   1.873   0.666   6.440
 7015TIP3   OH221001   6.151   3.011   0.760
 7015TIP3    H121002   6.218   2.955   0.719
 7015TIP3    H221003   6.075   3.001   0.703
 7016TIP3   OH221004   6.616   3.893   0.174
 7016TIP3    H121005   6.663   3.870   0.094
 7016TIP3    H221006   6.624   3.816   0.230
 7017TIP3   OH221007   2.308   3.286   5.816
 7017TIP3    H121008   2.324   3.279   5.722
 7017TIP3    H221009   2.348   3.207   5.853
 7018TIP3   OH221010   3.973   0.249   6.390
 7018TIP3    H121011   3.939   0.261   6.479
 7018TIP3    H221012   4.035   0.177   6.398
 7019TIP3   OH221013   0.713   5.139   6.162
 7019TIP3    H121014   0.782   5.205   6.157
 7019TIP3    H221015   0.759   5.056   6.176
 7020TIP3   OH221016   0.453   3.109   2.080
 7020TIP3    H121017   0.419   3.176   2.139
 7020TIP3    H221018   0.530   3.148   2.039
 7021TIP3   OH221019   6.877   5.793   5.176
 7021TIP3    H121020   6.904   5.800   5.268
 7021TIP3    H221021   6.903   5.876   5.138
 7022TIP3   OH221022   1.591   5.655   5.249
 7022TIP3    H121023   1.613   5.563   5.234
 7022TIP3    H221024   1.509   5.668   5.202
 7023TIP3   OH221025   2.733   1.695   0.422
 7023TIP3    H121026   2.790   1.621   0.402
 7023TIP3    H221027   2.764   1.765   0.364
 7024TIP3   OH221028   6.729   3.352   3.947
 7024TIP3    H121029   6.758   3.388   3.863
 7024TIP3    H221030   6.735   3.425   4.008
 7025TIP3   OH221031   7.584   6.726   3.948
 7025TIP3    H121032   7.570   6.789   4.020
 7025TIP3    H221033   7.639   6.658   3.987
 7026TIP3   OH221034   7.546   1.070   2.675
 7026TIP3    H121035   7.489   1.100   2.605
 7026TIP3    H221036   7.628   1.047   2.631
 7027TIP3   OH221037   6.048   0.782   4.672
 7027TIP3    H121038   6.110   0.755   4.604
 7027TIP3    H221039   5.983   0.833   4.625
 7028TIP3   OH221040   0.090   5.622   1.425
 7028TIP3    H121041   0.091   5.700   1.481
 7028TIP3    H221042   0.026   5.564   1.466
 7029TIP3   OH221043   6.695   4.554   2.882
 7029TIP3    H121044   6.731   4.630   2.836
 7029TIP3    H221045   6.606   4.545   2.847
 7030TIP3   OH221046   8.099   1.766   6.379
 7030TIP3    H121047   8.071   1.776   6.288
 7030TIP3    H221048   8.151   1.845   6.396
 7031TIP3   OH221049   7.096   7.273   0.126
 7031TIP3    H121050   7.163   7.214   0.162
 7031TIP3    H221051   7.114   7.274   0.032
 7032TIP3   OH221052   6.867   0.251   6.434
 7032TIP3    H121053   6.891   0.333   6.478
 7032TIP3    H221054   6.771   0.252   6.431
 7033TIP3   OH221055   6.495   3.888   3.546
 7033TIP3    H121056   6.525   3.881   3.455
 7033TIP3    H221057   6.516   3.803   3.585
 7034TIP3   OH221058   6.459   5.470   0.616
 7034TIP3    H121059   6.431   5.485   0.706
 7034TIP3    H221060   6.477   5.376   0.611
 7035TIP3   OH221061   3.382   2.545   6.115
 7035TIP3    H121062   3.394   2.452   6.097
 7035TIP3    H221063   3.471   2.577   6.132
 7036TIP3   OH221064   5.147   6.636   6.514
 7036TIP3    H121065   5.092   6.577   6.564
 7036TIP3    H221066   5.173   6.585   6.437
 7037TIP3   OH221067   3.923   5.417   2.955
 7037TIP3    H121068   3.993   5.361   2.921
 7037TIP3    H221069   3.844   5.388   2.910
 7038TIP3   OH221070   7.481   4.854   0.888
 7038TIP3    H121071   7.565   4.807   0.887
 7038TIP3    H221072   7.503   4.942   0.918
 7039TIP3   OH221073   7.343   3.614   2.932
 7039TIP3    H121074   7.290   3.599   2.853
 7039TIP3    H221075   7.431   3.586   2.908
 7040TIP3   OH221076   1.003   0.934   0.372
 7040TIP3    H121077   1.092   0.969   0.375
 7040TIP3    H221078   0.980   0.917   0.463
 7041TIP3   OH221079   2.718   1.519   5.191
 7041TIP3    H121080   2.679   1.435   5.214
 7041TIP3    H221081   2.812   1.502   5.188
 7042TIP3   OH221082   4.786   0.567   4.666
 7042TIP3    H121083   4.787   0.497   4.731
 7042TIP3    H221084   4.878   0.595   4.660
 7043TIP3   OH221085   3.759   6.478   1.019
 7043TIP3    H121086   3.692   6.478   1.087
 7043TIP3    H221087   3.781   6.385   1.008
 7044TIP3   OH221088   5.785   4.751   4.457
 7044TIP3    H121089   5.854   4.747   4.524
 7044TIP3    H221090   5.809   4.827   4.403
 7045TIP3   OH221091   6.997   3.570   2.350
 7045TIP3    H121092   6.922   3.577   2.408
 7045TIP3    H221093   7.003   3.477   2.329
 7046TIP3   OH221094   7.599   0.505   1.391
 7046TIP3    H121095   7.589   0.550   1.308
 7046TIP3    H221096   7.516   0.460   1.405
 7047TIP3   OH221097   1.529   6.683   5.270
 7047TIP3    H121098   1.614   6.709   5.234
 7047TIP3    H221099   1.534   6.587   5.275
 7048TIP3   OH221100   7.755   2.595   6.138
 7048TIP3    H121101   7.847   2.581   6.116
 7048TIP3    H221102   7.732   2.519   6.192
 7049TIP3   OH221103   5.041   1.971   3.520
 7049TIP3    H121104   4.991   1.896   3.550
 7049TIP3    H221105   5.132   1.950   3.542
 7050TIP3   OH221106   5.477   0.222   2.203
 7050TIP3    H121107   5.415   0.229   2.276
 7050TIP3    H221108   5.439   0.277   2.134
 7051TIP3   OH221109   1.120   0.741   1.863
 7051TIP3    H121110   1.027   0.723   1.846
 7051TIP3    H221111   1.152   0.778   1.781
 7052TIP3   OH221112   5.991   4.047   3.434
 7052TIP3    H121113   6.003   4.137   3.463
 7052TIP3    H221114   6.079   4.010   3.432
 7053TIP3   OH221115   7.432   4.712   5.078
 7053TIP3    H121116   7.442   4.622   5.107
 7053TIP3    H221117   7.452   4.710   4.984
 7054TIP3   OH221118   5.318   6.570   1.252
 7054TIP3    H121119   5.338   6.478   1.233
 7054TIP3    H221120   5.224   6.570   1.271
 7055TIP3   OH221121   2.822   4.209   1.526
 7055TIP3    H121122   2.855   4.292   1.560
 7055TIP3    H221123   2.826   4.149   1.602
 7056TIP3   OH221124   3.562   7.323   3.507
 7056TIP3    H121125   3.552   7.411   3.472
 7056TIP3    H221126   3.523   7.328   3.594
 7057TIP3   OH221127   6.010   5.391   3.834
 7057TIP3    H121128   5.981   5.481   3.844
 7057TIP3    H221129   5.933   5.345   3.801
 7058TIP3   OH221130   2.137   2.672   1.184
 7058TIP3    H121131   2.132   2.742   1.250
 7058TIP3    H221132   2.231   2.655   1.175
 7059TIP3   OH221133   4.763   7.263   4.043
 7059TIP3    H121134   4.807   7.235   3.962
 7059TIP3    H221135   4.695   7.198   4.057
 7060TIP3   OH221136   2.960   6.895   0.526
 7060TIP3    H121137   2.998   6.961   0.469
 7060TIP3    H221138   2.887   6.940   0.569
 7061TIP3   OH221139   0.160   2.105   1.000
 7061TIP3    H121140   0.072   2.083   0.970
 7061TIP3    H221141   0.170   2.057   1.082
 7062TIP3   OH221142   6.074   5.210   4.765
 7062TIP3    H121143   6.129   5.165   4.700
 7062TIP3    H221144   5.995   5.233   4.717
 7063TIP3   OH221145   2.715   3.903   4.916
 7063TIP3    H121146   2.631   3.913   4.871
 7063TIP3    H221147   2.781   3.917   4.849
 7064TIP3   OH221148   6.460   1.398   2.863
 7064TIP3    H121149   6.519   1.385   2.789
 7064TIP3    H221150   6.516   1.385   2.940
 7065TIP3   OH221151   3.121   1.090   0.160
 7065TIP3    H121152   3.138   1.182   0.139
 7065TIP3    H221153   3.117   1.088   0.256
 7066TIP3   OH221154   1.099   3.673   5.080
 7066TIP3    H121155   1.167   3.740   5.075
 7066TIP3    H221156   1.079   3.667   5.173
 7067TIP3   OH221157   1.701   2.710   4.819
 7067TIP3    H121158   1.663   2.781   4.871
 7067TIP3    H221159   1.729   2.645   4.884
 7068TIP3   OH221160   2.931   6.837   5.190
 7068TIP3    H121161   2.978   6.916   5.215
 7068TIP3    H221162   2.973   6.808   5.109
 7069TIP3   OH221163   1.329   4.472   4.248
 7069TIP3    H121164   1.356   4.380   4.240
 7069TIP3    H221165   1.302   4.482   4.339
 7070TIP3   OH221166   0.852   2.537   0.165
 7070TIP3    H121167   0.810   2.557   0.249
 7070TIP3    H221168   0.889   2.621   0.136
 7071TIP3   OH221169   2.025   2.625   0.157
 7071TIP3    H121170   1.956   2.571   0.119
 7071TIP3    H221171   1.979   2.685   0.217
 7072TIP3   OH221172   0.743   6.300   5.975
 7072TIP3    H121173   0.825   6.347   5.992
 7072TIP3    H221174   0.731   6.244   6.053
 7073TIP3   OH221175   2.647   5.256   6.759
 7073TIP3    H121176   2.633   5.291   6.671
 7073TIP3    H221177   2.655   5.162   6.746
 7074TIP3   OH221178   0.164   0.732   3.050
 7074TIP3    H121179   0.203   0.662   3.102
 7074TIP3    H221180   0.075   0.741   3.085
 7075TIP3   OH221181   3.692   1.482   4.358
 7075TIP3    H121182   3.643   1.564   4.342
 7075TIP3    H221183   3.782   1.510   4.370
 7076TIP3   OH221184   8.105   1.458   3.385
 7076TIP3    H121185   8.166   1.385   3.385
 7076TIP3    H221186   8.123   1.506   3.304
 7077TIP3   OH221187   8.297   3.130   0.575
 7077TIP3    H121188   8.307   3.218   0.540
 7077TIP3    H221189   8.238   3.086   0.514
 7078TIP3   OH221190   6.639   2.326   5.490
 7078TIP3    H121191   6.585   2.274   5.430
 7078TIP3    H221192   6.613   2.296   5.577
 7079TIP3   OH221193   5.791   5.153   0.170
 7079TIP3    H121194   5.872   5.194   0.139
 7079TIP3    H221195   5.766   5.093   0.100
 7080TIP3   OH221196   5.259   0.714   0.246
 7080TIP3    H121197   5.222   0.683   0.329
 7080TIP3    H221198   5.184   0.719   0.187
 7081TIP3   OH221199   6.683   4.732   5.614
 7081TIP3    H121200   6.633   4.801   5.657
 7081TIP3    H221201   6.697   4.765   5.525
 7082TIP3   OH221202   5.338   1.498   1.398
 7082TIP3    H121203   5.324   1.590   1.419
 7082TIP3    H221204   5.251   1.458   1.399
 7083TIP3   OH221205   4.506   7.504   2.178
 7083TIP3    H121206   4.480   7.547   2.097
 7083TIP3    H221207   4.574   7.442   2.150
 7084TIP3   OH221208   2.721   1.579   1.439
 7084TIP3    H121209   2.792   1.515   1.444
 7084TIP3    H221210   2.727   1.628   1.521
 7085TIP3   OH221211   4.139   5.311   5.736
 7085TIP3    H121212   4.185   5.373   5.680
 7085TIP3    H221213   4.046   5.327   5.720
 7086TIP3   OH221214   1.740   5.355   1.053
 7086TIP3    H121215   1.738   5.335   0.960
 7086TIP3    H221216   1.751   5.450   1.058
 7087TIP3   OH221217   1.797   3.993   4.989
 7087TIP3    H121218   1.787   3.949   4.905
 7087TIP3    H221219   1.891   3.990   5.007
 7088TIP3   OH221220   6.296   2.279   1.290
 7088TIP3    H121221   6.333   2.262   1.377
 7088TIP3    H221222   6.262   2.368   1.296
 7089TIP3   OH221223   2.026   5.317   0.659
 7089TIP3    H121224   2.112   5.360   0.654
 7089TIP3    H221225   2.045   5.224   0.651
 7090TIP3   OH221226   7.739   6.270   1.993
 7090TIP3    H121227   7.696   6.237   1.914
 7090TIP3    H221228   7.777   6.192   2.034
 7091TIP3   OH221229   0.390   6.439   5.780
 7091TIP3    H121230   0.355   6.480   5.701
 7091TIP3    H221231   0.473   6.401   5.752
 7092TIP3   OH221232   0.797   6.665   3.540
 7092TIP3    H121233   0.815   6.749   3.498
 7092TIP3    H221234   0.715   6.679   3.588
 7093TIP3   OH221235   4.995   6.834   2.545
 7093TIP3    H121236   5.031   6.781   2.616
 7093TIP3    H221237   4.902   6.844   2.566
 7094TIP3   OH221238   8.227   0.729   3.655
 7094TIP3    H121239   8.242   0.788   3.581
 7094TIP3    H221240   8.315   0.702   3.681
 7095TIP3   OH221241   0.971   4.695   1.861
 7095TIP3    H121242   0.881   4.695   1.828
 7095TIP3    H221243   0.964   4.660   1.950
 7096TIP3   OH221244   0.872   7.186   6.367
 7096TIP3    H121245   0.950   7.206   6.419
 7096TIP3    H221246   0.842   7.101   6.401
 7097TIP3   OH221247   1.730   0.355   6.288
 7097TIP3    H121248   1.646   0.336   6.248
 7097TIP3    H221249   1.776   0.271   6.289
 7098TIP3   OH221250   5.171   7.505   2.434
 7098TIP3    H121251   5.136   7.527   2.521
 7098TIP3    H221252   5.262   7.535   2.437
 7099TIP3   OH221253   7.145   6.273   3.754
 7099TIP3    H121254   7.218   6.276   3.816
 7099TIP3    H221255   7.119   6.365   3.745
 7100TIP3   OH221256   6.349   3.601   3.395
 7100TIP3    H121257   6.256   3.614   3.418
 7100TIP3    H221258   6.383   3.547   3.466
 7101TIP3   OH221259   3.220   6.764   0.477
 7101TIP3    H121260   3.174   6.700   0.531
 7101TIP3    H221261   3.221   6.843   0.530
 7102TIP3   OH221262   0.189   5.927   0.617
 7102TIP3    H121263   0.235   6.007   0.593
 7102TIP3    H221264   0.212   5.865   0.548
 7103TIP3   OH221265   6.618   1.744   0.737
 7103TIP3    H121266   6.712   1.766   0.733
 7103TIP3    H221267   6.614   1.652   0.712
 7104TIP3   OH221268   0.302   0.704   6.560
 7104TIP3    H121269   0.299   0.698   6.656
 7104TIP3    H221270   0.269   0.791   6.541
 7105TIP3   OH221271   3.945   4.301   0.705
 7105TIP3    H121272   3.901   4.228   0.660
 7105TIP3    H221273   4.014   4.259   0.756
 7106TIP3   OH221274   2.148   6.878   3.357
 7106TIP3    H121275   2.082   6.869   3.289
 7106TIP3    H221276   2.196   6.795   3.354
 7107TIP3   OH221277   6.517   4.470   1.670
 7107TIP3    H121278   6.603   4.502   1.643
 7107TIP3    H221279   6.503   4.510   1.756
 7108TIP3   OH221280   3.663   1.615   2.836
 7108TIP3    H121281   3.626   1.542   2.886
 7108TIP3    H221282   3.659   1.690   2.896
 7109TIP3   OH221283   1.725   2.624   1.726
 7109TIP3    H121284   1.668   2.588   1.794
 7109TIP3    H221285   1.731   2.555   1.661
 7110TIP3   OH221286   7.726   0.497   3.072
 7110TIP3    H121287   7.702   0.429   3.009
 7110TIP3    H221288   7.645   0.544   3.090
 7111TIP3   OH221289   3.619   5.846   6.513
 7111TIP3    H121290   3.704   5.886   6.531
 7111TIP3    H221291   3.634   5.796   6.432
 7112TIP3   OH221292   2.967   7.126   4.029
 7112TIP3    H121293   2.987   7.124   3.936
 7112TIP3    H221294   2.985   7.216   4.056
 7113TIP3   OH221295   0.658   2.238   1.144
 7113TIP3    H121296   0.658   2.150   1.180
 7113TIP3    H221297   0.691   2.228   1.054
 7114TIP3   OH221298   3.780   0.267   4.712
 7114TIP3    H121299   3.776   0.261   4.617
 7114TIP3    H221300   3.803   0.179   4.741
 7115TIP3   OH221301   6.264   4.380   4.589
 7115TIP3    H121302   6.290   4.421   4.672
 7115TIP3    H221303   6.283   4.287   4.601
 7116TIP3   OH221304   0.827   4.542   5.382
 7116TIP3    H121305   0.777   4.540   5.300
 7116TIP3    H221306   0.848   4.634   5.395
 7117TIP3   OH221307   6.721   6.343   0.410
 7117TIP3    H121308   6.694   6.256   0.441
 7117TIP3    H221309   6.651   6.369   0.350
 7118TIP3   OH221310   8.255   4.800   4.815
 7118TIP3    H121311   8.198   4.777   4.742
 7118TIP3    H221312   8.196   4.823   4.886
 7119TIP3   OH221313   2.741   4.532   3.956
 7119TIP3    H121314   2.734   4.437   3.953
 7119TIP3    H221315   2.746   4.553   4.049
 7120TIP3   OH221316   2.251   4.427   4.375
 7120TIP3    H121317   2.324   4.489   4.371
 7120TIP3    H221318   2.277   4.357   4.315
 7121TIP3   OH221319   6.748   6.964   5.548
 7121TIP3    H121320   6.716   7.001   5.466
 7121TIP3    H221321   6.843   6.971   5.542
 7122TIP3   OH221322   7.057   6.500   1.918
 7122TIP3    H121323   7.029   6.413   1.891
 7122TIP3    H221324   7.145   6.510   1.880
 7123TIP3   OH221325   5.212   0.199   5.436
 7123TIP3    H121326   5.201   0.163   5.524
 7123TIP3    H221327   5.273   0.272   5.447
 7124TIP3   OH221328   0.381   1.198   0.051
 7124TIP3    H121329   0.396   1.244   0.133
 7124TIP3    H221330   0.414   1.256  -0.017
 7125TIP3   OH221331   7.784   6.607   5.946
 7125TIP3    H121332   7.791   6.698   5.918
 7125TIP3    H221333   7.801   6.556   5.867
 7126TIP3   OH221334   6.431   1.495   6.673
 7126TIP3    H121335   6.493   1.551   6.627
 7126TIP3    H221336   6.424   1.532   6.761
 7127TIP3   OH221337   4.599   7.396   0.089
 7127TIP3    H121338   4.683   7.372   0.129
 7127TIP3    H221339   4.533   7.370   0.154
 7128TIP3   OH221340   8.295   3.028   2.129
 7128TIP3    H121341   8.337   3.030   2.215
 7128TIP3    H221342   8.219   2.972   2.140
 7129TIP3   OH221343   5.450   4.392   1.092
 7129TIP3    H121344   5.359   4.373   1.068
 7129TIP3    H221345   5.468   4.477   1.053
 7130TIP3   OH221346   1.070   6.033   2.867
 7130TIP3    H121347   0.975   6.045   2.875
 7130TIP3    H221348   1.107   6.117   2.895
 7131TIP3   OH221349   5.992   0.030   4.016
 7131TIP3    H121350   5.952   0.116   4.006
 7131TIP3    H221351   5.981   0.009   4.109
 7132TIP3   OH221352   0.105   0.868   5.031
 7132TIP3    H121353   0.084   0.827   5.115
 7132TIP3    H221354   0.134   0.956   5.053
 7133TIP3   OH221355   3.274   6.297   6.076
 7133TIP3    H121356   3.237   6.350   6.005
 7133TIP3    H221357   3.361   6.333   6.089
 7134TIP3   OH221358   2.082   4.594   4.094
 7134TIP3    H121359   2.024   4.525   4.061
 7134TIP3    H221360   2.036   4.630   4.170
 7135TIP3   OH221361   4.585   1.900   2.299
 7135TIP3    H121362   4.571   1.923   2.391
 7135TIP3    H221363   4.600   1.805   2.300
 7136TIP3   OH221364   1.472   7.063   6.090
 7136TIP3    H121365   1.390   7.042   6.046
 7136TIP3    H221366   1.539   7.014   6.041
 7137TIP3   OH221367   3.166   0.470   5.981
 7137TIP3    H121368   3.167   0.437   5.891
 7137TIP3    H221369   3.256   0.500   5.996
 7138TIP3   OH221370   4.300   4.377   1.822
 7138TIP3    H121371   4.328   4.293   1.858
 7138TIP3    H221372   4.361   4.441   1.860
 7139TIP3   OH221373   3.597   3.339   2.301
 7139TIP3    H121374   3.670   3.279   2.318
 7139TIP3    H221375   3.548   3.340   2.383
 7140TIP3   OH221376   8.265   1.154   6.717
 7140TIP3    H121377   8.353   1.190   6.730
 7140TIP3    H221378   8.242   1.115   6.801
 7141TIP3   OH221379   6.071   2.878   2.344
 7141TIP3    H121380   6.096   2.788   2.364
 7141TIP3    H221381   6.036   2.873   2.255
 7142TIP3   OH221382   4.849   1.384   5.887
 7142TIP3    H121383   4.826   1.291   5.881
 7142TIP3    H221384   4.829   1.408   5.978
 7143TIP3   OH221385   2.509   0.738   6.209
 7143TIP3    H121386   2.512   0.751   6.304
 7143TIP3    H221387   2.601   0.741   6.182
 7144TIP3   OH221388   0.870   4.814   2.358
 7144TIP3    H121389   0.829   4.760   2.426
 7144TIP3    H221390   0.810   4.809   2.283
 7145TIP3   OH221391   4.007   7.189   1.519
 7145TIP3    H121392   3.992   7.206   1.612
 7145TIP3    H221393   4.092   7.147   1.515
 7146TIP3   OH221394   6.733   6.135   1.437
 7146TIP3    H121395   6.822   6.164   1.453
 7146TIP3    H221396   6.740   6.077   1.361
 7147TIP3   OH221397   6.152   4.059   2.033
 7147TIP3    H121398   6.232   4.112   2.030
 7147TIP3    H221399   6.086   4.118   2.069
 7148TIP3   OH221400   5.284   6.320   4.761
 7148TIP3    H121401   5.202   6.304   4.715
 7148TIP3    H221402   5.261   6.377   4.834
 7149TIP3   OH221403   2.930   7.131   4.595
 7149TIP3    H121404   2.905   7.213   4.636
 7149TIP3    H221405   2.917   7.147   4.501
 7150TIP3   OH221406   6.143   1.601   1.679
 7150TIP3    H121407   6.207   1.554   1.627
 7150TIP3    H221408   6.189   1.680   1.708
 7151TIP3   OH221409   6.225   1.260   2.961
 7151TIP3    H121410   6.178   1.341   2.941
 7151TIP3    H221411   6.314   1.275   2.928
 7152TIP3   OH221412   6.891   4.597   3.423
 7152TIP3    H121413   6.888   4.554   3.509
 7152TIP3    H221414   6.804   4.584   3.386
 7153TIP3   OH221415   5.755   2.746   0.354
 7153TIP3    H121416   5.844   2.720   0.331
 7153TIP3    H221417   5.699   2.685   0.306
 7154TIP3   OH221418   6.587   3.928   5.332
 7154TIP3    H121419   6.657   3.905   5.392
 7154TIP3    H221420   6.580   3.853   5.273
 7155TIP3   OH221421   1.428   5.569   1.455
 7155TIP3    H121422   1.458   5.578   1.545
 7155TIP3    H221423   1.394   5.656   1.433
 7156TIP3   OH221424   7.240   2.452   4.032
 7156TIP3    H121425   7.296   2.524   4.060
 7156TIP3    H221426   7.204   2.416   4.113
 7157TIP3   OH221427   6.421   0.295   6.379
 7157TIP3    H121428   6.496   0.326   6.328
 7157TIP3    H221429   6.460   0.250   6.454
 7158TIP3   OH221430   4.246   1.446   5.447
 7158TIP3    H121431   4.200   1.479   5.524
 7158TIP3    H221432   4.176   1.412   5.390
 7159TIP3   OH221433   1.980   6.816   0.739
 7159TIP3    H121434   1.914   6.843   0.803
 7159TIP3    H221435   2.058   6.797   0.792
 7160TIP3   OH221436   6.031   2.083   2.787
 7160TIP3    H121437   6.125   2.080   2.807
 7160TIP3    H221438   6.005   1.991   2.783
 7161TIP3   OH221439   0.636   2.740   4.466
 7161TIP3    H121440   0.667   2.728   4.556
 7161TIP3    H221441   0.544   2.716   4.469
 7162TIP3   OH221442   0.037   4.309   6.526
 7162TIP3    H121443   0.058   4.402   6.518
 7162TIP3    H221444  -0.054   4.302   6.496
 7163TIP3   OH221445   3.492   4.456   3.671
 7163TIP3    H121446   3.405   4.418   3.657
 7163TIP3    H221447   3.548   4.381   3.694
 7164TIP3   OH221448   4.298   2.472   0.901
 7164TIP3    H121449   4.219   2.436   0.941
 7164TIP3    H221450   4.300   2.434   0.813
 7165TIP3   OH221451   6.872   1.542   2.684
 7165TIP3    H121452   6.907   1.473   2.741
 7165TIP3    H221453   6.937   1.612   2.690
 7166TIP3   OH221454   2.942   6.406   5.894
 7166TIP3    H121455   2.950   6.360   5.978
 7166TIP3    H221456   2.861   6.372   5.856
 7167TIP3   OH221457   6.965   5.671   2.794
 7167TIP3    H121458   6.971   5.638   2.884
 7167TIP3    H221459   7.014   5.607   2.742
 7168TIP3   OH221460   7.892   5.594   3.486
 7168TIP3    H121461   7.828   5.605   3.556
 7168TIP3    H221462   7.845   5.546   3.418
 7169TIP3   OH221463   1.347   6.671   3.359
 7169TIP3    H121464   1.357   6.703   3.448
 7169TIP3    H221465   1.335   6.577   3.368
 7170TIP3   OH221466   3.596   2.969   0.042
 7170TIP3    H121467   3.629   2.980   0.131
 7170TIP3    H221468   3.530   2.900   0.048
 7171TIP3   OH221469   6.989   7.751   0.156
 7171TIP3    H121470   6.898   7.739   0.183
 7171TIP3    H221471   7.004   7.846   0.164
 7172TIP3   OH221472   1.929   2.322   5.430
 7172TIP3    H121473   1.931   2.308   5.525
 7172TIP3    H221474   1.837   2.335   5.409
 7173TIP3   OH221475   7.930   0.809   1.666
 7173TIP3    H121476   7.936   0.718   1.695
 7173TIP3    H221477   7.840   0.835   1.686
 7174TIP3   OH221478   1.327   0.669   3.872
 7174TIP3    H121479   1.384   0.592   3.876
 7174TIP3    H221480   1.243   0.635   3.840
 7175TIP3   OH221481   5.332   6.279   5.311
 7175TIP3    H121482   5.380   6.239   5.239
 7175TIP3    H221483   5.245   6.294   5.276
 7176TIP3   OH221484   3.528   7.723   1.725
 7176TIP3    H121485   3.613   7.757   1.699
 7176TIP3    H221486   3.508   7.655   1.660
 7177TIP3   OH221487   5.456   6.676   0.895
 7177TIP3    H121488   5.365   6.688   0.870
 7177TIP3    H221489   5.483   6.759   0.932
 7178TIP3   OH221490   5.065   6.227   5.425
 7178TIP3    H121491   4.989   6.196   5.376
 7178TIP3    H221492   5.064   6.175   5.505
 7179TIP3   OH221493   2.798   5.865   6.109
 7179TIP3    H121494   2.857   5.892   6.179
 7179TIP3    H221495   2.804   5.936   6.044
 7180TIP3   OH221496   1.636   7.051   2.529
 7180TIP3    H121497   1.720   7.095   2.537
 7180TIP3    H221498   1.634   7.018   2.439
 7181TIP3   OH221499   1.597   7.391   0.063
 7181TIP3    H121500   1.668   7.437   0.107
 7181TIP3    H221501   1.519   7.413   0.113
 7182TIP3   OH221502   2.215   3.015   2.288
 7182TIP3    H121503   2.307   3.019   2.315
 7182TIP3    H221504   2.166   3.046   2.364
 7183TIP3   OH221505   5.173   5.408   4.853
 7183TIP3    H121506   5.236   5.339   4.872
 7183TIP3    H221507   5.145   5.390   4.763
 7184TIP3   OH221508   4.622   0.581   6.129
 7184TIP3    H121509   4.570   0.632   6.068
 7184TIP3    H221510   4.625   0.634   6.209
 7185TIP3   OH221511   0.567   2.773   6.036
 7185TIP3    H121512   0.564   2.678   6.029
 7185TIP3    H221513   0.654   2.792   6.070
 7186TIP3   OH221514   5.083   5.774   3.519
 7186TIP3    H121515   5.014   5.719   3.482
 7186TIP3    H221516   5.041   5.859   3.531
 7187TIP3   OH221517   1.180   7.095   2.511
 7187TIP3    H121518   1.215   7.169   2.561
 7187TIP3    H221519   1.121   7.051   2.572
 7188TIP3   OH221520   3.296   7.778   1.545
 7188TIP3    H121521   3.334   7.784   1.633
 7188TIP3    H221522   3.323   7.692   1.513
 7189TIP3   OH221523   4.839   5.297   5.393
 7189TIP3    H121524   4.911   5.345   5.351
 7189TIP3    H221525   4.863   5.205   5.384
 7190TIP3   OH221526   4.927   1.209   0.611
 7190TIP3    H121527   4.957   1.126   0.649
 7190TIP3    H221528   4.866   1.244   0.676
 7191TIP3   OH221529   3.515   3.000   4.795
 7191TIP3    H121530   3.491   3.092   4.807
 7191TIP3    H221531   3.514   2.964   4.883
 7192TIP3   OH221532   1.153   0.290   6.304
 7192TIP3    H121533   1.113   0.377   6.302
 7192TIP3    H221534   1.237   0.303   6.348
 7193TIP3   OH221535   4.939   6.935   2.164
 7193TIP3    H121536   4.941   6.862   2.102
 7193TIP3    H221537   4.850   6.937   2.197
 7194TIP3   OH221538   5.827   4.672   5.086
 7194TIP3    H121539   5.771   4.655   5.010
 7194TIP3    H221540   5.836   4.768   5.089
 7195TIP3   OH221541   7.822   4.926   6.269
 7195TIP3    H121542   7.779   4.946   6.185
 7195TIP3    H221543   7.823   4.830   6.272
 7196TIP3   OH221544   0.020   0.566   3.398
 7196TIP3    H121545   0.047   0.654   3.424
 7196TIP3    H221546   0.075   0.546   3.322
 7197TIP3   OH221547   3.803   2.063   5.005
 7197TIP3    H121548   3.797   2.014   4.923
 7197TIP3    H221549   3.757   2.008   5.069
 7198TIP3   OH221550   5.236   0.563   0.505
 7198TIP3    H121551   5.308   0.519   0.550
 7198TIP3    H221552   5.157   0.522   0.540
 7199TIP3   OH221553   5.680   5.547   0.163
 7199TIP3    H121554   5.662   5.596   0.082
 7199TIP3    H221555   5.603   5.491   0.175
 7200TIP3   OH221556   6.260   0.524   2.095
 7200TIP3    H121557   6.172   0.490   2.108
 7200TIP3    H221558   6.317   0.449   2.111
 7201TIP3   OH221559   4.404   0.045   3.444
 7201TIP3    H121560   4.492   0.064   3.477
 7201TIP3    H221561   4.401   0.085   3.357
 7202TIP3   OH221562   6.265   6.272   4.966
 7202TIP3    H121563   6.200   6.342   4.962
 7202TIP3    H221564   6.244   6.224   5.045
 7203TIP3   OH221565   4.600   7.582   4.477
 7203TIP3    H121566   4.509   7.565   4.502
 7203TIP3    H221567   4.614   7.527   4.399
 7204TIP3   OH221568   7.364   0.949   5.044
 7204TIP3    H121569   7.437   0.890   5.026
 7204TIP3    H221570   7.387   0.992   5.126
 7205TIP3   OH221571   1.965   7.458   2.631
 7205TIP3    H121572   1.909   7.461   2.709
 7205TIP3    H221573   2.036   7.519   2.651
 7206TIP3   OH221574   5.763   1.356   1.617
 7206TIP3    H121575   5.786   1.446   1.594
 7206TIP3    H221576   5.672   1.346   1.589
 7207TIP3   OH221577   7.373   7.131   3.888
 7207TIP3    H121578   7.280   7.112   3.876
 7207TIP3    H221579   7.413   7.110   3.804
 7208TIP3   OH221580   2.017   3.730   1.949
 7208TIP3    H121581   2.105   3.700   1.925
 7208TIP3    H221582   1.958   3.678   1.893
 7209TIP3   OH221583   5.780   5.395   1.633
 7209TIP3    H121584   5.702   5.344   1.611
 7209TIP3    H221585   5.780   5.398   1.729
 7210TIP3   OH221586   6.909   1.746   5.701
 7210TIP3    H121587   6.914   1.744   5.606
 7210TIP3    H221588   6.995   1.778   5.729
 7211TIP3   OH221589   4.970   3.783   0.985
 7211TIP3    H121590   4.963   3.772   0.890
 7211TIP3    H221591   4.983   3.695   1.019
 7212TIP3   OH221592   6.018   4.541   3.725
 7212TIP3    H121593   5.969   4.623   3.727
 7212TIP3    H221594   5.964   4.482   3.672
 7213TIP3   OH221595   3.992   0.691   6.529
 7213TIP3    H121596   4.011   0.683   6.623
 7213TIP3    H221597   3.908   0.646   6.518
 7214TIP3   OH221598   1.855   3.284   3.559
 7214TIP3    H121599   1.946   3.311   3.543
 7214TIP3    H221600   1.860   3.188   3.566
 7215TIP3   OH221601   7.377   1.232   6.676
 7215TIP3    H121602   7.449   1.169   6.679
 7215TIP3    H221603   7.304   1.187   6.717
 7216TIP3   OH221604   5.026   3.162   6.333
 7216TIP3    H121605   4.967   3.145   6.259
 7216TIP3    H221606   5.063   3.248   6.314
 7217TIP3   OH221607   2.515   2.906   1.847
 7217TIP3    H121608   2.517   2.998   1.819
 7217TIP3    H221609   2.460   2.906   1.925
 7218TIP3   OH221610   7.034   5.321   4.065
 7218TIP3    H121611   6.957   5.298   4.117
 7218TIP3    H221612   7.027   5.416   4.054
 7219TIP3   OH221613   4.903   1.969   4.783
 7219TIP3    H121614   4.910   1.900   4.716
 7219TIP3    H221615   4.866   1.924   4.859
 7220TIP3   OH221616   1.577   2.652   1.435
 7220TIP3    H121617   1.598   2.711   1.363
 7220TIP3    H221618   1.661   2.612   1.460
 7221TIP3   OH221619   1.927   1.301   5.994
 7221TIP3    H121620   1.856   1.294   5.931
 7221TIP3    H221621   1.965   1.213   5.996
 7222TIP3   OH221622   0.244   4.596   4.165
 7222TIP3    H121623   0.256   4.505   4.138
 7222TIP3    H221624   0.327   4.639   4.143
 7223TIP3   OH221625   5.646   2.341   0.567
 7223TIP3    H121626   5.624   2.434   0.571
 7223TIP3    H221627   5.728   2.337   0.518
 7224TIP3   OH221628   6.784   0.189   4.552
 7224TIP3    H121629   6.726   0.138   4.608
 7224TIP3    H221630   6.872   0.164   4.579
 7225TIP3   OH221631   0.755   1.197   4.912
 7225TIP3    H121632   0.695   1.260   4.871
 7225TIP3    H221633   0.738   1.114   4.866
 7226TIP3   OH221634   3.814   7.382   2.520
 7226TIP3    H121635   3.802   7.327   2.443
 7226TIP3    H221636   3.869   7.454   2.490
 7227TIP3   OH221637   2.280   4.152   2.965
 7227TIP3    H121638   2.251   4.243   2.953
 7227TIP3    H221639   2.229   4.120   3.039
 7228TIP3   OH221640   4.548   7.675   3.593
 7228TIP3    H121641   4.501   7.749   3.553
 7228TIP3    H221642   4.479   7.623   3.635
 7229TIP3   OH221643   6.477   1.525   0.056
 7229TIP3    H121644   6.543   1.456   0.063
 7229TIP3    H221645   6.428   1.519   0.139
 7230TIP3   OH221646   5.095   4.696   5.851
 7230TIP3    H121647   5.098   4.776   5.903
 7230TIP3    H221648   5.174   4.648   5.876
 7231TIP3   OH221649   2.194   5.525   2.530
 7231TIP3    H121650   2.172   5.618   2.537
 7231TIP3    H221651   2.256   5.521   2.457
 7232TIP3   OH221652   5.002   3.440   6.228
 7232TIP3    H121653   4.968   3.474   6.311
 7232TIP3    H221654   4.927   3.437   6.170
 7233TIP3   OH221655   4.880   0.258   4.533
 7233TIP3    H121656   4.944   0.310   4.485
 7233TIP3    H221657   4.890   0.285   4.624
 7234TIP3   OH221658   6.443   7.649   2.612
 7234TIP3    H121659   6.457   7.671   2.520
 7234TIP3    H221660   6.363   7.698   2.635
 7235TIP3   OH221661   5.647   2.368   4.389
 7235TIP3    H121662   5.566   2.337   4.349
 7235TIP3    H221663   5.701   2.290   4.399
 7236TIP3   OH221664   1.286   3.389   1.610
 7236TIP3    H121665   1.264   3.300   1.637
 7236TIP3    H221666   1.310   3.433   1.692
 7237TIP3   OH221667   7.054   1.644   6.753
 7237TIP3    H121668   7.046   1.569   6.812
 7237TIP3    H221669   7.143   1.638   6.718
 7238TIP3   OH221670   0.326   5.102   2.366
 7238TIP3    H121671   0.339   5.017   2.410
 7238TIP3    H221672   0.354   5.087   2.276
 7239TIP3   OH221673   2.446   3.014   2.725
 7239TIP3    H121674   2.431   2.974   2.811
 7239TIP3    H221675   2.466   3.106   2.744
 7240TIP3   OH221676   3.545   2.464   5.641
 7240TIP3    H121677   3.563   2.548   5.599
 7240TIP3    H221678   3.455   2.472   5.673
 7241TIP3   OH221679   4.306   0.761   5.193
 7241TIP3    H121680   4.376   0.708   5.155
 7241TIP3    H221681   4.234   0.700   5.207
 7242TIP3   OH221682   4.705   3.905   1.768
 7242TIP3    H121683   4.695   3.813   1.742
 7242TIP3    H221684   4.677   3.907   1.860
 7243TIP3   OH221685   4.575   6.590   1.186
 7243TIP3    H121686   4.591   6.664   1.128
 7243TIP3    H221687   4.485   6.603   1.217
 7244TIP3   OH221688   7.715   4.085   2.671
 7244TIP3    H121689   7.683   4.143   2.740
 7244TIP3    H221690   7.690   4.128   2.589
 7245TIP3   OH221691   5.180   3.793   1.947
 7245TIP3    H121692   5.108   3.817   1.889
 7245TIP3    H221693   5.257   3.792   1.891
 7246TIP3   OH221694   4.736   4.316   3.911
 7246TIP3    H121695   4.791   4.270   3.974
 7246TIP3    H221696   4.787   4.392   3.885
 7247TIP3   OH221697   5.744   1.069   3.318
 7247TIP3    H121698   5.663   1.065   3.267
 7247TIP3    H221699   5.812   1.091   3.255
 7248TIP3   OH221700   7.810   2.179   5.149
 7248TIP3    H121701   7.801   2.154   5.057
 7248TIP3    H221702   7.738   2.134   5.193
 7249TIP3   OH221703   5.683   4.905   5.957
 7249TIP3    H121704   5.681   4.835   5.892
 7249TIP3    H221705   5.623   4.876   6.026
 7250TIP3   OH221706   6.145   0.340   0.411
 7250TIP3    H121707   6.154   0.414   0.351
 7250TIP3    H221708   6.156   0.379   0.498
 7251TIP3   OH221709   6.686   0.932   1.428
 7251TIP3    H121710   6.734   0.942   1.346
 7251TIP3    H221711   6.755   0.919   1.494
 7252TIP3   OH221712   5.215   5.499   6.346
 7252TIP3    H121713   5.291   5.554   6.364
 7252TIP3    H221714   5.253   5.418   6.311
 7253TIP3   OH221715   4.609   3.411   4.634
 7253TIP3    H121716   4.619   3.323   4.600
 7253TIP3    H221717   4.545   3.452   4.577
 7254TIP3   OH221718   3.951   7.342   5.094
 7254TIP3    H121719   3.989   7.255   5.082
 7254TIP3    H221720   3.889   7.331   5.166
 7255TIP3   OH221721   6.767   4.182   0.170
 7255TIP3    H121722   6.854   4.197   0.208
 7255TIP3    H221723   6.754   4.088   0.176
 7256TIP3   OH221724   1.589   0.813   0.052
 7256TIP3    H121725   1.501   0.795   0.086
 7256TIP3    H221726   1.598   0.752  -0.022
 7257TIP3   OH221727   3.394   5.671   5.382
 7257TIP3    H121728   3.440   5.708   5.307
 7257TIP3    H221729   3.352   5.593   5.347
 7258TIP3   OH221730   5.549   1.357   2.620
 7258TIP3    H121731   5.574   1.344   2.711
 7258TIP3    H221732   5.569   1.273   2.578
 7259TIP3   OH221733   7.797   1.512   0.615
 7259TIP3    H121734   7.770   1.446   0.551
 7259TIP3    H221735   7.892   1.517   0.605
 7260TIP3   OH221736   6.231   3.961   3.400
 7260TIP3    H121737   6.314   3.917   3.414
 7260TIP3    H221738   6.246   4.018   3.324
 7261TIP3   OH221739   2.840   3.397   5.506
 7261TIP3    H121740   2.784   3.442   5.569
 7261TIP3    H221741   2.821   3.439   5.422
 7262TIP3   OH221742   1.775   2.983   0.295
 7262TIP3    H121743   1.733   2.912   0.344
 7262TIP3    H221744   1.800   2.942   0.212
 7263TIP3   OH221745   7.284   7.493   3.084
 7263TIP3    H121746   7.222   7.488   3.011
 7263TIP3    H221747   7.356   7.546   3.050
 7264TIP3   OH221748   1.162   2.606   2.644
 7264TIP3    H121749   1.121   2.566   2.567
 7264TIP3    H221750   1.254   2.579   2.640
 7265TIP3   OH221751   0.558   4.803   5.081
 7265TIP3    H121752   0.613   4.879   5.094
 7265TIP3    H221753   0.468   4.837   5.083
 7266TIP3   OH221754   4.429   5.244   0.628
 7266TIP3    H121755   4.470   5.317   0.582
 7266TIP3    H221756   4.387   5.193   0.558
 7267TIP3   OH221757   5.342   0.363   3.002
 7267TIP3    H121758   5.373   0.292   3.058
 7267TIP3    H221759   5.263   0.328   2.960
 7268TIP3   OH221760   7.896   2.164   2.813
 7268TIP3    H121761   7.818   2.130   2.856
 7268TIP3    H221762   7.968   2.111   2.848
 7269TIP3   OH221763   1.309   7.053   0.048
 7269TIP3    H121764   1.329   7.140   0.014
 7269TIP3    H221765   1.269   7.007  -0.025
 7270TIP3   OH221766   8.140   3.200   5.869
 7270TIP3    H121767   8.094   3.231   5.946
 7270TIP3    H221768   8.221   3.162   5.902
 7271TIP3   OH221769   3.188   0.618   3.315
 7271TIP3    H121770   3.114   0.678   3.324
 7271TIP3    H221771   3.149   0.531   3.328
 7272TIP3   OH221772   2.308   1.575   5.654
 7272TIP3    H121773   2.231   1.615   5.695
 7272TIP3    H221774   2.345   1.519   5.722
 7273TIP3   OH221775   7.002   3.100   3.878
 7273TIP3    H121776   7.012   3.054   3.962
 7273TIP3    H221777   6.914   3.078   3.849
 7274TIP3   OH221778   2.979   5.767   5.221
 7274TIP3    H121779   2.982   5.777   5.125
 7274TIP3    H221780   2.979   5.672   5.235
 7275TIP3   OH221781   0.610   4.468   2.582
 7275TIP3    H121782   0.674   4.507   2.641
 7275TIP3    H221783   0.618   4.374   2.594
 7276TIP3   OH221784   3.196   2.791   4.306
 7276TIP3    H121785   3.166   2.703   4.284
 7276TIP3    H221786   3.277   2.777   4.356
 7277TIP3   OH221787   4.636   0.959   0.754
 7277TIP3    H121788   4.721   0.959   0.711
 7277TIP3    H221789   4.587   0.890   0.710
 7278TIP3   OH221790   7.486   1.301   0.631
 7278TIP3    H121791   7.433   1.377   0.654
 7278TIP3    H221792   7.439   1.226   0.669
 7279TIP3   OH221793   2.992   1.376   4.006
 7279TIP3    H121794   3.056   1.422   4.062
 7279TIP3    H221795   2.954   1.310   4.064
 7280TIP3   OH221796   0.980   2.834   5.107
 7280TIP3    H121797   0.904   2.781   5.130
 7280TIP3    H221798   0.951   2.925   5.119
 7281TIP3   OH221799   0.191   0.068   3.771
 7281TIP3    H121800   0.119   0.005   3.765
 7281TIP3    H221801   0.192   0.111   3.685
 7282TIP3   OH221802   1.831   2.188   1.692
 7282TIP3    H121803   1.905   2.163   1.748
 7282TIP3    H221804   1.780   2.108   1.683
 7283TIP3   OH221805   5.812   4.060   5.798
 7283TIP3    H121806   5.764   4.033   5.876
 7283TIP3    H221807   5.792   4.154   5.789
 7284TIP3   OH221808   6.503   7.582   1.923
 7284TIP3    H121809   6.425   7.586   1.979
 7284TIP3    H221810   6.562   7.648   1.959
 7285TIP3   OH221811   4.012   3.286   4.342
 7285TIP3    H121812   4.011   3.201   4.298
 7285TIP3    H221813   4.006   3.266   4.435
 7286TIP3   OH221814   5.421   3.645   6.603
 7286TIP3    H121815   5.507   3.605   6.588
 7286TIP3    H221816   5.436   3.705   6.677
 7287TIP3   OH221817   3.978   0.050   3.212
 7287TIP3    H121818   3.944   0.138   3.197
 7287TIP3    H221819   3.948   0.027   3.300
 7288TIP3   OH221820   0.908   1.928   1.044
 7288TIP3    H121821   0.914   1.833   1.060
 7288TIP3    H221822   0.915   1.936   0.949
 7289TIP3   OH221823   6.826   6.313   3.446
 7289TIP3    H121824   6.877   6.380   3.402
 7289TIP3    H221825   6.757   6.361   3.492
 7290TIP3   OH221826   4.471   0.619   1.222
 7290TIP3    H121827   4.396   0.576   1.180
 7290TIP3    H221828   4.452   0.612   1.316
 7291TIP3   OH221829   0.573   7.206   3.041
 7291TIP3    H121830   0.496   7.259   3.060
 7291TIP3    H221831   0.539   7.131   2.991
 7292TIP3   OH221832   1.456   0.405   1.893
 7292TIP3    H121833   1.472   0.482   1.839
 7292TIP3    H221834   1.364   0.413   1.919
 7293TIP3   OH221835   5.446   2.657   1.991
 7293TIP3    H121836   5.518   2.594   1.982
 7293TIP3    H221837   5.428   2.685   1.901
 7294TIP3   OH221838   2.503   0.731   6.504
 7294TIP3    H121839   2.479   0.668   6.572
 7294TIP3    H221840   2.470   0.815   6.536
 7295TIP3   OH221841   4.073   0.649   0.611
 7295TIP3    H121842   3.990   0.693   0.631
 7295TIP3    H221843   4.140   0.713   0.633
 7296TIP3   OH221844   5.452   6.102   3.553
 7296TIP3    H121845   5.476   6.017   3.515
 7296TIP3    H221846   5.508   6.110   3.630
 7297TIP3   OH221847   2.621   3.902   4.010
 7297TIP3    H121848   2.564   3.959   3.958
 7297TIP3    H221849   2.655   3.839   3.946
 7298TIP3   OH221850   7.142   7.275   5.270
 7298TIP3    H121851   7.087   7.307   5.198
 7298TIP3    H221852   7.212   7.340   5.278
 7299TIP3   OH221853   0.355   4.471   2.972
 7299TIP3    H121854   0.324   4.405   2.911
 7299TIP3    H221855   0.426   4.515   2.925
 7300TIP3   OH221856   1.587   2.642   4.540
 7300TIP3    H121857   1.638   2.674   4.614
 7300TIP3    H221858   1.530   2.575   4.577
 7301TIP3   OH221859   7.537   0.627   0.081
 7301TIP3    H121860   7.464   0.574   0.050
 7301TIP3    H221861   7.504   0.670   0.160
 7302TIP3   OH221862   5.089   2.518   5.642
 7302TIP3    H121863   5.037   2.515   5.722
 7302TIP3    H221864   5.110   2.426   5.624
 7303TIP3   OH221865   1.978   4.166   5.346
 7303TIP3    H121866   2.062   4.199   5.376
 7303TIP3    H221867   1.987   4.071   5.348
 7304TIP3   OH221868   7.379   2.788   1.229
 7304TIP3    H121869   7.313   2.824   1.289
 7304TIP3    H221870   7.391   2.698   1.258
 7305TIP3   OH221871   3.611   4.858   1.697
 7305TIP3    H121872   3.548   4.807   1.748
 7305TIP3    H221873   3.566   4.941   1.680
 7306TIP3   OH221874   2.101   6.704   1.693
 7306TIP3    H121875   2.083   6.630   1.635
 7306TIP3    H221876   2.052   6.777   1.654
 7307TIP3   OH221877   4.992   6.256   0.460
 7307TIP3    H121878   5.061   6.190   0.468
 7307TIP3    H221879   4.962   6.247   0.369
 7308TIP3   OH221880   2.976   4.631   5.696
 7308TIP3    H121881   2.995   4.703   5.636
 7308TIP3    H221882   3.010   4.660   5.781
 7309TIP3   OH221883   7.961   5.257   0.394
 7309TIP3    H121884   8.032   5.320   0.389
 7309TIP3    H221885   7.996   5.177   0.356
 7310TIP3   OH221886   0.467   1.464   6.221
 7310TIP3    H121887   0.413   1.389   6.195
 7310TIP3    H221888   0.538   1.465   6.157
 7311TIP3   OH221889   4.186   0.602   2.641
 7311TIP3    H121890   4.152   0.640   2.560
 7311TIP3    H221891   4.113   0.555   2.679
 7312TIP3   OH221892   8.215   7.665   4.390
 7312TIP3    H121893   8.286   7.700   4.444
 7312TIP3    H221894   8.260   7.630   4.312
 7313TIP3   OH221895   1.814   3.413   1.999
 7313TIP3    H121896   1.847   3.393   1.911
 7313TIP3    H221897   1.807   3.508   2.001
 7314TIP3   OH221898   2.857   6.360   5.491
 7314TIP3    H121899   2.944   6.392   5.467
 7314TIP3    H221900   2.871   6.268   5.516
 7315TIP3   OH221901   0.717   4.401   0.832
 7315TIP3    H121902   0.747   4.492   0.833
 7315TIP3    H221903   0.795   4.350   0.852
 7316TIP3   OH221904   7.333   5.034   4.224
 7316TIP3    H121905   7.350   4.957   4.278
 7316TIP3    H221906   7.252   5.070   4.259
 7317TIP3   OH221907   1.873   3.318   1.180
 7317TIP3    H121908   1.945   3.284   1.126
 7317TIP3    H221909   1.911   3.327   1.267
 7318TIP3   OH221910   2.428   6.053   0.078
 7318TIP3    H121911   2.437   6.148   0.083
 7318TIP3    H221912   2.354   6.033   0.135
 7319TIP3   OH221913   0.371   6.895   3.138
 7319TIP3    H121914   0.335   6.975   3.175
 7319TIP3    H221915   0.404   6.846   3.213
 7320TIP3   OH221916   3.349   5.308   0.946
 7320TIP3    H121917   3.424   5.353   0.985
 7320TIP3    H221918   3.298   5.379   0.905
 7321TIP3   OH221919   4.322   2.130   0.107
 7321TIP3    H121920   4.246   2.077   0.130
 7321TIP3    H221921   4.286   2.212   0.074
 7322TIP3   OH221922   3.839   5.385   0.985
 7322TIP3    H121923   3.911   5.429   0.939
 7322TIP3    H221924   3.876   5.364   1.071
 7323TIP3   OH221925   4.248   2.577   2.725
 7323TIP3    H121926   4.184   2.622   2.669
 7323TIP3    H221927   4.322   2.637   2.730
 7324TIP3   OH221928   6.058   5.420   2.358
 7324TIP3    H121929   6.086   5.354   2.421
 7324TIP3    H221930   6.139   5.449   2.316
 7325TIP3   OH221931   5.186   1.191   4.342
 7325TIP3    H121932   5.246   1.116   4.345
 7325TIP3    H221933   5.190   1.227   4.431
 7326TIP3   OH221934   4.208   3.259   1.362
 7326TIP3    H121935   4.242   3.348   1.371
 7326TIP3    H221936   4.253   3.223   1.286
 7327TIP3   OH221937   1.790   4.207   0.510
 7327TIP3    H121938   1.882   4.182   0.513
 7327TIP3    H221939   1.777   4.261   0.588
 7328TIP3   OH221940   8.238   6.539   3.767
 7328TIP3    H121941   8.148   6.514   3.746
 7328TIP3    H221942   8.283   6.457   3.786
 7329TIP3   OH221943   5.665   2.837   2.387
 7329TIP3    H121944   5.641   2.904   2.323
 7329TIP3    H221945   5.740   2.875   2.434
 7330TIP3   OH221946   8.202   3.141   5.110
 7330TIP3    H121947   8.281   3.195   5.118
 7330TIP3    H221948   8.132   3.203   5.092
 7331TIP3   OH221949   7.541   3.613   6.649
 7331TIP3    H121950   7.626   3.655   6.658
 7331TIP3    H221951   7.541   3.577   6.560
 7332TIP3   OH221952   4.966   0.305   0.490
 7332TIP3    H121953   4.982   0.309   0.585
 7332TIP3    H221954   4.881   0.347   0.478
 7333TIP3   OH221955   6.700   4.030   3.323
 7333TIP3    H121956   6.726   4.015   3.414
 7333TIP3    H221957   6.773   4.077   3.284
 7334TIP3   OH221958   0.857   1.166   4.566
 7334TIP3    H121959   0.799   1.191   4.494
 7334TIP3    H221960   0.894   1.082   4.537
 7335TIP3   OH221961   5.538   6.083   6.231
 7335TIP3    H121962   5.568   5.996   6.257
 7335TIP3    H221963   5.541   6.134   6.312
 7336TIP3   OH221964   1.735   0.338   1.864
 7336TIP3    H121965   1.684   0.389   1.802
 7336TIP3    H221966   1.670   0.304   1.926
 7337TIP3   OH221967   2.097   3.670   0.674
 7337TIP3    H121968   2.134   3.732   0.737
 7337TIP3    H221969   2.044   3.611   0.728
 7338TIP3   OH221970   8.169   5.238   1.281
 7338TIP3    H121971   8.252   5.279   1.304
 7338TIP3    H221972   8.113   5.252   1.358
 7339TIP3   OH221973   0.774   2.353   5.408
 7339TIP3    H121974   0.785   2.264   5.440
 7339TIP3    H221975   0.843   2.403   5.453
 7340TIP3   OH221976   7.449   4.533   5.931
 7340TIP3    H121977   7.469   4.605   5.991
 7340TIP3    H221978   7.383   4.481   5.978
 7341TIP3   OH221979   0.511   7.230   0.406
 7341TIP3    H121980   0.505   7.177   0.326
 7341TIP3    H221981   0.454   7.186   0.468
 7342TIP3   OH221982   7.465   6.735   1.201
 7342TIP3    H121983   7.558   6.725   1.223
 7342TIP3    H221984   7.460   6.816   1.151
 7343TIP3   OH221985   8.079   0.542   1.641
 7343TIP3    H121986   8.058   0.523   1.550
 7343TIP3    H221987   8.001   0.516   1.690
 7344TIP3   OH221988   1.054   2.647   6.209
 7344TIP3    H121989   1.090   2.648   6.120
 7344TIP3    H221990   1.119   2.693   6.262
 7345TIP3   OH221991   6.907   3.711   5.777
 7345TIP3    H121992   6.964   3.755   5.714
 7345TIP3    H221993   6.864   3.782   5.825
 7346TIP3   OH221994   1.681   1.671   0.767
 7346TIP3    H121995   1.698   1.652   0.675
 7346TIP3    H221996   1.634   1.755   0.766
 7347TIP3   OH221997   4.249   5.774   0.769
 7347TIP3    H121998   4.246   5.732   0.855
 7347TIP3    H221999   4.252   5.868   0.789
 7348TIP3   OH222000   3.516   6.473   6.199
 7348TIP3    H122001   3.462   6.492   6.276
 7348TIP3    H222002   3.520   6.556   6.152
 7349TIP3   OH222003   4.202   5.099   4.808
 7349TIP3    H122004   4.109   5.115   4.821
 7349TIP3    H222005   4.208   5.006   4.786
 7350TIP3   OH222006   2.584   4.850   3.325
 7350TIP3    H122007   2.494   4.873   3.303
 7350TIP3    H222008   2.583   4.754   3.332
 7351TIP3   OH222009   7.086   3.251   2.007
 7351TIP3    H122010   7.055   3.262   2.096
 7351TIP3    H222011   7.165   3.197   2.015
 7352TIP3   OH222012   1.344   5.866   2.160
 7352TIP3    H122013   1.390   5.864   2.076
 7352TIP3    H222014   1.412   5.852   2.225
 7353TIP3   OH222015   2.057   7.334   6.130
 7353TIP3    H122016   2.077   7.415   6.178
 7353TIP3    H222017   2.137   7.282   6.135
 7354TIP3   OH222018   7.609   7.222   1.276
 7354TIP3    H122019   7.576   7.278   1.346
 7354TIP3    H222020   7.600   7.275   1.197
 7355TIP3   OH222021   6.247   2.386   2.624
 7355TIP3    H122022   6.324   2.349   2.581
 7355TIP3    H222023   6.178   2.321   2.612
 7356TIP3   OH222024   6.111   0.395   6.248
 7356TIP3    H122025   6.161   0.321   6.282
 7356TIP3    H222026   6.145   0.409   6.159
 7357TIP3   OH222027   4.576   0.372   2.305
 7357TIP3    H122028   4.495   0.381   2.355
 7357TIP3    H222029   4.635   0.326   2.365
 7358TIP3   OH222030   5.175   0.110   1.915
 7358TIP3    H122031   5.247   0.169   1.893
 7358TIP3    H222032   5.218   0.031   1.949
 7359TIP3   OH222033   4.118   5.246   2.859
 7359TIP3    H122034   4.145   5.278   2.773
 7359TIP3    H222035   4.167   5.164   2.871
 7360TIP3   OH222036   2.471   2.426   6.378
 7360TIP3    H122037   2.448   2.386   6.461
 7360TIP3    H222038   2.392   2.418   6.325
 7361TIP3   OH222039   3.553   4.883   1.400
 7361TIP3    H122040   3.607   4.899   1.478
 7361TIP3    H222041   3.464   4.870   1.435
 7362TIP3   OH222042   1.906   4.317   4.120
 7362TIP3    H122043   1.957   4.240   4.097
 7362TIP3    H222044   1.839   4.324   4.052
 7363TIP3   OH222045   2.399   7.039   6.388
 7363TIP3    H122046   2.437   7.103   6.449
 7363TIP3    H222047   2.474   6.989   6.357
 7364TIP3   OH222048   2.795   7.749   1.006
 7364TIP3    H122049   2.795   7.794   1.090
 7364TIP3    H222050   2.876   7.698   1.005
 7365TIP3   OH222051   3.511   7.464   4.070
 7365TIP3    H122052   3.549   7.402   4.131
 7365TIP3    H222053   3.580   7.530   4.056
 7366TIP3   OH222054   4.048   4.195   4.925
 7366TIP3    H122055   4.052   4.250   4.846
 7366TIP3    H222056   3.969   4.143   4.913
 7367TIP3   OH222057   4.821   3.987   2.677
 7367TIP3    H122058   4.840   3.944   2.760
 7367TIP3    H222059   4.741   4.036   2.692
 7368TIP3   OH222060   0.699   1.480   3.634
 7368TIP3    H122061   0.789   1.508   3.619
 7368TIP3    H222062   0.670   1.447   3.549
 7369TIP3   OH222063   0.909   5.489   0.617
 7369TIP3    H122064   0.876   5.568   0.660
 7369TIP3    H222065   0.863   5.417   0.660
 7370TIP3   OH222066   5.883   1.723   6.669
 7370TIP3    H122067   5.840   1.721   6.754
 7370TIP3    H222068   5.976   1.734   6.688
 7371TIP3   OH222069   1.953   0.361   3.086
 7371TIP3    H122070   1.955   0.266   3.072
 7371TIP3    H222071   1.895   0.394   3.018
 7372TIP3   OH222072   2.624   4.625   6.750
 7372TIP3    H122073   2.572   4.701   6.774
 7372TIP3    H222074   2.576   4.551   6.788
 7373TIP3   OH222075   6.582   6.766   4.402
 7373TIP3    H122076   6.669   6.804   4.389
 7373TIP3    H222077   6.595   6.703   4.473
 7374TIP3   OH222078   5.624   2.378   1.045
 7374TIP3    H122079   5.698   2.393   0.986
 7374TIP3    H222080   5.661   2.382   1.133
 7375TIP3   OH222081   1.689   5.699   0.183
 7375TIP3    H122082   1.613   5.684   0.128
 7375TIP3    H222083   1.683   5.633   0.252
 7376TIP3   OH222084   0.055   0.168   4.055
 7376TIP3    H122085   0.031   0.082   4.022
 7376TIP3    H222086   0.093   0.151   4.142
 7377TIP3   OH222087   0.824   2.502   1.116
 7377TIP3    H122088   0.734   2.469   1.113
 7377TIP3    H222089   0.860   2.463   1.196
 7378TIP3   OH222090   4.627   0.970   0.261
 7378TIP3    H122091   4.692   0.996   0.327
 7378TIP3    H222092   4.550   1.023   0.281
 7379TIP3   OH222093   0.124   5.799   4.510
 7379TIP3    H122094   0.073   5.738   4.564
 7379TIP3    H222095   0.193   5.746   4.472
 7380TIP3   OH222096   7.635   3.677   5.682
 7380TIP3    H122097   7.695   3.658   5.754
 7380TIP3    H222098   7.633   3.772   5.677
 7381TIP3   OH222099   4.252   4.016   2.123
 7381TIP3    H122100   4.208   4.096   2.151
 7381TIP3    H222101   4.207   3.946   2.170
 7382TIP3   OH222102   4.932   1.170   4.305
 7382TIP3    H122103   5.027   1.167   4.303
 7382TIP3    H222104   4.905   1.079   4.317
 7383TIP3   OH222105   6.616   0.892   6.003
 7383TIP3    H122106   6.539   0.918   6.054
 7383TIP3    H222107   6.618   0.797   6.010
 7384TIP3   OH222108   7.667   3.961   6.172
 7384TIP3    H122109   7.725   4.030   6.207
 7384TIP3    H222110   7.581   4.002   6.169
 7385TIP3   OH222111   2.419   7.408   5.201
 7385TIP3    H122112   2.357   7.440   5.137
 7385TIP3    H222113   2.366   7.356   5.262
 7386TIP3   OH222114   6.528   2.497   3.720
 7386TIP3    H122115   6.504   2.421   3.667
 7386TIP3    H222116   6.595   2.542   3.669
 7387TIP3   OH222117   6.519   6.642   3.122
 7387TIP3    H122118   6.464   6.617   3.048
 7387TIP3    H222119   6.598   6.587   3.114
 7388TIP3   OH222120   6.774   6.837   4.653
 7388TIP3    H122121   6.783   6.846   4.558
 7388TIP3    H222122   6.708   6.769   4.664
 7389TIP3   OH222123   8.274   4.110   6.739
 7389TIP3    H122124   8.191   4.150   6.764
 7389TIP3    H222125   8.283   4.130   6.646
 7390TIP3   OH222126   2.416   4.121   0.771
 7390TIP3    H122127   2.330   4.156   0.751
 7390TIP3    H222128   2.459   4.190   0.822
 7391TIP3   OH222129   6.466   2.230   6.097
 7391TIP3    H122130   6.383   2.183   6.106
 7391TIP3    H222131   6.441   2.315   6.062
 7392TIP3   OH222132   0.107   0.081   0.229
 7392TIP3    H122133   0.088   0.061   0.320
 7392TIP3    H222134   0.045   0.150   0.205
 7393TIP3   OH222135   6.846   5.359   5.737
 7393TIP3    H122136   6.806   5.401   5.812
 7393TIP3    H222137   6.876   5.432   5.682
 7394TIP3   OH222138   7.697   4.917   6.709
 7394TIP3    H122139   7.724   4.980   6.642
 7394TIP3    H222140   7.750   4.939   6.785
 7395TIP3   OH222141   5.113   1.220   4.610
 7395TIP3    H122142   5.051   1.148   4.595
 7395TIP3    H222143   5.080   1.263   4.689
 7396TIP3   OH222144   5.749   1.806   2.460
 7396TIP3    H122145   5.668   1.806   2.409
 7396TIP3    H222146   5.723   1.775   2.546
 7397TIP3   OH222147   6.443   7.245   6.679
 7397TIP3    H122148   6.365   7.239   6.624
 7397TIP3    H222149   6.436   7.170   6.738
 7398TIP3   OH222150   0.262   2.047   5.243
 7398TIP3    H122151   0.174   2.081   5.227
 7398TIP3    H222152   0.318   2.098   5.184
 7399TIP3   OH222153   3.023   3.655   5.446
 7399TIP3    H122154   2.994   3.716   5.513
 7399TIP3    H222155   2.968   3.674   5.370
 7400TIP3   OH222156   1.681   0.507   4.120
 7400TIP3    H122157   1.607   0.502   4.181
 7400TIP3    H222158   1.758   0.499   4.176
 7401TIP3   OH222159   5.869   2.502   5.418
 7401TIP3    H122160   5.929   2.520   5.490
 7401TIP3    H222161   5.898   2.418   5.383
 7402TIP3   OH222162   4.161   4.978   4.176
 7402TIP3    H122163   4.244   4.998   4.134
 7402TIP3    H222164   4.182   4.911   4.241
 7403TIP3   OH222165   1.976   0.500   4.703
 7403TIP3    H122166   2.070   0.497   4.688
 7403TIP3    H222167   1.967   0.518   4.796
 7404TIP3   OH222168   2.771   1.951   1.870
 7404TIP3    H122169   2.769   2.009   1.793
 7404TIP3    H222170   2.860   1.958   1.903
 7405TIP3   OH222171   1.241   3.940   5.395
 7405TIP3    H122172   1.289   3.858   5.407
 7405TIP3    H222173   1.295   3.990   5.335
 7406TIP3   OH222174   1.938   7.483   0.523
 7406TIP3    H122175   1.868   7.445   0.576
 7406TIP3    H222176   1.895   7.507   0.441
 7407TIP3   OH222177   2.468   1.691   4.358
 7407TIP3    H122178   2.395   1.658   4.410
 7407TIP3    H222179   2.447   1.665   4.268
 7408TIP3   OH222180   7.793   1.993   2.411
 7408TIP3    H122181   7.861   2.059   2.399
 7408TIP3    H222182   7.730   2.032   2.471
 7409TIP3   OH222183   7.529   7.110   1.915
 7409TIP3    H122184   7.505   7.019   1.899
 7409TIP3    H222185   7.616   7.119   1.878
 7410TIP3   OH222186   3.859   2.838   0.329
 7410TIP3    H122187   3.849   2.824   0.423
 7410TIP3    H222188   3.776   2.877   0.302
 7411TIP3   OH222189   0.765   2.540   4.685
 7411TIP3    H122190   0.749   2.510   4.774
 7411TIP3    H222191   0.847   2.589   4.691
 7412TIP3   OH222192   1.764   2.533   5.033
 7412TIP3    H122193   1.749   2.571   5.119
 7412TIP3    H222194   1.831   2.467   5.047
 7413TIP3   OH222195   1.401   5.279   1.443
 7413TIP3    H122196   1.464   5.298   1.512
 7413TIP3    H222197   1.404   5.356   1.386
 7414TIP3   OH222198   0.775   3.564   1.671
 7414TIP3    H122199   0.711   3.503   1.708
 7414TIP3    H222200   0.794   3.626   1.742
 7415TIP3   OH222201   0.289   5.336   3.238
 7415TIP3    H122202   0.248   5.358   3.154
 7415TIP3    H222203   0.224   5.282   3.283
 7416TIP3   OH222204   5.238   2.225   2.088
 7416TIP3    H122205   5.250   2.272   2.170
 7416TIP3    H222206   5.326   2.204   2.058
 7417TIP3   OH222207   7.231   4.770   1.822
 7417TIP3    H122208   7.245   4.792   1.730
 7417TIP3    H222209   7.286   4.832   1.870
 7418TIP3   OH222210   0.579   1.780   0.256
 7418TIP3    H122211   0.663   1.825   0.249
 7418TIP3    H222212   0.552   1.762   0.166
 7419TIP3   OH222213   7.589   1.027   6.144
 7419TIP3    H122214   7.550   1.111   6.121
 7419TIP3    H222215   7.667   1.049   6.193
 7420TIP3   OH222216   4.727   0.699   0.632
 7420TIP3    H122217   4.649   0.679   0.683
 7420TIP3    H222218   4.702   0.685   0.541
 7421TIP3   OH222219   7.984   3.993   0.674
 7421TIP3    H122220   7.920   3.966   0.739
 7421TIP3    H222221   8.069   3.970   0.712
 7422TIP3   OH222222   0.290   0.242   4.851
 7422TIP3    H122223   0.229   0.278   4.915
 7422TIP3    H222224   0.318   0.158   4.889
 7423TIP3   OH222225   3.649   3.259   4.006
 7423TIP3    H122226   3.561   3.262   3.970
 7423TIP3    H222227   3.699   3.320   3.951
 7424TIP3   OH222228   1.047   0.325   1.864
 7424TIP3    H122229   1.004   0.311   1.948
 7424TIP3    H222230   1.008   0.406   1.830
 7425TIP3   OH222231   6.134   7.555   2.813
 7425TIP3    H122232   6.072   7.533   2.743
 7425TIP3    H222233   6.117   7.647   2.832
 7426TIP3   OH222234   2.614   2.528   0.565
 7426TIP3    H122235   2.630   2.435   0.547
 7426TIP3    H222236   2.535   2.549   0.514
 7427TIP3   OH222237   6.059   7.410   1.313
 7427TIP3    H122238   6.007   7.393   1.391
 7427TIP3    H222239   6.021   7.354   1.246
 7428TIP3   OH222240   7.232   6.649   1.729
 7428TIP3    H122241   7.186   6.649   1.645
 7428TIP3    H222242   7.301   6.585   1.718
 7429TIP3   OH222243   3.982   1.857   4.698
 7429TIP3    H122244   4.028   1.938   4.719
 7429TIP3    H222245   3.904   1.858   4.754
 7430TIP3   OH222246   2.045   3.826   1.595
 7430TIP3    H122247   2.125   3.826   1.648
 7430TIP3    H222248   2.032   3.918   1.571
 7431TIP3   OH222249   3.225   1.227   6.181
 7431TIP3    H122250   3.261   1.311   6.151
 7431TIP3    H222251   3.281   1.202   6.255
 7432TIP3   OH222252   6.447   1.766   3.052
 7432TIP3    H122253   6.430   1.686   3.102
 7432TIP3    H222254   6.459   1.834   3.119
 7433TIP3   OH222255   7.706   1.775   1.839
 7433TIP3    H122256   7.746   1.722   1.908
 7433TIP3    H222257   7.765   1.850   1.829
 7434TIP3   OH222258   0.155   0.492   0.591
 7434TIP3    H122259   0.063   0.517   0.584
 7434TIP3    H222260   0.181   0.468   0.501
 7435TIP3   OH222261   6.412   2.390   0.948
 7435TIP3    H122262   6.473   2.336   0.998
 7435TIP3    H222263   6.447   2.479   0.957
 7436TIP3   OH222264   2.143   5.804   2.587
 7436TIP3    H122265   2.059   5.847   2.599
 7436TIP3    H222266   2.189   5.857   2.522
 7437TIP3   OH222267   2.264   2.644   5.934
 7437TIP3    H122268   2.204   2.718   5.940
 7437TIP3    H222269   2.349   2.679   5.959
 7438TIP3   OH222270   0.675   4.211   1.214
 7438TIP3    H122271   0.771   4.214   1.221
 7438TIP3    H222272   0.658   4.141   1.152
 7439TIP3   OH222273   5.867   4.546   5.823
 7439TIP3    H122274   5.920   4.560   5.745
 7439TIP3    H222275   5.930   4.536   5.894
 7440TIP3   OH222276   0.422   0.438   3.491
 7440TIP3    H122277   0.461   0.480   3.567
 7440TIP3    H222278   0.327   0.446   3.505
 7441TIP3   OH222279   0.033   6.315   2.988
 7441TIP3    H122280  -0.037   6.251   2.981
 7441TIP3    H222281   0.054   6.317   3.081
 7442TIP3   OH222282   6.113   5.392   4.327
 7442TIP3    H122283   6.044   5.379   4.262
 7442TIP3    H222284   6.136   5.484   4.320
 7443TIP3   OH222285   3.550   7.367   6.696
 7443TIP3    H122286   3.631   7.378   6.646
 7443TIP3    H222287   3.573   7.304   6.765
 7444TIP3   OH222288   3.656   6.079   3.951
 7444TIP3    H122289   3.710   6.050   3.877
 7444TIP3    H222290   3.718   6.124   4.008
 7445TIP3   OH222291   0.679   1.687   2.455
 7445TIP3    H122292   0.655   1.739   2.532
 7445TIP3    H222293   0.774   1.677   2.462
 7446TIP3   OH222294   1.601   2.358   2.798
 7446TIP3    H122295   1.583   2.290   2.734
 7446TIP3    H222296   1.555   2.330   2.877
 7447TIP3   OH222297   5.067   3.830   6.695
 7447TIP3    H122298   5.068   3.833   6.791
 7447TIP3    H222299   5.022   3.748   6.674
 7448TIP3   OH222300   5.452   3.634   0.206
 7448TIP3    H122301   5.463   3.560   0.146
 7448TIP3    H222302   5.508   3.612   0.281
 7449TIP3   OH222303   3.120   7.166   3.493
 7449TIP3    H122304   3.212   7.167   3.467
 7449TIP3    H222305   3.098   7.074   3.500
 7450TIP3   OH222306   1.798   4.091   6.716
 7450TIP3    H122307   1.843   4.111   6.798
 7450TIP3    H222308   1.846   4.017   6.679
 7451TIP3   OH222309   0.684   0.767   1.552
 7451TIP3    H122310   0.665   0.735   1.640
 7451TIP3    H222311   0.735   0.697   1.512
 7452TIP3   OH222312   0.045   1.435   4.753
 7452TIP3    H122313   0.038   1.344   4.782
 7452TIP3    H222314   0.000   1.485   4.821
 7453TIP3   OH222315   3.618   1.007   3.313
 7453TIP3    H122316   3.667   1.083   3.284
 7453TIP3    H222317   3.679   0.933   3.305
 7454TIP3   OH222318   6.259   0.338   5.422
 7454TIP3    H122319   6.265   0.266   5.484
 7454TIP3    H222320   6.271   0.297   5.336
 7455TIP3   OH222321   2.013   0.109   1.034
 7455TIP3    H122322   2.082   0.141   1.092
 7455TIP3    H222323   1.943   0.174   1.041
 7456TIP3   OH222324   3.874   5.412   5.646
 7456TIP3    H122325   3.859   5.501   5.614
 7456TIP3    H222326   3.828   5.356   5.583
 7457TIP3   OH222327   4.486   3.714   4.701
 7457TIP3    H122328   4.468   3.622   4.721
 7457TIP3    H222329   4.413   3.740   4.645
 7458TIP3   OH222330   2.524   5.247   1.186
 7458TIP3    H122331   2.578   5.316   1.226
 7458TIP3    H222332   2.585   5.174   1.174
 7459TIP3   OH222333   1.198   0.499   1.670
 7459TIP3    H122334   1.110   0.488   1.633
 7459TIP3    H222335   1.187   0.566   1.737
 7460TIP3   OH222336   4.858   6.046   5.197
 7460TIP3    H122337   4.841   6.069   5.106
 7460TIP3    H222338   4.953   6.041   5.203
 7461TIP3   OH222339   2.429   7.472   4.251
 7461TIP3    H122340   2.397   7.529   4.181
 7461TIP3    H222341   2.515   7.508   4.273
 7462TIP3   OH222342   1.322   1.477   1.462
 7462TIP3    H122343   1.301   1.458   1.554
 7462TIP3    H222344   1.332   1.572   1.459
 7463TIP3   OH222345   6.878   7.557   0.505
 7463TIP3    H122346   6.838   7.502   0.573
 7463TIP3    H222347   6.909   7.494   0.440
 7464TIP3   OH222348   2.892   1.920   4.563
 7464TIP3    H122349   2.850   2.004   4.577
 7464TIP3    H222350   2.895   1.879   4.649
 7465TIP3   OH222351   1.836   4.888   1.916
 7465TIP3    H122352   1.843   4.932   1.831
 7465TIP3    H222353   1.793   4.952   1.972
 7466TIP3   OH222354   4.089   1.177   1.159
 7466TIP3    H122355   4.119   1.087   1.170
 7466TIP3    H222356   4.065   1.183   1.067
 7467TIP3   OH222357   6.662   3.368   0.386
 7467TIP3    H122358   6.722   3.352   0.459
 7467TIP3    H222359   6.619   3.451   0.407
 7468TIP3   OH222360   7.055   5.584   5.886
 7468TIP3    H122361   6.975   5.537   5.907
 7468TIP3    H222362   7.125   5.523   5.908
 7469TIP3   OH222363   7.502   2.166   3.317
 7469TIP3    H122364   7.484   2.118   3.397
 7469TIP3    H222365   7.597   2.159   3.305
 7470TIP3   OH222366   4.750   1.353   3.684
 7470TIP3    H122367   4.820   1.408   3.649
 7470TIP3    H222368   4.747   1.375   3.777
 7471TIP3   OH222369   4.294   3.057   6.458
 7471TIP3    H122370   4.313   3.073   6.550
 7471TIP3    H222371   4.323   2.967   6.443
 7472TIP3   OH222372   5.802   0.596   0.412
 7472TIP3    H122373   5.708   0.616   0.413
 7472TIP3    H222374   5.830   0.610   0.502
 7473TIP3   OH222375   6.261   0.088   3.683
 7473TIP3    H122376   6.266   0.138   3.602
 7473TIP3    H222377   6.207   0.012   3.662
 7474TIP3   OH222378   0.528   6.997   1.123
 7474TIP3    H122379   0.480   6.915   1.136
 7474TIP3    H222380   0.539   7.032   1.211
 7475TIP3   OH222381   1.100   6.546   1.558
 7475TIP3    H122382   1.036   6.593   1.612
 7475TIP3    H222383   1.047   6.493   1.498
 7476TIP3   OH222384   1.396   2.133   6.336
 7476TIP3    H122385   1.342   2.212   6.334
 7476TIP3    H222386   1.338   2.065   6.373
 7477TIP3   OH222387   8.156   1.448   3.891
 7477TIP3    H122388   8.221   1.505   3.849
 7477TIP3    H222389   8.143   1.377   3.828
 7478TIP3   OH222390   6.368   6.547   1.795
 7478TIP3    H122391   6.325   6.591   1.868
 7478TIP3    H222392   6.349   6.454   1.808
 7479TIP3   OH222393   1.100   6.579   4.014
 7479TIP3    H122394   1.031   6.597   3.950
 7479TIP3    H222395   1.056   6.580   4.099
 7480TIP3   OH222396   7.538   7.106   0.925
 7480TIP3    H122397   7.505   7.059   0.849
 7480TIP3    H222398   7.607   7.163   0.891
 7481TIP3   OH222399   5.039   7.257   2.858
 7481TIP3    H122400   5.056   7.343   2.897
 7481TIP3    H222401   4.946   7.259   2.835
 7482TIP3   OH222402   4.351   0.111   0.625
 7482TIP3    H122403   4.400   0.083   0.702
 7482TIP3    H222404   4.293   0.038   0.605
 7483TIP3   OH222405   4.364   1.411   4.995
 7483TIP3    H122406   4.433   1.345   5.005
 7483TIP3    H222407   4.314   1.382   4.918
 7484TIP3   OH222408   7.156   4.174   0.911
 7484TIP3    H122409   7.189   4.143   0.827
 7484TIP3    H222410   7.227   4.155   0.973
 7485TIP3   OH222411   6.033   0.287   2.404
 7485TIP3    H122412   6.045   0.269   2.311
 7485TIP3    H222413   6.119   0.316   2.434
 7486TIP3   OH222414   6.209   6.656   0.383
 7486TIP3    H122415   6.268   6.707   0.327
 7486TIP3    H222416   6.230   6.564   0.362
 7487TIP3   OH222417   2.628   4.516   2.143
 7487TIP3    H122418   2.576   4.589   2.176
 7487TIP3    H222419   2.564   4.456   2.104
 7488TIP3   OH222420   7.176   3.229   2.876
 7488TIP3    H122421   7.150   3.315   2.910
 7488TIP3    H222422   7.192   3.176   2.954
 7489TIP3   OH222423   2.960   1.554   2.768
 7489TIP3    H122424   2.870   1.525   2.754
 7489TIP3    H222425   3.011   1.504   2.705
 7490TIP3   OH222426   4.005   2.498   4.203
 7490TIP3    H122427   4.095   2.466   4.193
 7490TIP3    H222428   3.974   2.457   4.283
 7491TIP3   OH222429   3.023   3.936   4.945
 7491TIP3    H122430   3.093   3.911   4.885
 7491TIP3    H222431   3.011   3.859   5.001
 7492TIP3   OH222432   3.704   4.269   1.173
 7492TIP3    H122433   3.615   4.304   1.184
 7492TIP3    H222434   3.732   4.302   1.088
 7493TIP3   OH222435   5.781   4.000   1.636
 7493TIP3    H122436   5.807   4.087   1.605
 7493TIP3    H222437   5.862   3.949   1.635
 7494TIP3   OH222438   4.863   7.695   1.254
 7494TIP3    H122439   4.804   7.694   1.329
 7494TIP3    H222440   4.939   7.745   1.284
 7495TIP3   OH222441   1.025   5.232   5.049
 7495TIP3    H122442   0.944   5.273   5.020
 7495TIP3    H222443   1.054   5.285   5.123
 7496TIP3   OH222444   0.878   6.933   0.564
 7496TIP3    H122445   0.858   6.941   0.657
 7496TIP3    H222446   0.803   6.886   0.528
 7497TIP3   OH222447   0.936   7.384   1.614
 7497TIP3    H122448   0.957   7.463   1.565
 7497TIP3    H222449   1.021   7.341   1.628
 7498TIP3   OH222450   8.150   2.070   6.241
 7498TIP3    H122451   8.118   2.048   6.154
 7498TIP3    H222452   8.213   2.141   6.227
 7499TIP3   OH222453   2.994   6.092   4.184
 7499TIP3    H122454   2.923   6.122   4.240
 7499TIP3    H222455   3.052   6.043   4.242
 7500TIP3   OH222456   2.101   2.085   5.407
 7500TIP3    H122457   2.029   2.145   5.390
 7500TIP3    H222458   2.109   2.034   5.326
 7501TIP3   OH222459   1.624   2.784   0.035
 7501TIP3    H122460   1.635   2.786  -0.060
 7501TIP3    H222461   1.714   2.790   0.069
 7502TIP3   OH222462   1.506   2.779   2.016
 7502TIP3    H122463   1.500   2.698   1.965
 7502TIP3    H222464   1.591   2.816   1.993
 7503TIP3   OH222465   6.351   5.567   5.261
 7503TIP3    H122466   6.287   5.501   5.236
 7503TIP3    H222467   6.436   5.531   5.233
 7504TIP3   OH222468   1.471   6.361   6.344
 7504TIP3    H122469   1.518   6.326   6.420
 7504TIP3    H222470   1.527   6.431   6.311
 7505TIP3   OH222471   3.828   6.188   2.247
 7505TIP3    H122472   3.903   6.129   2.255
 7505TIP3    H222473   3.752   6.130   2.246
 7506TIP3   OH222474   3.168   3.255   2.616
 7506TIP3    H122475   3.220   3.319   2.665
 7506TIP3    H222476   3.135   3.302   2.540
 7507TIP3   OH222477   7.094   2.202   3.410
 7507TIP3    H122478   7.141   2.284   3.423
 7507TIP3    H222479   7.009   2.217   3.452
 7508TIP3   OH222480   8.062   3.796   4.650
 7508TIP3    H122481   7.985   3.847   4.624
 7508TIP3    H222482   8.081   3.742   4.573
 7509TIP3   OH222483   2.739   4.246   4.775
 7509TIP3    H122484   2.797   4.195   4.718
 7509TIP3    H222485   2.798   4.296   4.831
 7510TIP3   OH222486   7.943   5.385   6.020
 7510TIP3    H122487   7.950   5.329   5.943
 7510TIP3    H222488   7.937   5.474   5.985
 7511TIP3   OH222489   2.410   2.736   1.397
 7511TIP3    H122490   2.417   2.752   1.491
 7511TIP3    H222491   2.369   2.649   1.391
 7512TIP3   OH222492   2.834   1.724   5.873
 7512TIP3    H122493   2.845   1.629   5.866
 7512TIP3    H222494   2.911   1.760   5.830
 7513TIP3   OH222495   4.643   2.836   4.977
 7513TIP3    H122496   4.732   2.802   4.966
 7513TIP3    H222497   4.652   2.905   5.043
 7514TIP3   OH222498   1.370   4.463   1.278
 7514TIP3    H122499   1.445   4.519   1.258
 7514TIP3    H222500   1.365   4.402   1.204
 7515TIP3   OH222501   4.235   7.687   5.774
 7515TIP3    H122502   4.296   7.730   5.715
 7515TIP3    H222503   4.186   7.759   5.815
 7516TIP3   OH222504   0.478   6.535   3.049
 7516TIP3    H122505   0.561   6.567   3.014
 7516TIP3    H222506   0.472   6.575   3.136
 7517TIP3   OH222507   4.109   6.409   1.291
 7517TIP3    H122508   4.156   6.487   1.319
 7517TIP3    H222509   4.054   6.385   1.365
 7518TIP3   OH222510   0.895   3.636   3.504
 7518TIP3    H122511   0.878   3.570   3.571
 7518TIP3    H222512   0.826   3.702   3.516
 7519TIP3   OH222513   7.592   5.017   5.195
 7519TIP3    H122514   7.499   5.029   5.213
 7519TIP3    H222515   7.633   5.020   5.282
 7520TIP3   OH222516   4.177   4.725   5.703
 7520TIP3    H122517   4.169   4.748   5.796
 7520TIP3    H222518   4.129   4.794   5.657
 7521TIP3   OH222519   4.247   5.341   2.628
 7521TIP3    H122520   4.206   5.427   2.632
 7521TIP3    H222521   4.270   5.329   2.536
 7522TIP3   OH222522   0.328   2.960   4.544
 7522TIP3    H122523   0.303   2.910   4.466
 7522TIP3    H222524   0.278   2.921   4.615
 7523TIP3   OH222525   6.716   4.123   2.167
 7523TIP3    H122526   6.700   4.084   2.082
 7523TIP3    H222527   6.659   4.200   2.170
 7524TIP3   OH222528   3.173   2.659   1.126
 7524TIP3    H122529   3.210   2.647   1.039
 7524TIP3    H222530   3.248   2.686   1.180
 7525TIP3   OH222531   4.612   4.144   2.798
 7525TIP3    H122532   4.556   4.141   2.876
 7525TIP3    H222533   4.551   4.143   2.725
 7526TIP3   OH222534   1.493   1.495   4.087
 7526TIP3    H122535   1.426   1.439   4.126
 7526TIP3    H222536   1.461   1.584   4.102
 7527TIP3   OH222537   4.602   3.518   4.334
 7527TIP3    H122538   4.632   3.437   4.292
 7527TIP3    H222539   4.518   3.495   4.373
 7528TIP3   OH222540   8.147   4.784   5.560
 7528TIP3    H122541   8.234   4.746   5.544
 7528TIP3    H222542   8.165   4.869   5.600
 7529TIP3   OH222543   6.830   1.944   5.978
 7529TIP3    H122544   6.911   1.918   5.934
 7529TIP3    H222545   6.803   1.865   6.025
 7530TIP3   OH222546   4.678   3.853   0.844
 7530TIP3    H122547   4.747   3.898   0.892
 7530TIP3    H222548   4.619   3.819   0.912
 7531TIP3   OH222549   5.177   0.832   5.927
 7531TIP3    H122550   5.232   0.897   5.971
 7531TIP3    H222551   5.206   0.748   5.962
 7532TIP3   OH222552   6.388   7.476   5.955
 7532TIP3    H122553   6.438   7.401   5.921
 7532TIP3    H222554   6.418   7.550   5.903
 7533TIP3   OH222555   7.858   3.550   5.555
 7533TIP3    H122556   7.773   3.571   5.594
 7533TIP3    H222557   7.887   3.632   5.515
 7534TIP3   OH222558   0.954   5.525   3.742
 7534TIP3    H122559   0.969   5.608   3.696
 7534TIP3    H222560   1.015   5.464   3.702
 7535TIP3   OH222561   6.712   6.429   3.142
 7535TIP3    H122562   6.754   6.343   3.137
 7535TIP3    H222563   6.764   6.477   3.206
 7536TIP3   OH222564   3.991   2.362  -0.022
 7536TIP3    H122565   4.085   2.360  -0.006
 7536TIP3    H222566   3.953   2.396   0.059
 7537TIP3   OH222567   2.691   7.688   2.414
 7537TIP3    H122568   2.748   7.662   2.487
 7537TIP3    H222569   2.740   7.663   2.335
 7538TIP3   OH222570   1.433   5.398   5.320
 7538TIP3    H122571   1.465   5.483   5.352
 7538TIP3    H222572   1.498   5.372   5.255
 7539TIP3   OH222573   7.693   2.148   1.134
 7539TIP3    H122574   7.714   2.156   1.227
 7539TIP3    H222575   7.733   2.065   1.108
 7540TIP3   OH222576   3.529   5.138   1.599
 7540TIP3    H122577   3.439   5.160   1.576
 7540TIP3    H222578   3.583   5.185   1.536
 7541TIP3   OH222579   4.366   1.371   2.144
 7541TIP3    H122580   4.377   1.289   2.096
 7541TIP3    H222581   4.434   1.429   2.109
 7542TIP3   OH222582   3.969   3.126   1.380
 7542TIP3    H122583   3.901   3.192   1.393
 7542TIP3    H222584   4.050   3.176   1.370
 7543TIP3   OH222585   3.744   3.437   3.800
 7543TIP3    H122586   3.685   3.492   3.749
 7543TIP3    H222587   3.827   3.442   3.754
 7544TIP3   OH222588   5.207   4.897   5.272
 7544TIP3    H122589   5.276   4.904   5.206
 7544TIP3    H222590   5.148   4.970   5.253
 7545TIP3   OH222591   3.406   3.603   3.158
 7545TIP3    H122592   3.349   3.669   3.118
 7545TIP3    H222593   3.491   3.647   3.167
 7546TIP3   OH222594   2.561   6.695   1.513
 7546TIP3    H122595   2.594   6.606   1.498
 7546TIP3    H222596   2.466   6.686   1.514
 7547TIP3   OH222597   0.114   1.440   2.960
 7547TIP3    H122598   0.077   1.431   3.047
 7547TIP3    H222599   0.122   1.350   2.928
 7548TIP3   OH222600   6.416   3.371   0.610
 7548TIP3    H122601   6.429   3.329   0.695
 7548TIP3    H222602   6.326   3.348   0.585
 7549TIP3   OH222603   0.198   4.159   5.640
 7549TIP3    H122604   0.283   4.114   5.633
 7549TIP3    H222605   0.205   4.212   5.719
 7550TIP3   OH222606   4.775   0.806   5.794
 7550TIP3    H122607   4.802   0.770   5.879
 7550TIP3    H222608   4.853   0.800   5.740
 7551TIP3   OH222609   0.264   2.253   4.102
 7551TIP3    H122610   0.225   2.340   4.100
 7551TIP3    H222611   0.347   2.265   4.147
 7552TIP3   OH222612   3.276   5.275   2.307
 7552TIP3    H122613   3.293   5.345   2.370
 7552TIP3    H222614   3.181   5.268   2.305
 7553TIP3   OH222615   1.928   4.922   5.952
 7553TIP3    H122616   1.917   4.835   5.991
 7553TIP3    H222617   1.852   4.932   5.894
 7554TIP3   OH222618   3.200   0.894   5.525
 7554TIP3    H122619   3.116   0.857   5.499
 7554TIP3    H222620   3.202   0.980   5.483
 7555TIP3   OH222621   3.935   0.576   0.972
 7555TIP3    H122622   3.967   0.493   1.008
 7555TIP3    H222623   3.862   0.552   0.916
 7556TIP3   OH222624   3.195   4.869   3.998
 7556TIP3    H122625   3.185   4.879   3.904
 7556TIP3    H222626   3.214   4.958   4.030
 7557TIP3   OH222627   2.014   2.389   2.484
 7557TIP3    H122628   2.083   2.323   2.485
 7557TIP3    H222629   2.008   2.419   2.574
 7558TIP3   OH222630   4.870   2.798   3.739
 7558TIP3    H122631   4.843   2.707   3.727
 7558TIP3    H222632   4.926   2.816   3.664
 7559TIP3   OH222633   4.669   3.515   3.527
 7559TIP3    H122634   4.725   3.501   3.452
 7559TIP3    H222635   4.616   3.435   3.533
 7560TIP3   OH222636   5.688   2.752   4.255
 7560TIP3    H122637   5.702   2.729   4.346
 7560TIP3    H222638   5.660   2.843   4.256
 7561TIP3   OH222639   3.836   3.780   4.947
 7561TIP3    H122640   3.843   3.687   4.924
 7561TIP3    H222641   3.795   3.780   5.033
 7562TIP3   OH222642   1.386   5.646   5.818
 7562TIP3    H122643   1.454   5.609   5.875
 7562TIP3    H222644   1.391   5.594   5.738
 7563TIP3   OH222645   6.076   4.091   4.516
 7563TIP3    H122646   6.073   4.109   4.422
 7563TIP3    H222647   5.994   4.127   4.550
 7564TIP3   OH222648   1.024   2.513   1.905
 7564TIP3    H122649   1.096   2.568   1.875
 7564TIP3    H222650   1.064   2.427   1.919
 7565TIP3   OH222651   4.525   3.067   5.654
 7565TIP3    H122652   4.435   3.090   5.631
 7565TIP3    H222653   4.568   3.051   5.570
 7566TIP3   OH222654   7.601   0.693   6.065
 7566TIP3    H122655   7.635   0.604   6.055
 7566TIP3    H222656   7.526   0.696   6.006
 7567TIP3   OH222657   7.976   0.463   3.740
 7567TIP3    H122658   7.989   0.496   3.650
 7567TIP3    H222659   8.035   0.517   3.793
 7568TIP3   OH222660   5.834   3.101   0.280
 7568TIP3    H122661   5.765   3.038   0.303
 7568TIP3    H222662   5.812   3.130   0.192
 7569TIP3   OH222663   7.312   3.941   3.823
 7569TIP3    H122664   7.336   3.866   3.769
 7569TIP3    H222665   7.394   3.988   3.837
 7570TIP3   OH222666   7.385   3.775   0.436
 7570TIP3    H122667   7.369   3.682   0.451
 7570TIP3    H222668   7.302   3.818   0.456
 7571TIP3   OH222669   4.237   5.000   3.334
 7571TIP3    H122670   4.164   5.032   3.281
 7571TIP3    H222671   4.312   5.053   3.306
 7572TIP3   OH222672   7.514   5.775   1.392
 7572TIP3    H122673   7.564   5.707   1.439
 7572TIP3    H222674   7.539   5.764   1.300
 7573TIP3   OH222675   5.756   5.858   2.985
 7573TIP3    H122676   5.748   5.764   2.969
 7573TIP3    H222677   5.808   5.890   2.911
 7574TIP3   OH222678   7.708   4.624   0.749
 7574TIP3    H122679   7.738   4.702   0.703
 7574TIP3    H222680   7.720   4.645   0.842
 7575TIP3   OH222681   7.710   5.198   0.291
 7575TIP3    H122682   7.695   5.113   0.331
 7575TIP3    H222683   7.787   5.233   0.335
 7576TIP3   OH222684   4.553   5.831   4.614
 7576TIP3    H122685   4.587   5.813   4.701
 7576TIP3    H222686   4.594   5.914   4.590
 7577TIP3   OH222687   6.615   7.088   6.472
 7577TIP3    H122688   6.673   7.043   6.410
 7577TIP3    H222689   6.557   7.019   6.505
 7578TIP3   OH222690   7.024   6.864   2.802
 7578TIP3    H122691   7.042   6.797   2.735
 7578TIP3    H222692   7.002   6.942   2.752
 7579TIP3   OH222693   7.048   7.199   5.627
 7579TIP3    H122694   7.063   7.251   5.548
 7579TIP3    H222695   7.074   7.257   5.699
 7580TIP3   OH222696   2.774   1.745   1.650
 7580TIP3    H122697   2.848   1.685   1.644
 7580TIP3    H222698   2.796   1.802   1.724
 7581TIP3   OH222699   4.802   3.432   3.302
 7581TIP3    H122700   4.873   3.373   3.325
 7581TIP3    H222701   4.735   3.376   3.263
 7582TIP3   OH222702   7.360   5.559   1.668
 7582TIP3    H122703   7.297   5.577   1.598
 7582TIP3    H222704   7.435   5.519   1.624
 7583TIP3   OH222705   3.563   5.209   3.242
 7583TIP3    H122706   3.619   5.134   3.223
 7583TIP3    H222707   3.623   5.278   3.270
 7584TIP3   OH222708   0.351   6.463   0.320
 7584TIP3    H122709   0.369   6.527   0.389
 7584TIP3    H222710   0.367   6.378   0.362
 7585TIP3   OH222711   5.607   3.455   2.139
 7585TIP3    H122712   5.631   3.542   2.105
 7585TIP3    H222713   5.619   3.462   2.233
 7586TIP3   OH222714   2.146   6.184   3.577
 7586TIP3    H122715   2.231   6.206   3.616
 7586TIP3    H222716   2.134   6.251   3.509
 7587TIP3   OH222717   5.726   0.400   4.720
 7587TIP3    H122718   5.794   0.424   4.657
 7587TIP3    H222719   5.700   0.483   4.760
 7588TIP3   OH222720   4.360   1.224   3.516
 7588TIP3    H122721   4.454   1.210   3.517
 7588TIP3    H222722   4.350   1.319   3.521
 7589TIP3   OH222723   2.417   2.645   4.894
 7589TIP3    H122724   2.480   2.577   4.871
 7589TIP3    H222725   2.332   2.603   4.885
 7590TIP3   OH222726   5.646   2.347   5.859
 7590TIP3    H122727   5.742   2.343   5.861
 7590TIP3    H222728   5.619   2.258   5.835
 7591TIP3   OH222729   5.509   6.666   4.905
 7591TIP3    H122730   5.506   6.741   4.963
 7591TIP3    H222731   5.584   6.682   4.848
 7592TIP3   OH222732   2.687   5.503   6.087
 7592TIP3    H122733   2.755   5.551   6.040
 7592TIP3    H222734   2.715   5.411   6.083
 7593TIP3   OH222735   4.953   1.680   0.682
 7593TIP3    H122736   4.996   1.614   0.628
 7593TIP3    H222737   5.009   1.689   0.759
 7594TIP3   OH222738   1.135   4.806   4.134
 7594TIP3    H122739   1.215   4.828   4.085
 7594TIP3    H222740   1.068   4.862   4.095
 7595TIP3   OH222741   2.069   6.921   0.458
 7595TIP3    H122742   2.096   7.013   0.460
 7595TIP3    H222743   2.043   6.902   0.548
 7596TIP3   OH222744   5.144   0.225   2.166
 7596TIP3    H122745   5.144   0.162   2.094
 7596TIP3    H222746   5.111   0.176   2.241
 7597TIP3   OH222747   4.955   7.666   6.312
 7597TIP3    H122748   5.038   7.632   6.280
 7597TIP3    H222749   4.904   7.683   6.233
 7598TIP3   OH222750   4.694   5.786   4.863
 7598TIP3    H122751   4.773   5.793   4.917
 7598TIP3    H222752   4.631   5.740   4.919
 7599TIP3   OH222753   8.300   4.064   5.045
 7599TIP3    H122754   8.303   4.148   4.998
 7599TIP3    H222755   8.226   4.018   5.006
 7600TIP3   OH222756   6.271   4.128   3.167
 7600TIP3    H122757   6.218   4.187   3.113
 7600TIP3    H222758   6.357   4.169   3.170
 7601TIP3   OH222759   7.661   1.152   3.642
 7601TIP3    H122760   7.673   1.106   3.725
 7601TIP3    H222761   7.608   1.091   3.589
 7602TIP3   OH222762   6.866   6.410   6.451
 7602TIP3    H122763   6.917   6.330   6.459
 7602TIP3    H222764   6.776   6.384   6.468
 7603TIP3   OH222765   3.098   3.765   2.968
 7603TIP3    H122766   3.038   3.802   2.904
 7603TIP3    H222767   3.087   3.670   2.961
 7604TIP3   OH222768   5.974   3.731   3.537
 7604TIP3    H122769   5.972   3.657   3.477
 7604TIP3    H222770   5.933   3.803   3.489
 7605TIP3   OH222771   3.261   3.211   3.456
 7605TIP3    H122772   3.263   3.265   3.377
 7605TIP3    H222773   3.193   3.145   3.438
 7606TIP3   OH222774   8.122   3.670   5.369
 7606TIP3    H122775   8.117   3.718   5.452
 7606TIP3    H222776   8.123   3.737   5.302
 7607TIP3   OH222777   5.895   1.864   1.156
 7607TIP3    H122778   5.974   1.918   1.148
 7607TIP3    H222779   5.842   1.910   1.221
 7608TIP3   OH222780   7.361   6.152   0.886
 7608TIP3    H122781   7.273   6.135   0.854
 7608TIP3    H222782   7.417   6.092   0.837
 7609TIP3   OH222783   7.496   3.920   4.601
 7609TIP3    H122784   7.484   4.012   4.621
 7609TIP3    H222785   7.417   3.877   4.636
 7610TIP3   OH222786   5.374   3.584   3.368
 7610TIP3    H122787   5.450   3.567   3.312
 7610TIP3    H222788   5.348   3.498   3.399
 7611TIP3   OH222789   6.596   2.951   2.279
 7611TIP3    H122790   6.524   2.977   2.223
 7611TIP3    H222791   6.593   3.012   2.353
 7612TIP3   OH222792   5.530   5.928   0.446
 7612TIP3    H122793   5.602   5.967   0.496
 7612TIP3    H222794   5.478   6.002   0.417
 7613TIP3   OH222795   2.298   4.438   5.674
 7613TIP3    H122796   2.267   4.393   5.595
 7613TIP3    H222797   2.272   4.529   5.661
 7614TIP3   OH222798   1.477   0.639   6.382
 7614TIP3    H122799   1.447   0.618   6.293
 7614TIP3    H222800   1.468   0.734   6.388
 7615TIP3   OH222801   3.732   3.547   1.376
 7615TIP3    H122802   3.814   3.507   1.348
 7615TIP3    H222803   3.753   3.587   1.460
 7616TIP3   OH222804   7.604   6.613   6.375
 7616TIP3    H122805   7.584   6.707   6.370
 7616TIP3    H222806   7.675   6.601   6.312
 7617TIP3   OH222807   6.462   6.539   6.503
 7617TIP3    H122808   6.516   6.461   6.512
 7617TIP3    H222809   6.459   6.556   6.409
 7618TIP3   OH222810   6.646   1.187   2.330
 7618TIP3    H122811   6.737   1.186   2.300
 7618TIP3    H222812   6.646   1.128   2.406
 7619TIP3   OH222813   1.120   0.723   2.929
 7619TIP3    H122814   1.191   0.675   2.971
 7619TIP3    H222815   1.045   0.663   2.932
 7620TIP3   OH222816   0.134   1.734   0.450
 7620TIP3    H122817   0.127   1.799   0.379
 7620TIP3    H222818   0.051   1.686   0.446
 7621TIP3   OH222819   0.536   3.382   4.628
 7621TIP3    H122820   0.503   3.459   4.582
 7621TIP3    H222821   0.609   3.352   4.574
 7622TIP3   OH222822   8.246   1.972   0.160
 7622TIP3    H122823   8.153   1.949   0.168
 7622TIP3    H222824   8.257   2.046   0.220
 7623TIP3   OH222825   4.439   6.569   2.003
 7623TIP3    H122826   4.411   6.552   1.913
 7623TIP3    H222827   4.508   6.636   1.995
 7624TIP3   OH222828   5.521   3.417   6.016
 7624TIP3    H122829   5.428   3.441   6.019
 7624TIP3    H222830   5.521   3.322   6.030
 7625TIP3   OH222831   7.111   5.269   2.500
 7625TIP3    H122832   7.170   5.266   2.425
 7625TIP3    H222833   7.083   5.361   2.504
 7626TIP3   OH222834   1.961   4.193   2.938
 7626TIP3    H122835   1.966   4.283   2.970
 7626TIP3    H222836   2.030   4.147   2.986
 7627TIP3   OH222837   8.039   6.708   1.348
 7627TIP3    H122838   8.063   6.656   1.271
 7627TIP3    H222839   7.998   6.787   1.311
 7628TIP3   OH222840   1.016   7.688   5.677
 7628TIP3    H122841   0.985   7.744   5.606
 7628TIP3    H222842   0.953   7.701   5.747
 7629TIP3   OH222843   0.659   3.095   0.994
 7629TIP3    H122844   0.752   3.085   1.014
 7629TIP3    H222845   0.630   3.007   0.969
 7630TIP3   OH222846   2.962   1.496   6.213
 7630TIP3    H122847   2.991   1.411   6.247
 7630TIP3    H222848   3.014   1.509   6.134
 7631TIP3   OH222849   6.677   2.812   0.180
 7631TIP3    H122850   6.772   2.806   0.164
 7631TIP3    H222851   6.670   2.855   0.265
 7632TIP3   OH222852   4.241   2.731   3.909
 7632TIP3    H122853   4.223   2.825   3.913
 7632TIP3    H222854   4.236   2.702   4.000
 7633TIP3   OH222855   3.442   2.202   0.325
 7633TIP3    H122856   3.354   2.165   0.321
 7633TIP3    H222857   3.461   2.231   0.236
 7634TIP3   OH222858   4.208   1.884   6.623
 7634TIP3    H122859   4.174   1.883   6.713
 7634TIP3    H222860   4.136   1.921   6.571
 7635TIP3   OH222861   4.354   0.073   3.843
 7635TIP3    H122862   4.335   0.113   3.758
 7635TIP3    H222863   4.277   0.021   3.863
 7636TIP3   OH222864   2.078   7.793   4.871
 7636TIP3    H122865   2.075   7.884   4.901
 7636TIP3    H222866   2.135   7.749   4.935
 7637TIP3   OH222867   5.287   0.594   1.904
 7637TIP3    H122868   5.202   0.594   1.949
 7637TIP3    H222869   5.292   0.679   1.862
 7638TIP3   OH222870   5.545   4.321   4.137
 7638TIP3    H122871   5.635   4.332   4.108
 7638TIP3    H222872   5.498   4.294   4.058
 7639TIP3   OH222873   6.014   6.391   0.694
 7639TIP3    H122874   6.019   6.401   0.599
 7639TIP3    H222875   5.955   6.316   0.707
 7640TIP3   OH222876   8.058   4.680   2.799
 7640TIP3    H122877   8.099   4.606   2.756
 7640TIP3    H222878   8.125   4.714   2.859
 7641TIP3   OH222879   6.534   3.058   6.221
 7641TIP3    H122880   6.518   2.965   6.205
 7641TIP3    H222881   6.470   3.082   6.288
 7642TIP3   OH222882   3.056   6.064   1.151
 7642TIP3    H122883   3.126   6.074   1.086
 7642TIP3    H222884   3.053   5.970   1.169
 7643TIP3   OH222885   0.932   2.743   3.644
 7643TIP3    H122886   0.962   2.716   3.557
 7643TIP3    H222887   0.947   2.837   3.646
 7644TIP3   OH222888   6.269   2.120   4.871
 7644TIP3    H122889   6.187   2.071   4.858
 7644TIP3    H222890   6.338   2.058   4.847
 7645TIP3   OH222891   7.064   3.759   0.778
 7645TIP3    H122892   7.058   3.722   0.866
 7645TIP3    H222893   7.017   3.842   0.784
 7646TIP3   OH222894   1.166   5.576   0.696
 7646TIP3    H122895   1.091   5.534   0.654
 7646TIP3    H222896   1.225   5.504   0.719
 7647TIP3   OH222897   4.940   1.922   5.851
 7647TIP3    H122898   4.997   1.846   5.866
 7647TIP3    H222899   4.851   1.886   5.849
 7648TIP3   OH222900   6.630   7.277   1.171
 7648TIP3    H122901   6.656   7.299   1.260
 7648TIP3    H222902   6.572   7.201   1.180
 7649TIP3   OH222903   2.437   0.269   0.086
 7649TIP3    H122904   2.430   0.212   0.163
 7649TIP3    H222905   2.529   0.264   0.061
 7650TIP3   OH222906   7.523   1.746   5.790
 7650TIP3    H122907   7.472   1.708   5.861
 7650TIP3    H222908   7.470   1.820   5.759
 7651TIP3   OH222909   6.949   1.468   6.251
 7651TIP3    H122910   6.954   1.373   6.258
 7651TIP3    H222911   6.855   1.486   6.240
 7652TIP3   OH222912   0.278   6.453   0.048
 7652TIP3    H122913   0.311   6.363   0.049
 7652TIP3    H222914   0.286   6.483   0.138
 7653TIP3   OH222915   3.393   2.173   6.261
 7653TIP3    H122916   3.427   2.092   6.298
 7653TIP3    H222917   3.387   2.233   6.335
 7654TIP3   OH222918   4.450   4.355   6.328
 7654TIP3    H122919   4.407   4.296   6.389
 7654TIP3    H222920   4.394   4.433   6.325
 7655TIP3   OH222921   7.229   7.748   0.631
 7655TIP3    H122922   7.302   7.778   0.684
 7655TIP3    H222923   7.151   7.769   0.683
 7656TIP3   OH222924   2.469   1.979   0.731
 7656TIP3    H122925   2.417   1.993   0.652
 7656TIP3    H222926   2.558   1.965   0.700
 7657TIP3   OH222927   0.825   3.061   0.580
 7657TIP3    H122928   0.895   3.001   0.606
 7657TIP3    H222929   0.744   3.013   0.596
 7658TIP3   OH222930   8.206   0.538   1.978
 7658TIP3    H122931   8.292   0.497   1.980
 7658TIP3    H222932   8.145   0.466   1.959
 7659TIP3   OH222933   0.176   2.659   1.022
 7659TIP3    H122934   0.158   2.635   1.112
 7659TIP3    H222935   0.215   2.747   1.027
 7660TIP3   OH222936   4.768   3.901   2.278
 7660TIP3    H122937   4.815   3.920   2.197
 7660TIP3    H222938   4.675   3.903   2.253
 7661TIP3   OH222939   6.585   4.183   4.123
 7661TIP3    H122940   6.561   4.091   4.114
 7661TIP3    H222941   6.528   4.229   4.062
 7662TIP3   OH222942   3.291   7.281   3.739
 7662TIP3    H122943   3.280   7.288   3.834
 7662TIP3    H222944   3.333   7.363   3.713
 7663TIP3   OH222945   3.654   2.736   0.752
 7663TIP3    H122946   3.660   2.649   0.790
 7663TIP3    H222947   3.731   2.744   0.696
 7664TIP3   OH222948   5.517   7.473   3.949
 7664TIP3    H122949   5.598   7.448   3.903
 7664TIP3    H222950   5.523   7.429   4.034
 7665TIP3   OH222951   2.370   3.043  -0.012
 7665TIP3    H122952   2.451   3.032   0.039
 7665TIP3    H222953   2.310   3.088   0.048
 7666TIP3   OH222954   1.771   2.963   4.433
 7666TIP3    H122955   1.761   3.040   4.378
 7666TIP3    H222956   1.837   2.909   4.389
 7667TIP3   OH222957   0.232   1.720   6.758
 7667TIP3    H122958   0.164   1.655   6.777
 7667TIP3    H222959   0.212   1.750   6.670
 7668TIP3   OH222960   0.137   6.851   0.930
 7668TIP3    H122961   0.130   6.879   1.021
 7668TIP3    H222962   0.055   6.804   0.913
 7669TIP3   OH222963   0.637   4.717   5.754
 7669TIP3    H122964   0.642   4.799   5.803
 7669TIP3    H222965   0.726   4.682   5.758
 7670TIP3   OH222966   6.554   6.413   5.792
 7670TIP3    H122967   6.546   6.503   5.823
 7670TIP3    H222968   6.521   6.359   5.864
 7671TIP3   OH222969   4.664   6.419   1.424
 7671TIP3    H122970   4.760   6.409   1.428
 7671TIP3    H222971   4.644   6.415   1.330
 7672TIP3   OH222972   3.692   4.038   4.103
 7672TIP3    H122973   3.715   3.976   4.172
 7672TIP3    H222974   3.658   3.983   4.032
 7673TIP3   OH222975   5.899   4.310   3.595
 7673TIP3    H122976   5.852   4.269   3.668
 7673TIP3    H222977   5.848   4.288   3.517
 7674TIP3   OH222978   0.932   0.461   1.567
 7674TIP3    H122979   0.842   0.452   1.600
 7674TIP3    H222980   0.922   0.474   1.473
 7675TIP3   OH222981   8.012   1.732   2.841
 7675TIP3    H122982   7.936   1.675   2.827
 7675TIP3    H222983   8.080   1.673   2.876
 7676TIP3   OH222984   4.771   5.103   6.274
 7676TIP3    H122985   4.765   5.199   6.275
 7676TIP3    H222986   4.693   5.075   6.226
 7677TIP3   OH222987   1.851   3.287   4.766
 7677TIP3    H122988   1.872   3.306   4.674
 7677TIP3    H222989   1.812   3.368   4.799
 7678TIP3   OH222990   0.495   0.754   1.820
 7678TIP3    H122991   0.534   0.832   1.861
 7678TIP3    H222992   0.463   0.785   1.735
 7679TIP3   OH222993   0.440   2.536   0.268
 7679TIP3    H122994   0.440   2.545   0.173
 7679TIP3    H222995   0.422   2.443   0.283
 7680TIP3   OH222996   2.384   5.185   2.025
 7680TIP3    H122997   2.362   5.129   2.099
 7680TIP3    H222998   2.304   5.236   2.009
 7681TIP3   OH222999   2.234   3.648   2.412
 7681TIP3    H123000   2.316   3.634   2.365
 7681TIP3    H223001   2.261   3.683   2.497
 7682TIP3   OH223002   2.253   2.596   4.580
 7682TIP3    H123003   2.322   2.662   4.586
 7682TIP3    H223004   2.219   2.588   4.669
 7683TIP3   OH223005   5.182   7.093   1.775
 7683TIP3    H123006   5.103   7.111   1.826
 7683TIP3    H223007   5.195   6.998   1.784
 7684TIP3   OH223008   3.789   7.389   0.737
 7684TIP3    H123009   3.849   7.462   0.753
 7684TIP3    H223010   3.787   7.341   0.820
 7685TIP3   OH223011   3.400   3.918   3.115
 7685TIP3    H123012   3.381   3.875   3.032
 7685TIP3    H223013   3.417   4.009   3.092
 7686TIP3   OH223014   4.097   5.924   2.634
 7686TIP3    H123015   4.112   5.917   2.728
 7686TIP3    H223016   4.082   5.834   2.605
 7687TIP3   OH223017   3.373   5.663   3.929
 7687TIP3    H123018   3.464   5.677   3.902
 7687TIP3    H223019   3.327   5.740   3.896
 7688TIP3   OH223020   7.015   6.492   4.838
 7688TIP3    H123021   7.080   6.552   4.875
 7688TIP3    H223022   6.991   6.530   4.754
 7689TIP3   OH223023   4.728   3.529   6.156
 7689TIP3    H123024   4.701   3.586   6.229
 7689TIP3    H223025   4.735   3.588   6.081
 7690TIP3   OH223026   3.683   7.590   5.486
 7690TIP3    H123027   3.680   7.502   5.521
 7690TIP3    H223028   3.751   7.634   5.537
 7691TIP3   OH223029   4.532   4.984   0.670
 7691TIP3    H123030   4.576   5.001   0.587
 7691TIP3    H223031   4.472   5.057   0.681
 7692TIP3   OH223032   2.658   1.410   1.085
 7692TIP3    H123033   2.656   1.341   1.019
 7692TIP3    H223034   2.575   1.400   1.132
 7693TIP3   OH223035   0.489   3.496   0.577
 7693TIP3    H123036   0.530   3.413   0.602
 7693TIP3    H223037   0.539   3.562   0.625
 7694TIP3   OH223038   4.877   0.206   6.580
 7694TIP3    H123039   4.935   0.279   6.559
 7694TIP3    H223040   4.922   0.160   6.651
 7695TIP3   OH223041   2.276   2.233   1.703
 7695TIP3    H123042   2.262   2.185   1.621
 7695TIP3    H223043   2.353   2.286   1.686
 7696TIP3   OH223044   5.748   0.158   0.119
 7696TIP3    H123045   5.782   0.234   0.165
 7696TIP3    H223046   5.668   0.189   0.077
 7697TIP3   OH223047   5.923   5.644   4.115
 7697TIP3    H123048   5.909   5.653   4.020
 7697TIP3    H223049   5.916   5.550   4.131
 7698TIP3   OH223050   3.862   4.425   2.079
 7698TIP3    H123051   3.816   4.487   2.135
 7698TIP3    H223052   3.930   4.477   2.036
 7699TIP3   OH223053   6.052   1.512   4.426
 7699TIP3    H123054   5.995   1.448   4.384
 7699TIP3    H223055   6.094   1.464   4.498
 7700TIP3   OH223056   3.688   2.809   6.698
 7700TIP3    H123057   3.777   2.794   6.729
 7700TIP3    H223058   3.683   2.763   6.614
 7701TIP3   OH223059   6.213   6.689   4.338
 7701TIP3    H123060   6.266   6.676   4.416
 7701TIP3    H223061   6.149   6.618   4.341
 7702TIP3   OH223062   5.052   2.203   0.548
 7702TIP3    H123063   5.108   2.172   0.618
 7702TIP3    H223064   5.112   2.235   0.481
 7703TIP3   OH223065   5.732   6.898   6.026
 7703TIP3    H123066   5.749   6.954   6.102
 7703TIP3    H223067   5.759   6.811   6.054
 7704TIP3   OH223068   1.222   7.002   0.299
 7704TIP3    H123069   1.257   7.033   0.215
 7704TIP3    H223070   1.261   6.915   0.310
 7705TIP3   OH223071   2.897   6.043   3.116
 7705TIP3    H123072   2.859   6.042   3.204
 7705TIP3    H223073   2.946   6.125   3.112
 7706TIP3   OH223074   3.537   6.034   2.922
 7706TIP3    H123075   3.570   6.122   2.907
 7706TIP3    H223076   3.488   6.041   3.005
 7707TIP3   OH223077   6.923   0.791   3.502
 7707TIP3    H123078   6.876   0.871   3.524
 7707TIP3    H223079   6.904   0.732   3.575
 7708TIP3   OH223080   1.261   6.055  -0.022
 7708TIP3    H123081   1.203   6.104   0.036
 7708TIP3    H223082   1.203   5.995  -0.069
 7709TIP3   OH223083   8.043   2.164   1.443
 7709TIP3    H123084   8.110   2.203   1.387
 7709TIP3    H223085   8.091   2.135   1.521
 7710TIP3   OH223086   0.513   1.358   4.800
 7710TIP3    H123087   0.472   1.344   4.715
 7710TIP3    H223088   0.445   1.399   4.853
 7711TIP3   OH223089   7.758   3.927   0.868
 7711TIP3    H123090   7.732   3.839   0.840
 7711TIP3    H223091   7.679   3.980   0.857
 7712TIP3   OH223092   6.912   6.548   4.574
 7712TIP3    H123093   6.927   6.480   4.508
 7712TIP3    H223094   6.816   6.552   4.581
 7713TIP3   OH223095   5.871   3.379   3.470
 7713TIP3    H123096   5.888   3.342   3.557
 7713TIP3    H223097   5.941   3.444   3.457
 7714TIP3   OH223098   0.556   6.745   5.498
 7714TIP3    H123099   0.496   6.674   5.521
 7714TIP3    H223100   0.503   6.824   5.504
 7715TIP3   OH223101   3.748   1.627   1.383
 7715TIP3    H123102   3.697   1.708   1.390
 7715TIP3    H223103   3.820   1.649   1.324
 7716TIP3   OH223104   2.970   2.946   4.291
 7716TIP3    H123105   2.928   2.946   4.205
 7716TIP3    H223106   3.033   2.875   4.287
 7717TIP3   OH223107   7.896   3.773   6.395
 7717TIP3    H123108   7.834   3.753   6.464
 7717TIP3    H223109   7.967   3.821   6.439
 7718TIP3   OH223110   7.782   3.482   2.441
 7718TIP3    H123111   7.734   3.531   2.507
 7718TIP3    H223112   7.726   3.408   2.419
 7719TIP3   OH223113   4.536   2.851   1.257
 7719TIP3    H123114   4.482   2.823   1.183
 7719TIP3    H223115   4.549   2.945   1.244
 7720TIP3   OH223116   7.881   3.554   0.016
 7720TIP3    H123117   7.852   3.572   0.106
 7720TIP3    H223118   7.928   3.633  -0.011
 7721TIP3   OH223119   1.312   1.924   0.421
 7721TIP3    H123120   1.255   1.965   0.486
 7721TIP3    H223121   1.352   1.850   0.467
 7722TIP3   OH223122   4.980   4.140   0.609
 7722TIP3    H123123   4.945   4.199   0.677
 7722TIP3    H223124   5.074   4.155   0.613
 7723TIP3   OH223125   2.493   4.593   4.293
 7723TIP3    H123126   2.436   4.663   4.264
 7723TIP3    H223127   2.553   4.634   4.355
 7724TIP3   OH223128   7.641   6.322   1.388
 7724TIP3    H123129   7.659   6.247   1.330
 7724TIP3    H223130   7.594   6.384   1.333
 7725TIP3   OH223131   2.844   4.844   5.499
 7725TIP3    H123132   2.787   4.769   5.485
 7725TIP3    H223133   2.789   4.920   5.478
 7726TIP3   OH223134   6.555   1.864   4.688
 7726TIP3    H123135   6.602   1.943   4.715
 7726TIP3    H223136   6.488   1.851   4.756
 7727TIP3   OH223137   7.479   3.961   6.643
 7727TIP3    H123138   7.429   4.042   6.639
 7727TIP3    H223139   7.555   3.976   6.587
 7728TIP3   OH223140   1.915   5.745   3.757
 7728TIP3    H123141   1.892   5.706   3.841
 7728TIP3    H223142   1.917   5.839   3.774
 7729TIP3   OH223143   0.152   3.073   1.893
 7729TIP3    H123144   0.184   3.162   1.905
 7729TIP3    H223145   0.106   3.053   1.974
 7730TIP3   OH223146   5.747   7.858   5.231
 7730TIP3    H123147   5.745   7.769   5.266
 7730TIP3    H223148   5.741   7.846   5.136
 7731TIP3   OH223149   2.733   7.486   1.825
 7731TIP3    H123150   2.663   7.421   1.823
 7731TIP3    H223151   2.759   7.496   1.733
 7732TIP3   OH223152   0.169   3.094   1.199
 7732TIP3    H123153   0.133   3.116   1.285
 7732TIP3    H223154   0.139   3.165   1.142
 7733TIP3   OH223155   4.838   5.033   1.486
 7733TIP3    H123156   4.855   4.956   1.541
 7733TIP3    H223157   4.812   4.997   1.402
 7734TIP3   OH223158   4.145   5.301   0.522
 7734TIP3    H123159   4.150   5.395   0.536
 7734TIP3    H223160   4.197   5.285   0.443
 7735TIP3   OH223161   4.129   1.477   6.583
 7735TIP3    H123162   4.048   1.438   6.617
 7735TIP3    H223163   4.100   1.534   6.512
 7736TIP3   OH223164   5.242   3.077   6.497
 7736TIP3    H123165   5.197   3.091   6.581
 7736TIP3    H223166   5.171   3.076   6.432
 7737TIP3   OH223167   3.543   2.717   3.658
 7737TIP3    H123168   3.471   2.660   3.684
 7737TIP3    H223169   3.622   2.665   3.670
 7738TIP3   OH223170   7.032   0.092   3.693
 7738TIP3    H123171   7.070   0.093   3.781
 7738TIP3    H223172   7.081   0.158   3.645
 7739TIP3   OH223173   3.340   2.208   2.820
 7739TIP3    H123174   3.331   2.185   2.728
 7739TIP3    H223175   3.411   2.272   2.822
 7740TIP3   OH223176   2.220   2.585   6.453
 7740TIP3    H123177   2.229   2.674   6.484
 7740TIP3    H223178   2.218   2.593   6.357
 7741TIP3   OH223179   1.582   6.675   1.609
 7741TIP3    H123180   1.627   6.750   1.569
 7741TIP3    H223181   1.489   6.697   1.604
 7742TIP3   OH223182   0.035   3.823   2.170
 7742TIP3    H123183   0.044   3.876   2.249
 7742TIP3    H223184  -0.001   3.739   2.201
 7743TIP3   OH223185   4.714   7.715   1.660
 7743TIP3    H123186   4.630   7.731   1.704
 7743TIP3    H223187   4.703   7.629   1.619
 7744TIP3   OH223188   4.919   7.590   0.377
 7744TIP3    H123189   4.893   7.641   0.454
 7744TIP3    H223190   4.981   7.526   0.411
 7745TIP3   OH223191   6.565   4.790   2.555
 7745TIP3    H123192   6.567   4.765   2.463
 7745TIP3    H223193   6.650   4.833   2.570
 7746TIP3   OH223194   4.556   2.884   2.795
 7746TIP3    H123195   4.535   2.860   2.705
 7746TIP3    H223196   4.631   2.828   2.818
 7747TIP3   OH223197   7.628   1.937   4.896
 7747TIP3    H123198   7.658   2.028   4.884
 7747TIP3    H223199   7.691   1.885   4.846
 7748TIP3   OH223200   3.785   1.235   5.260
 7748TIP3    H123201   3.879   1.248   5.248
 7748TIP3    H223202   3.773   1.226   5.355
 7749TIP3   OH223203   7.668   3.846   0.369
 7749TIP3    H123204   7.575   3.862   0.357
 7749TIP3    H223205   7.705   3.932   0.390
 7750TIP3   OH223206   1.873   1.460   2.563
 7750TIP3    H123207   1.905   1.544   2.533
 7750TIP3    H223208   1.952   1.411   2.587
 7751TIP3   OH223209   7.511   7.806   5.658
 7751TIP3    H123210   7.434   7.765   5.619
 7751TIP3    H223211   7.585   7.765   5.614
 7752TIP3   OH223212   3.326   0.732   1.786
 7752TIP3    H123213   3.257   0.798   1.791
 7752TIP3    H223214   3.407   0.781   1.801
 7753TIP3   OH223215   5.086   0.656   1.657
 7753TIP3    H123216   5.054   0.675   1.568
 7753TIP3    H223217   5.159   0.596   1.644
 7754TIP3   OH223218   2.748   0.834   3.455
 7754TIP3    H123219   2.796   0.774   3.513
 7754TIP3    H223220   2.669   0.857   3.504
 7755TIP3   OH223221   4.626   5.030   5.672
 7755TIP3    H123222   4.571   5.028   5.594
 7755TIP3    H223223   4.646   5.123   5.684
 7756TIP3   OH223224   2.892   2.296   2.179
 7756TIP3    H123225   2.841   2.230   2.132
 7756TIP3    H223226   2.842   2.377   2.169
 7757TIP3   OH223227   0.917   6.128   3.321
 7757TIP3    H123228   0.853   6.176   3.373
 7757TIP3    H223229   0.963   6.073   3.384
 7758TIP3   OH223230   8.131   2.148   4.524
 7758TIP3    H123231   8.098   2.187   4.443
 7758TIP3    H223232   8.208   2.200   4.547
 7759TIP3   OH223233   0.419   1.889   1.422
 7759TIP3    H123234   0.498   1.837   1.404
 7759TIP3    H223235   0.392   1.862   1.509
 7760TIP3   OH223236   2.174   3.071   0.514
 7760TIP3    H123237   2.223   3.012   0.571
 7760TIP3    H223238   2.227   3.078   0.435
 7761TIP3   OH223239   5.084   4.782   3.392
 7761TIP3    H123240   5.021   4.849   3.417
 7761TIP3    H223241   5.152   4.787   3.459
 7762TIP3   OH223242   7.825   4.134   4.681
 7762TIP3    H123243   7.785   4.127   4.767
 7762TIP3    H223244   7.786   4.212   4.642
 7763TIP3   OH223245   6.516   6.117   2.748
 7763TIP3    H123246   6.425   6.090   2.744
 7763TIP3    H223247   6.525   6.186   2.682
 7764TIP3   OH223248   2.597   1.916   4.858
 7764TIP3    H123249   2.553   1.933   4.775
 7764TIP3    H223250   2.618   2.003   4.892
 7765TIP3   OH223251   7.331   1.761   0.875
 7765TIP3    H123252   7.342   1.770   0.780
 7765TIP3    H223253   7.407   1.711   0.903
 7766TIP3   OH223254   1.172   6.253   0.757
 7766TIP3    H123255   1.099   6.197   0.783
 7766TIP3    H223256   1.166   6.257   0.662
 7767TIP3   OH223257   7.076   7.741   3.697
 7767TIP3    H123258   7.062   7.647   3.688
 7767TIP3    H223259   7.024   7.766   3.773
 7768TIP3   OH223260   3.219   5.483   5.257
 7768TIP3    H123261   3.186   5.474   5.168
 7768TIP3    H223262   3.211   5.396   5.295
 7769TIP3   OH223263   0.334   2.105   4.867
 7769TIP3    H123264   0.351   2.158   4.945
 7769TIP3    H223265   0.397   2.135   4.802
 7770TIP3   OH223266   5.079   0.340   4.377
 7770TIP3    H123267   5.104   0.317   4.287
 7770TIP3    H223268   5.159   0.374   4.417
 7771TIP3   OH223269   2.562   2.259   0.970
 7771TIP3    H123270   2.557   2.322   1.042
 7771TIP3    H223271   2.504   2.188   0.996
 7772TIP3   OH223272   7.668   5.580   0.219
 7772TIP3    H123273   7.652   5.526   0.142
 7772TIP3    H223274   7.638   5.527   0.293
 7773TIP3   OH223275   5.004   2.217   4.643
 7773TIP3    H123276   5.026   2.125   4.627
 7773TIP3    H223277   5.017   2.260   4.559
 7774TIP3   OH223278   2.246   6.422   1.756
 7774TIP3    H123279   2.286   6.508   1.772
 7774TIP3    H223280   2.318   6.360   1.767
 7775TIP3   OH223281   2.141   6.844   0.103
 7775TIP3    H123282   2.049   6.870   0.102
 7775TIP3    H223283   2.145   6.776   0.171
 7776TIP3   OH223284   1.497   6.110   4.346
 7776TIP3    H123285   1.405   6.136   4.354
 7776TIP3    H223286   1.494   6.018   4.322
 7777TIP3   OH223287   4.940   3.737   4.637
 7777TIP3    H123288   5.015   3.714   4.582
 7777TIP3    H223289   4.881   3.785   4.579
 7778TIP3   OH223290   4.196   2.407   4.643
 7778TIP3    H123291   4.251   2.328   4.645
 7778TIP3    H223292   4.257   2.479   4.659
 7779TIP3   OH223293   5.788   3.183   3.309
 7779TIP3    H123294   5.824   3.256   3.358
 7779TIP3    H223295   5.864   3.136   3.275
 7780TIP3   OH223296   6.306   4.508   3.818
 7780TIP3    H123297   6.319   4.455   3.740
 7780TIP3    H223298   6.288   4.596   3.784
 7781TIP3   OH223299   5.381   7.096   5.877
 7781TIP3    H123300   5.319   7.088   5.805
 7781TIP3    H223301   5.418   7.184   5.867
 7782TIP3   OH223302   7.342   7.690   0.379
 7782TIP3    H123303   7.302   7.694   0.466
 7782TIP3    H223304   7.278   7.644   0.326
 7783TIP3   OH223305   7.074   7.708   4.365
 7783TIP3    H123306   7.116   7.662   4.293
 7783TIP3    H223307   7.125   7.684   4.443
 7784TIP3   OH223308   0.607   5.304   2.960
 7784TIP3    H123309   0.667   5.377   2.947
 7784TIP3    H223310   0.645   5.253   3.032
 7785TIP3   OH223311   1.459   7.425   2.008
 7785TIP3    H123312   1.399   7.488   1.970
 7785TIP3    H223313   1.528   7.478   2.048
 7786TIP3   OH223314   1.830   0.365   5.530
 7786TIP3    H123315   1.815   0.456   5.505
 7786TIP3    H223316   1.925   0.357   5.532
 7787TIP3   OH223317   6.396   7.045   0.790
 7787TIP3    H123318   6.478   6.995   0.794
 7787TIP3    H223319   6.423   7.136   0.799
 7788TIP3   OH223320   6.815   3.769   6.369
 7788TIP3    H123321   6.746   3.788   6.305
 7788TIP3    H223322   6.772   3.777   6.454
 7789TIP3   OH223323   2.172   2.162   3.593
 7789TIP3    H123324   2.200   2.245   3.555
 7789TIP3    H223325   2.211   2.162   3.680
 7790TIP3   OH223326   1.421   0.623   2.328
 7790TIP3    H123327   1.345   0.678   2.346
 7790TIP3    H223328   1.459   0.658   2.248
 7791TIP3   OH223329   2.959   6.935   5.741
 7791TIP3    H123330   2.983   6.904   5.829
 7791TIP3    H223331   2.983   6.863   5.683
 7792TIP3   OH223332   5.983   7.070   1.634
 7792TIP3    H123333   5.920   7.001   1.655
 7792TIP3    H223334   6.004   7.110   1.719
 7793TIP3   OH223335   2.521   3.112   4.936
 7793TIP3    H123336   2.453   3.047   4.919
 7793TIP3    H223337   2.476   3.182   4.982
 7794TIP3   OH223338   5.274   7.363   5.319
 7794TIP3    H123339   5.237   7.307   5.251
 7794TIP3    H223340   5.355   7.397   5.280
 7795TIP3   OH223341   5.975   1.310   0.789
 7795TIP3    H123342   5.884   1.304   0.819
 7795TIP3    H223343   6.001   1.219   0.772
 7796TIP3   OH223344   2.469   4.873   6.692
 7796TIP3    H123345   2.405   4.943   6.692
 7796TIP3    H223346   2.553   4.917   6.700
 7797TIP3   OH223347   5.624   2.445   1.897
 7797TIP3    H123348   5.659   2.489   1.820
 7797TIP3    H223349   5.692   2.381   1.921
 7798TIP3   OH223350   4.568   1.241   6.208
 7798TIP3    H123351   4.638   1.201   6.155
 7798TIP3    H223352   4.615   1.286   6.279
 7799TIP3   OH223353   0.610   7.505   3.357
 7799TIP3    H123354   0.541   7.566   3.382
 7799TIP3    H223355   0.600   7.495   3.262
 7800TIP3   OH223356   0.395   0.450   5.979
 7800TIP3    H123357   0.361   0.371   5.937
 7800TIP3    H223358   0.371   0.441   6.071
 7801TIP3   OH223359   3.745   0.149   2.003
 7801TIP3    H123360   3.686   0.186   2.069
 7801TIP3    H223361   3.722   0.195   1.923
 7802TIP3   OH223362   0.752   7.130   4.243
 7802TIP3    H123363   0.658   7.144   4.244
 7802TIP3    H223364   0.765   7.060   4.179
 7803TIP3   OH223365   6.374   4.491   0.340
 7803TIP3    H123366   6.449   4.486   0.280
 7803TIP3    H223367   6.330   4.406   0.330
 7804TIP3   OH223368   1.019   4.040   6.396
 7804TIP3    H123369   1.052   3.981   6.327
 7804TIP3    H223370   0.989   4.117   6.349
 7805TIP3   OH223371   6.895   1.497   4.252
 7805TIP3    H123372   6.912   1.547   4.333
 7805TIP3    H223373   6.801   1.480   4.255
 7806TIP3   OH223374   4.020   1.504   1.981
 7806TIP3    H123375   4.053   1.437   1.921
 7806TIP3    H223376   3.925   1.494   1.978
 7807TIP3   OH223377   1.813   4.377   6.667
 7807TIP3    H123378   1.837   4.284   6.662
 7807TIP3    H223379   1.738   4.385   6.609
 7808TIP3   OH223380   3.595   0.129   2.644
 7808TIP3    H123381   3.584   0.089   2.558
 7808TIP3    H223382   3.507   0.127   2.683
 7809TIP3   OH223383   2.730   1.031   3.010
 7809TIP3    H123384   2.818   1.067   3.021
 7809TIP3    H223385   2.726   0.957   3.070
 7810TIP3   OH223386   6.808   2.101   5.192
 7810TIP3    H123387   6.813   2.193   5.167
 7810TIP3    H223388   6.833   2.054   5.112
 7811TIP3   OH223389   5.549   3.741   2.497
 7811TIP3    H123390   5.575   3.734   2.589
 7811TIP3    H223391   5.519   3.832   2.488
 7812TIP3   OH223392   5.097   2.781   1.213
 7812TIP3    H123393   5.044   2.722   1.267
 7812TIP3    H223394   5.159   2.820   1.275
 7813TIP3   OH223395   8.229   6.343   5.580
 7813TIP3    H123396   8.276   6.359   5.498
 7813TIP3    H223397   8.225   6.428   5.623
 7814TIP3   OH223398   4.351   0.219   6.132
 7814TIP3    H123399   4.414   0.189   6.197
 7814TIP3    H223400   4.347   0.314   6.144
 7815TIP3   OH223401   7.121   3.452   3.018
 7815TIP3    H123402   7.076   3.444   3.102
 7815TIP3    H223403   7.148   3.543   3.013
 7816TIP3   OH223404   5.402   0.770   0.770
 7816TIP3    H123405   5.343   0.845   0.780
 7816TIP3    H223406   5.374   0.728   0.689
 7817TIP3   OH223407   7.422   7.339   2.023
 7817TIP3    H123408   7.455   7.257   1.986
 7817TIP3    H223409   7.499   7.395   2.029
 7818TIP3   OH223410   2.253   7.336   0.860
 7818TIP3    H123411   2.304   7.418   0.867
 7818TIP3    H223412   2.226   7.333   0.768
 7819TIP3   OH223413   2.271   6.212   3.898
 7819TIP3    H123414   2.314   6.258   3.825
 7819TIP3    H223415   2.317   6.129   3.905
 7820TIP3   OH223416   1.889   0.655   3.271
 7820TIP3    H123417   1.815   0.595   3.260
 7820TIP3    H223418   1.895   0.702   3.188
 7821TIP3   OH223419   2.038   7.788   1.682
 7821TIP3    H123420   2.085   7.740   1.614
 7821TIP3    H223421   2.031   7.726   1.755
 7822TIP3   OH223422   1.641   6.008   0.883
 7822TIP3    H123423   1.563   5.973   0.840
 7822TIP3    H223424   1.712   5.992   0.821
 7823TIP3   OH223425   4.517   1.746   4.791
 7823TIP3    H123426   4.518   1.651   4.799
 7823TIP3    H223427   4.581   1.766   4.723
 7824TIP3   OH223428   8.230   0.539   4.347
 7824TIP3    H123429   8.308   0.589   4.323
 7824TIP3    H223430   8.233   0.535   4.443
 7825TIP3   OH223431   4.673   3.687   2.467
 7825TIP3    H123432   4.742   3.731   2.417
 7825TIP3    H223433   4.661   3.603   2.423
 7826TIP3   OH223434   7.894   6.332   3.604
 7826TIP3    H123435   7.907   6.379   3.686
 7826TIP3    H223436   7.845   6.253   3.629
 7827TIP3   OH223437   5.351   0.864   6.262
 7827TIP3    H123438   5.343   0.800   6.191
 7827TIP3    H223439   5.270   0.914   6.260
 7828TIP3   OH223440   4.746   2.821   3.975
 7828TIP3    H123441   4.793   2.820   3.892
 7828TIP3    H223442   4.701   2.906   3.976
 7829TIP3   OH223443   1.766   1.168   2.282
 7829TIP3    H123444   1.803   1.175   2.194
 7829TIP3    H223445   1.695   1.233   2.284
 7830TIP3   OH223446   1.980   6.642   0.521
 7830TIP3    H123447   1.890   6.609   0.526
 7830TIP3    H223448   1.989   6.699   0.597
 7831TIP3   OH223449   3.662   3.301   1.261
 7831TIP3    H123450   3.612   3.240   1.315
 7831TIP3    H223451   3.648   3.387   1.303
 7832TIP3   OH223452   4.940   1.868   0.387
 7832TIP3    H123453   4.941   1.783   0.342
 7832TIP3    H223454   4.875   1.857   0.456
 7833TIP3   OH223455   5.099   2.409   5.894
 7833TIP3    H123456   5.194   2.411   5.906
 7833TIP3    H223457   5.072   2.323   5.928
 7834TIP3   OH223458   7.800   2.052   4.466
 7834TIP3    H123459   7.813   1.991   4.393
 7834TIP3    H223460   7.830   2.136   4.432
 7835TIP3   OH223461   8.132   4.848   6.523
 7835TIP3    H123462   8.118   4.836   6.429
 7835TIP3    H223463   8.049   4.825   6.563
 7836TIP3   OH223464   0.785   3.042   5.978
 7836TIP3    H123465   0.803   2.974   6.043
 7836TIP3    H223466   0.719   3.097   6.019
 7837TIP3   OH223467   2.720   5.956   2.864
 7837TIP3    H123468   2.660   5.895   2.821
 7837TIP3    H223469   2.792   5.900   2.894
 7838TIP3   OH223470   8.203   1.247   2.374
 7838TIP3    H123471   8.246   1.211   2.297
 7838TIP3    H223472   8.134   1.184   2.395
 7839TIP3   OH223473   6.017   6.823   6.313
 7839TIP3    H123474   6.009   6.740   6.359
 7839TIP3    H223475   5.928   6.843   6.284
 7840TIP3   OH223476   4.836   0.451   6.070
 7840TIP3    H123477   4.770   0.519   6.066
 7840TIP3    H223478   4.817   0.402   6.150
 7841TIP3   OH223479   6.481   6.500   3.912
 7841TIP3    H123480   6.388   6.484   3.929
 7841TIP3    H223481   6.518   6.414   3.894
 7842TIP3   OH223482   2.233   3.697   1.203
 7842TIP3    H123483   2.195   3.670   1.119
 7842TIP3    H223484   2.197   3.635   1.266
 7843TIP3   OH223485   0.725   3.837   0.491
 7843TIP3    H123486   0.686   3.797   0.414
 7843TIP3    H223487   0.820   3.823   0.479
 7844TIP3   OH223488   7.550   2.819   4.621
 7844TIP3    H123489   7.617   2.777   4.674
 7844TIP3    H223490   7.557   2.912   4.641
 7845TIP3   OH223491   5.670   1.699   6.230
 7845TIP3    H123492   5.706   1.763   6.291
 7845TIP3    H223493   5.739   1.634   6.219
 7846TIP3   OH223494   1.933   3.107   6.727
 7846TIP3    H123495   1.854   3.137   6.772
 7846TIP3    H223496   1.915   3.125   6.634
 7847TIP3   OH223497   5.690   7.576   0.381
 7847TIP3    H123498   5.716   7.621   0.300
 7847TIP3    H223499   5.594   7.584   0.382
 7848TIP3   OH223500   2.335   4.368   2.599
 7848TIP3    H123501   2.312   4.408   2.515
 7848TIP3    H223502   2.280   4.413   2.663
 7849TIP3   OH223503   6.948   4.735   4.630
 7849TIP3    H123504   6.955   4.775   4.717
 7849TIP3    H223505   6.859   4.699   4.627
 7850TIP3   OH223506   0.331   3.447   1.219
 7850TIP3    H123507   0.392   3.377   1.199
 7850TIP3    H223508   0.323   3.445   1.315
 7851TIP3   OH223509   1.131   5.848   5.871
 7851TIP3    H123510   1.173   5.912   5.928
 7851TIP3    H223511   1.093   5.900   5.800
 7852TIP3   OH223512   2.193   6.647   6.370
 7852TIP3    H123513   2.158   6.641   6.281
 7852TIP3    H223514   2.144   6.719   6.409
 7853TIP3   OH223515   1.460   7.355   3.753
 7853TIP3    H123516   1.412   7.350   3.671
 7853TIP3    H223517   1.552   7.363   3.727
 7854TIP3   OH223518   3.190   2.605   2.477
 7854TIP3    H123519   3.100   2.582   2.499
 7854TIP3    H223520   3.244   2.547   2.530
 7855TIP3   OH223521   1.230   6.118   4.029
 7855TIP3    H123522   1.203   6.113   4.121
 7855TIP3    H223523   1.171   6.057   3.984
 7856TIP3   OH223524   4.184   4.830   1.620
 7856TIP3    H123525   4.100   4.854   1.660
 7856TIP3    H223526   4.160   4.773   1.547
 7857TIP3   OH223527   2.527   5.905   3.111
 7857TIP3    H123528   2.601   5.860   3.071
 7857TIP3    H223529   2.542   5.998   3.090
 7858TIP3   OH223530   2.569   5.988   5.989
 7858TIP3    H123531   2.569   5.895   6.011
 7858TIP3    H223532   2.504   5.996   5.919
 7859TIP3   OH223533   7.109   4.693   3.043
 7859TIP3    H123534   7.073   4.657   2.962
 7859TIP3    H223535   7.063   4.777   3.054
 7860TIP3   OH223536   5.702   4.394   1.478
 7860TIP3    H123537   5.645   4.337   1.426
 7860TIP3    H223538   5.791   4.365   1.455
 7861TIP3   OH223539   4.847   3.759   5.007
 7861TIP3    H123540   4.757   3.784   4.984
 7861TIP3    H223541   4.902   3.808   4.947
 7862TIP3   OH223542   1.760   2.847   1.965
 7862TIP3    H123543   1.777   2.934   2.002
 7862TIP3    H223544   1.846   2.807   1.958
 7863TIP3   OH223545   8.233   2.563   5.598
 7863TIP3    H123546   8.322   2.537   5.574
 7863TIP3    H223547   8.244   2.633   5.662
 7864TIP3   OH223548   4.382   6.915   0.411
 7864TIP3    H123549   4.415   6.912   0.501
 7864TIP3    H223550   4.446   6.866   0.360
 7865TIP3   OH223551   5.371   2.865   0.450
 7865TIP3    H123552   5.291   2.917   0.461
 7865TIP3    H223553   5.410   2.861   0.537
 7866TIP3   OH223554   1.478   6.527   4.954
 7866TIP3    H123555   1.565   6.560   4.930
 7866TIP3    H223556   1.463   6.455   4.892
 7867TIP3   OH223557   1.231   1.122   1.153
 7867TIP3    H123558   1.211   1.173   1.075
 7867TIP3    H223559   1.152   1.069   1.168
 7868TIP3   OH223560   7.214   7.036   2.659
 7868TIP3    H123561   7.222   6.965   2.596
 7868TIP3    H223562   7.276   7.014   2.729
 7869TIP3   OH223563   6.085   3.784   4.474
 7869TIP3    H123564   6.072   3.878   4.477
 7869TIP3    H223565   6.102   3.765   4.381
 7870TIP3   OH223566   4.518   5.612   0.669
 7870TIP3    H123567   4.543   5.533   0.717
 7870TIP3    H223568   4.469   5.665   0.732
 7871TIP3   OH223569   6.322   0.663   4.040
 7871TIP3    H123570   6.360   0.629   3.958
 7871TIP3    H223571   6.315   0.757   4.026
 7872TIP3   OH223572   5.188   2.284   2.391
 7872TIP3    H123573   5.140   2.297   2.473
 7872TIP3    H223574   5.242   2.207   2.407
 7873TIP3   OH223575   1.687   5.647   2.148
 7873TIP3    H123576   1.700   5.696   2.230
 7873TIP3    H223577   1.672   5.715   2.082
 7874TIP3   OH223578   1.364   2.721   0.945
 7874TIP3    H123579   1.419   2.688   0.874
 7874TIP3    H223580   1.374   2.816   0.942
 7875TIP3   OH223581   4.524   5.798   0.208
 7875TIP3    H123582   4.533   5.736   0.280
 7875TIP3    H223583   4.533   5.884   0.250
 7876TIP3   OH223584   1.601   0.621   0.523
 7876TIP3    H123585   1.516   0.601   0.484
 7876TIP3    H223586   1.609   0.716   0.517
 7877TIP3   OH223587   4.659   6.909   4.120
 7877TIP3    H123588   4.610   6.990   4.103
 7877TIP3    H223589   4.596   6.853   4.167
 7878TIP3   OH223590   1.681   4.949   3.054
 7878TIP3    H123591   1.700   5.035   3.090
 7878TIP3    H223592   1.767   4.908   3.043
 7879TIP3   OH223593   7.333   5.006   5.550
 7879TIP3    H123594   7.310   4.933   5.608
 7879TIP3    H223595   7.348   4.965   5.465
 7880TIP3   OH223596   6.591   7.345   3.589
 7880TIP3    H123597   6.647   7.367   3.515
 7880TIP3    H223598   6.527   7.283   3.553
 7881TIP3   OH223599   8.061   7.656   0.258
 7881TIP3    H123600   8.117   7.579   0.250
 7881TIP3    H223601   7.984   7.626   0.305
 7882TIP3   OH223602   5.382   0.414   0.687
 7882TIP3    H123603   5.331   0.387   0.763
 7882TIP3    H223604   5.411   0.332   0.646
 7883TIP3   OH223605   6.222   2.335   4.706
 7883TIP3    H123606   6.265   2.400   4.761
 7883TIP3    H223607   6.233   2.252   4.753
 7884TIP3   OH223608   8.097   2.732   2.556
 7884TIP3    H123609   8.038   2.659   2.538
 7884TIP3    H223610   8.156   2.699   2.623
 7885TIP3   OH223611   0.319   3.729   6.638
 7885TIP3    H123612   0.362   3.812   6.657
 7885TIP3    H223613   0.273   3.707   6.719
 7886TIP3   OH223614   4.054   1.523   0.264
 7886TIP3    H123615   4.106   1.603   0.264
 7886TIP3    H223616   4.116   1.454   0.240
 7887TIP3   OH223617   4.358   4.037   0.207
 7887TIP3    H123618   4.426   4.071   0.149
 7887TIP3    H223619   4.403   3.972   0.261
 7888TIP3   OH223620   0.770   4.389   2.994
 7888TIP3    H123621   0.767   4.407   3.088
 7888TIP3    H223622   0.718   4.310   2.983
 7889TIP3   OH223623   7.277   4.469   0.341
 7889TIP3    H123624   7.200   4.524   0.350
 7889TIP3    H223625   7.338   4.502   0.408
 7890TIP3   OH223626   4.368   2.704   0.427
 7890TIP3    H123627   4.416   2.698   0.509
 7890TIP3    H223628   4.346   2.797   0.419
 7891TIP3   OH223629   2.551   3.762   5.397
 7891TIP3    H123630   2.523   3.842   5.441
 7891TIP3    H223631   2.498   3.758   5.318
 7892TIP3   OH223632   5.680   0.484   2.184
 7892TIP3    H123633   5.692   0.505   2.277
 7892TIP3    H223634   5.613   0.546   2.155
 7893TIP3   OH223635   7.370   3.595   1.986
 7893TIP3    H123636   7.413   3.539   1.921
 7893TIP3    H223637   7.328   3.533   2.046
 7894TIP3   OH223638   5.400   2.294   0.927
 7894TIP3    H123639   5.477   2.328   0.971
 7894TIP3    H223640   5.416   2.311   0.834
 7895TIP3   OH223641   7.769   6.871   5.903
 7895TIP3    H123642   7.674   6.869   5.914
 7895TIP3    H223643   7.783   6.915   5.819
 7896TIP3   OH223644   5.841   4.899   3.843
 7896TIP3    H123645   5.935   4.913   3.831
 7896TIP3    H223646   5.818   4.831   3.780
 7897TIP3   OH223647   4.787   0.187   2.423
 7897TIP3    H123648   4.697   0.154   2.420
 7897TIP3    H223649   4.838   0.124   2.372
 7898TIP3   OH223650   7.043   4.818   2.328
 7898TIP3    H123651   7.068   4.736   2.284
 7898TIP3    H223652   7.124   4.848   2.369
 7899TIP3   OH223653   4.981   0.952   1.305
 7899TIP3    H123654   4.965   1.033   1.255
 7899TIP3    H223655   4.894   0.918   1.324
 7900TIP3   OH223656   6.557   3.332   1.337
 7900TIP3    H123657   6.565   3.397   1.268
 7900TIP3    H223658   6.494   3.268   1.303
 7901TIP3   OH223659   5.443   6.496   6.355
 7901TIP3    H123660   5.348   6.489   6.343
 7901TIP3    H223661   5.462   6.589   6.344
 7902TIP3   OH223662   3.717   3.281   0.977
 7902TIP3    H123663   3.704   3.282   1.072
 7902TIP3    H223664   3.632   3.303   0.940
 7903TIP3   OH223665   7.821   4.859   4.655
 7903TIP3    H123666   7.745   4.808   4.628
 7903TIP3    H223667   7.785   4.941   4.688
 7904TIP3   OH223668   3.767   3.584   2.744
 7904TIP3    H123669   3.761   3.544   2.831
 7904TIP3    H223670   3.821   3.661   2.758
 7905TIP3   OH223671   0.816   0.312   6.410
 7905TIP3    H123672   0.868   0.285   6.486
 7905TIP3    H223673   0.863   0.387   6.374
 7906TIP3   OH223674   3.673   5.661   1.686
 7906TIP3    H123675   3.731   5.735   1.667
 7906TIP3    H223676   3.719   5.611   1.754
 7907TIP3   OH223677   7.458   2.042   1.889
 7907TIP3    H123678   7.457   1.954   1.853
 7907TIP3    H223679   7.409   2.035   1.971
 7908TIP3   OH223680   4.047   3.414   2.347
 7908TIP3    H123681   4.047   3.337   2.403
 7908TIP3    H223682   4.073   3.486   2.404
 7909TIP3   OH223683   7.255   3.695   2.650
 7909TIP3    H123684   7.271   3.666   2.560
 7909TIP3    H223685   7.169   3.737   2.646
 7910TIP3   OH223686   2.022   6.252   1.077
 7910TIP3    H123687   2.044   6.201   0.999
 7910TIP3    H223688   1.963   6.196   1.127
 7911TIP3   OH223689   7.142   0.440   6.669
 7911TIP3    H123690   7.050   0.454   6.647
 7911TIP3    H223691   7.190   0.458   6.588
 7912TIP3   OH223692   2.274   4.508   2.365
 7912TIP3    H123693   2.305   4.433   2.314
 7912TIP3    H223694   2.228   4.562   2.302
 7913TIP3   OH223695   4.901   6.945   4.837
 7913TIP3    H123696   4.927   6.979   4.752
 7913TIP3    H223697   4.830   7.002   4.866
 7914TIP3   OH223698   7.043   6.543   5.802
 7914TIP3    H123699   6.964   6.500   5.836
 7914TIP3    H223700   7.112   6.479   5.813
 7915TIP3   OH223701   0.575   6.019   4.214
 7915TIP3    H123702   0.667   5.994   4.223
 7915TIP3    H223703   0.526   5.949   4.257
 7916TIP3   OH223704   0.264   0.496   2.785
 7916TIP3    H123705   0.212   0.570   2.818
 7916TIP3    H223706   0.312   0.532   2.710
 7917TIP3   OH223707   5.573   1.090   5.747
 7917TIP3    H123708   5.633   1.068   5.676
 7917TIP3    H223709   5.557   1.184   5.737
 7918TIP3   OH223710   3.345   2.559   0.591
 7918TIP3    H123711   3.395   2.636   0.565
 7918TIP3    H223712   3.406   2.486   0.581
 7919TIP3   OH223713   7.568   5.388   3.752
 7919TIP3    H123714   7.528   5.443   3.686
 7919TIP3    H223715   7.622   5.448   3.804
 7920TIP3   OH223716   6.315   5.065   0.280
 7920TIP3    H123717   6.320   5.009   0.357
 7920TIP3    H223718   6.235   5.039   0.236
 7921TIP3   OH223719   3.127   0.440   0.743
 7921TIP3    H123720   3.207   0.391   0.764
 7921TIP3    H223721   3.074   0.434   0.823
 7922TIP3   OH223722   4.964   3.206   1.342
 7922TIP3    H123723   5.007   3.235   1.423
 7922TIP3    H223724   4.924   3.286   1.307
 7923TIP3   OH223725   1.795   0.453   2.848
 7923TIP3    H123726   1.723   0.490   2.899
 7923TIP3    H223727   1.794   0.502   2.766
 7924TIP3   OH223728   3.573   0.600   2.465
 7924TIP3    H123729   3.641   0.619   2.530
 7924TIP3    H223730   3.507   0.668   2.478
 7925TIP3   OH223731   0.348   6.693   0.870
 7925TIP3    H123732   0.264   6.735   0.888
 7925TIP3    H223733   0.380   6.667   0.956
 7926TIP3   OH223734   5.794   1.499   2.526
 7926TIP3    H123735   5.741   1.439   2.473
 7926TIP3    H223736   5.731   1.548   2.578
 7927TIP3   OH223737   0.132   6.614   5.283
 7927TIP3    H123738   0.059   6.639   5.341
 7927TIP3    H223739   0.177   6.696   5.264
 7928TIP3   OH223740   6.259   5.693   2.582
 7928TIP3    H123741   6.237   5.770   2.634
 7928TIP3    H223742   6.311   5.727   2.509
 7929TIP3   OH223743   1.644   7.338   4.575
 7929TIP3    H123744   1.722   7.388   4.597
 7929TIP3    H223745   1.605   7.385   4.501
 7930TIP3   OH223746   3.807   2.469   3.491
 7930TIP3    H123747   3.753   2.473   3.570
 7930TIP3    H223748   3.879   2.530   3.508
 7931TIP3   OH223749   2.343   7.409   2.305
 7931TIP3    H123750   2.393   7.436   2.228
 7931TIP3    H223751   2.408   7.365   2.361
 7932TIP3   OH223752   6.860   1.782   5.225
 7932TIP3    H123753   6.837   1.698   5.184
 7932TIP3    H223754   6.832   1.772   5.316
 7933TIP3   OH223755   5.288   2.707   0.233
 7933TIP3    H123756   5.323   2.780   0.283
 7933TIP3    H223757   5.357   2.642   0.233
 7934TIP3   OH223758   2.341   1.456   0.733
 7934TIP3    H123759   2.435   1.470   0.722
 7934TIP3    H223760   2.320   1.382   0.677
 7935TIP3   OH223761   2.994   1.170   5.297
 7935TIP3    H123762   2.952   1.247   5.336
 7935TIP3    H223763   2.926   1.131   5.242
 7936TIP3   OH223764   5.489   2.651   3.053
 7936TIP3    H123765   5.433   2.574   3.064
 7936TIP3    H223766   5.546   2.630   2.979
 7937TIP3   OH223767   4.576   2.455   1.022
 7937TIP3    H123768   4.494   2.471   0.974
 7937TIP3    H223769   4.641   2.441   0.954
 7938TIP3   OH223770   5.579   6.463   5.725
 7938TIP3    H123771   5.547   6.379   5.759
 7938TIP3    H223772   5.511   6.526   5.751
 7939TIP3   OH223773   4.184   6.509   6.280
 7939TIP3    H123774   4.174   6.423   6.320
 7939TIP3    H223775   4.104   6.557   6.306
 7940TIP3   OH223776   2.927   2.865   3.259
 7940TIP3    H123777   2.950   2.946   3.213
 7940TIP3    H223778   2.958   2.795   3.201
 7941TIP3   OH223779   6.944   3.692   6.661
 7941TIP3    H123780   6.956   3.648   6.745
 7941TIP3    H223781   6.911   3.779   6.684
 7942TIP3   OH223782   4.442   4.866   5.809
 7942TIP3    H123783   4.513   4.918   5.770
 7942TIP3    H223784   4.480   4.779   5.820
 7943TIP3   OH223785   0.258   5.399   2.346
 7943TIP3    H123786   0.334   5.363   2.301
 7943TIP3    H223787   0.295   5.444   2.422
 7944TIP3   OH223788   2.056   0.573   1.527
 7944TIP3    H123789   2.095   0.493   1.490
 7944TIP3    H223790   2.013   0.543   1.607
 7945TIP3   OH223791   1.237   1.334   0.963
 7945TIP3    H123792   1.330   1.330   0.940
 7945TIP3    H223793   1.196   1.384   0.892
 7946TIP3   OH223794   3.607   2.458   4.190
 7946TIP3    H123795   3.612   2.363   4.200
 7946TIP3    H223796   3.648   2.493   4.269
 7947TIP3   OH223797   6.038   3.145   4.392
 7947TIP3    H123798   5.952   3.167   4.428
 7947TIP3    H223799   6.100   3.197   4.442
 7948TIP3   OH223800   7.027   4.000   2.883
 7948TIP3    H123801   7.051   4.089   2.910
 7948TIP3    H223802   7.101   3.946   2.912
 7949TIP3   OH223803   7.150   2.473   2.396
 7949TIP3    H123804   7.138   2.517   2.312
 7949TIP3    H223805   7.063   2.440   2.418
 7950TIP3   OH223806   7.030   2.890   4.493
 7950TIP3    H123807   7.054   2.826   4.559
 7950TIP3    H223808   7.087   2.965   4.510
 7951TIP3   OH223809   2.990   2.817   2.746
 7951TIP3    H123810   3.043   2.870   2.686
 7951TIP3    H223811   3.044   2.740   2.764
 7952TIP3   OH223812   0.270   7.157   4.971
 7952TIP3    H123813   0.178   7.173   4.991
 7952TIP3    H223814   0.287   7.210   4.893
 7953TIP3   OH223815   1.556   4.756   4.528
 7953TIP3    H123816   1.585   4.797   4.447
 7953TIP3    H223817   1.633   4.761   4.585
 7954TIP3   OH223818   4.256   4.259   6.500
 7954TIP3    H123819   4.312   4.266   6.577
 7954TIP3    H223820   4.200   4.337   6.504
 7955TIP3   OH223821   4.700   1.313   1.569
 7955TIP3    H123822   4.669   1.331   1.658
 7955TIP3    H223823   4.790   1.346   1.568
 7956TIP3   OH223824   7.536   1.675   1.006
 7956TIP3    H123825   7.604   1.710   1.063
 7956TIP3    H223826   7.489   1.613   1.061
 7957TIP3   OH223827   6.569   4.397   2.180
 7957TIP3    H123828   6.635   4.449   2.226
 7957TIP3    H223829   6.498   4.459   2.163
 7958TIP3   OH223830   2.080   4.668   1.690
 7958TIP3    H123831   2.006   4.666   1.752
 7958TIP3    H223832   2.049   4.722   1.618
 7959TIP3   OH223833   6.419   1.065   0.828
 7959TIP3    H123834   6.495   1.119   0.809
 7959TIP3    H223835   6.453   0.990   0.877
 7960TIP3   OH223836   6.572   4.048   1.939
 7960TIP3    H123837   6.496   4.083   1.984
 7960TIP3    H223838   6.541   3.966   1.900
 7961TIP3   OH223839   8.308   6.862   1.197
 7961TIP3    H123840   8.307   6.919   1.274
 7961TIP3    H223841   8.226   6.881   1.152
 7962TIP3   OH223842   3.353   0.413   1.567
 7962TIP3    H123843   3.362   0.323   1.534
 7962TIP3    H223844   3.298   0.404   1.645
 7963TIP3   OH223845   7.455   1.655   5.302
 7963TIP3    H123846   7.434   1.745   5.327
 7963TIP3    H223847   7.528   1.632   5.359
 7964TIP3   OH223848   0.153   7.683   0.196
 7964TIP3    H123849   0.126   7.674   0.288
 7964TIP3    H223850   0.076   7.657   0.146
 7965TIP3   OH223851   5.074   6.369   1.894
 7965TIP3    H123852   5.010   6.440   1.896
 7965TIP3    H223853   5.086   6.345   1.986
 7966TIP3   OH223854   3.970   5.751   3.687
 7966TIP3    H123855   3.997   5.741   3.778
 7966TIP3    H223856   3.899   5.689   3.676
 7967TIP3   OH223857   7.135   5.203   4.871
 7967TIP3    H123858   7.114   5.196   4.964
 7967TIP3    H223859   7.188   5.126   4.852
 7968TIP3   OH223860   7.437   5.010   2.276
 7968TIP3    H123861   7.388   4.949   2.220
 7968TIP3    H223862   7.519   5.024   2.228
 7969TIP3   OH223863   4.765   6.216   0.612
 7969TIP3    H123864   4.759   6.122   0.593
 7969TIP3    H223865   4.847   6.244   0.573
 7970TIP3   OH223866   0.885   1.249   5.628
 7970TIP3    H123867   0.883   1.331   5.579
 7970TIP3    H223868   0.972   1.245   5.666
 7971TIP3   OH223869   4.676   3.661   1.660
 7971TIP3    H123870   4.672   3.596   1.590
 7971TIP3    H223871   4.586   3.691   1.671
 7972TIP3   OH223872   2.793   6.375   6.339
 7972TIP3    H123873   2.876   6.329   6.354
 7972TIP3    H223874   2.738   6.311   6.293
 7973TIP3   OH223875   1.389   4.785   2.341
 7973TIP3    H123876   1.407   4.724   2.269
 7973TIP3    H223877   1.297   4.810   2.329
 7974TIP3   OH223878   1.323   0.900   4.026
 7974TIP3    H123879   1.331   0.980   3.974
 7974TIP3    H223880   1.348   0.830   3.967
 7975TIP3   OH223881   3.796   6.009   5.868
 7975TIP3    H123882   3.868   6.053   5.823
 7975TIP3    H223883   3.768   6.070   5.935
 7976TIP3   OH223884   1.255   5.480   3.764
 7976TIP3    H123885   1.349   5.502   3.762
 7976TIP3    H223886   1.231   5.470   3.672
 7977TIP3   OH223887   0.404   7.682   3.428
 7977TIP3    H123888   0.398   7.709   3.336
 7977TIP3    H223889   0.317   7.702   3.464
 7978TIP3   OH223890   7.169   7.429   6.131
 7978TIP3    H123891   7.180   7.338   6.159
 7978TIP3    H223892   7.144   7.422   6.038
 7979TIP3   OH223893   0.122   1.757   3.352
 7979TIP3    H123894   0.096   1.771   3.261
 7979TIP3    H223895   0.218   1.757   3.350
 7980TIP3   OH223896   8.156   2.530   1.536
 7980TIP3    H123897   8.187   2.590   1.467
 7980TIP3    H223898   8.074   2.569   1.566
 7981TIP3   OH223899   1.423   6.268   4.820
 7981TIP3    H123900   1.389   6.243   4.735
 7981TIP3    H223901   1.499   6.212   4.833
 7982TIP3   OH223902   4.880   5.850   0.734
 7982TIP3    H123903   4.906   5.759   0.721
 7982TIP3    H223904   4.904   5.869   0.824
 7983TIP3   OH223905   7.573   6.635   3.157
 7983TIP3    H123906   7.546   6.642   3.065
 7983TIP3    H223907   7.493   6.650   3.206
 7984TIP3   OH223908   6.493   1.828   0.452
 7984TIP3    H123909   6.430   1.878   0.504
 7984TIP3    H223910   6.528   1.763   0.513
 7985TIP3   OH223911   0.977   6.403   1.361
 7985TIP3    H123912   0.909   6.409   1.294
 7985TIP3    H223913   0.992   6.309   1.372
 7986TIP3   OH223914   0.410   0.002   4.932
 7986TIP3    H123915   0.340  -0.059   4.953
 7986TIP3    H223916   0.453   0.020   5.016
 7987TIP3   OH223917   3.755   5.849   2.580
 7987TIP3    H123918   3.776   5.941   2.597
 7987TIP3    H223919   3.784   5.834   2.490
 7988TIP3   OH223920   6.829   3.940   5.956
 7988TIP3    H123921   6.790   3.872   6.010
 7988TIP3    H223922   6.783   4.020   5.980
 7989TIP3   OH223923   0.310   6.991   1.316
 7989TIP3    H123924   0.334   7.082   1.332
 7989TIP3    H223925   0.215   6.991   1.307
 7990TIP3   OH223926   0.316   4.232   0.088
 7990TIP3    H123927   0.295   4.273   0.004
 7990TIP3    H223928   0.276   4.146   0.084
 7991TIP3   OH223929   0.167   1.792   6.433
 7991TIP3    H123930   0.260   1.813   6.424
 7991TIP3    H223931   0.154   1.715   6.378
 7992TIP3   OH223932   7.049   6.443   4.169
 7992TIP3    H123933   7.110   6.412   4.236
 7992TIP3    H223934   7.040   6.370   4.108
 7993TIP3   OH223935   2.138   6.857   6.560
 7993TIP3    H123936   2.179   6.796   6.621
 7993TIP3    H223937   2.054   6.879   6.600
 7994TIP3   OH223938   0.474   5.311   0.325
 7994TIP3    H123939   0.514   5.348   0.246
 7994TIP3    H223940   0.391   5.275   0.295
 7995TIP3   OH223941   6.059   4.997   3.057
 7995TIP3    H123942   6.151   5.003   3.083
 7995TIP3    H223943   6.055   4.922   2.998
 7996TIP3   OH223944   1.093   5.012   4.931
 7996TIP3    H123945   1.153   5.067   4.880
 7996TIP3    H223946   1.050   5.073   4.991
 7997TIP3   OH223947   5.396   3.182   0.735
 7997TIP3    H123948   5.309   3.149   0.758
 7997TIP3    H223949   5.402   3.170   0.640
 7998TIP3   OH223950   1.837   0.061   5.916
 7998TIP3    H123951   1.887   0.011   5.852
 7998TIP3    H223952   1.752   0.075   5.874
 7999TIP3   OH223953   4.830   7.617   3.122
 7999TIP3    H123954   4.758   7.645   3.178
 7999TIP3    H223955   4.855   7.531   3.156
 8000TIP3   OH223956   0.516   4.219   5.632
 8000TIP3    H123957   0.478   4.280   5.695
 8000TIP3    H223958   0.609   4.242   5.630
 8001TIP3   OH223959   6.558   6.296   2.562
 8001TIP3    H123960   6.578   6.262   2.475
 8001TIP3    H223961   6.506   6.375   2.546
 8002TIP3   OH223962   5.996   6.633   0.113
 8002TIP3    H123963   6.047   6.671   0.041
 8002TIP3    H223964   6.031   6.544   0.122
 8003TIP3   OH223965   7.722   5.859   5.983
 8003TIP3    H123966   7.746   5.770   6.011
 8003TIP3    H223967   7.756   5.916   6.052
 8004TIP3   OH223968   1.366   1.233   4.254
 8004TIP3    H123969   1.338   1.194   4.337
 8004TIP3    H223970   1.461   1.238   4.261
 8005TIP3   OH223971   6.734   5.553   5.916
 8005TIP3    H123972   6.734   5.648   5.905
 8005TIP3    H223973   6.642   5.528   5.918
 8006TIP3   OH223974   8.334   4.187   0.342
 8006TIP3    H123975   8.345   4.217   0.251
 8006TIP3    H223976   8.241   4.201   0.360
 8007TIP3   OH223977   6.499   5.501   2.776
 8007TIP3    H123978   6.586   5.462   2.775
 8007TIP3    H223979   6.504   5.569   2.843
 8008TIP3   OH223980   6.230   1.929   5.606
 8008TIP3    H123981   6.223   2.006   5.549
 8008TIP3    H223982   6.148   1.930   5.656
 8009TIP3   OH223983   6.069   0.604   6.509
 8009TIP3    H123984   5.998   0.562   6.559
 8009TIP3    H223985   6.144   0.547   6.523
 8010TIP3   OH223986   1.276   1.489   0.149
 8010TIP3    H123987   1.324   1.447   0.077
 8010TIP3    H223988   1.296   1.582   0.139
 8011TIP3   OH223989   6.101   1.095   3.770
 8011TIP3    H123990   6.178   1.084   3.715
 8011TIP3    H223991   6.029   1.104   3.708
 8012TIP3   OH223992   7.004   6.389   0.348
 8012TIP3    H123993   6.992   6.456   0.281
 8012TIP3    H223994   6.916   6.366   0.377
 8013TIP3   OH223995   7.375   2.537   5.327
 8013TIP3    H123996   7.390   2.555   5.234
 8013TIP3    H223997   7.284   2.561   5.342
 8014TIP3   OH223998   2.477   1.413   2.466
 8014TIP3    H123999   2.533   1.433   2.392
 8014TIP3    H224000   2.505   1.474   2.535
 8015TIP3   OH224001   0.649   0.438   4.490
 8015TIP3    H124002   0.729   0.434   4.437
 8015TIP3    H224003   0.596   0.364   4.459
 8016TIP3   OH224004   7.889   2.989   2.517
 8016TIP3    H124005   7.971   2.942   2.534
 8016TIP3    H224006   7.834   2.924   2.474
 8017TIP3   OH224007   0.072   2.851   3.516
 8017TIP3    H124008   0.005   2.786   3.492
 8017TIP3    H224009   0.030   2.903   3.585
 8018TIP3   OH224010   4.806   5.825   2.522
 8018TIP3    H124011   4.770   5.782   2.599
 8018TIP3    H224012   4.874   5.766   2.490
 8019TIP3   OH224013   5.406   7.647   0.337
 8019TIP3    H124014   5.338   7.583   0.316
 8019TIP3    H224015   5.390   7.720   0.277
 8020TIP3   OH224016   2.843   2.024   2.453
 8020TIP3    H124017   2.755   2.042   2.486
 8020TIP3    H224018   2.829   1.990   2.365
 8021TIP3   OH224019   5.705   4.196   2.789
 8021TIP3    H124020   5.674   4.285   2.806
 8021TIP3    H224021   5.754   4.203   2.707
 8022TIP3   OH224022   4.324   3.673   2.272
 8022TIP3    H124023   4.228   3.677   2.276
 8022TIP3    H224024   4.353   3.723   2.348
 8023TIP3   OH224025   5.376   1.000   5.524
 8023TIP3    H124026   5.397   1.082   5.568
 8023TIP3    H224027   5.316   0.956   5.584
 8024TIP3   OH224028   7.084   4.270   0.126
 8024TIP3    H124029   7.111   4.295   0.038
 8024TIP3    H224030   7.093   4.351   0.178
 8025TIP3   OH224031   0.338   6.454   1.117
 8025TIP3    H124032   0.271   6.436   1.050
 8025TIP3    H224033   0.302   6.527   1.168
 8026TIP3   OH224034   2.049   5.977   4.089
 8026TIP3    H124035   1.977   6.025   4.048
 8026TIP3    H224036   2.016   5.887   4.098
 8027TIP3   OH224037   0.893   5.048   6.562
 8027TIP3    H124038   0.908   5.015   6.473
 8027TIP3    H224039   0.815   5.103   6.554
 8028TIP3   OH224040   6.228   6.485   3.264
 8028TIP3    H124041   6.313   6.446   3.281
 8028TIP3    H224042   6.224   6.561   3.322
 8029TIP3   OH224043   8.277   2.038   1.205
 8029TIP3    H124044   8.250   2.129   1.214
 8029TIP3    H224045   8.340   2.023   1.275
 8030TIP3   OH224046   5.584   6.560   1.638
 8030TIP3    H124047   5.628   6.501   1.576
 8030TIP3    H224048   5.491   6.540   1.627
 8031TIP3   OH224049   5.212   1.981   0.371
 8031TIP3    H124050   5.178   2.054   0.319
 8031TIP3    H224051   5.136   1.951   0.421
 8032TIP3   OH224052   2.322   5.711   0.777
 8032TIP3    H124053   2.283   5.780   0.831
 8032TIP3    H224054   2.386   5.757   0.723
 8033TIP3   OH224055   6.552   0.977   3.743
 8033TIP3    H124056   6.591   0.893   3.770
 8033TIP3    H224057   6.548   1.028   3.824
 8034TIP3   OH224058   0.718   7.583   2.570
 8034TIP3    H124059   0.625   7.604   2.575
 8034TIP3    H224060   0.742   7.562   2.660
 8035TIP3   OH224061   4.269   3.643   0.945
 8035TIP3    H124062   4.251   3.668   0.854
 8035TIP3    H224063   4.357   3.676   0.962
 8036TIP3   OH224064   7.337   3.379   2.167
 8036TIP3    H124065   7.345   3.354   2.259
 8036TIP3    H224066   7.362   3.301   2.118
 8037TIP3   OH224067   0.294   2.721   5.606
 8037TIP3    H124068   0.264   2.777   5.535
 8037TIP3    H224069   0.299   2.779   5.682
 8038TIP3   OH224070   2.760   1.789   0.139
 8038TIP3    H124071   2.809   1.724   0.089
 8038TIP3    H224072   2.673   1.752   0.148
 8039TIP3   OH224073   3.812   3.306   2.636
 8039TIP3    H124074   3.768   3.227   2.669
 8039TIP3    H224075   3.740   3.365   2.613
 8040TIP3   OH224076   4.911   6.657   3.785
 8040TIP3    H124077   4.858   6.580   3.803
 8040TIP3    H224078   4.864   6.729   3.827
 8041TIP3   OH224079   7.110   3.569   4.403
 8041TIP3    H124080   7.127   3.476   4.391
 8041TIP3    H224081   7.101   3.603   4.314
 8042TIP3   OH224082   8.101   6.546   1.129
 8042TIP3    H124083   8.100   6.564   1.035
 8042TIP3    H224084   8.169   6.480   1.140
 8043TIP3   OH224085   8.165   0.324   0.411
 8043TIP3    H124086   8.219   0.385   0.359
 8043TIP3    H224087   8.088   0.376   0.435
 8044TIP3   OH224088   0.352   5.681   2.057
 8044TIP3    H124089   0.261   5.656   2.074
 8044TIP3    H224090   0.403   5.602   2.074
 8045TIP3   OH224091   6.955   7.429   1.104
 8045TIP3    H124092   7.004   7.353   1.136
 8045TIP3    H224093   6.901   7.393   1.033
 8046TIP3   OH224094   5.047   7.316   6.026
 8046TIP3    H124095   5.016   7.323   5.936
 8046TIP3    H224096   5.140   7.338   6.021
 8047TIP3   OH224097   3.026   4.710   3.415
 8047TIP3    H124098   2.979   4.660   3.348
 8047TIP3    H224099   3.118   4.703   3.389
 8048TIP3   OH224100   3.686   6.775   4.564
 8048TIP3    H124101   3.645   6.834   4.628
 8048TIP3    H224102   3.771   6.815   4.545
 8049TIP3   OH224103   5.043   3.883   1.710
 8049TIP3    H124104   5.128   3.926   1.698
 8049TIP3    H224105   4.979   3.949   1.681
 8050TIP3   OH224106   1.566   7.172   4.816
 8050TIP3    H124107   1.611   7.246   4.857
 8050TIP3    H224108   1.577   7.100   4.878
 8051TIP3   OH224109   7.390   7.292   4.793
 8051TIP3    H124110   7.305   7.248   4.792
 8051TIP3    H224111   7.375   7.373   4.743
 8052TIP3   OH224112   5.941   2.929   6.186
 8052TIP3    H124113   5.960   2.881   6.105
 8052TIP3    H224114   6.018   2.914   6.241
 8053TIP3   OH224115   0.387   3.881   6.192
 8053TIP3    H124116   0.293   3.869   6.206
 8053TIP3    H224117   0.425   3.874   6.280
 8054TIP3   OH224118   2.343   6.767   6.817
 8054TIP3    H124119   2.322   6.860   6.821
 8054TIP3    H224120   2.394   6.758   6.736
 8055TIP3   OH224121   4.291   3.444   3.149
 8055TIP3    H124122   4.320   3.409   3.065
 8055TIP3    H224123   4.201   3.475   3.133
 8056TIP3   OH224124   7.265   0.550   4.888
 8056TIP3    H124125   7.341   0.581   4.839
 8056TIP3    H224126   7.251   0.461   4.857
 8057TIP3   OH224127   5.348   0.416   6.411
 8057TIP3    H124128   5.411   0.346   6.396
 8057TIP3    H224129   5.401   0.494   6.428
 8058TIP3   OH224130   3.881   1.697   1.064
 8058TIP3    H124131   3.853   1.770   1.119
 8058TIP3    H224132   3.912   1.738   0.984
 8059TIP3   OH224133   0.539   3.240   0.689
 8059TIP3    H124134   0.566   3.270   0.776
 8059TIP3    H224135   0.568   3.149   0.686
 8060TIP3   OH224136   5.026   3.978   2.123
 8060TIP3    H124137   4.976   4.056   2.098
 8060TIP3    H224138   5.065   3.946   2.042
 8061TIP3   OH224139   2.634   3.606   1.972
 8061TIP3    H124140   2.682   3.636   2.049
 8061TIP3    H224141   2.659   3.515   1.961
 8062TIP3   OH224142   5.676   3.107   1.074
 8062TIP3    H124143   5.727   3.187   1.078
 8062TIP3    H224144   5.717   3.056   1.004
 8063TIP3   OH224145   1.089   1.112   5.969
 8063TIP3    H124146   1.011   1.056   5.964
 8063TIP3    H224147   1.134   1.097   5.886
 8064TIP3   OH224148   1.190   2.342   6.377
 8064TIP3    H124149   1.202   2.378   6.465
 8064TIP3    H224150   1.095   2.344   6.363
 8065TIP3   OH224151   5.718   6.363   0.446
 8065TIP3    H124152   5.801   6.406   0.426
 8065TIP3    H224153   5.657   6.434   0.463
 8066TIP3   OH224154   0.442   5.013   5.245
 8066TIP3    H124155   0.353   5.010   5.280
 8066TIP3    H224156   0.459   5.107   5.233
 8067TIP3   OH224157   4.877   4.768   0.632
 8067TIP3    H124158   4.972   4.777   0.625
 8067TIP3    H224159   4.848   4.845   0.680
 8068TIP3   OH224160   0.691   4.125   0.019
 8068TIP3    H124161   0.746   4.151   0.093
 8068TIP3    H224162   0.706   4.193  -0.047
 8069TIP3   OH224163   0.910   1.437   4.685
 8069TIP3    H124164   0.848   1.461   4.617
 8069TIP3    H224165   0.903   1.342   4.691
 8070TIP3   OH224166   6.072   1.445   3.243
 8070TIP3    H124167   6.145   1.500   3.272
 8070TIP3    H224168   6.069   1.457   3.148
 8071TIP3   OH224169   6.465   4.731   5.831
 8071TIP3    H124170   6.386   4.749   5.882
 8071TIP3    H224171   6.537   4.747   5.892
 8072TIP3   OH224172   8.157   3.292   3.573
 8072TIP3    H124173   8.107   3.340   3.639
 8072TIP3    H224174   8.224   3.245   3.623
 8073TIP3   OH224175   7.986   2.047   1.004
 8073TIP3    H124176   7.913   1.986   0.991
 8073TIP3    H224177   8.027   2.018   1.086
 8074TIP3   OH224178   5.696   3.895   0.461
 8074TIP3    H124179   5.769   3.949   0.429
 8074TIP3    H224180   5.638   3.886   0.385
 8075TIP3   OH224181   0.673   4.721   2.161
 8075TIP3    H124182   0.669   4.668   2.082
 8075TIP3    H224183   0.591   4.701   2.207
 8076TIP3   OH224184   3.086   6.351   0.404
 8076TIP3    H124185   3.171   6.368   0.445
 8076TIP3    H224186   3.083   6.412   0.330
 8077TIP3   OH224187   6.090   5.551   4.909
 8077TIP3    H124188   6.004   5.593   4.907
 8077TIP3    H224189   6.072   5.458   4.919
 8078TIP3   OH224190   3.115   4.586   1.912
 8078TIP3    H124191   3.199   4.594   1.959
 8078TIP3    H224192   3.082   4.501   1.939
 8079TIP3   OH224193   5.733   4.212   0.538
 8079TIP3    H124194   5.667   4.209   0.469
 8079TIP3    H224195   5.802   4.153   0.508
 8080TIP3   OH224196   1.904   5.971   1.544
 8080TIP3    H124197   1.923   5.914   1.618
 8080TIP3    H224198   1.928   6.059   1.575
 8081TIP3   OH224199   5.427   3.504   0.846
 8081TIP3    H124200   5.399   3.491   0.756
 8081TIP3    H224201   5.487   3.579   0.843
 8082TIP3   OH224202   2.110   1.891   2.171
 8082TIP3    H124203   2.075   1.826   2.232
 8082TIP3    H224204   2.177   1.845   2.122
 8083TIP3   OH224205   2.005   1.620   6.400
 8083TIP3    H124206   1.961   1.693   6.356
 8083TIP3    H224207   1.934   1.564   6.431
 8084TIP3   OH224208   8.229   2.069   6.747
 8084TIP3    H124209   8.251   2.050   6.656
 8084TIP3    H224210   8.141   2.106   6.743
 8085TIP3   OH224211   1.331   0.520   3.074
 8085TIP3    H124212   1.252   0.524   3.129
 8085TIP3    H224213   1.346   0.426   3.061
 8086TIP3   OH224214   0.179   4.563   5.955
 8086TIP3    H124215   0.176   4.487   5.898
 8086TIP3    H224216   0.250   4.544   6.017
 8087TIP3   OH224217   2.113   1.823   4.424
 8087TIP3    H124218   2.171   1.751   4.449
 8087TIP3    H224219   2.146   1.851   4.339
 8088TIP3   OH224220   5.212   6.493   2.395
 8088TIP3    H124221   5.230   6.533   2.480
 8088TIP3    H224222   5.226   6.399   2.409
 8089TIP3   OH224223   7.907   7.259   5.675
 8089TIP3    H124224   7.989   7.288   5.715
 8089TIP3    H224225   7.845   7.328   5.696
 8090TIP3   OH224226   8.158   0.618   1.103
 8090TIP3    H124227   8.222   0.674   1.147
 8090TIP3    H224228   8.085   0.611   1.164
 8091TIP3   OH224229   0.191   2.465   5.590
 8091TIP3    H124230   0.260   2.400   5.576
 8091TIP3    H224231   0.238   2.548   5.601
 8092TIP3   OH224232   5.469   7.452   1.695
 8092TIP3    H124233   5.557   7.490   1.698
 8092TIP3    H224234   5.412   7.525   1.671
 8093TIP3   OH224235   4.696   2.392   0.795
 8093TIP3    H124236   4.657   2.312   0.760
 8093TIP3    H224237   4.769   2.412   0.736
 8094TIP3   OH224238   3.835   4.135   0.385
 8094TIP3    H124239   3.814   4.218   0.342
 8094TIP3    H224240   3.930   4.138   0.398
 8095TIP3   OH224241   0.827   2.592   2.445
 8095TIP3    H124242   0.757   2.535   2.414
 8095TIP3    H224243   0.908   2.546   2.422
 8096TIP3   OH224244   0.186   2.943   0.380
 8096TIP3    H124245   0.224   2.999   0.313
 8096TIP3    H224246   0.155   3.004   0.447
 8097TIP3   OH224247   3.357   5.776   2.354
 8097TIP3    H124248   3.276   5.795   2.307
 8097TIP3    H224249   3.399   5.861   2.367
 8098TIP3   OH224250   5.777   3.913   1.282
 8098TIP3    H124251   5.835   3.969   1.332
 8098TIP3    H224252   5.788   3.942   1.191
 8099TIP3   OH224253   4.523   7.579   0.421
 8099TIP3    H124254   4.430   7.597   0.433
 8099TIP3    H224255   4.547   7.624   0.340
 8100TIP3   OH224256   8.125   1.694   1.097
 8100TIP3    H124257   8.221   1.692   1.103
 8100TIP3    H224258   8.107   1.698   1.003
 8101TIP3   OH224259   1.093   7.211   6.137
 8101TIP3    H124260   1.048   7.207   6.221
 8101TIP3    H224261   1.178   7.251   6.157
 8102TIP3   OH224262   0.218   4.785   1.336
 8102TIP3    H124263   0.207   4.692   1.356
 8102TIP3    H224264   0.255   4.787   1.248
 8103TIP3   OH224265   4.702   6.362   4.998
 8103TIP3    H124266   4.642   6.396   4.932
 8103TIP3    H224267   4.759   6.437   5.018
 8104TIP3   OH224268   7.422   6.553   1.998
 8104TIP3    H124269   7.372   6.472   1.990
 8104TIP3    H224270   7.508   6.525   2.030
 8105TIP3   OH224271   3.104   1.936   3.544
 8105TIP3    H124272   3.032   1.911   3.603
 8105TIP3    H224273   3.183   1.905   3.588
 8106TIP3   OH224274   1.159   2.684   5.976
 8106TIP3    H124275   1.135   2.764   5.929
 8106TIP3    H224276   1.192   2.625   5.908
 8107TIP3   OH224277   3.349   3.081   3.909
 8107TIP3    H124278   3.311   2.998   3.940
 8107TIP3    H224279   3.340   3.141   3.983
 8108TIP3   OH224280   1.400   2.912   1.297
 8108TIP3    H124281   1.379   3.004   1.279
 8108TIP3    H224282   1.481   2.916   1.347
 8109TIP3   OH224283   5.540   7.212   0.052
 8109TIP3    H124284   5.490   7.278   0.004
 8109TIP3    H224285   5.473   7.153   0.087
 8110TIP3   OH224286   7.390   2.391   2.499
 8110TIP3    H124287   7.303   2.428   2.485
 8110TIP3    H224288   7.435   2.404   2.415
 8111TIP3   OH224289   3.747   2.418   2.232
 8111TIP3    H124290   3.660   2.420   2.271
 8111TIP3    H224291   3.732   2.434   2.139
 8112TIP3   OH224292   3.816   2.245   4.715
 8112TIP3    H124293   3.896   2.228   4.763
 8112TIP3    H224294   3.756   2.284   4.779
 8113TIP3   OH224295   2.451   0.998   3.415
 8113TIP3    H124296   2.399   1.056   3.470
 8113TIP3    H224297   2.413   0.911   3.431
 8114TIP3   OH224298   1.666   3.143   4.928
 8114TIP3    H124299   1.748   3.175   4.890
 8114TIP3    H224300   1.621   3.099   4.856
 8115TIP3   OH224301   5.347   7.538   4.255
 8115TIP3    H124302   5.388   7.452   4.258
 8115TIP3    H224303   5.254   7.520   4.247
 8116TIP3   OH224304   8.168   3.972   0.883
 8116TIP3    H124305   8.161   3.877   0.893
 8116TIP3    H224306   8.259   3.987   0.858
 8117TIP3   OH224307   3.662   6.136   5.585
 8117TIP3    H124308   3.705   6.138   5.670
 8117TIP3    H224309   3.718   6.190   5.529
 8118TIP3   OH224310   6.459   0.865   4.584
 8118TIP3    H124311   6.462   0.818   4.501
 8118TIP3    H224312   6.516   0.815   4.642
 8119TIP3   OH224313   6.889   1.497   5.223
 8119TIP3    H124314   6.966   1.478   5.277
 8119TIP3    H224315   6.900   1.443   5.145
 8120TIP3   OH224316   3.498   3.459   3.451
 8120TIP3    H124317   3.403   3.451   3.440
 8120TIP3    H224318   3.514   3.553   3.454
 8121TIP3   OH224319   6.607   7.504   0.267
 8121TIP3    H124320   6.542   7.441   0.237
 8121TIP3    H224321   6.616   7.486   0.361
 8122TIP3   OH224322   2.514   1.215   3.109
 8122TIP3    H124323   2.554   1.192   3.193
 8122TIP3    H224324   2.551   1.152   3.047
 8123TIP3   OH224325   3.460   6.605   5.819
 8123TIP3    H124326   3.369   6.576   5.824
 8123TIP3    H224327   3.498   6.552   5.749
 8124TIP3   OH224328   7.657   1.927   6.400
 8124TIP3    H124329   7.638   1.835   6.381
 8124TIP3    H224330   7.688   1.962   6.316
 8125TIP3   OH224331   4.015   5.044   2.223
 8125TIP3    H124332   4.094   5.062   2.173
 8125TIP3    H224333   3.947   5.095   2.180
 8126TIP3   OH224334   8.026   1.376   0.938
 8126TIP3    H124335   8.120   1.382   0.955
 8126TIP3    H224336   7.989   1.342   1.020
 8127TIP3   OH224337   1.313   7.823   6.493
 8127TIP3    H124338   1.346   7.743   6.452
 8127TIP3    H224339   1.314   7.803   6.587
 8128TIP3   OH224340   3.897   1.640   5.288
 8128TIP3    H124341   3.813   1.685   5.295
 8128TIP3    H224342   3.875   1.551   5.262
 8129TIP3   OH224343   1.869   3.840   6.568
 8129TIP3    H124344   1.800   3.815   6.630
 8129TIP3    H224345   1.937   3.774   6.581
 8130TIP3   OH224346   3.569   1.590   3.490
 8130TIP3    H124347   3.579   1.495   3.490
 8130TIP3    H224348   3.501   1.607   3.556
 8131TIP3   OH224349   1.404   1.589   2.065
 8131TIP3    H124350   1.470   1.521   2.046
 8131TIP3    H224351   1.449   1.671   2.049
 8132TIP3   OH224352   4.765   5.310   6.012
 8132TIP3    H124353   4.715   5.313   6.093
 8132TIP3    H224354   4.783   5.402   5.991
 8133TIP3   OH224355   7.416   4.796   2.703
 8133TIP3    H124356   7.478   4.868   2.693
 8133TIP3    H224357   7.425   4.770   2.795
 8134TIP3   OH224358   5.107   3.170   2.737
 8134TIP3    H124359   5.134   3.134   2.821
 8134TIP3    H224360   5.028   3.121   2.714
 8135TIP3   OH224361   5.993   4.903   5.989
 8135TIP3    H124362   5.900   4.883   6.000
 8135TIP3    H224363   6.038   4.823   6.016
 8136TIP3   OH224364   5.836   5.984   1.997
 8136TIP3    H124365   5.868   6.073   1.981
 8136TIP3    H224366   5.913   5.934   2.023
 8137TIP3   OH224367   0.864   6.429   2.819
 8137TIP3    H124368   0.786   6.434   2.764
 8137TIP3    H224369   0.839   6.371   2.891
 8138TIP3   OH224370   6.201   2.648   5.317
 8138TIP3    H124371   6.240   2.657   5.230
 8138TIP3    H224372   6.107   2.662   5.302
 8139TIP3   OH224373   4.765   2.613   2.185
 8139TIP3    H124374   4.812   2.688   2.224
 8139TIP3    H224375   4.834   2.562   2.142
 8140TIP3   OH224376   2.811   4.908   0.282
 8140TIP3    H124377   2.842   4.967   0.214
 8140TIP3    H224378   2.743   4.957   0.328
 8141TIP3   OH224379   0.942   2.083   5.470
 8141TIP3    H124380   0.964   2.038   5.388
 8141TIP3    H224381   0.849   2.063   5.485
 8142TIP3   OH224382   4.439   2.418   3.637
 8142TIP3    H124383   4.384   2.341   3.624
 8142TIP3    H224384   4.477   2.435   3.551
 8143TIP3   OH224385   7.515   7.624   4.085
 8143TIP3    H124386   7.494   7.683   4.012
 8143TIP3    H224387   7.550   7.681   4.153
 8144TIP3   OH224388   2.434   5.465   5.397
 8144TIP3    H124389   2.440   5.432   5.308
 8144TIP3    H224390   2.356   5.522   5.397
 8145TIP3   OH224391   1.317   4.893   0.778
 8145TIP3    H124392   1.281   4.860   0.860
 8145TIP3    H224393   1.284   4.983   0.772
 8146TIP3   OH224394   4.843   4.621   4.081
 8146TIP3    H124395   4.765   4.648   4.131
 8146TIP3    H224396   4.845   4.681   4.007
 8147TIP3   OH224397   0.737   3.798   2.770
 8147TIP3    H124398   0.642   3.802   2.778
 8147TIP3    H224399   0.756   3.840   2.686
 8148TIP3   OH224400   3.227   0.452   0.488
 8148TIP3    H124401   3.241   0.382   0.424
 8148TIP3    H224402   3.223   0.406   0.572
 8149TIP3   OH224403   5.703   4.430   5.453
 8149TIP3    H124404   5.752   4.465   5.379
 8149TIP3    H224405   5.623   4.483   5.456
 8150TIP3   OH224406   0.581   3.475   3.070
 8150TIP3    H124407   0.666   3.457   3.029
 8150TIP3    H224408   0.552   3.557   3.030
 8151TIP3   OH224409   1.737   5.981   1.129
 8151TIP3    H124410   1.672   5.942   1.188
 8151TIP3    H224411   1.688   5.999   1.049
 8152TIP3   OH224412   4.272   4.662   1.870
 8152TIP3    H124413   4.346   4.690   1.924
 8152TIP3    H224414   4.304   4.671   1.780
 8153TIP3   OH224415   4.828   2.464   1.525
 8153TIP3    H124416   4.868   2.549   1.506
 8153TIP3    H224417   4.739   2.471   1.491
 8154TIP3   OH224418   3.101   1.206   1.838
 8154TIP3    H124419   3.053   1.239   1.914
 8154TIP3    H224420   3.166   1.274   1.820
 8155TIP3   OH224421   4.248   7.593   0.193
 8155TIP3    H124422   4.202   7.674   0.168
 8155TIP3    H224423   4.272   7.607   0.285
 8156TIP3   OH224424   0.507   1.149   1.064
 8156TIP3    H124425   0.424   1.156   1.018
 8156TIP3    H224426   0.551   1.075   1.022
 8157TIP3   OH224427   8.120   2.040   1.681
 8157TIP3    H124428   8.180   2.034   1.755
 8157TIP3    H224429   8.050   1.978   1.702
 8158TIP3   OH224430   7.805   5.342   6.374
 8158TIP3    H124431   7.779   5.419   6.324
 8158TIP3    H224432   7.782   5.363   6.465
 8159TIP3   OH224433   4.638   7.713   3.275
 8159TIP3    H124434   4.616   7.764   3.353
 8159TIP3    H224435   4.582   7.635   3.282
 8160TIP3   OH224436   2.269   5.303   4.834
 8160TIP3    H124437   2.296   5.340   4.918
 8160TIP3    H224438   2.268   5.208   4.849
 8161TIP3   OH224439   7.472   0.720   4.704
 8161TIP3    H124440   7.485   0.663   4.629
 8161TIP3    H224441   7.523   0.799   4.684
 8162TIP3   OH224442   3.835   4.364   6.403
 8162TIP3    H124443   3.801   4.276   6.420
 8162TIP3    H224444   3.764   4.409   6.357
 8163TIP3   OH224445   7.109   5.007   0.845
 8163TIP3    H124446   7.134   4.938   0.907
 8163TIP3    H224447   7.014   4.998   0.837
 8164TIP3   OH224448   7.114   0.928   5.988
 8164TIP3    H124449   7.162   1.001   6.027
 8164TIP3    H224450   7.135   0.933   5.895
 8165TIP3   OH224451   0.040   6.243   0.549
 8165TIP3    H124452   0.135   6.232   0.547
 8165TIP3    H224453   0.008   6.173   0.492
 8166TIP3   OH224454   7.512   6.946   5.782
 8166TIP3    H124455   7.517   7.035   5.748
 8166TIP3    H224456   7.503   6.956   5.876
 8167TIP3   OH224457   6.211   5.234   2.459
 8167TIP3    H124458   6.300   5.269   2.472
 8167TIP3    H224459   6.200   5.170   2.529
 8168TIP3   OH224460   4.629   6.201   4.636
 8168TIP3    H124461   4.547   6.175   4.679
 8168TIP3    H224462   4.670   6.261   4.699
 8169TIP3   OH224463   1.537   4.964   3.661
 8169TIP3    H124464   1.604   4.928   3.719
 8169TIP3    H224465   1.488   4.888   3.631
 8170TIP3   OH224466   4.910   3.580   1.788
 8170TIP3    H124467   4.834   3.609   1.738
 8170TIP3    H224468   4.875   3.560   1.875
 8171TIP3   OH224469   6.380   4.389   4.048
 8171TIP3    H124470   6.379   4.434   3.964
 8171TIP3    H224471   6.452   4.429   4.097
 8172TIP3   OH224472   2.948   1.770   4.805
 8172TIP3    H124473   2.876   1.707   4.808
 8172TIP3    H224474   2.939   1.820   4.887
 8173TIP3   OH224475   6.644   0.434   5.491
 8173TIP3    H124476   6.629   0.404   5.581
 8173TIP3    H224477   6.675   0.524   5.501
 8174TIP3   OH224478   6.314   4.507   2.151
 8174TIP3    H124479   6.253   4.433   2.150
 8174TIP3    H224480   6.278   4.568   2.086
 8175TIP3   OH224481   3.506   3.073   3.338
 8175TIP3    H124482   3.534   2.983   3.356
 8175TIP3    H224483   3.467   3.103   3.420
 8176TIP3   OH224484   0.662   4.046   5.246
 8176TIP3    H124485   0.572   4.064   5.274
 8176TIP3    H224486   0.693   3.978   5.306
 8177TIP3   OH224487   5.397   1.192   5.141
 8177TIP3    H124488   5.317   1.158   5.101
 8177TIP3    H224489   5.467   1.138   5.104
 8178TIP3   OH224490   2.084   2.924   0.257
 8178TIP3    H124491   2.175   2.911   0.231
 8178TIP3    H224492   2.081   3.016   0.283
 8179TIP3   OH224493   4.704   1.340   5.109
 8179TIP3    H124494   4.722   1.249   5.129
 8179TIP3    H224495   4.637   1.365   5.174
 8180TIP3   OH224496   6.029   2.122   0.057
 8180TIP3    H124497   6.070   2.202   0.089
 8180TIP3    H224498   6.062   2.053   0.115
 8181TIP3   OH224499   2.406   1.562   5.046
 8181TIP3    H124500   2.403   1.658   5.040
 8181TIP3    H224501   2.349   1.532   4.975
 8182TIP3   OH224502   0.238   2.586   6.635
 8182TIP3    H124503   0.288   2.596   6.554
 8182TIP3    H224504   0.273   2.507   6.676
 8183TIP3   OH224505   8.253   2.979   5.360
 8183TIP3    H124506   8.204   2.964   5.279
 8183TIP3    H224507   8.187   2.971   5.429
 8184TIP3   OH224508   7.932   0.968   1.428
 8184TIP3    H124509   7.896   0.917   1.501
 8184TIP3    H224510   8.024   0.942   1.423
 8185TIP3   OH224511   4.741   4.422   3.073
 8185TIP3    H124512   4.807   4.474   3.118
 8185TIP3    H224513   4.759   4.437   2.980
 8186TIP3   OH224514   7.115   3.187   0.940
 8186TIP3    H124515   7.180   3.180   1.010
 8186TIP3    H224516   7.159   3.153   0.863
 8187TIP3   OH224517   6.803   6.534   0.606
 8187TIP3    H124518   6.895   6.540   0.580
 8187TIP3    H224519   6.766   6.467   0.549
 8188TIP3   OH224520   0.712   5.997   5.577
 8188TIP3    H124521   0.666   5.994   5.661
 8188TIP3    H224522   0.649   6.035   5.516
 8189TIP3   OH224523   5.014   5.302   0.553
 8189TIP3    H124524   5.049   5.270   0.636
 8189TIP3    H224525   5.022   5.227   0.494
 8190TIP3   OH224526   4.341   1.317   2.453
 8190TIP3    H124527   4.427   1.355   2.436
 8190TIP3    H224528   4.328   1.327   2.547
 8191TIP3   OH224529   5.905   1.497   3.448
 8191TIP3    H124530   5.953   1.512   3.367
 8191TIP3    H224531   5.968   1.456   3.507
 8192TIP3   OH224532   7.272   6.642   2.264
 8192TIP3    H124533   7.249   6.550   2.248
 8192TIP3    H224534   7.318   6.669   2.185
 8193TIP3   OH224535   6.723   2.111   0.169
 8193TIP3    H124536   6.809   2.139   0.138
 8193TIP3    H224537   6.715   2.149   0.256
 8194TIP3   OH224538   4.663   3.273   5.838
 8194TIP3    H124539   4.640   3.190   5.797
 8194TIP3    H224540   4.689   3.329   5.765
 8195TIP3   OH224541   6.050   0.988   4.917
 8195TIP3    H124542   5.989   0.921   4.886
 8195TIP3    H224543   6.130   0.973   4.866
 8196TIP3   OH224544   7.200   7.689   6.302
 8196TIP3    H124545   7.212   7.614   6.244
 8196TIP3    H224546   7.205   7.653   6.390
 8197TIP3   OH224547   7.750   0.762   3.667
 8197TIP3    H124548   7.845   0.765   3.668
 8197TIP3    H224549   7.723   0.818   3.739
 8198TIP3   OH224550   7.599   5.992   1.976
 8198TIP3    H124551   7.615   6.068   1.920
 8198TIP3    H224552   7.549   5.932   1.921
 8199TIP3   OH224553   4.331   0.260   0.068
 8199TIP3    H124554   4.286   0.295   0.145
 8199TIP3    H224555   4.361   0.174   0.095
 8200TIP3   OH224556   5.759   2.032   0.397
 8200TIP3    H124557   5.751   2.032   0.493
 8200TIP3    H224558   5.669   2.036   0.365
 8201TIP3   OH224559   5.062   5.271   1.426
 8201TIP3    H124560   5.135   5.209   1.421
 8201TIP3    H224561   4.989   5.220   1.461
 8202TIP3   OH224562   5.571   7.084   1.803
 8202TIP3    H124563   5.592   7.106   1.712
 8202TIP3    H224564   5.579   6.989   1.808
 8203TIP3   OH224565   2.969   0.835   2.897
 8203TIP3    H124566   2.950   0.761   2.955
 8203TIP3    H224567   2.987   0.908   2.957
 8204TIP3   OH224568   7.660   5.605   5.790
 8204TIP3    H124569   7.658   5.521   5.836
 8204TIP3    H224570   7.714   5.661   5.846
 8205TIP3   OH224571   3.614   5.759   4.546
 8205TIP3    H124572   3.613   5.825   4.477
 8205TIP3    H224573   3.523   5.731   4.554
 8206TIP3   OH224574   5.531   5.480   2.270
 8206TIP3    H124575   5.539   5.388   2.292
 8206TIP3    H224576   5.598   5.524   2.324
 8207TIP3   OH224577   1.086   6.666   4.613
 8207TIP3    H124578   1.106   6.720   4.537
 8207TIP3    H224579   1.172   6.642   4.648
 8208TIP3   OH224580   5.842   5.246   5.724
 8208TIP3    H124581   5.802   5.231   5.638
 8208TIP3    H224582   5.776   5.216   5.787
 8209TIP3   OH224583   3.077   4.412   4.407
 8209TIP3    H124584   3.160   4.460   4.412
 8209TIP3    H224585   3.075   4.377   4.318
 8210TIP3   OH224586   3.896   1.802   6.042
 8210TIP3    H124587   3.872   1.799   5.950
 8210TIP3    H224588   3.949   1.882   6.050
 8211TIP3   OH224589   3.931   4.649   6.352
 8211TIP3    H124590   3.894   4.671   6.267
 8211TIP3    H224591   3.873   4.579   6.385
 8212TIP3   OH224592   5.506   7.783   5.825
 8212TIP3    H124593   5.511   7.773   5.920
 8212TIP3    H224594   5.491   7.694   5.793
 8213TIP3   OH224595   5.169   1.604   5.503
 8213TIP3    H124596   5.185   1.535   5.438
 8213TIP3    H224597   5.123   1.559   5.574
 8214TIP3   OH224598   4.551   4.678   2.084
 8214TIP3    H124599   4.478   4.721   2.129
 8214TIP3    H224600   4.616   4.748   2.074
 8215TIP3   OH224601   1.077   5.706   1.532
 8215TIP3    H124602   1.131   5.740   1.461
 8215TIP3    H224603   1.106   5.615   1.542
 8216TIP3   OH224604   5.142   7.689   0.758
 8216TIP3    H124605   5.210   7.623   0.768
 8216TIP3    H224606   5.060   7.639   0.757
 8217TIP3   OH224607   0.845   3.274   5.368
 8217TIP3    H124608   0.841   3.368   5.386
 8217TIP3    H224609   0.764   3.239   5.405
 8218TIP3   OH224610   6.789   5.190   3.575
 8218TIP3    H124611   6.802   5.190   3.670
 8218TIP3    H224612   6.748   5.274   3.556
 8219TIP3   OH224613   2.999   1.040   0.823
 8219TIP3    H124614   3.089   1.031   0.854
 8219TIP3    H224615   3.004   1.027   0.728
 8220TIP3   OH224616   3.032   5.748   3.187
 8220TIP3    H124617   2.995   5.697   3.259
 8220TIP3    H224618   3.051   5.834   3.225
 8221TIP3   OH224619   3.633   5.061   4.478
 8221TIP3    H124620   3.546   5.042   4.515
 8221TIP3    H224621   3.661   4.977   4.441
 8222TIP3   OH224622   4.201   4.863   5.958
 8222TIP3    H124623   4.157   4.943   5.985
 8222TIP3    H224624   4.262   4.891   5.890
 8223TIP3   OH224625   2.167   0.878   5.028
 8223TIP3    H124626   2.100   0.940   5.000
 8223TIP3    H224627   2.235   0.931   5.069
 8224TIP3   OH224628   0.734   6.047   0.152
 8224TIP3    H124629   0.748   5.960   0.191
 8224TIP3    H224630   0.649   6.040   0.108
 8225TIP3   OH224631   2.287   5.149   3.805
 8225TIP3    H124632   2.315   5.197   3.728
 8225TIP3    H224633   2.354   5.081   3.816
 8226TIP3   OH224634   6.848   7.776   3.134
 8226TIP3    H124635   6.782   7.720   3.093
 8226TIP3    H224636   6.904   7.804   3.061
 8227TIP3   OH224637   6.713   6.400   3.673
 8227TIP3    H124638   6.617   6.408   3.675
 8227TIP3    H224639   6.739   6.414   3.764
 8228TIP3   OH224640   0.177   7.119   2.337
 8228TIP3    H124641   0.115   7.142   2.406
 8228TIP3    H224642   0.205   7.030   2.359
 8229TIP3   OH224643   1.273   0.961   3.553
 8229TIP3    H124644   1.250   0.886   3.499
 8229TIP3    H224645   1.227   0.947   3.635
 8230TIP3   OH224646   6.553   4.609   1.045
 8230TIP3    H124647   6.580   4.619   0.954
 8230TIP3    H224648   6.521   4.519   1.051
 8231TIP3   OH224649   6.768   5.456   2.678
 8231TIP3    H124650   6.823   5.427   2.750
 8231TIP3    H224651   6.758   5.378   2.623
 8232TIP3   OH224652   3.251   0.942   0.943
 8232TIP3    H124653   3.289   0.855   0.927
 8232TIP3    H224654   3.256   0.953   1.038
 8233TIP3   OH224655   3.572   2.512   1.505
 8233TIP3    H124656   3.617   2.482   1.584
 8233TIP3    H224657   3.538   2.598   1.528
 8234TIP3   OH224658   1.989   5.356   0.364
 8234TIP3    H124659   2.068   5.309   0.391
 8234TIP3    H224660   2.007   5.447   0.386
 8235TIP3   OH224661   6.348   1.492   5.348
 8235TIP3    H124662   6.313   1.508   5.260
 8235TIP3    H224663   6.346   1.397   5.357
 8236TIP3   OH224664   7.618   1.541   5.011
 8236TIP3    H124665   7.700   1.591   5.005
 8236TIP3    H224666   7.564   1.576   4.940
 8237TIP3   OH224667   6.211   3.578   0.696
 8237TIP3    H124668   6.190   3.488   0.670
 8237TIP3    H224669   6.297   3.594   0.657
 8238TIP3   OH224670   5.922   6.929   2.610
 8238TIP3    H124671   5.855   6.861   2.622
 8238TIP3    H224672   5.876   7.011   2.627
 8239TIP3   OH224673   4.559   0.236   4.852
 8239TIP3    H124674   4.498   0.192   4.794
 8239TIP3    H224675   4.577   0.320   4.810
 8240TIP3   OH224676   5.184   4.965   2.290
 8240TIP3    H124677   5.219   5.051   2.316
 8240TIP3    H224678   5.251   4.928   2.233
 8241TIP3   OH224679   7.296   4.062   0.676
 8241TIP3    H124680   7.373   4.021   0.714
 8241TIP3    H224681   7.324   4.151   0.655
 8242TIP3   OH224682   0.585   4.893   3.120
 8242TIP3    H124683   0.622   4.979   3.140
 8242TIP3    H224684   0.589   4.845   3.203
 8243TIP3   OH224685   5.913   6.351   2.915
 8243TIP3    H124686   5.961   6.430   2.940
 8243TIP3    H224687   5.929   6.342   2.821
 8244TIP3   OH224688   0.373   7.437   2.055
 8244TIP3    H124689   0.326   7.509   2.012
 8244TIP3    H224690   0.306   7.370   2.069
 8245TIP3   OH224691   0.426   0.851   4.172
 8245TIP3    H124692   0.481   0.924   4.144
 8245TIP3    H224693   0.340   0.891   4.189
 8246TIP3   OH224694   3.603   5.834   5.559
 8246TIP3    H124695   3.621   5.916   5.606
 8246TIP3    H224696   3.588   5.862   5.469
 8247TIP3   OH224697   3.070   4.706   2.863
 8247TIP3    H124698   3.132   4.639   2.891
 8247TIP3    H224699   3.055   4.759   2.942
 8248TIP3   OH224700   5.677   7.068   3.356
 8248TIP3    H124701   5.613   7.066   3.284
 8248TIP3    H224702   5.672   6.981   3.395
 8249TIP3   OH224703   4.807   6.790   6.551
 8249TIP3    H124704   4.893   6.755   6.528
 8249TIP3    H224705   4.759   6.793   6.468
 8250TIP3   OH224706   1.434   1.432   3.474
 8250TIP3    H124707   1.490   1.403   3.402
 8250TIP3    H224708   1.354   1.380   3.464
 8251TIP3   OH224709   5.001   2.583   4.220
 8251TIP3    H124710   4.994   2.488   4.228
 8251TIP3    H224711   4.913   2.611   4.195
 8252TIP3   OH224712   5.524   7.680   5.360
 8252TIP3    H124713   5.498   7.702   5.271
 8252TIP3    H224714   5.472   7.739   5.415
 8253TIP3   OH224715   2.400   1.427   6.431
 8253TIP3    H124716   2.414   1.370   6.507
 8253TIP3    H224717   2.431   1.513   6.460
 8254TIP3   OH224718   0.478   4.293   6.766
 8254TIP3    H124719   0.402   4.323   6.716
 8254TIP3    H224720   0.511   4.218   6.717
 8255TIP3   OH224721   6.756  -0.010   2.067
 8255TIP3    H124722   6.671  -0.044   2.094
 8255TIP3    H224723   6.768   0.070   2.119
 8256TIP3   OH224724   6.688   3.208   5.494
 8256TIP3    H124725   6.688   3.264   5.572
 8256TIP3    H224726   6.637   3.131   5.519
 8257TIP3   OH224727   4.473   5.368   0.869
 8257TIP3    H124728   4.493   5.334   0.782
 8257TIP3    H224729   4.543   5.335   0.925
 8258TIP3   OH224730   1.319   2.590   4.424
 8258TIP3    H124731   1.364   2.505   4.427
 8258TIP3    H224732   1.383   2.652   4.460
 8259TIP3   OH224733   3.287   2.162   4.950
 8259TIP3    H124734   3.287   2.250   4.913
 8259TIP3    H224735   3.215   2.116   4.906
 8260TIP3   OH224736   5.341   4.970   1.101
 8260TIP3    H124737   5.427   4.984   1.062
 8260TIP3    H224738   5.354   4.895   1.160
 8261TIP3   OH224739   2.016   4.434   3.819
 8261TIP3    H124740   2.070   4.355   3.809
 8261TIP3    H224741   2.016   4.474   3.732
 8262TIP3   OH224742   0.189   3.373   3.777
 8262TIP3    H124743   0.165   3.285   3.747
 8262TIP3    H224744   0.107   3.410   3.810
 8263TIP3   OH224745   5.770   0.793   3.421
 8263TIP3    H124746   5.741   0.739   3.347
 8263TIP3    H224747   5.826   0.859   3.381
 8264TIP3   OH224748   5.756   0.943   4.636
 8264TIP3    H124749   5.675   0.942   4.586
 8264TIP3    H224750   5.776   1.036   4.647
 8265TIP3   OH224751   1.140   7.321   2.664
 8265TIP3    H124752   1.066   7.328   2.604
 8265TIP3    H224753   1.103   7.339   2.750
 8266TIP3   OH224754   0.373   1.402   5.482
 8266TIP3    H124755   0.409   1.314   5.471
 8266TIP3    H224756   0.448   1.460   5.468
 8267TIP3   OH224757   6.928   3.507   1.248
 8267TIP3    H124758   6.939   3.422   1.291
 8267TIP3    H224759   6.968   3.496   1.162
 8268TIP3   OH224760   4.363   7.315   1.706
 8268TIP3    H124761   4.315   7.398   1.708
 8268TIP3    H224762   4.387   7.298   1.797
 8269TIP3   OH224763   7.763   4.337   5.766
 8269TIP3    H124764   7.810   4.284   5.830
 8269TIP3    H224765   7.690   4.282   5.738
 8270TIP3   OH224766   7.763   6.131   3.736
 8270TIP3    H124767   7.768   6.111   3.829
 8270TIP3    H224768   7.678   6.175   3.726
 8271TIP3   OH224769   0.798   6.533   1.146
 8271TIP3    H124770   0.720   6.478   1.135
 8271TIP3    H224771   0.768   6.622   1.126
 8272TIP3   OH224772   6.349   1.304   0.638
 8272TIP3    H124773   6.337   1.226   0.585
 8272TIP3    H224774   6.359   1.272   0.728
 8273TIP3   OH224775   5.569   5.448   6.530
 8273TIP3    H124776   5.542   5.531   6.491
 8273TIP3    H224777   5.641   5.417   6.474
 8274TIP3   OH224778   6.113   6.926   4.411
 8274TIP3    H124779   6.169   6.949   4.486
 8274TIP3    H224780   6.171   6.875   4.353
 8275TIP3   OH224781   1.753   3.512   4.865
 8275TIP3    H124782   1.685   3.462   4.910
 8275TIP3    H224783   1.807   3.548   4.935
 8276TIP3   OH224784   5.535   3.606   1.615
 8276TIP3    H124785   5.594   3.551   1.666
 8276TIP3    H224786   5.593   3.662   1.564
 8277TIP3   OH224787   5.075   4.001   3.549
 8277TIP3    H124788   5.029   3.956   3.620
 8277TIP3    H224789   5.161   4.021   3.586
 8278TIP3   OH224790   1.277   5.430   3.122
 8278TIP3    H124791   1.269   5.525   3.113
 8278TIP3    H224792   1.259   5.413   3.215
 8279TIP3   OH224793   3.226   6.509   1.481
 8279TIP3    H124794   3.251   6.560   1.404
 8279TIP3    H224795   3.185   6.430   1.445
 8280TIP3   OH224796   3.027   5.033   4.427
 8280TIP3    H124797   3.086   4.959   4.414
 8280TIP3    H224798   3.050   5.095   4.357
 8281TIP3   OH224799   0.893   1.290   3.840
 8281TIP3    H124800   0.963   1.352   3.858
 8281TIP3    H224801   0.898   1.225   3.910
 8282TIP3   OH224802   3.672   4.478   6.619
 8282TIP3    H124803   3.606   4.486   6.688
 8282TIP3    H224804   3.647   4.545   6.555
 8283TIP3   OH224805   0.171   1.307   3.894
 8283TIP3    H124806   0.264   1.322   3.913
 8283TIP3    H224807   0.153   1.362   3.818
 8284TIP3   OH224808   1.374   3.827   1.485
 8284TIP3    H124809   1.334   3.912   1.505
 8284TIP3    H224810   1.315   3.787   1.422
 8285TIP3   OH224811   6.869   2.858   0.861
 8285TIP3    H124812   6.945   2.847   0.804
 8285TIP3    H224813   6.802   2.803   0.822
 8286TIP3   OH224814   8.104   1.407   4.139
 8286TIP3    H124815   8.144   1.438   4.058
 8286TIP3    H224816   8.014   1.441   4.137
 8287TIP3   OH224817   5.793   4.994   1.490
 8287TIP3    H124818   5.715   5.026   1.444
 8287TIP3    H224819   5.864   5.004   1.427
 8288TIP3   OH224820   0.753   6.558   5.010
 8288TIP3    H124821   0.838   6.558   4.967
 8288TIP3    H224822   0.693   6.595   4.946
 8289TIP3   OH224823   2.829   3.226   3.683
 8289TIP3    H124824   2.904   3.173   3.708
 8289TIP3    H224825   2.794   3.183   3.605
 8290TIP3   OH224826   1.630   6.085   4.806
 8290TIP3    H124827   1.623   5.997   4.844
 8290TIP3    H224828   1.696   6.077   4.738
 8291TIP3   OH224829   6.205   6.061   5.861
 8291TIP3    H124830   6.131   6.105   5.817
 8291TIP3    H224831   6.206   5.973   5.822
 8292TIP3   OH224832   6.894   4.182   3.179
 8292TIP3    H124833   6.952   4.109   3.159
 8292TIP3    H224834   6.913   4.247   3.111
 8293TIP3   OH224835   1.473   0.326   5.568
 8293TIP3    H124836   1.388   0.339   5.526
 8293TIP3    H224837   1.533   0.381   5.518
 8294TIP3   OH224838   7.188   7.114   6.011
 8294TIP3    H124839   7.110   7.140   5.961
 8294TIP3    H224840   7.156   7.048   6.072
 8295TIP3   OH224841   1.013   4.215   1.521
 8295TIP3    H124842   0.918   4.204   1.516
 8295TIP3    H224843   1.035   4.272   1.447
 8296TIP3   OH224844   1.676   0.461   3.257
 8296TIP3    H124845   1.624   0.498   3.186
 8296TIP3    H224846   1.640   0.502   3.336
 8297TIP3   OH224847   5.922   5.372   4.106
 8297TIP3    H124848   5.869   5.292   4.110
 8297TIP3    H224849   5.944   5.382   4.013
 8298TIP3   OH224850   4.762   1.701   5.251
 8298TIP3    H124851   4.764   1.722   5.345
 8298TIP3    H224852   4.671   1.675   5.234
 8299TIP3   OH224853   6.344   5.113   1.088
 8299TIP3    H124854   6.380   5.043   1.034
 8299TIP3    H224855   6.368   5.088   1.177
 8300TIP3   OH224856   2.302   2.609   0.772
 8300TIP3    H124857   2.360   2.673   0.814
 8300TIP3    H224858   2.359   2.535   0.752
 8301TIP3   OH224859   3.644   0.014   0.579
 8301TIP3    H124860   3.573   0.009   0.516
 8301TIP3    H224861   3.719   0.045   0.529
 8302TIP3   OH224862   5.313   4.806   4.580
 8302TIP3    H124863   5.256   4.752   4.634
 8302TIP3    H224864   5.400   4.765   4.588
 8303TIP3   OH224865   4.313   0.505   3.592
 8303TIP3    H124866   4.249   0.575   3.575
 8303TIP3    H224867   4.385   0.524   3.532
 8304TIP3   OH224868   5.110   5.781   0.438
 8304TIP3    H124869   5.056   5.702   0.430
 8304TIP3    H224870   5.186   5.764   0.382
 8305TIP3   OH224871   6.861   4.732   0.582
 8305TIP3    H124872   6.909   4.697   0.507
 8305TIP3    H224873   6.917   4.715   0.658
 8306TIP3   OH224874   0.161   4.949   2.830
 8306TIP3    H124875   0.251   4.967   2.858
 8306TIP3    H224876   0.108   5.010   2.882
 8307TIP3   OH224877   5.750   0.588   4.148
 8307TIP3    H124878   5.777   0.519   4.208
 8307TIP3    H224879   5.655   0.587   4.150
 8308TIP3   OH224880   7.130   2.009   6.086
 8308TIP3    H124881   7.085   2.074   6.140
 8308TIP3    H224882   7.223   2.029   6.098
 8309TIP3   OH224883   1.530   2.639   5.697
 8309TIP3    H124884   1.506   2.731   5.710
 8309TIP3    H224885   1.624   2.640   5.681
 8310TIP3   OH224886   2.666   4.814   1.640
 8310TIP3    H124887   2.730   4.808   1.710
 8310TIP3    H224888   2.620   4.730   1.642
 8311TIP3   OH224889   0.180   7.620   3.824
 8311TIP3    H124890   0.208   7.709   3.848
 8311TIP3    H224891   0.250   7.563   3.856
 8312TIP3   OH224892   2.291   4.426   3.417
 8312TIP3    H124893   2.236   4.356   3.450
 8312TIP3    H224894   2.274   4.500   3.476
 8313TIP3   OH224895   4.114   2.084   5.202
 8313TIP3    H124896   4.190   2.111   5.254
 8313TIP3    H224897   4.113   1.989   5.210
 8314TIP3   OH224898   1.869   7.769   4.699
 8314TIP3    H124899   1.932   7.778   4.770
 8314TIP3    H224900   1.923   7.768   4.620
 8315TIP3   OH224901   5.870   5.492   0.956
 8315TIP3    H124902   5.845   5.584   0.972
 8315TIP3    H224903   5.802   5.458   0.898
 8316TIP3   OH224904   1.212   2.107   3.979
 8316TIP3    H124905   1.238   2.194   3.949
 8316TIP3    H224906   1.266   2.090   4.056
 8317TIP3   OH224907   6.866   6.508   2.932
 8317TIP3    H124908   6.813   6.463   2.998
 8317TIP3    H224909   6.846   6.601   2.944
 8318TIP3   OH224910   6.472   7.633   4.904
 8318TIP3    H124911   6.541   7.570   4.924
 8318TIP3    H224912   6.420   7.638   4.984
 8319TIP3   OH224913   2.852   1.253   6.351
 8319TIP3    H124914   2.912   1.179   6.358
 8319TIP3    H224915   2.775   1.226   6.400
 8320TIP3   OH224916   1.496   5.548   0.846
 8320TIP3    H124917   1.462   5.471   0.891
 8320TIP3    H224918   1.485   5.528   0.753
 8321TIP3   OH224919   1.708   0.088   3.082
 8321TIP3    H124920   1.654   0.059   3.155
 8321TIP3    H224921   1.798   0.078   3.112
 8322TIP3   OH224922   7.476   4.537   1.748
 8322TIP3    H124923   7.552   4.481   1.763
 8322TIP3    H224924   7.491   4.615   1.801
 8323TIP3   OH224925   1.356   1.661   2.504
 8323TIP3    H124926   1.290   1.695   2.564
 8323TIP3    H224927   1.306   1.633   2.427
 8324TIP3   OH224928   5.280   0.431   4.541
 8324TIP3    H124929   5.352   0.436   4.479
 8324TIP3    H224930   5.316   0.464   4.623
 8325TIP3   OH224931   7.055   3.695   0.059
 8325TIP3    H124932   7.049   3.781   0.017
 8325TIP3    H224933   7.145   3.667   0.041
 8326TIP3   OH224934   3.359   7.141   0.135
 8326TIP3    H124935   3.441   7.189   0.120
 8326TIP3    H224936   3.290   7.203   0.112
 8327TIP3   OH224937   4.181   3.858   6.589
 8327TIP3    H124938   4.200   3.765   6.605
 8327TIP3    H224939   4.110   3.879   6.650
 8328TIP3   OH224940   7.629   2.419   5.093
 8328TIP3    H124941   7.657   2.508   5.113
 8328TIP3    H224942   7.697   2.363   5.132
 8329TIP3   OH224943   2.584   4.324   4.266
 8329TIP3    H124944   2.533   4.402   4.289
 8329TIP3    H224945   2.658   4.325   4.328
 8330TIP3   OH224946   5.129   7.757   3.875
 8330TIP3    H124947   5.124   7.710   3.792
 8330TIP3    H224948   5.116   7.849   3.851
 8331TIP3   OH224949   6.648   6.518   2.004
 8331TIP3    H124950   6.721   6.528   2.064
 8331TIP3    H224951   6.588   6.589   2.027
 8332TIP3   OH224952   7.874   0.597   4.422
 8332TIP3    H124953   7.946   0.659   4.432
 8332TIP3    H224954   7.855   0.568   4.511
 8333TIP3   OH224955   3.284   6.883  -0.015
 8333TIP3    H124956   3.326   6.959   0.025
 8333TIP3    H224957   3.259   6.827   0.058
 8334TIP3   OH224958   7.446   0.507   2.988
 8334TIP3    H124959   7.384   0.576   3.013
 8334TIP3    H224960   7.414   0.477   2.903
 8335TIP3   OH224961   7.520   5.161   0.837
 8335TIP3    H124962   7.523   5.256   0.826
 8335TIP3    H224963   7.480   5.149   0.923
 8336TIP3   OH224964   2.996   7.646   2.572
 8336TIP3    H124965   3.069   7.599   2.530
 8336TIP3    H224966   2.948   7.578   2.619
 8337TIP3   OH224967   5.961   6.634   0.890
 8337TIP3    H124968   5.985   6.650   0.799
 8337TIP3    H224969   6.046   6.622   0.934
 8338TIP3   OH224970   1.135   3.415   5.756
 8338TIP3    H124971   1.083   3.352   5.706
 8338TIP3    H224972   1.221   3.415   5.713
 8339TIP3   OH224973   7.266   0.640   0.633
 8339TIP3    H124974   7.297   0.597   0.712
 8339TIP3    H224975   7.341   0.690   0.601
 8340TIP3   OH224976   1.574   1.723   6.739
 8340TIP3    H124977   1.662   1.742   6.707
 8340TIP3    H224978   1.573   1.756   6.829
 8341TIP3   OH224979   0.948   1.786   2.115
 8341TIP3    H124980   0.895   1.863   2.094
 8341TIP3    H224981   1.038   1.814   2.098
 8342TIP3   OH224982   6.197   7.649   3.727
 8342TIP3    H124983   6.221   7.712   3.794
 8342TIP3    H224984   6.280   7.626   3.685
 8343TIP3   OH224985   7.392   7.385   1.214
 8343TIP3    H124986   7.303   7.363   1.185
 8343TIP3    H224987   7.433   7.423   1.136
 8344TIP3   OH224988   0.868   4.519   1.586
 8344TIP3    H124989   0.876   4.559   1.500
 8344TIP3    H224990   0.813   4.580   1.636
 8345TIP3   OH224991   8.058   6.506   6.123
 8345TIP3    H124992   8.090   6.553   6.200
 8345TIP3    H224993   8.138   6.475   6.079
 8346TIP3   OH224994   3.325   0.731   2.467
 8346TIP3    H124995   3.324   0.645   2.425
 8346TIP3    H224996   3.233   0.752   2.482
 8347TIP3   OH224997   6.402   2.277   6.578
 8347TIP3    H124998   6.452   2.328   6.642
 8347TIP3    H224999   6.435   2.306   6.493
 8348TIP3   OH225000   3.650   2.168   6.047
 8348TIP3    H125001   3.690   2.090   6.008
 8348TIP3    H225002   3.590   2.133   6.113
 8349TIP3   OH225003   4.741   3.677   3.070
 8349TIP3    H125004   4.689   3.631   3.137
 8349TIP3    H225005   4.802   3.611   3.038
 8350TIP3   OH225006   3.480   3.441   6.641
 8350TIP3    H125007   3.421   3.369   6.620
 8350TIP3    H225008   3.428   3.520   6.625
 8351TIP3   OH225009   0.695   7.362   4.586
 8351TIP3    H125010   0.628   7.428   4.606
 8351TIP3    H225011   0.719   7.325   4.670
 8352TIP3   OH225012   5.266   3.389   6.109
 8352TIP3    H125013   5.172   3.405   6.112
 8352TIP3    H225014   5.281   3.324   6.178
 8353TIP3   OH225015   3.779   3.105   3.298
 8353TIP3    H125016   3.683   3.113   3.294
 8353TIP3    H225017   3.795   3.011   3.294
 8354TIP3   OH225018   1.980   3.123   4.957
 8354TIP3    H125019   2.041   3.187   4.921
 8354TIP3    H225020   1.937   3.083   4.881
 8355TIP3   OH225021   0.844   0.125   4.604
 8355TIP3    H125022   0.761   0.081   4.627
 8355TIP3    H225023   0.862   0.095   4.515
 8356TIP3   OH225024   3.719   5.608   4.256
 8356TIP3    H125025   3.724   5.658   4.174
 8356TIP3    H225026   3.762   5.525   4.235
 8357TIP3   OH225027   7.967   6.820   4.908
 8357TIP3    H125028   8.030   6.830   4.836
 8357TIP3    H225029   7.972   6.903   4.955
 8358TIP3   OH225030   5.218   2.889   6.122
 8358TIP3    H125031   5.191   2.905   6.032
 8358TIP3    H225032   5.267   2.967   6.147
 8359TIP3   OH225033   4.739   7.281   2.872
 8359TIP3    H125034   4.673   7.243   2.814
 8359TIP3    H225035   4.752   7.370   2.838
 8360TIP3   OH225036   4.953   4.273   0.364
 8360TIP3    H125037   5.045   4.287   0.341
 8360TIP3    H225038   4.956   4.215   0.440
 8361TIP3   OH225039   5.875   3.150   3.654
 8361TIP3    H125040   5.945   3.115   3.709
 8361TIP3    H225041   5.844   3.075   3.603
 8362TIP3   OH225042   3.802   0.883   1.999
 8362TIP3    H125043   3.807   0.814   2.065
 8362TIP3    H225044   3.806   0.964   2.050
 8363TIP3   OH225045   5.004   7.760   4.656
 8363TIP3    H125046   4.915   7.768   4.622
 8363TIP3    H225047   4.994   7.712   4.739
 8364TIP3   OH225048   7.310   7.681   2.262
 8364TIP3    H125049   7.302   7.768   2.223
 8364TIP3    H225050   7.314   7.697   2.357
 8365TIP3   OH225051   0.020   5.871   5.817
 8365TIP3    H125052  -0.051   5.863   5.753
 8365TIP3    H225053   0.054   5.959   5.805
 8366TIP3   OH225054   6.021   1.930   2.130
 8366TIP3    H125055   6.056   1.843   2.110
 8366TIP3    H225056   5.959   1.948   2.059
 8367TIP3   OH225057   0.156   3.866   5.835
 8367TIP3    H125058   0.136   3.809   5.909
 8367TIP3    H225059   0.245   3.895   5.850
 8368TIP3   OH225060   0.802   2.916   0.004
 8368TIP3    H125061   0.853   2.899   0.084
 8368TIP3    H225062   0.750   2.993   0.025
 8369TIP3   OH225063   2.716   3.101   3.907
 8369TIP3    H125064   2.682   3.021   3.867
 8369TIP3    H225065   2.769   3.141   3.838
 8370TIP3   OH225066   1.833   1.295   2.950
 8370TIP3    H125067   1.889   1.328   2.880
 8370TIP3    H225068   1.760   1.357   2.953
 8371TIP3   OH225069   5.159   4.298   5.210
 8371TIP3    H125070   5.071   4.263   5.223
 8371TIP3    H225071   5.155   4.386   5.249
 8372TIP3   OH225072   8.201   0.266   0.109
 8372TIP3    H125073   8.247   0.348   0.126
 8372TIP3    H225074   8.170   0.273   0.019
 8373TIP3   OH225075   8.129   2.742   4.742
 8373TIP3    H125076   8.139   2.752   4.837
 8373TIP3    H225077   8.050   2.793   4.721
 8374TIP3   OH225078   3.886   0.958   1.272
 8374TIP3    H125079   3.826   1.017   1.227
 8374TIP3    H225080   3.844   0.872   1.267
 8375TIP3   OH225081   7.251   5.456   0.609
 8375TIP3    H125082   7.340   5.482   0.634
 8375TIP3    H225083   7.233   5.379   0.661
 8376TIP3   OH225084   1.891   1.629   0.934
 8376TIP3    H125085   1.936   1.566   0.878
 8376TIP3    H225086   1.824   1.668   0.878
 8377TIP3   OH225087   0.856   1.966   2.577
 8377TIP3    H125088   0.882   1.876   2.593
 8377TIP3    H225089   0.806   1.991   2.655
 8378TIP3   OH225090   0.130   5.470   2.997
 8378TIP3    H125091   0.142   5.420   2.917
 8378TIP3    H225092   0.089   5.552   2.968
 8379TIP3   OH225093   6.709   3.111   4.057
 8379TIP3    H125094   6.631   3.125   4.003
 8379TIP3    H225095   6.773   3.174   4.024
 8380TIP3   OH225096   5.969   4.257   6.564
 8380TIP3    H125097   5.876   4.232   6.568
 8380TIP3    H225098   5.996   4.235   6.475
 8381TIP3   OH225099   5.092   5.347   5.804
 8381TIP3    H125100   5.085   5.286   5.878
 8381TIP3    H225101   5.015   5.329   5.750
 8382TIP3   OH225102   2.656   1.871   6.031
 8382TIP3    H125103   2.720   1.818   5.984
 8382TIP3    H225104   2.709   1.935   6.079
 8383TIP3   OH225105   2.530   0.961   1.350
 8383TIP3    H125106   2.453   0.907   1.328
 8383TIP3    H225107   2.604   0.902   1.343
 8384TIP3   OH225108   8.271   5.630   3.521
 8384TIP3    H125109   8.201   5.613   3.458
 8384TIP3    H225110   8.334   5.559   3.506
 8385TIP3   OH225111   7.266   0.878   3.667
 8385TIP3    H125112   7.251   0.952   3.726
 8385TIP3    H225113   7.296   0.807   3.724
 8386TIP3   OH225114   1.199   7.799   4.666
 8386TIP3    H125115   1.242   7.714   4.653
 8386TIP3    H225116   1.205   7.815   4.760
 8387TIP3   OH225117   3.578   3.906   6.539
 8387TIP3    H125118   3.517   3.979   6.541
 8387TIP3    H225119   3.649   3.935   6.482
 8388TIP3   OH225120   2.589   0.894   3.665
 8388TIP3    H125121   2.642   0.964   3.705
 8388TIP3    H225122   2.501   0.910   3.698
 8389TIP3   OH225123   5.294   4.353   2.821
 8389TIP3    H125124   5.346   4.317   2.892
 8389TIP3    H225125   5.298   4.286   2.752
 8390TIP3   OH225126   5.252   4.442   1.424
 8390TIP3    H125127   5.285   4.363   1.381
 8390TIP3    H225128   5.321   4.466   1.485
 8391TIP3   OH225129   6.512   4.970   3.805
 8391TIP3    H125130   6.552   4.980   3.719
 8391TIP3    H225131   6.544   5.043   3.856
 8392TIP3   OH225132   4.073   3.141   0.234
 8392TIP3    H125133   4.052   3.120   0.325
 8392TIP3    H225134   4.002   3.199   0.206
 8393TIP3   OH225135   5.950   5.543   0.205
 8393TIP3    H125136   5.977   5.474   0.144
 8393TIP3    H225137   5.856   5.549   0.193
 8394TIP3   OH225138   4.463  -0.010   5.608
 8394TIP3    H125139   4.533   0.046   5.577
 8394TIP3    H225140   4.451   0.014   5.700
 8395TIP3   OH225141   6.193   2.617   2.510
 8395TIP3    H125142   6.131   2.636   2.581
 8395TIP3    H225143   6.235   2.536   2.536
 8396TIP3   OH225144   2.047   6.543   1.484
 8396TIP3    H125145   1.953   6.537   1.506
 8396TIP3    H225146   2.070   6.455   1.455
 8397TIP3   OH225147   5.195   2.567   4.870
 8397TIP3    H125148   5.149   2.650   4.880
 8397TIP3    H225149   5.126   2.501   4.863
 8398TIP3   OH225150   4.285   6.713   3.882
 8398TIP3    H125151   4.281   6.754   3.795
 8398TIP3    H225152   4.345   6.639   3.871
 8399TIP3   OH225153   7.766   5.649   6.173
 8399TIP3    H125154   7.830   5.652   6.244
 8399TIP3    H225155   7.695   5.595   6.207
 8400TIP3   OH225156   5.735   6.708   4.750
 8400TIP3    H125157   5.790   6.784   4.767
 8400TIP3    H225158   5.741   6.694   4.656
 8401TIP3   OH225159   7.111   5.447   4.359
 8401TIP3    H125160   7.121   5.533   4.318
 8401TIP3    H225161   7.123   5.463   4.453
 8402TIP3   OH225162   4.135   2.889   3.173
 8402TIP3    H125163   4.066   2.870   3.236
 8402TIP3    H225164   4.206   2.829   3.196
 8403TIP3   OH225165   2.688   1.390   1.677
 8403TIP3    H125166   2.735   1.322   1.630
 8403TIP3    H225167   2.748   1.416   1.748
 8404TIP3   OH225168   4.775   1.863   5.025
 8404TIP3    H125169   4.694   1.909   5.044
 8404TIP3    H225170   4.784   1.799   5.095
 8405TIP3   OH225171   0.191   5.666   0.101
 8405TIP3    H125172   0.112   5.708   0.134
 8405TIP3    H225173   0.203   5.590   0.158
 8406TIP3   OH225174   0.569   6.960   3.980
 8406TIP3    H125175   0.597   6.966   3.889
 8406TIP3    H225176   0.603   6.876   4.010
 8407TIP3   OH225177   0.549   5.233   4.605
 8407TIP3    H125178   0.583   5.170   4.541
 8407TIP3    H225179   0.622   5.293   4.620
 8408TIP3   OH225180   6.332   1.288   3.567
 8408TIP3    H125181   6.290   1.375   3.574
 8408TIP3    H225182   6.263   1.232   3.530
 8409TIP3   OH225183   4.999   2.310   2.820
 8409TIP3    H125184   5.073   2.370   2.832
 8409TIP3    H225185   4.979   2.315   2.726
 8410TIP3   OH225186   3.943   3.247   6.453
 8410TIP3    H125187   3.919   3.312   6.519
 8410TIP3    H225188   3.875   3.255   6.386
 8411TIP3   OH225189   8.135   4.241   3.925
 8411TIP3    H125190   8.153   4.325   3.968
 8411TIP3    H225191   8.183   4.176   3.977
 8412TIP3   OH225192   7.982   2.098   0.044
 8412TIP3    H125193   7.890   2.118   0.061
 8412TIP3    H225194   7.980   2.034  -0.028
 8413TIP3   OH225195   8.103   4.873   0.822
 8413TIP3    H125196   8.031   4.932   0.846
 8413TIP3    H225197   8.118   4.821   0.901
 8414TIP3   OH225198   3.215   7.296   6.298
 8414TIP3    H125199   3.273   7.220   6.295
 8414TIP3    H225200   3.270   7.367   6.328
 8415TIP3   OH225201   4.421   4.717   4.716
 8415TIP3    H125202   4.456   4.651   4.775
 8415TIP3    H225203   4.331   4.731   4.746
 8416TIP3   OH225204   7.763   5.455   2.941
 8416TIP3    H125205   7.774   5.366   2.908
 8416TIP3    H225206   7.801   5.511   2.873
 8417TIP3   OH225207   4.486   4.441   2.315
 8417TIP3    H125208   4.544   4.504   2.272
 8417TIP3    H225209   4.495   4.361   2.262
 8418TIP3   OH225210   8.085   3.494   5.900
 8418TIP3    H125211   8.130   3.511   5.983
 8418TIP3    H225212   8.135   3.422   5.861
 8419TIP3   OH225213   0.830   0.009   5.160
 8419TIP3    H125214   0.857   0.099   5.177
 8419TIP3    H225215   0.881  -0.043   5.222
 8420TIP3   OH225216   3.447   1.912   0.526
 8420TIP3    H125217   3.451   1.851   0.453
 8420TIP3    H225218   3.384   1.874   0.586
 8421TIP3   OH225219   2.921   0.681   3.606
 8421TIP3    H125220   2.851   0.642   3.657
 8421TIP3    H225221   3.001   0.644   3.643
 8422TIP3   OH225222   6.641   4.755   4.340
 8422TIP3    H125223   6.626   4.809   4.418
 8422TIP3    H225224   6.712   4.800   4.293
 8423TIP3   OH225225   5.741   5.356   1.933
 8423TIP3    H125226   5.768   5.370   2.024
 8423TIP3    H225227   5.646   5.353   1.936
 8424TIP3   OH225228   2.442   1.333   5.194
 8424TIP3    H125229   2.407   1.351   5.281
 8424TIP3    H225230   2.432   1.414   5.146
 8425TIP3   OH225231   2.158   5.087   0.597
 8425TIP3    H125232   2.240   5.073   0.644
 8425TIP3    H225233   2.184   5.136   0.519
 8426TIP3   OH225234   7.717   4.837   5.017
 8426TIP3    H125235   7.660   4.886   5.077
 8426TIP3    H225236   7.658   4.800   4.952
 8427TIP3   OH225237   4.583   4.254   1.879
 8427TIP3    H125238   4.520   4.193   1.916
 8427TIP3    H225239   4.654   4.258   1.943
 8428TIP3   OH225240   6.497   5.421   6.046
 8428TIP3    H125241   6.443   5.345   6.069
 8428TIP3    H225242   6.497   5.475   6.125
 8429TIP3   OH225243   4.524   4.327   0.230
 8429TIP3    H125244   4.534   4.373   0.147
 8429TIP3    H225245   4.601   4.271   0.236
 8430TIP3   OH225246   6.454   5.593   3.685
 8430TIP3    H125247   6.491   5.558   3.766
 8430TIP3    H225248   6.368   5.551   3.678
 8431TIP3   OH225249   7.161   6.721   6.325
 8431TIP3    H125250   7.223   6.746   6.394
 8431TIP3    H225251   7.192   6.636   6.294
 8432TIP3   OH225252   1.827   4.600   2.295
 8432TIP3    H125253   1.755   4.538   2.310
 8432TIP3    H225254   1.904   4.557   2.331
 8433TIP3   OH225255   2.685   5.371   3.351
 8433TIP3    H125256   2.644   5.457   3.365
 8433TIP3    H225257   2.612   5.309   3.357
 8434TIP3   OH225258   4.460   1.285   5.591
 8434TIP3    H125259   4.484   1.371   5.625
 8434TIP3    H225260   4.390   1.302   5.529
 8435TIP3   OH225261   7.686   2.811   1.911
 8435TIP3    H125262   7.774   2.840   1.933
 8435TIP3    H225263   7.663   2.860   1.832
 8436TIP3   OH225264   6.865   1.692   3.693
 8436TIP3    H125265   6.924   1.706   3.620
 8436TIP3    H225266   6.921   1.692   3.771
 8437TIP3   OH225267   5.419   4.017   2.199
 8437TIP3    H125268   5.461   4.093   2.240
 8437TIP3    H225269   5.398   4.046   2.111
 8438TIP3   OH225270   5.707   1.375   5.431
 8438TIP3    H125271   5.699   1.440   5.501
 8438TIP3    H225272   5.691   1.425   5.350
 8439TIP3   OH225273   1.967   4.410   3.120
 8439TIP3    H125274   1.923   4.460   3.189
 8439TIP3    H225275   2.050   4.455   3.107
 8440TIP3   OH225276   3.973   3.566   1.045
 8440TIP3    H125277   3.886   3.605   1.052
 8440TIP3    H225278   3.994   3.571   0.951
 8441TIP3   OH225279   1.557   0.970   1.442
 8441TIP3    H125280   1.514   1.037   1.494
 8441TIP3    H225281   1.486   0.909   1.418
 8442TIP3   OH225282   1.705   6.588   2.799
 8442TIP3    H125283   1.619   6.622   2.774
 8442TIP3    H225284   1.734   6.647   2.869
 8443TIP3   OH225285   0.713   4.690   6.386
 8443TIP3    H125286   0.773   4.702   6.460
 8443TIP3    H225287   0.676   4.777   6.371
 8444TIP3   OH225288   3.075   1.368   2.437
 8444TIP3    H125289   3.126   1.332   2.364
 8444TIP3    H225290   2.984   1.351   2.413
 8445TIP3   OH225291   3.170   6.136   5.464
 8445TIP3    H125292   3.168   6.052   5.420
 8445TIP3    H225293   3.094   6.135   5.522
 8446TIP3   OH225294   5.892   5.525   5.793
 8446TIP3    H125295   5.949   5.529   5.871
 8446TIP3    H225296   5.923   5.448   5.745
 8447TIP3   OH225297   2.035   1.302   3.920
 8447TIP3    H125298   1.945   1.270   3.923
 8447TIP3    H225299   2.028   1.394   3.946
 8448TIP3   OH225300   4.662   5.710   0.013
 8448TIP3    H125301   4.665   5.615   0.015
 8448TIP3    H225302   4.593   5.734   0.074
 8449TIP3   OH225303   7.567   1.451   4.275
 8449TIP3    H125304   7.483   1.406   4.265
 8449TIP3    H225305   7.561   1.527   4.218
 8450TIP3   OH225306   4.798   6.448   4.662
 8450TIP3    H125307   4.798   6.497   4.745
 8450TIP3    H225308   4.775   6.513   4.596
 8451TIP3   OH225309   0.744   5.337   2.062
 8451TIP3    H125310   0.789   5.262   2.024
 8451TIP3    H225311   0.726   5.394   1.987
 8452TIP3   OH225312   0.409   1.867   4.995
 8452TIP3    H125313   0.327   1.829   5.028
 8452TIP3    H225314   0.380   1.940   4.939
 8453TIP3   OH225315   0.575   4.720   4.516
 8453TIP3    H125316   0.658   4.733   4.562
 8453TIP3    H225317   0.510   4.712   4.586
 8454TIP3   OH225318   4.188   4.228   3.312
 8454TIP3    H125319   4.194   4.133   3.318
 8454TIP3    H225320   4.150   4.255   3.395
 8455TIP3   OH225321   4.080   2.923   0.967
 8455TIP3    H125322   4.075   2.929   0.872
 8455TIP3    H225323   4.029   2.846   0.989
 8456TIP3   OH225324   7.802   1.306   2.274
 8456TIP3    H125325   7.720   1.258   2.289
 8456TIP3    H225326   7.847   1.256   2.206
 8457TIP3   OH225327   7.562   1.112   5.183
 8457TIP3    H125328   7.555   1.207   5.196
 8457TIP3    H225329   7.588   1.103   5.091
 8458TIP3   OH225330   0.038   5.911   6.711
 8458TIP3    H125331   0.030   5.851   6.785
 8458TIP3    H225332   0.106   5.872   6.656
 8459TIP3   OH225333   4.578   3.222   0.590
 8459TIP3    H125334   4.507   3.208   0.652
 8459TIP3    H225335   4.538   3.269   0.517
 8460TIP3   OH225336   3.747   7.164   0.918
 8460TIP3    H125337   3.783   7.130   1.000
 8460TIP3    H225338   3.707   7.088   0.875
 8461TIP3   OH225339   3.284   7.694   6.586
 8461TIP3    H125340   3.253   7.775   6.545
 8461TIP3    H225341   3.219   7.629   6.561
 8462TIP3   OH225342   1.863   3.956   1.902
 8462TIP3    H125343   1.916   3.879   1.922
 8462TIP3    H225344   1.812   3.931   1.826
 8463TIP3   OH225345   1.595   6.274   2.465
 8463TIP3    H125346   1.511   6.228   2.457
 8463TIP3    H225347   1.598   6.332   2.388
 8464TIP3   OH225348   5.273   6.756   5.461
 8464TIP3    H125349   5.312   6.674   5.491
 8464TIP3    H225350   5.269   6.811   5.539
 8465TIP3   OH225351   3.490   5.328   5.370
 8465TIP3    H125352   3.496   5.356   5.279
 8465TIP3    H225353   3.438   5.248   5.367
 8466TIP3   OH225354   5.243   7.486   6.503
 8466TIP3    H125355   5.223   7.562   6.557
 8466TIP3    H225356   5.188   7.416   6.539
 8467TIP3   OH225357   2.522   1.821   4.604
 8467TIP3    H125358   2.556   1.746   4.654
 8467TIP3    H225359   2.518   1.789   4.514
 8468TIP3   OH225360   3.339   6.837   0.940
 8468TIP3    H125361   3.274   6.799   0.999
 8468TIP3    H225362   3.387   6.900   0.994
 8469TIP3   OH225363   5.834   6.367   6.469
 8469TIP3    H125364   5.805   6.376   6.559
 8469TIP3    H225365   5.863   6.455   6.444
 8470TIP3   OH225366   4.396   1.868   3.672
 8470TIP3    H125367   4.447   1.929   3.620
 8470TIP3    H225368   4.461   1.813   3.716
 8471TIP3   OH225369   0.778   1.375   0.254
 8471TIP3    H125370   0.818   1.332   0.330
 8471TIP3    H225371   0.798   1.467   0.265
 8472TIP3   OH225372   3.580   2.891   0.958
 8472TIP3    H125373   3.620   2.850   1.034
 8472TIP3    H225374   3.608   2.838   0.884
 8473TIP3   OH225375   6.736   4.228   0.943
 8473TIP3    H125376   6.793   4.285   0.995
 8473TIP3    H225377   6.722   4.276   0.861
 8474TIP3   OH225378   4.076   2.219   5.493
 8474TIP3    H125379   4.157   2.203   5.444
 8474TIP3    H225380   4.011   2.164   5.450
 8475TIP3   OH225381   1.590   5.317   1.632
 8475TIP3    H125382   1.679   5.282   1.641
 8475TIP3    H225383   1.555   5.316   1.720
 8476TIP3   OH225384   6.674   1.953   2.040
 8476TIP3    H125385   6.638   1.907   2.116
 8476TIP3    H225386   6.677   2.045   2.066
 8477TIP3   OH225387   5.997   5.818   2.226
 8477TIP3    H125388   6.076   5.871   2.215
 8477TIP3    H225389   6.019   5.734   2.185
 8478TIP3   OH225390   2.528   7.357   2.768
 8478TIP3    H125391   2.504   7.372   2.676
 8478TIP3    H225392   2.533   7.262   2.777
 8479TIP3   OH225393   6.820   3.545   5.179
 8479TIP3    H125394   6.843   3.464   5.226
 8479TIP3    H225395   6.878   3.611   5.218
 8480TIP3   OH225396   0.923   3.126   1.090
 8480TIP3    H125397   1.017   3.109   1.097
 8480TIP3    H225398   0.917   3.219   1.067
 8481TIP3   OH225399   3.996   3.921   0.862
 8481TIP3    H125400   4.015   3.829   0.881
 8481TIP3    H225401   3.903   3.923   0.839
 8482TIP3   OH225402   5.472   0.425   4.970
 8482TIP3    H125403   5.563   0.454   4.974
 8482TIP3    H225404   5.475   0.332   4.993
 8483TIP3   OH225405   0.123   6.967   5.951
 8483TIP3    H125406   0.116   7.061   5.968
 8483TIP3    H225407   0.186   6.935   6.016
 8484TIP3   OH225408   0.268   2.308   3.512
 8484TIP3    H125409   0.318   2.383   3.543
 8484TIP3    H225410   0.177   2.331   3.528
 8485TIP3   OH225411   4.240   1.519   4.238
 8485TIP3    H125412   4.312   1.549   4.183
 8485TIP3    H225413   4.185   1.468   4.179
 8486TIP3   OH225414   0.233   3.675   4.819
 8486TIP3    H125415   0.148   3.711   4.792
 8486TIP3    H225416   0.210   3.605   4.881
 8487TIP3   OH225417   5.874   1.202   3.654
 8487TIP3    H125418   5.832   1.264   3.594
 8487TIP3    H225419   5.802   1.151   3.690
 8488TIP3   OH225420   6.932   1.964   2.378
 8488TIP3    H125421   6.858   2.024   2.389
 8488TIP3    H225422   6.989   2.008   2.315
 8489TIP3   OH225423   0.757   5.520   3.175
 8489TIP3    H125424   0.663   5.526   3.163
 8489TIP3    H225425   0.768   5.485   3.264
 8490TIP3   OH225426   7.558   6.545   0.960
 8490TIP3    H125427   7.524   6.563   1.048
 8490TIP3    H225428   7.636   6.601   0.952
 8491TIP3   OH225429   2.143   7.612   6.166
 8491TIP3    H125430   2.086   7.594   6.091
 8491TIP3    H225431   2.155   7.707   6.165
 8492TIP3   OH225432   8.012   7.712   3.696
 8492TIP3    H125433   7.981   7.724   3.786
 8492TIP3    H225434   8.103   7.743   3.697
 8493TIP3   OH225435   4.716   5.988   2.144
 8493TIP3    H125436   4.669   6.062   2.184
 8493TIP3    H225437   4.648   5.939   2.098
 8494TIP3   OH225438   8.055   5.182   4.804
 8494TIP3    H125439   8.146   5.180   4.835
 8494TIP3    H225440   8.003   5.198   4.882
 8495TIP3   OH225441   4.579   6.859   3.104
 8495TIP3    H125442   4.646   6.896   3.047
 8495TIP3    H225443   4.511   6.926   3.109
 8496TIP3   OH225444   5.832   5.935   3.822
 8496TIP3    H125445   5.863   6.023   3.803
 8496TIP3    H225446   5.773   5.914   3.750
 8497TIP3   OH225447   8.140   6.615   2.578
 8497TIP3    H125448   8.182   6.694   2.545
 8497TIP3    H225449   8.165   6.612   2.671
 8498TIP3   OH225450   8.176   6.789   4.726
 8498TIP3    H125451   8.226   6.867   4.700
 8498TIP3    H225452   8.182   6.730   4.651
 8499TIP3   OH225453   4.554   6.592   2.738
 8499TIP3    H125454   4.499   6.622   2.811
 8499TIP3    H225455   4.559   6.497   2.750
 8500TIP3   OH225456   7.289   5.404   3.162
 8500TIP3    H125457   7.380   5.429   3.181
 8500TIP3    H225458   7.281   5.316   3.197
 8501TIP3   OH225459   7.199   7.551   0.180
 8501TIP3    H125460   7.158   7.631   0.148
 8501TIP3    H225461   7.129   7.486   0.180
 8502TIP3   OH225462   2.099   7.291   2.249
 8502TIP3    H125463   2.145   7.208   2.237
 8502TIP3    H225464   2.163   7.348   2.292
 8503TIP3   OH225465   0.936   0.373   0.148
 8503TIP3    H125466   0.940   0.332   0.061
 8503TIP3    H225467   0.979   0.457   0.136
 8504TIP3   OH225468   3.077   6.572   6.080
 8504TIP3    H125469   3.055   6.538   5.993
 8504TIP3    H225470   2.993   6.596   6.118
 8505TIP3   OH225471   0.064   4.786   5.251
 8505TIP3    H125472   0.095   4.811   5.164
 8505TIP3    H225473  -0.022   4.746   5.235
 8506TIP3   OH225474   6.977   1.109   1.366
 8506TIP3    H125475   7.041   1.180   1.373
 8506TIP3    H225476   6.912   1.128   1.434
 8507TIP3   OH225477   2.088   0.505   2.712
 8507TIP3    H125478   2.107   0.597   2.696
 8507TIP3    H225479   2.061   0.471   2.627
 8508TIP3   OH225480   6.055   3.130   6.573
 8508TIP3    H125481   5.994   3.203   6.565
 8508TIP3    H225482   6.000   3.052   6.574
 8509TIP3   OH225483   4.158   6.753   2.355
 8509TIP3    H125484   4.072   6.793   2.348
 8509TIP3    H225485   4.165   6.697   2.278
 8510TIP3   OH225486   6.690   4.946   6.768
 8510TIP3    H125487   6.751   4.933   6.696
 8510TIP3    H225488   6.608   4.971   6.726
 8511TIP3   OH225489   7.310   4.634   1.228
 8511TIP3    H125490   7.308   4.728   1.242
 8511TIP3    H225491   7.278   4.596   1.310
 8512TIP3   OH225492   0.388   2.163   5.464
 8512TIP3    H125493   0.414   2.253   5.443
 8512TIP3    H225494   0.320   2.142   5.401
 8513TIP3   OH225495   1.599   6.163   1.344
 8513TIP3    H125496   1.542   6.217   1.398
 8513TIP3    H225497   1.590   6.199   1.256
 8514TIP3   OH225498   5.101   2.015   2.688
 8514TIP3    H125499   5.040   2.063   2.631
 8514TIP3    H225500   5.100   2.063   2.770
 8515TIP3   OH225501   1.018   2.195   1.823
 8515TIP3    H125502   0.974   2.226   1.744
 8515TIP3    H225503   1.110   2.188   1.798
 8516TIP3   OH225504   4.464   1.377   0.395
 8516TIP3    H125505   4.403   1.427   0.449
 8516TIP3    H225506   4.435   1.392   0.305
 8517TIP3   OH225507   3.437   7.684   1.219
 8517TIP3    H125508   3.531   7.678   1.201
 8517TIP3    H225509   3.406   7.593   1.216
 8518TIP3   OH225510   4.422   6.638   6.229
 8518TIP3    H125511   4.334   6.611   6.255
 8518TIP3    H225512   4.408   6.687   6.148
 8519TIP3   OH225513   5.405   0.197   3.227
 8519TIP3    H125514   5.333   0.243   3.271
 8519TIP3    H225515   5.444   0.143   3.296
 8520TIP3   OH225516   1.754   0.851   1.657
 8520TIP3    H125517   1.844   0.837   1.626
 8520TIP3    H225518   1.699   0.812   1.590
 8521TIP3   OH225519   6.986   3.447   0.718
 8521TIP3    H125520   7.075   3.432   0.686
 8521TIP3    H225521   6.931   3.391   0.663
 8522TIP3   OH225522   1.306   6.469   1.772
 8522TIP3    H125523   1.260   6.490   1.691
 8522TIP3    H225524   1.345   6.551   1.801
 8523TIP3   OH225525   2.902   4.256   1.277
 8523TIP3    H125526   2.869   4.239   1.365
 8523TIP3    H225527   2.862   4.187   1.223
 8524TIP3   OH225528   7.797   7.265   1.602
 8524TIP3    H125529   7.839   7.351   1.600
 8524TIP3    H225530   7.703   7.284   1.595
 8525TIP3   OH225531   0.643   0.132   0.053
 8525TIP3    H125532   0.549   0.123   0.069
 8525TIP3    H225533   0.681   0.048   0.080
 8526TIP3   OH225534   7.503   3.643   1.549
 8526TIP3    H125535   7.527   3.551   1.544
 8526TIP3    H225536   7.425   3.645   1.605
 8527TIP3   OH225537   6.800   5.104   3.290
 8527TIP3    H125538   6.744   5.164   3.243
 8527TIP3    H225539   6.793   5.130   3.382
 8528TIP3   OH225540   1.483   6.389   0.669
 8528TIP3    H125541   1.441   6.304   0.682
 8528TIP3    H225542   1.410   6.451   0.665
 8529TIP3   OH225543   0.344   4.316   4.388
 8529TIP3    H125544   0.260   4.298   4.431
 8529TIP3    H225545   0.320   4.335   4.297
 8530TIP3   OH225546   6.142   1.723   0.961
 8530TIP3    H125547   6.160   1.779   1.036
 8530TIP3    H225548   6.053   1.748   0.933
 8531TIP3   OH225549   3.421   6.883   1.463
 8531TIP3    H125550   3.478   6.943   1.511
 8531TIP3    H225551   3.423   6.803   1.515
 8532TIP3   OH225552   7.231   5.967   1.802
 8532TIP3    H125553   7.240   6.047   1.750
 8532TIP3    H225554   7.142   5.970   1.836
 8533TIP3   OH225555   4.888   7.187   5.245
 8533TIP3    H125556   4.816   7.227   5.294
 8533TIP3    H225557   4.942   7.146   5.313
 8534TIP3   OH225558   5.521   2.567   3.334
 8534TIP3    H125559   5.556   2.579   3.246
 8534TIP3    H225560   5.481   2.481   3.333
 8535TIP3   OH225561   2.550   6.115   3.456
 8535TIP3    H125562   2.591   6.152   3.534
 8535TIP3    H225563   2.480   6.177   3.434
 8536TIP3   OH225564   4.784   6.106   4.953
 8536TIP3    H125565   4.749   6.195   4.955
 8536TIP3    H225566   4.747   6.068   4.873
 8537TIP3   OH225567   6.840   2.915   4.256
 8537TIP3    H125568   6.924   2.914   4.209
 8537TIP3    H225569   6.785   2.974   4.204
 8538TIP3   OH225570   2.628   5.401   6.519
 8538TIP3    H125571   2.626   5.325   6.460
 8538TIP3    H225572   2.679   5.466   6.471
 8539TIP3   OH225573   2.093   4.138   1.870
 8539TIP3    H125574   2.039   4.214   1.893
 8539TIP3    H225575   2.035   4.063   1.883
 8540TIP3   OH225576   0.431   1.938   6.509
 8540TIP3    H125577   0.512   1.888   6.498
 8540TIP3    H225578   0.424   1.954   6.603
 8541TIP3   OH225579   0.944   1.660   2.568
 8541TIP3    H125580   0.979   1.634   2.483
 8541TIP3    H225581   0.925   1.577   2.612
 8542TIP3   OH225582   6.527   5.297   1.323
 8542TIP3    H125583   6.573   5.216   1.346
 8542TIP3    H225584   6.459   5.306   1.390
 8543TIP3   OH225585   2.505   1.626   0.138
 8543TIP3    H125586   2.547   1.574   0.207
 8543TIP3    H225587   2.539   1.589   0.057
 8544TIP3   OH225588   1.028   3.323   5.140
 8544TIP3    H125589   0.980   3.309   5.222
 8544TIP3    H225590   1.004   3.248   5.085
 8545TIP3   OH225591   4.553   3.829   3.337
 8545TIP3    H125592   4.470   3.869   3.364
 8545TIP3    H225593   4.527   3.744   3.301
 8546TIP3   OH225594   1.693   4.866   4.310
 8546TIP3    H125595   1.681   4.787   4.258
 8546TIP3    H225596   1.706   4.935   4.246
 8547TIP3   OH225597   3.905   5.197   4.333
 8547TIP3    H125598   3.844   5.123   4.325
 8547TIP3    H225599   3.975   5.164   4.390
 8548TIP3   OH225600   7.555   4.633   2.444
 8548TIP3    H125601   7.510   4.548   2.439
 8548TIP3    H225602   7.532   4.667   2.530
 8549TIP3   OH225603   2.318   1.777   3.358
 8549TIP3    H125604   2.262   1.700   3.367
 8549TIP3    H225605   2.332   1.786   3.264
 8550TIP3   OH225606   6.348   4.087   4.582
 8550TIP3    H125607   6.255   4.091   4.560
 8550TIP3    H225608   6.379   4.006   4.540
 8551TIP3   OH225609   4.601   4.240   5.308
 8551TIP3    H125610   4.530   4.301   5.323
 8551TIP3    H225611   4.627   4.210   5.395
 8552TIP3   OH225612   4.082   3.299   2.985
 8552TIP3    H125613   4.056   3.390   3.002
 8552TIP3    H225614   4.094   3.261   3.073
 8553TIP3   OH225615   1.618   1.527   0.186
 8553TIP3    H125616   1.686   1.580   0.228
 8553TIP3    H225617   1.664   1.476   0.120
 8554TIP3   OH225618   2.955   7.204   6.310
 8554TIP3    H125619   3.042   7.238   6.288
 8554TIP3    H225620   2.898   7.239   6.241
 8555TIP3   OH225621   1.191   0.585   2.648
 8555TIP3    H125622   1.241   0.632   2.714
 8555TIP3    H225623   1.115   0.641   2.632
 8556TIP3   OH225624   0.577   4.649   4.832
 8556TIP3    H125625   0.658   4.685   4.796
 8556TIP3    H225626   0.553   4.709   4.902
 8557TIP3   OH225627   2.401   5.917   4.375
 8557TIP3    H125628   2.315   5.953   4.353
 8557TIP3    H225629   2.385   5.867   4.455
 8558TIP3   OH225630   0.495   0.836   1.255
 8558TIP3    H125631   0.482   0.746   1.224
 8558TIP3    H225632   0.408   0.876   1.250
 8559TIP3   OH225633   6.385   7.583   3.521
 8559TIP3    H125634   6.396   7.549   3.432
 8559TIP3    H225635   6.461   7.549   3.569
 8560TIP3   OH225636   3.008   5.266   2.021
 8560TIP3    H125637   3.024   5.310   2.105
 8560TIP3    H225638   2.951   5.327   1.974
 8561TIP3   OH225639   5.091   4.591   0.321
 8561TIP3    H125640   5.102   4.499   0.346
 8561TIP3    H225641   4.996   4.603   0.314
 8562TIP3   OH225642   7.895   4.343   5.147
 8562TIP3    H125643   7.988   4.344   5.170
 8562TIP3    H225644   7.885   4.414   5.083
 8563TIP3   OH225645   4.312   1.697   2.496
 8563TIP3    H125646   4.393   1.664   2.459
 8563TIP3    H225647   4.283   1.628   2.556
 8564TIP3   OH225648   7.497   7.296   1.631
 8564TIP3    H125649   7.431   7.232   1.604
 8564TIP3    H225650   7.484   7.306   1.725
 8565TIP3   OH225651   1.339   4.451   3.005
 8565TIP3    H125652   1.255   4.466   2.963
 8565TIP3    H225653   1.355   4.530   3.056
 8566TIP3   OH225654   4.295   0.182   5.167
 8566TIP3    H125655   4.289   0.090   5.191
 8566TIP3    H225656   4.205   0.213   5.170
 8567TIP3   OH225657   5.664   2.070   2.811
 8567TIP3    H125658   5.675   2.044   2.902
 8567TIP3    H225659   5.588   2.019   2.781
 8568TIP3   OH225660   0.743   6.633   4.670
 8568TIP3    H125661   0.662   6.625   4.720
 8568TIP3    H225662   0.715   6.652   4.580
 8569TIP3   OH225663   3.413   0.377   3.325
 8569TIP3    H125664   3.319   0.359   3.316
 8569TIP3    H225665   3.453   0.290   3.328
 8570TIP3   OH225666   0.650   3.105   0.079
 8570TIP3    H125667   0.574   3.067   0.124
 8570TIP3    H225668   0.654   3.195   0.109
 8571TIP3   OH225669   7.006   5.090   2.919
 8571TIP3    H125670   7.085   5.087   2.973
 8571TIP3    H225671   7.037   5.074   2.830
 8572TIP3   OH225672   5.618   6.333   1.990
 8572TIP3    H125673   5.705   6.320   1.954
 8572TIP3    H225674   5.629   6.326   2.085
 8573TIP3   OH225675   5.430   6.711   2.859
 8573TIP3    H125676   5.488   6.640   2.834
 8573TIP3    H225677   5.426   6.706   2.954
 8574TIP3   OH225678   7.955   4.038   3.906
 8574TIP3    H125679   7.907   4.055   3.987
 8574TIP3    H225680   8.013   4.114   3.897
 8575TIP3   OH225681   4.470   1.813   6.565
 8575TIP3    H125682   4.383   1.825   6.601
 8575TIP3    H225683   4.524   1.785   6.639
 8576TIP3   OH225684   1.576   4.570   3.133
 8576TIP3    H125685   1.531   4.644   3.173
 8576TIP3    H225686   1.574   4.502   3.200
 8577TIP3   OH225687   5.165   0.188   1.132
 8577TIP3    H125688   5.144   0.227   1.217
 8577TIP3    H225689   5.131   0.098   1.139
 8578TIP3   OH225690   3.953   3.146   3.579
 8578TIP3    H125691   3.867   3.153   3.537
 8578TIP3    H225692   3.947   3.203   3.656
 8579TIP3   OH225693   4.452   3.601   5.128
 8579TIP3    H125694   4.538   3.564   5.147
 8579TIP3    H225695   4.467   3.696   5.127
 8580TIP3   OH225696   1.722   0.401   4.779
 8580TIP3    H125697   1.803   0.433   4.739
 8580TIP3    H225698   1.723   0.307   4.764
 8581TIP3   OH225699   6.310   4.318   1.508
 8581TIP3    H125700   6.402   4.332   1.529
 8581TIP3    H225701   6.263   4.385   1.558
 8582TIP3   OH225702   1.046   6.554   3.081
 8582TIP3    H125703   0.986   6.560   3.006
 8582TIP3    H225704   1.043   6.641   3.120
 8583TIP3   OH225705   0.371   3.909   2.385
 8583TIP3    H125706   0.279   3.931   2.373
 8583TIP3    H225707   0.371   3.843   2.454
 8584TIP3   OH225708   0.736   4.564   4.166
 8584TIP3    H125709   0.717   4.480   4.124
 8584TIP3    H225710   0.658   4.583   4.218
 8585TIP3   OH225711   0.285   2.161   5.728
 8585TIP3    H125712   0.211   2.099   5.725
 8585TIP3    H225713   0.344   2.130   5.659
 8586TIP3   OH225714   5.688   2.015   3.322
 8586TIP3    H125715   5.600   1.991   3.350
 8586TIP3    H225716   5.741   1.938   3.343
 8587TIP3   OH225717   3.217   2.587   0.836
 8587TIP3    H125718   3.273   2.589   0.759
 8587TIP3    H225719   3.261   2.525   0.895
 8588TIP3   OH225720   6.196   4.285   0.900
 8588TIP3    H125721   6.133   4.233   0.950
 8588TIP3    H225722   6.159   4.287   0.811
 8589TIP3   OH225723   7.741   4.578   3.239
 8589TIP3    H125724   7.821   4.630   3.254
 8589TIP3    H225725   7.744   4.556   3.146
 8590TIP3   OH225726   0.069   1.412   2.641
 8590TIP3    H125727   0.063   1.336   2.699
 8590TIP3    H225728  -0.019   1.448   2.639
 8591TIP3   OH225729   8.020   0.209   2.695
 8591TIP3    H125730   8.045   0.209   2.787
 8591TIP3    H225731   7.982   0.123   2.680
 8592TIP3   OH225732   6.429   3.132   5.727
 8592TIP3    H125733   6.506   3.187   5.717
 8592TIP3    H225734   6.371   3.182   5.784
 8593TIP3   OH225735   6.606   0.863   5.005
 8593TIP3    H125736   6.513   0.874   5.027
 8593TIP3    H225737   6.644   0.949   5.017
 8594TIP3   OH225738   3.932   1.208   1.941
 8594TIP3    H125739   3.917   1.273   1.872
 8594TIP3    H225740   3.998   1.149   1.905
 8595TIP3   OH225741   7.145   7.125   3.224
 8595TIP3    H125742   7.154   7.218   3.202
 8595TIP3    H225743   7.224   7.084   3.189
 8596TIP3   OH225744   7.254   1.876   2.009
 8596TIP3    H125745   7.221   1.850   2.095
 8596TIP3    H225746   7.246   1.797   1.956
 8597TIP3   OH225747   5.704   7.328   1.921
 8597TIP3    H125748   5.745   7.257   1.971
 8597TIP3    H225749   5.629   7.286   1.877
 8598TIP3   OH225750   7.486   3.420   5.481
 8598TIP3    H125751   7.522   3.506   5.464
 8598TIP3    H225752   7.452   3.390   5.397
 8599TIP3   OH225753   3.481   2.477   2.345
 8599TIP3    H125754   3.524   2.515   2.422
 8599TIP3    H225755   3.436   2.551   2.304
 8600TIP3   OH225756   6.250   3.595   1.335
 8600TIP3    H125757   6.318   3.640   1.283
 8600TIP3    H225758   6.171   3.600   1.281
 8601TIP3   OH225759   4.756   2.656   1.214
 8601TIP3    H125760   4.695   2.589   1.183
 8601TIP3    H225761   4.699   2.728   1.243
 8602TIP3   OH225762   0.972   0.738   2.609
 8602TIP3    H125763   0.893   0.684   2.604
 8602TIP3    H225764   0.947   0.813   2.662
 8603TIP3   OH225765   4.492   2.124   3.797
 8603TIP3    H125766   4.571   2.145   3.747
 8603TIP3    H225767   4.421   2.161   3.745
 8604TIP3   OH225768   6.423   6.049   6.656
 8604TIP3    H125769   6.354   5.983   6.655
 8604TIP3    H225770   6.469   6.037   6.573
 8605TIP3   OH225771   0.006   5.066   4.244
 8605TIP3    H125772   0.029   5.032   4.158
 8605TIP3    H225773   0.039   5.156   4.244
 8606TIP3   OH225774   0.764   1.631   6.164
 8606TIP3    H125775   0.772   1.675   6.079
 8606TIP3    H225776   0.757   1.538   6.143
 8607TIP3   OH225777   3.143   3.808   3.756
 8607TIP3    H125778   3.085   3.863   3.808
 8607TIP3    H225779   3.214   3.867   3.729
 8608TIP3   OH225780   0.465   1.871   5.307
 8608TIP3    H125781   0.512   1.872   5.224
 8608TIP3    H225782   0.379   1.908   5.287
 8609TIP3   OH225783   7.631   7.125   4.668
 8609TIP3    H125784   7.596   7.071   4.598
 8609TIP3    H225785   7.597   7.085   4.749
 8610TIP3   OH225786   6.926   2.478   4.891
 8610TIP3    H125787   6.875   2.490   4.971
 8610TIP3    H225788   6.860   2.461   4.823
 8611TIP3   OH225789   4.520   0.843   2.888
 8611TIP3    H125790   4.494   0.869   2.800
 8611TIP3    H225791   4.507   0.748   2.891
 8612TIP3   OH225792   6.797   3.318   1.460
 8612TIP3    H125793   6.795   3.226   1.486
 8612TIP3    H225794   6.712   3.334   1.419
 8613TIP3   OH225795   5.243   0.457   3.714
 8613TIP3    H125796   5.214   0.367   3.704
 8613TIP3    H225797   5.230   0.496   3.627
 8614TIP3   OH225798   6.226   3.642   3.967
 8614TIP3    H125799   6.261   3.558   3.996
 8614TIP3    H225800   6.242   3.702   4.040
 8615TIP3   OH225801   4.162   0.091   1.545
 8615TIP3    H125802   4.118   0.174   1.528
 8615TIP3    H225803   4.229   0.112   1.610
 8616TIP3   OH225804   0.699   7.796   4.765
 8616TIP3    H125805   0.771   7.747   4.725
 8616TIP3    H225806   0.644   7.821   4.690
 8617TIP3   OH225807   3.339   0.646   3.896
 8617TIP3    H125808   3.371   0.572   3.948
 8617TIP3    H225809   3.300   0.605   3.818
 8618TIP3   OH225810   3.641   4.874   0.068
 8618TIP3    H125811   3.692   4.794   0.080
 8618TIP3    H225812   3.655   4.923   0.149
 8619TIP3   OH225813   1.930   2.457   4.467
 8619TIP3    H125814   1.869   2.510   4.416
 8619TIP3    H225815   1.995   2.426   4.404
 8620TIP3   OH225816   3.463   5.608   0.825
 8620TIP3    H125817   3.487   5.550   0.752
 8620TIP3    H225818   3.368   5.607   0.826
 8621TIP3   OH225819   4.267   5.522   1.514
 8621TIP3    H125820   4.294   5.557   1.598
 8621TIP3    H225821   4.346   5.526   1.460
 8622TIP3   OH225822   0.965   0.919   3.519
 8622TIP3    H125823   0.911   0.995   3.496
 8622TIP3    H225824   1.006   0.943   3.602
 8623TIP3   OH225825   7.404   4.783   6.293
 8623TIP3    H125826   7.415   4.779   6.388
 8623TIP3    H225827   7.315   4.817   6.280
 8624TIP3   OH225828   1.764   4.612   3.666
 8624TIP3    H125829   1.815   4.691   3.687
 8624TIP3    H225830   1.830   4.547   3.640
 8625TIP3   OH225831   6.702   5.389   5.437
 8625TIP3    H125832   6.733   5.300   5.450
 8625TIP3    H225833   6.781   5.443   5.439
 8626TIP3   OH225834   7.990   7.624   4.016
 8626TIP3    H125835   8.055   7.610   4.085
 8626TIP3    H225836   7.929   7.551   4.025
 8627TIP3   OH225837   3.363   4.929   2.054
 8627TIP3    H125838   3.416   4.970   2.121
 8627TIP3    H225839   3.328   4.850   2.095
 8628TIP3   OH225840   6.588   0.364   5.749
 8628TIP3    H125841   6.497   0.375   5.775
 8628TIP3    H225842   6.590   0.281   5.702
 8629TIP3   OH225843   8.266   4.071   4.081
 8629TIP3    H125844   8.204   4.062   4.154
 8629TIP3    H225845   8.352   4.075   4.123
 8630TIP3   OH225846   3.331   4.626   2.081
 8630TIP3    H125847   3.424   4.609   2.092
 8630TIP3    H225848   3.300   4.648   2.169
 8631TIP3   OH225849   0.930   1.209   5.106
 8631TIP3    H125850   0.877   1.283   5.137
 8631TIP3    H225851   0.879   1.172   5.034
 8632TIP3   OH225852   5.134   0.417   6.592
 8632TIP3    H125853   5.164   0.378   6.674
 8632TIP3    H225854   5.207   0.405   6.532
 8633TIP3   OH225855   0.444   1.362   3.943
 8633TIP3    H125856   0.452   1.395   3.854
 8633TIP3    H225857   0.479   1.433   3.998
 8634TIP3   OH225858   3.074   2.833   1.721
 8634TIP3    H125859   2.987   2.846   1.760
 8634TIP3    H225860   3.135   2.842   1.794
 8635TIP3   OH225861   0.359   7.145   3.716
 8635TIP3    H125862   0.288   7.178   3.773
 8635TIP3    H225863   0.407   7.224   3.691
 8636TIP3   OH225864   0.447   1.662   4.588
 8636TIP3    H125865   0.407   1.578   4.610
 8636TIP3    H225866   0.373   1.718   4.563
 8637TIP3   OH225867   5.765   4.526   3.386
 8637TIP3    H125868   5.731   4.436   3.383
 8637TIP3    H225869   5.715   4.573   3.319
 8638TIP3   OH225870   6.314   3.362   1.082
 8638TIP3    H125871   6.233   3.323   1.048
 8638TIP3    H225872   6.322   3.325   1.170
 8639TIP3   OH225873   0.448   1.430   6.487
 8639TIP3    H125874   0.485   1.343   6.503
 8639TIP3    H225875   0.462   1.445   6.394
 8640TIP3   OH225876   1.333   2.207   1.243
 8640TIP3    H125877   1.409   2.209   1.186
 8640TIP3    H225878   1.342   2.284   1.298
 8641TIP3   OH225879   1.097   2.506   3.231
 8641TIP3    H125880   1.184   2.543   3.217
 8641TIP3    H225881   1.044   2.543   3.160
 8642TIP3   OH225882   2.136   7.082   6.422
 8642TIP3    H125883   2.227   7.078   6.392
 8642TIP3    H225884   2.131   7.016   6.491
 8643TIP3   OH225885   7.879   7.669   5.152
 8643TIP3    H125886   7.956   7.624   5.117
 8643TIP3    H225887   7.808   7.606   5.144
 8644TIP3   OH225888   0.391   5.974   1.417
 8644TIP3    H125889   0.361   5.889   1.384
 8644TIP3    H225890   0.395   5.962   1.512
 8645TIP3   OH225891   7.947   1.707   5.852
 8645TIP3    H125892   7.941   1.621   5.810
 8645TIP3    H225893   8.032   1.742   5.824
 8646TIP3   OH225894   7.369   3.713   4.417
 8646TIP3    H125895   7.382   3.801   4.451
 8646TIP3    H225896   7.275   3.699   4.421
 8647TIP3   OH225897   1.230   5.130   6.344
 8647TIP3    H125898   1.204   5.210   6.388
 8647TIP3    H225899   1.313   5.152   6.302
 8648TIP3   OH225900   2.564   1.398   5.505
 8648TIP3    H125901   2.510   1.462   5.458
 8648TIP3    H225902   2.565   1.430   5.595
 8649TIP3   OH225903   4.384   4.560   3.852
 8649TIP3    H125904   4.446   4.584   3.783
 8649TIP3    H225905   4.340   4.642   3.875
 8650TIP3   OH225906   3.041   2.274   5.977
 8650TIP3    H125907   3.024   2.313   5.891
 8650TIP3    H225908   3.104   2.204   5.960
 8651TIP3   OH225909   2.609   5.611   1.801
 8651TIP3    H125910   2.651   5.527   1.785
 8651TIP3    H225911   2.597   5.614   1.896
 8652TIP3   OH225912   1.622   5.952   3.307
 8652TIP3    H125913   1.707   5.930   3.269
 8652TIP3    H225914   1.641   5.972   3.398
 8653TIP3   OH225915   8.042   0.819   5.206
 8653TIP3    H125916   8.119   0.825   5.262
 8653TIP3    H225917   7.968   0.839   5.264
 8654TIP3   OH225918   7.957   3.305   2.560
 8654TIP3    H125919   7.903   3.364   2.508
 8654TIP3    H225920   7.924   3.218   2.539
 8655TIP3   OH225921   1.615   1.894   5.494
 8655TIP3    H125922   1.560   1.866   5.421
 8655TIP3    H225923   1.567   1.966   5.534
 8656TIP3   OH225924   1.297   0.820   1.657
 8656TIP3    H125925   1.272   0.908   1.631
 8656TIP3    H225926   1.348   0.833   1.738
 8657TIP3   OH225927   8.163   4.357   1.518
 8657TIP3    H125928   8.190   4.376   1.428
 8657TIP3    H225929   8.193   4.434   1.568
 8658TIP3   OH225930   6.379   2.741   5.541
 8658TIP3    H125931   6.318   2.696   5.482
 8658TIP3    H225932   6.465   2.708   5.517
 8659TIP3   OH225933   3.802   3.760   2.256
 8659TIP3    H125934   3.717   3.803   2.243
 8659TIP3    H225935   3.798   3.684   2.198
 8660TIP3   OH225936   5.635   6.823   1.718
 8660TIP3    H125937   5.615   6.853   1.630
 8660TIP3    H225938   5.626   6.727   1.713
 8661TIP3   OH225939   6.536   6.971   2.080
 8661TIP3    H125940   6.537   6.912   2.004
 8661TIP3    H225941   6.573   7.053   2.047
 8662TIP3   OH225942   6.554   0.365   0.188
 8662TIP3    H125943   6.477   0.352   0.133
 8662TIP3    H225944   6.601   0.437   0.146
 8663TIP3   OH225945   2.851   6.455   3.786
 8663TIP3    H125946   2.757   6.472   3.780
 8663TIP3    H225947   2.865   6.427   3.876
 8664TIP3   OH225948   5.697   3.593   3.412
 8664TIP3    H125949   5.728   3.605   3.322
 8664TIP3    H225950   5.744   3.515   3.443
 8665TIP3   OH225951   5.125   7.780   5.584
 8665TIP3    H125952   5.086   7.705   5.540
 8665TIP3    H225953   5.200   7.803   5.530
 8666TIP3   OH225954   7.024   4.113   6.287
 8666TIP3    H125955   6.936   4.103   6.250
 8666TIP3    H225956   7.010   4.149   6.374
 8667TIP3   OH225957   5.952   2.836   1.300
 8667TIP3    H125958   5.928   2.754   1.259
 8667TIP3    H225959   5.953   2.817   1.394
 8668TIP3   OH225960   3.632   0.300   1.228
 8668TIP3    H125961   3.563   0.252   1.181
 8668TIP3    H225962   3.708   0.243   1.223
 8669TIP3   OH225963   3.484   7.566   1.503
 8669TIP3    H125964   3.429   7.497   1.465
 8669TIP3    H225965   3.567   7.558   1.457
 8670TIP3   OH225966   1.160   3.588   0.010
 8670TIP3    H125967   1.086   3.628   0.055
 8670TIP3    H225968   1.126   3.505  -0.025
 8671TIP3   OH225969   2.811   6.886   4.628
 8671TIP3    H125970   2.813   6.982   4.623
 8671TIP3    H225971   2.867   6.857   4.557
 8672TIP3   OH225972   4.865   3.344   5.162
 8672TIP3    H125973   4.872   3.294   5.081
 8672TIP3    H225974   4.952   3.383   5.174
 8673TIP3   OH225975   0.708   7.735   0.936
 8673TIP3    H125976   0.620   7.708   0.909
 8673TIP3    H225977   0.763   7.660   0.915
 8674TIP3   OH225978   4.686   7.234   6.756
 8674TIP3    H125979   4.614   7.197   6.807
 8674TIP3    H225980   4.723   7.159   6.709
 8675TIP3   OH225981   5.228   0.984   1.093
 8675TIP3    H125982   5.173   1.030   1.155
 8675TIP3    H225983   5.283   0.927   1.148
 8676TIP3   OH225984   8.304   3.017   6.335
 8676TIP3    H125985   8.282   2.977   6.251
 8676TIP3    H225986   8.312   2.943   6.396
 8677TIP3   OH225987   2.499   3.833   3.025
 8677TIP3    H125988   2.451   3.759   2.991
 8677TIP3    H225989   2.591   3.806   3.020
 8678TIP3   OH225990   4.104   3.597   0.538
 8678TIP3    H125991   4.070   3.665   0.481
 8678TIP3    H225992   4.096   3.516   0.488
 8679TIP3   OH225993   0.402   3.098   3.761
 8679TIP3    H125994   0.422   3.163   3.829
 8679TIP3    H225995   0.486   3.082   3.718
 8680TIP3   OH225996   4.422   2.466   6.147
 8680TIP3    H125997   4.387   2.398   6.090
 8680TIP3    H225998   4.511   2.439   6.166
 8681TIP3   OH225999   1.728   7.062   4.563
 8681TIP3    H126000   1.799   7.120   4.590
 8681TIP3    H226001   1.773   6.990   4.518
 8682TIP3   OH226002   0.032   2.638   2.713
 8682TIP3    H126003   0.113   2.596   2.683
 8682TIP3    H226004   0.058   2.729   2.731
 8683TIP3   OH226005   0.928   4.695   2.604
 8683TIP3    H126006   0.919   4.790   2.598
 8683TIP3    H226007   0.865   4.669   2.671
 8684TIP3   OH226008   0.457   3.507   3.873
 8684TIP3    H126009   0.361   3.506   3.870
 8684TIP3    H226010   0.481   3.594   3.842
 8685TIP3   OH226011   3.268   6.896   5.763
 8685TIP3    H126012   3.212   6.872   5.837
 8685TIP3    H226013   3.338   6.831   5.764
 8686TIP3   OH226014   4.090   2.166   0.293
 8686TIP3    H126015   4.017   2.156   0.354
 8686TIP3    H226016   4.113   2.259   0.299
 8687TIP3   OH226017   1.807   4.988   0.945
 8687TIP3    H126018   1.794   5.024   1.032
 8687TIP3    H226019   1.878   4.925   0.954
 8688TIP3   OH226020   4.441   5.342   1.841
 8688TIP3    H126021   4.474   5.296   1.918
 8688TIP3    H226022   4.399   5.274   1.789
 8689TIP3   OH226023   2.436   0.976   1.641
 8689TIP3    H126024   2.384   0.967   1.720
 8689TIP3    H226025   2.525   0.950   1.668
 8690TIP3   OH226026   7.319   0.568   0.897
 8690TIP3    H126027   7.364   0.628   0.957
 8690TIP3    H226028   7.276   0.504   0.954
 8691TIP3   OH226029   2.748   7.776   0.744
 8691TIP3    H126030   2.786   7.727   0.671
 8691TIP3    H226031   2.786   7.737   0.822
 8692TIP3   OH226032   3.839   2.137   1.750
 8692TIP3    H126033   3.809   2.216   1.704
 8692TIP3    H226034   3.912   2.105   1.698
 8693TIP3   OH226035   6.207   5.770   5.073
 8693TIP3    H126036   6.151   5.711   5.023
 8693TIP3    H226037   6.257   5.713   5.132
 8694TIP3   OH226038   3.675   5.789   0.879
 8694TIP3    H126039   3.619   5.715   0.856
 8694TIP3    H226040   3.635   5.864   0.835
 8695TIP3   OH226041   5.683   2.282   3.324
 8695TIP3    H126042   5.683   2.186   3.323
 8695TIP3    H226043   5.610   2.307   3.267
 8696TIP3   OH226044   1.039   0.026   0.466
 8696TIP3    H126045   0.993   0.061   0.390
 8696TIP3    H226046   0.991   0.061   0.541
 8697TIP3   OH226047   1.235   4.054   1.572
 8697TIP3    H126048   1.163   4.105   1.535
 8697TIP3    H226049   1.193   3.997   1.637
 8698TIP3   OH226050   1.592   4.654   2.183
 8698TIP3    H126051   1.567   4.563   2.165
 8698TIP3    H226052   1.688   4.652   2.188
 8699TIP3   OH226053   2.078   1.197   0.879
 8699TIP3    H126054   2.013   1.249   0.928
 8699TIP3    H226055   2.074   1.232   0.790
 8700TIP3   OH226056   3.418   7.660   4.680
 8700TIP3    H126057   3.418   7.755   4.667
 8700TIP3    H226058   3.367   7.626   4.606
 8701TIP3   OH226059   4.072   2.155   6.740
 8701TIP3    H126060   4.161   2.175   6.712
 8701TIP3    H226061   4.077   2.067   6.778
 8702TIP3   OH226062   3.390   6.345   3.537
 8702TIP3    H126063   3.302   6.366   3.570
 8702TIP3    H226064   3.423   6.280   3.599
 8703TIP3   OH226065   4.733   2.338   5.448
 8703TIP3    H126066   4.791   2.394   5.397
 8703TIP3    H226067   4.733   2.254   5.401
 8704TIP3   OH226068   0.203   3.420   4.085
 8704TIP3    H126069   0.237   3.487   4.025
 8704TIP3    H226070   0.108   3.422   4.071
 8705TIP3   OH226071   6.600   6.583   4.665
 8705TIP3    H126072   6.611   6.522   4.738
 8705TIP3    H226073   6.513   6.563   4.630
 8706TIP3   OH226074   4.128   2.808   5.657
 8706TIP3    H126075   4.186   2.733   5.642
 8706TIP3    H226076   4.182   2.884   5.635
 8707TIP3   OH226077   5.753   5.187   2.428
 8707TIP3    H126078   5.662   5.182   2.399
 8707TIP3    H226079   5.758   5.270   2.477
 8708TIP3   OH226080   2.718   6.283   5.778
 8708TIP3    H126081   2.698   6.347   5.710
 8708TIP3    H226082   2.692   6.199   5.740
 8709TIP3   OH226083   6.386   3.243   2.727
 8709TIP3    H126084   6.408   3.169   2.783
 8709TIP3    H226085   6.460   3.303   2.736
 8710TIP3   OH226086   2.976   7.198   3.742
 8710TIP3    H126087   3.052   7.178   3.688
 8710TIP3    H226088   2.998   7.281   3.785
 8711TIP3   OH226089   2.237   3.967   1.159
 8711TIP3    H126090   2.319   3.975   1.109
 8711TIP3    H226091   2.233   3.875   1.184
 8712TIP3   OH226092   7.182   0.230   2.913
 8712TIP3    H126093   7.158   0.308   2.961
 8712TIP3    H226094   7.217   0.263   2.830
 8713TIP3   OH226095   6.800   7.781   4.993
 8713TIP3    H126096   6.710   7.797   4.965
 8713TIP3    H226097   6.799   7.800   5.087
 8714TIP3   OH226098   1.298   7.413   6.443
 8714TIP3    H126099   1.370   7.358   6.414
 8714TIP3    H226100   1.330   7.503   6.432
 8715TIP3   OH226101   5.447   5.320   1.910
 8715TIP3    H126102   5.420   5.259   1.842
 8715TIP3    H226103   5.428   5.406   1.874
 8716TIP3   OH226104   1.192   1.402   6.155
 8716TIP3    H126105   1.286   1.388   6.146
 8716TIP3    H226106   1.163   1.424   6.066
 8717TIP3   OH226107   1.833   3.750   2.166
 8717TIP3    H126108   1.783   3.830   2.149
 8717TIP3    H226109   1.894   3.744   2.092
 8718TIP3   OH226110   5.357   1.678   1.696
 8718TIP3    H126111   5.448   1.697   1.672
 8718TIP3    H226112   5.361   1.593   1.739
 8719TIP3   OH226113   4.928   2.828   2.304
 8719TIP3    H126114   4.912   2.801   2.395
 8719TIP3    H226115   4.998   2.892   2.310
 8720TIP3   OH226116   5.343   5.395   6.671
 8720TIP3    H126117   5.291   5.348   6.606
 8720TIP3    H226118   5.425   5.415   6.626
 8721TIP3   OH226119   1.630   6.540   0.156
 8721TIP3    H126120   1.612   6.544   0.250
 8721TIP3    H226121   1.712   6.490   0.150
 8722TIP3   OH226122   2.247   2.371   2.246
 8722TIP3    H126123   2.331   2.412   2.225
 8722TIP3    H226124   2.218   2.414   2.326
 8723TIP3   OH226125   5.011   4.458   0.615
 8723TIP3    H126126   4.964   4.511   0.679
 8723TIP3    H226127   4.979   4.488   0.530
 8724TIP3   OH226128   4.088   0.139   0.259
 8724TIP3    H126129   4.030   0.215   0.248
 8724TIP3    H226130   4.166   0.175   0.300
 8725TIP3   OH226131   8.119   3.431   2.742
 8725TIP3    H126132   8.084   3.518   2.761
 8725TIP3    H226133   8.065   3.398   2.670
 8726TIP3   OH226134   4.832   4.621   2.324
 8726TIP3    H126135   4.925   4.644   2.320
 8726TIP3    H226136   4.799   4.665   2.402
 8727TIP3   OH226137   5.223   0.959   0.824
 8727TIP3    H126138   5.234   0.964   0.919
 8727TIP3    H226139   5.195   1.047   0.798
 8728TIP3   OH226140   5.414   1.592   4.245
 8728TIP3    H126141   5.451   1.635   4.168
 8728TIP3    H226142   5.413   1.498   4.222
 8729TIP3   OH226143   2.789   0.850   2.697
 8729TIP3    H126144   2.777   0.759   2.672
 8729TIP3    H226145   2.867   0.849   2.753
 8730TIP3   OH226146   5.656   6.839   0.055
 8730TIP3    H126147   5.661   6.747   0.081
 8730TIP3    H226148   5.583   6.843  -0.007
 8731TIP3   OH226149   7.617   3.170   4.345
 8731TIP3    H126150   7.651   3.214   4.267
 8731TIP3    H226151   7.672   3.202   4.416
 8732TIP3   OH226152   5.409   5.553   5.836
 8732TIP3    H126153   5.360   5.570   5.755
 8732TIP3    H226154   5.495   5.522   5.806
 8733TIP3   OH226155   0.667   6.402   0.163
 8733TIP3    H126156   0.658   6.345   0.087
 8733TIP3    H226157   0.756   6.384   0.195
 8734TIP3   OH226158   7.265   7.112   4.138
 8734TIP3    H126159   7.308   7.177   4.194
 8734TIP3    H226160   7.313   7.117   4.055
 8735TIP3   OH226161   2.393   1.967   3.929
 8735TIP3    H126162   2.391   1.884   3.882
 8735TIP3    H226163   2.369   2.033   3.864
 8736TIP3   OH226164   0.983   0.712   5.827
 8736TIP3    H126165   1.025   0.627   5.829
 8736TIP3    H226166   1.036   0.764   5.766
 8737TIP3   OH226167   7.029   1.226   0.982
 8737TIP3    H126168   6.963   1.290   1.009
 8737TIP3    H226169   7.111   1.276   0.981
 8738TIP3   OH226170   7.442   4.272   3.104
 8738TIP3    H126171   7.455   4.361   3.136
 8738TIP3    H226172   7.370   4.238   3.157
 8739TIP3   OH226173   5.441   5.681   3.436
 8739TIP3    H126174   5.501   5.615   3.401
 8739TIP3    H226175   5.416   5.648   3.522
 8740TIP3   OH226176   2.003   0.007   2.772
 8740TIP3    H126177   2.070   0.007   2.704
 8740TIP3    H226178   1.958   0.091   2.761
 8741TIP3   OH226179   2.683   1.832   3.882
 8741TIP3    H126180   2.711   1.757   3.935
 8741TIP3    H226181   2.592   1.811   3.859
 8742TIP3   OH226182   5.864   3.914   4.764
 8742TIP3    H126183   5.925   3.914   4.837
 8742TIP3    H226184   5.873   4.002   4.726
 8743TIP3   OH226185   7.912   3.803   1.076
 8743TIP3    H126186   8.001   3.785   1.047
 8743TIP3    H226187   7.878   3.867   1.014
 8744TIP3   OH226188   8.212   4.996   0.619
 8744TIP3    H126189   8.155   4.943   0.675
 8744TIP3    H226190   8.238   5.070   0.674
 8745TIP3   OH226191   0.082   0.746   1.204
 8745TIP3    H126192   0.133   0.808   1.152
 8745TIP3    H226193   0.107   0.764   1.295
 8746TIP3   OH226194   7.952   2.283   1.727
 8746TIP3    H126195   7.899   2.356   1.697
 8746TIP3    H226196   7.985   2.243   1.646
 8747TIP3   OH226197   4.857   6.815   5.126
 8747TIP3    H126198   4.854   6.909   5.111
 8747TIP3    H226199   4.854   6.776   5.039
 8748TIP3   OH226200   6.602   5.553   6.803
 8748TIP3    H126201   6.663   5.499   6.752
 8748TIP3    H226202   6.540   5.586   6.738
 8749TIP3   OH226203   8.027   0.499   3.445
 8749TIP3    H126204   8.006   0.558   3.373
 8749TIP3    H226205   8.118   0.520   3.468
 8750TIP3   OH226206   0.816   0.731   0.286
 8750TIP3    H126207   0.743   0.761   0.339
 8750TIP3    H226208   0.892   0.775   0.322
 8751TIP3   OH226209   5.942   5.001   5.052
 8751TIP3    H126210   6.013   5.065   5.056
 8751TIP3    H226211   5.937   4.965   5.141
 8752TIP3   OH226212   7.132   3.404   4.989
 8752TIP3    H126213   7.115   3.319   5.029
 8752TIP3    H226214   7.045   3.436   4.963
 8753TIP3   OH226215   1.730   5.091   2.040
 8753TIP3    H126216   1.722   5.179   2.078
 8753TIP3    H226217   1.641   5.068   2.016
 8754TIP3   OH226218   3.412   0.702   3.157
 8754TIP3    H126219   3.334   0.650   3.178
 8754TIP3    H226220   3.392   0.790   3.190
 8755TIP3   OH226221   5.734   1.536   0.970
 8755TIP3    H126222   5.813   1.534   1.024
 8755TIP3    H226223   5.662   1.535   1.033
 8756TIP3   OH226224   4.456   1.259   4.753
 8756TIP3    H126225   4.380   1.202   4.737
 8756TIP3    H226226   4.527   1.200   4.775
 8757TIP3   OH226227   4.928   5.710   0.087
 8757TIP3    H126228   4.838   5.703   0.056
 8757TIP3    H226229   4.953   5.801   0.070
 8758TIP3   OH226230   7.147   1.066   6.761
 8758TIP3    H126231   7.140   0.973   6.737
 8758TIP3    H226232   7.084   1.110   6.704
 8759TIP3   OH226233   1.676   5.875   1.421
 8759TIP3    H126234   1.633   5.958   1.444
 8759TIP3    H226235   1.757   5.875   1.471
 8760TIP3   OH226236   1.882   4.001   3.269
 8760TIP3    H126237   1.810   4.051   3.232
 8760TIP3    H226238   1.886   3.921   3.216
 8761TIP3   OH226239   0.717   6.686   5.274
 8761TIP3    H126240   0.651   6.658   5.211
 8761TIP3    H226241   0.791   6.716   5.220
 8762TIP3   OH226242   7.501   3.418   0.746
 8762TIP3    H126243   7.437   3.487   0.760
 8762TIP3    H226244   7.453   3.350   0.698
 8763TIP3   OH226245   5.415   3.390   5.188
 8763TIP3    H126246   5.494   3.443   5.186
 8763TIP3    H226247   5.445   3.304   5.219
 8764TIP3   OH226248   0.256   2.627   5.964
 8764TIP3    H126249   0.328   2.670   5.918
 8764TIP3    H226250   0.250   2.541   5.923
 8765TIP3   OH226251   2.404   4.589   2.824
 8765TIP3    H126252   2.358   4.663   2.864
 8765TIP3    H226253   2.432   4.622   2.739
 8766TIP3   OH226254   6.300   5.136   2.057
 8766TIP3    H126255   6.232   5.069   2.063
 8766TIP3    H226256   6.375   5.091   2.017
 8767TIP3   OH226257   0.281   6.914   3.582
 8767TIP3    H126258   0.228   6.865   3.645
 8767TIP3    H226259   0.305   6.995   3.627
 8768TIP3   OH226260   5.207   2.871   4.832
 8768TIP3    H126261   5.269   2.940   4.857
 8768TIP3    H226262   5.195   2.882   4.738
 8769TIP3   OH226263   7.783   4.389   4.573
 8769TIP3    H126264   7.851   4.436   4.621
 8769TIP3    H226265   7.722   4.457   4.546
 8770TIP3   OH226266   6.866   1.851   6.694
 8770TIP3    H126267   6.927   1.778   6.707
 8770TIP3    H226268   6.842   1.878   6.783
 8771TIP3   OH226269   1.172   7.816   1.396
 8771TIP3    H126270   1.236   7.847   1.461
 8771TIP3    H226271   1.088   7.815   1.443
 8772TIP3   OH226272   5.377   2.331   5.951
 8772TIP3    H126273   5.363   2.333   6.046
 8772TIP3    H226274   5.466   2.363   5.939
 8773TIP3   OH226275   0.051   5.309   2.640
 8773TIP3    H126276   0.127   5.254   2.660
 8773TIP3    H226277   0.046   5.310   2.544
 8774TIP3   OH226278   1.749   6.669   1.833
 8774TIP3    H126279   1.665   6.644   1.795
 8774TIP3    H226280   1.802   6.589   1.827
 8775TIP3   OH226281   6.134   4.664   2.583
 8775TIP3    H126282   6.069   4.682   2.516
 8775TIP3    H226283   6.217   4.659   2.536
 8776TIP3   OH226284   3.893   0.821   3.719
 8776TIP3    H126285   3.883   0.813   3.814
 8776TIP3    H226286   3.815   0.780   3.683
 8777TIP3   OH226287   4.466   4.371   4.014
 8777TIP3    H126288   4.421   4.405   3.936
 8777TIP3    H226289   4.549   4.338   3.980
 8778TIP3   OH226290   8.172   0.332   5.313
 8778TIP3    H126291   8.144   0.364   5.399
 8778TIP3    H226292   8.266   0.317   5.323
 8779TIP3   OH226293   4.965   2.564   3.220
 8779TIP3    H126294   4.878   2.601   3.233
 8779TIP3    H226295   5.023   2.621   3.272
 8780TIP3   OH226296   0.391   0.767   0.651
 8780TIP3    H126297   0.306   0.775   0.694
 8780TIP3    H226298   0.445   0.719   0.714
 8781TIP3   OH226299   3.370   1.579   1.434
 8781TIP3    H126300   3.378   1.591   1.340
 8781TIP3    H226301   3.381   1.485   1.447
 8782TIP3   OH226302   8.270   5.988   4.402
 8782TIP3    H126303   8.226   5.957   4.323
 8782TIP3    H226304   8.328   5.916   4.427
 8783TIP3   OH226305   1.230   1.176   3.886
 8783TIP3    H126306   1.168   1.240   3.922
 8783TIP3    H226307   1.316   1.211   3.907
 8784TIP3   OH226308   0.855   1.643   0.277
 8784TIP3    H126309   0.863   1.707   0.206
 8784TIP3    H226310   0.897   1.685   0.352
 8785TIP3   OH226311   7.691   1.298   0.459
 8785TIP3    H126312   7.631   1.269   0.528
 8785TIP3    H226313   7.758   1.231   0.456
 8786TIP3   OH226314   7.900   4.096   2.946
 8786TIP3    H126315   7.907   4.167   2.882
 8786TIP3    H226316   7.850   4.134   3.019
 8787TIP3   OH226317   6.250   3.043   0.148
 8787TIP3    H126318   6.283   3.002   0.228
 8787TIP3    H226319   6.328   3.060   0.096
 8788TIP3   OH226320   3.155   4.062   1.239
 8788TIP3    H126321   3.234   4.044   1.290
 8788TIP3    H226322   3.181   4.042   1.149
 8789TIP3   OH226323   6.406   7.044   5.561
 8789TIP3    H126324   6.470   6.974   5.577
 8789TIP3    H226325   6.321   7.000   5.562
 8790TIP3   OH226326   6.114   3.446   2.225
 8790TIP3    H126327   6.129   3.354   2.249
 8790TIP3    H226328   6.051   3.442   2.154
 8791TIP3   OH226329   6.915   4.484   5.076
 8791TIP3    H126330   7.005   4.518   5.075
 8791TIP3    H226331   6.924   4.395   5.111
 8792TIP3   OH226332   5.180   0.280   4.111
 8792TIP3    H126333   5.120   0.209   4.135
 8792TIP3    H226334   5.127   0.339   4.057
 8793TIP3   OH226335   2.261   0.161   4.088
 8793TIP3    H126336   2.228   0.078   4.121
 8793TIP3    H226337   2.303   0.202   4.164
 8794TIP3   OH226338   6.348   7.501   6.517
 8794TIP3    H126339   6.268   7.553   6.510
 8794TIP3    H226340   6.351   7.449   6.437
 8795TIP3   OH226341   1.308   1.216   4.582
 8795TIP3    H126342   1.260   1.138   4.553
 8795TIP3    H226343   1.343   1.193   4.667
 8796TIP3   OH226344   1.976   7.370   3.534
 8796TIP3    H126345   2.034   7.361   3.458
 8796TIP3    H226346   2.023   7.428   3.593
 8797TIP3   OH226347   3.221   1.977   4.537
 8797TIP3    H126348   3.179   2.050   4.491
 8797TIP3    H226349   3.152   1.911   4.546
 8798TIP3   OH226350   1.535   5.801   6.470
 8798TIP3    H126351   1.449   5.766   6.446
 8798TIP3    H226352   1.589   5.788   6.392
 8799TIP3   OH226353   8.018   7.358   3.047
 8799TIP3    H126354   8.092   7.311   3.085
 8799TIP3    H226355   8.036   7.451   3.066
 8800TIP3   OH226356   0.435   1.256   3.187
 8800TIP3    H126357   0.441   1.161   3.179
 8800TIP3    H226358   0.356   1.271   3.239
 8801TIP3   OH226359   7.855   1.121   4.514
 8801TIP3    H126360   7.841   1.127   4.420
 8801TIP3    H226361   7.942   1.159   4.528
 8802TIP3   OH226362   8.176   5.254   0.153
 8802TIP3    H126363   8.149   5.344   0.140
 8802TIP3    H226364   8.254   5.244   0.099
 8803TIP3   OH226365   1.626   6.256   6.567
 8803TIP3    H126366   1.572   6.200   6.622
 8803TIP3    H226367   1.683   6.302   6.628
 8804TIP3   OH226368   6.252   1.255   0.174
 8804TIP3    H126369   6.328   1.206   0.143
 8804TIP3    H226370   6.183   1.189   0.181
 8805TIP3   OH226371   2.824   2.861   6.347
 8805TIP3    H126372   2.842   2.913   6.425
 8805TIP3    H226373   2.812   2.772   6.381
 8806TIP3   OH226374   7.925   1.107   1.780
 8806TIP3    H126375   7.880   1.023   1.785
 8806TIP3    H226376   7.909   1.138   1.691
 8807TIP3   OH226377   2.605   7.330   3.218
 8807TIP3    H126378   2.612   7.383   3.139
 8807TIP3    H226379   2.602   7.240   3.186
 8808TIP3   OH226380   1.752   7.325   2.336
 8808TIP3    H126381   1.799   7.254   2.379
 8808TIP3    H226382   1.820   7.378   2.295
 8809TIP3   OH226383   2.569   5.877   3.886
 8809TIP3    H126384   2.519   5.796   3.884
 8809TIP3    H226385   2.650   5.854   3.932
 8810TIP3   OH226386   6.068   0.128   4.698
 8810TIP3    H126387   5.988   0.086   4.729
 8810TIP3    H226388   6.042   0.175   4.619
 8811TIP3   OH226389   2.075   6.202   1.680
 8811TIP3    H126390   2.127   6.272   1.718
 8811TIP3    H226391   2.134   6.158   1.619
 8812TIP3   OH226392   6.855   5.791   6.511
 8812TIP3    H126393   6.836   5.861   6.573
 8812TIP3    H226394   6.790   5.723   6.531
 8813TIP3   OH226395   6.564   0.606   3.393
 8813TIP3    H126396   6.514   0.687   3.403
 8813TIP3    H226397   6.595   0.609   3.302
 8814TIP3   OH226398   7.247   3.111   3.140
 8814TIP3    H126399   7.302   3.189   3.134
 8814TIP3    H226400   7.280   3.065   3.217
 8815TIP3   OH226401   5.451   7.348   5.796
 8815TIP3    H126402   5.499   7.391   5.866
 8815TIP3    H226403   5.381   7.408   5.773
 8816TIP3   OH226404   4.136   2.979   2.629
 8816TIP3    H126405   4.065   2.959   2.690
 8816TIP3    H226406   4.205   3.016   2.685
 8817TIP3   OH226407   2.788   1.255   0.605
 8817TIP3    H126408   2.722   1.212   0.552
 8817TIP3    H226409   2.858   1.190   0.615
 8818TIP3   OH226410   1.732   5.258   5.942
 8818TIP3    H126411   1.746   5.316   5.868
 8818TIP3    H226412   1.681   5.185   5.906
 8819TIP3   OH226413   4.828   3.174   2.343
 8819TIP3    H126414   4.902   3.115   2.325
 8819TIP3    H226415   4.771   3.164   2.267
 8820TIP3   OH226416   3.571   2.232   6.722
 8820TIP3    H126417   3.654   2.231   6.769
 8820TIP3    H226418   3.536   2.144   6.734
 8821TIP3   OH226419   2.108   5.867   3.036
 8821TIP3    H126420   2.147   5.842   2.952
 8821TIP3    H226421   2.180   5.859   3.099
 8822TIP3   OH226422   0.976   1.545   4.917
 8822TIP3    H126423   0.918   1.528   4.991
 8822TIP3    H226424   0.946   1.485   4.848
 8823TIP3   OH226425   0.838   1.911   0.162
 8823TIP3    H126426   0.931   1.906   0.139
 8823TIP3    H226427   0.828   1.997   0.202
 8824TIP3   OH226428   3.667   4.190   2.607
 8824TIP3    H126429   3.573   4.182   2.621
 8824TIP3    H226430   3.677   4.193   2.512
 8825TIP3   OH226431   5.159   5.334   4.216
 8825TIP3    H126432   5.214   5.283   4.156
 8825TIP3    H226433   5.070   5.302   4.198
 8826TIP3   OH226434   3.268   3.519   4.858
 8826TIP3    H126435   3.344   3.463   4.878
 8826TIP3    H226436   3.301   3.608   4.871
 8827TIP3   OH226437   0.422   5.386   0.915
 8827TIP3    H126438   0.408   5.326   0.988
 8827TIP3    H226439   0.353   5.363   0.852
 8828TIP3   OH226440   8.032   0.774   2.507
 8828TIP3    H126441   7.958   0.713   2.497
 8828TIP3    H226442   8.093   0.727   2.564
 8829TIP3   OH226443   6.894   6.552   2.128
 8829TIP3    H126444   6.953   6.527   2.057
 8829TIP3    H226445   6.877   6.645   2.113
 8830TIP3   OH226446   4.062   3.645   2.522
 8830TIP3    H126447   4.029   3.705   2.589
 8830TIP3    H226448   4.082   3.564   2.568
 8831TIP3   OH226449   6.902   4.872   4.958
 8831TIP3    H126450   6.836   4.804   4.941
 8831TIP3    H226451   6.895   4.888   5.053
 8832TIP3   OH226452   0.632   5.023   4.467
 8832TIP3    H126453   0.591   4.936   4.466
 8832TIP3    H226454   0.704   5.016   4.405
 8833TIP3   OH226455   6.620   4.709   3.881
 8833TIP3    H126456   6.593   4.783   3.827
 8833TIP3    H226457   6.625   4.635   3.821
 8834TIP3   OH226458   4.065   6.245   4.166
 8834TIP3    H126459   4.116   6.212   4.093
 8834TIP3    H226460   4.122   6.308   4.210
 8835TIP3   OH226461   4.645   2.609   5.662
 8835TIP3    H126462   4.677   2.669   5.595
 8835TIP3    H226463   4.715   2.545   5.673
 8836TIP3   OH226464   1.542   3.309   6.448
 8836TIP3    H126465   1.582   3.392   6.473
 8836TIP3    H226466   1.580   3.289   6.362
 8837TIP3   OH226467   1.864   5.604   6.469
 8837TIP3    H126468   1.921   5.571   6.400
 8837TIP3    H226469   1.776   5.576   6.442
 8838TIP3   OH226470   7.064   6.005   4.290
 8838TIP3    H126471   7.063   6.002   4.386
 8838TIP3    H226472   7.131   6.070   4.269
 8839TIP3   OH226473   4.015   2.881   3.486
 8839TIP3    H126474   4.003   2.971   3.516
 8839TIP3    H226475   4.075   2.843   3.550
 8840TIP3   OH226476   0.077   0.107   4.677
 8840TIP3    H126477   0.028   0.154   4.611
 8840TIP3    H226478   0.150   0.165   4.699
 8841TIP3   OH226479   4.623   1.108   4.050
 8841TIP3    H126480   4.710   1.102   4.010
 8841TIP3    H226481   4.568   1.148   3.983
 8842TIP3   OH226482   4.878   6.665   2.046
 8842TIP3    H126483   4.871   6.607   1.970
 8842TIP3    H226484   4.847   6.612   2.119
 8843TIP3   OH226485   0.522   4.737   1.166
 8843TIP3    H126486   0.520   4.801   1.237
 8843TIP3    H226487   0.571   4.663   1.202
 8844TIP3   OH226488   6.881   5.159   5.436
 8844TIP3    H126489   6.973   5.185   5.428
 8844TIP3    H226490   6.881   5.085   5.497
 8845TIP3   OH226491   5.942   3.125   1.897
 8845TIP3    H126492   5.957   3.218   1.880
 8845TIP3    H226493   5.858   3.106   1.855
 8846TIP3   OH226494   0.645   7.835   0.028
 8846TIP3    H126495   0.676   7.752   0.064
 8846TIP3    H226496   0.605   7.880   0.102
 8847TIP3   OH226497   1.819   5.086   5.506
 8847TIP3    H126498   1.739   5.042   5.476
 8847TIP3    H226499   1.862   5.021   5.561
 8848TIP3   OH226500   3.011   3.223   4.309
 8848TIP3    H126501   2.976   3.242   4.396
 8848TIP3    H226502   3.034   3.131   4.312
 8849TIP3   OH226503   6.112   7.706   0.454
 8849TIP3    H126504   6.155   7.649   0.517
 8849TIP3    H226505   6.157   7.789   0.461
 8850TIP3   OH226506   2.241   4.474   1.846
 8850TIP3    H126507   2.188   4.413   1.795
 8850TIP3    H226508   2.250   4.551   1.789
 8851TIP3   OH226509   3.393   1.755   2.712
 8851TIP3    H126510   3.320   1.798   2.666
 8851TIP3    H226511   3.350   1.706   2.783
 8852TIP3   OH226512   0.697   6.673   6.299
 8852TIP3    H126513   0.650   6.630   6.228
 8852TIP3    H226514   0.662   6.632   6.378
 8853TIP3   OH226515   6.658   1.800   4.115
 8853TIP3    H126516   6.685   1.877   4.065
 8853TIP3    H226517   6.643   1.832   4.204
 8854TIP3   OH226518   5.393   5.092   4.311
 8854TIP3    H126519   5.468   5.047   4.351
 8854TIP3    H226520   5.388   5.175   4.359
 8855TIP3   OH226521   7.575   4.960   4.095
 8855TIP3    H126522   7.600   5.037   4.044
 8855TIP3    H226523   7.484   4.978   4.121
 8856TIP3   OH226524   2.296   1.688   6.033
 8856TIP3    H126525   2.251   1.609   6.061
 8856TIP3    H226526   2.361   1.657   5.969
 8857TIP3   OH226527   5.877   7.793   5.956
 8857TIP3    H126528   5.896   7.767   6.046
 8857TIP3    H226529   5.831   7.717   5.919
 8858TIP3   OH226530   7.398   0.179   1.157
 8858TIP3    H126531   7.417   0.166   1.064
 8858TIP3    H226532   7.328   0.117   1.177
 8859TIP3   OH226533   0.280   7.274   2.704
 8859TIP3    H126534   0.318   7.346   2.755
 8859TIP3    H226535   0.207   7.313   2.657
 8860TIP3   OH226536   7.921   6.445   0.878
 8860TIP3    H126537   7.964   6.516   0.829
 8860TIP3    H226538   7.971   6.367   0.856
 8861TIP3   OH226539   1.688   2.348   4.802
 8861TIP3    H126540   1.680   2.358   4.897
 8861TIP3    H226541   1.605   2.382   4.768
 8862TIP3   OH226542   7.996   5.032   2.714
 8862TIP3    H126543   8.007   5.115   2.669
 8862TIP3    H226544   7.945   4.978   2.653
 8863TIP3   OH226545   2.687   6.455   1.293
 8863TIP3    H126546   2.732   6.439   1.210
 8863TIP3    H226547   2.599   6.418   1.279
 8864TIP3   OH226548   3.762   3.911   3.348
 8864TIP3    H126549   3.826   3.970   3.309
 8864TIP3    H226550   3.730   3.957   3.425
 8865TIP3   OH226551   3.443   4.145   6.559
 8865TIP3    H126552   3.408   4.233   6.573
 8865TIP3    H226553   3.442   4.105   6.647
 8866TIP3   OH226554   6.565   1.932   0.920
 8866TIP3    H126555   6.588   1.867   0.854
 8866TIP3    H226556   6.644   1.987   0.928
 8867TIP3   OH226557   4.295   0.903   2.313
 8867TIP3    H126558   4.374   0.915   2.365
 8867TIP3    H226559   4.253   0.989   2.313
 8868TIP3   OH226560   3.693   1.977   2.271
 8868TIP3    H126561   3.678   2.009   2.181
 8868TIP3    H226562   3.694   1.882   2.262
 8869TIP3   OH226563   3.547   1.480   4.761
 8869TIP3    H126564   3.564   1.573   4.746
 8869TIP3    H226565   3.625   1.449   4.807
 8870TIP3   OH226566   0.394   3.335   2.652
 8870TIP3    H126567   0.347   3.407   2.611
 8870TIP3    H226568   0.326   3.269   2.670
 8871TIP3   OH226569   6.869   2.766   2.663
 8871TIP3    H126570   6.858   2.714   2.743
 8871TIP3    H226571   6.959   2.750   2.636
 8872TIP3   OH226572   6.846   3.519   0.068
 8872TIP3    H126573   6.913   3.586   0.054
 8872TIP3    H226574   6.895   3.438   0.078
 8873TIP3   OH226575   6.860   2.515   4.332
 8873TIP3    H126576   6.942   2.539   4.290
 8873TIP3    H226577   6.796   2.513   4.262
 8874TIP3   OH226578   3.084   6.080   0.208
 8874TIP3    H126579   3.158   6.111   0.260
 8874TIP3    H226580   3.059   6.154   0.154
 8875TIP3   OH226581   3.905   2.965   5.906
 8875TIP3    H126582   3.874   2.972   5.997
 8875TIP3    H226583   4.000   2.979   5.913
 8876TIP3   OH226584   8.014   7.060   2.458
 8876TIP3    H126585   8.027   7.080   2.366
 8876TIP3    H226586   7.932   7.103   2.481
 8877TIP3   OH226587   0.340   4.374   5.060
 8877TIP3    H126588   0.428   4.355   5.027
 8877TIP3    H226589   0.287   4.386   4.981
 8878TIP3   OH226590   0.318   2.393   5.885
 8878TIP3    H126591   0.397   2.348   5.915
 8878TIP3    H226592   0.279   2.332   5.821
 8879TIP3   OH226593   6.217   7.702   5.648
 8879TIP3    H126594   6.228   7.707   5.743
 8879TIP3    H226595   6.306   7.694   5.614
 8880TIP3   OH226596   8.019   1.913   3.197
 8880TIP3    H126597   8.025   2.000   3.238
 8880TIP3    H226598   7.926   1.890   3.203
 8881TIP3   OH226599   1.999   0.950   1.585
 8881TIP3    H126600   1.924   0.976   1.532
 8881TIP3    H226601   2.046   1.031   1.603
 8882TIP3   OH226602   2.056   4.697   6.516
 8882TIP3    H126603   2.101   4.684   6.600
 8882TIP3    H226604   2.079   4.786   6.490
 8883TIP3   OH226605   3.090   3.062   6.701
 8883TIP3    H126606   3.040   3.084   6.622
 8883TIP3    H226607   3.030   3.010   6.754
 8884TIP3   OH226608   5.491   0.670   4.182
 8884TIP3    H126609   5.406   0.689   4.143
 8884TIP3    H226610   5.546   0.746   4.160
 8885TIP3   OH226611   1.765   5.496   5.762
 8885TIP3    H126612   1.795   5.584   5.739
 8885TIP3    H226613   1.767   5.448   5.680
 8886TIP3   OH226614   2.007   4.581   0.808
 8886TIP3    H126615   2.063   4.596   0.733
 8886TIP3    H226616   1.952   4.659   0.814
 8887TIP3   OH226617   7.190   7.090   3.502
 8887TIP3    H126618   7.174   7.103   3.408
 8887TIP3    H226619   7.249   7.161   3.526
 8888TIP3   OH226620   6.711   0.424   4.156
 8888TIP3    H126621   6.715   0.394   4.066
 8888TIP3    H226622   6.634   0.481   4.159
 8889TIP3   OH226623   0.387   2.662   4.439
 8889TIP3    H126624   0.355   2.584   4.485
 8889TIP3    H226625   0.329   2.670   4.363
 8890TIP3   OH226626   2.229   3.392   6.668
 8890TIP3    H126627   2.136   3.370   6.672
 8890TIP3    H226628   2.235   3.460   6.601
 8891TIP3   OH226629   3.394   3.869   4.171
 8891TIP3    H126630   3.435   3.807   4.231
 8891TIP3    H226631   3.342   3.815   4.112
 8892TIP3   OH226632   0.875   0.178   3.826
 8892TIP3    H126633   0.889   0.113   3.757
 8892TIP3    H226634   0.803   0.232   3.794
 8893TIP3   OH226635   2.872   7.428   4.428
 8893TIP3    H126636   2.840   7.411   4.340
 8893TIP3    H226637   2.795   7.460   4.475
 8894TIP3   OH226638   1.259   4.567   2.056
 8894TIP3    H126639   1.175   4.548   2.097
 8894TIP3    H226640   1.257   4.519   1.973
 8895TIP3   OH226641   3.706   2.539   5.903
 8895TIP3    H126642   3.622   2.584   5.890
 8895TIP3    H226643   3.769   2.593   5.855
 8896TIP3   OH226644   2.525   4.748   6.042
 8896TIP3    H126645   2.439   4.790   6.052
 8896TIP3    H226646   2.575   4.779   6.117
 8897TIP3   OH226647   2.283   5.707   2.791
 8897TIP3    H126648   2.272   5.613   2.806
 8897TIP3    H226649   2.214   5.729   2.729
 8898TIP3   OH226650   6.157   0.373   5.964
 8898TIP3    H126651   6.223   0.358   5.896
 8898TIP3    H226652   6.098   0.298   5.956
 8899TIP3   OH226653   1.069   4.515   4.637
 8899TIP3    H126654   1.132   4.534   4.567
 8899TIP3    H226655   1.119   4.466   4.702
 8900TIP3   OH226656   7.916   0.534   5.903
 8900TIP3    H126657   7.837   0.522   5.954
 8900TIP3    H226658   7.905   0.618   5.859
 8901TIP3   OH226659   6.959   3.984   1.351
 8901TIP3    H126660   7.016   3.918   1.311
 8901TIP3    H226661   6.898   4.007   1.281
 8902TIP3   OH226662   4.983   7.062   1.408
 8902TIP3    H126663   5.052   7.004   1.374
 8902TIP3    H226664   4.935   7.008   1.470
 8903TIP3   OH226665   6.269   5.451   5.875
 8903TIP3    H126666   6.355   5.442   5.916
 8903TIP3    H226667   6.281   5.519   5.809
 8904TIP3   OH226668   1.300   7.743   5.598
 8904TIP3    H126669   1.282   7.824   5.551
 8904TIP3    H226670   1.215   7.715   5.631
 8905TIP3   OH226671   4.938   6.891   0.751
 8905TIP3    H126672   4.979   6.973   0.721
 8905TIP3    H226673   4.933   6.836   0.673
 8906TIP3   OH226674   5.052   5.776   3.815
 8906TIP3    H126675   5.079   5.781   3.723
 8906TIP3    H226676   5.014   5.689   3.824
 8907TIP3   OH226677   3.561   6.225   4.372
 8907TIP3    H126678   3.529   6.291   4.434
 8907TIP3    H226679   3.612   6.165   4.427
 8908TIP3   OH226680   7.278   7.525   1.446
 8908TIP3    H126681   7.336   7.481   1.384
 8908TIP3    H226682   7.224   7.455   1.483
 8909TIP3   OH226683   8.131   5.097   5.622
 8909TIP3    H126684   8.071   5.100   5.547
 8909TIP3    H226685   8.213   5.132   5.588
 8910TIP3   OH226686   1.752   3.544   3.087
 8910TIP3    H126687   1.657   3.537   3.082
 8910TIP3    H226688   1.777   3.487   3.160
 8911TIP3   OH226689   0.202   7.225   2.089
 8911TIP3    H126690   0.190   7.158   2.022
 8911TIP3    H226691   0.192   7.178   2.172
 8912TIP3   OH226692   6.560   0.382   3.170
 8912TIP3    H126693   6.573   0.289   3.149
 8912TIP3    H226694   6.622   0.429   3.115
 8913TIP3   OH226695   5.970   0.777   1.301
 8913TIP3    H126696   5.985   0.714   1.371
 8913TIP3    H226697   6.051   0.827   1.295
 8914TIP3   OH226698   4.398   6.021   5.311
 8914TIP3    H126699   4.428   6.106   5.279
 8914TIP3    H226700   4.354   6.040   5.394
 8915TIP3   OH226701   0.057   0.482   0.248
 8915TIP3    H126702   0.097   0.566   0.267
 8915TIP3    H226703   0.127   0.430   0.208
 8916TIP3   OH226704   2.456   4.733   2.212
 8916TIP3    H126705   2.376   4.770   2.249
 8916TIP3    H226706   2.525   4.761   2.272
 8917TIP3   OH226707   4.015   7.510   0.094
 8917TIP3    H126708   4.095   7.550   0.128
 8917TIP3    H226709   4.044   7.453   0.023
 8918TIP3   OH226710   7.028   2.058   2.615
 8918TIP3    H126711   6.957   2.044   2.551
 8918TIP3    H226712   7.103   2.011   2.578
 8919TIP3   OH226713   2.158   3.374   4.065
 8919TIP3    H126714   2.113   3.458   4.065
 8919TIP3    H226715   2.088   3.309   4.072
 8920TIP3   OH226716   1.009   2.177   1.031
 8920TIP3    H126717   0.987   2.218   1.114
 8920TIP3    H226718   1.002   2.083   1.049
 8921TIP3   OH226719   3.220   4.317   2.180
 8921TIP3    H126720   3.182   4.392   2.226
 8921TIP3    H226721   3.199   4.332   2.088
 8922TIP3   OH226722   2.387   0.094   4.534
 8922TIP3    H126723   2.475   0.128   4.552
 8922TIP3    H226724   2.340   0.106   4.616
 8923TIP3   OH226725   0.648   4.003   1.033
 8923TIP3    H126726   0.553   4.000   1.017
 8923TIP3    H226727   0.668   3.918   1.072
 8924TIP3   OH226728   7.560   4.918   1.172
 8924TIP3    H126729   7.480   4.953   1.131
 8924TIP3    H226730   7.629   4.979   1.147
 8925TIP3   OH226731   0.992   4.034   0.600
 8925TIP3    H126732   0.973   4.128   0.599
 8925TIP3    H226733   0.908   3.992   0.616
 8926TIP3   OH226734   3.993   2.605   4.618
 8926TIP3    H126735   4.057   2.534   4.616
 8926TIP3    H226736   4.031   2.671   4.675
 8927TIP3   OH226737   0.966   0.666   3.610
 8927TIP3    H126738   0.937   0.595   3.553
 8927TIP3    H226739   0.946   0.746   3.562
 8928TIP3   OH226740   7.245   2.223   6.272
 8928TIP3    H126741   7.205   2.271   6.200
 8928TIP3    H226742   7.331   2.263   6.282
 8929TIP3   OH226743   2.603   4.277   3.936
 8929TIP3    H126744   2.547   4.342   3.979
 8929TIP3    H226745   2.541   4.219   3.891
 8930TIP3   OH226746   7.045   0.417   4.598
 8930TIP3    H126747   7.022   0.348   4.660
 8930TIP3    H226748   7.122   0.383   4.552
 8931TIP3   OH226749   2.691   4.548   6.076
 8931TIP3    H126750   2.633   4.582   6.007
 8931TIP3    H226751   2.695   4.618   6.140
 8932TIP3   OH226752   5.408   4.901   2.103
 8932TIP3    H126753   5.496   4.866   2.094
 8932TIP3    H226754   5.418   4.982   2.152
 8933TIP3   OH226755   3.764   4.489   4.440
 8933TIP3    H126756   3.810   4.515   4.360
 8933TIP3    H226757   3.727   4.403   4.420
 8934TIP3   OH226758   0.638   1.170   2.706
 8934TIP3    H126759   0.576   1.210   2.767
 8934TIP3    H226760   0.585   1.150   2.629
 8935TIP3   OH226761   0.699   5.896   3.905
 8935TIP3    H126762   0.705   5.957   3.832
 8935TIP3    H226763   0.790   5.876   3.926
 8936TIP3   OH226764   6.612   3.353   5.043
 8936TIP3    H126765   6.582   3.428   4.992
 8936TIP3    H226766   6.599   3.379   5.134
 8937TIP3   OH226767   4.738   1.907   6.068
 8937TIP3    H126768   4.806   1.862   6.119
 8937TIP3    H226769   4.709   1.842   6.003
 8938TIP3   OH226770   4.487   3.655   5.862
 8938TIP3    H126771   4.582   3.652   5.858
 8938TIP3    H226772   4.458   3.608   5.784
 8939TIP3   OH226773   8.077   1.625   3.608
 8939TIP3    H126774   8.127   1.706   3.595
 8939TIP3    H226775   8.107   1.566   3.539
 8940TIP3   OH226776   3.200   0.174   1.935
 8940TIP3    H126777   3.275   0.125   1.902
 8940TIP3    H226778   3.217   0.265   1.908
 8941TIP3   OH226779   0.456   6.973   0.279
 8941TIP3    H126780   0.504   6.947   0.357
 8941TIP3    H226781   0.420   6.892   0.244
 8942TIP3   OH226782   3.650   6.413   4.752
 8942TIP3    H126783   3.589   6.486   4.739
 8942TIP3    H226784   3.735   6.447   4.726
 8943TIP3   OH226785   2.782   3.470   5.237
 8943TIP3    H126786   2.842   3.408   5.198
 8943TIP3    H226787   2.785   3.547   5.180
 8944TIP3   OH226788   2.627   5.727   0.095
 8944TIP3    H126789   2.589   5.792   0.154
 8944TIP3    H226790   2.684   5.777   0.037
 8945TIP3   OH226791   8.098   3.819   5.588
 8945TIP3    H126792   8.090   3.842   5.680
 8945TIP3    H226793   8.172   3.870   5.556
 8946TIP3   OH226794   6.172   4.313   5.003
 8946TIP3    H126795   6.170   4.404   4.973
 8946TIP3    H226796   6.082   4.283   4.996
 8947TIP3   OH226797   6.038   6.577   5.307
 8947TIP3    H126798   6.127   6.557   5.335
 8947TIP3    H226799   6.002   6.493   5.277
 8948TIP3   OH226800   6.064   1.764   4.966
 8948TIP3    H126801   6.075   1.842   5.020
 8948TIP3    H226802   6.084   1.691   5.025
 8949TIP3   OH226803   5.007   3.562   4.939
 8949TIP3    H126804   4.963   3.524   4.863
 8949TIP3    H226805   4.944   3.624   4.975
 8950TIP3   OH226806   7.167   0.780   3.362
 8950TIP3    H126807   7.230   0.849   3.341
 8950TIP3    H226808   7.095   0.826   3.405
 8951TIP3   OH226809   4.498   6.676   0.689
 8951TIP3    H126810   4.480   6.769   0.698
 8951TIP3    H226811   4.583   6.663   0.731
 8952TIP3   OH226812   8.079   4.538   5.701
 8952TIP3    H126813   8.064   4.611   5.641
 8952TIP3    H226814   8.082   4.578   5.788
 8953TIP3   OH226815   2.628   3.145   0.772
 8953TIP3    H126816   2.658   3.092   0.698
 8953TIP3    H226817   2.620   3.083   0.844
 8954TIP3   OH226818   0.303   6.097   5.946
 8954TIP3    H126819   0.319   6.185   5.981
 8954TIP3    H226820   0.214   6.102   5.910
 8955TIP3   OH226821   5.073   1.943   5.101
 8955TIP3    H126822   5.027   1.860   5.100
 8955TIP3    H226823   5.100   1.955   5.192
 8956TIP3   OH226824   7.160   2.151   1.975
 8956TIP3    H126825   7.238   2.201   1.950
 8956TIP3    H226826   7.188   2.059   1.967
 8957TIP3   OH226827   7.320   4.912   0.657
 8957TIP3    H126828   7.242   4.940   0.704
 8957TIP3    H226829   7.386   4.899   0.725
 8958TIP3   OH226830   0.784   1.403   6.577
 8958TIP3    H126831   0.744   1.337   6.521
 8958TIP3    H226832   0.841   1.453   6.518
 8959TIP3   OH226833   8.265   3.279   4.422
 8959TIP3    H126834   8.215   3.357   4.444
 8959TIP3    H226835   8.356   3.302   4.440
 8960TIP3   OH226836   8.015   0.282   1.235
 8960TIP3    H126837   7.942   0.338   1.209
 8960TIP3    H226838   7.996   0.257   1.326
 8961TIP3   OH226839   1.130   0.530   3.765
 8961TIP3    H126840   1.069   0.495   3.830
 8961TIP3    H226841   1.074   0.577   3.703
 8962TIP3   OH226842   4.345   0.513   5.539
 8962TIP3    H126843   4.376   0.511   5.449
 8962TIP3    H226844   4.408   0.567   5.586
 8963TIP3   OH226845   4.580   3.862   2.003
 8963TIP3    H126846   4.542   3.887   2.087
 8963TIP3    H226847   4.582   3.767   2.005
 8964TIP3   OH226848   0.808   0.454   5.601
 8964TIP3    H126849   0.808   0.380   5.662
 8964TIP3    H226850   0.757   0.423   5.526
 8965TIP3   OH226851   7.297   7.075   0.174
 8965TIP3    H126852   7.326   7.075   0.083
 8965TIP3    H226853   7.282   6.982   0.194
 8966TIP3   OH226854   4.103   1.753   3.640
 8966TIP3    H126855   4.193   1.779   3.621
 8966TIP3    H226856   4.109   1.660   3.661
 8967TIP3   OH226857   2.554   5.903   2.510
 8967TIP3    H126858   2.541   5.992   2.542
 8967TIP3    H226859   2.521   5.847   2.580
 8968TIP3   OH226860   3.511   4.718   2.887
 8968TIP3    H126861   3.544   4.707   2.797
 8968TIP3    H226862   3.581   4.766   2.932
 8969TIP3   OH226863   5.571   4.682   6.080
 8969TIP3    H126864   5.610   4.623   6.145
 8969TIP3    H226865   5.557   4.627   6.003
 8970TIP3   OH226866   5.959   1.040   5.866
 8970TIP3    H126867   5.931   1.131   5.856
 8970TIP3    H226868   6.032   1.030   5.805
 8971TIP3   OH226869   5.762   1.809   3.647
 8971TIP3    H126870   5.781   1.902   3.652
 8971TIP3    H226871   5.774   1.787   3.554
 8972TIP3   OH226872   2.475   2.317   0.456
 8972TIP3    H126873   2.484   2.221   0.454
 8972TIP3    H226874   2.409   2.337   0.390
 8973TIP3   OH226875   7.495   2.533   5.994
 8973TIP3    H126876   7.563   2.491   6.047
 8973TIP3    H226877   7.417   2.480   6.009
 8974TIP3   OH226878   7.674   5.813   0.372
 8974TIP3    H126879   7.694   5.737   0.317
 8974TIP3    H226880   7.760   5.849   0.395
 8975TIP3   OH226881   3.075   0.404   3.766
 8975TIP3    H126882   3.152   0.351   3.785
 8975TIP3    H226883   3.111   0.488   3.736
 8976TIP3   OH226884   2.827   0.087   1.359
 8976TIP3    H126885   2.736   0.076   1.330
 8976TIP3    H226886   2.819   0.119   1.449
 8977TIP3   OH226887   2.660   1.428   0.250
 8977TIP3    H126888   2.730   1.435   0.315
 8977TIP3    H226889   2.682   1.349   0.199
 8978TIP3   OH226890   5.272   4.316   2.278
 8978TIP3    H126891   5.272   4.300   2.183
 8978TIP3    H226892   5.243   4.407   2.286
 8979TIP3   OH226893   4.947   1.956   5.467
 8979TIP3    H126894   4.972   2.012   5.541
 8979TIP3    H226895   5.030   1.925   5.431
 8980TIP3   OH226896   4.305   1.248   2.771
 8980TIP3    H126897   4.361   1.247   2.849
 8980TIP3    H226898   4.276   1.157   2.761
 8981TIP3   OH226899   5.611   1.679   2.679
 8981TIP3    H126900   5.594   1.726   2.761
 8981TIP3    H226901   5.533   1.693   2.626
 8982TIP3   OH226902   4.555   4.776   4.469
 8982TIP3    H126903   4.616   4.702   4.465
 8982TIP3    H226904   4.507   4.763   4.550
 8983TIP3   OH226905   5.783   2.921   3.499
 8983TIP3    H126906   5.782   2.977   3.421
 8983TIP3    H226907   5.844   2.851   3.479
 8984TIP3   OH226908   7.573   1.131   2.989
 8984TIP3    H126909   7.477   1.135   2.986
 8984TIP3    H226910   7.597   1.069   2.920
 8985TIP3   OH226911   6.996   3.226   6.438
 8985TIP3    H126912   6.963   3.313   6.462
 8985TIP3    H226913   6.926   3.188   6.385
 8986TIP3   OH226914   6.391   5.948   5.503
 8986TIP3    H126915   6.327   6.016   5.521
 8986TIP3    H226916   6.450   5.949   5.579
 8987TIP3   OH226917   0.679   5.144   3.173
 8987TIP3    H126918   0.634   5.193   3.242
 8987TIP3    H226919   0.772   5.153   3.195
 8988TIP3   OH226920   4.143   5.180   6.343
 8988TIP3    H126921   4.237   5.162   6.349
 8988TIP3    H226922   4.138   5.274   6.327
 8989TIP3   OH226923   2.229   4.835   3.468
 8989TIP3    H126924   2.238   4.792   3.383
 8989TIP3    H226925   2.166   4.906   3.452
 8990TIP3   OH226926   3.593   2.822   3.407
 8990TIP3    H126927   3.578   2.795   3.498
 8990TIP3    H226928   3.545   2.757   3.355
 8991TIP3   OH226929   6.457   4.661   5.354
 8991TIP3    H126930   6.473   4.568   5.372
 8991TIP3    H226931   6.408   4.692   5.431
 8992TIP3   OH226932   5.031   3.369   3.404
 8992TIP3    H126933   5.093   3.355   3.332
 8992TIP3    H226934   5.075   3.429   3.463
 8993TIP3   OH226935   4.917   7.315   3.768
 8993TIP3    H126936   4.984   7.249   3.784
 8993TIP3    H226937   4.962   7.398   3.784
 8994TIP3   OH226938   6.508   7.782   3.199
 8994TIP3    H126939   6.540   7.723   3.130
 8994TIP3    H226940   6.413   7.766   3.202
 8995TIP3   OH226941   7.311   4.371   2.828
 8995TIP3    H126942   7.371   4.440   2.856
 8995TIP3    H226943   7.366   4.292   2.825
 8996TIP3   OH226944   3.399   0.734   0.817
 8996TIP3    H126945   3.325   0.691   0.775
 8996TIP3    H226946   3.476   0.690   0.782
 8997TIP3   OH226947   7.719   6.678   5.042
 8997TIP3    H126948   7.647   6.614   5.042
 8997TIP3    H226949   7.731   6.699   5.135
 8998TIP3   OH226950   5.091   0.864   1.856
 8998TIP3    H126951   5.093   0.823   1.769
 8998TIP3    H226952   5.183   0.879   1.877
 8999TIP3   OH226953   4.024   0.525   2.965
 8999TIP3    H126954   3.935   0.523   3.000
 8999TIP3    H226955   4.032   0.445   2.913
 9000TIP3   OH226956   3.321   2.420   2.614
 9000TIP3    H126957   3.411   2.436   2.585
 9000TIP3    H226958   3.302   2.331   2.587
 9001TIP3   OH226959   3.822   5.881   1.629
 9001TIP3    H126960   3.901   5.848   1.587
 9001TIP3    H226961   3.850   5.959   1.676
 9002TIP3   OH226962   3.303   5.788   2.983
 9002TIP3    H126963   3.286   5.706   3.030
 9002TIP3    H226964   3.349   5.842   3.047
 9003TIP3   OH226965   6.343   0.624   1.423
 9003TIP3    H126966   6.270   0.591   1.475
 9003TIP3    H226967   6.387   0.545   1.390
 9004TIP3   OH226968   5.619   3.765   5.804
 9004TIP3    H126969   5.562   3.825   5.852
 9004TIP3    H226970   5.697   3.817   5.785
 9005TIP3   OH226971   1.471   6.936   4.165
 9005TIP3    H126972   1.501   6.871   4.228
 9005TIP3    H226973   1.548   6.992   4.150
 9006TIP3   OH226974   6.971   2.583   0.487
 9006TIP3    H126975   7.027   2.553   0.559
 9006TIP3    H226976   6.996   2.674   0.474
 9007TIP3   OH226977   0.052   1.820   3.065
 9007TIP3    H126978   0.050   1.914   3.047
 9007TIP3    H226979   0.054   1.779   2.978
 9008TIP3   OH226980   2.727   2.371   6.626
 9008TIP3    H126981   2.799   2.366   6.689
 9008TIP3    H226982   2.663   2.308   6.658
 9009TIP3   OH226983   7.799   0.438   5.513
 9009TIP3    H126984   7.726   0.498   5.532
 9009TIP3    H226985   7.773   0.355   5.552
 9010TIP3   OH226986   3.812   1.273   4.173
 9010TIP3    H126987   3.720   1.249   4.175
 9010TIP3    H226988   3.835   1.290   4.264
 9011TIP3   OH226989   8.202   5.735   1.897
 9011TIP3    H126990   8.118   5.691   1.882
 9011TIP3    H226991   8.178   5.819   1.935
 9012TIP3   OH226992   3.466   3.325   0.492
 9012TIP3    H126993   3.515   3.407   0.505
 9012TIP3    H226994   3.422   3.336   0.408
 9013TIP3   OH226995   4.032   4.738   0.828
 9013TIP3    H126996   3.970   4.759   0.898
 9013TIP3    H226997   4.111   4.709   0.874
 9014TIP3   OH226998   6.245   4.238   5.468
 9014TIP3    H126999   6.226   4.158   5.518
 9014TIP3    H227000   6.269   4.207   5.381
 9015TIP3   OH227001   4.933   3.782   4.189
 9015TIP3    H127002   4.903   3.707   4.241
 9015TIP3    H227003   4.876   3.781   4.112
 9016TIP3   OH227004   1.693   4.815   1.560
 9016TIP3    H127005   1.702   4.720   1.546
 9016TIP3    H227006   1.638   4.823   1.637
 9017TIP3   OH227007   4.651   2.208   5.961
 9017TIP3    H127008   4.629   2.173   6.047
 9017TIP3    H227009   4.744   2.227   5.965
 9018TIP3   OH227010   6.686   5.666   1.546
 9018TIP3    H127011   6.633   5.745   1.550
 9018TIP3    H227012   6.747   5.673   1.620
 9019TIP3   OH227013   6.851   1.918   3.498
 9019TIP3    H127014   6.787   1.917   3.569
 9019TIP3    H227015   6.931   1.950   3.539
 9020TIP3   OH227016   7.983   2.652   0.617
 9020TIP3    H127017   8.079   2.652   0.611
 9020TIP3    H227018   7.955   2.713   0.549
 9021TIP3   OH227019   7.207   2.716   3.706
 9021TIP3    H127020   7.270   2.675   3.647
 9021TIP3    H227021   7.246   2.710   3.793
 9022TIP3   OH227022   4.836   7.622   5.883
 9022TIP3    H127023   4.915   7.672   5.901
 9022TIP3    H227024   4.764   7.680   5.909
 9023TIP3   OH227025   4.377   1.528   6.707
 9023TIP3    H127026   4.379   1.590   6.779
 9023TIP3    H227027   4.284   1.509   6.694
 9024TIP3   OH227028   2.299   2.251   5.492
 9024TIP3    H127029   2.233   2.317   5.514
 9024TIP3    H227030   2.248   2.176   5.463
 9025TIP3   OH227031   8.109   0.493   3.162
 9025TIP3    H127032   8.022   0.527   3.183
 9025TIP3    H227033   8.122   0.420   3.223
 9026TIP3   OH227034   6.373   0.276   2.210
 9026TIP3    H127035   6.429   0.353   2.224
 9026TIP3    H227036   6.397   0.216   2.280
 9027TIP3   OH227037   0.217   5.619   3.292
 9027TIP3    H127038   0.218   5.529   3.260
 9027TIP3    H227039   0.132   5.654   3.264
 9028TIP3   OH227040   5.192   3.036   3.433
 9028TIP3    H127041   5.262   2.972   3.424
 9028TIP3    H227042   5.194   3.086   3.352
 9029TIP3   OH227043   5.687   5.100   2.083
 9029TIP3    H127044   5.623   5.097   2.154
 9029TIP3    H227045   5.705   5.193   2.071
 9030TIP3   OH227046   4.870   1.002   0.360
 9030TIP3    H127047   4.911   1.047   0.434
 9030TIP3    H227048   4.927   0.928   0.341
 9031TIP3   OH227049   7.841   4.364   3.626
 9031TIP3    H127050   7.750   4.372   3.653
 9031TIP3    H227051   7.863   4.450   3.590
 9032TIP3   OH227052   0.063   1.990   5.712
 9032TIP3    H127053   0.002   1.964   5.644
 9032TIP3    H227054   0.030   1.948   5.792
 9033TIP3   OH227055   5.672   5.370   6.153
 9033TIP3    H127056   5.681   5.276   6.171
 9033TIP3    H227057   5.577   5.385   6.153
 9034TIP3   OH227058   2.953   0.287   6.319
 9034TIP3    H127059   3.028   0.348   6.314
 9034TIP3    H227060   2.973   0.232   6.395
 9035TIP3   OH227061   5.311   5.521   1.010
 9035TIP3    H127062   5.386   5.576   1.028
 9035TIP3    H227063   5.285   5.487   1.096
 9036TIP3   OH227064   0.038   3.610   2.699
 9036TIP3    H127065   0.093   3.579   2.771
 9036TIP3    H227066  -0.039   3.553   2.701
 9037TIP3   OH227067   4.647   4.254   1.612
 9037TIP3    H127068   4.637   4.255   1.707
 9037TIP3    H227069   4.606   4.172   1.585
 9038TIP3   OH227070   7.167   2.421   0.806
 9038TIP3    H127071   7.215   2.368   0.870
 9038TIP3    H227072   7.123   2.356   0.751
 9039TIP3   OH227073   5.816   6.138   1.083
 9039TIP3    H127074   5.812   6.231   1.059
 9039TIP3    H227075   5.777   6.093   1.008
 9040TIP3   OH227076   0.653   5.041   5.826
 9040TIP3    H127077   0.589   5.084   5.769
 9040TIP3    H227078   0.621   5.056   5.915
 9041TIP3   OH227079   1.617   3.434   4.621
 9041TIP3    H127080   1.551   3.499   4.596
 9041TIP3    H227081   1.688   3.486   4.659
 9042TIP3   OH227082   4.115   2.624   1.183
 9042TIP3    H127083   4.059   2.546   1.176
 9042TIP3    H227084   4.069   2.680   1.246
 9043TIP3   OH227085   3.524   2.196   5.563
 9043TIP3    H127086   3.532   2.284   5.599
 9043TIP3    H227087   3.497   2.210   5.472
 9044TIP3   OH227088   4.517   6.173   3.614
 9044TIP3    H127089   4.462   6.095   3.624
 9044TIP3    H227090   4.488   6.231   3.684
 9045TIP3   OH227091   2.407   4.276   0.134
 9045TIP3    H127092   2.430   4.283   0.227
 9045TIP3    H227093   2.366   4.360   0.114
 9046TIP3   OH227094   2.918   7.538   5.057
 9046TIP3    H127095   2.857   7.558   4.986
 9046TIP3    H227096   2.865   7.543   5.136
 9047TIP3   OH227097   6.396   1.854   3.345
 9047TIP3    H127098   6.403   1.949   3.331
 9047TIP3    H227099   6.408   1.843   3.439
 9048TIP3   OH227100   1.299   6.177   5.380
 9048TIP3    H127101   1.278   6.154   5.471
 9048TIP3    H227102   1.232   6.241   5.356
 9049TIP3   OH227103   1.585   4.042   6.054
 9049TIP3    H127104   1.656   4.046   5.989
 9049TIP3    H227105   1.527   3.974   6.022
 9050TIP3   OH227106   4.353   1.032   6.155
 9050TIP3    H127107   4.409   1.107   6.176
 9050TIP3    H227108   4.369   1.014   6.063
 9051TIP3   OH227109   0.830   5.472   0.165
 9051TIP3    H127110   0.777   5.392   0.159
 9051TIP3    H227111   0.885   5.458   0.242
 9052TIP3   OH227112   0.324   0.587   4.383
 9052TIP3    H127113   0.333   0.531   4.460
 9052TIP3    H227114   0.396   0.560   4.326
 9053TIP3   OH227115   4.170   2.462   0.355
 9053TIP3    H127116   4.113   2.524   0.400
 9053TIP3    H227117   4.203   2.511   0.279
 9054TIP3   OH227118   3.272   7.226   0.708
 9054TIP3    H127119   3.301   7.316   0.720
 9054TIP3    H227120   3.249   7.196   0.796
 9055TIP3   OH227121   3.551   3.920   3.923
 9055TIP3    H127122   3.487   3.917   3.994
 9055TIP3    H227123   3.596   3.836   3.929
 9056TIP3   OH227124   2.092   3.891   4.975
 9056TIP3    H127125   2.180   3.883   5.011
 9056TIP3    H227126   2.105   3.921   4.886
 9057TIP3   OH227127   1.086   4.014   1.224
 9057TIP3    H127128   1.171   4.058   1.218
 9057TIP3    H227129   1.026   4.069   1.173
 9058TIP3   OH227130   7.659   4.554   2.158
 9058TIP3    H127131   7.713   4.590   2.087
 9058TIP3    H227132   7.694   4.594   2.238
 9059TIP3   OH227133   0.993   0.132   6.544
 9059TIP3    H127134   1.052   0.169   6.610
 9059TIP3    H227135   1.043   0.138   6.463
 9060TIP3   OH227136   5.731   2.511   3.519
 9060TIP3    H127137   5.679   2.491   3.441
 9060TIP3    H227138   5.800   2.569   3.487
 9061TIP3   OH227139   7.552   4.838   1.778
 9061TIP3    H127140   7.517   4.927   1.768
 9061TIP3    H227141   7.592   4.838   1.865
 9062TIP3   OH227142   7.722   3.964   5.665
 9062TIP3    H127143   7.648   4.018   5.691
 9062TIP3    H227144   7.794   3.992   5.722
 9063TIP3   OH227145   3.125   3.517   1.775
 9063TIP3    H127146   3.090   3.525   1.864
 9063TIP3    H227147   3.178   3.438   1.778
 9064TIP3   OH227148   3.255   3.414   1.280
 9064TIP3    H127149   3.337   3.451   1.314
 9064TIP3    H227150   3.187   3.463   1.325
 9065TIP3   OH227151   0.912   4.205   4.408
 9065TIP3    H127152   0.886   4.281   4.460
 9065TIP3    H227153   0.948   4.242   4.327
 9066TIP3   OH227154   6.037   2.864   5.623
 9066TIP3    H127155   6.088   2.932   5.666
 9066TIP3    H227156   5.947   2.898   5.620
 9067TIP3   OH227157   4.023   4.551   3.947
 9067TIP3    H127158   4.040   4.595   3.864
 9067TIP3    H227159   3.966   4.611   3.995
 9068TIP3   OH227160   6.357   4.997   4.065
 9068TIP3    H127161   6.290   4.929   4.058
 9068TIP3    H227162   6.353   5.043   3.981
 9069TIP3   OH227163   0.128   2.778   3.124
 9069TIP3    H127164   0.164   2.770   3.212
 9069TIP3    H227165   0.164   2.860   3.090
 9070TIP3   OH227166   6.630   2.013   5.661
 9070TIP3    H127167   6.564   1.948   5.686
 9070TIP3    H227168   6.714   1.968   5.672
 9071TIP3   OH227169   4.042   7.598   4.605
 9071TIP3    H127170   4.015   7.615   4.515
 9071TIP3    H227171   3.969   7.631   4.658
 9072TIP3   OH227172   5.593   2.900   3.879
 9072TIP3    H127173   5.556   2.982   3.848
 9072TIP3    H227174   5.591   2.842   3.803
 9073TIP3   OH227175   3.095   2.428   1.293
 9073TIP3    H127176   3.133   2.502   1.246
 9073TIP3    H227177   3.152   2.416   1.369
 9074TIP3   OH227178   3.280   0.254   2.766
 9074TIP3    H127179   3.185   0.244   2.765
 9074TIP3    H227180   3.302   0.294   2.682
 9075TIP3   OH227181   2.924   0.587   3.033
 9075TIP3    H127182   2.933   0.594   3.128
 9075TIP3    H227183   2.888   0.499   3.019
 9076TIP3   OH227184   1.676   6.321   2.743
 9076TIP3    H127185   1.642   6.325   2.654
 9076TIP3    H227186   1.697   6.412   2.765
 9077TIP3   OH227187   1.469   4.862   1.319
 9077TIP3    H127188   1.535   4.815   1.270
 9077TIP3    H227189   1.458   4.811   1.400
 9078TIP3   OH227190   3.863   5.062   0.912
 9078TIP3    H127191   3.855   5.048   0.817
 9078TIP3    H227192   3.852   5.157   0.922
 9079TIP3   OH227193   1.918   3.858   6.117
 9079TIP3    H127194   1.996   3.821   6.157
 9079TIP3    H227195   1.872   3.783   6.080
 9080TIP3   OH227196   6.122   5.651   4.295
 9080TIP3    H127197   6.106   5.681   4.206
 9080TIP3    H227198   6.091   5.721   4.351
 9081TIP3   OH227199   1.145   0.626   4.445
 9081TIP3    H127200   1.231   0.607   4.407
 9081TIP3    H227201   1.085   0.619   4.372
 9082TIP3   OH227202   2.754   1.626   4.047
 9082TIP3    H127203   2.750   1.531   4.038
 9082TIP3    H227204   2.740   1.642   4.140
 9083TIP3   OH227205   8.323   6.323   1.780
 9083TIP3    H127206   8.363   6.405   1.752
 9083TIP3    H227207   8.297   6.339   1.871
 9084TIP3   OH227208   7.334   5.487   4.014
 9084TIP3    H127209   7.241   5.469   4.001
 9084TIP3    H227210   7.357   5.550   3.945
 9085TIP3   OH227211   3.638   7.371   5.612
 9085TIP3    H127212   3.559   7.322   5.635
 9085TIP3    H227213   3.697   7.357   5.687
 9086TIP3   OH227214   0.509   6.150   5.101
 9086TIP3    H127215   0.480   6.213   5.166
 9086TIP3    H227216   0.602   6.170   5.088
 9087TIP3   OH227217   7.669   6.529   6.671
 9087TIP3    H127218   7.751   6.572   6.692
 9087TIP3    H227219   7.658   6.543   6.577
 9088TIP3   OH227220   5.226   4.429   5.582
 9088TIP3    H127221   5.172   4.360   5.622
 9088TIP3    H227222   5.164   4.483   5.533
 9089TIP3   OH227223   2.724   7.597   6.256
 9089TIP3    H127224   2.666   7.522   6.246
 9089TIP3    H227225   2.811   7.559   6.265
 9090TIP3   OH227226   5.723   4.311   5.700
 9090TIP3    H127227   5.748   4.353   5.618
 9090TIP3    H227228   5.738   4.378   5.767
 9091TIP3   OH227229   3.384   7.317   5.936
 9091TIP3    H127230   3.449   7.383   5.913
 9091TIP3    H227231   3.427   7.263   6.003
 9092TIP3   OH227232   0.698   4.787   6.667
 9092TIP3    H127233   0.644   4.845   6.613
 9092TIP3    H227234   0.635   4.731   6.712
 9093TIP3   OH227235   4.710   0.278   5.900
 9093TIP3    H127236   4.778   0.338   5.929
 9093TIP3    H227237   4.722   0.200   5.954
 9094TIP3   OH227238   8.184   4.139   2.845
 9094TIP3    H127239   8.100   4.112   2.808
 9094TIP3    H227240   8.247   4.078   2.807
 9095TIP3   OH227241   0.350   6.140   0.025
 9095TIP3    H127242   0.434   6.160  -0.017
 9095TIP3    H227243   0.373   6.087   0.101
 9096TIP3   OH227244   4.110   1.760   0.881
 9096TIP3    H127245   4.159   1.729   0.957
 9096TIP3    H227246   4.070   1.681   0.845
 9097TIP3   OH227247   7.194   3.776   1.843
 9097TIP3    H127248   7.192   3.859   1.890
 9097TIP3    H227249   7.258   3.723   1.891
 9098TIP3   OH227250   0.208   7.004   4.325
 9098TIP3    H127251   0.126   7.027   4.281
 9098TIP3    H227252   0.236   7.085   4.368
 9099TIP3   OH227253   3.721   3.478   0.419
 9099TIP3    H127254   3.801   3.523   0.445
 9099TIP3    H227255   3.683   3.532   0.350
 9100TIP3   OH227256   2.552   0.657   4.213
 9100TIP3    H127257   2.487   0.699   4.156
 9100TIP3    H227258   2.567   0.721   4.282
 9101TIP3   OH227259   5.588   0.000   2.068
 9101TIP3    H127260   5.588   0.086   2.109
 9101TIP3    H227261   5.615  -0.060   2.137
 9102TIP3   OH227262   0.266   3.340   4.734
 9102TIP3    H127263   0.251   3.336   4.829
 9102TIP3    H227264   0.356   3.371   4.725
 9103TIP3   OH227265   3.969   5.949   0.597
 9103TIP3    H127266   3.990   5.863   0.633
 9103TIP3    H227267   4.036   5.965   0.531
 9104TIP3   OH227268   5.978   4.063   0.949
 9104TIP3    H127269   5.886   4.039   0.952
 9104TIP3    H227270   6.014   4.032   1.032
 9105TIP3   OH227271   6.496   7.003   1.485
 9105TIP3    H127272   6.547   7.070   1.531
 9105TIP3    H227273   6.438   6.967   1.552
 9106TIP3   OH227274   4.443   5.446   3.833
 9106TIP3    H127275   4.494   5.478   3.759
 9106TIP3    H227276   4.472   5.355   3.844
 9107TIP3   OH227277   6.121   3.004   3.590
 9107TIP3    H127278   6.212   3.034   3.592
 9107TIP3    H227279   6.072   3.076   3.550
 9108TIP3   OH227280   2.077   4.954   5.697
 9108TIP3    H127281   2.159   4.907   5.684
 9108TIP3    H227282   2.032   4.905   5.766
 9109TIP3   OH227283   4.646   2.748   6.007
 9109TIP3    H127284   4.614   2.788   5.926
 9109TIP3    H227285   4.568   2.737   6.061
 9110TIP3   OH227286   6.756   2.149   2.507
 9110TIP3    H127287   6.675   2.118   2.547
 9110TIP3    H227288   6.767   2.238   2.541
 9111TIP3   OH227289   1.617   2.360   1.692
 9111TIP3    H127290   1.702   2.326   1.665
 9111TIP3    H227291   1.573   2.285   1.732
 9112TIP3   OH227292   6.074   7.499   6.685
 9112TIP3    H127293   6.130   7.428   6.655
 9112TIP3    H227294   6.069   7.559   6.611
 9113TIP3   OH227295   6.530   3.902   4.082
 9113TIP3    H127296   6.487   3.878   3.999
 9113TIP3    H227297   6.623   3.907   4.061
 9114TIP3   OH227298   7.071   0.736   0.436
 9114TIP3    H127299   7.148   0.733   0.492
 9114TIP3    H227300   6.997   0.738   0.497
 9115TIP3   OH227301   2.147   3.674   0.389
 9115TIP3    H127302   2.108   3.588   0.404
 9115TIP3    H227303   2.120   3.726   0.465
 9116TIP3   OH227304   5.138   6.040   5.129
 9116TIP3    H127305   5.215   6.003   5.171
 9116TIP3    H227306   5.163   6.131   5.108
 9117TIP3   OH227307   5.276   1.526   6.683
 9117TIP3    H127308   5.332   1.458   6.648
 9117TIP3    H227309   5.234   1.565   6.606
 9118TIP3   OH227310   2.875   6.642   3.087
 9118TIP3    H127311   2.964   6.639   3.122
 9118TIP3    H227312   2.871   6.723   3.037
 9119TIP3   OH227313   7.112   4.603   2.171
 9119TIP3    H127314   7.179   4.606   2.103
 9119TIP3    H227315   7.142   4.536   2.232
 9120TIP3   OH227316   1.183   4.815   6.015
 9120TIP3    H127317   1.195   4.721   6.028
 9120TIP3    H227318   1.182   4.825   5.919
 9121TIP3   OH227319   6.430   1.652   2.017
 9121TIP3    H127320   6.339   1.660   2.044
 9121TIP3    H227321   6.445   1.558   2.010
 9122TIP3   OH227322   1.463   4.571   6.547
 9122TIP3    H127323   1.536   4.633   6.547
 9122TIP3    H227324   1.451   4.549   6.639
 9123TIP3   OH227325   5.498   0.993   4.571
 9123TIP3    H127326   5.453   0.987   4.487
 9123TIP3    H227327   5.439   0.950   4.633
 9124TIP3   OH227328   3.202   7.062   2.709
 9124TIP3    H127329   3.211   7.006   2.786
 9124TIP3    H227330   3.290   7.095   2.692
 9125TIP3   OH227331   4.418   5.585   4.096
 9125TIP3    H127332   4.455   5.503   4.130
 9125TIP3    H227333   4.400   5.567   4.004
 9126TIP3   OH227334   5.114   4.079   2.940
 9126TIP3    H127335   5.032   4.031   2.945
 9126TIP3    H227336   5.088   4.170   2.928
 9127TIP3   OH227337   2.989   0.492   2.009
 9127TIP3    H127338   3.025   0.497   1.921
 9127TIP3    H227339   2.896   0.509   1.999
 9128TIP3   OH227340   7.479   5.255   4.061
 9128TIP3    H127341   7.458   5.342   4.029
 9128TIP3    H227342   7.413   5.237   4.128
 9129TIP3   OH227343   1.408   4.069   4.424
 9129TIP3    H127344   1.334   4.022   4.462
 9129TIP3    H227345   1.448   4.113   4.499
 9130TIP3   OH227346   2.980   4.190   6.185
 9130TIP3    H127347   3.050   4.236   6.138
 9130TIP3    H227348   2.906   4.251   6.181
 9131TIP3   OH227349   2.105   5.543   0.113
 9131TIP3    H127350   2.108   5.528   0.018
 9131TIP3    H227351   2.031   5.490   0.143
 9132TIP3   OH227352   4.064   4.690   3.723
 9132TIP3    H127353   4.081   4.761   3.661
 9132TIP3    H227354   4.080   4.610   3.672
 9133TIP3   OH227355   7.232   5.070   3.061
 9133TIP3    H127356   7.216   5.111   3.147
 9133TIP3    H227357   7.300   5.005   3.079
 9134TIP3   OH227358   3.373   3.273   5.658
 9134TIP3    H127359   3.359   3.367   5.651
 9134TIP3    H227360   3.467   3.262   5.646
 9135TIP3   OH227361   7.682   2.291   3.529
 9135TIP3    H127362   7.710   2.201   3.541
 9135TIP3    H227363   7.603   2.299   3.583
 9136TIP3   OH227364   1.521   1.019   3.577
 9136TIP3    H127365   1.554   1.012   3.488
 9136TIP3    H227366   1.426   1.025   3.568
 9137TIP3   OH227367   6.155   6.969   1.434
 9137TIP3    H127368   6.098   7.004   1.503
 9137TIP3    H227369   6.205   7.045   1.405
 9138TIP3   OH227370   2.911   1.795   2.854
 9138TIP3    H127371   2.921   1.705   2.822
 9138TIP3    H227372   2.831   1.793   2.907
 9139TIP3   OH227373   3.994   6.487   5.027
 9139TIP3    H127374   3.937   6.412   5.011
 9139TIP3    H227375   4.039   6.467   5.109
 9140TIP3   OH227376   3.938   2.684   5.087
 9140TIP3    H127377   3.943   2.600   5.041
 9140TIP3    H227378   3.956   2.750   5.019
 9141TIP3   OH227379   6.371   7.369   1.793
 9141TIP3    H127380   6.374   7.364   1.697
 9141TIP3    H227381   6.411   7.454   1.813
 9142TIP3   OH227382   0.636   6.688   4.354
 9142TIP3    H127383   0.691   6.758   4.388
 9142TIP3    H227384   0.568   6.733   4.304
 9143TIP3   OH227385   7.490   4.427   5.151
 9143TIP3    H127386   7.486   4.371   5.074
 9143TIP3    H227387   7.456   4.373   5.222
 9144TIP3   OH227388   3.046   1.001   3.132
 9144TIP3    H127389   3.047   0.954   3.216
 9144TIP3    H227390   3.091   1.083   3.150
 9145TIP3   OH227391   8.044   6.319   4.756
 9145TIP3    H127392   8.097   6.300   4.834
 9145TIP3    H227393   8.049   6.238   4.704
 9146TIP3   OH227394   0.561   3.738   1.968
 9146TIP3    H127395   0.531   3.667   1.911
 9146TIP3    H227396   0.485   3.760   2.022
 9147TIP3   OH227397   6.968   6.141   6.551
 9147TIP3    H127398   7.017   6.077   6.500
 9147TIP3    H227399   7.028   6.165   6.622
 9148TIP3   OH227400   5.289   2.253   4.732
 9148TIP3    H127401   5.226   2.283   4.667
 9148TIP3    H227402   5.245   2.181   4.778
 9149TIP3   OH227403   8.116   1.285   3.672
 9149TIP3    H127404   8.183   1.273   3.605
 9149TIP3    H227405   8.036   1.305   3.623
 9150TIP3   OH227406   2.734   0.656   4.726
 9150TIP3    H127407   2.672   0.720   4.689
 9150TIP3    H227408   2.684   0.611   4.794
 9151TIP3   OH227409   5.701   2.967   0.854
 9151TIP3    H127410   5.784   2.920   0.845
 9151TIP3    H227411   5.634   2.898   0.855
 9152TIP3   OH227412   4.832   5.935   1.901
 9152TIP3    H127413   4.781   5.854   1.905
 9152TIP3    H227414   4.815   5.978   1.985
 9153TIP3   OH227415   3.194   1.636   2.899
 9153TIP3    H127416   3.130   1.601   2.837
 9153TIP3    H227417   3.147   1.706   2.945
 9154TIP3   OH227418   4.073   4.178   3.559
 9154TIP3    H127419   3.994   4.124   3.571
 9154TIP3    H227420   4.126   4.161   3.636
 9155TIP3   OH227421   5.662   7.748   3.148
 9155TIP3    H127422   5.664   7.829   3.096
 9155TIP3    H227423   5.607   7.688   3.097
 9156TIP3   OH227424   0.635   4.191   2.061
 9156TIP3    H127425   0.590   4.129   2.005
 9156TIP3    H227426   0.587   4.189   2.144
 9157TIP3   OH227427   6.634   4.268   3.849
 9157TIP3    H127428   6.613   4.344   3.795
 9157TIP3    H227429   6.729   4.263   3.847
 9158TIP3   OH227430   2.132   0.789   2.646
 9158TIP3    H127431   2.203   0.830   2.597
 9158TIP3    H227432   2.056   0.794   2.587
 9159TIP3   OH227433   7.494   4.158   2.835
 9159TIP3    H127434   7.495   4.068   2.802
 9159TIP3    H227435   7.504   4.149   2.930
 9160TIP3   OH227436   7.600   1.133   4.291
 9160TIP3    H127437   7.573   1.043   4.308
 9160TIP3    H227438   7.569   1.183   4.367
 9161TIP3   OH227439   7.255   7.718   5.527
 9161TIP3    H127440   7.265   7.762   5.443
 9161TIP3    H227441   7.180   7.761   5.569
 9162TIP3   OH227442   7.923   2.234   2.366
 9162TIP3    H127443   7.870   2.265   2.440
 9162TIP3    H227444   8.006   2.281   2.374
 9163TIP3   OH227445   0.721   3.704   1.413
 9163TIP3    H127446   0.628   3.696   1.390
 9163TIP3    H227447   0.732   3.649   1.490
 9164TIP3   OH227448   5.077   1.889   1.469
 9164TIP3    H127449   5.133   1.822   1.429
 9164TIP3    H227450   5.111   1.972   1.436
 9165TIP3   OH227451   0.836   5.857   1.545
 9165TIP3    H127452   0.769   5.816   1.599
 9165TIP3    H227453   0.915   5.805   1.562
 9166TIP3   OH227454   7.426   1.791   4.504
 9166TIP3    H127455   7.448   1.873   4.458
 9166TIP3    H227456   7.503   1.737   4.495
 9167TIP3   OH227457   0.748   2.602   5.255
 9167TIP3    H127458   0.719   2.544   5.326
 9167TIP3    H227459   0.843   2.590   5.251
 9168TIP3   OH227460   7.904   3.862   1.348
 9168TIP3    H127461   7.892   3.957   1.351
 9168TIP3    H227462   7.927   3.844   1.257
 9169TIP3   OH227463   0.086   7.133   2.886
 9169TIP3    H127464   0.147   7.159   2.817
 9169TIP3    H227465   0.086   7.038   2.884
 9170TIP3   OH227466   8.263   5.535   2.769
 9170TIP3    H127467   8.259   5.609   2.709
 9170TIP3    H227468   8.299   5.464   2.716
 9171TIP3   OH227469   6.139   4.399   6.193
 9171TIP3    H127470   6.218   4.345   6.199
 9171TIP3    H227471   6.068   4.342   6.222
 9172TIP3   OH227472   2.756   5.583   3.962
 9172TIP3    H127473   2.774   5.492   3.939
 9172TIP3    H227474   2.826   5.633   3.919
 9173TIP3   OH227475   0.614   1.745   0.842
 9173TIP3    H127476   0.571   1.782   0.765
 9173TIP3    H227477   0.580   1.796   0.915
 9174TIP3   OH227478   3.348   2.395   1.024
 9174TIP3    H127479   3.285   2.333   1.061
 9174TIP3    H227480   3.421   2.394   1.086
 9175TIP3   OH227481   6.918   0.770   6.444
 9175TIP3    H127482   6.876   0.855   6.439
 9175TIP3    H227483   6.987   0.772   6.378
 9176TIP3   OH227484   7.494   3.467   3.845
 9176TIP3    H127485   7.474   3.374   3.832
 9176TIP3    H227486   7.584   3.468   3.878
 9177TIP3   OH227487   1.133   7.082   0.546
 9177TIP3    H127488   1.163   7.076   0.456
 9177TIP3    H227489   1.043   7.112   0.540
 9178TIP3   OH227490   3.333   0.760   1.445
 9178TIP3    H127491   3.298   0.696   1.383
 9178TIP3    H227492   3.421   0.728   1.466
 9179TIP3   OH227493   3.526   0.034   2.407
 9179TIP3    H127494   3.585  -0.038   2.387
 9179TIP3    H227495   3.439   0.000   2.386
 9180TIP3   OH227496   4.970   5.940   6.432
 9180TIP3    H127497   4.878   5.915   6.441
 9180TIP3    H227498   5.008   5.872   6.376
 9181TIP3   OH227499   7.476   7.850   0.731
 9181TIP3    H127500   7.503   7.892   0.649
 9181TIP3    H227501   7.519   7.901   0.800
 9182TIP3   OH227502   4.713   5.615   5.100
 9182TIP3    H127503   4.736   5.683   5.163
 9182TIP3    H227504   4.796   5.586   5.064
 9183TIP3   OH227505   1.564   1.638   3.160
 9183TIP3    H127506   1.482   1.683   3.177
 9183TIP3    H227507   1.630   1.707   3.158
 9184TIP3   OH227508   3.301   7.229   6.647
 9184TIP3    H127509   3.393   7.236   6.672
 9184TIP3    H227510   3.252   7.246   6.727
 9185TIP3   OH227511   2.402   5.302   5.634
 9185TIP3    H127512   2.419   5.352   5.554
 9185TIP3    H227513   2.406   5.367   5.704
 9186TIP3   OH227514   2.166   5.326   3.031
 9186TIP3    H127515   2.086   5.336   3.082
 9186TIP3    H227516   2.137   5.331   2.939
 9187TIP3   OH227517   7.231   7.745   1.231
 9187TIP3    H127518   7.199   7.716   1.145
 9187TIP3    H227519   7.215   7.670   1.288
 9188TIP3   OH227520   0.490   5.677   6.741
 9188TIP3    H127521   0.437   5.715   6.812
 9188TIP3    H227522   0.578   5.673   6.777
 9189TIP3   OH227523   0.798   0.732   3.856
 9189TIP3    H127524   0.723   0.790   3.843
 9189TIP3    H227525   0.848   0.740   3.775
 9190TIP3   OH227526   2.432   3.166   2.447
 9190TIP3    H127527   2.477   3.204   2.523
 9190TIP3    H227528   2.398   3.242   2.399
 9191TIP3   OH227529   6.606   0.659   2.003
 9191TIP3    H127530   6.530   0.681   1.950
 9191TIP3    H227531   6.581   0.579   2.050
 9192TIP3   OH227532   1.362   1.498   1.738
 9192TIP3    H127533   1.295   1.552   1.781
 9192TIP3    H227534   1.436   1.558   1.725
 9193TIP3   OH227535   4.449   7.044   1.902
 9193TIP3    H127536   4.392   7.110   1.941
 9193TIP3    H227537   4.395   6.965   1.899
 9194TIP3   OH227538   5.596   6.241   3.311
 9194TIP3    H127539   5.638   6.178   3.253
 9194TIP3    H227540   5.548   6.188   3.375
 9195TIP3   OH227541   2.466   0.538   2.748
 9195TIP3    H127542   2.408   0.558   2.821
 9195TIP3    H227543   2.414   0.481   2.691
 9196TIP3   OH227544   1.923   5.307   3.368
 9196TIP3    H127545   1.961   5.227   3.330
 9196TIP3    H227546   1.922   5.369   3.296
 9197TIP3   OH227547   1.878   7.020   6.292
 9197TIP3    H127548   1.832   7.011   6.375
 9197TIP3    H227549   1.966   7.048   6.316
 9198TIP3   OH227550   5.476   4.840   0.590
 9198TIP3    H127551   5.402   4.789   0.557
 9198TIP3    H227552   5.552   4.784   0.576
 9199TIP3   OH227553   5.568   3.884   4.751
 9199TIP3    H127554   5.662   3.896   4.742
 9199TIP3    H227555   5.551   3.794   4.723
 9200TIP3   OH227556   3.479   3.308   3.012
 9200TIP3    H127557   3.540   3.314   3.085
 9200TIP3    H227558   3.398   3.348   3.045
 9201TIP3   OH227559   6.962   1.531   4.872
 9201TIP3    H127560   6.966   1.450   4.820
 9201TIP3    H227561   7.042   1.578   4.849
 9202TIP3   OH227562   7.506   7.672   1.125
 9202TIP3    H127563   7.418   7.680   1.160
 9202TIP3    H227564   7.506   7.729   1.048
 9203TIP3   OH227565   4.525   0.582   3.459
 9203TIP3    H127566   4.516   0.633   3.378
 9203TIP3    H227567   4.564   0.643   3.521
 9204TIP3   OH227568   7.803   5.673   4.878
 9204TIP3    H127569   7.847   5.753   4.906
 9204TIP3    H227570   7.858   5.602   4.912
 9205TIP3   OH227571   7.149   2.674   3.092
 9205TIP3    H127572   7.173   2.586   3.062
 9205TIP3    H227573   7.231   2.713   3.121
 9206TIP3   OH227574   4.461   2.633   4.957
 9206TIP3    H127575   4.522   2.704   4.941
 9206TIP3    H227576   4.449   2.633   5.052
 9207TIP3   OH227577   0.848   4.359   4.623
 9207TIP3    H127578   0.938   4.394   4.621
 9207TIP3    H227579   0.794   4.435   4.642
 9208TIP3   OH227580   0.134   5.702   6.172
 9208TIP3    H127581   0.073   5.738   6.108
 9208TIP3    H227582   0.215   5.749   6.157
 9209TIP3   OH227583   6.706   5.809   5.749
 9209TIP3    H127584   6.628   5.850   5.784
 9209TIP3    H227585   6.676   5.762   5.671
 9210TIP3   OH227586   3.400   7.446   0.789
 9210TIP3    H127587   3.453   7.423   0.866
 9210TIP3    H227588   3.419   7.538   0.774
 9211TIP3   OH227589   1.787   5.374   0.775
 9211TIP3    H127590   1.733   5.382   0.696
 9211TIP3    H227591   1.876   5.362   0.741
 9212TIP3   OH227592   4.575   7.465   2.638
 9212TIP3    H127593   4.654   7.446   2.588
 9212TIP3    H227594   4.532   7.536   2.588
 9213TIP3   OH227595   7.078   3.365   1.755
 9213TIP3    H127596   7.068   3.371   1.850
 9213TIP3    H227597   7.021   3.433   1.720
 9214TIP3   OH227598   5.898   6.147   0.716
 9214TIP3    H127599   5.852   6.086   0.773
 9214TIP3    H227600   5.981   6.103   0.697
 9215TIP3   OH227601   3.045   0.657   4.544
 9215TIP3    H127602   3.006   0.606   4.615
 9215TIP3    H227603   3.135   0.625   4.539
 9216TIP3   OH227604   4.031   6.002   2.980
 9216TIP3    H127605   4.001   6.085   2.942
 9216TIP3    H227606   3.959   5.941   2.962
 9217TIP3   OH227607   7.616   1.483   4.655
 9217TIP3    H127608   7.698   1.509   4.697
 9217TIP3    H227609   7.554   1.551   4.681
 9218TIP3   OH227610   1.809   7.580   5.441
 9218TIP3    H127611   1.719   7.610   5.429
 9218TIP3    H227612   1.808   7.533   5.524
 9219TIP3   OH227613   7.459   5.480   3.487
 9219TIP3    H127614   7.509   5.467   3.406
 9219TIP3    H227615   7.434   5.573   3.483
 9220TIP3   OH227616   5.218   0.373   6.178
 9220TIP3    H127617   5.292   0.328   6.138
 9220TIP3    H227618   5.246   0.391   6.268
 9221TIP3   OH227619   4.071   0.946   2.980
 9221TIP3    H127620   3.992   0.909   2.939
 9221TIP3    H227621   4.114   0.870   3.020
 9222TIP3   OH227622   5.455   1.836   2.385
 9222TIP3    H127623   5.418   1.776   2.320
 9222TIP3    H227624   5.482   1.912   2.334
 9223TIP3   OH227625   6.162   7.845   4.706
 9223TIP3    H127626   6.066   7.845   4.715
 9223TIP3    H227627   6.193   7.795   4.781
 9224TIP3   OH227628   4.737   3.885   5.669
 9224TIP3    H127629   4.719   3.846   5.584
 9224TIP3    H227630   4.832   3.873   5.681
 9225TIP3   OH227631   6.562   2.497   2.328
 9225TIP3    H127632   6.526   2.492   2.239
 9225TIP3    H227633   6.586   2.589   2.339
 9226TIP3   OH227634   2.312   3.701   1.910
 9226TIP3    H127635   2.323   3.731   1.820
 9226TIP3    H227636   2.321   3.781   1.962
 9227TIP3   OH227637   4.947   2.221   1.547
 9227TIP3    H127638   4.898   2.295   1.582
 9227TIP3    H227639   4.989   2.182   1.624
 9228TIP3   OH227640   1.154   3.863   3.982
 9228TIP3    H127641   1.188   3.781   3.948
 9228TIP3    H227642   1.171   3.859   4.076
 9229TIP3   OH227643   2.628   4.675   0.456
 9229TIP3    H127644   2.696   4.608   0.463
 9229TIP3    H227645   2.674   4.758   0.468
 9230TIP3   OH227646   2.321   3.918   4.493
 9230TIP3    H127647   2.321   3.863   4.414
 9230TIP3    H227648   2.353   4.003   4.463
 9231TIP3   OH227649   2.281   0.073   0.331
 9231TIP3    H127650   2.195   0.093   0.292
 9231TIP3    H227651   2.270  -0.013   0.370
 9232TIP3   OH227652   3.738   1.127   6.301
 9232TIP3    H127653   3.790   1.047   6.308
 9232TIP3    H227654   3.700   1.124   6.213
 9233TIP3   OH227655   3.090   3.135   3.742
 9233TIP3    H127656   3.093   3.077   3.666
 9233TIP3    H227657   3.165   3.109   3.796
 9234TIP3   OH227658   2.692   0.159   4.190
 9234TIP3    H127659   2.634   0.219   4.237
 9234TIP3    H227660   2.750   0.217   4.140
 9235TIP3   OH227661   6.384   3.101   3.558
 9235TIP3    H127662   6.436   3.084   3.479
 9235TIP3    H227663   6.410   3.189   3.586
 9236TIP3   OH227664   2.792   7.437   4.178
 9236TIP3    H127665   2.819   7.399   4.094
 9236TIP3    H227666   2.725   7.501   4.155
 9237TIP3   OH227667   3.126   4.316   1.918
 9237TIP3    H127668   3.183   4.269   1.857
 9237TIP3    H227669   3.072   4.247   1.956
 9238TIP3   OH227670   2.808   7.629   5.989
 9238TIP3    H127671   2.812   7.537   5.962
 9238TIP3    H227672   2.794   7.625   6.084
 9239TIP3   OH227673   0.059   5.215   2.373
 9239TIP3    H127674   0.088   5.126   2.355
 9239TIP3    H227675   0.134   5.270   2.350
 9240TIP3   OH227676   3.843   0.144   1.209
 9240TIP3    H127677   3.882   0.098   1.283
 9240TIP3    H227678   3.868   0.093   1.133
 9241TIP3   OH227679   5.513   3.657   3.840
 9241TIP3    H127680   5.563   3.603   3.779
 9241TIP3    H227681   5.426   3.663   3.801
 9242TIP3   OH227682   7.017   1.832   6.403
 9242TIP3    H127683   7.037   1.925   6.408
 9242TIP3    H227684   7.021   1.801   6.493
 9243TIP3   OH227685   5.741   4.226   3.363
 9243TIP3    H127686   5.646   4.222   3.374
 9243TIP3    H227687   5.765   4.141   3.327
 9244TIP3   OH227688   5.061   0.675   4.192
 9244TIP3    H127689   5.028   0.623   4.265
 9244TIP3    H227690   5.035   0.627   4.114
 9245TIP3   OH227691   7.738   0.184   5.634
 9245TIP3    H127692   7.798   0.109   5.635
 9245TIP3    H227693   7.712   0.195   5.725
 9246TIP3   OH227694   2.506   4.083   5.574
 9246TIP3    H127695   2.595   4.069   5.543
 9246TIP3    H227696   2.515   4.139   5.651
 9247TIP3   OH227697   7.596   0.502   6.406
 9247TIP3    H127698   7.683   0.512   6.366
 9247TIP3    H227699   7.536   0.501   6.332
 9248TIP3   OH227700   2.934   2.817   4.669
 9248TIP3    H127701   2.931   2.768   4.587
 9248TIP3    H227702   2.851   2.798   4.712
 9249TIP3   OH227703   3.788   6.786   0.494
 9249TIP3    H127704   3.862   6.804   0.551
 9249TIP3    H227705   3.736   6.867   0.497
 9250TIP3   OH227706   3.441   4.462   6.075
 9250TIP3    H127707   3.418   4.494   5.987
 9250TIP3    H227708   3.389   4.383   6.087
 9251TIP3   OH227709   1.890   0.099   1.945
 9251TIP3    H127710   1.922   0.176   1.898
 9251TIP3    H227711   1.958   0.033   1.933
 9252TIP3   OH227712   6.976   4.423   1.184
 9252TIP3    H127713   6.936   4.505   1.213
 9252TIP3    H227714   6.977   4.430   1.088
 9253TIP3   OH227715   8.057   0.767   2.819
 9253TIP3    H127716   8.016   0.843   2.860
 9253TIP3    H227717   7.992   0.697   2.826
 9254TIP3   OH227718   5.657   4.004   0.034
 9254TIP3    H127719   5.630   3.954  -0.043
 9254TIP3    H227720   5.672   4.092   0.000
 9255TIP3   OH227721   7.680   2.899   4.302
 9255TIP3    H127722   7.719   2.891   4.215
 9255TIP3    H227723   7.662   2.993   4.313
 9256TIP3   OH227724   2.491   3.272   6.666
 9256TIP3    H127725   2.408   3.314   6.690
 9256TIP3    H227726   2.534   3.255   6.750
 9257TIP3   OH227727   1.565   2.011   5.896
 9257TIP3    H127728   1.649   2.053   5.918
 9257TIP3    H227729   1.547   2.040   5.807
 9258TIP3   OH227730   4.162   6.996   2.077
 9258TIP3    H127731   4.119   6.979   2.160
 9258TIP3    H227732   4.121   6.935   2.015
 9259TIP3   OH227733   1.609   3.985   2.596
 9259TIP3    H127734   1.669   3.912   2.583
 9259TIP3    H227735   1.633   4.049   2.529
 9260TIP3   OH227736   4.053   1.592   5.926
 9260TIP3    H127737   4.083   1.682   5.918
 9260TIP3    H227738   4.038   1.580   6.020
 9261TIP3   OH227739   4.247   1.480   0.543
 9261TIP3    H127740   4.281   1.507   0.628
 9261TIP3    H227741   4.232   1.562   0.496
 9262TIP3   OH227742   6.193   2.604   3.532
 9262TIP3    H127743   6.142   2.651   3.598
 9262TIP3    H227744   6.274   2.655   3.525
 9263TIP3   OH227745   7.215   6.117   6.210
 9263TIP3    H127746   7.206   6.062   6.288
 9263TIP3    H227747   7.181   6.202   6.237
 9264TIP3   OH227748   4.411   3.853   5.604
 9264TIP3    H127749   4.503   3.831   5.590
 9264TIP3    H227750   4.413   3.943   5.637
 9265TIP3   OH227751   7.282   0.776   2.067
 9265TIP3    H127752   7.240   0.696   2.099
 9265TIP3    H227753   7.219   0.845   2.089
 9266TIP3   OH227754   5.508   1.478   0.807
 9266TIP3    H127755   5.514   1.569   0.778
 9266TIP3    H227756   5.586   1.465   0.861
 9267TIP3   OH227757   5.755   3.948   3.315
 9267TIP3    H127758   5.840   3.981   3.345
 9267TIP3    H227759   5.717   3.908   3.393
 9268TIP3   OH227760   1.393   0.224   2.761
 9268TIP3    H127761   1.458   0.247   2.694
 9268TIP3    H227762   1.309   0.250   2.722
 9269TIP3   OH227763   7.474   5.090   1.673
 9269TIP3    H127764   7.490   5.081   1.579
 9269TIP3    H227765   7.380   5.104   1.680
 9270TIP3   OH227766   3.821   7.220   0.521
 9270TIP3    H127767   3.795   7.286   0.585
 9270TIP3    H227768   3.740   7.196   0.476
 9271TIP3   OH227769   6.869   4.490   3.706
 9271TIP3    H127770   6.891   4.508   3.797
 9271TIP3    H227771   6.887   4.397   3.695
 9272TIP3   OH227772   5.381   6.027   5.987
 9272TIP3    H127773   5.285   6.031   5.996
 9272TIP3    H227774   5.414   6.062   6.069
 9273TIP3   OH227775   7.167   5.737   4.254
 9273TIP3    H127776   7.160   5.823   4.295
 9273TIP3    H227777   7.246   5.741   4.201
 9274TIP3   OH227778   5.372   1.381   1.032
 9274TIP3    H127779   5.404   1.458   1.079
 9274TIP3    H227780   5.386   1.400   0.940
 9275TIP3   OH227781   1.149   2.899   3.019
 9275TIP3    H127782   1.085   2.967   3.040
 9275TIP3    H227783   1.139   2.885   2.924
 9276TIP3   OH227784   8.129   6.809   3.428
 9276TIP3    H127785   8.040   6.786   3.400
 9276TIP3    H227786   8.167   6.726   3.458
 9277TIP3   OH227787   1.053   0.244   5.808
 9277TIP3    H127788   1.069   0.239   5.714
 9277TIP3    H227789   0.970   0.199   5.821
 9278TIP3   OH227790   0.471   4.980   0.716
 9278TIP3    H127791   0.507   5.026   0.640
 9278TIP3    H227792   0.505   4.891   0.709
 9279TIP3   OH227793   8.158   5.664   4.266
 9279TIP3    H127794   8.234   5.627   4.312
 9279TIP3    H227795   8.101   5.589   4.250
 9280TIP3   OH227796   1.122   2.456   1.077
 9280TIP3    H127797   1.029   2.479   1.072
 9280TIP3    H227798   1.163   2.532   1.118
 9281TIP3   OH227799   3.036   2.556   4.197
 9281TIP3    H127800   3.107   2.507   4.238
 9281TIP3    H227801   2.982   2.490   4.155
 9282TIP3   OH227802   7.806   1.167   6.287
 9282TIP3    H127803   7.758   1.198   6.364
 9282TIP3    H227804   7.897   1.193   6.304
 9283TIP3   OH227805   3.685   6.191   6.725
 9283TIP3    H127806   3.707   6.207   6.816
 9283TIP3    H227807   3.756   6.230   6.674
 9284TIP3   OH227808   5.395   4.614   5.845
 9284TIP3    H127809   5.396   4.638   5.752
 9284TIP3    H227810   5.413   4.696   5.891
 9285TIP3   OH227811   3.766   7.235   2.298
 9285TIP3    H127812   3.698   7.302   2.290
 9285TIP3    H227813   3.808   7.234   2.212
 9286TIP3   OH227814   0.526   7.329   5.436
 9286TIP3    H127815   0.494   7.283   5.358
 9286TIP3    H227816   0.556   7.413   5.403
 9287TIP3   OH227817   0.042   7.766   2.113
 9287TIP3    H127818   0.083   7.841   2.156
 9287TIP3    H227819   0.096   7.750   2.036
 9288TIP3   OH227820   6.342   2.311   0.158
 9288TIP3    H127821   6.434   2.300   0.180
 9288TIP3    H227822   6.316   2.227   0.121
 9289TIP3   OH227823   6.880   7.118   0.745
 9289TIP3    H127824   6.932   7.068   0.809
 9289TIP3    H227825   6.887   7.068   0.664
 9290TIP3   OH227826   3.482   2.708   5.898
 9290TIP3    H127827   3.450   2.783   5.848
 9290TIP3    H227828   3.508   2.744   5.983
 9291TIP3   OH227829   3.510   4.389   2.198
 9291TIP3    H127830   3.416   4.380   2.189
 9291TIP3    H227831   3.537   4.443   2.124
 9292TIP3   OH227832   5.989   0.492   3.688
 9292TIP3    H127833   6.037   0.575   3.683
 9292TIP3    H227834   5.905   0.515   3.728
 9293TIP3   OH227835   2.589   5.468   2.686
 9293TIP3    H127836   2.678   5.465   2.651
 9293TIP3    H227837   2.554   5.380   2.668
 9294TIP3   OH227838   2.715   1.832   0.681
 9294TIP3    H127839   2.755   1.876   0.606
 9294TIP3    H227840   2.734   1.739   0.667
 9295TIP3   OH227841   6.844   7.391   0.735
 9295TIP3    H127842   6.868   7.298   0.730
 9295TIP3    H227843   6.789   7.397   0.814
 9296TIP3   OH227844   3.375   3.628   1.671
 9296TIP3    H127845   3.298   3.581   1.701
 9296TIP3    H227846   3.397   3.686   1.744
 9297TIP3   OH227847   3.912   5.644   3.077
 9297TIP3    H127848   4.006   5.662   3.080
 9297TIP3    H227849   3.904   5.564   3.026
 9298TIP3   OH227850   1.957   0.602   4.241
 9298TIP3    H127851   1.982   0.682   4.288
 9298TIP3    H227852   1.995   0.614   4.153
 9299TIP3   OH227853   2.386   2.859   3.710
 9299TIP3    H127854   2.400   2.769   3.682
 9299TIP3    H227855   2.359   2.905   3.631
 9300TIP3   OH227856   4.197   6.031   5.959
 9300TIP3    H127857   4.143   6.078   5.896
 9300TIP3    H227858   4.136   5.972   6.004
 9301TIP3   OH227859   3.680   2.011   1.985
 9301TIP3    H127860   3.684   2.098   1.946
 9301TIP3    H227861   3.752   1.963   1.943
 9302TIP3   OH227862   6.892   5.112   0.027
 9302TIP3    H127863   6.871   5.187   0.082
 9302TIP3    H227864   6.988   5.113   0.020
 9303TIP3   OH227865   4.836   1.572   1.008
 9303TIP3    H127866   4.863   1.654   1.050
 9303TIP3    H227867   4.850   1.588   0.915
 9304TIP3   OH227868   1.279   1.602   4.869
 9304TIP3    H127869   1.199   1.561   4.900
 9304TIP3    H227870   1.253   1.653   4.793
 9305TIP3   OH227871   0.022   3.527   1.273
 9305TIP3    H127872   0.097   3.513   1.216
 9305TIP3    H227873   0.036   3.612   1.313
 9306TIP3   OH227874   1.348   5.429   2.197
 9306TIP3    H127875   1.352   5.499   2.262
 9306TIP3    H227876   1.368   5.349   2.246
 9307TIP3   OH227877   7.365   1.602   5.944
 9307TIP3    H127878   7.291   1.541   5.946
 9307TIP3    H227879   7.414   1.583   6.024
 9308TIP3   OH227880   3.930   2.597   6.784
 9308TIP3    H127881   3.901   2.520   6.736
 9308TIP3    H227882   4.023   2.582   6.801
 9309TIP3   OH227883   1.301   6.571   2.378
 9309TIP3    H127884   1.253   6.578   2.296
 9309TIP3    H227885   1.311   6.661   2.408
 9310TIP3   OH227886   5.386   5.761   0.666
 9310TIP3    H127887   5.310   5.732   0.717
 9310TIP3    H227888   5.348   5.805   0.590
 9311TIP3   OH227889   3.531   3.276   2.564
 9311TIP3    H127890   3.519   3.215   2.637
 9311TIP3    H227891   3.511   3.362   2.602
 9312TIP3   OH227892   7.512   0.703   2.620
 9312TIP3    H127893   7.606   0.723   2.612
 9312TIP3    H227894   7.504   0.613   2.589
 9313TIP3   OH227895   0.950   6.705   2.503
 9313TIP3    H127896   0.910   6.790   2.486
 9313TIP3    H227897   0.988   6.679   2.419
 9314TIP3   OH227898   7.477   6.547   4.708
 9314TIP3    H127899   7.475   6.468   4.654
 9314TIP3    H227900   7.516   6.614   4.652
 9315TIP3   OH227901   4.147   0.877   6.245
 9315TIP3    H127902   4.239   0.903   6.236
 9315TIP3    H227903   4.148   0.782   6.239
 9316TIP3   OH227904   5.608   7.636   3.716
 9316TIP3    H127905   5.528   7.588   3.735
 9316TIP3    H227906   5.658   7.577   3.659
 9317TIP3   OH227907   2.432   2.500   1.846
 9317TIP3    H127908   2.404   2.539   1.929
 9317TIP3    H227909   2.352   2.493   1.794
 9318TIP3   OH227910   7.347   3.188   6.424
 9318TIP3    H127911   7.421   3.246   6.442
 9318TIP3    H227912   7.357   3.165   6.331
 9319TIP3   OH227913   7.450   2.260   0.277
 9319TIP3    H127914   7.383   2.274   0.210
 9319TIP3    H227915   7.404   2.269   0.360
 9320TIP3   OH227916   4.584   6.937   0.619
 9320TIP3    H127917   4.671   6.976   0.620
 9320TIP3    H227918   4.524   7.012   0.626
 9321TIP3   OH227919   4.767   5.568   6.720
 9321TIP3    H127920   4.737   5.490   6.674
 9321TIP3    H227921   4.862   5.561   6.722
 9322TIP3   OH227922   1.731   3.949   0.023
 9322TIP3    H127923   1.824   3.929   0.037
 9322TIP3    H227924   1.717   4.032   0.069
 9323TIP3   OH227925   2.886   5.041   6.420
 9323TIP3    H127926   2.935   5.102   6.364
 9323TIP3    H227927   2.930   4.957   6.408
 9324TIP3   OH227928   1.923   3.306   4.478
 9324TIP3    H127929   1.928   3.402   4.481
 9324TIP3    H227930   1.834   3.287   4.447
 9325TIP3   OH227931   6.640   0.227   1.579
 9325TIP3    H127932   6.729   0.237   1.547
 9325TIP3    H227933   6.631   0.297   1.644
 9326TIP3   OH227934   2.813   6.328   0.218
 9326TIP3    H127935   2.857   6.374   0.290
 9326TIP3    H227936   2.799   6.395   0.152
 9327TIP3   OH227937   3.696   6.742   2.667
 9327TIP3    H127938   3.689   6.674   2.734
 9327TIP3    H227939   3.732   6.817   2.713
 9328TIP3   OH227940   5.817   2.226   5.261
 9328TIP3    H127941   5.758   2.224   5.186
 9328TIP3    H227942   5.900   2.259   5.226
 9329TIP3   OH227943   7.162   4.048   1.943
 9329TIP3    H127944   7.219   4.092   2.006
 9329TIP3    H227945   7.079   4.095   1.949
 9330TIP3   OH227946   2.523   5.873   0.316
 9330TIP3    H127947   2.483   5.885   0.403
 9330TIP3    H227948   2.573   5.953   0.301
 9331TIP3   OH227949   5.665   2.903   5.022
 9331TIP3    H127950   5.683   2.809   5.030
 9331TIP3    H227951   5.741   2.938   4.977
 9332TIP3   OH227952   1.805   3.080   1.392
 9332TIP3    H127953   1.756   3.013   1.344
 9332TIP3    H227954   1.766   3.162   1.363
 9333TIP3   OH227955   7.934   2.402   4.781
 9333TIP3    H127956   7.983   2.423   4.702
 9333TIP3    H227957   7.927   2.306   4.780
 9334TIP3   OH227958   7.897   4.002   4.474
 9334TIP3    H127959   7.809   3.967   4.467
 9334TIP3    H227960   7.897   4.050   4.557
 9335TIP3   OH227961   1.203   4.180   3.799
 9335TIP3    H127962   1.253   4.136   3.867
 9335TIP3    H227963   1.125   4.212   3.844
 9336TIP3   OH227964   2.624   0.315   2.742
 9336TIP3    H127965   2.576   0.397   2.751
 9336TIP3    H227966   2.713   0.341   2.721
 9337TIP3   OH227967   2.745   3.619   5.621
 9337TIP3    H127968   2.813   3.680   5.649
 9337TIP3    H227969   2.695   3.668   5.556
 9338TIP3   OH227970   4.836   7.081   6.575
 9338TIP3    H127971   4.909   7.099   6.516
 9338TIP3    H227972   4.834   6.986   6.582
 9339TIP3   OH227973   4.850   1.889   6.773
 9339TIP3    H127974   4.905   1.964   6.752
 9339TIP3    H227975   4.910   1.824   6.809
 9340TIP3   OH227976   1.097   4.124   6.006
 9340TIP3    H127977   1.174   4.095   6.054
 9340TIP3    H227978   1.121   4.115   5.914
 9341TIP3   OH227979   6.527   3.925   5.002
 9341TIP3    H127980   6.604   3.876   5.031
 9341TIP3    H227981   6.464   3.858   4.977
 9342TIP3   OH227982   1.390   1.967   2.529
 9342TIP3    H127983   1.324   1.898   2.536
 9342TIP3    H227984   1.455   1.947   2.596
 9343TIP3   OH227985   4.066   6.438   2.852
 9343TIP3    H127986   4.148   6.413   2.809
 9343TIP3    H227987   4.018   6.489   2.786
 9344TIP3   OH227988   1.936   0.003   3.891
 9344TIP3    H127989   1.951   0.079   3.948
 9344TIP3    H227990   1.892   0.039   3.814
 9345TIP3   OH227991   2.824   4.225   3.714
 9345TIP3    H127992   2.774   4.235   3.796
 9345TIP3    H227993   2.757   4.223   3.646
 9346TIP3   OH227994   7.575   3.898   1.476
 9346TIP3    H127995   7.607   3.913   1.565
 9346TIP3    H227996   7.531   3.813   1.480
 9347TIP3   OH227997   3.653   2.462   0.846
 9347TIP3    H127998   3.585   2.402   0.876
 9347TIP3    H227999   3.715   2.466   0.918
 9348TIP3   OH228000   6.348   1.630   2.464
 9348TIP3    H128001   6.365   1.550   2.415
 9348TIP3    H228002   6.434   1.671   2.473
 9349TIP3   OH228003   3.601   1.474   4.069
 9349TIP3    H128004   3.637   1.400   4.118
 9349TIP3    H228005   3.574   1.536   4.137
 9350TIP3   OH228006   3.091   0.568   6.505
 9350TIP3    H128007   3.124   0.519   6.430
 9350TIP3    H228008   3.167   0.617   6.537
 9351TIP3   OH228009   7.903   6.765   3.312
 9351TIP3    H128010   7.871   6.677   3.291
 9351TIP3    H228011   7.917   6.806   3.227
 9352TIP3   OH228012   7.433   6.613   2.922
 9352TIP3    H128013   7.364   6.679   2.920
 9352TIP3    H228014   7.387   6.531   2.940
 9353TIP3   OH228015   0.616   1.365   4.285
 9353TIP3    H128016   0.523   1.349   4.270
 9353TIP3    H228017   0.657   1.278   4.281
 9354TIP3   OH228018   0.794   3.635   3.205
 9354TIP3    H128019   0.862   3.661   3.267
 9354TIP3    H228020   0.771   3.716   3.159
 9355TIP3   OH228021   2.936   1.740   5.294
 9355TIP3    H128022   2.857   1.692   5.271
 9355TIP3    H228023   3.005   1.696   5.244
 9356TIP3   OH228024   3.281   2.603   3.729
 9356TIP3    H128025   3.298   2.542   3.800
 9356TIP3    H228026   3.209   2.658   3.761
 9357TIP3   OH228027   2.700   1.656   2.055
 9357TIP3    H128028   2.639   1.665   2.128
 9357TIP3    H228029   2.783   1.631   2.096
 9358TIP3   OH228030   3.172   5.435   3.334
 9358TIP3    H128031   3.121   5.374   3.387
 9358TIP3    H228032   3.142   5.421   3.244
 9359TIP3   OH228033   0.825   7.279   5.114
 9359TIP3    H128034   0.807   7.196   5.068
 9359TIP3    H228035   0.832   7.254   5.206
 9360TIP3   OH228036   0.569   4.278   5.922
 9360TIP3    H128037   0.656   4.249   5.893
 9360TIP3    H228038   0.587   4.354   5.978
 9361TIP3   OH228039   1.759   6.801   6.157
 9361TIP3    H128040   1.725   6.846   6.079
 9361TIP3    H228041   1.790   6.871   6.214
 9362TIP3   OH228042   4.991   3.046   1.067
 9362TIP3    H128043   5.001   3.137   1.093
 9362TIP3    H228044   5.010   2.996   1.147
 9363TIP3   OH228045   7.406   1.513   1.236
 9363TIP3    H128046   7.379   1.509   1.328
 9363TIP3    H228047   7.352   1.582   1.198
 9364TIP3   OH228048   7.579   7.497   0.401
 9364TIP3    H128049   7.581   7.460   0.313
 9364TIP3    H228050   7.485   7.502   0.422
 9365TIP3   OH228051   5.485   1.206   0.737
 9365TIP3    H128052   5.427   1.172   0.670
 9365TIP3    H228053   5.470   1.301   0.736
 9366TIP3   OH228054   0.979   7.453   2.206
 9366TIP3    H128055   0.969   7.398   2.283
 9366TIP3    H228056   0.974   7.543   2.239
 9367TIP3   OH228057   4.660   4.531   5.764
 9367TIP3    H128058   4.715   4.596   5.807
 9367TIP3    H228059   4.621   4.577   5.690
 9368TIP3   OH228060   6.449   6.234   3.748
 9368TIP3    H128061   6.454   6.153   3.799
 9368TIP3    H228062   6.358   6.262   3.757
 9369TIP3   OH228063   4.746   6.997   2.922
 9369TIP3    H128064   4.678   6.999   2.854
 9369TIP3    H228065   4.762   7.089   2.944
 9370TIP3   OH228066   5.561   2.043   3.930
 9370TIP3    H128067   5.531   2.133   3.942
 9370TIP3    H228068   5.657   2.049   3.932
 9371TIP3   OH228069   2.046   7.617   1.919
 9371TIP3    H128070   2.023   7.542   1.864
 9371TIP3    H228071   2.142   7.613   1.926
 9372TIP3   OH228072   6.967   1.713   2.478
 9372TIP3    H128073   6.891   1.703   2.535
 9372TIP3    H228074   6.963   1.804   2.448
 9373TIP3   OH228075   0.230   2.591   1.702
 9373TIP3    H128076   0.326   2.593   1.702
 9373TIP3    H228077   0.208   2.520   1.642
 9374TIP3   OH228078   3.980   3.442   1.293
 9374TIP3    H128079   3.964   3.352   1.265
 9374TIP3    H228080   3.982   3.493   1.212
 9375TIP3   OH228081   0.180   3.819   0.566
 9375TIP3    H128082   0.226   3.881   0.623
 9375TIP3    H228083   0.093   3.855   0.555
 9376TIP3   OH228084   3.873   0.279   3.130
 9376TIP3    H128085   3.804   0.312   3.187
 9376TIP3    H228086   3.839   0.292   3.041
 9377TIP3   OH228087   2.336   0.222   0.856
 9377TIP3    H128088   2.244   0.195   0.857
 9377TIP3    H228089   2.360   0.224   0.764
 9378TIP3   OH228090   0.956   2.321   3.363
 9378TIP3    H128091   0.870   2.358   3.346
 9378TIP3    H228092   1.015   2.370   3.305
 9379TIP3   OH228093   8.116   5.622   0.642
 9379TIP3    H128094   8.202   5.612   0.602
 9379TIP3    H228095   8.123   5.580   0.728
 9380TIP3   OH228096   2.446   1.335   5.820
 9380TIP3    H128097   2.362   1.291   5.804
 9380TIP3    H228098   2.510   1.264   5.821
 9381TIP3   OH228099   0.587   2.936   4.062
 9381TIP3    H128100   0.646   2.959   4.134
 9381TIP3    H228101   0.503   2.974   4.086
 9382TIP3   OH228102   1.472   2.433   5.048
 9382TIP3    H128103   1.551   2.385   5.070
 9382TIP3    H228104   1.401   2.369   5.056
 9383TIP3   OH228105   4.872   4.088   0.034
 9383TIP3    H128106   4.873   4.132  -0.051
 9383TIP3    H228107   4.799   4.026   0.029
 9384TIP3   OH228108   0.443   2.626   2.003
 9384TIP3    H128109   0.425   2.594   1.915
 9384TIP3    H228110   0.426   2.720   1.999
 9385TIP3   OH228111   4.075   7.323   3.478
 9385TIP3    H128112   3.984   7.307   3.453
 9385TIP3    H228113   4.123   7.249   3.439
 9386TIP3   OH228114   5.929   3.571   2.358
 9386TIP3    H128115   6.002   3.530   2.313
 9386TIP3    H228116   5.960   3.659   2.379
 9387TIP3   OH228117   7.034   2.039   3.210
 9387TIP3    H128118   7.052   2.086   3.291
 9387TIP3    H228119   7.060   2.099   3.140
 9388TIP3   OH228120   5.293   0.951   2.783
 9388TIP3    H128121   5.257   0.981   2.867
 9388TIP3    H228122   5.308   1.031   2.733
 9389TIP3   OH228123   4.999   3.216   6.670
 9389TIP3    H128124   4.971   3.261   6.750
 9389TIP3    H228125   5.061   3.277   6.629
 9390TIP3   OH228126   7.354   0.907   4.050
 9390TIP3    H128127   7.405   0.986   4.068
 9390TIP3    H228128   7.384   0.878   3.964
 9391TIP3   OH228129   5.359   6.407   6.732
 9391TIP3    H128130   5.371   6.489   6.684
 9391TIP3    H228131   5.391   6.426   6.820
 9392TIP3   OH228132   4.085   1.237   2.999
 9392TIP3    H128133   4.087   1.142   2.987
 9392TIP3    H228134   4.048   1.249   3.086
 9393TIP3   OH228135   5.542   2.457   2.371
 9393TIP3    H128136   5.525   2.367   2.398
 9393TIP3    H228137   5.508   2.511   2.442
 9394TIP3   OH228138   7.677   7.586   5.426
 9394TIP3    H128139   7.709   7.552   5.343
 9394TIP3    H228140   7.751   7.634   5.463
 9395TIP3   OH228141   2.571   7.396   1.247
 9395TIP3    H128142   2.623   7.418   1.169
 9395TIP3    H228143   2.481   7.390   1.214
 9396TIP3   OH228144   0.511   4.213   4.919
 9396TIP3    H128145   0.499   4.198   4.825
 9396TIP3    H228146   0.487   4.129   4.959
 9397TIP3   OH228147   7.974   4.607   3.563
 9397TIP3    H128148   8.049   4.627   3.619
 9397TIP3    H228149   8.010   4.608   3.474
 9398TIP3   OH228150   1.354   6.062   0.609
 9398TIP3    H128151   1.384   5.990   0.664
 9398TIP3    H228152   1.259   6.052   0.606
 9399TIP3   OH228153   7.304   4.858   5.777
 9399TIP3    H128154   7.287   4.824   5.865
 9399TIP3    H228155   7.231   4.826   5.725
 9400TIP3   OH228156   5.974   3.735   5.542
 9400TIP3    H128157   5.969   3.703   5.452
 9400TIP3    H228158   5.906   3.801   5.548
 9401TIP3   OH228159   4.599   4.462   1.201
 9401TIP3    H128160   4.577   4.552   1.175
 9401TIP3    H228161   4.558   4.407   1.135
 9402TIP3   OH228162   8.292   7.463   4.748
 9402TIP3    H128163   8.293   7.551   4.784
 9402TIP3    H228164   8.239   7.470   4.669
 9403TIP3   OH228165   5.844   5.398   3.197
 9403TIP3    H128166   5.928   5.403   3.242
 9403TIP3    H228167   5.865   5.366   3.109
 9404TIP3   OH228168   0.235   0.173   4.378
 9404TIP3    H128169   0.264   0.149   4.466
 9404TIP3    H228170   0.257   0.096   4.325
 9405TIP3   OH228171   1.069   3.623   1.786
 9405TIP3    H128172   1.102   3.550   1.838
 9405TIP3    H228173   0.984   3.644   1.826
 9406TIP3   OH228174   4.945   3.581   2.285
 9406TIP3    H128175   4.914   3.552   2.199
 9406TIP3    H228176   4.886   3.539   2.347
 9407TIP3   OH228177   5.059   7.340   4.169
 9407TIP3    H128178   5.001   7.352   4.094
 9407TIP3    H228179   5.094   7.251   4.158
 9408TIP3   OH228180   7.941   0.836   4.238
 9408TIP3    H128181   7.936   0.932   4.228
 9408TIP3    H228182   8.011   0.823   4.302
 9409TIP3   OH228183   7.914   1.449   4.700
 9409TIP3    H128184   7.968   1.527   4.685
 9409TIP3    H228185   7.902   1.411   4.612
 9410TIP3   OH228186   4.652   4.074   0.624
 9410TIP3    H128187   4.680   4.103   0.538
 9410TIP3    H228188   4.633   3.981   0.613
 9411TIP3   OH228189   3.237   2.211   1.998
 9411TIP3    H128190   3.278   2.225   2.083
 9411TIP3    H228191   3.208   2.298   1.971
 9412TIP3   OH228192   1.673   5.060   1.399
 9412TIP3    H128193   1.683   4.976   1.445
 9412TIP3    H228194   1.588   5.093   1.427
 9413TIP3   OH228195   4.206   4.549   1.558
 9413TIP3    H128196   4.132   4.504   1.599
 9413TIP3    H228197   4.270   4.559   1.628
 9414TIP3   OH228198   0.699   4.444   5.637
 9414TIP3    H128199   0.674   4.508   5.570
 9414TIP3    H228200   0.773   4.397   5.599
 9415TIP3   OH228201   7.339   6.813   6.501
 9415TIP3    H128202   7.433   6.828   6.485
 9415TIP3    H228203   7.328   6.827   6.595
 9416TIP3   OH228204   7.089   1.818   3.890
 9416TIP3    H128205   7.038   1.753   3.938
 9416TIP3    H228206   7.164   1.835   3.946
 9417TIP3   OH228207   6.235   7.263   4.481
 9417TIP3    H128208   6.294   7.277   4.555
 9417TIP3    H228209   6.279   7.305   4.407
 9418TIP3   OH228210   4.416   6.825   6.038
 9418TIP3    H128211   4.409   6.913   6.074
 9418TIP3    H228212   4.460   6.836   5.954
 9419TIP3   OH228213   2.126   5.557   5.068
 9419TIP3    H128214   2.103   5.547   4.976
 9419TIP3    H228215   2.220   5.539   5.072
 9420TIP3   OH228216   5.868   3.665   6.602
 9420TIP3    H128217   5.945   3.692   6.552
 9420TIP3    H228218   5.881   3.704   6.689
 9421TIP3   OH228219   7.620   6.259   0.300
 9421TIP3    H128220   7.547   6.260   0.362
 9421TIP3    H228221   7.698   6.273   0.354
 9422TIP3   OH228222   1.460   5.079   2.093
 9422TIP3    H128223   1.456   5.110   2.184
 9422TIP3    H228224   1.433   4.987   2.098
 9423TIP3   OH228225   3.746   3.515   3.005
 9423TIP3    H128226   3.751   3.451   3.076
 9423TIP3    H228227   3.698   3.589   3.044
 9424TIP3   OH228228   0.765   4.934   4.218
 9424TIP3    H128229   0.821   4.947   4.141
 9424TIP3    H228230   0.788   4.846   4.249
 9425TIP3   OH228231   6.633   5.686   4.734
 9425TIP3    H128232   6.668   5.680   4.823
 9425TIP3    H228233   6.649   5.600   4.696
 9426TIP3   OH228234   2.217   1.929   2.474
 9426TIP3    H128235   2.262   1.992   2.417
 9426TIP3    H228236   2.127   1.929   2.443
 9427TIP3   OH228237   7.355   1.974   4.942
 9427TIP3    H128238   7.451   1.971   4.952
 9427TIP3    H228239   7.330   2.057   4.983
 9428TIP3   OH228240   4.471   3.102   2.607
 9428TIP3    H128241   4.413   3.178   2.601
 9428TIP3    H228242   4.441   3.055   2.685
 9429TIP3   OH228243   6.426   4.134   0.170
 9429TIP3    H128244   6.357   4.125   0.235
 9429TIP3    H228245   6.482   4.057   0.183
 9430TIP3   OH228246   5.571   1.721   5.010
 9430TIP3    H128247   5.636   1.791   5.021
 9430TIP3    H228248   5.588   1.686   4.922
 9431TIP3   OH228249   0.502   3.583   6.468
 9431TIP3    H128250   0.461   3.670   6.475
 9431TIP3    H228251   0.595   3.601   6.454
 9432TIP3   OH228252   0.785   1.117   3.487
 9432TIP3    H128253   0.716   1.151   3.544
 9432TIP3    H228254   0.738   1.068   3.420
 9433TIP3   OH228255   5.932   1.867   3.077
 9433TIP3    H128256   5.976   1.844   3.159
 9433TIP3    H228257   5.977   1.814   3.011
 9434TIP3   OH228258   1.731   5.072   4.137
 9434TIP3    H128259   1.810   5.121   4.160
 9434TIP3    H228260   1.687   5.127   4.072
 9435TIP3   OH228261   4.388   4.942   3.563
 9435TIP3    H128262   4.476   4.969   3.535
 9435TIP3    H228263   4.329   4.987   3.503
 9436TIP3   OH228264   5.168   0.009   6.312
 9436TIP3    H128265   5.135   0.084   6.263
 9436TIP3    H228266   5.100  -0.010   6.376
 9437TIP3   OH228267   3.740   0.632   5.672
 9437TIP3    H128268   3.752   0.727   5.662
 9437TIP3    H228269   3.800   0.595   5.607
 9438TIP3   OH228270   4.530   4.892   0.974
 9438TIP3    H128271   4.579   4.810   0.970
 9438TIP3    H228272   4.542   4.931   0.887
 9439TIP3   OH228273   1.778   6.502   1.513
 9439TIP3    H128274   1.779   6.487   1.418
 9439TIP3    H228275   1.706   6.563   1.527
 9440TIP3   OH228276   7.433   0.478   6.188
 9440TIP3    H128277   7.400   0.568   6.191
 9440TIP3    H228278   7.401   0.444   6.104
 9441TIP3   OH228279   2.053   2.803   3.456
 9441TIP3    H128280   2.084   2.789   3.366
 9441TIP3    H228281   1.970   2.849   3.445
 9442TIP3   OH228282   3.609   4.879   2.662
 9442TIP3    H128283   3.657   4.953   2.698
 9442TIP3    H228284   3.541   4.918   2.607
 9443TIP3   OH228285   7.891   3.706   0.251
 9443TIP3    H128286   7.909   3.789   0.208
 9443TIP3    H228287   7.820   3.725   0.313
 9444TIP3   OH228288   1.424   3.723   2.280
 9444TIP3    H128289   1.367   3.800   2.288
 9444TIP3    H228290   1.398   3.683   2.197
 9445TIP3   OH228291   6.500   3.391   2.320
 9445TIP3    H128292   6.423   3.445   2.336
 9445TIP3    H228293   6.467   3.301   2.323
 9446TIP3   OH228294   1.339   3.619   2.049
 9446TIP3    H128295   1.299   3.545   2.094
 9446TIP3    H228296   1.366   3.584   1.964
 9447TIP3   OH228297   5.092   5.936   1.359
 9447TIP3    H128298   5.147   5.930   1.438
 9447TIP3    H228299   5.003   5.930   1.392
 9448TIP3   OH228300   5.243   3.260   5.548
 9448TIP3    H128301   5.224   3.191   5.484
 9448TIP3    H228302   5.322   3.230   5.592
 9449TIP3   OH228303   6.852   7.069   4.966
 9449TIP3    H128304   6.868   6.978   4.992
 9449TIP3    H228305   6.757   7.078   4.968
 9450TIP3   OH228306   4.661   4.913   4.764
 9450TIP3    H128307   4.567   4.908   4.780
 9450TIP3    H228308   4.693   4.825   4.784
 9451TIP3   OH228309   0.919   5.192   4.705
 9451TIP3    H128310   0.996   5.136   4.710
 9451TIP3    H228311   0.847   5.136   4.732
 9452TIP3   OH228312   1.235   6.321   6.189
 9452TIP3    H128313   1.319   6.333   6.234
 9452TIP3    H228314   1.258   6.289   6.102
 9453TIP3   OH228315   1.744   1.490   3.440
 9453TIP3    H128316   1.715   1.470   3.351
 9453TIP3    H228317   1.839   1.497   3.433
 9454TIP3   OH228318   5.386   3.105   4.147
 9454TIP3    H128319   5.411   3.166   4.078
 9454TIP3    H228320   5.370   3.161   4.224
 9455TIP3   OH228321   4.607   7.714   2.394
 9455TIP3    H128322   4.567   7.634   2.361
 9455TIP3    H228323   4.584   7.716   2.487
 9456TIP3   OH228324   2.518   3.381   1.685
 9456TIP3    H128325   2.489   3.460   1.639
 9456TIP3    H228326   2.600   3.357   1.642
 9457TIP3   OH228327   5.121   1.832   3.894
 9457TIP3    H128328   5.182   1.839   3.967
 9457TIP3    H228329   5.090   1.741   3.898
 9458TIP3   OH228330   2.922   0.772   0.653
 9458TIP3    H128331   2.835   0.789   0.689
 9458TIP3    H228332   2.906   0.745   0.563
 9459TIP3   OH228333   0.595   1.719   2.718
 9459TIP3    H128334   0.525   1.654   2.726
 9459TIP3    H228335   0.564   1.794   2.768
 9460TIP3   OH228336   3.518   0.941   1.228
 9460TIP3    H128337   3.582   0.880   1.263
 9460TIP3    H228338   3.516   0.923   1.134
 9461TIP3   OH228339   3.226   3.790   4.818
 9461TIP3    H128340   3.208   3.778   4.724
 9461TIP3    H228341   3.317   3.819   4.822
 9462TIP3   OH228342   0.611   5.886   2.621
 9462TIP3    H128343   0.607   5.933   2.704
 9462TIP3    H228344   0.529   5.907   2.577
 9463TIP3   OH228345   7.057   2.026   4.530
 9463TIP3    H128346   7.106   1.961   4.579
 9463TIP3    H228347   7.029   2.090   4.595
 9464TIP3   OH228348   0.075   4.985   6.618
 9464TIP3    H128349   0.016   4.926   6.571
 9464TIP3    H228350   0.105   5.047   6.552
 9465TIP3   OH228351   3.447   2.814   1.516
 9465TIP3    H128352   3.441   2.909   1.501
 9465TIP3    H228353   3.539   2.793   1.504
 9466TIP3   OH228354   1.247   2.706   6.623
 9466TIP3    H128355   1.242   2.795   6.658
 9466TIP3    H228356   1.263   2.650   6.699
 9467TIP3   OH228357   6.769   5.204   6.044
 9467TIP3    H128358   6.772   5.297   6.025
 9467TIP3    H228359   6.688   5.174   6.003
 9468TIP3   OH228360   4.739   7.393   5.111
 9468TIP3    H128361   4.781   7.439   5.183
 9468TIP3    H228362   4.788   7.419   5.033
 9469TIP3   OH228363   1.308   3.726   6.436
 9469TIP3    H128364   1.241   3.765   6.492
 9469TIP3    H228365   1.379   3.790   6.436
 9470TIP3   OH228366   1.257   1.970   5.412
 9470TIP3    H128367   1.266   2.065   5.419
 9470TIP3    H228368   1.210   1.956   5.330
 9471TIP3   OH228369   7.872   6.887   4.537
 9471TIP3    H128370   7.881   6.972   4.495
 9471TIP3    H228371   7.947   6.836   4.506
 9472TIP3   OH228372   2.380   5.539   0.279
 9472TIP3    H128373   2.299   5.495   0.304
 9472TIP3    H228374   2.352   5.617   0.231
 9473TIP3   OH228375   7.491   4.675   3.866
 9473TIP3    H128376   7.581   4.679   3.899
 9473TIP3    H228377   7.488   4.744   3.799
 9474TIP3   OH228378   1.258   3.119   1.710
 9474TIP3    H128379   1.166   3.091   1.712
 9474TIP3    H228380   1.286   3.116   1.801
 9475TIP3   OH228381   3.425   6.094   3.164
 9475TIP3    H128382   3.451   6.009   3.201
 9475TIP3    H228383   3.331   6.087   3.151
 9476TIP3   OH228384   6.040   2.472   5.644
 9476TIP3    H128385   6.134   2.477   5.659
 9476TIP3    H228386   6.010   2.563   5.645
 9477TIP3   OH228387   4.716   7.362   1.624
 9477TIP3    H128388   4.718   7.272   1.591
 9477TIP3    H228389   4.696   7.353   1.717
 9478TIP3   OH228390   0.872   0.400   4.645
 9478TIP3    H128391   0.794   0.442   4.609
 9478TIP3    H228392   0.864   0.308   4.619
 9479TIP3   OH228393   6.744   1.707   6.077
 9479TIP3    H128394   6.693   1.643   6.126
 9479TIP3    H228395   6.754   1.667   5.990
 9480TIP3   OH228396   5.420   2.880   3.400
 9480TIP3    H128397   5.511   2.856   3.386
 9480TIP3    H228398   5.376   2.797   3.418
 9481TIP3   OH228399   5.620   0.577   1.143
 9481TIP3    H128400   5.578   0.491   1.155
 9481TIP3    H228401   5.599   0.625   1.223
 9482TIP3   OH228402   7.788   7.192   5.929
 9482TIP3    H128403   7.793   7.215   5.836
 9482TIP3    H228404   7.700   7.157   5.941
 9483TIP3   OH228405   7.781   0.020   1.444
 9483TIP3    H128406   7.725   0.093   1.417
 9483TIP3    H228407   7.815   0.046   1.530
 9484TIP3   OH228408   4.546   1.555   2.055
 9484TIP3    H128409   4.629   1.564   2.007
 9484TIP3    H228410   4.479   1.562   1.988
 9485TIP3   OH228411   4.722   1.858   1.257
 9485TIP3    H128412   4.742   1.951   1.268
 9485TIP3    H228413   4.699   1.849   1.164
 9486TIP3   OH228414   1.632   6.853   3.743
 9486TIP3    H128415   1.624   6.829   3.836
 9486TIP3    H228416   1.549   6.896   3.722
 9487TIP3   OH228417   3.529   2.379   0.520
 9487TIP3    H128418   3.493   2.316   0.458
 9487TIP3    H228419   3.620   2.390   0.493
 9488TIP3   OH228420   5.455   1.533   5.510
 9488TIP3    H128421   5.403   1.606   5.477
 9488TIP3    H228422   5.393   1.482   5.563
 9489TIP3   OH228423   0.543   0.572   6.550
 9489TIP3    H128424   0.603   0.646   6.551
 9489TIP3    H228425   0.455   0.611   6.547
 9490TIP3   OH228426   4.259   5.744   4.625
 9490TIP3    H128427   4.327   5.808   4.606
 9490TIP3    H228428   4.253   5.691   4.546
 9491TIP3   OH228429   7.958   5.667   5.884
 9491TIP3    H128430   7.933   5.739   5.826
 9491TIP3    H228431   8.009   5.608   5.828
 9492TIP3   OH228432   5.709   5.772   0.642
 9492TIP3    H128433   5.614   5.763   0.650
 9492TIP3    H228434   5.740   5.683   0.629
 9493TIP3   OH228435   7.772   2.384   6.702
 9493TIP3    H128436   7.747   2.313   6.642
 9493TIP3    H228437   7.853   2.419   6.665
 9494TIP3   OH228438   2.932   3.845   5.620
 9494TIP3    H128439   2.963   3.817   5.706
 9494TIP3    H228440   2.983   3.923   5.600
 9495TIP3   OH228441   1.477   1.850   2.101
 9495TIP3    H128442   1.456   1.942   2.112
 9495TIP3    H228443   1.524   1.846   2.017
 9496TIP3   OH228444   4.631   1.200   2.138
 9496TIP3    H128445   4.642   1.122   2.193
 9496TIP3    H228446   4.616   1.271   2.200
 9497TIP3   OH228447   6.179   6.581   5.002
 9497TIP3    H128448   6.208   6.542   5.085
 9497TIP3    H228449   6.091   6.546   4.990
 9498TIP3   OH228450   8.335   0.819   5.307
 9498TIP3    H128451   8.278   0.834   5.382
 9498TIP3    H228452   8.415   0.867   5.328
 9499TIP3   OH228453   3.859   3.799   5.448
 9499TIP3    H128454   3.914   3.857   5.501
 9499TIP3    H228455   3.783   3.852   5.425
 9500TIP3   OH228456   3.317   1.044   0.691
 9500TIP3    H128457   3.307   1.017   0.782
 9500TIP3    H228458   3.262   0.983   0.642
 9501TIP3   OH228459   0.467   1.337   6.760
 9501TIP3    H128460   0.472   1.368   6.670
 9501TIP3    H228461   0.523   1.259   6.762
 9502TIP3   OH228462   2.433   4.545   6.228
 9502TIP3    H128463   2.480   4.625   6.204
 9502TIP3    H228464   2.407   4.507   6.144
 9503TIP3   OH228465   6.189   4.622   0.854
 9503TIP3    H128466   6.249   4.696   0.847
 9503TIP3    H228467   6.232   4.552   0.807
 9504TIP3   OH228468   5.249   3.222   1.843
 9504TIP3    H128469   5.245   3.145   1.900
 9504TIP3    H228470   5.319   3.275   1.880
 9505TIP3   OH228471   1.847   4.232   2.196
 9505TIP3    H128472   1.862   4.299   2.263
 9505TIP3    H228473   1.899   4.260   2.121
 9506TIP3   OH228474   7.012   0.101   0.435
 9506TIP3    H128475   7.011   0.196   0.450
 9506TIP3    H228476   6.945   0.086   0.368
 9507TIP3   OH228477   7.560   3.084   4.708
 9507TIP3    H128478   7.541   3.166   4.662
 9507TIP3    H228479   7.581   3.111   4.797
 9508TIP3   OH228480   6.292   3.062   5.233
 9508TIP3    H128481   6.316   3.046   5.325
 9508TIP3    H228482   6.211   3.113   5.238
 9509TIP3   OH228483   3.177   4.010   0.430
 9509TIP3    H128484   3.153   4.102   0.427
 9509TIP3    H228485   3.216   3.992   0.345
 9510TIP3   OH228486   1.465   0.337   5.839
 9510TIP3    H128487   1.398   0.403   5.856
 9510TIP3    H228488   1.492   0.352   5.748
 9511TIP3   OH228489   4.520   5.830   2.007
 9511TIP3    H128490   4.429   5.826   1.977
 9511TIP3    H228491   4.563   5.758   1.962
 9512TIP3   OH228492   2.510   7.707   4.465
 9512TIP3    H128493   2.567   7.698   4.541
 9512TIP3    H228494   2.422   7.716   4.501
 9513TIP3   OH228495   6.033   7.059   6.058
 9513TIP3    H128496   6.026   7.121   5.985
 9513TIP3    H228497   6.028   6.973   6.017
 9514TIP3   OH228498   3.115   4.427   0.676
 9514TIP3    H128499   3.039   4.385   0.715
 9514TIP3    H228500   3.163   4.463   0.751
 9515TIP3   OH228501   8.202   0.269   4.559
 9515TIP3    H128502   8.148   0.227   4.492
 9515TIP3    H228503   8.153   0.349   4.581
 9516TIP3   OH228504   2.372   7.747   3.804
 9516TIP3    H128505   2.329   7.713   3.882
 9516TIP3    H228506   2.301   7.754   3.740
 9517TIP3   OH228507   1.568   3.308   5.791
 9517TIP3    H128508   1.516   3.283   5.867
 9517TIP3    H228509   1.618   3.230   5.768
 9518TIP3   OH228510   6.525   1.433   2.364
 9518TIP3    H128511   6.576   1.357   2.337
 9518TIP3    H228512   6.573   1.470   2.438
 9519TIP3   OH228513   1.896   1.985   2.035
 9519TIP3    H128514   1.935   2.055   1.982
 9519TIP3    H228515   1.966   1.956   2.093
 9520TIP3   OH228516   7.617   7.280   4.073
 9520TIP3    H128517   7.580   7.304   3.988
 9520TIP3    H228518   7.692   7.339   4.084
 9521TIP3   OH228519   2.049   3.258   0.972
 9521TIP3    H128520   2.010   3.229   0.890
 9521TIP3    H228521   2.128   3.204   0.982
 9522TIP3   OH228522   1.734   3.101   5.721
 9522TIP3    H128523   1.745   3.103   5.626
 9522TIP3    H228524   1.823   3.103   5.756
 9523TIP3   OH228525   1.529   5.936   2.644
 9523TIP3    H128526   1.465   5.938   2.715
 9523TIP3    H228527   1.513   6.016   2.595
 9524TIP3   OH228528   0.411   5.238   1.939
 9524TIP3    H128529   0.469   5.236   1.862
 9524TIP3    H228530   0.323   5.237   1.902
 9525TIP3   OH228531   3.454   2.158   1.541
 9525TIP3    H128532   3.416   2.138   1.626
 9525TIP3    H228533   3.453   2.075   1.494
 9526TIP3   OH228534   4.914   4.109   6.251
 9526TIP3    H128535   4.845   4.069   6.198
 9526TIP3    H228536   4.919   4.055   6.330
 9527TIP3   OH228537   3.172   6.186   1.585
 9527TIP3    H128538   3.089   6.225   1.557
 9527TIP3    H228539   3.214   6.158   1.504
 9528TIP3   OH228540   7.063   2.735   4.942
 9528TIP3    H128541   7.136   2.673   4.936
 9528TIP3    H228542   6.994   2.687   4.989
 9529TIP3   OH228543   5.966   3.574   6.262
 9529TIP3    H128544   5.891   3.626   6.235
 9529TIP3    H228545   6.011   3.552   6.181
 9530TIP3   OH228546   1.913   6.419   5.842
 9530TIP3    H128547   1.911   6.349   5.907
 9530TIP3    H228548   1.968   6.384   5.771
 9531TIP3   OH228549   7.723   1.880   5.914
 9531TIP3    H128550   7.643   1.844   5.877
 9531TIP3    H228551   7.793   1.826   5.878
 9532TIP3   OH228552   2.000   7.640   0.235
 9532TIP3    H128553   2.070   7.588   0.275
 9532TIP3    H228554   2.047   7.701   0.177
 9533TIP3   OH228555   3.407   3.808   1.956
 9533TIP3    H128556   3.340   3.877   1.959
 9533TIP3    H228557   3.477   3.841   2.013
 9534TIP3   OH228558   5.875   4.174   4.722
 9534TIP3    H128559   5.940   4.226   4.768
 9534TIP3    H228560   5.808   4.237   4.696
 9535TIP3   OH228561   6.477   4.139   6.079
 9535TIP3    H128562   6.425   4.189   6.017
 9535TIP3    H228563   6.453   4.175   6.165
 9536TIP3   OH228564   4.733   7.358   5.886
 9536TIP3    H128565   4.782   7.440   5.893
 9536TIP3    H228566   4.675   7.358   5.962
 9537TIP3   OH228567   7.640   2.831   6.002
 9537TIP3    H128568   7.563   2.852   6.054
 9537TIP3    H228569   7.658   2.739   6.022
 9538TIP3   OH228570   6.917   0.961   0.178
 9538TIP3    H128571   6.876   1.046   0.192
 9538TIP3    H228572   6.932   0.926   0.266
 9539TIP3   OH228573   8.003   4.916   3.437
 9539TIP3    H128574   8.070   4.978   3.409
 9539TIP3    H228575   7.981   4.943   3.526
 9540TIP3   OH228576   5.607   2.522   5.518
 9540TIP3    H128577   5.694   2.527   5.479
 9540TIP3    H228578   5.548   2.510   5.443
 9541TIP3   OH228579   7.033   3.668   0.335
 9541TIP3    H128580   7.007   3.658   0.244
 9541TIP3    H228581   7.122   3.632   0.339
 9542TIP3   OH228582   6.741   6.113   6.379
 9542TIP3    H128583   6.813   6.077   6.431
 9542TIP3    H228584   6.783   6.162   6.309
 9543TIP3   OH228585   5.337   0.914   4.951
 9543TIP3    H128586   5.429   0.931   4.931
 9543TIP3    H228587   5.295   0.912   4.865
 9544TIP3   OH228588   7.717   0.139   2.342
 9544TIP3    H128589   7.655   0.071   2.315
 9544TIP3    H228590   7.796   0.090   2.368
 9545TIP3   OH228591   7.922   3.812   6.128
 9545TIP3    H128592   7.979   3.783   6.199
 9545TIP3    H228593   7.851   3.859   6.172
 9546TIP3   OH228594   1.796   0.641   6.242
 9546TIP3    H128595   1.834   0.626   6.155
 9546TIP3    H228596   1.746   0.562   6.260
 9547TIP3   OH228597   0.823   1.914   6.191
 9547TIP3    H128598   0.873   1.832   6.199
 9547TIP3    H228599   0.885   1.982   6.218
 9548TIP3   OH228600   3.275   3.260   4.737
 9548TIP3    H128601   3.200   3.318   4.753
 9548TIP3    H228602   3.251   3.178   4.781
 9549TIP3   OH228603   6.810   5.203   4.231
 9549TIP3    H128604   6.744   5.134   4.229
 9549TIP3    H228605   6.852   5.193   4.317
 9550TIP3   OH228606   8.204   1.310   4.498
 9550TIP3    H128607   8.280   1.314   4.439
 9550TIP3    H228608   8.229   1.362   4.574
 9551TIP3   OH228609   2.997   6.299   1.397
 9551TIP3    H128610   2.947   6.327   1.474
 9551TIP3    H228611   2.937   6.244   1.347
 9552TIP3   OH228612   7.509   0.391   5.299
 9552TIP3    H128613   7.449   0.465   5.299
 9552TIP3    H228614   7.552   0.394   5.214
 9553TIP3   OH228615   2.251   3.502   1.416
 9553TIP3    H128616   2.240   3.412   1.447
 9553TIP3    H228617   2.346   3.517   1.419
 9554TIP3   OH228618   2.493   1.974   4.344
 9554TIP3    H128619   2.482   1.881   4.328
 9554TIP3    H228620   2.426   2.016   4.290
 9555TIP3   OH228621   6.531   2.236   1.760
 9555TIP3    H128622   6.474   2.215   1.834
 9555TIP3    H228623   6.584   2.310   1.790
 9556TIP3   OH228624   6.875   0.369   5.753
 9556TIP3    H128625   6.780   0.363   5.753
 9556TIP3    H228626   6.894   0.459   5.779
 9557TIP3   OH228627   7.979   5.583   3.975
 9557TIP3    H128628   8.056   5.562   4.028
 9557TIP3    H228629   8.013   5.597   3.887
 9558TIP3   OH228630   0.695   6.721   2.982
 9558TIP3    H128631   0.758   6.757   3.045
 9558TIP3    H228632   0.635   6.794   2.964
 9559TIP3   OH228633   7.116   4.827   1.354
 9559TIP3    H128634   7.168   4.859   1.428
 9559TIP3    H228635   7.122   4.731   1.361
 9560TIP3   OH228636   0.461   5.399   2.164
 9560TIP3    H128637   0.458   5.339   2.089
 9560TIP3    H228638   0.553   5.398   2.191
 9561TIP3   OH228639   5.741   4.879   0.017
 9561TIP3    H128640   5.675   4.869  -0.052
 9561TIP3    H228641   5.698   4.848   0.096
 9562TIP3   OH228642   6.228   5.429   3.640
 9562TIP3    H128643   6.157   5.485   3.671
 9562TIP3    H228644   6.189   5.374   3.572
 9563TIP3   OH228645   6.431   5.931   0.682
 9563TIP3    H128646   6.375   5.965   0.612
 9563TIP3    H228647   6.441   6.005   0.742
 9564TIP3   OH228648   3.190   6.421   2.125
 9564TIP3    H128649   3.219   6.483   2.192
 9564TIP3    H228650   3.270   6.401   2.075
 9565TIP3   OH228651   4.908   3.890   2.964
 9565TIP3    H128652   4.815   3.885   2.983
 9565TIP3    H228653   4.945   3.809   2.999
 9566TIP3   OH228654   4.433   5.626   2.515
 9566TIP3    H128655   4.344   5.645   2.485
 9566TIP3    H228656   4.490   5.669   2.452
 9567TIP3   OH228657   6.835   5.204   2.601
 9567TIP3    H128658   6.929   5.210   2.621
 9567TIP3    H228659   6.819   5.110   2.588
 9568TIP3   OH228660   6.628   7.357   4.008
 9568TIP3    H128661   6.677   7.286   3.968
 9568TIP3    H228662   6.541   7.320   4.024
 9569TIP3   OH228663   7.873   1.390   3.948
 9569TIP3    H128664   7.862   1.386   3.853
 9569TIP3    H228665   7.967   1.378   3.962
 9570TIP3   OH228666   6.667   7.494   3.354
 9570TIP3    H128667   6.732   7.439   3.311
 9570TIP3    H228668   6.717   7.566   3.392
 9571TIP3   OH228669   7.342   1.901   6.542
 9571TIP3    H128670   7.303   1.988   6.550
 9571TIP3    H228671   7.374   1.881   6.630
 9572TIP3   OH228672   5.397   6.225   1.518
 9572TIP3    H128673   5.412   6.246   1.610
 9572TIP3    H228674   5.468   6.165   1.496
 9573TIP3   OH228675   4.435   7.521   4.901
 9573TIP3    H128676   4.440   7.532   4.996
 9573TIP3    H228677   4.362   7.460   4.887
 9574TIP3   OH228678   7.531   0.917   1.320
 9574TIP3    H128679   7.481   0.995   1.297
 9574TIP3    H228680   7.518   0.907   1.414
 9575TIP3   OH228681   3.011   5.638   0.356
 9575TIP3    H128682   3.054   5.717   0.390
 9575TIP3    H228683   2.929   5.670   0.319
 9576TIP3   OH228684   0.685   7.729   6.398
 9576TIP3    H128685   0.601   7.689   6.420
 9576TIP3    H228686   0.750   7.670   6.434
 9577TIP3   OH228687   6.594   4.325   1.302
 9577TIP3    H128688   6.562   4.250   1.353
 9577TIP3    H228689   6.577   4.300   1.211
 9578TIP3   OH228690   2.664   4.748   6.270
 9578TIP3    H128691   2.670   4.792   6.355
 9578TIP3    H228692   2.753   4.755   6.233
 9579TIP3   OH228693   6.123   2.087   1.210
 9579TIP3    H128694   6.185   2.027   1.169
 9579TIP3    H228695   6.173   2.167   1.226
 9580TIP3   OH228696   5.260   2.662   1.020
 9580TIP3    H128697   5.211   2.716   1.082
 9580TIP3    H228698   5.348   2.701   1.018
 9581TIP3   OH228699   4.373   0.425   3.066
 9581TIP3    H128700   4.278   0.427   3.072
 9581TIP3    H228701   4.402   0.400   3.153
 9582TIP3   OH228702   3.157   6.141   3.142
 9582TIP3    H128703   3.110   6.195   3.205
 9582TIP3    H228704   3.182   6.201   3.072
 9583TIP3   OH228705   5.746   3.709   2.717
 9583TIP3    H128706   5.809   3.664   2.661
 9583TIP3    H228707   5.723   3.644   2.784
 9584TIP3   OH228708   3.506   4.455   1.336
 9584TIP3    H128709   3.544   4.470   1.250
 9584TIP3    H228710   3.577   4.470   1.398
 9585TIP3   OH228711   1.818   0.293   2.246
 9585TIP3    H128712   1.880   0.234   2.289
 9585TIP3    H228713   1.750   0.236   2.211
 9586TIP3   OH228714   3.668   5.165   5.605
 9586TIP3    H128715   3.720   5.162   5.686
 9586TIP3    H228716   3.583   5.128   5.630
 9587TIP3   OH228717   7.373   6.267   2.880
 9587TIP3    H128718   7.281   6.292   2.869
 9587TIP3    H228719   7.393   6.215   2.802
 9588TIP3   OH228720   0.140   4.245   3.325
 9588TIP3    H128721   0.105   4.289   3.248
 9588TIP3    H228722   0.082   4.170   3.338
 9589TIP3   OH228723   0.675   2.342   2.351
 9589TIP3    H128724   0.631   2.420   2.319
 9589TIP3    H228725   0.718   2.305   2.274
 9590TIP3   OH228726   4.877   2.576   5.861
 9590TIP3    H128727   4.784   2.599   5.870
 9590TIP3    H228728   4.876   2.485   5.831
 9591TIP3   OH228729   0.774   5.802   2.107
 9591TIP3    H128730   0.761   5.834   2.196
 9591TIP3    H228731   0.689   5.813   2.065
 9592TIP3   OH228732   7.708   4.615   5.843
 9592TIP3    H128733   7.629   4.609   5.896
 9592TIP3    H228734   7.709   4.534   5.792
 9593TIP3   OH228735   5.921   4.238   6.274
 9593TIP3    H128736   5.922   4.162   6.216
 9593TIP3    H228737   5.838   4.282   6.255
 9594TIP3   OH228738   0.158   0.527   4.006
 9594TIP3    H128739   0.159   0.479   4.089
 9594TIP3    H228740   0.087   0.487   3.956
 9595TIP3   OH228741   1.416   2.511   6.222
 9595TIP3    H128742   1.387   2.596   6.255
 9595TIP3    H228743   1.377   2.447   6.282
 9596TIP3   OH228744   2.679   2.938   4.617
 9596TIP3    H128745   2.675   3.029   4.586
 9596TIP3    H228746   2.744   2.896   4.560
 9597TIP3   OH228747   6.537   7.733   4.117
 9597TIP3    H128748   6.559   7.692   4.033
 9597TIP3    H228749   6.607   7.706   4.176
 9598TIP3   OH228750   1.538   7.629   5.509
 9598TIP3    H128751   1.452   7.655   5.542
 9598TIP3    H228752   1.599   7.692   5.548
 9599TIP3   OH228753   4.287   4.851   4.420
 9599TIP3    H128754   4.368   4.807   4.393
 9599TIP3    H228755   4.284   4.841   4.515
 9600TIP3   OH228756   1.447   4.073   5.645
 9600TIP3    H128757   1.500   4.000   5.675
 9600TIP3    H228758   1.484   4.096   5.559
 9601TIP3   OH228759   1.229   3.913   4.558
 9601TIP3    H128760   1.154   3.929   4.501
 9601TIP3    H228761   1.191   3.883   4.640
 9602TIP3   OH228762   5.017   5.300   2.756
 9602TIP3    H128763   5.044   5.376   2.704
 9602TIP3    H228764   5.002   5.335   2.844
 9603TIP3   OH228765   4.940   4.965   2.187
 9603TIP3    H128766   4.908   5.049   2.221
 9603TIP3    H228767   5.002   4.935   2.254
 9604TIP3   OH228768   3.612   3.898   2.761
 9604TIP3    H128769   3.692   3.851   2.739
 9604TIP3    H228770   3.549   3.873   2.693
 9605TIP3   OH228771   3.657   7.480   3.211
 9605TIP3    H128772   3.581   7.434   3.176
 9605TIP3    H228773   3.622   7.534   3.282
 9606TIP3   OH228774   4.003   3.801   0.371
 9606TIP3    H128775   4.061   3.867   0.409
 9606TIP3    H228776   3.916   3.840   0.372
 9607TIP3   OH228777   6.436   0.550   3.809
 9607TIP3    H128778   6.405   0.508   3.729
 9607TIP3    H228779   6.485   0.482   3.855
 9608TIP3   OH228780   2.411   5.020   0.706
 9608TIP3    H128781   2.410   4.940   0.654
 9608TIP3    H228782   2.504   5.033   0.727
 9609TIP3   OH228783   6.271   6.408   5.277
 9609TIP3    H128784   6.308   6.322   5.260
 9609TIP3    H228785   6.347   6.464   5.293
 9610TIP3   OH228786   1.187   1.398   0.705
 9610TIP3    H128787   1.279   1.373   0.698
 9610TIP3    H228788   1.140   1.331   0.656
 9611TIP3   OH228789   8.208   2.704   2.233
 9611TIP3    H128790   8.269   2.767   2.270
 9611TIP3    H228791   8.232   2.621   2.273
 9612TIP3   OH228792   0.277   1.827   4.065
 9612TIP3    H128793   0.372   1.836   4.069
 9612TIP3    H228794   0.243   1.898   4.119
 9613TIP3   OH228795   6.858   0.208   0.752
 9613TIP3    H128796   6.904   0.271   0.807
 9613TIP3    H228797   6.819   0.261   0.682
 9614TIP3   OH228798   3.142   3.419   0.075
 9614TIP3    H128799   3.193   3.456   0.003
 9614TIP3    H228800   3.091   3.493   0.109
 9615TIP3   OH228801   7.106   1.880   5.820
 9615TIP3    H128802   7.123   1.933   5.898
 9615TIP3    H228803   7.192   1.866   5.781
 9616TIP3   OH228804   0.578   0.395   0.011
 9616TIP3    H128805   0.631   0.468   0.044
 9616TIP3    H228806   0.615   0.317   0.053
 9617TIP3   OH228807   5.249   7.338   3.921
 9617TIP3    H128808   5.333   7.382   3.935
 9617TIP3    H228809   5.187   7.386   3.976
 9618TIP3   OH228810   8.138   4.161   3.353
 9618TIP3    H128811   8.068   4.102   3.325
 9618TIP3    H228812   8.107   4.197   3.436
 9619TIP3   OH228813   4.357   3.217   0.044
 9619TIP3    H128814   4.439   3.217  -0.004
 9619TIP3    H228815   4.316   3.301   0.023
 9620TIP3   OH228816   0.629   5.228   5.366
 9620TIP3    H128817   0.686   5.175   5.310
 9620TIP3    H228818   0.567   5.269   5.306
 9621TIP3   OH228819   2.736   6.219   6.663
 9621TIP3    H128820   2.689   6.301   6.644
 9621TIP3    H228821   2.746   6.177   6.577
 9622TIP3   OH228822   7.064   5.975   5.115
 9622TIP3    H128823   7.109   6.016   5.042
 9622TIP3    H228824   7.091   6.026   5.192
 9623TIP3   OH228825   3.383   2.568   4.303
 9623TIP3    H128826   3.342   2.483   4.317
 9623TIP3    H228827   3.473   2.549   4.277
 9624TIP3   OH228828   4.237   0.704   0.952
 9624TIP3    H128829   4.231   0.661   0.867
 9624TIP3    H228830   4.235   0.632   1.016
 9625TIP3   OH228831   8.262   5.433   3.332
 9625TIP3    H128832   8.257   5.479   3.249
 9625TIP3    H228833   8.196   5.364   3.325
 9626TIP3   OH228834   4.198   3.293   6.343
 9626TIP3    H128835   4.221   3.203   6.320
 9626TIP3    H228836   4.106   3.288   6.370
 9627TIP3   OH228837   7.499   2.081   2.193
 9627TIP3    H128838   7.577   2.121   2.156
 9627TIP3    H228839   7.426   2.131   2.157
 9628TIP3   OH228840   0.188   7.404   5.793
 9628TIP3    H128841   0.273   7.363   5.806
 9628TIP3    H228842   0.165   7.380   5.703
 9629TIP3   OH228843   6.267   2.286   2.215
 9629TIP3    H128844   6.312   2.315   2.135
 9629TIP3    H228845   6.188   2.339   2.218
 9630TIP3   OH228846   4.864   4.472   4.970
 9630TIP3    H128847   4.924   4.399   4.954
 9630TIP3    H228848   4.848   4.470   5.064
 9631TIP3   OH228849   1.649   7.731   0.391
 9631TIP3    H128850   1.728   7.759   0.438
 9631TIP3    H228851   1.577   7.774   0.437
 9632TIP3   OH228852   2.286   6.391   4.675
 9632TIP3    H128853   2.299   6.366   4.583
 9632TIP3    H228854   2.288   6.309   4.723
 9633TIP3   OH228855   2.427   6.998   4.974
 9633TIP3    H128856   2.389   6.910   4.976
 9633TIP3    H228857   2.426   7.023   4.882
 9634TIP3   OH228858   2.748   1.369   2.637
 9634TIP3    H128859   2.765   1.352   2.545
 9634TIP3    H228860   2.682   1.438   2.637
 9635TIP3   OH228861   0.681   1.959   1.204
 9635TIP3    H128862   0.770   1.939   1.173
 9635TIP3    H228863   0.624   1.925   1.135
 9636TIP3   OH228864   3.693   3.625   6.062
 9636TIP3    H128865   3.667   3.554   6.122
 9636TIP3    H228866   3.778   3.598   6.029
 9637TIP3   OH228867   5.433   7.638   0.596
 9637TIP3    H128868   5.413   7.624   0.503
 9637TIP3    H228869   5.493   7.713   0.596
 9638TIP3   OH228870   1.887   5.166   0.206
 9638TIP3    H128871   1.921   5.243   0.252
 9638TIP3    H228872   1.835   5.120   0.271
 9639TIP3   OH228873   7.318   5.175   0.509
 9639TIP3    H128874   7.339   5.083   0.525
 9639TIP3    H228875   7.297   5.210   0.596
 9640TIP3   OH228876   0.145   6.570   3.311
 9640TIP3    H128877   0.075   6.573   3.377
 9640TIP3    H228878   0.200   6.645   3.331
 9641TIP3   OH228879   1.780   4.185   2.681
 9641TIP3    H128880   1.849   4.163   2.618
 9641TIP3    H228881   1.807   4.143   2.762
 9642TIP3   OH228882   5.130   3.960   2.684
 9642TIP3    H128883   5.044   3.978   2.723
 9642TIP3    H228884   5.192   3.996   2.748
 9643TIP3   OH228885   1.197   1.235   5.010
 9643TIP3    H128886   1.189   1.293   5.086
 9643TIP3    H228887   1.108   1.222   4.979
 9644TIP3   OH228888   3.364   6.595   0.795
 9644TIP3    H128889   3.308   6.628   0.725
 9644TIP3    H228890   3.384   6.672   0.848
 9645TIP3   OH228891   5.011   4.291   3.499
 9645TIP3    H128892   5.104   4.310   3.490
 9645TIP3    H228893   5.007   4.198   3.521
 9646TIP3   OH228894   5.527   1.159   1.142
 9646TIP3    H128895   5.437   1.187   1.124
 9646TIP3    H228896   5.553   1.110   1.064
 9647TIP3   OH228897   1.970   7.291   5.443
 9647TIP3    H128898   1.952   7.366   5.499
 9647TIP3    H228899   1.885   7.248   5.434
 9648TIP3   OH228900   7.236   5.291   0.254
 9648TIP3    H128901   7.198   5.379   0.253
 9648TIP3    H228902   7.233   5.264   0.345
 9649TIP3   OH228903   6.507   1.176   5.233
 9649TIP3    H128904   6.576   1.223   5.187
 9649TIP3    H228905   6.554   1.119   5.295
 9650TIP3   OH228906   8.061   3.521   2.435
 9650TIP3    H128907   7.971   3.551   2.451
 9650TIP3    H228908   8.053   3.458   2.363
 9651TIP3   OH228909   6.699   0.328   2.786
 9651TIP3    H128910   6.696   0.239   2.821
 9651TIP3    H228911   6.705   0.384   2.863
 9652TIP3   OH228912   7.752   1.180   3.210
 9652TIP3    H128913   7.689   1.144   3.147
 9652TIP3    H228914   7.730   1.272   3.217
 9653TIP3   OH228915   5.036   6.315   4.601
 9653TIP3    H128916   4.974   6.387   4.593
 9653TIP3    H228917   5.000   6.260   4.670
 9654TIP3   OH228918   3.565   2.214   3.129
 9654TIP3    H128919   3.597   2.304   3.131
 9654TIP3    H228920   3.470   2.222   3.135
 9655TIP3   OH228921   6.676   7.179   4.494
 9655TIP3    H128922   6.768   7.186   4.519
 9655TIP3    H228923   6.677   7.128   4.412
 9656TIP3   OH228924   7.183   1.561   2.608
 9656TIP3    H128925   7.134   1.631   2.565
 9656TIP3    H228926   7.212   1.504   2.537
 9657TIP3   OH228927   3.596   5.126   4.197
 9657TIP3    H128928   3.673   5.073   4.176
 9657TIP3    H228929   3.596   5.133   4.293
 9658TIP3   OH228930   1.439   4.910   6.114
 9658TIP3    H128931   1.428   4.857   6.193
 9658TIP3    H228932   1.366   4.887   6.058
 9659TIP3   OH228933   4.385   5.142   0.055
 9659TIP3    H128934   4.472   5.171   0.031
 9659TIP3    H228935   4.331   5.161  -0.021
 9660TIP3   OH228936   7.561   2.739   4.949
 9660TIP3    H128937   7.470   2.711   4.939
 9660TIP3    H228938   7.598   2.678   5.013
 9661TIP3   OH228939   4.127   1.909   5.528
 9661TIP3    H128940   4.219   1.932   5.533
 9661TIP3    H228941   4.119   1.854   5.450
 9662TIP3   OH228942   0.716   4.887   0.943
 9662TIP3    H128943   0.660   4.951   0.900
 9662TIP3    H228944   0.658   4.842   1.005
 9663TIP3   OH228945   1.207   6.110   4.338
 9663TIP3    H128946   1.193   6.022   4.373
 9663TIP3    H228947   1.125   6.156   4.354
 9664TIP3   OH228948   3.516   4.250   4.154
 9664TIP3    H128949   3.516   4.297   4.070
 9664TIP3    H228950   3.592   4.192   4.149
 9665TIP3   OH228951   3.705   2.907   1.476
 9665TIP3    H128952   3.770   2.903   1.406
 9665TIP3    H228953   3.756   2.900   1.556
 9666TIP3   OH228954   4.230   2.504   1.514
 9666TIP3    H128955   4.318   2.517   1.479
 9666TIP3    H228956   4.196   2.593   1.525
 9667TIP3   OH228957   2.670   5.832   4.382
 9667TIP3    H128958   2.653   5.761   4.320
 9667TIP3    H228959   2.583   5.865   4.405
 9668TIP3   OH228960   1.013   5.302   1.755
 9668TIP3    H128961   1.081   5.258   1.703
 9668TIP3    H228962   1.061   5.343   1.827
 9669TIP3   OH228963   4.163   4.066   1.055
 9669TIP3    H128964   4.114   4.007   0.997
 9669TIP3    H228965   4.099   4.094   1.120
 9670TIP3   OH228966   4.923   3.821   6.368
 9670TIP3    H128967   4.911   3.732   6.399
 9670TIP3    H228968   4.870   3.826   6.288
 9671TIP3   OH228969   0.995   6.463   4.903
 9671TIP3    H128970   1.036   6.481   4.988
 9671TIP3    H228971   1.000   6.368   4.895
 9672TIP3   OH228972   6.041   5.151   2.217
 9672TIP3    H128973   6.101   5.221   2.242
 9672TIP3    H228974   5.961   5.196   2.189
 9673TIP3   OH228975   3.239   1.846   6.639
 9673TIP3    H128976   3.185   1.905   6.692
 9673TIP3    H228977   3.177   1.798   6.585
 9674TIP3   OH228978   4.112   1.966   0.696
 9674TIP3    H128979   4.127   1.927   0.782
 9674TIP3    H228980   4.021   1.942   0.675
 9675TIP3   OH228981   1.811   7.221   4.091
 9675TIP3    H128982   1.723   7.204   4.058
 9675TIP3    H228983   1.809   7.312   4.120
 9676TIP3   OH228984   5.131   5.732   5.577
 9676TIP3    H128985   5.193   5.677   5.625
 9676TIP3    H228986   5.046   5.690   5.589
 9677TIP3   OH228987   1.605   4.896   6.727
 9677TIP3    H128988   1.634   4.821   6.780
 9677TIP3    H228989   1.524   4.924   6.768
 9678TIP3   OH228990   0.284   2.641   3.527
 9678TIP3    H128991   0.346   2.703   3.488
 9678TIP3    H228992   0.209   2.694   3.553
 9679TIP3   OH228993   8.252   3.403   4.821
 9679TIP3    H128994   8.260   3.454   4.740
 9679TIP3    H228995   8.262   3.312   4.793
 9680TIP3   OH228996   1.892   7.513   5.710
 9680TIP3    H128997   1.859   7.559   5.788
 9680TIP3    H228998   1.986   7.529   5.711
 9681TIP3   OH228999   6.994   7.259   4.575
 9681TIP3    H129000   6.993   7.164   4.584
 9681TIP3    H229001   7.025   7.275   4.486
 9682TIP3   OH229002   2.545   6.367   2.300
 9682TIP3    H129003   2.482   6.346   2.231
 9682TIP3    H229004   2.492   6.374   2.379
 9683TIP3   OH229005   4.502   1.936   1.891
 9683TIP3    H129006   4.540   2.014   1.851
 9683TIP3    H229007   4.416   1.927   1.850
 9684TIP3   OH229008   7.532   0.688   3.350
 9684TIP3    H129009   7.478   0.761   3.322
 9684TIP3    H229010   7.621   0.722   3.349
 9685TIP3   OH229011   1.664   1.192   6.574
 9685TIP3    H129012   1.616   1.192   6.491
 9685TIP3    H229013   1.682   1.100   6.592
 9686TIP3   OH229014   4.714   4.899   2.034
 9686TIP3    H129015   4.807   4.918   2.020
 9686TIP3    H229016   4.688   4.958   2.105
 9687TIP3   OH229017   7.203   4.100   5.534
 9687TIP3    H129018   7.276   4.161   5.543
 9687TIP3    H229019   7.126   4.156   5.522
 9688TIP3   OH229020   2.519   0.345   5.312
 9688TIP3    H129021   2.573   0.289   5.256
 9688TIP3    H229022   2.554   0.433   5.300
 9689TIP3   OH229023   0.848   0.768   4.677
 9689TIP3    H129024   0.918   0.815   4.632
 9689TIP3    H229025   0.768   0.798   4.634
 9690TIP3   OH229026   2.892   3.964   2.578
 9690TIP3    H129027   2.841   3.946   2.500
 9690TIP3    H229028   2.955   4.030   2.551
 9691TIP3   OH229029   3.388   4.770   1.827
 9691TIP3    H129030   3.370   4.820   1.907
 9691TIP3    H229031   3.366   4.679   1.850
 9692TIP3   OH229032   4.281   0.774   6.460
 9692TIP3    H129033   4.345   0.844   6.465
 9692TIP3    H229034   4.209   0.803   6.516
 9693TIP3   OH229035   5.411   4.249   2.509
 9693TIP3    H129036   5.451   4.311   2.570
 9693TIP3    H229037   5.381   4.303   2.436
 9694TIP3   OH229038   4.352   5.597   1.790
 9694TIP3    H129039   4.432   5.623   1.744
 9694TIP3    H229040   4.365   5.505   1.811
 9695TIP3   OH229041   3.211   2.486   5.422
 9695TIP3    H129042   3.288   2.510   5.369
 9695TIP3    H229043   3.137   2.500   5.363
 9696TIP3   OH229044   8.268   5.290   6.047
 9696TIP3    H129045   8.269   5.344   5.967
 9696TIP3    H229046   8.253   5.201   6.015
 9697TIP3   OH229047   4.940   4.515   3.692
 9697TIP3    H129048   4.885   4.530   3.616
 9697TIP3    H229049   5.016   4.467   3.659
 9698TIP3   OH229050   0.354   7.320   3.185
 9698TIP3    H129051   0.296   7.247   3.208
 9698TIP3    H229052   0.314   7.396   3.226
 9699TIP3   OH229053   4.266   5.887   5.120
 9699TIP3    H129054   4.321   5.907   5.044
 9699TIP3    H229055   4.295   5.949   5.188
 9700TIP3   OH229056   1.004   6.655   6.740
 9700TIP3    H129057   1.062   6.672   6.814
 9700TIP3    H229058   0.939   6.593   6.774
 9701TIP3   OH229059   0.282   6.262   1.973
 9701TIP3    H129060   0.191   6.281   1.996
 9701TIP3    H229061   0.311   6.339   1.924
 9702TIP3   OH229062   7.969   4.709   3.258
 9702TIP3    H129063   7.976   4.776   3.326
 9702TIP3    H229064   8.053   4.663   3.260
 9703TIP3   OH229065   4.688   4.416   6.211
 9703TIP3    H129066   4.631   4.355   6.259
 9703TIP3    H229067   4.629   4.462   6.151
 9704TIP3   OH229068   5.952   0.157   6.492
 9704TIP3    H129069   5.969   0.250   6.481
 9704TIP3    H229070   5.890   0.152   6.565
 9705TIP3   OH229071   1.498   0.273   5.217
 9705TIP3    H129072   1.457   0.351   5.256
 9705TIP3    H229073   1.457   0.264   5.131
 9706TIP3   OH229074   3.399   6.919   0.333
 9706TIP3    H129075   3.378   6.978   0.260
 9706TIP3    H229076   3.314   6.901   0.373
 9707TIP3   OH229077   6.079   5.023   0.996
 9707TIP3    H129078   6.043   4.956   1.055
 9707TIP3    H229079   6.159   5.052   1.039
 9708TIP3   OH229080   6.671   1.962   6.296
 9708TIP3    H129081   6.683   1.895   6.228
 9708TIP3    H229082   6.748   2.019   6.286
 9709TIP3   OH229083   6.558   6.931   3.099
 9709TIP3    H129084   6.524   6.938   3.010
 9709TIP3    H229085   6.571   6.837   3.112
 9710TIP3   OH229086   2.016   6.903   5.097
 9710TIP3    H129087   1.994   6.995   5.085
 9710TIP3    H229088   2.109   6.903   5.119
 9711TIP3   OH229089   4.902   3.470   0.432
 9711TIP3    H129090   4.938   3.536   0.491
 9711TIP3    H229091   4.810   3.493   0.424
 9712TIP3   OH229092   7.223   3.944   4.097
 9712TIP3    H129093   7.169   3.865   4.099
 9712TIP3    H229094   7.241   3.959   4.004
 9713TIP3   OH229095   4.186   0.110   6.748
 9713TIP3    H129096   4.232   0.178   6.698
 9713TIP3    H229097   4.223   0.117   6.836
 9714TIP3   OH229098   6.408   1.806   1.355
 9714TIP3    H129099   6.499   1.785   1.337
 9714TIP3    H229100   6.404   1.822   1.449
 9715TIP3   OH229101   5.274   3.626   0.428
 9715TIP3    H129102   5.331   3.560   0.468
 9715TIP3    H229103   5.311   3.638   0.340
 9716TIP3   OH229104   7.117   0.812   1.140
 9716TIP3    H129105   7.047   0.877   1.137
 9716TIP3    H229106   7.136   0.803   1.234
 9717TIP3   OH229107   5.229   7.067   0.389
 9717TIP3    H129108   5.133   7.070   0.392
 9717TIP3    H229109   5.252   6.993   0.445
 9718TIP3   OH229110   8.200   6.589   6.362
 9718TIP3    H129111   8.209   6.674   6.405
 9718TIP3    H229112   8.283   6.544   6.378
 9719TIP3   OH229113   6.303   4.755   6.059
 9719TIP3    H129114   6.333   4.706   6.135
 9719TIP3    H229115   6.307   4.847   6.085
 9720TIP3   OH229116   6.984   0.541   2.468
 9720TIP3    H129117   7.055   0.570   2.411
 9720TIP3    H229118   6.972   0.612   2.530
 9721TIP3   OH229119   5.785   4.627   1.722
 9721TIP3    H129120   5.845   4.558   1.693
 9721TIP3    H229121   5.760   4.672   1.641
 9722TIP3   OH229122   2.478   2.112   1.856
 9722TIP3    H129123   2.484   2.016   1.849
 9722TIP3    H229124   2.389   2.133   1.827
 9723TIP3   OH229125   5.171   3.027   0.833
 9723TIP3    H129126   5.126   2.990   0.909
 9723TIP3    H229127   5.148   2.968   0.761
 9724TIP3   OH229128   2.260   3.965   5.610
 9724TIP3    H129129   2.350   3.995   5.595
 9724TIP3    H229130   2.209   4.046   5.614
 9725TIP3   OH229131   4.271   6.642   2.589
 9725TIP3    H129132   4.234   6.682   2.510
 9725TIP3    H229133   4.365   6.660   2.582
 9726TIP3   OH229134   6.546   6.451   0.723
 9726TIP3    H129135   6.625   6.492   0.688
 9726TIP3    H229136   6.503   6.520   0.774
 9727TIP3   OH229137   0.064   1.343   4.275
 9727TIP3    H129138   0.070   1.436   4.252
 9727TIP3    H229139  -0.026   1.319   4.253
 9728TIP3   OH229140   3.783   5.834   3.220
 9728TIP3    H129141   3.827   5.759   3.182
 9728TIP3    H229142   3.716   5.796   3.277
 9729TIP3   OH229143   0.069   4.375   2.281
 9729TIP3    H129144  -0.020   4.341   2.288
 9729TIP3    H229145   0.115   4.310   2.228
 9730TIP3   OH229146   5.724   7.507   4.992
 9730TIP3    H129147   5.762   7.470   4.913
 9730TIP3    H229148   5.799   7.532   5.046
 9731TIP3   OH229149   3.376   7.136   3.408
 9731TIP3    H129150   3.428   7.060   3.380
 9731TIP3    H229151   3.441   7.202   3.430
 9732TIP3   OH229152   2.565   2.594   2.658
 9732TIP3    H129153   2.514   2.640   2.725
 9732TIP3    H229154   2.509   2.522   2.631
 9733TIP3   OH229155   7.435   2.013   2.791
 9733TIP3    H129156   7.475   2.095   2.762
 9733TIP3    H229157   7.384   2.037   2.868
 9734TIP3   OH229158   5.685   3.741   4.309
 9734TIP3    H129159   5.602   3.748   4.261
 9734TIP3    H229160   5.687   3.819   4.365
 9735TIP3   OH229161   2.949   2.231   5.333
 9735TIP3    H129162   2.929   2.159   5.392
 9735TIP3    H229163   2.953   2.308   5.389
 9736TIP3   OH229164   2.543   4.324   5.724
 9736TIP3    H129165   2.455   4.353   5.698
 9736TIP3    H229166   2.602   4.381   5.676
 9737TIP3   OH229167   7.486   7.424   5.560
 9737TIP3    H129168   7.539   7.492   5.519
 9737TIP3    H229169   7.398   7.437   5.524
 9738TIP3   OH229170   6.672   0.580   6.232
 9738TIP3    H129171   6.688   0.648   6.297
 9738TIP3    H229172   6.580   0.588   6.210
 9739TIP3   OH229173   4.569   1.806   4.185
 9739TIP3    H129174   4.563   1.899   4.163
 9739TIP3    H229175   4.539   1.801   4.276
 9740TIP3   OH229176   6.105   7.451   4.206
 9740TIP3    H129177   6.177   7.482   4.261
 9740TIP3    H229178   6.140   7.453   4.117
 9741TIP3   OH229179   4.142   4.962   3.833
 9741TIP3    H129180   4.087   4.883   3.831
 9741TIP3    H229181   4.231   4.928   3.849
 9742TIP3   OH229182   3.464   3.748   5.014
 9742TIP3    H129183   3.412   3.781   5.087
 9742TIP3    H229184   3.485   3.658   5.039
 9743TIP3   OH229185   1.824   0.911   5.230
 9743TIP3    H129186   1.812   0.994   5.184
 9743TIP3    H229187   1.740   0.866   5.221
 9744TIP3   OH229188   6.783   3.056   6.330
 9744TIP3    H129189   6.697   3.056   6.288
 9744TIP3    H229190   6.838   3.003   6.272
 9745TIP3   OH229191   6.473   5.082   1.819
 9745TIP3    H129192   6.403   5.040   1.768
 9745TIP3    H229193   6.509   5.148   1.761
 9746TIP3   OH229194   1.078   1.917   1.343
 9746TIP3    H129195   1.087   1.845   1.281
 9746TIP3    H229196   1.149   1.977   1.322
 9747TIP3   OH229197   0.833   4.654   0.826
 9747TIP3    H129198   0.789   4.739   0.835
 9747TIP3    H229199   0.891   4.665   0.751
 9748TIP3   OH229200   5.860   2.836   3.928
 9748TIP3    H129201   5.772   2.872   3.915
 9748TIP3    H229202   5.849   2.771   3.997
 9749TIP3   OH229203   0.408   5.823   5.649
 9749TIP3    H129204   0.404   5.919   5.654
 9749TIP3    H229205   0.322   5.797   5.617
 9750TIP3   OH229206   7.356   3.701   0.764
 9750TIP3    H129207   7.365   3.696   0.859
 9750TIP3    H229208   7.266   3.732   0.751
 9751TIP3   OH229209   2.142   0.033   5.220
 9751TIP3    H129210   2.218  -0.024   5.207
 9751TIP3    H229211   2.176   0.106   5.271
 9752TIP3   OH229212   1.937   3.200   4.061
 9752TIP3    H129213   1.876   3.213   3.988
 9752TIP3    H229214   1.970   3.111   4.050
 9753TIP3   OH229215   6.372   4.230   0.497
 9753TIP3    H129216   6.443   4.174   0.467
 9753TIP3    H229217   6.318   4.173   0.551
 9754TIP3   OH229218   5.810   6.720   1.403
 9754TIP3    H129219   5.715   6.710   1.405
 9754TIP3    H229220   5.831   6.738   1.312
 9755TIP3   OH229221   5.767   4.680   3.672
 9755TIP3    H129222   5.784   4.631   3.592
 9755TIP3    H229223   5.721   4.617   3.729
 9756TIP3   OH229224   6.290   1.024   4.805
 9756TIP3    H129225   6.315   1.081   4.877
 9756TIP3    H229226   6.362   1.031   4.742
 9757TIP3   OH229227   1.947   3.962   0.203
 9757TIP3    H129228   1.977   3.909   0.129
 9757TIP3    H229229   1.973   4.051   0.181
 9758TIP3   OH229230   0.157   3.123   5.942
 9758TIP3    H129231   0.191   3.182   5.875
 9758TIP3    H229232   0.215   3.047   5.940
 9759TIP3   OH229233   3.287   3.111   4.987
 9759TIP3    H129234   3.293   3.075   5.076
 9759TIP3    H229235   3.283   3.206   4.999
 9760TIP3   OH229236   4.607   4.492   1.481
 9760TIP3    H129237   4.632   4.411   1.525
 9760TIP3    H229238   4.603   4.469   1.389
 9761TIP3   OH229239   0.075   0.356   5.026
 9761TIP3    H129240   0.055   0.317   5.110
 9761TIP3    H229241  -0.010   0.372   4.985
 9762TIP3   OH229242   3.102   0.767   2.645
 9762TIP3    H129243   3.075   0.803   2.729
 9762TIP3    H229244   3.075   0.833   2.581
 9763TIP3   OH229245   5.955   5.914   1.454
 9763TIP3    H129246   5.994   5.829   1.434
 9763TIP3    H229247   5.907   5.899   1.536
 9764TIP3   OH229248   7.697   6.588   0.537
 9764TIP3    H129249   7.698   6.653   0.467
 9764TIP3    H229250   7.789   6.567   0.552
 9765TIP3   OH229251   4.935   2.233   2.546
 9765TIP3    H129252   4.952   2.327   2.551
 9765TIP3    H229253   4.855   2.227   2.493
 9766TIP3   OH229254   1.755   6.899   3.388
 9766TIP3    H129255   1.822   6.879   3.323
 9766TIP3    H229256   1.701   6.967   3.347
 9767TIP3   OH229257   2.469   4.737   1.952
 9767TIP3    H129258   2.473   4.753   2.046
 9767TIP3    H229259   2.560   4.733   1.924
 9768TIP3   OH229260   3.435   3.122   5.986
 9768TIP3    H129261   3.484   3.116   5.905
 9768TIP3    H229262   3.350   3.083   5.966
 9769TIP3   OH229263   7.833   6.935   0.418
 9769TIP3    H129264   7.907   6.975   0.372
 9769TIP3    H229265   7.802   6.867   0.358
 9770TIP3   OH229266   8.030   3.499   1.678
 9770TIP3    H129267   8.055   3.519   1.588
 9770TIP3    H229268   8.005   3.583   1.716
 9771TIP3   OH229269   3.359   0.308   3.828
 9771TIP3    H129270   3.422   0.236   3.836
 9771TIP3    H229271   3.340   0.334   3.918
 9772TIP3   OH229272   1.215   5.591   4.911
 9772TIP3    H129273   1.304   5.585   4.879
 9772TIP3    H229274   1.162   5.549   4.843
 9773TIP3   OH229275   3.412   5.330   2.877
 9773TIP3    H129276   3.405   5.305   2.785
 9773TIP3    H229277   3.385   5.422   2.878
 9774TIP3   OH229278   0.873   3.693   4.495
 9774TIP3    H129279   0.861   3.622   4.559
 9774TIP3    H229280   0.831   3.769   4.535
 9775TIP3   OH229281   3.687   1.059   2.418
 9775TIP3    H129282   3.737   0.993   2.467
 9775TIP3    H229283   3.751   1.095   2.356
 9776TIP3   OH229284   2.934   6.532   5.101
 9776TIP3    H129285   2.946   6.569   5.013
 9776TIP3    H229286   2.868   6.588   5.141
 9777TIP3   OH229287   1.224   6.797   4.378
 9777TIP3    H129288   1.153   6.774   4.318
 9777TIP3    H229289   1.196   6.880   4.418
 9778TIP3   OH229290   3.991   4.789   3.240
 9778TIP3    H129291   4.058   4.780   3.308
 9778TIP3    H229292   3.998   4.708   3.189
 9779TIP3   OH229293   7.363   5.249   2.008
 9779TIP3    H129294   7.455   5.271   2.022
 9779TIP3    H229295   7.326   5.325   1.965
 9780TIP3   OH229296   1.645   4.883   5.072
 9780TIP3    H129297   1.693   4.889   5.155
 9780TIP3    H229298   1.556   4.910   5.094
 9781TIP3   OH229299   2.293   0.818   1.285
 9781TIP3    H129300   2.242   0.746   1.322
 9781TIP3    H229301   2.233   0.893   1.287
 9782TIP3   OH229302   5.625   4.792   2.375
 9782TIP3    H129303   5.636   4.884   2.351
 9782TIP3    H229304   5.614   4.793   2.471
 9783TIP3   OH229305   5.012   3.735   5.479
 9783TIP3    H129306   5.023   3.751   5.572
 9783TIP3    H229307   4.994   3.641   5.472
 9784TIP3   OH229308   1.210   0.324   0.866
 9784TIP3    H129309   1.238   0.405   0.824
 9784TIP3    H229310   1.241   0.255   0.807
 9785TIP3   OH229311   6.327   1.655   0.751
 9785TIP3    H129312   6.368   1.739   0.733
 9785TIP3    H229313   6.277   1.668   0.831
 9786TIP3   OH229314   6.164   4.384   2.649
 9786TIP3    H129315   6.139   4.477   2.648
 9786TIP3    H229316   6.176   4.361   2.557
 9787TIP3   OH229317   4.410   1.849   6.294
 9787TIP3    H129318   4.448   1.928   6.255
 9787TIP3    H229319   4.420   1.861   6.388
 9788TIP3   OH229320   1.149   1.788   0.663
 9788TIP3    H129321   1.119   1.805   0.752
 9788TIP3    H229322   1.193   1.702   0.668
 9789TIP3   OH229323   2.551   1.848   2.892
 9789TIP3    H129324   2.571   1.768   2.844
 9789TIP3    H229325   2.501   1.901   2.830
 9790TIP3   OH229326   5.936   4.494   1.952
 9790TIP3    H129327   5.951   4.465   1.862
 9790TIP3    H229328   5.856   4.448   1.979
 9791TIP3   OH229329   0.845   6.055   3.734
 9791TIP3    H129330   0.847   6.008   3.650
 9791TIP3    H229331   0.839   6.147   3.709
 9792TIP3   OH229332   1.731   5.280   4.463
 9792TIP3    H129333   1.758   5.372   4.452
 9792TIP3    H229334   1.768   5.236   4.387
 9793TIP3   OH229335   0.962   3.111   1.619
 9793TIP3    H129336   0.992   3.119   1.529
 9793TIP3    H229337   0.921   3.024   1.623
 9794TIP3   OH229338   1.089   4.354   6.151
 9794TIP3    H129339   1.136   4.315   6.225
 9794TIP3    H229340   1.085   4.284   6.086
 9795TIP3   OH229341   2.216   3.285   4.845
 9795TIP3    H129342   2.243   3.238   4.767
 9795TIP3    H229343   2.294   3.288   4.900
 9796TIP3   OH229344   0.758   7.157   5.451
 9796TIP3    H129345   0.699   7.232   5.440
 9796TIP3    H229346   0.792   7.167   5.540
 9797TIP3   OH229347   3.203   0.415   5.725
 9797TIP3    H129348   3.179   0.499   5.685
 9797TIP3    H229349   3.294   0.401   5.699
 9798TIP3   OH229350   0.937   4.631   1.337
 9798TIP3    H129351   0.912   4.582   1.259
 9798TIP3    H229352   1.020   4.672   1.314
 9799TIP3   OH229353   4.396   2.267   4.767
 9799TIP3    H129354   4.413   2.361   4.768
 9799TIP3    H229355   4.450   2.231   4.837
 9800TIP3   OH229356   7.803   0.871   6.506
 9800TIP3    H129357   7.852   0.912   6.435
 9800TIP3    H229358   7.869   0.851   6.572
 9801TIP3   OH229359   7.889   5.567   2.719
 9801TIP3    H129360   7.914   5.617   2.641
 9801TIP3    H229361   7.852   5.486   2.684
 9802TIP3   OH229362   7.586   5.909   4.652
 9802TIP3    H129363   7.565   5.838   4.712
 9802TIP3    H229364   7.557   5.879   4.566
 9803TIP3   OH229365   0.208   0.247   1.768
 9803TIP3    H129366   0.159   0.322   1.734
 9803TIP3    H229367   0.248   0.207   1.691
 9804TIP3   OH229368   7.988   5.172   6.227
 9804TIP3    H129369   7.925   5.227   6.274
 9804TIP3    H229370   7.984   5.204   6.136
 9805TIP3   OH229371   4.817   4.235   0.992
 9805TIP3    H129372   4.904   4.196   0.999
 9805TIP3    H229373   4.766   4.191   1.060
 9806TIP3   OH229374   4.794   3.994   4.368
 9806TIP3    H129375   4.733   3.941   4.418
 9806TIP3    H229376   4.836   3.933   4.308
 9807TIP3   OH229377   0.477   7.764   3.933
 9807TIP3    H129378   0.496   7.722   3.849
 9807TIP3    H229379   0.398   7.815   3.917
 9808TIP3   OH229380   4.033   4.886   0.577
 9808TIP3    H129381   4.100   4.837   0.529
 9808TIP3    H229382   4.025   4.840   0.661
 9809TIP3   OH229383   2.271   7.506   1.374
 9809TIP3    H129384   2.327   7.505   1.296
 9809TIP3    H229385   2.258   7.599   1.393
 9810TIP3   OH229386   6.481   2.922   6.641
 9810TIP3    H129387   6.510   2.951   6.727
 9810TIP3    H229388   6.403   2.869   6.658
 9811TIP3   OH229389   0.934   4.320   0.499
 9811TIP3    H129390   0.863   4.379   0.522
 9811TIP3    H229391   1.013   4.363   0.532
 9812TIP3   OH229392   6.038   2.029   6.605
 9812TIP3    H129393   5.949   2.062   6.590
 9812TIP3    H229394   6.085   2.051   6.525
 9813TIP3   OH229395   0.880   0.960   5.548
 9813TIP3    H129396   0.910   1.047   5.576
 9813TIP3    H229397   0.894   0.960   5.453
 9814TIP3   OH229398   2.249   2.652   0.510
 9814TIP3    H129399   2.217   2.656   0.600
 9814TIP3    H229400   2.170   2.660   0.456
 9815TIP3   OH229401   2.558   6.991   2.126
 9815TIP3    H129402   2.635   7.012   2.179
 9815TIP3    H229403   2.504   6.936   2.184
 9816TIP3   OH229404   0.521   7.169   1.357
 9816TIP3    H129405   0.546   7.235   1.292
 9816TIP3    H229406   0.600   7.157   1.410
 9817TIP3   OH229407   6.874   0.605   3.278
 9817TIP3    H129408   6.943   0.642   3.223
 9817TIP3    H229409   6.855   0.673   3.343
 9818TIP3   OH229410   4.534   0.703   5.042
 9818TIP3    H129411   4.591   0.767   5.084
 9818TIP3    H229412   4.588   0.625   5.032
 9819TIP3   OH229413   4.652   3.295   5.308
 9819TIP3    H129414   4.738   3.289   5.266
 9819TIP3    H229415   4.589   3.297   5.236
 9820TIP3   OH229416   3.082   0.045   0.763
 9820TIP3    H129417   3.134   0.124   0.747
 9820TIP3    H229418   3.009   0.053   0.701
 9821TIP3   OH229419   3.468   3.891   0.891
 9821TIP3    H129420   3.512   3.975   0.899
 9821TIP3    H229421   3.487   3.862   0.802
 9822TIP3   OH229422   0.629   3.061   3.587
 9822TIP3    H129423   0.677   3.094   3.663
 9822TIP3    H229424   0.659   3.115   3.514
 9823TIP3   OH229425   3.461   7.669   2.370
 9823TIP3    H129426   3.389   7.722   2.403
 9823TIP3    H229427   3.506   7.637   2.448
 9824TIP3   OH229428   4.144   3.927   5.843
 9824TIP3    H129429   4.211   3.992   5.820
 9824TIP3    H229430   4.172   3.893   5.928
 9825TIP3   OH229431   2.035   7.745   4.315
 9825TIP3    H129432   1.951   7.790   4.318
 9825TIP3    H229433   2.039   7.706   4.228
 9826TIP3   OH229434   0.145   3.129   3.674
 9826TIP3    H129435   0.230   3.109   3.713
 9826TIP3    H229436   0.163   3.139   3.581
 9827TIP3   OH229437   1.822   2.620   5.586
 9827TIP3    H129438   1.849   2.528   5.587
 9827TIP3    H229439   1.899   2.667   5.553
 9828TIP3   OH229440   1.659   6.603   6.479
 9828TIP3    H129441   1.626   6.612   6.389
 9828TIP3    H229442   1.617   6.675   6.527
 9829TIP3   OH229443   1.499   3.382   2.375
 9829TIP3    H129444   1.420   3.399   2.324
 9829TIP3    H229445   1.565   3.441   2.338
 9830TIP3   OH229446   6.464   7.136   2.520
 9830TIP3    H129447   6.525   7.095   2.459
 9830TIP3    H229448   6.461   7.076   2.594
 9831TIP3   OH229449   1.322   0.805   0.187
 9831TIP3    H129450   1.311   0.867   0.259
 9831TIP3    H229451   1.240   0.808   0.139
 9832TIP3   OH229452   4.044   0.633   4.260
 9832TIP3    H129453   3.958   0.651   4.224
 9832TIP3    H229454   4.040   0.542   4.290
 9833TIP3   OH229455   5.610   3.455   5.455
 9833TIP3    H129456   5.665   3.423   5.526
 9833TIP3    H229457   5.639   3.545   5.440
 9834TIP3   OH229458   6.015   4.438   4.771
 9834TIP3    H129459   6.077   4.465   4.703
 9834TIP3    H229460   5.929   4.444   4.730
 9835TIP3   OH229461   7.438   3.089   1.319
 9835TIP3    H129462   7.517   3.042   1.294
 9835TIP3    H229463   7.372   3.021   1.329
 9836TIP3   OH229464   5.266   4.045   1.701
 9836TIP3    H129465   5.215   4.106   1.647
 9836TIP3    H229466   5.350   4.037   1.656
 9837TIP3   OH229467   6.719   2.213   5.994
 9837TIP3    H129468   6.744   2.121   5.984
 9837TIP3    H229469   6.631   2.209   6.033
 9838TIP3   OH229470   6.597   2.419   3.239
 9838TIP3    H129471   6.602   2.407   3.334
 9838TIP3    H229472   6.507   2.398   3.217
 9839TIP3   OH229473   5.858   1.660   0.429
 9839TIP3    H129474   5.792   1.614   0.480
 9839TIP3    H229475   5.875   1.740   0.479
 9840TIP3   OH229476   6.686   2.497   4.132
 9840TIP3    H129477   6.680   2.588   4.104
 9840TIP3    H229478   6.668   2.447   4.052
 9841TIP3   OH229479   2.322   5.609   4.212
 9841TIP3    H129480   2.324   5.534   4.271
 9841TIP3    H229481   2.286   5.680   4.264
 9842TIP3   OH229482   2.447   1.727   6.777
 9842TIP3    H129483   2.398   1.807   6.758
 9842TIP3    H229484   2.498   1.711   6.697
 9843TIP3   OH229485   3.504   4.516   1.676
 9843TIP3    H129486   3.595   4.523   1.705
 9843TIP3    H229487   3.499   4.433   1.629
 9844TIP3   OH229488   5.112   1.025   6.211
 9844TIP3    H129489   5.110   1.090   6.141
 9844TIP3    H229490   5.024   1.030   6.250
 9845TIP3   OH229491   1.670   1.510   2.940
 9845TIP3    H129492   1.614   1.530   2.865
 9845TIP3    H229493   1.633   1.560   3.013
 9846TIP3   OH229494   4.245   7.659   2.177
 9846TIP3    H129495   4.311   7.682   2.112
 9846TIP3    H229496   4.203   7.743   2.198
 9847TIP3   OH229497   0.767   3.873   6.615
 9847TIP3    H129498   0.805   3.846   6.699
 9847TIP3    H229499   0.780   3.797   6.558
 9848TIP3   OH229500   1.454   5.862   5.979
 9848TIP3    H129501   1.547   5.858   5.954
 9848TIP3    H229502   1.409   5.811   5.911
 9849TIP3   OH229503   7.933   6.378   2.923
 9849TIP3    H129504   7.914   6.471   2.919
 9849TIP3    H229505   7.848   6.336   2.938
 9850TIP3   OH229506   6.762   1.713   4.973
 9850TIP3    H129507   6.813   1.794   4.984
 9850TIP3    H229508   6.827   1.648   4.946
 9851TIP3   OH229509   0.646   2.309   3.592
 9851TIP3    H129510   0.564   2.358   3.598
 9851TIP3    H229511   0.632   2.232   3.647
 9852TIP3   OH229512   1.514   0.264   6.094
 9852TIP3    H129513   1.492   0.175   6.120
 9852TIP3    H229514   1.497   0.268   6.000
 9853TIP3   OH229515   2.835   5.842   1.885
 9853TIP3    H129516   2.918   5.829   1.839
 9853TIP3    H229517   2.771   5.794   1.832
 9854TIP3   OH229518   4.316   5.149   4.386
 9854TIP3    H129519   4.270   5.098   4.320
 9854TIP3    H229520   4.406   5.118   4.382
 9855TIP3   OH229521   2.072   0.872   5.374
 9855TIP3    H129522   2.067   0.794   5.429
 9855TIP3    H229523   1.999   0.862   5.313
 9856TIP3   OH229524   3.717   2.400   1.725
 9856TIP3    H129525   3.651   2.393   1.794
 9856TIP3    H229526   3.767   2.478   1.746
 9857TIP3   OH229527   4.884   1.773   0.036
 9857TIP3    H129528   4.897   1.731   0.121
 9857TIP3    H229529   4.830   1.849   0.055
 9858TIP3   OH229530   3.820   5.969   3.726
 9858TIP3    H129531   3.881   5.897   3.737
 9858TIP3    H229532   3.869   6.037   3.679
 9859TIP3   OH229533   0.751   7.482   2.030
 9859TIP3    H129534   0.753   7.572   1.995
 9859TIP3    H229535   0.833   7.474   2.078
 9860TIP3   OH229536   5.836   0.433   0.960
 9860TIP3    H129537   5.828   0.350   0.912
 9860TIP3    H229538   5.929   0.439   0.982
 9861TIP3   OH229539   2.336   0.518  -0.034
 9861TIP3    H129540   2.405   0.453  -0.021
 9861TIP3    H229541   2.306   0.539   0.055
 9862TIP3   OH229542   3.417   2.552   6.427
 9862TIP3    H129543   3.391   2.528   6.338
 9862TIP3    H229544   3.409   2.470   6.477
 9863TIP3   OH229545   1.685   7.099   1.066
 9863TIP3    H129546   1.622   7.053   1.122
 9863TIP3    H229547   1.770   7.066   1.094
 9864TIP3   OH229548   1.707   5.499   3.958
 9864TIP3    H129549   1.764   5.561   4.002
 9864TIP3    H229550   1.662   5.452   4.029
 9865TIP3   OH229551   5.594   2.578   6.632
 9865TIP3    H129552   5.511   2.556   6.673
 9865TIP3    H229553   5.661   2.540   6.689
 9866TIP3   OH229554   8.076   7.097   2.176
 9866TIP3    H129555   8.125   7.171   2.141
 9866TIP3    H229556   8.016   7.073   2.105
 9867TIP3   OH229557   7.680   7.790   5.932
 9867TIP3    H129558   7.712   7.872   5.970
 9867TIP3    H229559   7.756   7.733   5.931
 9868TIP3   OH229560   4.642   4.619   0.861
 9868TIP3    H129561   4.726   4.580   0.884
 9868TIP3    H229562   4.579   4.547   0.866
 9869TIP3   OH229563   3.474   0.718   4.448
 9869TIP3    H129564   3.450   0.730   4.356
 9869TIP3    H229565   3.456   0.803   4.488
 9870TIP3   OH229566   1.675   2.171   0.656
 9870TIP3    H129567   1.614   2.241   0.680
 9870TIP3    H229568   1.626   2.116   0.595
 9871TIP3   OH229569   0.993   3.030   1.981
 9871TIP3    H129570   0.899   3.028   1.964
 9871TIP3    H229571   1.032   2.989   1.904
 9872TIP3   OH229572   4.671   4.555   3.515
 9872TIP3    H129573   4.614   4.578   3.442
 9872TIP3    H229574   4.685   4.461   3.506
 9873TIP3   OH229575   4.291   2.993   1.133
 9873TIP3    H129576   4.343   3.047   1.073
 9873TIP3    H229577   4.224   2.953   1.078
 9874TIP3   OH229578   7.490   0.183   0.152
 9874TIP3    H129579   7.459   0.167   0.241
 9874TIP3    H229580   7.546   0.107   0.132
 9875TIP3   OH229581   2.021   3.196   3.304
 9875TIP3    H129582   1.946   3.246   3.273
 9875TIP3    H229583   2.063   3.253   3.368
 9876TIP3   OH229584   0.468   4.159   2.270
 9876TIP3    H129585   0.379   4.192   2.254
 9876TIP3    H229586   0.455   4.078   2.318
 9877TIP3   OH229587   3.688   0.239   5.212
 9877TIP3    H129588   3.746   0.274   5.279
 9877TIP3    H229589   3.664   0.315   5.159
 9878TIP3   OH229590   7.535   7.013   5.159
 9878TIP3    H129591   7.448   6.994   5.193
 9878TIP3    H229592   7.562   7.092   5.207
 9879TIP3   OH229593   5.095   4.961   5.945
 9879TIP3    H129594   5.017   5.009   5.917
 9879TIP3    H229595   5.096   4.970   6.041
 9880TIP3   OH229596   5.391   5.551   5.544
 9880TIP3    H129597   5.335   5.533   5.469
 9880TIP3    H229598   5.435   5.468   5.561
 9881TIP3   OH229599   1.575   5.320   2.843
 9881TIP3    H129600   1.498   5.272   2.873
 9881TIP3    H229601   1.621   5.259   2.786
 9882TIP3   OH229602   0.700   7.267   6.740
 9882TIP3    H129603   0.740   7.310   6.816
 9882TIP3    H229604   0.765   7.204   6.711
 9883TIP3   OH229605   6.510   2.439   2.004
 9883TIP3    H129606   6.598   2.472   1.986
 9883TIP3    H229607   6.452   2.492   1.949
 9884TIP3   OH229608   6.715   6.119   5.940
 9884TIP3    H129609   6.684   6.055   6.005
 9884TIP3    H229610   6.785   6.073   5.894
 9885TIP3   OH229611   8.166   7.308   5.785
 9885TIP3    H129612   8.203   7.324   5.698
 9885TIP3    H229613   8.211   7.371   5.842
 9886TIP3   OH229614   1.761   4.889   3.427
 9886TIP3    H129615   1.690   4.826   3.421
 9886TIP3    H229616   1.728   4.968   3.384
 9887TIP3   OH229617   7.836   7.611   2.696
 9887TIP3    H129618   7.857   7.599   2.603
 9887TIP3    H229619   7.775   7.540   2.716
 9888TIP3   OH229620   0.522   0.599   3.717
 9888TIP3    H129621   0.490   0.612   3.807
 9888TIP3    H229622   0.595   0.537   3.726
 9889TIP3   OH229623   0.895   0.028   6.010
 9889TIP3    H129624   0.967   0.062   6.063
 9889TIP3    H229625   0.833  -0.007   6.074
 9890TIP3   OH229626   3.696   1.987   5.580
 9890TIP3    H129627   3.759   2.010   5.512
 9890TIP3    H229628   3.622   2.046   5.566
 9891TIP3   OH229629   5.781   4.676   1.454
 9891TIP3    H129630   5.804   4.742   1.389
 9891TIP3    H229631   5.770   4.595   1.403
 9892TIP3   OH229632   6.932   0.803   4.275
 9892TIP3    H129633   6.980   0.886   4.279
 9892TIP3    H229634   6.971   0.750   4.344
 9893TIP3   OH229635   7.844   0.428   6.302
 9893TIP3    H129636   7.910   0.498   6.304
 9893TIP3    H229637   7.894   0.347   6.312
 9894TIP3   OH229638   6.560   4.302   3.243
 9894TIP3    H129639   6.574   4.237   3.174
 9894TIP3    H229640   6.604   4.266   3.320
 9895TIP3   OH229641   5.768   2.763   5.901
 9895TIP3    H129642   5.863   2.771   5.899
 9895TIP3    H229643   5.748   2.726   5.987
 9896TIP3   OH229644   7.902   6.072   6.117
 9896TIP3    H129645   7.963   6.054   6.045
 9896TIP3    H229646   7.913   6.166   6.134
 9897TIP3   OH229647   4.425   5.231   3.171
 9897TIP3    H129648   4.481   5.180   3.113
 9897TIP3    H229649   4.483   5.297   3.209
 9898TIP3   OH229650   7.543   5.337   5.602
 9898TIP3    H129651   7.498   5.274   5.659
 9898TIP3    H229652   7.592   5.393   5.662
 9899TIP3   OH229653   0.640   2.280   1.627
 9899TIP3    H129654   0.559   2.233   1.608
 9899TIP3    H229655   0.620   2.332   1.705
 9900TIP3   OH229656   1.139   6.085   3.176
 9900TIP3    H129657   1.069   6.122   3.229
 9900TIP3    H229658   1.219   6.105   3.224
 9901TIP3   OH229659   3.618   5.642   3.375
 9901TIP3    H129660   3.628   5.708   3.444
 9901TIP3    H229661   3.549   5.585   3.406
 9902TIP3   OH229662   2.979   2.573   0.298
 9902TIP3    H129663   3.057   2.526   0.329
 9902TIP3    H229664   2.931   2.509   0.246
 9903TIP3   OH229665   8.093   2.746   3.247
 9903TIP3    H129666   8.123   2.794   3.169
 9903TIP3    H229667   8.005   2.780   3.263
 9904TIP3   OH229668   1.265   4.975   3.899
 9904TIP3    H129669   1.275   4.994   3.806
 9904TIP3    H229670   1.217   4.892   3.901
 9905TIP3   OH229671   4.849   5.629   5.630
 9905TIP3    H129672   4.768   5.620   5.581
 9905TIP3    H229673   4.862   5.543   5.670
 9906TIP3   OH229674   5.112   1.044   5.307
 9906TIP3    H129675   5.025   1.082   5.318
 9906TIP3    H229676   5.156   1.062   5.390
 9907TIP3   OH229677   2.440   1.150   2.548
 9907TIP3    H129678   2.448   1.245   2.555
 9907TIP3    H229679   2.485   1.116   2.625
 9908TIP3   OH229680   0.994   0.996   1.043
 9908TIP3    H129681   0.989   1.091   1.043
 9908TIP3    H229682   0.913   0.967   1.000
 9909TIP3   OH229683   1.110   7.320   0.354
 9909TIP3    H129684   1.069   7.335   0.439
 9909TIP3    H229685   1.048   7.263   0.308
 9910TIP3   OH229686   6.055   3.861   2.391
 9910TIP3    H129687   6.000   3.913   2.333
 9910TIP3    H229688   6.068   3.917   2.468
 9911TIP3   OH229689   2.878   1.540   0.744
 9911TIP3    H129690   2.856   1.582   0.827
 9911TIP3    H229691   2.795   1.502   0.714
 9912TIP3   OH229692   7.473   7.481   0.891
 9912TIP3    H129693   7.395   7.508   0.843
 9912TIP3    H229694   7.513   7.413   0.837
 9913TIP3   OH229695   3.866   3.749   6.580
 9913TIP3    H129696   3.879   3.753   6.485
 9913TIP3    H229697   3.913   3.826   6.613
 9914TIP3   OH229698   2.296   2.909   3.972
 9914TIP3    H129699   2.314   2.896   3.879
 9914TIP3    H229700   2.293   2.820   4.008
 9915TIP3   OH229701   7.106   0.935   4.950
 9915TIP3    H129702   7.093   0.851   4.995
 9915TIP3    H229703   7.198   0.956   4.965
 9916TIP3   OH229704   6.540   4.485   5.762
 9916TIP3    H129705   6.535   4.581   5.760
 9916TIP3    H229706   6.521   4.459   5.672
 9917TIP3   OH229707   0.680   5.528   2.518
 9917TIP3    H129708   0.703   5.550   2.427
 9917TIP3    H229709   0.712   5.602   2.569
 9918TIP3   OH229710   1.056   3.797   1.015
 9918TIP3    H129711   1.130   3.743   0.986
 9918TIP3    H229712   1.093   3.851   1.085
 9919TIP3   OH229713   5.619   1.898   6.037
 9919TIP3    H129714   5.529   1.875   6.012
 9919TIP3    H229715   5.644   1.831   6.100
 9920TIP3   OH229716   4.749   6.868   1.857
 9920TIP3    H129717   4.823   6.820   1.894
 9920TIP3    H229718   4.685   6.874   1.928
 9921TIP3   OH229719   2.305   0.423   2.252
 9921TIP3    H129720   2.287   0.517   2.249
 9921TIP3    H229721   2.234   0.383   2.203
 9922TIP3   OH229722   0.776   1.658   1.479
 9922TIP3    H129723   0.869   1.650   1.459
 9922TIP3    H229724   0.762   1.751   1.495
 9923TIP3   OH229725   2.763   7.298   3.434
 9923TIP3    H129726   2.807   7.213   3.421
 9923TIP3    H229727   2.708   7.309   3.356
 9924TIP3   OH229728   1.858   3.795   5.546
 9924TIP3    H129729   1.866   3.734   5.619
 9924TIP3    H229730   1.825   3.876   5.586
 9925TIP3   OH229731   5.130   3.271   0.952
 9925TIP3    H129732   5.110   3.188   0.909
 9925TIP3    H229733   5.124   3.337   0.883
 9926TIP3   OH229734   8.134   4.641   5.233
 9926TIP3    H129735   8.076   4.664   5.161
 9926TIP3    H229736   8.104   4.555   5.262
 9927TIP3   OH229737   0.930   4.572   6.139
 9927TIP3    H129738   0.996   4.532   6.196
 9927TIP3    H229739   0.918   4.660   6.176
 9928TIP3   OH229740   2.975   1.168   5.653
 9928TIP3    H129741   2.971   1.246   5.707
 9928TIP3    H229742   2.885   1.154   5.623
 9929TIP3   OH229743   2.047   4.886   1.026
 9929TIP3    H129744   2.067   4.885   0.933
 9929TIP3    H229745   2.074   4.799   1.057
 9930TIP3   OH229746   4.300   3.744   0.692
 9930TIP3    H129747   4.248   3.819   0.663
 9930TIP3    H229748   4.258   3.669   0.651
 9931TIP3   OH229749   2.873   2.107   3.530
 9931TIP3    H129750   2.844   2.032   3.477
 9931TIP3    H229751   2.960   2.084   3.560
 9932TIP3   OH229752   3.876   2.191   3.539
 9932TIP3    H129753   3.943   2.126   3.518
 9932TIP3    H229754   3.879   2.252   3.465
 9933TIP3   OH229755   5.671   6.350   2.547
 9933TIP3    H129756   5.686   6.387   2.460
 9933TIP3    H229757   5.724   6.271   2.550
 9934TIP3   OH229758   3.096   0.521   2.482
 9934TIP3    H129759   3.057   0.582   2.419
 9934TIP3    H229760   3.086   0.565   2.567
 9935TIP3   OH229761   2.439   4.683   2.568
 9935TIP3    H129762   2.513   4.632   2.535
 9935TIP3    H229763   2.363   4.648   2.521
 9936TIP3   OH229764   0.385   6.585   6.686
 9936TIP3    H129765   0.420   6.579   6.775
 9936TIP3    H229766   0.434   6.656   6.645
 9937TIP3   OH229767   0.404   5.301   5.213
 9937TIP3    H129768   0.360   5.342   5.288
 9937TIP3    H229769   0.370   5.347   5.137
 9938TIP3   OH229770   0.630   2.083   4.755
 9938TIP3    H129771   0.725   2.089   4.763
 9938TIP3    H229772   0.597   2.163   4.796
 9939TIP3   OH229773   5.585   1.507   2.229
 9939TIP3    H129774   5.521   1.449   2.271
 9939TIP3    H229775   5.537   1.588   2.212
 9940TIP3   OH229776   3.745   1.713   2.204
 9940TIP3    H129777   3.745   1.719   2.109
 9940TIP3    H229778   3.732   1.620   2.222
 9941TIP3   OH229779   2.965   2.815   2.166
 9941TIP3    H129780   3.015   2.733   2.176
 9941TIP3    H229781   2.900   2.796   2.098
 9942TIP3   OH229782   4.505   0.952   6.365
 9942TIP3    H129783   4.481   1.040   6.393
 9942TIP3    H229784   4.462   0.942   6.280
 9943TIP3   OH229785   5.042   2.139   5.668
 9943TIP3    H129786   5.013   2.085   5.741
 9943TIP3    H229787   5.134   2.157   5.686
 9944TIP3   OH229788   4.650   0.885   5.220
 9944TIP3    H129789   4.608   0.902   5.305
 9944TIP3    H229790   4.701   0.805   5.234
 9945TIP3   OH229791   1.736   1.763   4.149
 9945TIP3    H129792   1.766   1.791   4.062
 9945TIP3    H229793   1.648   1.729   4.133
 9946TIP3   OH229794   3.500   1.421   3.802
 9946TIP3    H129795   3.541   1.418   3.888
 9946TIP3    H229796   3.408   1.443   3.820
 9947TIP3   OH229797   3.562   0.558   0.200
 9947TIP3    H129798   3.486   0.608   0.230
 9947TIP3    H229799   3.545   0.468   0.230
 9948TIP3   OH229800   1.800   0.225   1.344
 9948TIP3    H129801   1.754   0.195   1.422
 9948TIP3    H229802   1.768   0.168   1.274
 9949TIP3   OH229803   1.516   1.713   3.799
 9949TIP3    H129804   1.583   1.651   3.827
 9949TIP3    H229805   1.433   1.667   3.811
 9950TIP3   OH229806   7.323   1.922   5.343
 9950TIP3    H129807   7.279   2.000   5.378
 9950TIP3    H229808   7.261   1.887   5.279
 9951TIP3   OH229809   1.034   6.057   1.618
 9951TIP3    H129810   0.948   6.013   1.620
 9951TIP3    H229811   1.059   6.056   1.525
 9952TIP3   OH229812   2.870   0.232   4.884
 9952TIP3    H129813   2.827   0.155   4.847
 9952TIP3    H229814   2.930   0.196   4.950
 9953TIP3   OH229815   2.207   3.651   3.124
 9953TIP3    H129816   2.166   3.570   3.094
 9953TIP3    H229817   2.238   3.693   3.044
 9954TIP3   OH229818   5.404   6.601   5.872
 9954TIP3    H129819   5.372   6.562   5.954
 9954TIP3    H229820   5.418   6.693   5.893
 9955TIP3   OH229821   7.122   3.744   1.262
 9955TIP3    H129822   7.061   3.682   1.221
 9955TIP3    H229823   7.170   3.690   1.325
 9956TIP3   OH229824   1.772   4.376   5.843
 9956TIP3    H129825   1.717   4.434   5.896
 9956TIP3    H229826   1.855   4.372   5.889
 9957TIP3   OH229827   8.160   2.542   1.117
 9957TIP3    H129828   8.121   2.612   1.064
 9957TIP3    H229829   8.156   2.465   1.061
 9958TIP3   OH229830   4.584   5.793   4.098
 9958TIP3    H129831   4.545   5.833   4.175
 9958TIP3    H229832   4.525   5.721   4.076
 9959TIP3   OH229833   2.090   1.121   4.683
 9959TIP3    H129834   2.016   1.087   4.633
 9959TIP3    H229835   2.080   1.083   4.770
 9960TIP3   OH229836   7.313   1.605   5.064
 9960TIP3    H129837   7.357   1.619   5.148
 9960TIP3    H229838   7.262   1.685   5.050
 9961TIP3   OH229839   2.719   0.239   5.155
 9961TIP3    H129840   2.732   0.238   5.060
 9961TIP3    H229841   2.682   0.154   5.175
 9962TIP3   OH229842   3.796   7.499   0.426
 9962TIP3    H129843   3.860   7.570   0.422
 9962TIP3    H229844   3.790   7.477   0.519
 9963TIP3   OH229845   4.886   6.755   4.138
 9963TIP3    H129846   4.826   6.825   4.112
 9963TIP3    H229847   4.837   6.704   4.202
 9964TIP3   OH229848   2.133   0.664   5.588
 9964TIP3    H129849   2.150   0.583   5.539
 9964TIP3    H229850   2.164   0.645   5.676
 9965TIP3   OH229851   4.920   5.895   5.808
 9965TIP3    H129852   4.888   5.823   5.752
 9965TIP3    H229853   4.840   5.932   5.846
 9966TIP3   OH229854   5.512   5.069   0.400
 9966TIP3    H129855   5.513   5.005   0.472
 9966TIP3    H229856   5.420   5.094   0.391
 9967TIP3   OH229857   4.851   7.556   5.319
 9967TIP3    H129858   4.907   7.485   5.350
 9967TIP3    H229859   4.910   7.614   5.270
 9968TIP3   OH229860   2.719   1.031   4.451
 9968TIP3    H129861   2.774   0.966   4.407
 9968TIP3    H229862   2.767   1.053   4.531
 9969TIP3   OH229863   4.141   2.754   1.574
 9969TIP3    H129864   4.189   2.818   1.520
 9969TIP3    H229865   4.113   2.804   1.651
 9970TIP3   OH229866   3.601   5.045   6.558
 9970TIP3    H129867   3.532   4.985   6.530
 9970TIP3    H229868   3.612   5.027   6.652
 9971TIP3   OH229869   6.658   6.777   6.298
 9971TIP3    H129870   6.734   6.759   6.243
 9971TIP3    H229871   6.671   6.723   6.376
 9972TIP3   OH229872   1.170   6.386   5.897
 9972TIP3    H129873   1.105   6.386   5.968
 9972TIP3    H229874   1.128   6.336   5.826
 9973TIP3   OH229875   1.711   4.215   1.431
 9973TIP3    H129876   1.653   4.141   1.412
 9973TIP3    H229877   1.750   4.238   1.347
 9974TIP3   OH229878   6.612   1.900   5.138
 9974TIP3    H129879   6.670   1.832   5.171
 9974TIP3    H229880   6.652   1.982   5.167
 9975TIP3   OH229881   3.324   3.294   1.774
 9975TIP3    H129882   3.356   3.307   1.864
 9975TIP3    H229883   3.399   3.259   1.727
 9976TIP3   OH229884   3.411   5.040   0.973
 9976TIP3    H129885   3.410   5.012   0.882
 9976TIP3    H229886   3.385   5.132   0.971
 9977TIP3   OH229887   2.793   2.508   0.863
 9977TIP3    H129888   2.836   2.573   0.806
 9977TIP3    H229889   2.823   2.529   0.951
 9978TIP3   OH229890   0.189   5.607   5.817
 9978TIP3    H129891   0.233   5.618   5.902
 9978TIP3    H229892   0.184   5.696   5.782
 9979TIP3   OH229893   1.208   3.547   3.538
 9979TIP3    H129894   1.269   3.583   3.474
 9979TIP3    H229895   1.261   3.533   3.617
 9980TIP3   OH229896   0.493   1.094   0.351
 9980TIP3    H129897   0.529   1.149   0.421
 9980TIP3    H229898   0.466   1.156   0.283
 9981TIP3   OH229899   4.119   1.333   5.896
 9981TIP3    H129900   4.066   1.413   5.895
 9981TIP3    H229901   4.209   1.364   5.888
 9982TIP3   OH229902   6.194   7.065   4.107
 9982TIP3    H129903   6.118   7.040   4.160
 9982TIP3    H229904   6.163   7.142   4.058
 9983TIP3   OH229905   3.132   3.552   5.069
 9983TIP3    H129906   3.187   3.539   4.991
 9983TIP3    H229907   3.067   3.482   5.064
 9984TIP3   OH229908   7.162   4.804   4.907
 9984TIP3    H129909   7.165   4.806   4.811
 9984TIP3    H229910   7.079   4.848   4.929
 9985TIP3   OH229911   8.203   5.707   2.513
 9985TIP3    H129912   8.231   5.640   2.450
 9985TIP3    H229913   8.109   5.715   2.498
 9986TIP3   OH229914   8.213   6.875   2.501
 9986TIP3    H129915   8.255   6.850   2.419
 9986TIP3    H229916   8.162   6.954   2.479
 9987TIP3   OH229917   1.416   6.049   6.666
 9987TIP3    H129918   1.419   6.016   6.577
 9987TIP3    H229919   1.339   6.106   6.668
 9988TIP3   OH229920   8.106   0.932   3.366
 9988TIP3    H129921   8.080   0.991   3.437
 9988TIP3    H229922   8.046   0.952   3.294
 9989TIP3   OH229923   0.853   5.635   5.782
 9989TIP3    H129924   0.821   5.666   5.697
 9989TIP3    H229925   0.863   5.715   5.834
 9990TIP3   OH229926   2.004   4.404   2.381
 9990TIP3    H129927   2.000   4.408   2.477
 9990TIP3    H229928   2.097   4.389   2.362
 9991TIP3   OH229929   1.376   7.240   4.512
 9991TIP3    H129930   1.351   7.284   4.431
 9991TIP3    H229931   1.314   7.271   4.577
 9992TIP3   OH229932   3.571   4.149   0.895
 9992TIP3    H129933   3.533   4.212   0.956
 9992TIP3    H229934   3.658   4.184   0.876
 9993TIP3   OH229935   8.150   3.915   5.235
 9993TIP3    H129936   8.145   3.856   5.161
 9993TIP3    H229937   8.195   3.993   5.201
 9994TIP3   OH229938   7.072   1.687   0.963
 9994TIP3    H129939   7.000   1.740   0.930
 9994TIP3    H229940   7.140   1.692   0.896
 9995TIP3   OH229941   0.212   3.141   1.599
 9995TIP3    H129942   0.149   3.133   1.671
 9995TIP3    H229943   0.274   3.069   1.613
 9996TIP3   OH229944   8.032   2.257   5.309
 9996TIP3    H129945   7.963   2.240   5.244
 9996TIP3    H229946   8.016   2.347   5.338
 9997TIP3   OH229947   5.727   7.559   1.746
 9997TIP3    H129948   5.759   7.513   1.824
 9997TIP3    H229949   5.804   7.568   1.690
 9998TIP3   OH229950   2.726   7.313   2.292
 9998TIP3    H129951   2.819   7.320   2.273
 9998TIP3    H229952   2.687   7.391   2.251
 9999TIP3   OH229953   7.014   4.653   4.381
 9999TIP3    H129954   6.992   4.723   4.319
 9999TIP3    H229955   7.021   4.696   4.466
10000TIP3   OH229956   2.912   3.212   2.089
10000TIP3    H129957   2.900   3.153   2.015
10000TIP3    H229958   2.964   3.162   2.151
10001TIP3   OH229959   1.683   5.956   2.228
10001TIP3    H129960   1.638   5.906   2.295
10001TIP3    H229961   1.620   6.023   2.201
10002TIP3   OH229962   3.365   4.357   5.177
10002TIP3    H129963   3.386   4.264   5.164
10002TIP3    H229964   3.372   4.396   5.090
10003TIP3   OH229965   1.241   7.016   2.097
10003TIP3    H129966   1.178   6.984   2.032
10003TIP3    H229967   1.205   6.987   2.181
10004TIP3   OH229968   4.795   5.641   4.050
10004TIP3    H129969   4.738   5.708   4.089
10004TIP3    H229970   4.795   5.661   3.956
10005TIP3   OH229971   4.861   3.479   4.702
10005TIP3    H129972   4.878   3.572   4.683
10005TIP3    H229973   4.766   3.471   4.698
10006TIP3   OH229974   4.987   0.431   0.969
10006TIP3    H129975   5.004   0.523   0.992
10006TIP3    H229976   4.916   0.404   1.027
10007TIP3   OH229977   4.128   1.251   6.176
10007TIP3    H129978   4.124   1.268   6.081
10007TIP3    H229979   4.159   1.161   6.182
10008TIP3   OH229980   8.264   5.189   1.558
10008TIP3    H129981   8.207   5.113   1.567
10008TIP3    H229982   8.207   5.264   1.574
10009TIP3   OH229983   4.370   2.150   0.789
10009TIP3    H129984   4.320   2.112   0.717
10009TIP3    H229985   4.461   2.147   0.760
10010TIP3   OH229986   1.109   0.575   3.234
10010TIP3    H129987   1.042   0.562   3.166
10010TIP3    H229988   1.072   0.532   3.311
10011TIP3   OH229989   0.918   7.030   6.694
10011TIP3    H129990   0.971   7.003   6.619
10011TIP3    H229991   0.981   7.046   6.764
10012TIP3   OH229992   4.052   3.818   5.253
10012TIP3    H129993   4.104   3.886   5.295
10012TIP3    H229994   3.979   3.803   5.312
10013TIP3   OH229995   2.498   0.768   2.216
10013TIP3    H129996   2.543   0.686   2.196
10013TIP3    H229997   2.405   0.748   2.201
10014TIP3   OH229998   5.834   2.590   6.133
10014TIP3    H129999   5.829   2.500   6.165
10014TIP3    H230000   5.924   2.599   6.102
10015TIP3   OH230001   8.024   5.898   4.213
10015TIP3    H130002   7.946   5.874   4.263
10015TIP3    H230003   8.091   5.836   4.242
10016TIP3   OH230004   1.938   6.874   5.895
10016TIP3    H130005   1.869   6.814   5.867
10016TIP3    H230006   1.951   6.931   5.819
10017TIP3   OH230007   2.598   5.417   4.734
10017TIP3    H130008   2.625   5.377   4.817
10017TIP3    H230009   2.522   5.470   4.757
10018TIP3   OH230010   2.966   4.403   2.663
10018TIP3    H130011   2.963   4.330   2.601
10018TIP3    H230012   2.972   4.481   2.608
10019TIP3   OH230013   1.162   2.234   5.534
10019TIP3    H130014   1.100   2.162   5.521
10019TIP3    H230015   1.184   2.230   5.627
10020TIP3   OH230016   3.724   2.989   6.218
10020TIP3    H130017   3.783   2.922   6.183
10020TIP3    H230018   3.728   3.060   6.154
10021TIP3   OH230019   0.614   6.283   4.142
10021TIP3    H130020   0.595   6.196   4.178
10021TIP3    H230021   0.627   6.339   4.219
10022TIP3   OH230022   6.448   2.848   4.193
10022TIP3    H130023   6.422   2.904   4.266
10022TIP3    H230024   6.403   2.884   4.117
10023TIP3   OH230025   3.417   0.976   2.330
10023TIP3    H130026   3.425   0.902   2.390
10023TIP3    H230027   3.489   1.035   2.354
10024TIP3   OH230028   4.124   0.966   5.765
10024TIP3    H130029   4.130   0.885   5.815
10024TIP3    H230030   4.213   1.002   5.768
10025TIP3   OH230031   0.440   0.144   2.699
10025TIP3    H130032   0.395   0.064   2.672
10025TIP3    H230033   0.386   0.215   2.665
10026TIP3   OH230034   0.872   2.149   6.474
10026TIP3    H130035   0.962   2.118   6.465
10026TIP3    H230036   0.851   2.187   6.388
10027TIP3   OH230037   5.745   0.590   1.499
10027TIP3    H130038   5.711   0.665   1.452
10027TIP3    H230039   5.708   0.514   1.454
10028TIP3   OH230040   7.450   0.952   1.932
10028TIP3    H130041   7.513   0.881   1.948
10028TIP3    H230042   7.373   0.927   1.983
10029TIP3   OH230043   6.282   7.242   1.043
10029TIP3    H130044   6.323   7.323   1.076
10029TIP3    H230045   6.352   7.197   0.997
10030TIP3   OH230046   2.831   5.873   0.405
10030TIP3    H130047   2.795   5.936   0.342
10030TIP3    H230048   2.763   5.806   0.413
10031TIP3   OH230049   3.804   0.353   0.812
10031TIP3    H130050   3.875   0.289   0.798
10031TIP3    H230051   3.757   0.319   0.888
10032TIP3   OH230052   5.570   2.946   5.881
10032TIP3    H130053   5.638   2.879   5.874
10032TIP3    H230054   5.494   2.909   5.836
10033TIP3   OH230055   1.059   0.421   4.878
10033TIP3    H130056   1.046   0.503   4.926
10033TIP3    H230057   0.982   0.413   4.822
10034TIP3   OH230058   0.492   5.155   5.649
10034TIP3    H130059   0.447   5.232   5.682
10034TIP3    H230060   0.516   5.178   5.559
10035TIP3   OH230061   1.737   3.164   4.270
10035TIP3    H130062   1.820   3.137   4.230
10035TIP3    H230063   1.740   3.260   4.268
10036TIP3   OH230064   3.754   0.111   4.471
10036TIP3    H130065   3.726   0.100   4.380
10036TIP3    H230066   3.750   0.023   4.508
10037TIP3   OH230067   0.834   0.076   2.730
10037TIP3    H130068   0.768   0.046   2.792
10037TIP3    H230069   0.798   0.157   2.694
10038TIP3   OH230070   3.223   3.321   6.636
10038TIP3    H130071   3.189   3.237   6.666
10038TIP3    H230072   3.178   3.336   6.552
10039TIP3   OH230073   6.316   1.867   4.222
10039TIP3    H130074   6.247   1.816   4.264
10039TIP3    H230075   6.396   1.840   4.267
10040TIP3   OH230076   6.294   3.580   2.389
10040TIP3    H130077   6.252   3.623   2.464
10040TIP3    H230078   6.221   3.542   2.340
10041TIP3   OH230079   5.015   2.357   4.894
10041TIP3    H130080   5.019   2.304   4.814
10041TIP3    H230081   4.976   2.300   4.959
10042TIP3   OH230082   6.734   0.512   3.009
10042TIP3    H130083   6.700   0.601   3.022
10042TIP3    H230084   6.814   0.509   3.062
10043TIP3   OH230085   0.485   3.961   0.118
10043TIP3    H130086   0.539   4.011   0.056
10043TIP3    H230087   0.527   3.973   0.202
10044TIP3   OH230088   6.212   2.042   4.553
10044TIP3    H130089   6.157   1.967   4.573
10044TIP3    H230090   6.173   2.081   4.475
10045TIP3   OH230091   4.570   4.912   5.387
10045TIP3    H130092   4.527   4.850   5.327
10045TIP3    H230093   4.527   4.996   5.370
10046TIP3   OH230094   5.452   7.524   2.503
10046TIP3    H130095   5.490   7.598   2.456
10046TIP3    H230096   5.489   7.530   2.591
10047TIP3   OH230097   2.325   1.073   0.866
10047TIP3    H130098   2.230   1.085   0.865
10047TIP3    H230099   2.339   0.999   0.926
10048TIP3   OH230100   3.395   2.327   3.801
10048TIP3    H130101   3.333   2.276   3.749
10048TIP3    H230102   3.481   2.289   3.779
10049TIP3   OH230103   1.140   7.055   3.595
10049TIP3    H130104   1.125   7.045   3.501
10049TIP3    H230105   1.110   6.972   3.632
10050TIP3   OH230106   4.549   4.201   2.222
10050TIP3    H130107   4.525   4.109   2.208
10050TIP3    H230108   4.640   4.206   2.191
10051TIP3   OH230109   6.230   5.791   6.306
10051TIP3    H130110   6.262   5.797   6.396
10051TIP3    H230111   6.273   5.863   6.261
10052TIP3   OH230112   4.676   0.641   1.466
10052TIP3    H130113   4.740   0.631   1.536
10052TIP3    H230114   4.711   0.714   1.413
10053TIP3   OH230115   2.126   2.299   0.314
10053TIP3    H130116   2.084   2.238   0.254
10053TIP3    H230117   2.065   2.308   0.387
10054TIP3   OH230118   5.658   5.856   4.647
10054TIP3    H130119   5.565   5.866   4.628
10054TIP3    H230120   5.673   5.917   4.720
10055TIP3   OH230121   1.371   1.765   1.505
10055TIP3    H130122   1.395   1.851   1.470
10055TIP3    H230123   1.455   1.723   1.525
10056TIP3   OH230124   0.272   0.057   1.577
10056TIP3    H130125   0.262  -0.002   1.501
10056TIP3    H230126   0.355   0.031   1.616
10057TIP3   OH230127   7.720   6.837   5.280
10057TIP3    H130128   7.784   6.906   5.260
10057TIP3    H230129   7.636   6.873   5.253
10058TIP3   OH230130   8.123   3.440   5.612
10058TIP3    H130131   8.072   3.476   5.685
10058TIP3    H230132   8.078   3.473   5.534
10059TIP3   OH230133   6.758   0.097   0.996
10059TIP3    H130134   6.770   0.095   0.901
10059TIP3    H230135   6.764   0.190   1.019
10060TIP3   OH230136   3.063   0.380   6.725
10060TIP3    H130137   3.071   0.442   6.653
10060TIP3    H230138   3.153   0.358   6.748
10061TIP3   OH230139   7.367   3.488   4.839
10061TIP3    H130140   7.430   3.518   4.904
10061TIP3    H230141   7.301   3.439   4.889
10062TIP3   OH230142   1.320   4.727   1.533
10062TIP3    H130143   1.242   4.690   1.575
10062TIP3    H230144   1.383   4.737   1.605
10063TIP3   OH230145   5.482   6.221   5.809
10063TIP3    H130146   5.449   6.163   5.878
10063TIP3    H230147   5.412   6.224   5.744
10064TIP3   OH230148   2.024   2.106   0.124
10064TIP3    H130149   2.037   2.015   0.098
10064TIP3    H230150   1.937   2.109   0.162
10065TIP3   OH230151   1.395   4.527   2.712
10065TIP3    H130152   1.363   4.439   2.694
10065TIP3    H230153   1.339   4.584   2.661
10066TIP3   OH230154   4.804   3.969   3.342
10066TIP3    H130155   4.725   3.916   3.333
10066TIP3    H230156   4.777   4.057   3.315
10067TIP3   OH230157   2.708   6.066   0.229
10067TIP3    H130158   2.756   6.147   0.246
10067TIP3    H230159   2.714   6.053   0.135
10068TIP3   OH230160   1.876   0.369   5.033
10068TIP3    H130161   1.801   0.385   4.975
10068TIP3    H230162   1.894   0.275   5.023
10069TIP3   OH230163   1.235   1.121   5.743
10069TIP3    H130164   1.229   1.040   5.692
10069TIP3    H230165   1.227   1.191   5.678
10070TIP3   OH230166   7.222   1.687   1.494
10070TIP3    H130167   7.192   1.679   1.403
10070TIP3    H230168   7.174   1.761   1.529
10071TIP3   OH230169   3.803   7.411   1.495
10071TIP3    H130170   3.808   7.339   1.559
10071TIP3    H230171   3.872   7.472   1.522
10072TIP3   OH230172   1.488   5.636   1.729
10072TIP3    H130173   1.582   5.652   1.724
10072TIP3    H230174   1.479   5.566   1.794
10073TIP3   OH230175   3.661   6.534   6.433
10073TIP3    H130176   3.628   6.458   6.384
10073TIP3    H230177   3.632   6.518   6.523
10074TIP3   OH230178   2.113   1.737   2.988
10074TIP3    H130179   2.119   1.760   2.895
10074TIP3    H230180   2.175   1.665   2.999
10075TIP3   OH230181   0.355   2.733   0.454
10075TIP3    H130182   0.282   2.771   0.405
10075TIP3    H230183   0.384   2.660   0.400
10076TIP3   OH230184   3.050   6.941   6.253
10076TIP3    H130185   3.129   6.913   6.300
10076TIP3    H230186   3.028   7.025   6.292
10077TIP3   OH230187   3.157   7.184   4.915
10077TIP3    H130188   3.127   7.266   4.876
10077TIP3    H230189   3.089   7.160   4.978
10078TIP3   OH230190   1.110   5.409   2.856
10078TIP3    H130191   1.097   5.402   2.762
10078TIP3    H230192   1.173   5.340   2.877
10079TIP3   OH230193   2.314   3.598   4.499
10079TIP3    H130194   2.368   3.548   4.560
10079TIP3    H230195   2.366   3.602   4.419
10080TIP3   OH230196   3.909   4.923   5.718
10080TIP3    H130197   3.923   4.885   5.631
10080TIP3    H230198   3.848   4.863   5.760
10081TIP3   OH230199   6.765   7.661   4.325
10081TIP3    H130200   6.850   7.700   4.347
10081TIP3    H230201   6.711   7.677   4.403
10082TIP3   OH230202   3.925   3.749   1.309
10082TIP3    H130203   3.886   3.834   1.292
10082TIP3    H230204   3.863   3.686   1.270
10083TIP3   OH230205   6.771   0.707   2.682
10083TIP3    H130206   6.840   0.748   2.630
10083TIP3    H230207   6.796   0.724   2.773
10084TIP3   OH230208  -0.007   2.918   6.033
10084TIP3    H130209   0.022   2.999   5.990
10084TIP3    H230210   0.071   2.886   6.079
10085TIP3   OH230211   1.800   3.246   0.309
10085TIP3    H130212   1.717   3.239   0.356
10085TIP3    H230213   1.820   3.157   0.281
10086TIP3   OH230214   2.400   7.702   5.895
10086TIP3    H130215   2.415   7.608   5.885
10086TIP3    H230216   2.305   7.711   5.899
10087TIP3   OH230217   6.030   6.747   4.644
10087TIP3    H130218   6.038   6.786   4.557
10087TIP3    H230219   5.979   6.810   4.695
10088TIP3   OH230220   0.574   0.177   4.378
10088TIP3    H130221   0.551   0.146   4.290
10088TIP3    H230222   0.656   0.131   4.398
10089TIP3   OH230223   1.478   6.161   2.190
10089TIP3    H130224   1.523   6.235   2.148
10089TIP3    H230225   1.428   6.120   2.120
10090TIP3   OH230226   5.396   4.305   5.396
10090TIP3    H130227   5.337   4.288   5.322
10090TIP3    H230228   5.342   4.352   5.460
10091TIP3   OH230229   3.318   2.479   1.899
10091TIP3    H130230   3.281   2.538   1.964
10091TIP3    H230231   3.340   2.536   1.825
10092TIP3   OH230232   7.933   5.686   2.477
10092TIP3    H130233   7.918   5.690   2.383
10092TIP3    H230234   7.895   5.768   2.510
10093TIP3   OH230235   1.787   2.236   3.581
10093TIP3    H130236   1.848   2.266   3.514
10093TIP3    H230237   1.726   2.309   3.592
10094TIP3   OH230238   7.610   2.644   3.422
10094TIP3    H130239   7.672   2.672   3.490
10094TIP3    H230240   7.663   2.590   3.363
10095TIP3   OH230241   4.153   1.010   2.716
10095TIP3    H130242   4.106   0.971   2.790
10095TIP3    H230243   4.086   1.024   2.649
10096TIP3   OH230244   2.186   4.307   0.773
10096TIP3    H130245   2.132   4.320   0.852
10096TIP3    H230246   2.235   4.388   0.764
10097TIP3   OH230247   3.396   0.820   4.185
10097TIP3    H130248   3.415   0.740   4.135
10097TIP3    H230249   3.301   0.831   4.177
10098TIP3   OH230250   2.932   0.482   1.718
10098TIP3    H130251   2.849   0.501   1.676
10098TIP3    H230252   2.995   0.539   1.674
10099TIP3   OH230253   2.722   1.741   2.578
10099TIP3    H130254   2.703   1.831   2.603
10099TIP3    H230255   2.680   1.688   2.647
10100TIP3   OH230256   1.077   5.886   1.826
10100TIP3    H130257   1.027   5.919   1.901
10100TIP3    H230258   1.062   5.950   1.757
10101TIP3   OH230259   1.571   1.337   1.832
10101TIP3    H130260   1.574   1.257   1.779
10101TIP3    H230261   1.506   1.393   1.788
10102TIP3   OH230262   3.853   7.411   6.088
10102TIP3    H130263   3.801   7.405   6.169
10102TIP3    H230264   3.873   7.504   6.079
10103TIP3   OH230265   4.793   5.698   2.761
10103TIP3    H130266   4.861   5.685   2.827
10103TIP3    H230267   4.719   5.645   2.792
10104TIP3   OH230268   2.146   6.678   4.640
10104TIP3    H130269   2.127   6.592   4.675
10104TIP3    H230270   2.176   6.662   4.550
10105TIP3   OH230271   3.988   5.626   5.316
10105TIP3    H130272   3.903   5.589   5.340
10105TIP3    H230273   4.034   5.553   5.274
10106TIP3   OH230274   8.014   0.888   6.315
10106TIP3    H130275   8.073   0.926   6.381
10106TIP3    H230276   8.065   0.886   6.235
10107TIP3   OH230277   2.802   7.305   0.683
10107TIP3    H130278   2.736   7.373   0.698
10107TIP3    H230279   2.865   7.346   0.623
10108TIP3   OH230280   2.947   2.865   5.205
10108TIP3    H130281   2.908   2.806   5.269
10108TIP3    H230282   2.907   2.950   5.224
10109TIP3   OH230283  -0.021   0.820   3.952
10109TIP3    H130284   0.031   0.857   4.023
10109TIP3    H230285   0.004   0.871   3.875
10110TIP3   OH230286   1.723   7.506   4.133
10110TIP3    H130287   1.752   7.533   4.046
10110TIP3    H230288   1.644   7.454   4.117
10111TIP3   OH230289   4.336   5.062   2.898
10111TIP3    H130290   4.414   5.050   2.953
10111TIP3    H230291   4.363   5.032   2.812
10112TIP3   OH230292   6.006   3.817   1.651
10112TIP3    H130293   6.009   3.866   1.734
10112TIP3    H230294   6.087   3.766   1.651
10113TIP3   OH230295   5.002   7.673   4.913
10113TIP3    H130296   4.958   7.589   4.897
10113TIP3    H230297   5.049   7.661   4.995
10114TIP3   OH230298   2.924   3.944   1.428
10114TIP3    H130299   2.995   3.991   1.384
10114TIP3    H230300   2.860   4.012   1.449
10115TIP3   OH230301   5.823   6.622   3.420
10115TIP3    H130302   5.813   6.601   3.327
10115TIP3    H230303   5.876   6.550   3.455
10116TIP3   OH230304   7.779   5.951   6.332
10116TIP3    H130305   7.788   5.864   6.293
10116TIP3    H230306   7.832   6.008   6.276
10117TIP3   OH230307   4.719   1.718   5.877
10117TIP3    H130308   4.721   1.623   5.870
10117TIP3    H230309   4.640   1.744   5.829
10118TIP3   OH230310   0.679   3.320   5.621
10118TIP3    H130311   0.743   3.386   5.649
10118TIP3    H230312   0.615   3.318   5.692
10119TIP3   OH230313   3.510   7.097   2.941
10119TIP3    H130314   3.531   7.011   2.977
10119TIP3    H230315   3.435   7.127   2.993
10120TIP3   OH230316   7.744   4.701   3.677
10120TIP3    H130317   7.741   4.792   3.647
10120TIP3    H230318   7.827   4.668   3.645
10121TIP3   OH230319   1.375   2.104   5.109
10121TIP3    H130320   1.301   2.052   5.079
10121TIP3    H230321   1.428   2.116   5.031
10122TIP3   OH230322   7.695   0.661   0.469
10122TIP3    H130323   7.650   0.744   0.487
10122TIP3    H230324   7.684   0.610   0.549
10123TIP3   OH230325   3.249   7.320   4.023
10123TIP3    H130326   3.183   7.383   3.993
10123TIP3    H230327   3.329   7.373   4.030
10124TIP3   OH230328   1.846   7.619   2.440
10124TIP3    H130329   1.898   7.570   2.503
10124TIP3    H230330   1.879   7.591   2.355
10125TIP3   OH230331   6.982   4.835   1.717
10125TIP3    H130332   6.923   4.828   1.792
10125TIP3    H230333   7.065   4.801   1.749
10126TIP3   OH230334   2.248   7.514   3.626
10126TIP3    H130335   2.326   7.461   3.612
10126TIP3    H230336   2.253   7.583   3.560
10127TIP3   OH230337   3.853   4.908   4.684
10127TIP3    H130338   3.876   4.918   4.592
10127TIP3    H230339   3.763   4.942   4.690
10128TIP3   OH230340   7.503   3.530   5.071
10128TIP3    H130341   7.460   3.470   5.132
10128TIP3    H230342   7.596   3.522   5.092
10129TIP3   OH230343   5.144   0.979   0.199
10129TIP3    H130344   5.237   0.957   0.192
10129TIP3    H230345   5.111   0.924   0.270
10130TIP3   OH230346   2.375   4.974   4.044
10130TIP3    H130347   2.343   4.892   4.082
10130TIP3    H230348   2.469   4.960   4.030
10131TIP3   OH230349   8.268   5.449   5.829
10131TIP3    H130350   8.333   5.516   5.849
10131TIP3    H230351   8.239   5.469   5.740
10132TIP3   OH230352   8.166   7.682   2.566
10132TIP3    H130353   8.244   7.656   2.517
10132TIP3    H230354   8.097   7.690   2.499
10133TIP3   OH230355   2.016   5.383   5.634
10133TIP3    H130356   1.924   5.391   5.661
10133TIP3    H230357   2.056   5.331   5.704
10134TIP3   OH230358   3.561   5.234   3.914
10134TIP3    H130359   3.467   5.232   3.893
10134TIP3    H230360   3.570   5.175   3.988
10135TIP3   OH230361   5.921   1.206   2.872
10135TIP3    H130362   6.014   1.215   2.853
10135TIP3    H230363   5.889   1.144   2.806
10136TIP3   OH230364   4.940   2.335   0.147
10136TIP3    H130365   4.877   2.324   0.076
10136TIP3    H230366   4.904   2.405   0.201
10137TIP3   OH230367   5.775   2.430   6.392
10137TIP3    H130368   5.720   2.353   6.404
10137TIP3    H230369   5.856   2.395   6.353
10138TIP3   OH230370   6.311   2.117   1.914
10138TIP3    H130371   6.258   2.109   1.834
10138TIP3    H230372   6.356   2.033   1.922
10139TIP3   OH230373   2.631   3.297   2.066
10139TIP3    H130374   2.598   3.248   2.142
10139TIP3    H230375   2.725   3.284   2.068
10140TIP3   OH230376   4.000   5.876   0.100
10140TIP3    H130377   3.988   5.796   0.049
10140TIP3    H230378   3.913   5.915   0.106
10141TIP3   OH230379   4.786   0.199   0.848
10141TIP3    H130380   4.832   0.278   0.820
10141TIP3    H230381   4.848   0.128   0.833
10142TIP3   OH230382   7.500   5.593   4.296
10142TIP3    H130383   7.447   5.572   4.220
10142TIP3    H230384   7.555   5.516   4.309
10143TIP3   OH230385   0.969   3.052   6.649
10143TIP3    H130386   1.063   3.036   6.659
10143TIP3    H230387   0.942   3.089   6.733
10144TIP3   OH230388   6.253   0.417   6.580
10144TIP3    H130389   6.288   0.377   6.501
10144TIP3    H230390   6.330   0.446   6.629
10145TIP3   OH230391   5.942   4.704   0.086
10145TIP3    H130392   5.978   4.647   0.019
10145TIP3    H230393   5.891   4.769   0.037
10146TIP3   OH230394   7.230   6.904   1.294
10146TIP3    H130395   7.149   6.953   1.308
10146TIP3    H230396   7.282   6.961   1.237
10147TIP3   OH230397   2.220   5.935   2.353
10147TIP3    H130398   2.289   5.948   2.288
10147TIP3    H230399   2.139   5.934   2.302
10148TIP3   OH230400   2.839   4.470   0.532
10148TIP3    H130401   2.875   4.522   0.603
10148TIP3    H230402   2.883   4.385   0.540
10149TIP3   OH230403   3.709   0.554   3.037
10149TIP3    H130404   3.734   0.645   3.024
10149TIP3    H230405   3.704   0.544   3.132
10150TIP3   OH230406   7.257   2.414   5.822
10150TIP3    H130407   7.224   2.504   5.824
10150TIP3    H230408   7.291   2.402   5.733
10151TIP3   OH230409   1.177   3.802   4.243
10151TIP3    H130410   1.099   3.747   4.231
10151TIP3    H230411   1.145   3.880   4.290
10152TIP3   OH230412   5.720   1.442   4.396
10152TIP3    H130413   5.774   1.427   4.473
10152TIP3    H230414   5.673   1.360   4.383
10153TIP3   OH230415   6.291   6.176   5.603
10153TIP3    H130416   6.300   6.171   5.698
10153TIP3    H230417   6.267   6.267   5.585
10154TIP3   OH230418   0.861   0.863   0.614
10154TIP3    H130419   0.833   0.951   0.638
10154TIP3    H230420   0.787   0.807   0.640
10155TIP3   OH230421   2.927   0.236   1.841
10155TIP3    H130422   3.019   0.230   1.868
10155TIP3    H230423   2.923   0.314   1.786
10156TIP3   OH230424   4.881   6.703   3.035
10156TIP3    H130425   4.862   6.778   3.091
10156TIP3    H230426   4.811   6.641   3.053
10157TIP3   OH230427   7.485   2.536   1.211
10157TIP3    H130428   7.559   2.524   1.271
10157TIP3    H230429   7.415   2.484   1.249
10158TIP3   OH230430   7.278   3.502   6.248
10158TIP3    H130431   7.206   3.540   6.299
10158TIP3    H230432   7.353   3.503   6.307
10159TIP3   OH230433   7.293   1.527   4.022
10159TIP3    H130434   7.203   1.542   3.994
10159TIP3    H230435   7.302   1.577   4.103
10160TIP3   OH230436   5.010   3.853   3.763
10160TIP3    H130437   5.065   3.835   3.839
10160TIP3    H230438   4.991   3.766   3.727
10161TIP3   OH230439   3.313   2.085   0.790
10161TIP3    H130440   3.328   2.005   0.841
10161TIP3    H230441   3.224   2.112   0.813
10162TIP3   OH230442   0.478   0.800   5.174
10162TIP3    H130443   0.409   0.866   5.168
10162TIP3    H230444   0.557   0.850   5.194
10163TIP3   OH230445   1.521   2.654   2.983
10163TIP3    H130446   1.610   2.622   2.995
10163TIP3    H230447   1.487   2.604   2.909
10164TIP3   OH230448   3.971   6.916   6.654
10164TIP3    H130449   3.944   6.929   6.745
10164TIP3    H230450   4.010   6.828   6.653
10165TIP3   OH230451   4.091   4.031   4.637
10165TIP3    H130452   4.036   4.085   4.581
10165TIP3    H230453   4.032   3.963   4.670
10166TIP3   OH230454   7.690   3.203   2.342
10166TIP3    H130455   7.638   3.182   2.264
10166TIP3    H230456   7.714   3.117   2.378
10167TIP3   OH230457   3.881   0.355   4.320
10167TIP3    H130458   3.902   0.281   4.377
10167TIP3    H230459   3.788   0.373   4.335
10168TIP3   OH230460   3.929   2.370   4.455
10168TIP3    H130461   3.943   2.446   4.511
10168TIP3    H230462   3.920   2.297   4.516
10169TIP3   OH230463   6.363   3.403   3.656
10169TIP3    H130464   6.306   3.479   3.668
10169TIP3    H230465   6.379   3.370   3.745
10170TIP3   OH230466   7.233   1.635   5.601
10170TIP3    H130467   7.304   1.689   5.638
10170TIP3    H230468   7.187   1.694   5.541
10171TIP3   OH230469   2.876   1.879   3.327
10171TIP3    H130470   2.834   1.811   3.380
10171TIP3    H230471   2.871   1.847   3.237
10172TIP3   OH230472   6.978   3.068   2.443
10172TIP3    H130473   7.068   3.047   2.421
10172TIP3    H230474   6.973   3.057   2.538
10173TIP3   OH230475   1.165   5.182   1.333
10173TIP3    H130476   1.192   5.136   1.253
10173TIP3    H230477   1.248   5.206   1.375
10174TIP3   OH230478   5.775   5.721   1.087
10174TIP3    H130479   5.797   5.672   1.167
10174TIP3    H230480   5.680   5.709   1.078
10175TIP3   OH230481   3.685   7.090   1.225
10175TIP3    H130482   3.741   7.057   1.154
10175TIP3    H230483   3.713   7.181   1.237
10176TIP3   OH230484   7.331   1.119   5.382
10176TIP3    H130485   7.299   1.031   5.362
10176TIP3    H230486   7.419   1.122   5.343
10177TIP3   OH230487   7.923   7.594   2.412
10177TIP3    H130488   7.910   7.667   2.352
10177TIP3    H230489   7.892   7.517   2.364
10178TIP3   OH230490   0.397   0.428   2.201
10178TIP3    H130491   0.314   0.424   2.153
10178TIP3    H230492   0.401   0.517   2.237
10179TIP3   OH230493   2.088   0.904   0.983
10179TIP3    H130494   2.044   0.823   1.009
10179TIP3    H230495   2.044   0.929   0.902
10180TIP3   OH230496   6.832   4.567   2.137
10180TIP3    H130497   6.925   4.544   2.137
10180TIP3    H230498   6.806   4.563   2.229
10181TIP3   OH230499   1.009   5.857   3.876
10181TIP3    H130500   1.046   5.802   3.807
10181TIP3    H230501   0.966   5.928   3.830
10182TIP3   OH230502   2.997   5.221   4.187
10182TIP3    H130503   2.996   5.276   4.109
10182TIP3    H230504   3.000   5.283   4.260
10183TIP3   OH230505   3.542   1.759   5.528
10183TIP3    H130506   3.629   1.798   5.524
10183TIP3    H230507   3.486   1.820   5.480
10184TIP3   OH230508   1.194   7.529   5.930
10184TIP3    H130509   1.102   7.544   5.953
10184TIP3    H230510   1.228   7.475   6.001
10185TIP3   OH230511   6.241   2.242   0.482
10185TIP3    H130512   6.265   2.268   0.393
10185TIP3    H230513   6.208   2.153   0.474
10186TIP3   OH230514   1.585   4.706   4.860
10186TIP3    H130515   1.605   4.750   4.943
10186TIP3    H230516   1.557   4.618   4.886
10187TIP3   OH230517   4.870   0.676   1.105
10187TIP3    H130518   4.964   0.685   1.089
10187TIP3    H230519   4.830   0.750   1.060
10188TIP3   OH230520   0.895   0.341   2.136
10188TIP3    H130521   0.802   0.365   2.129
10188TIP3    H230522   0.916   0.353   2.228
10189TIP3   OH230523   0.605   7.381   1.127
10189TIP3    H130524   0.654   7.430   1.194
10189TIP3    H230525   0.673   7.340   1.073
10190TIP3   OH230526   0.512   2.592   3.112
10190TIP3    H130527   0.578   2.585   3.042
10190TIP3    H230528   0.523   2.511   3.162
10191TIP3   OH230529   2.739   1.531   6.461
10191TIP3    H130530   2.757   1.454   6.513
10191TIP3    H230531   2.655   1.563   6.493
10192TIP3   OH230532   0.641   3.469   4.291
10192TIP3    H130533   0.569   3.407   4.302
10192TIP3    H230534   0.696   3.456   4.369
10193TIP3   OH230535   4.672   7.026   3.684
10193TIP3    H130536   4.757   7.043   3.643
10193TIP3    H230537   4.610   7.026   3.612
10194TIP3   OH230538   6.386   5.281   6.723
10194TIP3    H130539   6.346   5.203   6.686
10194TIP3    H230540   6.440   5.249   6.795
10195TIP3   OH230541   1.188   7.182   5.533
10195TIP3    H130542   1.167   7.237   5.608
10195TIP3    H230543   1.234   7.107   5.571
10196TIP3   OH230544   5.866   3.597   3.862
10196TIP3    H130545   5.938   3.535   3.877
10196TIP3    H230546   5.791   3.543   3.839
10197TIP3   OH230547   1.619   4.420   5.135
10197TIP3    H130548   1.650   4.330   5.127
10197TIP3    H230549   1.697   4.474   5.125
10198TIP3   OH230550   6.668   5.473   0.402
10198TIP3    H130551   6.736   5.492   0.467
10198TIP3    H230552   6.587   5.470   0.453
10199TIP3   OH230553   8.036   3.537   1.377
10199TIP3    H130554   8.130   3.524   1.363
10199TIP3    H230555   8.001   3.553   1.290
10200TIP3   OH230556   3.074   4.774   6.448
10200TIP3    H130557   3.079   4.706   6.515
10200TIP3    H230558   3.099   4.855   6.493
10201TIP3   OH230559   5.344   6.030   2.789
10201TIP3    H130560   5.297   6.112   2.771
10201TIP3    H230561   5.364   6.035   2.882
10202TIP3   OH230562   7.095   7.357   5.839
10202TIP3    H130563   7.146   7.438   5.836
10202TIP3    H230564   7.004   7.386   5.828
10203TIP3   OH230565   5.461   7.779   4.315
10203TIP3    H130566   5.412   7.707   4.275
10203TIP3    H230567   5.525   7.736   4.371
10204TIP3   OH230568   5.810   2.666   1.968
10204TIP3    H130569   5.754   2.589   1.963
10204TIP3    H230570   5.782   2.721   1.894
10205TIP3   OH230571   2.107   3.139   2.506
10205TIP3    H130572   2.013   3.156   2.519
10205TIP3    H230573   2.147   3.225   2.498
10206TIP3   OH230574   4.194   0.014   3.032
10206TIP3    H130575   4.251   0.072   3.081
10206TIP3    H230576   4.113   0.010   3.084
10207TIP3   OH230577   5.656   3.903   3.943
10207TIP3    H130578   5.679   3.958   3.868
10207TIP3    H230579   5.626   3.821   3.904
10208TIP3   OH230580   4.531   1.527   1.033
10208TIP3    H130581   4.594   1.517   1.105
10208TIP3    H230582   4.446   1.508   1.073
10209TIP3   OH230583   5.482   0.656   2.514
10209TIP3    H130584   5.484   0.636   2.608
10209TIP3    H230585   5.575   0.665   2.491
10210TIP3   OH230586   0.570   1.874   3.578
10210TIP3    H130587   0.643   1.884   3.640
10210TIP3    H230588   0.528   1.960   3.576
10211TIP3   OH230589   0.017   5.892   4.903
10211TIP3    H130590   0.082   5.952   4.864
10211TIP3    H230591   0.069   5.821   4.939
10212TIP3   OH230592   2.804   3.875   4.226
10212TIP3    H130593   2.722   3.897   4.183
10212TIP3    H230594   2.784   3.800   4.282
10213TIP3   OH230595   5.604   0.208   0.680
10213TIP3    H130596   5.598   0.177   0.589
10213TIP3    H230597   5.554   0.144   0.730
10214TIP3   OH230598   4.831   5.666   6.102
10214TIP3    H130599   4.890   5.615   6.047
10214TIP3    H230600   4.886   5.694   6.176
10215TIP3   OH230601   7.511   5.583   2.868
10215TIP3    H130602   7.537   5.564   2.778
10215TIP3    H230603   7.546   5.510   2.919
10216TIP3   OH230604   5.159   0.302   1.386
10216TIP3    H130605   5.186   0.383   1.428
10216TIP3    H230606   5.074   0.281   1.424
10217TIP3   OH230607   2.815   3.825   6.758
10217TIP3    H130608   2.802   3.865   6.844
10217TIP3    H230609   2.844   3.896   6.702
10218TIP3   OH230610   1.056   5.876   0.174
10218TIP3    H130611   1.072   5.967   0.147
10218TIP3    H230612   0.970   5.855   0.137
10219TIP3   OH230613   1.036   3.378   6.564
10219TIP3    H130614   1.051   3.284   6.571
10219TIP3    H230615   1.118   3.418   6.591
10220TIP3   OH230616   6.135   2.635   6.370
10220TIP3    H130617   6.109   2.606   6.457
10220TIP3    H230618   6.136   2.730   6.375
10221TIP3   OH230619   5.958   5.828   3.193
10221TIP3    H130620   5.993   5.745   3.161
10221TIP3    H230621   5.880   5.843   3.139
10222TIP3   OH230622   2.173  -0.001   2.532
10222TIP3    H130623   2.147  -0.092   2.514
10222TIP3    H230624   2.263  -0.009   2.564
10223TIP3   OH230625   1.549   2.110   3.197
10223TIP3    H130626   1.491   2.075   3.129
10223TIP3    H230627   1.544   2.046   3.268
10224TIP3   OH230628   6.073   3.218   0.969
10224TIP3    H130629   6.087   3.185   0.880
10224TIP3    H230630   6.012   3.290   0.958
10225TIP3   OH230631   7.877   4.027   5.300
10225TIP3    H130632   7.862   4.120   5.281
10225TIP3    H230633   7.967   4.011   5.271
10226TIP3   OH230634   3.399   2.871   5.352
10226TIP3    H130635   3.344   2.841   5.280
10226TIP3    H230636   3.469   2.805   5.358
10227TIP3   OH230637   1.757   5.352   5.506
10227TIP3    H130638   1.812   5.356   5.427
10227TIP3    H230639   1.746   5.258   5.522
10228TIP3   OH230640   3.697   1.370   5.853
10228TIP3    H130641   3.711   1.454   5.897
10228TIP3    H230642   3.625   1.387   5.792
10229TIP3   OH230643   6.338   0.650   2.976
10229TIP3    H130644   6.427   0.644   3.010
10229TIP3    H230645   6.318   0.744   2.976
10230TIP3   OH230646   2.081   5.852   6.553
10230TIP3    H130647   1.985   5.851   6.559
10230TIP3    H230648   2.100   5.921   6.490
10231TIP3   OH230649   6.113   5.407   0.862
10231TIP3    H130650   6.039   5.447   0.910
10231TIP3    H230651   6.157   5.482   0.821
10232TIP3   OH230652   4.834   2.768   0.547
10232TIP3    H130653   4.876   2.758   0.633
10232TIP3    H230654   4.815   2.679   0.519
10233TIP3   OH230655   0.064   7.814   5.241
10233TIP3    H130656   0.119   7.887   5.212
10233TIP3    H230657   0.116   7.769   5.308
10234TIP3   OH230658   2.209   4.813   4.743
10234TIP3    H130659   2.193   4.762   4.664
10234TIP3    H230660   2.252   4.893   4.712
10235TIP3   OH230661   3.815   4.182   5.403
10235TIP3    H130662   3.894   4.222   5.439
10235TIP3    H230663   3.812   4.213   5.312
10236TIP3   OH230664   0.650   6.731   2.159
10236TIP3    H130665   0.733   6.755   2.116
10236TIP3    H230666   0.655   6.636   2.169
10237TIP3   OH230667   2.666   5.007   1.155
10237TIP3    H130668   2.607   4.946   1.199
10237TIP3    H230669   2.753   4.969   1.168
10238TIP3   OH230670   3.127   1.558   5.967
10238TIP3    H130671   3.063   1.495   5.933
10238TIP3    H230672   3.097   1.643   5.935
10239TIP3   OH230673   8.006   2.155   2.015
10239TIP3    H130674   8.003   2.135   1.921
10239TIP3    H230675   8.031   2.247   2.019
10240TIP3   OH230676   8.156   5.527   6.209
10240TIP3    H130677   8.141   5.601   6.150
10240TIP3    H230678   8.152   5.450   6.152
10241TIP3   OH230679   5.981   3.399   6.581
10241TIP3    H130680   5.902   3.397   6.527
10241TIP3    H230681   5.997   3.492   6.596
10242TIP3   OH230682   5.973   5.248   1.448
10242TIP3    H130683   5.929   5.301   1.515
10242TIP3    H230684   5.951   5.291   1.366
10243TIP3   OH230685   1.903   2.973   6.226
10243TIP3    H130686   1.896   3.044   6.289
10243TIP3    H230687   1.923   3.017   6.143
10244TIP3   OH230688   0.368   3.536   5.896
10244TIP3    H130689   0.381   3.542   5.802
10244TIP3    H230690   0.308   3.607   5.917
10245TIP3   OH230691   2.915   6.899   1.717
10245TIP3    H130692   2.927   6.822   1.773
10245TIP3    H230693   2.966   6.880   1.638
10246TIP3   OH230694   4.081   6.690   1.390
10246TIP3    H130695   4.066   6.621   1.455
10246TIP3    H230696   4.008   6.751   1.403
10247TIP3   OH230697   5.251   0.491   2.181
10247TIP3    H130698   5.170   0.534   2.153
10247TIP3    H230699   5.233   0.397   2.171
10248TIP3   OH230700   6.242   6.095   2.718
10248TIP3    H130701   6.188   6.174   2.723
10248TIP3    H230702   6.188   6.027   2.759
10249TIP3   OH230703   7.256   2.652   0.429
10249TIP3    H130704   7.307   2.650   0.509
10249TIP3    H230705   7.235   2.560   0.411
10250TIP3   OH230706   5.484   0.601   2.769
10250TIP3    H130707   5.393   0.604   2.797
10250TIP3    H230708   5.532   0.568   2.845
10251TIP3   OH230709   0.160   5.375   1.884
10251TIP3    H130710   0.166   5.451   1.942
10251TIP3    H230711   0.192   5.407   1.799
10252TIP3   OH230712   3.124   6.766   1.088
10252TIP3    H130713   3.110   6.806   1.174
10252TIP3    H230714   3.048   6.710   1.075
10253TIP3   OH230715   2.215   6.725   6.098
10253TIP3    H130716   2.219   6.811   6.057
10253TIP3    H230717   2.292   6.679   6.065
10254TIP3   OH230718   1.815   2.268   6.137
10254TIP3    H130719   1.830   2.178   6.109
10254TIP3    H230720   1.894   2.291   6.186
10255TIP3   OH230721   4.078   6.112   3.911
10255TIP3    H130722   4.017   6.178   3.879
10255TIP3    H230723   4.023   6.037   3.934
10256TIP3   OH230724   0.117   5.751   6.434
10256TIP3    H130725   0.096   5.676   6.490
10256TIP3    H230726   0.144   5.712   6.351
10257TIP3   OH230727   0.325   5.468   5.009
10257TIP3    H130728   0.267   5.460   4.934
10257TIP3    H230729   0.407   5.503   4.972
10258TIP3   OH230730   7.101   3.703   3.890
10258TIP3    H130731   7.015   3.703   3.849
10258TIP3    H230732   7.162   3.697   3.816
10259TIP3   OH230733   7.251   6.812   2.948
10259TIP3    H130734   7.166   6.840   2.912
10259TIP3    H230735   7.311   6.882   2.924
10260TIP3   OH230736   5.470   4.658   0.965
10260TIP3    H130737   5.392   4.661   0.910
10260TIP3    H230738   5.520   4.736   0.940
10261TIP3   OH230739   4.980   7.471   2.614
10261TIP3    H130740   4.909   7.442   2.557
10261TIP3    H230741   4.935   7.515   2.687
10262TIP3   OH230742   2.279   6.648   3.324
10262TIP3    H130743   2.247   6.563   3.353
10262TIP3    H230744   2.245   6.657   3.235
10263TIP3   OH230745   7.265   2.211   0.096
10263TIP3    H130746   7.195   2.152   0.124
10263TIP3    H230747   7.332   2.154   0.060
10264TIP3   OH230748   1.118   2.507   3.543
10264TIP3    H130749   1.164   2.425   3.560
10264TIP3    H230750   1.030   2.480   3.516
10265TIP3   OH230751   5.184   1.553   3.033
10265TIP3    H130752   5.129   1.629   3.013
10265TIP3    H230753   5.270   1.590   3.050
10266TIP3   OH230754   4.231   5.562   4.814
10266TIP3    H130755   4.280   5.600   4.887
10266TIP3    H230756   4.229   5.632   4.748
10267TIP3   OH230757   2.221   1.493   3.260
10267TIP3    H130758   2.250   1.516   3.172
10267TIP3    H230759   2.246   1.401   3.270
10268TIP3   OH230760   1.624   6.578   1.085
10268TIP3    H130761   1.596   6.490   1.110
10268TIP3    H230762   1.636   6.624   1.169
10269TIP3   OH230763   4.982   6.181   1.050
10269TIP3    H130764   5.039   6.145   0.982
10269TIP3    H230765   4.978   6.113   1.117
10270TIP3   OH230766   5.676   4.637   4.081
10270TIP3    H130767   5.678   4.633   3.986
10270TIP3    H230768   5.598   4.688   4.101
10271TIP3   OH230769   7.181   2.668   5.828
10271TIP3    H130770   7.097   2.690   5.788
10271TIP3    H230771   7.241   2.734   5.794
10272TIP3   OH230772   5.076   5.051   0.456
10272TIP3    H130773   5.149   5.029   0.398
10272TIP3    H230774   5.091   4.998   0.534
10273TIP3   OH230775   6.134   5.823   1.871
10273TIP3    H130776   6.134   5.918   1.860
10273TIP3    H230777   6.157   5.788   1.785
10274TIP3   OH230778   7.918   2.646   5.638
10274TIP3    H130779   7.905   2.580   5.705
10274TIP3    H230780   7.989   2.701   5.672
10275TIP3   OH230781   1.373   7.740   3.531
10275TIP3    H130782   1.454   7.701   3.563
10275TIP3    H230783   1.396   7.779   3.447
10276TIP3   OH230784   8.068   2.412   6.584
10276TIP3    H130785   8.089   2.434   6.675
10276TIP3    H230786   8.128   2.465   6.532
10277TIP3   OH230787   0.320   1.649   2.996
10277TIP3    H130788   0.276   1.732   2.979
10277TIP3    H230789   0.264   1.583   2.954
10278TIP3   OH230790   4.245   0.653   0.353
10278TIP3    H130791   4.161   0.621   0.386
10278TIP3    H230792   4.294   0.679   0.431
10279TIP3   OH230793   0.563   1.409   0.093
10279TIP3    H130794   0.521   1.427   0.178
10279TIP3    H230795   0.648   1.372   0.116
10280TIP3   OH230796   0.192   7.653   5.941
10280TIP3    H130797   0.280   7.664   5.977
10280TIP3    H230798   0.193   7.565   5.902
10281TIP3   OH230799   0.158   2.918   2.651
10281TIP3    H130800   0.133   2.981   2.719
10281TIP3    H230801   0.249   2.938   2.632
10282TIP3   OH230802   0.190   2.759   6.193
10282TIP3    H130803   0.227   2.705   6.123
10282TIP3    H230804   0.244   2.740   6.269
10283TIP3   OH230805   4.777   5.273   2.608
10283TIP3    H130806   4.728   5.255   2.688
10283TIP3    H230807   4.868   5.284   2.637
10284TIP3   OH230808   0.417   2.265   4.638
10284TIP3    H130809   0.509   2.259   4.613
10284TIP3    H230810   0.402   2.358   4.654
10285TIP3   OH230811   1.273   4.973   3.387
10285TIP3    H130812   1.185   4.961   3.423
10285TIP3    H230813   1.331   4.935   3.454
10286TIP3   OH230814   6.026   2.712   4.867
10286TIP3    H130815   5.975   2.793   4.859
10286TIP3    H230816   6.052   2.691   4.778
10287TIP3   OH230817   6.654   4.378   4.782
10287TIP3    H130818   6.719   4.320   4.742
10287TIP3    H230819   6.616   4.327   4.853
10288TIP3   OH230820   7.174   5.068   2.676
10288TIP3    H130821   7.165   5.126   2.600
10288TIP3    H230822   7.268   5.061   2.691
10289TIP3   OH230823   7.525   7.641   1.554
10289TIP3    H130824   7.499   7.549   1.550
10289TIP3    H230825   7.444   7.689   1.539
10290TIP3   OH230826   6.349   5.588   4.491
10290TIP3    H130827   6.258   5.575   4.518
10290TIP3    H230828   6.384   5.651   4.554
10291TIP3   OH230829   3.554   3.645   4.613
10291TIP3    H130830   3.478   3.611   4.568
10291TIP3    H230831   3.621   3.652   4.545
10292TIP3   OH230832   0.473   3.630   4.568
10292TIP3    H130833   0.505   3.699   4.509
10292TIP3    H230834   0.433   3.678   4.641
10293TIP3   OH230835   0.051   3.501   0.773
10293TIP3    H130836   0.117   3.519   0.707
10293TIP3    H230837  -0.008   3.438   0.732
10294TIP3   OH230838   0.794   7.437   6.253
10294TIP3    H130839   0.752   7.438   6.339
10294TIP3    H230840   0.824   7.346   6.243
10295TIP3   OH230841   8.169   1.142   5.204
10295TIP3    H130842   8.109   1.068   5.193
10295TIP3    H230843   8.111   1.218   5.210
10296TIP3   OH230844   6.662   0.315   6.218
10296TIP3    H130845   6.677   0.284   6.129
10296TIP3    H230846   6.664   0.411   6.210
10297TIP3   OH230847   4.419   7.056   3.163
10297TIP3    H130848   4.334   7.042   3.123
10297TIP3    H230849   4.453   7.135   3.121
10298TIP3   OH230850   0.815   3.574   2.305
10298TIP3    H130851   0.783   3.664   2.304
10298TIP3    H230852   0.793   3.541   2.392
10299TIP3   OH230853   4.069   5.707   1.524
10299TIP3    H130854   4.059   5.748   1.438
10299TIP3    H230855   4.123   5.630   1.508
10300TIP3   OH230856   0.890   3.312   4.088
10300TIP3    H130857   0.890   3.226   4.046
10300TIP3    H230858   0.916   3.295   4.178
10301TIP3   OH230859   1.971   3.650   4.993
10301TIP3    H130860   1.974   3.743   5.018
10301TIP3    H230861   1.977   3.650   4.898
10302TIP3   OH230862   4.703   6.669   4.374
10302TIP3    H130863   4.616   6.637   4.397
10302TIP3    H230864   4.707   6.756   4.413
10303TIP3   OH230865   2.352   7.665   3.134
10303TIP3    H130866   2.362   7.751   3.093
10303TIP3    H230867   2.271   7.630   3.098
10304TIP3   OH230868   0.269   6.319   3.555
10304TIP3    H130869   0.317   6.238   3.569
10304TIP3    H230870   0.236   6.312   3.465
10305TIP3   OH230871   3.360   2.278   5.989
10305TIP3    H130872   3.398   2.248   6.072
10305TIP3    H230873   3.307   2.204   5.959
10306TIP3   OH230874   1.345   5.596   2.453
10306TIP3    H130875   1.433   5.562   2.469
10306TIP3    H230876   1.302   5.594   2.538
10307TIP3   OH230877   3.182   2.191   1.123
10307TIP3    H130878   3.124   2.220   1.193
10307TIP3    H230879   3.126   2.189   1.045
10308TIP3   OH230880   6.138   2.817   4.041
10308TIP3    H130881   6.171   2.772   4.119
10308TIP3    H230882   6.051   2.848   4.066
10309TIP3   OH230883   5.200   7.450   4.726
10309TIP3    H130884   5.129   7.392   4.698
10309TIP3    H230885   5.223   7.499   4.648
10310TIP3   OH230886   2.217   2.447   6.688
10310TIP3    H130887   2.194   2.498   6.611
10310TIP3    H230888   2.136   2.442   6.739
10311TIP3   OH230889   0.246   7.358   5.195
10311TIP3    H130890   0.309   7.287   5.212
10311TIP3    H230891   0.300   7.430   5.163
10312TIP3   OH230892   3.412   6.609   5.026
10312TIP3    H130893   3.383   6.519   5.044
10312TIP3    H230894   3.506   6.607   5.041
10313TIP3   OH230895   0.915   5.310   5.347
10313TIP3    H130896   0.901   5.395   5.304
10313TIP3    H230897   0.846   5.254   5.312
10314TIP3   OH230898   2.244   5.488   0.610
10314TIP3    H130899   2.275   5.559   0.666
10314TIP3    H230900   2.190   5.531   0.544
10315TIP3   OH230901   4.146   2.419   3.853
10315TIP3    H130902   4.233   2.382   3.844
10315TIP3    H230903   4.156   2.491   3.915
10316TIP3   OH230904   2.684   0.503  -0.009
10316TIP3    H130905   2.699   0.409  -0.021
10316TIP3    H230906   2.671   0.514   0.085
10317TIP3   OH230907   8.070   6.024   1.249
10317TIP3    H130908   7.991   6.067   1.280
10317TIP3    H230909   8.115   6.090   1.196
10318TIP3   OH230910   3.772   7.046   2.498
10318TIP3    H130911   3.756   7.110   2.429
10318TIP3    H230912   3.688   7.001   2.509
10319TIP3   OH230913   2.465   7.478   6.210
10319TIP3    H130914   2.428   7.564   6.188
10319TIP3    H230915   2.423   7.418   6.148
10320TIP3   OH230916   4.593   6.378   1.688
10320TIP3    H130917   4.608   6.286   1.708
10320TIP3    H230918   4.605   6.384   1.593
10321TIP3   OH230919   6.397   6.638   0.863
10321TIP3    H130920   6.426   6.729   0.858
10321TIP3    H230921   6.315   6.642   0.912
10322TIP3   OH230922   2.160   2.014   5.662
10322TIP3    H130923   2.098   1.942   5.674
10322TIP3    H230924   2.150   2.038   5.570
10323TIP3   OH230925   3.420   4.468   3.121
10323TIP3    H130926   3.506   4.487   3.085
10323TIP3    H230927   3.433   4.462   3.215
10324TIP3   OH230928   7.489   2.469   2.218
10324TIP3    H130929   7.456   2.416   2.145
10324TIP3    H230930   7.421   2.535   2.232
10325TIP3   OH230931   3.820   0.860   6.696
10325TIP3    H130932   3.867   0.778   6.712
10325TIP3    H230933   3.865   0.924   6.751
10326TIP3   OH230934   5.683   5.939   5.153
10326TIP3    H130935   5.774   5.952   5.126
10326TIP3    H230936   5.679   5.975   5.241
10327TIP3   OH230937   3.997   6.474   0.771
10327TIP3    H130938   3.988   6.443   0.861
10327TIP3    H230939   4.090   6.496   0.762
10328TIP3   OH230940   7.947   0.514   2.906
10328TIP3    H130941   8.019   0.452   2.894
10328TIP3    H230942   7.901   0.482   2.984
10329TIP3   OH230943   6.673   2.048   0.549
10329TIP3    H130944   6.759   2.008   0.561
10329TIP3    H230945   6.620   1.978   0.510
10330TIP3   OH230946   2.858   0.059   5.852
10330TIP3    H130947   2.872   0.116   5.929
10330TIP3    H230948   2.884  -0.028   5.882
10331TIP3   OH230949   5.983   5.940   6.628
10331TIP3    H130950   6.040   5.864   6.633
10331TIP3    H230951   5.956   5.944   6.536
10332TIP3   OH230952   4.666   1.511   4.891
10332TIP3    H130953   4.652   1.442   4.826
10332TIP3    H230954   4.693   1.464   4.970
10333TIP3   OH230955   2.859   6.969   2.617
10333TIP3    H130956   2.932   6.907   2.622
10333TIP3    H230957   2.801   6.931   2.550
10334TIP3   OH230958   3.582   4.048   1.899
10334TIP3    H130959   3.621   3.972   1.856
10334TIP3    H230960   3.578   4.115   1.831
10335TIP3   OH230961   1.709   5.879   4.331
10335TIP3    H130962   1.627   5.905   4.288
10335TIP3    H230963   1.755   5.827   4.265
10336TIP3   OH230964   2.244   1.920   4.183
10336TIP3    H130965   2.171   1.980   4.169
10336TIP3    H230966   2.300   1.930   4.106
10337TIP3   OH230967   2.772   7.405   5.861
10337TIP3    H130968   2.848   7.370   5.815
10337TIP3    H230969   2.714   7.436   5.791
10338TIP3   OH230970   0.133   0.277   5.311
10338TIP3    H130971   0.154   0.183   5.312
10338TIP3    H230972   0.188   0.314   5.380
10339TIP3   OH230973   0.123   3.731   0.957
10339TIP3    H130974   0.218   3.741   0.947
10339TIP3    H230975   0.098   3.672   0.886
10340TIP3   OH230976   5.861   6.135   2.411
10340TIP3    H130977   5.886   6.046   2.437
10340TIP3    H230978   5.793   6.122   2.346
10341TIP3   OH230979   8.283   1.249   1.032
10341TIP3    H130980   8.222   1.175   1.033
10341TIP3    H230981   8.299   1.267   1.125
10342TIP3   OH230982   0.245   3.772   5.139
10342TIP3    H130983   0.182   3.702   5.156
10342TIP3    H230984   0.329   3.726   5.128
10343TIP3   OH230985   4.863   5.995   3.206
10343TIP3    H130986   4.795   6.062   3.215
10343TIP3    H230987   4.942   6.036   3.241
10344TIP3   OH230988   4.738   2.536   6.399
10344TIP3    H130989   4.704   2.622   6.373
10344TIP3    H230990   4.683   2.511   6.473
10345TIP3   OH230991   5.363   1.873   4.099
10345TIP3    H130992   5.397   1.934   4.033
10345TIP3    H230993   5.441   1.826   4.130
10346TIP3   OH230994   0.502   4.157   1.700
10346TIP3    H130995   0.489   4.154   1.795
10346TIP3    H230996   0.438   4.094   1.665
10347TIP3   OH230997   7.034   2.951   3.055
10347TIP3    H130998   7.110   2.991   3.097
10347TIP3    H230999   7.064   2.863   3.031
10348TIP3   OH231000   3.376   6.347   5.076
10348TIP3    H131001   3.421   6.273   5.035
10348TIP3    H231002   3.375   6.326   5.169
10349TIP3   OH231003   7.343   1.026   0.725
10349TIP3    H131004   7.368   1.047   0.814
10349TIP3    H231005   7.247   1.024   0.727
10350TIP3   OH231006   5.278   4.856   0.294
10350TIP3    H131007   5.322   4.783   0.338
10350TIP3    H231008   5.195   4.820   0.264
10351TIP3   OH231009   5.525   0.687   0.393
10351TIP3    H131010   5.499   0.654   0.307
10351TIP3    H231011   5.443   0.720   0.431
10352TIP3   OH231012   5.686   6.073   2.211
10352TIP3    H131013   5.752   6.054   2.145
10352TIP3    H231014   5.604   6.082   2.162
10353TIP3   OH231015   5.803   2.707   6.412
10353TIP3    H131016   5.810   2.738   6.321
10353TIP3    H231017   5.780   2.615   6.403
10354TIP3   OH231018   5.044   1.723   1.948
10354TIP3    H131019   5.049   1.817   1.966
10354TIP3    H231020   5.046   1.716   1.853
10355TIP3   OH231021   3.903   6.597   3.097
10355TIP3    H131022   3.961   6.610   3.171
10355TIP3    H231023   3.872   6.507   3.106
10356TIP3   OH231024   0.454   1.130   2.189
10356TIP3    H131025   0.401   1.191   2.240
10356TIP3    H231026   0.501   1.185   2.126
10357TIP3   OH231027   0.875   3.402   2.579
10357TIP3    H131028   0.789   3.412   2.620
10357TIP3    H231029   0.889   3.307   2.575
10358TIP3   OH231030   3.031   2.330   3.352
10358TIP3    H131031   3.070   2.254   3.308
10358TIP3    H231032   3.091   2.349   3.424
10359TIP3   OH231033   6.393   1.857   4.962
10359TIP3    H131034   6.410   1.770   4.998
10359TIP3    H231035   6.466   1.911   4.995
10360TIP3   OH231036   7.839   0.780   0.957
10360TIP3    H131037   7.767   0.717   0.949
10360TIP3    H231038   7.846   0.797   1.051
10361TIP3   OH231039   3.955   5.131   0.637
10361TIP3    H131040   4.023   5.190   0.606
10361TIP3    H231041   3.977   5.046   0.599
10362TIP3   OH231042   1.218   6.341   2.554
10362TIP3    H131043   1.255   6.417   2.509
10362TIP3    H231044   1.193   6.373   2.640
10363TIP3   OH231045   1.706   1.431   5.265
10363TIP3    H131046   1.701   1.470   5.352
10363TIP3    H231047   1.616   1.403   5.245
10364TIP3   OH231048   6.476   3.840   2.428
10364TIP3    H131049   6.463   3.746   2.431
10364TIP3    H231050   6.522   3.856   2.345
10365TIP3   OH231051   2.325   7.169   3.671
10365TIP3    H131052   2.289   7.179   3.583
10365TIP3    H231053   2.400   7.110   3.659
10366TIP3   OH231054   3.787   5.568   3.618
10366TIP3    H131055   3.817   5.587   3.529
10366TIP3    H231056   3.769   5.474   3.618
10367TIP3   OH231057   5.117   6.001   5.637
10367TIP3    H131058   5.045   5.978   5.697
10367TIP3    H231059   5.169   5.921   5.631
10368TIP3   OH231060   3.873   2.734   5.751
10368TIP3    H131061   3.955   2.763   5.711
10368TIP3    H231062   3.843   2.810   5.800
10369TIP3   OH231063   2.384   7.487   3.307
10369TIP3    H131064   2.445   7.423   3.271
10369TIP3    H231065   2.392   7.562   3.249
10370TIP3   OH231066   1.837   6.944   1.763
10370TIP3    H131067   1.806   6.854   1.771
10370TIP3    H231068   1.759   6.995   1.740
10371TIP3   OH231069   7.496   5.612   6.493
10371TIP3    H131070   7.528   5.702   6.484
10371TIP3    H231071   7.479   5.602   6.587
10372TIP3   OH231072   8.027   4.590   4.345
10372TIP3    H131073   7.957   4.557   4.288
10372TIP3    H231074   8.013   4.684   4.348
10373TIP3   OH231075   1.819   2.730   2.606
10373TIP3    H131076   1.900   2.698   2.646
10373TIP3    H231077   1.841   2.818   2.574
10374TIP3   OH231078   3.217   0.466   1.300
10374TIP3    H131079   3.253   0.422   1.223
10374TIP3    H231080   3.241   0.411   1.374
10375TIP3   OH231081   3.476   2.881   4.381
10375TIP3    H131082   3.516   2.794   4.384
10375TIP3    H231083   3.506   2.917   4.298
10376TIP3   OH231084   4.670   1.417   3.931
10376TIP3    H131085   4.691   1.354   4.000
10376TIP3    H231086   4.636   1.493   3.977
10377TIP3   OH231087   6.448   2.372   5.166
10377TIP3    H131088   6.422   2.379   5.258
10377TIP3    H231089   6.427   2.458   5.128
10378TIP3   OH231090   3.211   2.625   4.670
10378TIP3    H131091   3.242   2.707   4.630
10378TIP3    H231092   3.126   2.647   4.706
10379TIP3   OH231093   6.139   3.182   2.270
10379TIP3    H131094   6.078   3.109   2.260
10379TIP3    H231095   6.224   3.146   2.244
10380TIP3   OH231096   7.394   0.796   1.071
10380TIP3    H131097   7.300   0.807   1.089
10380TIP3    H231098   7.434   0.784   1.158
10381TIP3   OH231099   2.380   3.842   4.239
10381TIP3    H131100   2.343   3.845   4.151
10381TIP3    H231101   2.421   3.928   4.251
10382TIP3   OH231102   0.332   7.543   4.322
10382TIP3    H131103   0.410   7.563   4.271
10382TIP3    H231104   0.303   7.629   4.355
10383TIP3   OH231105   7.990   4.946   3.847
10383TIP3    H131106   8.035   4.867   3.880
10383TIP3    H231107   7.959   4.990   3.926
10384TIP3   OH231108   2.339   5.450   6.217
10384TIP3    H131109   2.352   5.359   6.191
10384TIP3    H231110   2.290   5.444   6.299
10385TIP3   OH231111   6.034   7.258   0.929
10385TIP3    H131112   5.982   7.251   1.010
10385TIP3    H231113   6.121   7.229   0.954
10386TIP3   OH231114   7.322   6.522   0.809
10386TIP3    H131115   7.379   6.498   0.883
10386TIP3    H231116   7.372   6.494   0.732
10387TIP3   OH231117   3.973   2.861   6.792
10387TIP3    H131118   3.979   2.767   6.774
10387TIP3    H231119   4.004   2.903   6.711
10388TIP3   OH231120   4.377   5.415   4.477
10388TIP3    H131121   4.341   5.328   4.457
10388TIP3    H231122   4.380   5.418   4.572
10389TIP3   OH231123   1.205   3.690   2.612
10389TIP3    H131124   1.143   3.742   2.560
10389TIP3    H231125   1.290   3.706   2.570
10390TIP3   OH231126   1.917   2.547   3.487
10390TIP3    H131127   1.918   2.468   3.433
10390TIP3    H231128   1.995   2.596   3.460
10391TIP3   OH231129   5.940   1.749   1.633
10391TIP3    H131130   5.970   1.780   1.547
10391TIP3    H231131   6.003   1.681   1.657
10392TIP3   OH231132   7.705   7.168   2.169
10392TIP3    H131133   7.648   7.139   2.240
10392TIP3    H231134   7.670   7.127   2.091
10393TIP3   OH231135   4.143   1.327   4.784
10393TIP3    H131136   4.058   1.328   4.740
10393TIP3    H231137   4.206   1.350   4.716
10394TIP3   OH231138   0.989   5.481   1.186
10394TIP3    H131139   1.071   5.529   1.193
10394TIP3    H231140   0.990   5.443   1.098
10395TIP3   OH231141   7.953   5.635   2.169
10395TIP3    H131142   7.898   5.572   2.216
10395TIP3    H231143   7.892   5.703   2.140
10396TIP3   OH231144   3.214   2.050   0.229
10396TIP3    H131145   3.135   2.005   0.257
10396TIP3    H231146   3.277   1.980   0.212
10397TIP3   OH231147   4.253   2.380   0.050
10397TIP3    H131148   4.242   2.473   0.073
10397TIP3    H231149   4.321   2.380  -0.017
10398TIP3   OH231150   3.028   3.454   2.444
10398TIP3    H131151   2.989   3.530   2.487
10398TIP3    H231152   2.957   3.391   2.436
10399TIP3   OH231153   0.068   2.023   4.835
10399TIP3    H131154   0.043   2.067   4.754
10399TIP3    H231155   0.156   2.057   4.854
10400TIP3   OH231156   6.418   7.496   3.263
10400TIP3    H131157   6.429   7.405   3.235
10400TIP3    H231158   6.508   7.529   3.271
10401TIP3   OH231159   5.337   4.968   5.783
10401TIP3    H131160   5.329   4.900   5.716
10401TIP3    H231161   5.249   4.976   5.820
10402TIP3   OH231162   7.949   7.645   5.503
10402TIP3    H131163   8.030   7.647   5.451
10402TIP3    H231164   7.964   7.706   5.575
10403TIP3   OH231165   7.817   6.738   3.563
10403TIP3    H131166   7.880   6.744   3.491
10403TIP3    H231167   7.773   6.823   3.563
10404TIP3   OH231168   5.866   4.743   6.261
10404TIP3    H131169   5.913   4.712   6.183
10404TIP3    H231170   5.803   4.673   6.280
10405TIP3   OH231171   4.212   6.058   2.163
10405TIP3    H131172   4.192   6.144   2.127
10405TIP3    H231173   4.145   6.044   2.230
10406TIP3   OH231174   7.674   4.370   1.729
10406TIP3    H131175   7.616   4.295   1.722
10406TIP3    H231176   7.737   4.359   1.657
10407TIP3   OH231177   3.388   2.969   1.211
10407TIP3    H131178   3.396   2.875   1.227
10407TIP3    H231179   3.405   2.978   1.117
10408TIP3   OH231180   0.976   3.225   4.660
10408TIP3    H131181   1.062   3.194   4.630
10408TIP3    H231182   0.940   3.151   4.709
10409TIP3   OH231183   7.183   0.821   5.485
10409TIP3    H131184   7.247   0.803   5.416
10409TIP3    H231185   7.123   0.746   5.483
10410TIP3   OH231186   2.004  -0.009   0.202
10410TIP3    H131187   1.939  -0.053   0.258
10410TIP3    H231188   1.987  -0.042   0.114
10411TIP3   OH231189   4.842   6.189   5.729
10411TIP3    H131190   4.815   6.178   5.638
10411TIP3    H231191   4.783   6.133   5.779
10412TIP3   OH231192   4.031   6.987   4.513
10412TIP3    H131193   3.945   6.982   4.472
10412TIP3    H231194   4.092   6.997   4.439
10413TIP3   OH231195   3.832   0.902   5.626
10413TIP3    H131196   3.812   0.988   5.588
10413TIP3    H231197   3.919   0.913   5.665
10414TIP3   OH231198   5.610   6.480   0.730
10414TIP3    H131199   5.601   6.544   0.800
10414TIP3    H231200   5.575   6.525   0.652
10415TIP3   OH231201   0.690   3.885   5.480
10415TIP3    H131202   0.638   3.888   5.561
10415TIP3    H231203   0.714   3.793   5.471
10416TIP3   OH231204   6.380   5.650   5.731
10416TIP3    H131205   6.464   5.659   5.686
10416TIP3    H231206   6.396   5.685   5.819
10417TIP3   OH231207   7.948   5.009   2.085
10417TIP3    H131208   7.882   5.077   2.073
10417TIP3    H231209   7.900   4.927   2.071
10418TIP3   OH231210   2.814   5.627   4.660
10418TIP3    H131211   2.763   5.556   4.619
10418TIP3    H231212   2.838   5.684   4.587
10419TIP3   OH231213   3.510   3.800   1.154
10419TIP3    H131214   3.434   3.786   1.211
10419TIP3    H231215   3.473   3.835   1.073
10420TIP3   OH231216   7.101   2.161   5.752
10420TIP3    H131217   7.042   2.236   5.739
10420TIP3    H231218   7.045   2.094   5.792
10421TIP3   OH231219   5.282   4.767   1.288
10421TIP3    H131220   5.357   4.754   1.346
10421TIP3    H231221   5.241   4.681   1.283
10422TIP3   OH231222   7.830   5.540   3.207
10422TIP3    H131223   7.815   5.516   3.115
10422TIP3    H231224   7.854   5.632   3.204
10423TIP3   OH231225   5.190   3.801   0.042
10423TIP3    H131226   5.180   3.757  -0.042
10423TIP3    H231227   5.265   3.758   0.083
10424TIP3   OH231228   6.974   2.418   6.510
10424TIP3    H131229   7.067   2.439   6.520
10424TIP3    H231230   6.963   2.334   6.554
10425TIP3   OH231231   1.326   6.093   5.006
10425TIP3    H131232   1.325   6.016   4.949
10425TIP3    H231233   1.342   6.166   4.947
10426TIP3   OH231234   3.056   0.082   2.729
10426TIP3    H131235   3.085   0.082   2.638
10426TIP3    H231236   2.960   0.082   2.723
10427TIP3   OH231237   1.387   6.846   2.437
10427TIP3    H131238   1.364   6.908   2.507
10427TIP3    H231239   1.314   6.853   2.375
10428TIP3   OH231240   7.108   7.214   1.163
10428TIP3    H131241   7.157   7.155   1.106
10428TIP3    H231242   7.081   7.160   1.236
10429TIP3   OH231243   7.366   2.578   3.528
10429TIP3    H131244   7.324   2.518   3.466
10429TIP3    H231245   7.440   2.615   3.479
10430TIP3   OH231246   1.880   1.898   5.310
10430TIP3    H131247   1.830   1.824   5.275
10430TIP3    H231248   1.867   1.968   5.246
10431TIP3   OH231249   5.455   5.656   6.356
10431TIP3    H131250   5.409   5.669   6.274
10431TIP3    H231251   5.526   5.720   6.355
10432TIP3   OH231252   2.752   2.801   3.477
10432TIP3    H131253   2.790   2.802   3.389
10432TIP3    H231254   2.804   2.736   3.525
10433TIP3   OH231255   8.056   2.083   3.452
10433TIP3    H131256   8.117   2.016   3.482
10433TIP3    H231257   7.992   2.091   3.522
10434TIP3   OH231258   3.441   3.147   5.334
10434TIP3    H131259   3.428   3.055   5.355
10434TIP3    H231260   3.360   3.189   5.362
10435TIP3   OH231261   4.159   1.360   1.793
10435TIP3    H131262   4.184   1.269   1.773
10435TIP3    H231263   4.076   1.372   1.747
10436TIP3   OH231264   5.930   3.006   4.934
10436TIP3    H131265   5.920   3.094   4.970
10436TIP3    H231266   5.991   3.016   4.861
10437TIP3   OH231267   2.028   0.285   1.480
10437TIP3    H131268   1.948   0.262   1.434
10437TIP3    H231269   2.068   0.201   1.503
10438TIP3   OH231270   5.834   5.853   1.714
10438TIP3    H131271   5.815   5.769   1.754
10438TIP3    H231272   5.833   5.915   1.787
10439TIP3   OH231273   7.543   1.741   2.544
10439TIP3    H131274   7.478   1.759   2.476
10439TIP3    H231275   7.625   1.726   2.497
10440TIP3   OH231276   7.561   3.497   2.840
10440TIP3    H131277   7.597   3.528   2.757
10440TIP3    H231278   7.578   3.402   2.839
10441TIP3   OH231279   5.489   7.338   6.613
10441TIP3    H131280   5.504   7.268   6.676
10441TIP3    H231281   5.437   7.403   6.662
10442TIP3   OH231282   3.955   0.478   2.703
10442TIP3    H131283   3.912   0.407   2.655
10442TIP3    H231284   3.890   0.548   2.705
10443TIP3   OH231285   4.524   7.409   5.649
10443TIP3    H131286   4.463   7.420   5.722
10443TIP3    H231287   4.562   7.496   5.637
10444TIP3   OH231288   1.986   5.205   6.085
10444TIP3    H131289   1.983   5.109   6.095
10444TIP3    H231290   1.897   5.229   6.063
10445TIP3   OH231291   5.720   6.006   0.222
10445TIP3    H131292   5.816   5.997   0.225
10445TIP3    H231293   5.688   5.916   0.222
10446TIP3   OH231294   5.822   1.407   2.161
10446TIP3    H131295   5.763   1.476   2.188
10446TIP3    H231296   5.771   1.354   2.100
10447TIP3   OH231297   1.948   0.948   1.899
10447TIP3    H131298   1.896   0.981   1.826
10447TIP3    H231299   1.886   0.899   1.953
10448TIP3   OH231300   7.343   2.011   0.998
10448TIP3    H131301   7.345   1.922   0.965
10448TIP3    H231302   7.311   2.003   1.088
10449TIP3   OH231303   0.666   2.336   5.715
10449TIP3    H131304   0.728   2.392   5.761
10449TIP3    H231305   0.607   2.396   5.670
10450TIP3   OH231306   4.679   0.387   4.406
10450TIP3    H131307   4.735   0.341   4.468
10450TIP3    H231308   4.712   0.477   4.407
10451TIP3   OH231309   4.714   6.818   3.869
10451TIP3    H131310   4.693   6.885   3.803
10451TIP3    H231311   4.679   6.854   3.951
10452TIP3   OH231312   3.561   2.623   2.571
10452TIP3    H131313   3.652   2.618   2.540
10452TIP3    H231314   3.562   2.574   2.654
10453TIP3   OH231315   6.829   6.699   0.843
10453TIP3    H131316   6.805   6.645   0.768
10453TIP3    H231317   6.898   6.649   0.887
10454TIP3   OH231318   2.711   3.386   4.333
10454TIP3    H131319   2.681   3.332   4.260
10454TIP3    H231320   2.693   3.476   4.307
10455TIP3   OH231321   1.395   0.912   6.402
10455TIP3    H131322   1.305   0.939   6.383
10455TIP3    H231323   1.412   0.945   6.489
10456TIP3   OH231324   7.837   4.611   5.096
10456TIP3    H131325   7.797   4.587   5.179
10456TIP3    H231326   7.778   4.677   5.059
10457TIP3   OH231327   3.108   3.503   5.658
10457TIP3    H131328   3.062   3.502   5.574
10457TIP3    H231329   3.195   3.538   5.639
10458TIP3   OH231330   4.615   4.294   5.044
10458TIP3    H131331   4.645   4.282   5.134
10458TIP3    H231332   4.688   4.262   4.991
10459TIP3   OH231333   7.426   7.368   0.155
10459TIP3    H131334   7.347   7.379   0.208
10459TIP3    H231335   7.426   7.443   0.095
10460TIP3   OH231336   0.482   0.679   4.898
10460TIP3    H131337   0.498   0.634   4.815
10460TIP3    H231338   0.479   0.772   4.874
10461TIP3   OH231339   0.257   3.038   5.080
10461TIP3    H131340   0.286   2.999   5.162
10461TIP3    H231341   0.214   2.967   5.034
10462TIP3   OH231342   2.802   7.469   2.711
10462TIP3    H131343   2.755   7.476   2.794
10462TIP3    H231344   2.759   7.398   2.664
10463TIP3   OH231345   7.884   0.743   4.849
10463TIP3    H131346   7.923   0.662   4.817
10463TIP3    H231347   7.956   0.791   4.890
10464TIP3   OH231348   8.261   7.826   6.591
10464TIP3    H131349   8.170   7.815   6.565
10464TIP3    H231350   8.311   7.809   6.511
10465TIP3   OH231351   3.164   2.103   1.524
10465TIP3    H131352   3.188   2.011   1.522
10465TIP3    H231353   3.244   2.149   1.499
10466TIP3   OH231354   4.467   2.741   2.558
10466TIP3    H131355   4.373   2.737   2.540
10466TIP3    H231356   4.508   2.741   2.471
10467TIP3   OH231357   6.090   5.707   0.741
10467TIP3    H131358   6.081   5.770   0.812
10467TIP3    H231359   6.104   5.760   0.663
10468TIP3   OH231360   6.479   2.625   5.068
10468TIP3    H131361   6.569   2.658   5.065
10468TIP3    H231362   6.425   2.704   5.063
10469TIP3   OH231363   4.523   6.198   0.118
10469TIP3    H131364   4.496   6.174   0.207
10469TIP3    H231365   4.493   6.125   0.064
10470TIP3   OH231366   1.680   5.601   3.092
10470TIP3    H131367   1.597   5.631   3.128
10470TIP3    H231368   1.668   5.606   2.997
10471TIP3   OH231369   8.292   4.486   2.867
10471TIP3    H131370   8.243   4.463   2.946
10471TIP3    H231371   8.255   4.431   2.798
10472TIP3   OH231372   3.604   1.896   3.529
10472TIP3    H131373   3.606   1.981   3.486
10472TIP3    H231374   3.587   1.915   3.622
10473TIP3   OH231375   2.266   2.410   3.485
10473TIP3    H131376   2.246   2.394   3.393
10473TIP3    H231377   2.313   2.494   3.485
10474TIP3   OH231378   7.941   6.107   1.792
10474TIP3    H131379   7.967   6.139   1.706
10474TIP3    H231380   7.856   6.065   1.777
10475TIP3   OH231381   5.571   0.290   6.344
10475TIP3    H131382   5.584   0.199   6.320
10475TIP3    H231383   5.616   0.340   6.275
10476TIP3   OH231384   4.027   6.397   1.989
10476TIP3    H131385   4.097   6.333   1.977
10476TIP3    H231386   4.070   6.482   1.985
10477TIP3   OH231387   1.295   7.421   4.302
10477TIP3    H131388   1.286   7.342   4.249
10477TIP3    H231389   1.389   7.439   4.303
10478TIP3   OH231390   7.311   3.295   2.462
10478TIP3    H131391   7.321   3.390   2.459
10478TIP3    H231392   7.335   3.271   2.551
10479TIP3   OH231393   5.103   6.765   4.862
10479TIP3    H131394   5.030   6.824   4.881
10479TIP3    H231395   5.149   6.807   4.789
10480TIP3   OH231396   5.273   5.247   6.216
10480TIP3    H131397   5.316   5.281   6.137
10480TIP3    H231398   5.212   5.181   6.184
10481TIP3   OH231399   2.625   6.964   1.241
10481TIP3    H131400   2.662   6.941   1.326
10481TIP3    H231401   2.700   6.995   1.190
10482TIP3   OH231402   4.896   4.890   6.379
10482TIP3    H131403   4.878   4.803   6.344
10482TIP3    H231404   4.863   4.951   6.313
10483TIP3   OH231405   6.053   5.079   6.605
10483TIP3    H131406   5.966   5.049   6.632
10483TIP3    H231407   6.087   5.008   6.551
10484TIP3   OH231408   4.068   5.369   1.907
10484TIP3    H131409   4.041   5.434   1.972
10484TIP3    H231410   4.049   5.410   1.823
10485TIP3   OH231411   7.207   0.447   2.696
10485TIP3    H131412   7.260   0.488   2.628
10485TIP3    H231413   7.167   0.520   2.743
10486TIP3   OH231414   0.084   3.489   5.490
10486TIP3    H131415   0.101   3.582   5.506
10486TIP3    H231416   0.001   3.472   5.535
10487TIP3   OH231417   7.358   5.516   5.158
10487TIP3    H131418   7.275   5.538   5.114
10487TIP3    H231419   7.371   5.423   5.139
10488TIP3   OH231420   0.654   6.283   4.696
10488TIP3    H131421   0.654   6.191   4.671
10488TIP3    H231422   0.745   6.311   4.686
10489TIP3   OH231423   2.977   6.690   1.882
10489TIP3    H131424   2.941   6.602   1.883
10489TIP3    H231425   3.068   6.680   1.911
10490TIP3   OH231426   5.569   0.514   3.003
10490TIP3    H131427   5.637   0.462   3.047
10490TIP3    H231428   5.489   0.463   3.015
10491TIP3   OH231429   7.431   6.644   3.475
10491TIP3    H131430   7.376   6.688   3.410
10491TIP3    H231431   7.380   6.568   3.501
10492TIP3   OH231432   1.858   2.828   3.081
10492TIP3    H131433   1.793   2.886   3.120
10492TIP3    H231434   1.822   2.740   3.094
10493TIP3   OH231435   4.335   7.756   3.232
10493TIP3    H131436   4.299   7.780   3.318
10493TIP3    H231437   4.394   7.683   3.251
10494TIP3   OH231438   2.113   3.510   5.697
10494TIP3    H131439   2.140   3.420   5.717
10494TIP3    H231440   2.137   3.523   5.606
10495TIP3   OH231441   5.502   3.369   6.776
10495TIP3    H131442   5.520   3.276   6.763
10495TIP3    H231443   5.547   3.412   6.703
10496TIP3   OH231444   6.588   7.330   1.434
10496TIP3    H131445   6.524   7.275   1.480
10496TIP3    H231446   6.609   7.399   1.496
10497TIP3   OH231447   0.689   5.651   3.739
10497TIP3    H131448   0.686   5.728   3.796
10497TIP3    H231449   0.768   5.604   3.766
10498TIP3   OH231450   6.193   7.156   1.804
10498TIP3    H131451   6.224   7.106   1.728
10498TIP3    H231452   6.229   7.243   1.792
10499TIP3   OH231453   7.163   4.574   1.439
10499TIP3    H131454   7.242   4.535   1.478
10499TIP3    H231455   7.092   4.547   1.497
10500TIP3   OH231456   4.399   0.611   5.942
10500TIP3    H131457   4.322   0.574   5.899
10500TIP3    H231458   4.372   0.625   6.032
10501TIP3   OH231459   1.687   7.157   1.722
10501TIP3    H131460   1.628   7.169   1.797
10501TIP3    H231461   1.643   7.201   1.649
10502TIP3   OH231462   8.101   1.661   1.950
10502TIP3    H131463   8.051   1.587   1.984
10502TIP3    H231464   8.175   1.670   2.009
10503TIP3   OH231465   3.141   7.161   0.972
10503TIP3    H131466   3.167   7.167   1.064
10503TIP3    H231467   3.061   7.212   0.966
10504TIP3   OH231468   4.942   5.652   0.984
10504TIP3    H131469   4.963   5.688   1.070
10504TIP3    H231470   4.851   5.679   0.968
10505TIP3   OH231471   3.480   6.168   0.411
10505TIP3    H131472   3.528   6.086   0.400
10505TIP3    H231473   3.411   6.148   0.474
10506TIP3   OH231474   6.615   2.739   3.268
10506TIP3    H131475   6.671   2.766   3.196
10506TIP3    H231476   6.664   2.669   3.311
10507TIP3   OH231477   0.375   0.165   3.440
10507TIP3    H131478   0.469   0.149   3.436
10507TIP3    H231479   0.366   0.238   3.502
10508TIP3   OH231480   7.061   2.304   1.319
10508TIP3    H131481   7.051   2.238   1.250
10508TIP3    H231482   6.975   2.308   1.361
10509TIP3   OH231483   2.807   4.372   4.448
10509TIP3    H131484   2.798   4.416   4.532
10509TIP3    H231485   2.892   4.401   4.414
10510TIP3   OH231486   5.191   2.352   4.107
10510TIP3    H131487   5.143   2.281   4.150
10510TIP3    H231488   5.281   2.342   4.137
10511TIP3   OH231489   7.540   3.706   3.221
10511TIP3    H131490   7.497   3.637   3.273
10511TIP3    H231491   7.610   3.660   3.174
10512TIP3   OH231492   5.298   1.218   2.658
10512TIP3    H131493   5.244   1.289   2.692
10512TIP3    H231494   5.365   1.261   2.605
10513TIP3   OH231495   3.141   0.101   2.451
10513TIP3    H131496   3.158   0.079   2.360
10513TIP3    H231497   3.180   0.187   2.464
10514TIP3   OH231498   7.982   2.508   5.417
10514TIP3    H131499   8.014   2.566   5.348
10514TIP3    H231500   8.002   2.554   5.498
10515TIP3   OH231501   6.438   5.763   3.472
10515TIP3    H131502   6.361   5.819   3.485
10515TIP3    H231503   6.452   5.721   3.556
10516TIP3   OH231504   4.719   1.734   4.479
10516TIP3    H131505   4.772   1.796   4.428
10516TIP3    H231506   4.757   1.735   4.566
10517TIP3   OH231507   2.120   4.091   2.248
10517TIP3    H131508   2.041   4.145   2.256
10517TIP3    H231509   2.119   4.035   2.325
10518TIP3   OH231510   8.139   7.329   6.109
10518TIP3    H131511   8.216   7.294   6.064
10518TIP3    H231512   8.100   7.389   6.046
10519TIP3   OH231513   3.323   4.567   5.846
10519TIP3    H131514   3.247   4.511   5.829
10519TIP3    H231515   3.327   4.625   5.770
10520TIP3   OH231516   0.444   1.282   1.303
10520TIP3    H131517   0.516   1.344   1.313
10520TIP3    H231518   0.472   1.224   1.232
10521TIP3   OH231519   4.018   4.939   2.859
10521TIP3    H131520   4.060   4.853   2.866
10521TIP3    H231521   4.054   4.990   2.931
10522TIP3   OH231522   8.076   4.206   0.480
10522TIP3    H131523   8.055   4.184   0.571
10522TIP3    H231524   7.991   4.227   0.440
10523TIP3   OH231525   2.402   6.586   0.178
10523TIP3    H131526   2.442   6.625   0.256
10523TIP3    H231527   2.311   6.616   0.180
10524TIP3   OH231528   6.816   1.370   4.651
10524TIP3    H131529   6.893   1.313   4.650
10524TIP3    H231530   6.844   1.449   4.606
10525TIP3   OH231531   4.951   1.604   3.854
10525TIP3    H131532   4.969   1.547   3.780
10525TIP3    H231533   4.928   1.544   3.926
10526TIP3   OH231534   3.843   2.813   3.286
10526TIP3    H131535   3.764   2.786   3.333
10526TIP3    H231536   3.906   2.832   3.356
10527TIP3   OH231537   0.332   7.765   4.493
10527TIP3    H131538   0.272   7.840   4.492
10527TIP3    H231539   0.336   7.739   4.584
10528TIP3   OH231540   1.119   3.407   3.078
10528TIP3    H131541   1.157   3.485   3.037
10528TIP3    H231542   1.123   3.424   3.172
10529TIP3   OH231543   7.054   4.062   4.797
10529TIP3    H131544   7.105   4.062   4.878
10529TIP3    H231545   7.079   3.980   4.753
10530TIP3   OH231546   5.290   0.028   4.749
10530TIP3    H131547   5.385   0.044   4.749
10530TIP3    H231548   5.252   0.111   4.780
10531TIP3   OH231549   7.753   7.055   3.226
10531TIP3    H131550   7.841   7.071   3.260
10531TIP3    H231551   7.720   7.142   3.203
10532TIP3   OH231552   7.906   1.516   1.710
10532TIP3    H131553   7.876   1.455   1.777
10532TIP3    H231554   7.995   1.541   1.737
10533TIP3   OH231555   2.472   0.911   5.140
10533TIP3    H131556   2.512   0.995   5.162
10533TIP3    H231557   2.545   0.849   5.140
10534TIP3   OH231558   8.169   7.586   5.300
10534TIP3    H131559   8.129   7.578   5.214
10534TIP3    H231560   8.210   7.673   5.299
10535TIP3   OH231561   0.302   2.896   5.820
10535TIP3    H131562   0.317   2.970   5.761
10535TIP3    H231563   0.388   2.877   5.858
10536TIP3   OH231564   4.997   6.235   2.136
10536TIP3    H131565   5.060   6.163   2.133
10536TIP3    H231566   4.968   6.238   2.227
10537TIP3   OH231567   2.033   5.705   2.330
10537TIP3    H131568   2.027   5.631   2.269
10537TIP3    H231569   2.126   5.727   2.332
10538TIP3   OH231570   1.492   6.402   1.301
10538TIP3    H131571   1.396   6.403   1.297
10538TIP3    H231572   1.512   6.420   1.392
10539TIP3   OH231573   2.594   4.827   5.335
10539TIP3    H131574   2.520   4.766   5.343
10539TIP3    H231575   2.650   4.787   5.268
10540TIP3   OH231576   7.403   6.747   5.196
10540TIP3    H131577   7.430   6.686   5.265
10540TIP3    H231578   7.437   6.708   5.115
10541TIP3   OH231579   2.047   4.139   2.623
10541TIP3    H131580   2.104   4.100   2.557
10541TIP3    H231581   2.082   4.227   2.636
10542TIP3   OH231582   5.159   1.438   6.059
10542TIP3    H131583   5.092   1.370   6.060
10542TIP3    H231584   5.192   1.439   6.150
10543TIP3   OH231585   7.212   6.340   5.799
10543TIP3    H131586   7.199   6.261   5.747
10543TIP3    H231587   7.306   6.343   5.816
10544TIP3   OH231588   5.790   5.627   1.874
10544TIP3    H131589   5.873   5.604   1.916
10544TIP3    H231590   5.752   5.543   1.849
10545TIP3   OH231591   0.812   5.377   6.582
10545TIP3    H131592   0.795   5.452   6.525
10545TIP3    H231593   0.841   5.414   6.665
10546TIP3   OH231594   7.585   4.580   6.517
10546TIP3    H131595   7.548   4.668   6.524
10546TIP3    H231596   7.514   4.521   6.545
10547TIP3   OH231597   3.676   5.307   3.662
10547TIP3    H131598   3.638   5.285   3.748
10547TIP3    H231599   3.617   5.265   3.599
10548TIP3   OH231600   1.744   7.526   3.859
10548TIP3    H131601   1.748   7.453   3.797
10548TIP3    H231602   1.738   7.603   3.803
10549TIP3   OH231603   4.764   6.187   2.788
10549TIP3    H131604   4.759   6.118   2.854
10549TIP3    H231605   4.856   6.187   2.760
10550TIP3   OH231606   0.763   2.330   4.505
10550TIP3    H131607   0.833   2.284   4.552
10550TIP3    H231608   0.764   2.418   4.542
10551TIP3   OH231609   3.865   4.502   5.727
10551TIP3    H131610   3.931   4.553   5.774
10551TIP3    H231611   3.784   4.517   5.776
10552TIP3   OH231612   3.682   4.840   5.333
10552TIP3    H131613   3.591   4.863   5.316
10552TIP3    H231614   3.725   4.924   5.351
10553TIP3   OH231615   5.421   2.878   0.759
10553TIP3    H131616   5.327   2.871   0.770
10553TIP3    H231617   5.446   2.954   0.812
10554TIP3   OH231618   0.531   5.273   3.362
10554TIP3    H131619   0.527   5.293   3.455
10554TIP3    H231620   0.446   5.301   3.327
10555TIP3   OH231621   4.682   7.140   3.340
10555TIP3    H131622   4.677   7.211   3.404
10555TIP3    H231623   4.600   7.092   3.351
10556TIP3   OH231624   3.116   0.269   4.478
10556TIP3    H131625   3.091   0.330   4.409
10556TIP3    H231626   3.058   0.290   4.551
10557TIP3   OH231627   2.489   1.960   2.196
10557TIP3    H131628   2.462   1.931   2.109
10557TIP3    H231629   2.571   2.007   2.182
10558TIP3   OH231630   5.725   4.023   1.002
10558TIP3    H131631   5.690   4.095   0.949
10558TIP3    H231632   5.649   3.992   1.052
10559TIP3   OH231633   4.036   6.688   2.699
10559TIP3    H131634   3.991   6.646   2.626
10559TIP3    H231635   4.128   6.686   2.675
10560TIP3   OH231636   2.245   1.614   5.271
10560TIP3    H131637   2.246   1.519   5.282
10560TIP3    H231638   2.337   1.640   5.275
10561TIP3   OH231639   3.703   6.575   5.959
10561TIP3    H131640   3.717   6.623   5.878
10561TIP3    H231641   3.613   6.542   5.952
10562TIP3   OH231642   2.411   1.603   4.107
10562TIP3    H131643   2.329   1.615   4.060
10562TIP3    H231644   2.470   1.565   4.041
10563TIP3   OH231645   4.791   3.111   3.748
10563TIP3    H131646   4.717   3.080   3.799
10563TIP3    H231647   4.868   3.074   3.792
10564TIP3   OH231648   7.261   1.108   3.254
10564TIP3    H131649   7.298   1.196   3.248
10564TIP3    H231650   7.191   1.116   3.319
10565TIP3   OH231651   2.280   5.802   3.216
10565TIP3    H131652   2.371   5.806   3.186
10565TIP3    H231653   2.249   5.717   3.186
10566TIP3   OH231654   0.685   0.490   6.234
10566TIP3    H131655   0.765   0.523   6.192
10566TIP3    H231656   0.712   0.406   6.272
10567TIP3   OH231657   2.161   4.621   4.558
10567TIP3    H131658   2.187   4.550   4.499
10567TIP3    H231659   2.066   4.611   4.567
10568TIP3   OH231660   1.782   7.371   4.908
10568TIP3    H131661   1.810   7.283   4.883
10568TIP3    H231662   1.770   7.418   4.826
10569TIP3   OH231663   1.361   3.239   1.999
10569TIP3    H131664   1.348   3.145   2.009
10569TIP3    H231665   1.437   3.247   1.942
10570TIP3   OH231666   4.173   2.306   2.739
10570TIP3    H131667   4.190   2.311   2.645
10570TIP3    H231668   4.201   2.391   2.773
10571TIP3   OH231669   3.017   4.813   1.764
10571TIP3    H131670   3.047   4.895   1.804
10571TIP3    H231671   3.068   4.745   1.808
10572TIP3   OH231672   6.684   7.737   2.019
10572TIP3    H131673   6.777   7.740   2.041
10572TIP3    H231674   6.640   7.785   2.088
10573TIP3   OH231675   0.299   3.243   5.370
10573TIP3    H131676   0.250   3.287   5.439
10573TIP3    H231677   0.243   3.251   5.292
10574TIP3   OH231678   5.304   3.346   0.135
10574TIP3    H131679   5.269   3.302   0.213
10574TIP3    H231680   5.239   3.414   0.116
10575TIP3   OH231681   2.206   5.961   3.865
10575TIP3    H131682   2.185   5.978   3.957
10575TIP3    H231683   2.132   5.998   3.817
10576TIP3   OH231684   1.429   2.734   1.655
10576TIP3    H131685   1.498   2.792   1.686
10576TIP3    H231686   1.466   2.691   1.578
10577TIP3   OH231687   7.838   7.609   1.802
10577TIP3    H131688   7.849   7.572   1.714
10577TIP3    H231689   7.927   7.627   1.832
10578TIP3   OH231690   1.605   5.568   5.509
10578TIP3    H131691   1.669   5.500   5.492
10578TIP3    H231692   1.630   5.640   5.451
10579TIP3   OH231693   7.416   6.091   4.419
10579TIP3    H131694   7.502   6.121   4.449
10579TIP3    H231695   7.420   5.996   4.424
10580TIP3   OH231696   6.022   4.667   6.735
10580TIP3    H131697   5.939   4.705   6.765
10580TIP3    H231698   6.051   4.726   6.666
10581TIP3   OH231699   8.085   7.033   0.626
10581TIP3    H131700   8.074   7.090   0.550
10581TIP3    H231701   8.128   7.088   0.691
10582TIP3   OH231702   7.621   3.677   6.214
10582TIP3    H131703   7.634   3.772   6.206
10582TIP3    H231704   7.633   3.643   6.125
10583TIP3   OH231705   6.741   6.969   3.598
10583TIP3    H131706   6.675   6.903   3.577
10583TIP3    H231707   6.773   6.945   3.685
10584TIP3   OH231708   0.199   3.425   2.247
10584TIP3    H131709   0.159   3.351   2.202
10584TIP3    H231710   0.131   3.492   2.249
10585TIP3   OH231711   2.872   0.471   6.018
10585TIP3    H131712   2.967   0.478   6.015
10585TIP3    H231713   2.841   0.562   6.013
10586TIP3   OH231714   3.782   3.549   4.406
10586TIP3    H131715   3.828   3.518   4.328
10586TIP3    H231716   3.817   3.495   4.477
10587TIP3   OH231717   5.415   3.444   0.581
10587TIP3    H131718   5.422   3.355   0.548
10587TIP3    H231719   5.480   3.494   0.531
10588TIP3   OH231720   6.155   7.750   5.925
10588TIP3    H131721   6.172   7.719   6.014
10588TIP3    H231722   6.064   7.780   5.928
10589TIP3   OH231723   3.055   4.323   4.143
10589TIP3    H131724   2.963   4.294   4.149
10589TIP3    H231725   3.063   4.361   4.056
10590TIP3   OH231726   7.321   1.634   6.548
10590TIP3    H131727   7.313   1.729   6.539
10590TIP3    H231728   7.321   1.602   6.458
10591TIP3   OH231729   0.310   0.456   4.663
10591TIP3    H131730   0.332   0.388   4.727
10591TIP3    H231731   0.269   0.526   4.714
10592TIP3   OH231732   4.298   1.099   4.585
10592TIP3    H131733   4.313   1.186   4.549
10592TIP3    H231734   4.204   1.084   4.572
10593TIP3   OH231735   8.132   4.160   4.665
10593TIP3    H131736   8.049   4.117   4.688
10593TIP3    H231737   8.107   4.230   4.604
10594TIP3   OH231738   7.056   4.194   2.511
10594TIP3    H131739   7.135   4.149   2.481
10594TIP3    H231740   6.994   4.123   2.528
10595TIP3   OH231741   0.547   6.722   3.695
10595TIP3    H131742   0.458   6.690   3.687
10595TIP3    H231743   0.539   6.818   3.694
10596TIP3   OH231744   0.130   2.039   3.917
10596TIP3    H131745   0.208   1.985   3.925
10596TIP3    H231746   0.164   2.129   3.909
10597TIP3   OH231747   6.903   7.310   3.429
10597TIP3    H131748   6.853   7.230   3.411
10597TIP3    H231749   6.964   7.317   3.355
10598TIP3   OH231750   7.793   7.342   2.367
10598TIP3    H131751   7.747   7.293   2.435
10598TIP3    H231752   7.789   7.285   2.290
10599TIP3   OH231753   6.254   3.703   1.598
10599TIP3    H131754   6.223   3.670   1.514
10599TIP3    H231755   6.349   3.692   1.594
10600TIP3   OH231756   0.924   3.588   2.788
10600TIP3    H131757   0.858   3.657   2.778
10600TIP3    H231758   0.902   3.524   2.720
10601TIP3   OH231759   3.064   0.971   2.452
10601TIP3    H131760   3.008   1.028   2.400
10601TIP3    H231761   3.083   1.021   2.531
10602TIP3   OH231762   6.386   5.310   0.180
10602TIP3    H131763   6.389   5.231   0.233
10602TIP3    H231764   6.363   5.280   0.092
10603TIP3   OH231765   2.481   3.196   3.530
10603TIP3    H131766   2.567   3.170   3.495
10603TIP3    H231767   2.447   3.117   3.571
10604TIP3   OH231768   4.693   4.086   0.284
10604TIP3    H131769   4.785   4.092   0.261
10604TIP3    H231770   4.661   4.011   0.234
10605TIP3   OH231771   1.822   4.694   3.002
10605TIP3    H131772   1.779   4.644   2.933
10605TIP3    H231773   1.779   4.665   3.083
10606TIP3   OH231774   7.182   6.122   4.921
10606TIP3    H131775   7.237   6.068   4.864
10606TIP3    H231776   7.116   6.160   4.862
10607TIP3   OH231777   5.400   3.953   5.653
10607TIP3    H131778   5.345   3.879   5.679
10607TIP3    H231779   5.429   3.932   5.565
10608TIP3   OH231780   3.017   5.961   2.647
10608TIP3    H131781   3.075   5.989   2.718
10608TIP3    H231782   2.966   5.889   2.684
10609TIP3   OH231783   6.868   4.223   4.701
10609TIP3    H131784   6.929   4.168   4.750
10609TIP3    H231785   6.834   4.166   4.632
10610TIP3   OH231786   4.881   4.572   5.213
10610TIP3    H131787   4.965   4.591   5.171
10610TIP3    H231788   4.902   4.558   5.305
10611TIP3   OH231789   3.528   2.738   2.994
10611TIP3    H131790   3.583   2.661   3.007
10611TIP3    H231791   3.548   2.767   2.905
10612TIP3   OH231792   6.070   2.216   2.000
10612TIP3    H131793   6.165   2.210   1.994
10612TIP3    H231794   6.050   2.198   2.092
10613TIP3   OH231795   7.115   7.414   6.686
10613TIP3    H131796   7.096   7.353   6.615
10613TIP3    H231797   7.040   7.474   6.686
10614TIP3   OH231798   3.629   1.901   6.160
10614TIP3    H131799   3.600   1.868   6.245
10614TIP3    H231800   3.723   1.884   6.158
10615TIP3   OH231801   0.305   4.857   6.463
10615TIP3    H131802   0.247   4.921   6.421
10615TIP3    H231803   0.321   4.791   6.396
10616TIP3   OH231804   5.050   3.324   1.580
10616TIP3    H131805   5.055   3.258   1.649
10616TIP3    H231806   5.062   3.408   1.625
10617TIP3   OH231807   3.392   4.207   2.656
10617TIP3    H131808   3.333   4.263   2.606
10617TIP3    H231809   3.399   4.250   2.741
10618TIP3   OH231810   2.995   5.728   3.620
10618TIP3    H131811   2.949   5.699   3.541
10618TIP3    H231812   2.932   5.785   3.664
10619TIP3   OH231813   7.810   0.817   5.688
10619TIP3    H131814   7.742   0.750   5.692
10619TIP3    H231815   7.791   0.875   5.761
10620TIP3   OH231816   4.930   6.579   2.334
10620TIP3    H131817   5.024   6.564   2.325
10620TIP3    H231818   4.907   6.540   2.419
10621TIP3   OH231819   6.060   3.142   3.253
10621TIP3    H131820   6.106   3.094   3.184
10621TIP3    H231821   6.117   3.215   3.275
10622TIP3   OH231822   8.050   6.019   2.477
10622TIP3    H131823   8.007   5.959   2.538
10622TIP3    H231824   8.090   5.961   2.411
10623TIP3   OH231825   2.741   4.124   1.099
10623TIP3    H131826   2.791   4.066   1.042
10623TIP3    H231827   2.685   4.174   1.040
10624TIP3   OH231828   2.766   2.762   3.911
10624TIP3    H131829   2.732   2.672   3.909
10624TIP3    H231830   2.725   2.805   3.836
10625TIP3   OH231831   0.942   5.637   5.401
10625TIP3    H131832   0.989   5.607   5.479
10625TIP3    H231833   0.860   5.672   5.434
10626TIP3   OH231834   1.479   5.571   6.658
10626TIP3    H131835   1.564   5.609   6.633
10626TIP3    H231836   1.415   5.637   6.632
10627TIP3   OH231837   6.457   0.531   5.328
10627TIP3    H131838   6.534   0.489   5.366
10627TIP3    H231839   6.396   0.459   5.311
10628TIP3   OH231840   0.487   2.182   5.967
10628TIP3    H131841   0.576   2.154   5.990
10628TIP3    H231842   0.481   2.168   5.873
10629TIP3   OH231843   1.051   5.841   4.152
10629TIP3    H131844   1.056   5.751   4.184
10629TIP3    H231845   1.061   5.834   4.057
10630TIP3   OH231846   1.978   5.461   4.330
10630TIP3    H131847   2.059   5.508   4.352
10630TIP3    H231848   1.939   5.512   4.260
10631TIP3   OH231849   7.003   2.568   2.836
10631TIP3    H131850   7.043   2.511   2.770
10631TIP3    H231851   6.919   2.526   2.855
10632TIP3   OH231852   4.998   4.393   4.035
10632TIP3    H131853   4.962   4.480   4.054
10632TIP3    H231854   5.003   4.351   4.121
10633TIP3   OH231855   2.985   5.328   2.303
10633TIP3    H131856   2.912   5.290   2.352
10633TIP3    H231857   2.989   5.419   2.332
10634TIP3   OH231858   0.063   4.588   5.447
10634TIP3    H131859   0.049   4.635   5.365
10634TIP3    H231860   0.157   4.573   5.451
10635TIP3   OH231861   2.070   5.219   5.435
10635TIP3    H131862   2.045   5.286   5.498
10635TIP3    H231863   2.018   5.142   5.459
10636TIP3   OH231864   1.242   7.343   5.314
10636TIP3    H131865   1.221   7.280   5.383
10636TIP3    H231866   1.169   7.405   5.317
10637TIP3   OH231867   1.643   4.361   0.327
10637TIP3    H131868   1.697   4.297   0.373
10637TIP3    H231869   1.602   4.412   0.397
10638TIP3   OH231870   1.417   6.607   2.055
10638TIP3    H131871   1.489   6.661   2.087
10638TIP3    H231872   1.372   6.662   1.991
10639TIP3   OH231873   5.914   7.215   1.162
10639TIP3    H131874   5.934   7.127   1.194
10639TIP3    H231875   5.819   7.222   1.168
10640TIP3   OH231876   2.383   1.762   1.625
10640TIP3    H131877   2.430   1.683   1.652
10640TIP3    H231878   2.443   1.805   1.565
10641TIP3   OH231879   3.679   4.552   3.075
10641TIP3    H131880   3.724   4.599   3.005
10641TIP3    H231881   3.749   4.507   3.122
10642TIP3   OH231882   6.646   0.889   0.296
10642TIP3    H131883   6.730   0.897   0.341
10642TIP3    H231884   6.584   0.864   0.365
10643TIP3   OH231885   2.136   3.559   0.122
10643TIP3    H131886   2.108   3.638   0.077
10643TIP3    H231887   2.185   3.592   0.198
10644TIP3   OH231888   3.794   3.737   0.601
10644TIP3    H131889   3.701   3.738   0.621
10644TIP3    H231890   3.800   3.765   0.510
10645TIP3   OH231891   6.828   7.185   1.495
10645TIP3    H131892   6.734   7.199   1.502
10645TIP3    H231893   6.856   7.169   1.585
10646TIP3   OH231894   5.748   0.450   1.903
10646TIP3    H131895   5.715   0.467   1.991
10646TIP3    H231896   5.841   0.473   1.908
10647TIP3   OH231897   8.207   1.600   4.937
10647TIP3    H131898   8.159   1.655   4.999
10647TIP3    H231899   8.190   1.640   4.851
10648TIP3   OH231900   3.887   3.979   1.490
10648TIP3    H131901   3.856   3.988   1.400
10648TIP3    H231902   3.951   4.049   1.501
10649TIP3   OH231903   6.715   7.239   6.017
10649TIP3    H131904   6.790   7.193   5.980
10649TIP3    H231905   6.739   7.255   6.109
10650TIP3   OH231906   8.207   0.102   6.232
10650TIP3    H131907   8.223   0.026   6.176
10650TIP3    H231908   8.261   0.087   6.310
10651TIP3   OH231909   7.077   3.298   4.340
10651TIP3    H131910   7.152   3.238   4.346
10651TIP3    H231911   7.051   3.295   4.248
10652TIP3   OH231912   7.979   6.857   3.076
10652TIP3    H131913   7.950   6.807   3.001
10652TIP3    H231914   7.996   6.945   3.041
10653TIP3   OH231915   6.041   5.570   2.010
10653TIP3    H131916   6.103   5.637   1.980
10653TIP3    H231917   6.093   5.490   2.015
10654TIP3   OH231918   0.847   1.389   0.771
10654TIP3    H131919   0.868   1.463   0.714
10654TIP3    H231920   0.758   1.406   0.800
10655TIP3   OH231921   7.865   3.596   0.604
10655TIP3    H131922   7.831   3.511   0.630
10655TIP3    H231923   7.791   3.656   0.613
10656TIP3   OH231924   7.263   1.996   3.453
10656TIP3    H131925   7.196   2.064   3.462
10656TIP3    H231926   7.229   1.923   3.505
10657TIP3   OH231927   5.096   3.023   2.374
10657TIP3    H131928   5.105   3.091   2.440
10657TIP3    H231929   5.162   2.958   2.398
10658TIP3   OH231930   3.966   7.606   3.674
10658TIP3    H131931   3.902   7.549   3.716
10658TIP3    H231932   3.948   7.599   3.581
10659TIP3   OH231933   1.311   6.745   1.502
10659TIP3    H131934   1.241   6.680   1.508
10659TIP3    H231935   1.280   6.817   1.557
10660TIP3   OH231936   4.275   5.453   3.269
10660TIP3    H131937   4.315   5.382   3.219
10660TIP3    H231938   4.232   5.410   3.343
10661TIP3   OH231939   8.309   0.993   2.998
10661TIP3    H131940   8.260   0.910   3.003
10661TIP3    H231941   8.391   0.975   3.044
10662TIP3   OH231942   2.874   7.558   1.615
10662TIP3    H131943   2.932   7.509   1.672
10662TIP3    H231944   2.891   7.650   1.637
10663TIP3   OH231945   4.955   2.183   5.958
10663TIP3    H131946   4.962   2.091   5.936
10663TIP3    H231947   4.930   2.184   6.051
10664TIP3   OH231948   2.193   1.631   3.941
10664TIP3    H131949   2.130   1.580   3.992
10664TIP3    H231950   2.144   1.660   3.864
10665TIP3   OH231951   4.762   2.115   5.306
10665TIP3    H131952   4.787   2.133   5.216
10665TIP3    H231953   4.813   2.038   5.331
10666TIP3   OH231954   6.234   4.070   1.393
10666TIP3    H131955   6.281   4.142   1.435
10666TIP3    H231956   6.250   3.995   1.450
10667TIP3   OH231957   5.560   4.238   2.254
10667TIP3    H131958   5.629   4.304   2.253
10667TIP3    H231959   5.482   4.285   2.281
10668TIP3   OH231960   2.919   3.021   2.890
10668TIP3    H131961   2.832   2.995   2.922
10668TIP3    H231962   2.947   2.947   2.835
10669TIP3   OH231963   6.377   2.929   3.923
10669TIP3    H131964   6.297   2.879   3.936
10669TIP3    H231965   6.415   2.894   3.843
10670TIP3   OH231966   3.373   6.268   5.340
10670TIP3    H131967   3.295   6.272   5.396
10670TIP3    H231968   3.366   6.184   5.295
10671TIP3   OH231969   6.474   0.534   6.006
10671TIP3    H131970   6.427   0.555   5.925
10671TIP3    H231971   6.425   0.580   6.075
10672TIP3   OH231972   6.398   4.180   2.085
10672TIP3    H131973   6.366   4.116   2.149
10672TIP3    H231974   6.455   4.238   2.136
10673TIP3   OH231975   6.847   0.245   5.418
10673TIP3    H131976   6.780   0.312   5.432
10673TIP3    H231977   6.828   0.210   5.331
10674TIP3   OH231978   2.230   1.018   1.857
10674TIP3    H131979   2.144   0.977   1.865
10674TIP3    H231980   2.240   1.069   1.937
10675TIP3   OH231981   2.194   3.818   5.966
10675TIP3    H131982   2.216   3.907   5.993
10675TIP3    H231983   2.191   3.768   6.047
10676TIP3   OH231984   2.480   3.206   0.433
10676TIP3    H131985   2.424   3.283   0.448
10676TIP3    H231986   2.566   3.233   0.466
10677TIP3   OH231987   7.636   7.566   2.482
10677TIP3    H131988   7.690   7.511   2.425
10677TIP3    H231989   7.572   7.506   2.519
10678TIP3   OH231990   7.775   1.905   6.666
10678TIP3    H131991   7.761   1.870   6.578
10678TIP3    H231992   7.831   1.982   6.653
10679TIP3   OH231993   2.153   3.519   5.424
10679TIP3    H131994   2.181   3.603   5.388
10679TIP3    H231995   2.086   3.488   5.363
10680TIP3   OH231996   6.120   2.215   5.776
10680TIP3    H131997   6.204   2.261   5.771
10680TIP3    H231998   6.103   2.187   5.686
10681TIP3   OH231999   3.546   7.438   1.029
10681TIP3    H132000   3.633   7.422   1.066
10681TIP3    H232001   3.485   7.411   1.098
10682TIP3   OH232002   1.409   3.503   0.614
10682TIP3    H132003   1.440   3.536   0.698
10682TIP3    H232004   1.323   3.543   0.602
10683TIP3   OH232005   7.162   1.516   2.278
10683TIP3    H132006   7.074   1.511   2.316
10683TIP3    H232007   7.156   1.463   2.199
10684TIP3   OH232008   4.228   7.396   6.762
10684TIP3    H132009   4.286   7.466   6.730
10684TIP3    H232010   4.140   7.432   6.752
10685TIP3   OH232011   0.989   7.537   5.325
10685TIP3    H132012   0.969   7.625   5.296
10685TIP3    H232013   0.904   7.498   5.346
10686TIP3   OH232014   6.027   7.698   3.433
10686TIP3    H132015   6.038   7.755   3.509
10686TIP3    H232016   6.105   7.714   3.380
10687TIP3   OH232017   0.635   1.258   5.361
10687TIP3    H132018   0.623   1.316   5.286
10687TIP3    H232019   0.711   1.293   5.407
10688TIP3   OH232020   4.101   6.572   1.685
10688TIP3    H132021   4.085   6.650   1.738
10688TIP3    H232022   4.181   6.534   1.722
10689TIP3   OH232023   3.601   6.908   4.772
10689TIP3    H132024   3.528   6.956   4.811
10689TIP3    H232025   3.679   6.943   4.816
10690TIP3   OH232026   6.666   4.176   5.394
10690TIP3    H132027   6.715   4.162   5.475
10690TIP3    H232028   6.619   4.093   5.380
10691TIP3   OH232029   2.398   2.951   0.606
10691TIP3    H132030   2.456   2.884   0.641
10691TIP3    H232031   2.451   2.996   0.540
10692TIP3   OH232032   0.455   7.851   6.709
10692TIP3    H132033   0.408   7.786   6.761
10692TIP3    H232034   0.548   7.826   6.717
10693TIP3   OH232035   7.561   1.660   4.097
10693TIP3    H132036   7.647   1.697   4.079
10693TIP3    H232037   7.535   1.619   4.015
10694TIP3   OH232038   2.096   7.370   4.764
10694TIP3    H132039   2.024   7.430   4.743
10694TIP3    H232040   2.135   7.407   4.843
10695TIP3   OH232041   3.813   6.983   4.328
10695TIP3    H132042   3.851   6.899   4.304
10695TIP3    H232043   3.800   7.028   4.245
10696TIP3   OH232044   0.198   6.875   4.965
10696TIP3    H132045   0.230   6.960   4.936
10696TIP3    H232046   0.217   6.816   4.892
10697TIP3   OH232047   5.751   6.678   5.798
10697TIP3    H132048   5.679   6.626   5.833
10697TIP3    H232049   5.768   6.641   5.711
10698TIP3   OH232050   0.776   3.681   6.433
10698TIP3    H132051   0.855   3.639   6.400
10698TIP3    H232052   0.742   3.732   6.359
10699TIP3   OH232053   6.810   3.890   5.053
10699TIP3    H132054   6.867   3.856   5.122
10699TIP3    H232055   6.802   3.983   5.073
10700TIP3   OH232056   5.580   0.590   6.634
10700TIP3    H132057   5.566   0.635   6.550
10700TIP3    H232058   5.509   0.620   6.690
10701TIP3   OH232059   4.618   5.848   3.308
10701TIP3    H132060   4.633   5.828   3.216
10701TIP3    H232061   4.705   5.875   3.341
10702TIP3   OH232062   3.350   5.207   0.387
10702TIP3    H132063   3.279   5.174   0.332
10702TIP3    H232064   3.320   5.293   0.416
10703TIP3   OH232065   5.655   1.098   2.414
10703TIP3    H132066   5.693   1.066   2.497
10703TIP3    H232067   5.727   1.146   2.373
10704TIP3   OH232068   2.273   2.110   2.271
10704TIP3    H132069   2.317   2.192   2.248
10704TIP3    H232070   2.328   2.042   2.232
10705TIP3   OH232071   7.905   2.340   1.191
10705TIP3    H132072   7.980   2.378   1.145
10705TIP3    H232073   7.882   2.263   1.139
10706TIP3   OH232074   5.568   6.201   6.467
10706TIP3    H132075   5.480   6.233   6.487
10706TIP3    H232076   5.623   6.280   6.466
10707TIP3   OH232077   1.577   2.665   6.006
10707TIP3    H132078   1.517   2.607   6.053
10707TIP3    H232079   1.661   2.618   6.007
10708TIP3   OH232080   6.033   3.778   2.842
10708TIP3    H132081   5.942   3.789   2.868
10708TIP3    H232082   6.053   3.687   2.860
10709TIP3   OH232083   7.882   7.407   6.757
10709TIP3    H132084   7.849   7.497   6.759
10709TIP3    H232085   7.926   7.400   6.672
10710TIP3   OH232086   1.870   6.316   4.467
10710TIP3    H132087   1.777   6.334   4.484
10710TIP3    H232088   1.916   6.361   4.538
10711TIP3   OH232089   4.463   3.216   5.100
10711TIP3    H132090   4.453   3.253   5.012
10711TIP3    H232091   4.379   3.234   5.143
10712TIP3   OH232092   6.215   1.401   0.961
10712TIP3    H132093   6.243   1.486   0.928
10712TIP3    H232094   6.144   1.375   0.902
10713TIP3   OH232095   7.456   2.303   5.477
10713TIP3    H132096   7.535   2.340   5.517
10713TIP3    H232097   7.435   2.363   5.406
10714TIP3   OH232098   1.364   7.592   4.604
10714TIP3    H132099   1.441   7.539   4.624
10714TIP3    H232100   1.397   7.662   4.549
10715TIP3   OH232101   7.424   3.430   4.373
10715TIP3    H132102   7.413   3.516   4.413
10715TIP3    H232103   7.390   3.441   4.284
10716TIP3   OH232104   7.851   3.623   6.620
10716TIP3    H132105   7.809   3.571   6.689
10716TIP3    H232106   7.944   3.611   6.633
10717TIP3   OH232107   4.983   2.793   5.640
10717TIP3    H132108   5.039   2.716   5.654
10717TIP3    H232109   4.904   2.758   5.599
10718TIP3   OH232110   0.526   5.265   3.945
10718TIP3    H132111   0.606   5.247   3.896
10718TIP3    H232112   0.543   5.229   4.032
10719TIP3   OH232113   2.300   3.755   3.940
10719TIP3    H132114   2.382   3.707   3.924
10719TIP3    H232115   2.239   3.721   3.875
10720TIP3   OH232116   0.193   5.061   3.352
10720TIP3    H132117   0.111   5.086   3.309
10720TIP3    H232118   0.256   5.052   3.282
10721TIP3   OH232119   5.351   3.515   5.517
10721TIP3    H132120   5.290   3.442   5.507
10721TIP3    H232121   5.437   3.477   5.501
10722TIP3   OH232122   7.419   1.533   0.391
10722TIP3    H132123   7.376   1.510   0.474
10722TIP3    H232124   7.373   1.611   0.361
10723TIP3   OH232125   1.569   2.750   3.744
10723TIP3    H132126   1.599   2.797   3.667
10723TIP3    H232127   1.581   2.812   3.816
10724TIP3   OH232128   2.070   0.344   6.238
10724TIP3    H132129   2.059   0.418   6.298
10724TIP3    H232130   2.013   0.276   6.273
10725TIP3   OH232131   2.564   7.645   5.189
10725TIP3    H132132   2.647   7.641   5.236
10725TIP3    H232133   2.538   7.553   5.178
10726TIP3   OH232134   7.848   4.352   6.579
10726TIP3    H132135   7.808   4.288   6.638
10726TIP3    H232136   7.779   4.417   6.565
10727TIP3   OH232137   3.095   2.016   4.827
10727TIP3    H132138   3.120   1.932   4.787
10727TIP3    H232139   3.047   1.992   4.906
10728TIP3   OH232140   3.569   3.230   0.167
10728TIP3    H132141   3.550   3.207   0.257
10728TIP3    H232142   3.512   3.174   0.114
10729TIP3   OH232143   0.893   2.001   1.979
10729TIP3    H132144   0.955   2.059   1.935
10729TIP3    H232145   0.816   2.055   1.994
10730TIP3   OH232146   0.378   0.562   1.212
10730TIP3    H132147   0.292   0.520   1.215
10730TIP3    H232148   0.416   0.545   1.298
10731TIP3   OH232149   6.956   5.529   5.490
10731TIP3    H132150   7.042   5.505   5.526
10731TIP3    H232151   6.964   5.623   5.470
10732TIP3   OH232152   0.983   1.301   3.445
10732TIP3    H132153   0.984   1.299   3.349
10732TIP3    H232154   0.912   1.243   3.470
10733TIP3   OH232155   7.642   7.746   2.135
10733TIP3    H132156   7.662   7.829   2.092
10733TIP3    H232157   7.717   7.729   2.191
10734TIP3   OH232158   4.149   1.909   1.397
10734TIP3    H132159   4.243   1.927   1.399
10734TIP3    H232160   4.120   1.942   1.312
10735TIP3   OH232161   4.862   7.300   5.560
10735TIP3    H132162   4.773   7.272   5.581
10735TIP3    H232163   4.902   7.226   5.514
10736TIP3   OH232164   5.283   0.781   4.076
10736TIP3    H132165   5.294   0.868   4.036
10736TIP3    H232166   5.189   0.774   4.092
10737TIP3   OH232167   4.860   5.187   4.990
10737TIP3    H132168   4.767   5.165   4.984
10737TIP3    H232169   4.861   5.283   4.997
10738TIP3   OH232170   4.996   2.585   1.031
10738TIP3    H132171   5.087   2.610   1.045
10738TIP3    H232172   4.948   2.624   1.104
10739TIP3   OH232173   6.512   0.001   0.628
10739TIP3    H132174   6.432   0.022   0.579
10739TIP3    H232175   6.497   0.039   0.715
10740TIP3   OH232176   5.177   6.338   5.053
10740TIP3    H132177   5.125   6.337   4.973
10740TIP3    H232178   5.233   6.416   5.044
10741TIP3   OH232179   1.753   7.308   3.687
10741TIP3    H132180   1.792   7.230   3.727
10741TIP3    H232181   1.808   7.326   3.611
10742TIP3   OH232182   4.346   7.098   6.120
10742TIP3    H132183   4.334   7.155   6.195
10742TIP3    H232184   4.265   7.108   6.069
10743TIP3   OH232185   5.954   0.033   6.214
10743TIP3    H132186   5.938   0.069   6.301
10743TIP3    H232187   5.891   0.078   6.158
10744TIP3   OH232188   0.741   1.384   6.080
10744TIP3    H132189   0.818   1.370   6.024
10744TIP3    H232190   0.667   1.369   6.022
10745TIP3   OH232191   0.367   2.746   3.266
10745TIP3    H132192   0.445   2.775   3.313
10745TIP3    H232193   0.395   2.667   3.219
10746TIP3   OH232194   0.267   0.016   5.597
10746TIP3    H132195   0.332  -0.009   5.531
10746TIP3    H232196   0.318   0.062   5.663
10747TIP3   OH232197   0.236   2.225   2.872
10747TIP3    H132198   0.262   2.287   2.941
10747TIP3    H232199   0.312   2.167   2.862
10748TIP3   OH232200   4.825   0.636   1.721
10748TIP3    H132201   4.919   0.622   1.731
10748TIP3    H232202   4.808   0.719   1.765
10749TIP3   OH232203   6.433   3.351   3.932
10749TIP3    H132204   6.402   3.347   4.023
10749TIP3    H232205   6.528   3.341   3.939
10750TIP3   OH232206   2.722   3.079   3.469
10750TIP3    H132207   2.742   2.986   3.459
10750TIP3    H232208   2.780   3.123   3.406
10751TIP3   OH232209   0.873   6.336   2.461
10751TIP3    H132210   0.829   6.268   2.512
10751TIP3    H232211   0.938   6.373   2.520
10752TIP3   OH232212   4.144   6.781   0.575
10752TIP3    H132213   4.192   6.709   0.617
10752TIP3    H232214   4.067   6.794   0.630
10753TIP3   OH232215   7.639   7.799   1.802
10753TIP3    H132216   7.591   7.761   1.728
10753TIP3    H232217   7.709   7.736   1.820
10754TIP3   OH232218   3.550   3.734   3.407
10754TIP3    H132219   3.466   3.778   3.412
10754TIP3    H232220   3.610   3.801   3.375
10755TIP3   OH232221   4.203   5.166   5.989
10755TIP3    H132222   4.282   5.216   5.968
10755TIP3    H232223   4.151   5.170   5.909
10756TIP3   OH232224   7.230   2.146   5.495
10756TIP3    H132225   7.168   2.167   5.564
10756TIP3    H232226   7.302   2.209   5.507
10757TIP3   OH232227   4.225   0.905   2.028
10757TIP3    H132228   4.311   0.898   1.987
10757TIP3    H232229   4.244   0.915   2.121
10758TIP3   OH232230   3.886   0.842   4.787
10758TIP3    H132231   3.948   0.780   4.825
10758TIP3    H232232   3.804   0.794   4.783
10759TIP3   OH232233   0.086   4.272   5.229
10759TIP3    H132234   0.062   4.188   5.188
10759TIP3    H232235   0.180   4.281   5.214
10760TIP3   OH232236   7.425   2.900   3.577
10760TIP3    H132237   7.345   2.925   3.622
10760TIP3    H232238   7.466   2.835   3.634
10761TIP3   OH232239   1.125   2.974   0.782
10761TIP3    H132240   1.122   3.016   0.696
10761TIP3    H232241   1.218   2.970   0.804
10762TIP3   OH232242   3.736   7.417   3.798
10762TIP3    H132243   3.784   7.405   3.880
10762TIP3    H232244   3.706   7.329   3.775
10763TIP3   OH232245   4.381   1.516   1.403
10763TIP3    H132246   4.320   1.478   1.340
10763TIP3    H232247   4.326   1.544   1.476
10764TIP3   OH232248   4.043   0.170   4.466
10764TIP3    H132249   4.050   0.155   4.560
10764TIP3    H232250   3.964   0.122   4.440
10765TIP3   OH232251   3.126   1.859   3.092
10765TIP3    H132252   3.121   1.784   3.152
10765TIP3    H232253   3.071   1.926   3.132
10766TIP3   OH232254   4.526   7.014   6.626
10766TIP3    H132255   4.452   7.067   6.653
10766TIP3    H232256   4.526   6.940   6.686
10767TIP3   OH232257   4.069   7.619   1.435
10767TIP3    H132258   4.017   7.666   1.369
10767TIP3    H232259   4.014   7.621   1.514
10768TIP3   OH232260   1.310   0.404   5.340
10768TIP3    H132261   1.283   0.492   5.368
10768TIP3    H232262   1.241   0.377   5.279
10769TIP3   OH232263   3.587   2.061   0.730
10769TIP3    H132264   3.519   2.086   0.792
10769TIP3    H232265   3.542   2.012   0.662
10770TIP3   OH232266   7.043   6.928   5.612
10770TIP3    H132267   7.129   6.901   5.643
10770TIP3    H232268   7.049   7.023   5.604
10771TIP3   OH232269   0.972   5.740   6.710
10771TIP3    H132270   0.954   5.772   6.799
10771TIP3    H232271   1.031   5.805   6.673
10772TIP3   OH232272   0.972   0.119   0.764
10772TIP3    H132273   1.066   0.099   0.759
10772TIP3    H232274   0.965   0.210   0.736
10773TIP3   OH232275   2.291   3.438   1.862
10773TIP3    H132276   2.366   3.430   1.803
10773TIP3    H232277   2.292   3.529   1.891
10774TIP3   OH232278   5.056   5.006   1.278
10774TIP3    H132279   5.099   4.983   1.360
10774TIP3    H232280   5.127   5.024   1.217
10775TIP3   OH232281   2.376   0.918   5.412
10775TIP3    H132282   2.283   0.895   5.407
10775TIP3    H232283   2.407   0.911   5.322
10776TIP3   OH232284   4.545   0.058   2.462
10776TIP3    H132285   4.588  -0.027   2.465
10776TIP3    H232286   4.493   0.063   2.542
10777TIP3   OH232287   8.035   4.580   0.685
10777TIP3    H132288   7.966   4.531   0.730
10777TIP3    H232289   8.091   4.614   0.755
10778TIP3   OH232290   0.207   1.484   1.268
10778TIP3    H132291   0.142   1.529   1.215
10778TIP3    H232292   0.176   1.393   1.273
10779TIP3   OH232293   3.267   5.899   6.384
10779TIP3    H132294   3.321   5.932   6.455
10779TIP3    H232295   3.295   5.808   6.372
10780TIP3   OH232296   3.492   5.228   5.983
10780TIP3    H132297   3.501   5.285   5.907
10780TIP3    H232298   3.406   5.188   5.973
10781TIP3   OH232299   1.087   7.505   3.528
10781TIP3    H132300   1.176   7.480   3.506
10781TIP3    H232301   1.032   7.451   3.471
10782TIP3   OH232302   6.745   6.815   5.026
10782TIP3    H132303   6.651   6.833   5.018
10782TIP3    H232304   6.758   6.732   4.979
10783TIP3   OH232305   7.728   0.141   3.206
10783TIP3    H132306   7.802   0.198   3.229
10783TIP3    H232307   7.709   0.091   3.285
10784TIP3   OH232308   4.019   0.161   0.745
10784TIP3    H132309   4.090   0.098   0.755
10784TIP3    H232310   4.061   0.239   0.709
10785TIP3   OH232311   0.208   2.672   5.188
10785TIP3    H132312   0.192   2.748   5.244
10785TIP3    H232313   0.258   2.707   5.114
10786TIP3   OH232314   6.145   6.497   1.063
10786TIP3    H132315   6.066   6.478   1.115
10786TIP3    H232316   6.216   6.495   1.127
10787TIP3   OH232317   8.248   6.588   3.492
10787TIP3    H132318   8.253   6.582   3.587
10787TIP3    H232319   8.211   6.504   3.464
10788TIP3   OH232320   4.518   5.420   5.219
10788TIP3    H132321   4.456   5.456   5.282
10788TIP3    H232322   4.593   5.479   5.222
10789TIP3   OH232323   3.404   1.146   6.389
10789TIP3    H132324   3.477   1.179   6.440
10789TIP3    H232325   3.358   1.087   6.449
10790TIP3   OH232326   4.996   3.606   3.202
10790TIP3    H132327   5.028   3.582   3.115
10790TIP3    H232328   4.941   3.532   3.229
10791TIP3   OH232329   0.597   1.848   2.220
10791TIP3    H132330   0.604   1.921   2.281
10791TIP3    H232331   0.542   1.881   2.149
10792TIP3   OH232332   7.874   4.998   5.246
10792TIP3    H132333   7.794   4.989   5.194
10792TIP3    H232334   7.872   4.923   5.306
10793TIP3   OH232335   2.110   0.998   3.209
10793TIP3    H132336   2.091   0.925   3.150
10793TIP3    H232337   2.149   0.957   3.286
10794TIP3   OH232338   6.886   1.815   2.147
10794TIP3    H132339   6.820   1.878   2.117
10794TIP3    H232340   6.935   1.862   2.214
10795TIP3   OH232341   7.806   3.147   6.734
10795TIP3    H132342   7.766   3.070   6.775
10795TIP3    H232343   7.897   3.121   6.719
10796TIP3   OH232344   7.174   4.569   5.054
10796TIP3    H132345   7.194   4.655   5.016
10796TIP3    H232346   7.215   4.506   4.994
10797TIP3   OH232347   0.786   6.897   2.354
10797TIP3    H132348   0.737   6.815   2.340
10797TIP3    H232349   0.761   6.953   2.281
10798TIP3   OH232350   5.730   2.081   0.675
10798TIP3    H132351   5.688   2.166   0.663
10798TIP3    H232352   5.777   2.089   0.758
10799TIP3   OH232353   4.216   3.074   5.635
10799TIP3    H132354   4.203   3.167   5.652
10799TIP3    H232355   4.193   3.062   5.543
10800TIP3   OH232356   5.539   4.225   6.166
10800TIP3    H132357   5.471   4.226   6.098
10800TIP3    H232358   5.514   4.295   6.226
10801TIP3   OH232359   4.850   0.388   5.250
10801TIP3    H132360   4.825   0.481   5.248
10801TIP3    H232361   4.898   0.379   5.333
10802TIP3   OH232362   1.766   0.920   3.876
10802TIP3    H132363   1.815   0.848   3.836
10802TIP3    H232364   1.675   0.901   3.857
10803TIP3   OH232365   3.099   3.045   2.237
10803TIP3    H132366   3.127   3.025   2.326
10803TIP3    H232367   3.052   2.967   2.208
10804TIP3   OH232368   2.709   3.722   3.370
10804TIP3    H132369   2.738   3.740   3.280
10804TIP3    H232370   2.690   3.628   3.371
10805TIP3   OH232371   3.771   2.051   3.166
10805TIP3    H132372   3.718   1.984   3.123
10805TIP3    H232373   3.728   2.133   3.144
10806TIP3   OH232374   0.754   0.665   0.946
10806TIP3    H132375   0.741   0.633   1.036
10806TIP3    H232376   0.848   0.658   0.932
10807TIP3   OH232377   3.513   0.144   0.779
10807TIP3    H132378   3.565   0.110   0.706
10807TIP3    H232379   3.535   0.087   0.852
10808TIP3   OH232380   5.658   3.946   6.401
10808TIP3    H132381   5.647   3.938   6.307
10808TIP3    H232382   5.570   3.934   6.437
10809TIP3   OH232383   1.529   3.348   5.418
10809TIP3    H132384   1.531   3.429   5.366
10809TIP3    H232385   1.614   3.307   5.402
10810TIP3   OH232386   7.362   6.092   2.150
10810TIP3    H132387   7.429   6.050   2.098
10810TIP3    H232388   7.288   6.031   2.147
10811TIP3   OH232389   4.377   0.207   5.455
10811TIP3    H132390   4.397   0.280   5.397
10811TIP3    H232391   4.368   0.132   5.396
10812TIP3   OH232392   1.520   7.511   2.426
10812TIP3    H132393   1.589   7.454   2.392
10812TIP3    H232394   1.483   7.463   2.500
10813TIP3   OH232395   4.179   5.522   6.545
10813TIP3    H132396   4.096   5.561   6.516
10813TIP3    H232397   4.246   5.566   6.493
10814TIP3   OH232398   0.260   4.620   1.603
10814TIP3    H132399   0.240   4.527   1.596
10814TIP3    H232400   0.252   4.639   1.697
10815TIP3   OH232401   5.702   1.945   5.073
10815TIP3    H132402   5.796   1.952   5.090
10815TIP3    H232403   5.673   2.035   5.061
10816TIP3   OH232404   5.466   2.032   0.278
10816TIP3    H132405   5.383   2.030   0.327
10816TIP3    H232406   5.454   1.967   0.209
10817TIP3   OH232407   1.675   3.190   1.005
10817TIP3    H132408   1.712   3.133   0.937
10817TIP3    H232409   1.752   3.225   1.051
10818TIP3   OH232410   4.245   7.636   0.470
10818TIP3    H132411   4.252   7.726   0.500
10818TIP3    H232412   4.151   7.621   0.461
10819TIP3   OH232413   4.923   0.631   3.712
10819TIP3    H132414   4.973   0.618   3.632
10819TIP3    H232415   4.975   0.694   3.762
10820TIP3   OH232416   1.675   3.598   5.403
10820TIP3    H132417   1.747   3.561   5.453
10820TIP3    H232418   1.716   3.667   5.350
10821TIP3   OH232419   4.496   2.836   6.641
10821TIP3    H132420   4.553   2.840   6.564
10821TIP3    H232421   4.428   2.773   6.618
10822TIP3   OH232422   6.783   7.278   6.290
10822TIP3    H132423   6.722   7.268   6.363
10822TIP3    H232424   6.822   7.365   6.303
10823TIP3   OH232425   2.362   0.839   1.037
10823TIP3    H132426   2.370   0.855   1.131
10823TIP3    H232427   2.282   0.786   1.028
10824TIP3   OH232428   4.978   7.525   3.984
10824TIP3    H132429   5.036   7.582   3.933
10824TIP3    H232430   4.912   7.585   4.020
10825TIP3   OH232431   0.444   6.599   5.114
10825TIP3    H132432   0.435   6.527   5.176
10825TIP3    H232433   0.387   6.668   5.149
10826TIP3   OH232434   0.127   7.795   1.735
10826TIP3    H132435   0.038   7.809   1.701
10826TIP3    H232436   0.164   7.883   1.742
10827TIP3   OH232437   5.687   3.205   5.805
10827TIP3    H132438   5.661   3.114   5.822
10827TIP3    H232439   5.761   3.220   5.865
10828TIP3   OH232440   6.509   5.198   0.608
10828TIP3    H132441   6.558   5.183   0.689
10828TIP3    H232442   6.443   5.129   0.607
10829TIP3   OH232443   7.947   1.376   1.206
10829TIP3    H132444   7.868   1.421   1.237
10829TIP3    H232445   8.017   1.407   1.264
10830TIP3   OH232446   1.640   1.959   5.015
10830TIP3    H132447   1.729   1.974   5.045
10830TIP3    H232448   1.630   1.864   5.015
10831TIP3   OH232449   3.435   6.358   0.942
10831TIP3    H132450   3.501   6.335   0.877
10831TIP3    H232451   3.395   6.438   0.908
10832TIP3   OH232452   2.606   7.486   1.511
10832TIP3    H132453   2.531   7.471   1.569
10832TIP3    H232454   2.579   7.450   1.426
10833TIP3   OH232455   4.101   1.181   3.651
10833TIP3    H132456   4.179   1.217   3.609
10833TIP3    H232457   4.134   1.112   3.709
10834TIP3   OH232458   5.199   6.909   1.354
10834TIP3    H132459   5.272   6.954   1.397
10834TIP3    H232460   5.240   6.833   1.312
10835TIP3   OH232461   5.670   5.233   6.797
10835TIP3    H132462   5.598   5.215   6.737
10835TIP3    H232463   5.745   5.186   6.760
10836TIP3   OH232464   3.306   4.808   1.536
10836TIP3    H132465   3.332   4.782   1.625
10836TIP3    H232466   3.288   4.725   1.492
10837TIP3   OH232467   3.540   2.805   6.202
10837TIP3    H132468   3.546   2.770   6.291
10837TIP3    H232469   3.543   2.900   6.213
10838TIP3   OH232470   8.161   1.637   1.388
10838TIP3    H132471   8.184   1.685   1.309
10838TIP3    H232472   8.087   1.686   1.425
10839TIP3   OH232473   6.623   5.462   5.175
10839TIP3    H132474   6.604   5.403   5.248
10839TIP3    H232475   6.718   5.462   5.168
10840TIP3   OH232476   7.469   5.423   0.410
10840TIP3    H132477   7.415   5.344   0.421
10840TIP3    H232478   7.505   5.440   0.497
10841TIP3   OH232479   4.236   3.625   6.024
10841TIP3    H132480   4.320   3.644   5.982
10841TIP3    H232481   4.259   3.582   6.106
10842TIP3   OH232482   5.781   2.659   4.962
10842TIP3    H132483   5.744   2.571   4.951
10842TIP3    H232484   5.873   2.650   4.936
10843TIP3   OH232485   7.251   4.050   1.660
10843TIP3    H132486   7.202   4.041   1.742
10843TIP3    H232487   7.233   3.969   1.613
10844TIP3   OH232488   2.821   4.468   5.042
10844TIP3    H132489   2.892   4.532   5.040
10844TIP3    H232490   2.742   4.520   5.028
10845TIP3   OH232491   6.014   5.859   1.036
10845TIP3    H132492   6.007   5.940   1.085
10845TIP3    H232493   5.929   5.816   1.047
10846TIP3   OH232494   6.803   3.202   1.975
10846TIP3    H132495   6.779   3.278   2.027
10846TIP3    H232496   6.897   3.209   1.964
10847TIP3   OH232497   6.604   5.721   0.667
10847TIP3    H132498   6.543   5.794   0.675
10847TIP3    H232499   6.552   5.651   0.627
10848TIP3   OH232500   6.931   5.307   1.575
10848TIP3    H132501   6.991   5.233   1.576
10848TIP3    H232502   6.922   5.331   1.483
10849TIP3   OH232503   6.818   6.888   4.016
10849TIP3    H132504   6.889   6.853   4.069
10849TIP3    H232505   6.745   6.827   4.030
10850TIP3   OH232506   2.974   7.437   3.881
10850TIP3    H132507   2.974   7.499   3.807
10850TIP3    H232508   2.883   7.432   3.908
10851TIP3   OH232509   8.034   5.287   3.728
10851TIP3    H132510   8.022   5.382   3.725
10851TIP3    H232511   7.945   5.252   3.740
10852TIP3   OH232512   0.817   7.541   1.271
10852TIP3    H132513   0.902   7.539   1.315
10852TIP3    H232514   0.838   7.542   1.178
10853TIP3   OH232515   7.610   6.216   6.052
10853TIP3    H132516   7.704   6.232   6.045
10853TIP3    H232517   7.572   6.263   5.978
10854TIP3   OH232518   7.909   0.138   3.644
10854TIP3    H132519   7.861   0.154   3.563
10854TIP3    H232520   7.856   0.180   3.712
10855TIP3   OH232521   5.820   7.586   0.070
10855TIP3    H132522   5.788   7.499   0.094
10855TIP3    H232523   5.760   7.616   0.003
10856TIP3   OH232524   6.905   3.944   3.883
10856TIP3    H132525   6.968   4.017   3.886
10856TIP3    H232526   6.822   3.985   3.861
10857TIP3   OH232527   2.004   0.079   4.234
10857TIP3    H132528   1.919   0.050   4.267
10857TIP3    H232529   1.983   0.146   4.169
10858TIP3   OH232530   0.675   0.999   1.428
10858TIP3    H132531   0.590   0.962   1.404
10858TIP3    H232532   0.710   0.937   1.492
10859TIP3   OH232533   3.676   5.924   4.332
10859TIP3    H132534   3.694   5.972   4.251
10859TIP3    H232535   3.749   5.864   4.342
10860TIP3   OH232536   5.345   6.129   0.372
10860TIP3    H132537   5.411   6.197   0.359
10860TIP3    H232538   5.275   6.151   0.311
10861TIP3   OH232539   6.825   0.874   6.745
10861TIP3    H132540   6.819   0.954   6.798
10861TIP3    H232541   6.901   0.889   6.689
10862TIP3   OH232542   3.118   4.372   6.658
10862TIP3    H132543   3.148   4.364   6.567
10862TIP3    H232544   3.196   4.355   6.711
10863TIP3   OH232545   4.192   3.298   5.203
10863TIP3    H132546   4.104   3.265   5.220
10863TIP3    H232547   4.194   3.385   5.244
10864TIP3   OH232548   5.306   0.546   4.795
10864TIP3    H132549   5.372   0.513   4.856
10864TIP3    H232550   5.316   0.641   4.797
10865TIP3   OH232551   1.377   5.826   3.760
10865TIP3    H132552   1.377   5.863   3.849
10865TIP3    H232553   1.434   5.749   3.766
10866TIP3   OH232554   4.691   7.638   5.542
10866TIP3    H132555   4.745   7.571   5.586
10866TIP3    H232556   4.722   7.638   5.452
10867TIP3   OH232557   6.534   6.294   1.505
10867TIP3    H132558   6.618   6.250   1.498
10867TIP3    H232559   6.516   6.326   1.417
10868TIP3   OH232560   5.044   3.436   0.755
10868TIP3    H132561   5.070   3.514   0.706
10868TIP3    H232562   4.979   3.393   0.700
10869TIP3   OH232563   0.948   0.939   5.301
10869TIP3    H132564   0.858   0.942   5.268
10869TIP3    H232565   0.996   0.890   5.234
10870TIP3   OH232566   0.169   0.455   3.178
10870TIP3    H132567   0.109   0.384   3.200
10870TIP3    H232568   0.255   0.413   3.171
10871TIP3   OH232569   2.516   3.463   5.297
10871TIP3    H132570   2.611   3.475   5.295
10871TIP3    H232571   2.481   3.551   5.284
10872TIP3   OH232572   5.366   6.103   1.179
10872TIP3    H132573   5.391   6.047   1.105
10872TIP3    H232574   5.399   6.056   1.256
10873TIP3   OH232575   4.797   5.921   0.483
10873TIP3    H132576   4.839   5.864   0.419
10873TIP3    H232577   4.851   5.915   0.561
10874TIP3   OH232578   4.090   2.980   3.938
10874TIP3    H132579   4.019   2.948   3.882
10874TIP3    H232580   4.056   2.972   4.027
10875TIP3   OH232581   2.417   1.897   6.143
10875TIP3    H132582   2.367   1.819   6.119
10875TIP3    H232583   2.505   1.881   6.109
10876TIP3   OH232584   4.611   3.254   3.219
10876TIP3    H132585   4.534   3.235   3.166
10876TIP3    H232586   4.608   3.190   3.290
10877TIP3   OH232587   3.079   5.382   4.925
10877TIP3    H132588   3.058   5.308   4.981
10877TIP3    H232589   3.099   5.344   4.839
10878TIP3   OH232590   4.590   5.613   4.415
10878TIP3    H132591   4.581   5.685   4.478
10878TIP3    H232592   4.517   5.555   4.434
10879TIP3   OH232593   7.141   2.250   3.033
10879TIP3    H132594   7.193   2.330   3.032
10879TIP3    H232595   7.082   2.259   2.958
10880TIP3   OH232596   2.149   6.298   1.341
10880TIP3    H132597   2.153   6.210   1.379
10880TIP3    H232598   2.090   6.289   1.266
10881TIP3   OH232599   7.749   5.099   2.519
10881TIP3    H132600   7.781   5.189   2.521
10881TIP3    H232601   7.795   5.059   2.445
10882TIP3   OH232602   0.537   3.450   1.782
10882TIP3    H132603   0.574   3.404   1.858
10882TIP3    H232604   0.446   3.419   1.778
10883TIP3   OH232605   3.842   1.927   2.795
10883TIP3    H132606   3.847   1.869   2.719
10883TIP3    H232607   3.784   1.998   2.766
10884TIP3   OH232608   2.558   6.463   0.640
10884TIP3    H132609   2.573   6.369   0.630
10884TIP3    H232610   2.546   6.495   0.551
10885TIP3   OH232611   1.571   4.585   1.128
10885TIP3    H132612   1.656   4.543   1.116
10885TIP3    H232613   1.552   4.626   1.044
10886TIP3   OH232614   7.703   4.341   3.363
10886TIP3    H132615   7.773   4.336   3.428
10886TIP3    H232616   7.715   4.426   3.321
10887TIP3   OH232617   7.716   2.650   0.728
10887TIP3    H132618   7.810   2.670   0.723
10887TIP3    H232619   7.680   2.718   0.785
10888TIP3   OH232620   7.288   6.011   1.208
10888TIP3    H132621   7.349   5.950   1.166
10888TIP3    H232622   7.209   6.007   1.154
10889TIP3   OH232623   1.209   5.411   5.143
10889TIP3    H132624   1.271   5.466   5.192
10889TIP3    H232625   1.249   5.401   5.057
10890TIP3   OH232626   0.576   5.228   6.702
10890TIP3    H132627   0.619   5.195   6.781
10890TIP3    H232628   0.644   5.277   6.656
10891TIP3   OH232629   4.930   1.292   2.388
10891TIP3    H132630   5.007   1.244   2.420
10891TIP3    H232631   4.916   1.361   2.453
10892TIP3   OH232632   3.722   2.511   3.752
10892TIP3    H132633   3.700   2.428   3.793
10892TIP3    H232634   3.741   2.570   3.825
10893TIP3   OH232635   0.120   0.741   1.551
10893TIP3    H132636   0.093   0.659   1.510
10893TIP3    H232637   0.213   0.730   1.568
10894TIP3   OH232638   6.654   0.666   6.608
10894TIP3    H132639   6.562   0.690   6.619
10894TIP3    H232640   6.703   0.730   6.659
10895TIP3   OH232641   5.781   3.445   0.335
10895TIP3    H132642   5.871   3.465   0.310
10895TIP3    H232643   5.790   3.380   0.405
10896TIP3   OH232644   5.099   4.599   2.357
10896TIP3    H132645   5.094   4.548   2.438
10896TIP3    H232646   5.180   4.650   2.366
10897TIP3   OH232647   6.370   3.329   3.081
10897TIP3    H132648   6.319   3.336   3.000
10897TIP3    H232649   6.451   3.375   3.063
10898TIP3   OH232650   4.748   0.545   5.011
10898TIP3    H132651   4.838   0.570   4.990
10898TIP3    H232652   4.756   0.457   5.047
10899TIP3   OH232653   2.863   3.886   2.830
10899TIP3    H132654   2.795   3.937   2.874
10899TIP3    H232655   2.868   3.923   2.742
10900TIP3   OH232656   5.873   3.130   2.172
10900TIP3    H132657   5.899   3.208   2.124
10900TIP3    H232658   5.904   3.057   2.119
10901TIP3   OH232659   1.289   7.758   3.819
10901TIP3    H132660   1.298   7.665   3.837
10901TIP3    H232661   1.287   7.764   3.723
10902TIP3   OH232662   0.311   3.412   6.351
10902TIP3    H132663   0.225   3.453   6.343
10902TIP3    H232664   0.364   3.477   6.397
10903TIP3   OH232665   3.541   0.277   3.042
10903TIP3    H132666   3.599   0.257   2.969
10903TIP3    H232667   3.569   0.363   3.073
10904TIP3   OH232668   0.558   4.403   4.545
10904TIP3    H132669   0.548   4.496   4.566
10904TIP3    H232670   0.483   4.383   4.490
10905TIP3   OH232671   0.321   2.027   3.541
10905TIP3    H132672   0.269   2.030   3.461
10905TIP3    H232673   0.315   2.115   3.577
10906TIP3   OH232674   4.951   5.816   4.966
10906TIP3    H132675   5.005   5.761   4.909
10906TIP3    H232676   5.014   5.858   5.025
10907TIP3   OH232677   6.765   2.723   4.530
10907TIP3    H132678   6.766   2.649   4.469
10907TIP3    H232679   6.726   2.687   4.610
10908TIP3   OH232680   7.982   6.476   3.839
10908TIP3    H132681   7.953   6.428   3.917
10908TIP3    H232682   7.962   6.568   3.859
10909TIP3   OH232683   4.863   1.397   1.229
10909TIP3    H132684   4.874   1.462   1.159
10909TIP3    H232685   4.773   1.407   1.257
10910TIP3   OH232686   0.349   1.633   0.604
10910TIP3    H132687   0.400   1.713   0.610
10910TIP3    H232688   0.273   1.656   0.549
10911TIP3   OH232689   0.505   7.482   0.367
10911TIP3    H132690   0.518   7.390   0.344
10911TIP3    H232691   0.454   7.480   0.447
10912TIP3   OH232692   5.926   7.506   1.949
10912TIP3    H132693   5.995   7.528   2.011
10912TIP3    H232694   5.876   7.437   1.992
10913TIP3   OH232695   6.673   4.274   5.908
10913TIP3    H132696   6.626   4.355   5.889
10913TIP3    H232697   6.632   4.240   5.987
10914TIP3   OH232698   8.043   0.271   4.076
10914TIP3    H132699   8.138   0.271   4.067
10914TIP3    H232700   8.022   0.354   4.119
10915TIP3   OH232701   2.721   2.511   2.875
10915TIP3    H132702   2.695   2.550   2.792
10915TIP3    H232703   2.808   2.473   2.858
10916TIP3   OH232704   7.444   3.383   1.801
10916TIP3    H132705   7.498   3.359   1.725
10916TIP3    H232706   7.360   3.339   1.785
10917TIP3   OH232707   7.802   2.505   1.657
10917TIP3    H132708   7.864   2.574   1.682
10917TIP3    H232709   7.726   2.553   1.624
10918TIP3   OH232710   0.965   3.285   3.734
10918TIP3    H132711   0.912   3.342   3.679
10918TIP3    H232712   0.903   3.249   3.798
10919TIP3   OH232713   3.820   0.857   2.894
10919TIP3    H132714   3.764   0.854   2.972
10919TIP3    H232715   3.766   0.898   2.827
10920TIP3   OH232716   5.387   6.688   3.539
10920TIP3    H132717   5.369   6.651   3.625
10920TIP3    H232718   5.417   6.613   3.487
10921TIP3   OH232719   3.057   4.144   3.592
10921TIP3    H132720   3.011   4.074   3.546
10921TIP3    H232721   2.997   4.173   3.660
10922TIP3   OH232722   3.017   3.858   2.267
10922TIP3    H132723   2.945   3.920   2.279
10922TIP3    H232724   3.091   3.913   2.241
10923TIP3   OH232725   8.006   5.923   2.009
10923TIP3    H132726   8.018   5.973   1.928
10923TIP3    H232727   7.951   5.980   2.063
10924TIP3   OH232728   1.132   3.021   6.260
10924TIP3    H132729   1.184   3.080   6.315
10924TIP3    H232730   1.054   3.001   6.312
10925TIP3   OH232731   6.808   7.185   3.726
10925TIP3    H132732   6.761   7.259   3.689
10925TIP3    H232733   6.796   7.114   3.663
10926TIP3   OH232734   7.193   4.420   3.527
10926TIP3    H132735   7.252   4.448   3.457
10926TIP3    H232736   7.194   4.492   3.590
10927TIP3   OH232737   5.581   2.897   0.114
10927TIP3    H132738   5.643   2.951   0.065
10927TIP3    H232739   5.598   2.808   0.084
10928TIP3   OH232740   1.528   0.658   6.685
10928TIP3    H132741   1.500   0.635   6.596
10928TIP3    H232742   1.493   0.746   6.699
10929TIP3   OH232743   7.397   1.181   1.273
10929TIP3    H132744   7.441   1.236   1.338
10929TIP3    H232745   7.318   1.231   1.251
10930TIP3   OH232746   1.133   7.542   4.081
10930TIP3    H132747   1.179   7.516   4.002
10930TIP3    H232748   1.182   7.502   4.153
10931TIP3   OH232749   0.790   5.393   4.966
10931TIP3    H132750   0.796   5.487   4.983
10931TIP3    H232751   0.697   5.379   4.945
10932TIP3   OH232752   6.466   1.153   4.493
10932TIP3    H132753   6.496   1.104   4.569
10932TIP3    H232754   6.540   1.208   4.469
10933TIP3   OH232755   0.685   0.641   0.673
10933TIP3    H132756   0.675   0.548   0.656
10933TIP3    H232757   0.701   0.648   0.767
10934TIP3   OH232758   5.721   4.443   2.326
10934TIP3    H132759   5.700   4.524   2.278
10934TIP3    H232760   5.684   4.457   2.414
10935TIP3   OH232761   4.450   2.213   4.468
10935TIP3    H132762   4.506   2.290   4.455
10935TIP3    H232763   4.458   2.193   4.562
10936TIP3   OH232764   1.981   1.014   5.983
10936TIP3    H132765   2.049   0.968   6.031
10936TIP3    H232766   1.948   0.950   5.920
10937TIP3   OH232767   3.883   1.492   3.416
10937TIP3    H132768   3.945   1.562   3.395
10937TIP3    H232769   3.907   1.464   3.504
10938TIP3   OH232770   0.291   1.543   2.113
10938TIP3    H132771   0.334   1.545   2.028
10938TIP3    H232772   0.361   1.554   2.177
10939TIP3   OH232773   6.530   0.559   1.146
10939TIP3    H132774   6.443   0.596   1.159
10939TIP3    H232775   6.590   0.633   1.160
10940TIP3   OH232776   7.350   6.163   3.137
10940TIP3    H132777   7.375   6.072   3.120
10940TIP3    H232778   7.372   6.209   3.056
10941TIP3   OH232779   1.003   5.096   3.807
10941TIP3    H132780   1.006   5.039   3.731
10941TIP3    H232781   1.043   5.178   3.778
10942TIP3   OH232782   6.538   4.735   3.547
10942TIP3    H132783   6.584   4.819   3.540
10942TIP3    H232784   6.557   4.691   3.465
10943TIP3   OH232785   1.229   4.076   0.856
10943TIP3    H132786   1.252   3.985   0.836
10943TIP3    H232787   1.293   4.128   0.808
10944TIP3   OH232788   7.294   4.221   2.208
10944TIP3    H132789   7.289   4.317   2.210
10944TIP3    H232790   7.203   4.192   2.215
10945TIP3   OH232791   2.645   6.237   3.678
10945TIP3    H132792   2.639   6.236   3.773
10945TIP3    H232793   2.735   6.263   3.659
10946TIP3   OH232794   7.147   1.959   1.215
10946TIP3    H132795   7.155   1.990   1.305
10946TIP3    H232796   7.056   1.977   1.191
10947TIP3   OH232797   2.210   7.282   1.937
10947TIP3    H132798   2.169   7.255   1.855
10947TIP3    H232799   2.147   7.256   2.004
10948TIP3   OH232800   6.457   5.737   1.815
10948TIP3    H132801   6.461   5.642   1.800
10948TIP3    H232802   6.405   5.770   1.742
10949TIP3   OH232803   3.392   6.924   2.274
10949TIP3    H132804   3.430   6.897   2.190
10949TIP3    H232805   3.297   6.927   2.257
10950TIP3   OH232806   5.835   7.154   6.504
10950TIP3    H132807   5.848   7.216   6.577
10950TIP3    H232808   5.893   7.081   6.525
10951TIP3   OH232809   4.692   7.392   3.471
10951TIP3    H132810   4.677   7.461   3.535
10951TIP3    H232811   4.641   7.419   3.395
10952TIP3   OH232812   6.369   6.301   1.282
10952TIP3    H132813   6.356   6.210   1.256
10952TIP3    H232814   6.376   6.349   1.199
10953TIP3   OH232815   1.421   2.236   4.460
10953TIP3    H132816   1.387   2.147   4.469
10953TIP3    H232817   1.505   2.234   4.507
10954TIP3   OH232818   7.234   6.411   4.354
10954TIP3    H132819   7.325   6.391   4.375
10954TIP3    H232820   7.189   6.405   4.438
10955TIP3   OH232821   4.515   5.626   2.782
10955TIP3    H132822   4.489   5.653   2.694
10955TIP3    H232823   4.453   5.557   2.805
10956TIP3   OH232824   0.653   0.491   1.154
10956TIP3    H132825   0.564   0.525   1.140
10956TIP3    H232826   0.656   0.411   1.102
10957TIP3   OH232827   3.023   5.819   0.637
10957TIP3    H132828   2.964   5.856   0.571
10957TIP3    H232829   3.110   5.828   0.599
10958TIP3   OH232830   1.061   6.019   0.878
10958TIP3    H132831   0.966   6.028   0.867
10958TIP3    H232832   1.087   5.958   0.809
10959TIP3   OH232833   5.736   1.104   0.774
10959TIP3    H132834   5.782   1.077   0.694
10959TIP3    H232835   5.647   1.122   0.745
10960TIP3   OH232836   5.227   7.467   3.142
10960TIP3    H132837   5.141   7.428   3.158
10960TIP3    H232838   5.244   7.451   3.049
10961TIP3   OH232839   8.291   7.660   3.354
10961TIP3    H132840   8.355   7.675   3.423
10961TIP3    H232841   8.300   7.735   3.296
10962TIP3   OH232842   5.483   4.926   2.570
10962TIP3    H132843   5.489   4.977   2.490
10962TIP3    H232844   5.455   4.988   2.637
10963TIP3   OH232845   7.898   6.132   2.153
10963TIP3    H132846   7.980   6.148   2.200
10963TIP3    H232847   7.832   6.128   2.222
10964TIP3   OH232848   2.828   6.600   6.193
10964TIP3    H132849   2.809   6.670   6.256
10964TIP3    H232850   2.808   6.519   6.240
10965TIP3   OH232851   0.657   0.942   0.107
10965TIP3    H132852   0.742   0.984   0.123
10965TIP3    H232853   0.597   0.987   0.166
10966TIP3   OH232854   0.220   4.008   4.193
10966TIP3    H132855   0.265   3.923   4.189
10966TIP3    H232856   0.200   4.020   4.285
10967TIP3   OH232857   1.289   2.672   1.203
10967TIP3    H132858   1.330   2.650   1.119
10967TIP3    H232859   1.324   2.758   1.226
10968TIP3   OH232860   0.776   3.488   6.688
10968TIP3    H132861   0.816   3.447   6.765
10968TIP3    H232862   0.849   3.525   6.640
10969TIP3   OH232863   6.010   3.679   0.852
10969TIP3    H132864   6.010   3.761   0.803
10969TIP3    H232865   6.070   3.622   0.803
10970TIP3   OH232866   6.325   2.003   2.194
10970TIP3    H132867   6.377   2.073   2.153
10970TIP3    H232868   6.237   2.015   2.159
10971TIP3   OH232869   0.132   0.933   6.510
10971TIP3    H132870   0.129   0.910   6.603
10971TIP3    H232871   0.042   0.960   6.489
10972TIP3   OH232872   4.103   6.745   2.962
10972TIP3    H132873   4.083   6.738   2.868
10972TIP3    H232874   4.035   6.692   3.004
10973TIP3   OH232875   1.412   1.175   4.844
10973TIP3    H132876   1.458   1.259   4.842
10973TIP3    H232877   1.351   1.182   4.917
10974TIP3   OH232878   1.581   2.454   0.329
10974TIP3    H132879   1.567   2.391   0.257
10974TIP3    H232880   1.667   2.431   0.364
10975TIP3   OH232881   5.047   4.659   5.521
10975TIP3    H132882   5.004   4.619   5.596
10975TIP3    H232883   4.989   4.731   5.495
10976TIP3   OH232884   4.635   1.522   1.311
10976TIP3    H132885   4.673   1.520   1.399
10976TIP3    H232886   4.540   1.529   1.326
10977TIP3   OH232887   2.206   4.743   3.852
10977TIP3    H132888   2.178   4.690   3.926
10977TIP3    H232889   2.298   4.761   3.868
10978TIP3   OH232890   4.633   4.549   0.581
10978TIP3    H132891   4.638   4.472   0.637
10978TIP3    H232892   4.664   4.621   0.636
10979TIP3   OH232893   8.146   7.292   1.498
10979TIP3    H132894   8.147   7.205   1.536
10979TIP3    H232895   8.106   7.348   1.565
10980TIP3   OH232896   3.724   1.950   1.572
10980TIP3    H132897   3.744   2.029   1.622
10980TIP3    H232898   3.724   1.979   1.481
10981TIP3   OH232899   3.295   0.909   2.946
10981TIP3    H132900   3.202   0.930   2.943
10981TIP3    H232901   3.338   0.995   2.953
10982TIP3   OH232902   4.968   5.570   1.369
10982TIP3    H132903   4.969   5.476   1.353
10982TIP3    H232904   5.052   5.588   1.412
10983TIP3   OH232905   5.969   1.292   6.681
10983TIP3    H132906   5.959   1.200   6.705
10983TIP3    H232907   6.059   1.299   6.650
10984TIP3   OH232908   2.692   6.920   4.871
10984TIP3    H132909   2.724   6.899   4.783
10984TIP3    H232910   2.597   6.909   4.865
10985TIP3   OH232911   0.473   7.648   0.821
10985TIP3    H132912   0.418   7.726   0.808
10985TIP3    H232913   0.455   7.593   0.745
10986TIP3   OH232914   3.192   2.435   0.400
10986TIP3    H132915   3.218   2.343   0.408
10986TIP3    H232916   3.237   2.479   0.472
10987TIP3   OH232917   2.690   3.326   0.146
10987TIP3    H132918   2.724   3.372   0.223
10987TIP3    H232919   2.602   3.297   0.172
10988TIP3   OH232920   7.997   3.430   5.325
10988TIP3    H132921   8.032   3.512   5.358
10988TIP3    H232922   8.039   3.419   5.239
10989TIP3   OH232923   3.840   1.413   1.091
10989TIP3    H132924   3.880   1.499   1.074
10989TIP3    H232925   3.906   1.365   1.141
10990TIP3   OH232926   2.565   4.338   0.637
10990TIP3    H132927   2.549   4.246   0.616
10990TIP3    H232928   2.498   4.386   0.588
10991TIP3   OH232929   4.179   3.430   0.306
10991TIP3    H132930   4.155   3.344   0.269
10991TIP3    H232931   4.117   3.490   0.265
10992TIP3   OH232932   3.565   0.261   2.188
10992TIP3    H132933   3.542   0.191   2.250
10992TIP3    H232934   3.515   0.337   2.218
10993TIP3   OH232935   1.637   7.392   3.363
10993TIP3    H132936   1.719   7.439   3.352
10993TIP3    H232937   1.664   7.301   3.379
10994TIP3   OH232938   8.300   6.687   0.754
10994TIP3    H132939   8.211   6.669   0.722
10994TIP3    H232940   8.345   6.727   0.679
10995TIP3   OH232941   7.486   1.547   3.358
10995TIP3    H132942   7.499   1.509   3.445
10995TIP3    H232943   7.482   1.642   3.373
10996TIP3   OH232944   7.154   7.332   2.633
10996TIP3    H132945   7.186   7.242   2.635
10996TIP3    H232946   7.075   7.329   2.580
10997TIP3   OH232947   3.772   3.827   4.290
10997TIP3    H132948   3.780   3.806   4.383
10997TIP3    H232949   3.718   3.757   4.254
10998TIP3   OH232950   5.512   1.234   4.723
10998TIP3    H132951   5.497   1.187   4.805
10998TIP3    H232952   5.530   1.166   4.659
10999TIP3   OH232953   5.314   7.598   5.686
10999TIP3    H132954   5.259   7.575   5.611
10999TIP3    H232955   5.277   7.680   5.719
11000TIP3   OH232956   4.686   0.709   0.356
11000TIP3    H132957   4.681   0.672   0.268
11000TIP3    H232958   4.670   0.802   0.344
11001TIP3   OH232959   2.410   5.813   4.613
11001TIP3    H132960   2.377   5.851   4.694
11001TIP3    H232961   2.417   5.719   4.632
11002TIP3   OH232962   4.581   6.281   0.809
11002TIP3    H132963   4.625   6.356   0.847
11002TIP3    H232964   4.624   6.267   0.725
11003TIP3   OH232965   2.360   0.923   5.784
11003TIP3    H132966   2.399   0.997   5.737
11003TIP3    H232967   2.271   0.917   5.749
11004TIP3   OH232968   5.956   5.028   4.102
11004TIP3    H132969   6.001   5.007   4.020
11004TIP3    H232970   5.865   5.039   4.077
11005TIP3   OH232971   0.531   6.655   4.853
11005TIP3    H132972   0.499   6.632   4.940
11005TIP3    H232973   0.461   6.707   4.814
11006TIP3   OH232974   6.580   7.735   4.563
11006TIP3    H132975   6.500   7.697   4.601
11006TIP3    H232976   6.587   7.821   4.604
11007TIP3   OH232977   0.297   6.593   3.712
11007TIP3    H132978   0.264   6.534   3.644
11007TIP3    H232979   0.305   6.538   3.790
11008TIP3   OH232980   4.787   4.899   1.258
11008TIP3    H132981   4.876   4.934   1.263
11008TIP3    H232982   4.791   4.834   1.188
11009TIP3   OH232983   2.927   0.791   5.991
11009TIP3    H132984   2.869   0.867   5.994
11009TIP3    H232985   2.978   0.802   5.911
11010TIP3   OH232986   0.886   4.881   5.062
11010TIP3    H132987   0.890   4.789   5.037
11010TIP3    H232988   0.978   4.907   5.073
11011TIP3   OH232989   4.880   0.433   1.446
11011TIP3    H132990   4.903   0.389   1.528
11011TIP3    H232991   4.937   0.509   1.442
11012TIP3   OH232992   3.456   7.619   5.343
11012TIP3    H132993   3.453   7.530   5.307
11012TIP3    H232994   3.532   7.618   5.402
11013TIP3   OH232995   3.560   0.786   3.829
11013TIP3    H132996   3.589   0.741   3.750
11013TIP3    H232997   3.489   0.731   3.863
11014TIP3   OH232998   1.831   4.505   1.087
11014TIP3    H132999   1.832   4.587   1.037
11014TIP3    H233000   1.901   4.515   1.151
11015TIP3   OH233001   2.159   2.740   2.221
11015TIP3    H133002   2.087   2.712   2.278
11015TIP3    H233003   2.196   2.816   2.266
11016TIP3   OH233004   7.216   7.151   1.726
11016TIP3    H133005   7.253   7.073   1.769
11016TIP3    H233006   7.122   7.133   1.721
11017TIP3   OH233007   5.882   4.512   6.505
11017TIP3    H133008   5.909   4.421   6.517
11017TIP3    H233009   5.946   4.563   6.554
11018TIP3   OH233010   5.020   3.852   5.722
11018TIP3    H133011   5.105   3.809   5.713
11018TIP3    H233012   5.015   3.874   5.816
11019TIP3   OH233013   2.265   3.527   5.940
11019TIP3    H133014   2.335   3.553   6.000
11019TIP3    H233015   2.290   3.439   5.911
11020TIP3   OH233016   1.725   3.232   3.908
11020TIP3    H133017   1.685   3.224   3.822
11020TIP3    H233018   1.651   3.233   3.969
11021TIP3   OH233019   5.990   5.811   4.512
11021TIP3    H133020   6.025   5.891   4.551
11021TIP3    H233021   6.033   5.740   4.560
11022TIP3   OH233022   6.970   1.068   1.923
11022TIP3    H133023   7.039   1.039   1.983
11022TIP3    H233024   6.905   0.998   1.926
11023TIP3   OH233025   3.987   0.042   2.027
11023TIP3    H133026   3.899   0.076   2.044
11023TIP3    H233027   4.046   0.111   2.059
11024TIP3   OH233028   2.949   6.437   4.258
11024TIP3    H133029   2.972   6.418   4.349
11024TIP3    H233030   2.876   6.499   4.264
11025TIP3   OH233031   4.162   7.079   1.226
11025TIP3    H133032   4.228   7.149   1.223
11025TIP3    H233033   4.166   7.046   1.316
11026TIP3   OH233034   2.927   5.431   1.815
11026TIP3    H133035   3.007   5.380   1.799
11026TIP3    H233036   2.936   5.507   1.758
11027TIP3   OH233037   5.550   1.365   0.307
11027TIP3    H133038   5.645   1.348   0.312
11027TIP3    H233039   5.516   1.289   0.259
11028TIP3   OH233040   5.745   5.917   0.873
11028TIP3    H133041   5.732   5.846   0.935
11028TIP3    H233042   5.750   5.873   0.788
11029TIP3   OH233043   5.194   6.390   3.386
11029TIP3    H133044   5.133   6.395   3.460
11029TIP3    H233045   5.169   6.462   3.329
11030TIP3   OH233046   5.642   1.522   1.926
11030TIP3    H133047   5.682   1.609   1.920
11030TIP3    H233048   5.598   1.521   2.011
11031TIP3   OH233049   0.162   7.088   0.762
11031TIP3    H133050   0.163   6.994   0.782
11031TIP3    H233051   0.131   7.130   0.842
11032TIP3   OH233052   8.242   5.184   3.942
11032TIP3    H133053   8.163   5.221   3.904
11032TIP3    H233054   8.264   5.243   4.014
11033TIP3   OH233055   2.540   0.988   2.758
11033TIP3    H133056   2.583   0.913   2.716
11033TIP3    H233057   2.589   1.003   2.838
11034TIP3   OH233058   7.769   3.388   1.365
11034TIP3    H133059   7.849   3.429   1.397
11034TIP3    H233060   7.729   3.455   1.309
11035TIP3   OH233061   0.094   2.811   1.584
11035TIP3    H133062   0.108   2.720   1.611
11035TIP3    H233063   0.092   2.807   1.488
11036TIP3   OH233064   6.210   6.687   5.671
11036TIP3    H133065   6.279   6.622   5.676
11036TIP3    H233066   6.176   6.693   5.761
11037TIP3   OH233067   4.300   6.816   1.584
11037TIP3    H133068   4.388   6.780   1.598
11037TIP3    H233069   4.261   6.759   1.518
11038TIP3   OH233070   4.909   3.188   4.948
11038TIP3    H133071   4.944   3.099   4.951
11038TIP3    H233072   4.944   3.224   4.867
11039TIP3   OH233073   5.969   4.383   1.446
11039TIP3    H133074   5.986   4.388   1.540
11039TIP3    H233075   6.050   4.415   1.405
11040TIP3   OH233076   5.774   3.725   1.485
11040TIP3    H133077   5.832   3.757   1.554
11040TIP3    H233078   5.761   3.800   1.427
11041TIP3   OH233079   4.193   3.014   0.679
11041TIP3    H133080   4.218   3.009   0.586
11041TIP3    H233081   4.113   2.961   0.684
11042TIP3   OH233082   0.734   3.620   5.514
11042TIP3    H133083   0.652   3.580   5.486
11042TIP3    H233084   0.750   3.584   5.601
11043TIP3   OH233085   5.032   2.617   6.103
11043TIP3    H133086   4.961   2.657   6.052
11043TIP3    H233087   5.075   2.557   6.042
11044TIP3   OH233088   3.291   0.253   0.306
11044TIP3    H133089   3.264   0.164   0.329
11044TIP3    H233090   3.261   0.264   0.216
11045TIP3   OH233091   5.562   0.881   2.814
11045TIP3    H133092   5.487   0.932   2.785
11045TIP3    H233093   5.537   0.790   2.799
11046TIP3   OH233094   5.071   2.311   4.387
11046TIP3    H133095   5.130   2.371   4.433
11046TIP3    H233096   5.129   2.241   4.355
11047TIP3   OH233097   1.721   1.063   1.104
11047TIP3    H133098   1.656   1.099   1.165
11047TIP3    H233099   1.779   1.010   1.159
11048TIP3   OH233100   3.641   1.120   6.023
11048TIP3    H133101   3.651   1.098   5.931
11048TIP3    H233102   3.670   1.211   6.029
11049TIP3   OH233103   4.346   6.184   6.435
11049TIP3    H133104   4.431   6.152   6.464
11049TIP3    H233105   4.368   6.246   6.364
11050TIP3   OH233106   6.683   5.895   2.457
11050TIP3    H133107   6.676   5.806   2.492
11050TIP3    H233108   6.739   5.940   2.520
11051TIP3   OH233109   5.849   3.638   1.875
11051TIP3    H133110   5.904   3.595   1.810
11051TIP3    H233111   5.888   3.724   1.887
11052TIP3   OH233112   3.249   4.389   2.503
11052TIP3    H133113   3.184   4.459   2.495
11052TIP3    H233114   3.333   4.434   2.502
11053TIP3   OH233115   6.749   2.846   4.905
11053TIP3    H133116   6.680   2.848   4.838
11053TIP3    H233117   6.764   2.938   4.926
11054TIP3   OH233118   6.048   6.802   5.142
11054TIP3    H133119   6.057   6.712   5.110
11054TIP3    H233120   6.058   6.856   5.064
11055TIP3   OH233121   4.287   3.442   1.986
11055TIP3    H133122   4.259   3.473   1.900
11055TIP3    H233123   4.231   3.366   2.004
11056TIP3   OH233124   2.595   1.631   2.309
11056TIP3    H133125   2.667   1.669   2.360
11056TIP3    H233126   2.519   1.638   2.365
11057TIP3   OH233127   6.884   2.931   6.099
11057TIP3    H133128   6.892   2.862   6.032
11057TIP3    H233129   6.890   3.013   6.050
11058TIP3   OH233130   4.230   3.907   3.233
11058TIP3    H133131   4.142   3.877   3.254
11058TIP3    H233132   4.277   3.905   3.316
11059TIP3   OH233133   7.287   3.081   5.918
11059TIP3    H133134   7.238   3.035   5.849
11059TIP3    H233135   7.301   3.169   5.884
11060TIP3   OH233136   7.951   3.859   6.768
11060TIP3    H133137   8.008   3.914   6.821
11060TIP3    H233138   7.989   3.862   6.680
11061TIP3   OH233139   6.471   7.238   5.835
11061TIP3    H133140   6.539   7.232   5.901
11061TIP3    H233141   6.433   7.150   5.831
11062TIP3   OH233142   4.709   7.292   6.456
11062TIP3    H133143   4.795   7.265   6.424
11062TIP3    H233144   4.671   7.212   6.493
11063TIP3   OH233145   1.795   6.830   1.130
11063TIP3    H133146   1.759   6.823   1.041
11063TIP3    H233147   1.850   6.752   1.140
11064TIP3   OH233148   2.809   5.189   5.552
11064TIP3    H133149   2.737   5.172   5.491
11064TIP3    H233150   2.768   5.237   5.624
11065TIP3   OH233151   6.691   4.626   0.813
11065TIP3    H133152   6.704   4.665   0.726
11065TIP3    H233153   6.724   4.691   0.874
11066TIP3   OH233154   6.086   5.539   6.293
11066TIP3    H133155   6.119   5.480   6.361
11066TIP3    H233156   6.115   5.626   6.322
11067TIP3   OH233157   3.144   2.210   5.636
11067TIP3    H133158   3.191   2.286   5.602
11067TIP3    H233159   3.212   2.154   5.673
11068TIP3   OH233160   0.628   6.648   2.497
11068TIP3    H133161   0.585   6.567   2.469
11068TIP3    H233162   0.720   6.635   2.477
11069TIP3   OH233163   5.183   6.617   1.707
11069TIP3    H133164   5.182   6.546   1.771
11069TIP3    H233165   5.249   6.590   1.643
11070TIP3   OH233166   2.342   7.108   4.416
11070TIP3    H133167   2.354   7.013   4.419
11070TIP3    H233168   2.328   7.127   4.323
11071TIP3   OH233169   5.902   3.440   5.324
11071TIP3    H133170   5.957   3.366   5.300
11071TIP3    H233171   5.857   3.412   5.404
11072TIP3   OH233172   5.560   1.650   4.550
11072TIP3    H133173   5.552   1.566   4.503
11072TIP3    H233174   5.477   1.695   4.534
11073TIP3   OH233175   0.245   1.224   4.494
11073TIP3    H133176   0.202   1.255   4.414
11073TIP3    H233177   0.321   1.175   4.463
11074TIP3   OH233178   6.958   3.244   5.706
11074TIP3    H133179   7.014   3.168   5.689
11074TIP3    H233180   6.973   3.302   5.631
11075TIP3   OH233181   0.841   7.793   3.639
11075TIP3    H133182   0.894   7.785   3.559
11075TIP3    H233183   0.869   7.721   3.694
11076TIP3   OH233184   1.580   4.532   5.604
11076TIP3    H133185   1.666   4.542   5.644
11076TIP3    H233186   1.519   4.541   5.678
11077TIP3   OH233187   4.561   2.058   6.242
11077TIP3    H133188   4.579   2.093   6.329
11077TIP3    H233189   4.645   2.028   6.209
11078TIP3   OH233190   6.927   3.989   0.796
11078TIP3    H133191   6.958   4.045   0.725
11078TIP3    H233192   6.988   4.004   0.868
11079TIP3   OH233193   6.854   6.982   2.586
11079TIP3    H133194   6.805   6.976   2.668
11079TIP3    H233195   6.806   7.046   2.533
11080TIP3   OH233196   7.688   4.535   5.319
11080TIP3    H133197   7.619   4.497   5.265
11080TIP3    H233198   7.706   4.469   5.387
11081TIP3   OH233199   2.485   5.209   2.581
11081TIP3    H133200   2.430   5.245   2.511
11081TIP3    H233201   2.461   5.116   2.584
11082TIP3   OH233202   7.074   0.897   2.229
11082TIP3    H133203   6.979   0.910   2.232
11082TIP3    H233204   7.096   0.862   2.316
11083TIP3   OH233205   3.795   0.298   5.457
11083TIP3    H133206   3.861   0.279   5.523
11083TIP3    H233207   3.802   0.392   5.441
11084TIP3   OH233208   1.835   2.196   1.147
11084TIP3    H133209   1.858   2.189   1.054
11084TIP3    H233210   1.912   2.234   1.189
11085TIP3   OH233211   6.405   4.637   2.718
11085TIP3    H133212   6.470   4.705   2.702
11085TIP3    H233213   6.400   4.589   2.635
11086TIP3   OH233214   3.892   1.825   0.227
11086TIP3    H133215   3.866   1.766   0.156
11086TIP3    H233216   3.866   1.912   0.197
11087TIP3   OH233217   0.896   2.308   1.580
11087TIP3    H133218   0.806   2.283   1.600
11087TIP3    H233219   0.935   2.229   1.542
11088TIP3   OH233220   2.103   0.375   5.557
11088TIP3    H133221   2.085   0.308   5.623
11088TIP3    H233222   2.197   0.368   5.540
11089TIP3   OH233223   4.340   3.963   5.038
11089TIP3    H133224   4.316   4.054   5.052
11089TIP3    H233225   4.267   3.926   4.987
11090TIP3   OH233226   2.901   1.438   0.445
11090TIP3    H133227   2.871   1.351   0.471
11090TIP3    H233228   2.919   1.482   0.528
11091TIP3   OH233229   6.592   6.132   1.091
11091TIP3    H133230   6.555   6.135   1.003
11091TIP3    H233231   6.629   6.219   1.105
11092TIP3   OH233232   4.354   3.485   4.859
11092TIP3    H133233   4.351   3.545   4.934
11092TIP3    H233234   4.293   3.415   4.882
11093TIP3   OH233235   1.433   3.783   5.973
11093TIP3    H133236   1.471   3.719   6.032
11093TIP3    H233237   1.342   3.793   6.003
11094TIP3   OH233238   3.820   7.034   4.923
11094TIP3    H133239   3.786   6.962   4.976
11094TIP3    H233240   3.903   7.057   4.964
11095TIP3   OH233241   3.103   3.752   4.555
11095TIP3    H133242   3.097   3.822   4.490
11095TIP3    H233243   3.087   3.672   4.505
11096TIP3   OH233244   6.738   3.129   5.012
11096TIP3    H133245   6.803   3.156   4.948
11096TIP3    H233246   6.674   3.200   5.012
11097TIP3   OH233247   3.231   1.497   0.921
11097TIP3    H133248   3.171   1.448   0.866
11097TIP3    H233249   3.204   1.589   0.911
11098TIP3   OH233250   7.548   3.687   5.359
11098TIP3    H133251   7.519   3.727   5.441
11098TIP3    H233252   7.542   3.757   5.294
11099TIP3   OH233253   5.817   1.514   2.854
11099TIP3    H133254   5.764   1.439   2.828
11099TIP3    H233255   5.756   1.588   2.851
11100TIP3   OH233256   1.968   7.638   1.269
11100TIP3    H133257   2.011   7.604   1.191
11100TIP3    H233258   2.019   7.715   1.294
11101TIP3   OH233259   0.146   4.968   4.032
11101TIP3    H133260   0.211   4.897   4.036
11101TIP3    H233261   0.097   4.951   3.951
11102TIP3   OH233262   4.613   6.857   2.118
11102TIP3    H133263   4.521   6.864   2.144
11102TIP3    H233264   4.652   6.797   2.181
11103TIP3   OH233265   4.555   7.130   1.658
11103TIP3    H133266   4.525   7.086   1.738
11103TIP3    H233267   4.496   7.205   1.649
11104TIP3   OH233268   2.665   5.093   5.325
11104TIP3    H133269   2.578   5.126   5.300
11104TIP3    H233270   2.653   4.999   5.333
11105TIP3   OH233271   1.020   2.077   1.557
11105TIP3    H133272   1.031   2.040   1.470
11105TIP3    H233273   1.079   2.026   1.613
11106TIP3   OH233274   7.022   1.555   3.987
11106TIP3    H133275   7.009   1.472   3.943
11106TIP3    H233276   6.985   1.542   4.075
11107TIP3   OH233277   6.656   3.283   5.763
11107TIP3    H133278   6.719   3.278   5.835
11107TIP3    H233279   6.610   3.367   5.777
11108TIP3   OH233280   5.718   0.292   5.762
11108TIP3    H133281   5.737   0.206   5.725
11108TIP3    H233282   5.756   0.289   5.850
11109TIP3   OH233283   1.627   1.413   2.138
11109TIP3    H133284   1.705   1.427   2.085
11109TIP3    H233285   1.625   1.488   2.197
11110TIP3   OH233286   5.183   1.712   0.229
11110TIP3    H133287   5.130   1.789   0.208
11110TIP3    H233288   5.273   1.746   0.234
11111TIP3   OH233289   3.991   1.277   3.264
11111TIP3    H133290   3.931   1.333   3.314
11111TIP3    H233291   4.078   1.306   3.291
11112TIP3   OH233292   7.492   4.815   3.354
11112TIP3    H133293   7.494   4.750   3.424
11112TIP3    H233294   7.583   4.840   3.341
11113TIP3   OH233295   4.501   1.931   5.093
11113TIP3    H133296   4.504   1.835   5.089
11113TIP3    H233297   4.435   1.956   5.029
11114TIP3   OH233298   4.709   3.348   0.902
11114TIP3    H133299   4.751   3.306   0.826
11114TIP3    H233300   4.636   3.398   0.864
11115TIP3   OH233301   0.213   1.072   2.428
11115TIP3    H133302   0.216   1.161   2.392
11115TIP3    H233303   0.130   1.036   2.398
11116TIP3   OH233304   4.190   7.739   3.458
11116TIP3    H133305   4.197   7.763   3.551
11116TIP3    H233306   4.137   7.660   3.458
11117TIP3   OH233307   6.159   4.824   1.404
11117TIP3    H133308   6.223   4.832   1.474
11117TIP3    H233309   6.185   4.745   1.356
11118TIP3   OH233310   6.936   2.285   5.521
11118TIP3    H133311   6.845   2.313   5.519
11118TIP3    H233312   6.983   2.352   5.472
11119TIP3   OH233313   4.658   1.342   2.377
11119TIP3    H133314   4.736   1.291   2.353
11119TIP3    H233315   4.645   1.324   2.470
11120TIP3   OH233316   6.107   4.897   5.585
11120TIP3    H133317   6.103   4.988   5.557
11120TIP3    H233318   6.196   4.869   5.562
11121TIP3   OH233319   5.406   1.969   5.538
11121TIP3    H133320   5.333   1.923   5.496
11121TIP3    H233321   5.372   1.998   5.622
11122TIP3   OH233322   1.768   0.423   0.438
11122TIP3    H133323   1.703   0.490   0.460
11122TIP3    H233324   1.731   0.378   0.362
11123TIP3   OH233325   7.269   2.419   3.312
11123TIP3    H133326   7.313   2.335   3.299
11123TIP3    H233327   7.249   2.450   3.224
11124TIP3   OH233328   2.983   3.152   0.785
11124TIP3    H133329   2.980   3.242   0.818
11124TIP3    H233330   3.009   3.100   0.861
11125TIP3   OH233331   2.254   2.273   0.982
11125TIP3    H133332   2.257   2.294   0.888
11125TIP3    H233333   2.312   2.197   0.991
11126TIP3   OH233334   1.398   5.188   2.329
11126TIP3    H133335   1.309   5.159   2.350
11126TIP3    H233336   1.448   5.170   2.409
11127TIP3   OH233337   7.800   5.388   2.502
11127TIP3    H133338   7.726   5.440   2.535
11127TIP3    H233339   7.806   5.410   2.410
11128TIP3   OH233340   6.342   3.538   6.435
11128TIP3    H133341   6.431   3.505   6.446
11128TIP3    H233342   6.305   3.486   6.364
11129TIP3   OH233343   1.501   6.828   6.548
11129TIP3    H133344   1.422   6.820   6.601
11129TIP3    H233345   1.471   6.872   6.468
11130TIP3   OH233346   0.793   6.499   1.587
11130TIP3    H133347   0.722   6.520   1.647
11130TIP3    H233348   0.852   6.442   1.637
11131TIP3   OH233349   3.583   0.320   0.363
11131TIP3    H133350   3.497   0.288   0.336
11131TIP3    H233351   3.570   0.353   0.452
11132TIP3   OH233352   7.608   2.462   0.161
11132TIP3    H133353   7.553   2.411   0.220
11132TIP3    H233354   7.579   2.553   0.172
11133TIP3   OH233355   4.494   5.757   5.362
11133TIP3    H133356   4.572   5.782   5.311
11133TIP3    H233357   4.431   5.827   5.345
11134TIP3   OH233358   0.805   2.620   1.745
11134TIP3    H133359   0.834   2.587   1.660
11134TIP3    H233360   0.840   2.559   1.808
11135TIP3   OH233361   1.562   3.237   1.774
11135TIP3    H133362   1.533   3.199   1.691
11135TIP3    H233363   1.648   3.199   1.789
11136TIP3   OH233364   5.178   6.010   0.592
11136TIP3    H133365   5.157   5.917   0.585
11136TIP3    H233366   5.237   6.027   0.518
11137TIP3   OH233367   8.037   2.246   4.280
11137TIP3    H133368   8.123   2.270   4.246
11137TIP3    H233369   8.002   2.327   4.316
11138TIP3   OH233370   2.848   3.251   2.515
11138TIP3    H133371   2.853   3.227   2.607
11138TIP3    H233372   2.814   3.172   2.471
11139TIP3   OH233373   3.248   2.865   0.280
11139TIP3    H133374   3.176   2.893   0.337
11139TIP3    H233375   3.309   2.938   0.281
11140TIP3   OH233376   2.652   6.526   4.801
11140TIP3    H133377   2.648   6.436   4.771
11140TIP3    H233378   2.572   6.539   4.852
11141TIP3   OH233379   3.615   6.943   0.806
11141TIP3    H133380   3.641   6.855   0.832
11141TIP3    H233381   3.573   6.932   0.721
11142TIP3   OH233382   6.471   0.083   2.385
11142TIP3    H133383   6.546   0.071   2.444
11142TIP3    H233384   6.396   0.092   2.443
11143TIP3   OH233385   6.393   1.993   6.312
11143TIP3    H133386   6.486   1.999   6.335
11143TIP3    H233387   6.392   2.002   6.216
11144TIP3   OH233388   2.644   6.003   1.101
11144TIP3    H133389   2.710   5.949   1.059
11144TIP3    H233390   2.561   5.959   1.083
11145TIP3   OH233391   1.790   5.850   6.570
11145TIP3    H133392   1.704   5.839   6.530
11145TIP3    H233393   1.832   5.764   6.563
11146TIP3   OH233394   6.740   4.697   6.395
11146TIP3    H133395   6.685   4.768   6.427
11146TIP3    H233396   6.828   4.720   6.423
11147TIP3   OH233397   3.809   5.021   4.992
11147TIP3    H133398   3.822   4.940   5.040
11147TIP3    H233399   3.818   5.090   5.058
11148TIP3   OH233400   5.239   5.848   3.307
11148TIP3    H133401   5.195   5.814   3.384
11148TIP3    H233402   5.325   5.805   3.307
11149TIP3   OH233403   4.761   1.220   0.125
11149TIP3    H133404   4.770   1.133   0.165
11149TIP3    H233405   4.777   1.281   0.197
11150TIP3   OH233406   6.124   3.320   0.604
11150TIP3    H133407   6.085   3.243   0.644
11150TIP3    H233408   6.120   3.303   0.510
11151TIP3   OH233409   4.138   3.438   2.695
11151TIP3    H133410   4.078   3.363   2.688
11151TIP3    H233411   4.134   3.463   2.787
11152TIP3   OH233412   3.803   4.511   1.786
11152TIP3    H133413   3.822   4.601   1.812
11152TIP3    H233414   3.837   4.458   1.857
11153TIP3   OH233415   2.710   3.874   2.291
11153TIP3    H133416   2.649   3.941   2.319
11153TIP3    H233417   2.719   3.887   2.197
11154TIP3   OH233418   6.898   3.162   0.059
11154TIP3    H133419   6.963   3.214   0.012
11154TIP3    H233420   6.945   3.125   0.134
11155TIP3   OH233421   6.919   6.891   5.224
11155TIP3    H133422   6.882   6.837   5.154
11155TIP3    H233423   7.005   6.853   5.241
11156TIP3   OH233424   7.080   1.238   2.414
11156TIP3    H133425   7.041   1.163   2.458
11156TIP3    H233426   7.012   1.306   2.420
11157TIP3   OH233427   1.974   3.902   1.043
11157TIP3    H133428   1.918   3.934   1.113
11157TIP3    H233429   2.062   3.927   1.069
11158TIP3   OH233430   3.893   4.812   5.134
11158TIP3    H133431   3.827   4.805   5.203
11158TIP3    H233432   3.910   4.722   5.108
11159TIP3   OH233433   8.038   7.579   6.563
11159TIP3    H133434   8.114   7.562   6.619
11159TIP3    H233435   8.063   7.543   6.478
11160TIP3   OH233436   6.704   1.023   5.376
11160TIP3    H133437   6.672   0.998   5.463
11160TIP3    H233438   6.751   0.946   5.345
11161TIP3   OH233439   7.473   4.425   0.169
11161TIP3    H133440   7.448   4.437   0.077
11161TIP3    H233441   7.396   4.454   0.219
11162TIP3   OH233442   8.142   2.504   4.637
11162TIP3    H133443   8.131   2.592   4.673
11162TIP3    H233444   8.227   2.475   4.669
11163TIP3   OH233445   1.946   1.253   0.196
11163TIP3    H133446   1.885   1.273   0.266
11163TIP3    H233447   1.898   1.273   0.116
11164TIP3   OH233448   6.096   5.915   2.850
11164TIP3    H133449   6.154   5.938   2.923
11164TIP3    H233450   6.075   5.823   2.864
11165TIP3   OH233451   3.916   3.473   6.617
11165TIP3    H133452   3.860   3.550   6.608
11165TIP3    H233453   3.964   3.488   6.699
11166TIP3   OH233454   0.753   6.540   5.610
11166TIP3    H133455   0.740   6.446   5.608
11166TIP3    H233456   0.713   6.569   5.692
11167TIP3   OH233457   6.694   2.574   0.454
11167TIP3    H133458   6.676   2.480   0.459
11167TIP3    H233459   6.788   2.580   0.436
11168TIP3   OH233460   6.646   6.740   5.283
11168TIP3    H133461   6.571   6.719   5.228
11168TIP3    H233462   6.617   6.813   5.338
11169TIP3   OH233463   3.124   4.386   2.896
11169TIP3    H133464   3.211   4.427   2.890
11169TIP3    H233465   3.097   4.374   2.805
11170TIP3   OH233466   3.200   7.450   5.280
11170TIP3    H133467   3.122   7.412   5.240
11170TIP3    H233468   3.179   7.543   5.290
11171TIP3   OH233469   0.597   5.587   0.818
11171TIP3    H133470   0.511   5.545   0.818
11171TIP3    H233471   0.636   5.562   0.902
11172TIP3   OH233472   7.844   6.752   4.126
11172TIP3    H133473   7.895   6.827   4.156
11172TIP3    H233474   7.844   6.759   4.031
11173TIP3   OH233475   5.297   6.978   3.611
11173TIP3    H133476   5.319   6.908   3.550
11173TIP3    H233477   5.243   6.936   3.678
11174TIP3   OH233478   3.532   0.090   3.869
11174TIP3    H133479   3.544   0.060   3.779
11174TIP3    H233480   3.510   0.011   3.919
11175TIP3   OH233481   3.721   2.228   6.478
11175TIP3    H133482   3.740   2.153   6.422
11175TIP3    H233483   3.651   2.198   6.536
11176TIP3   OH233484   6.165   1.129   3.425
11176TIP3    H133485   6.164   1.036   3.444
11176TIP3    H233486   6.080   1.146   3.383
11177TIP3   OH233487   2.615   0.434   6.320
11177TIP3    H133488   2.613   0.530   6.316
11177TIP3    H233489   2.691   0.410   6.267
11178TIP3   OH233490   4.378   5.083   1.089
11178TIP3    H133491   4.442   5.024   1.048
11178TIP3    H233492   4.297   5.066   1.041
11179TIP3   OH233493   6.223   6.141   5.189
11179TIP3    H133494   6.161   6.126   5.261
11179TIP3    H233495   6.304   6.101   5.219
11180TIP3   OH233496   6.614   1.277   0.046
11180TIP3    H133497   6.586   1.221   0.119
11180TIP3    H233498   6.643   1.215  -0.021
11181TIP3   OH233499   4.736   3.440   0.144
11181TIP3    H133500   4.703   3.375   0.082
11181TIP3    H233501   4.770   3.388   0.217
11182TIP3   OH233502   0.810   7.667   5.871
11182TIP3    H133503   0.808   7.691   5.963
11182TIP3    H233504   0.800   7.572   5.871
11183TIP3   OH233505   4.702   3.074   5.091
11183TIP3    H133506   4.768   3.092   5.024
11183TIP3    H233507   4.626   3.125   5.065
11184TIP3   OH233508   7.738   5.352   5.421
11184TIP3    H133509   7.732   5.446   5.404
11184TIP3    H233510   7.668   5.335   5.483
11185TIP3   OH233511   3.831   5.776   2.338
11185TIP3    H133512   3.921   5.753   2.317
11185TIP3    H233513   3.786   5.777   2.253
11186TIP3   OH233514   5.031   0.453   2.954
11186TIP3    H133515   5.074   0.390   2.896
11186TIP3    H233516   4.977   0.506   2.896
11187TIP3   OH233517   1.460   6.973   4.624
11187TIP3    H133518   1.489   6.906   4.685
11187TIP3    H233519   1.374   6.944   4.594
11188TIP3   OH233520   6.035   2.180   3.740
11188TIP3    H133521   6.085   2.247   3.694
11188TIP3    H233522   6.062   2.190   3.832
11189TIP3   OH233523   4.163   2.524   4.925
11189TIP3    H133524   4.155   2.432   4.901
11189TIP3    H233525   4.245   2.529   4.973
11190TIP3   OH233526   2.876   0.562   3.295
11190TIP3    H133527   2.887   0.620   3.370
11190TIP3    H233528   2.854   0.477   3.334
11191TIP3   OH233529   7.356   1.357   2.028
11191TIP3    H133530   7.279   1.314   2.065
11191TIP3    H233531   7.423   1.289   2.026
11192TIP3   OH233532   5.666   2.017   4.311
11192TIP3    H133533   5.749   2.018   4.264
11192TIP3    H233534   5.690   2.008   4.403
11193TIP3   OH233535   5.858   0.131   4.260
11193TIP3    H133536   5.863   0.074   4.336
11193TIP3    H233537   5.795   0.088   4.201
11194TIP3   OH233538   3.018   0.734   0.955
11194TIP3    H133539   3.004   0.747   0.861
11194TIP3    H233540   3.050   0.818   0.986
11195TIP3   OH233541   0.567   7.306   5.713
11195TIP3    H133542   0.526   7.325   5.629
11195TIP3    H233543   0.496   7.310   5.776
11196TIP3   OH233544   2.507   3.714   1.165
11196TIP3    H133545   2.509   3.796   1.115
11196TIP3    H233546   2.420   3.712   1.203
11197TIP3   OH233547   7.448   0.776   1.568
11197TIP3    H133548   7.384   0.794   1.637
11197TIP3    H233549   7.404   0.712   1.511
11198TIP3   OH233550   3.233   4.120   4.233
11198TIP3    H133551   3.195   4.207   4.246
11198TIP3    H233552   3.328   4.134   4.239
11199TIP3   OH233553   4.328   1.146   1.428
11199TIP3    H133554   4.281   1.072   1.391
11199TIP3    H233555   4.279   1.223   1.398
11200TIP3   OH233556   8.184   5.452   0.348
11200TIP3    H133557   8.111   5.511   0.329
11200TIP3    H233558   8.243   5.504   0.403
11201TIP3   OH233559   1.966   3.501   6.601
11201TIP3    H133560   2.016   3.577   6.632
11201TIP3    H233561   1.892   3.494   6.661
11202TIP3   OH233562   3.095   7.574   0.324
11202TIP3    H133563   3.102   7.512   0.396
11202TIP3    H233564   3.185   7.582   0.290
11203TIP3   OH233565   6.131   1.682   6.006
11203TIP3    H133566   6.202   1.626   6.035
11203TIP3    H233567   6.121   1.661   5.913
11204TIP3   OH233568   6.487   0.744   2.743
11204TIP3    H133569   6.580   0.725   2.758
11204TIP3    H233570   6.450   0.753   2.831
11205TIP3   OH233571   1.926   2.519   2.255
11205TIP3    H133572   1.948   2.507   2.347
11205TIP3    H233573   1.861   2.451   2.236
11206TIP3   OH233574   8.304   4.022   1.270
11206TIP3    H133575   8.323   4.116   1.266
11206TIP3    H233576   8.284   3.998   1.179
11207TIP3   OH233577   1.577   7.435   1.730
11207TIP3    H133578   1.564   7.449   1.824
11207TIP3    H233579   1.492   7.454   1.691
11208TIP3   OH233580   4.418   5.354   6.346
11208TIP3    H133581   4.444   5.291   6.413
11208TIP3    H233582   4.494   5.360   6.288
11209TIP3   OH233583   5.435   1.957   3.452
11209TIP3    H133584   5.482   2.036   3.477
11209TIP3    H233585   5.374   1.941   3.524
11210TIP3   OH233586   2.479   6.134   2.630
11210TIP3    H133587   2.462   6.214   2.581
11210TIP3    H233588   2.409   6.129   2.695
11211TIP3   OH233589   6.558   3.655   0.412
11211TIP3    H133590   6.523   3.667   0.500
11211TIP3    H233591   6.652   3.673   0.420
11212TIP3   OH233592   8.110   4.245   0.841
11212TIP3    H133593   8.020   4.264   0.815
11212TIP3    H233594   8.107   4.153   0.869
11213TIP3   OH233595   2.794   4.401   2.883
11213TIP3    H133596   2.887   4.400   2.861
11213TIP3    H233597   2.750   4.369   2.804
11214TIP3   OH233598   2.033   2.763   1.951
11214TIP3    H133599   2.066   2.762   1.861
11214TIP3    H233600   2.065   2.846   1.987
11215TIP3   OH233601   5.843   7.488   4.320
11215TIP3    H133602   5.774   7.433   4.282
11215TIP3    H233603   5.924   7.457   4.279
11216TIP3   OH233604   1.410   4.137   5.204
11216TIP3    H133605   1.463   4.118   5.126
11216TIP3    H233606   1.474   4.143   5.275
11217TIP3   OH233607   2.024   2.939   4.021
11217TIP3    H133608   1.987   2.877   3.958
11217TIP3    H233609   2.105   2.969   3.980
11218TIP3   OH233610   6.509   5.671   2.988
11218TIP3    H133611   6.532   5.753   2.943
11218TIP3    H233612   6.459   5.699   3.065
11219TIP3   OH233613   6.245   0.804   2.579
11219TIP3    H133614   6.287   0.736   2.526
11219TIP3    H233615   6.312   0.829   2.643
11220TIP3   OH233616   0.854   7.588   0.722
11220TIP3    H133617   0.774   7.548   0.756
11220TIP3    H233618   0.825   7.638   0.646
11221TIP3   OH233619   6.446   6.492   1.076
11221TIP3    H133620   6.466   6.556   1.007
11221TIP3    H233621   6.527   6.442   1.087
11222TIP3   OH233622   5.553   1.732   0.711
11222TIP3    H133623   5.460   1.755   0.711
11222TIP3    H233624   5.566   1.687   0.628
11223TIP3   OH233625   6.509   4.069   1.392
11223TIP3    H133626   6.466   3.984   1.403
11223TIP3    H233627   6.543   4.090   1.479
11224TIP3   OH233628   2.852   0.817   1.683
11224TIP3    H133629   2.938   0.820   1.641
11224TIP3    H233630   2.870   0.817   1.777
11225TIP3   OH233631   0.250   6.860   2.384
11225TIP3    H133632   0.237   6.850   2.478
11225TIP3    H233633   0.282   6.775   2.354
11226TIP3   OH233634   8.145   3.970   3.059
11226TIP3    H133635   8.179   4.005   2.977
11226TIP3    H233636   8.061   4.016   3.071
11227TIP3   OH233637   3.584   3.075   0.578
11227TIP3    H133638   3.604   3.026   0.657
11227TIP3    H233639   3.591   3.167   0.604
11228TIP3   OH233640   8.146   3.705   0.631
11228TIP3    H133641   8.190   3.620   0.624
11228TIP3    H233642   8.054   3.682   0.644
11229TIP3   OH233643   1.026   4.356   3.362
11229TIP3    H133644   1.106   4.357   3.309
11229TIP3    H233645   1.000   4.264   3.364
11230TIP3   OH233646   2.747   3.533   2.858
11230TIP3    H133647   2.655   3.522   2.883
11230TIP3    H233648   2.743   3.587   2.778
11231TIP3   OH233649   4.529   0.376   6.291
11231TIP3    H133650   4.509   0.427   6.369
11231TIP3    H233651   4.534   0.441   6.221
11232TIP3   OH233652   5.516   2.543   0.209
11232TIP3    H133653   5.495   2.449   0.212
11232TIP3    H233654   5.557   2.555   0.123
11233TIP3   OH233655   3.940   7.745   0.426
11233TIP3    H133656   3.861   7.774   0.472
11233TIP3    H233657   3.943   7.799   0.347
11234TIP3   OH233658   4.029   4.771   2.256
11234TIP3    H133659   3.997   4.852   2.216
11234TIP3    H233660   4.083   4.801   2.330
11235TIP3   OH233661   4.910   6.113   6.143
11235TIP3    H133662   4.900   6.195   6.095
11235TIP3    H233663   4.821   6.080   6.153
11236TIP3   OH233664   2.164   0.234   6.530
11236TIP3    H133665   2.243   0.190   6.498
11236TIP3    H233666   2.158   0.314   6.478
11237TIP3   OH233667   5.210   0.261   4.889
11237TIP3    H133668   5.174   0.274   4.977
11237TIP3    H233669   5.286   0.320   4.886
11238TIP3   OH233670   2.117   7.165   1.710
11238TIP3    H133671   2.174   7.087   1.711
11238TIP3    H233672   2.151   7.218   1.638
11239TIP3   OH233673   0.273   7.168   6.559
11239TIP3    H133674   0.275   7.233   6.629
11239TIP3    H233675   0.254   7.218   6.480
11240TIP3   OH233676   2.339   3.404   3.585
11240TIP3    H133677   2.298   3.369   3.664
11240TIP3    H233678   2.396   3.334   3.555
11241TIP3   OH233679   1.091   6.121   3.749
11241TIP3    H133680   1.118   6.199   3.798
11241TIP3    H233681   0.998   6.111   3.768
11242TIP3   OH233682   7.535   0.455   4.840
11242TIP3    H133683   7.606   0.464   4.904
11242TIP3    H233684   7.474   0.394   4.881
11243TIP3   OH233685   1.537   3.043   3.416
11243TIP3    H133686   1.549   3.132   3.382
11243TIP3    H233687   1.455   3.047   3.464
11244TIP3   OH233688   3.291   3.607   0.608
11244TIP3    H133689   3.242   3.558   0.542
11244TIP3    H233690   3.235   3.607   0.685
11245TIP3   OH233691   3.714   2.736   2.059
11245TIP3    H133692   3.655   2.753   2.132
11245TIP3    H233693   3.778   2.807   2.062
11246TIP3   OH233694   7.746   6.187   0.655
11246TIP3    H133695   7.724   6.095   0.661
11246TIP3    H233696   7.738   6.221   0.744
11247TIP3   OH233697   6.355   0.693   1.898
11247TIP3    H133698   6.308   0.646   1.967
11247TIP3    H233699   6.393   0.623   1.844
11248TIP3   OH233700   8.227   7.725   5.671
11248TIP3    H133701   8.149   7.778   5.656
11248TIP3    H233702   8.286   7.781   5.721
11249TIP3   OH233703   6.201   3.028   3.015
11249TIP3    H133704   6.255   2.968   3.066
11249TIP3    H233705   6.151   2.972   2.956
11250TIP3   OH233706   5.047   5.105   5.468
11250TIP3    H133707   5.081   5.193   5.453
11250TIP3    H233708   5.124   5.054   5.493
11251TIP3   OH233709   3.540   1.278   1.712
11251TIP3    H133710   3.597   1.346   1.677
11251TIP3    H233711   3.462   1.281   1.656
11252TIP3   OH233712   4.111   4.362   6.211
11252TIP3    H133713   4.085   4.325   6.296
11252TIP3    H233714   4.158   4.291   6.168
11253TIP3   OH233715   5.873   4.811   1.190
11253TIP3    H133716   5.927   4.885   1.220
11253TIP3    H233717   5.935   4.741   1.172
11254TIP3   OH233718   3.470   1.208   1.191
11254TIP3    H133719   3.514   1.123   1.192
11254TIP3    H233720   3.484   1.241   1.102
11255TIP3   OH233721   8.056   2.355   0.728
11255TIP3    H133722   8.064   2.396   0.643
11255TIP3    H233723   7.966   2.321   0.730
11256TIP3   OH233724   2.939   2.793   6.100
11256TIP3    H133725   2.914   2.857   6.166
11256TIP3    H233726   3.035   2.790   6.105
11257TIP3   OH233727   2.144   3.742   6.235
11257TIP3    H133728   2.134   3.668   6.295
11257TIP3    H233729   2.233   3.774   6.249
11258TIP3   OH233730   2.346   5.075   5.934
11258TIP3    H133731   2.292   5.151   5.913
11258TIP3    H233732   2.388   5.052   5.851
11259TIP3   OH233733   5.466   2.194   2.486
11259TIP3    H133734   5.549   2.207   2.532
11259TIP3    H233735   5.411   2.148   2.550
11260TIP3   OH233736   0.776   5.492   2.853
11260TIP3    H133737   0.718   5.568   2.861
11260TIP3    H233738   0.831   5.511   2.777
11261TIP3   OH233739   1.426   5.696   0.409
11261TIP3    H133740   1.458   5.626   0.351
11261TIP3    H233741   1.409   5.651   0.492
11262TIP3   OH233742   6.826   3.703   0.520
11262TIP3    H133743   6.847   3.796   0.534
11262TIP3    H233744   6.887   3.675   0.452
11263TIP3   OH233745   0.828   0.870   6.259
11263TIP3    H133746   0.889   0.897   6.328
11263TIP3    H233747   0.882   0.818   6.199
11264TIP3   OH233748   7.994   6.810   0.757
11264TIP3    H133749   7.982   6.745   0.687
11264TIP3    H233750   8.014   6.891   0.711
11265TIP3   OH233751   1.829   5.688   0.639
11265TIP3    H133752   1.815   5.781   0.662
11265TIP3    H233753   1.879   5.653   0.713
11266TIP3   OH233754   7.956   4.060   5.800
11266TIP3    H133755   7.994   4.148   5.805
11266TIP3    H233756   7.986   4.016   5.879
11267TIP3   OH233757   4.705   6.399   0.024
11267TIP3    H133758   4.726   6.449   0.103
11267TIP3    H233759   4.640   6.335   0.052
11268TIP3   OH233760   6.672   5.719   0.931
11268TIP3    H133761   6.630   5.720   0.845
11268TIP3    H233762   6.765   5.731   0.913
11269TIP3   OH233763   7.373   2.821   1.544
11269TIP3    H133764   7.297   2.847   1.491
11269TIP3    H233765   7.392   2.898   1.598
11270TIP3   OH233766   4.656   5.016   3.497
11270TIP3    H133767   4.748   4.997   3.478
11270TIP3    H233768   4.632   5.083   3.433
11271TIP3   OH233769   3.505   2.136   3.390
11271TIP3    H133770   3.563   2.168   3.320
11271TIP3    H233771   3.463   2.059   3.352
11272TIP3   OH233772   0.237   2.329   3.183
11272TIP3    H133773   0.317   2.323   3.132
11272TIP3    H233774   0.232   2.245   3.229
11273TIP3   OH233775   5.646   1.264   2.864
11273TIP3    H133776   5.716   1.201   2.850
11273TIP3    H233777   5.604   1.235   2.945
11274TIP3   OH233778   6.922   3.164   4.795
11274TIP3    H133779   6.976   3.085   4.798
11274TIP3    H233780   6.938   3.201   4.709
11275TIP3   OH233781   6.017   4.752   2.356
11275TIP3    H133782   5.985   4.732   2.269
11275TIP3    H233783   5.974   4.834   2.379
11276TIP3   OH233784   4.789   1.920   1.629
11276TIP3    H133785   4.867   1.936   1.576
11276TIP3    H233786   4.809   1.960   1.714
11277TIP3   OH233787   2.689   0.080   3.266
11277TIP3    H133788   2.684   0.106   3.174
11277TIP3    H233789   2.602   0.046   3.286
11278TIP3   OH233790   1.745   2.306   3.164
11278TIP3    H133791   1.689   2.232   3.187
11278TIP3    H233792   1.788   2.329   3.246
11279TIP3   OH233793   0.257   7.630   3.178
11279TIP3    H133794   0.197   7.564   3.211
11279TIP3    H233795   0.204   7.684   3.120
11280TIP3   OH233796   0.387   4.520   6.131
11280TIP3    H133797   0.478   4.518   6.103
11280TIP3    H233798   0.386   4.469   6.212
11281TIP3   OH233799   0.992   4.265   0.853
11281TIP3    H133800   1.065   4.307   0.806
11281TIP3    H233801   1.006   4.171   0.839
11282TIP3   OH233802   2.487   4.712   3.890
11282TIP3    H133803   2.473   4.768   3.814
11282TIP3    H233804   2.578   4.729   3.916
11283TIP3   OH233805   6.000   4.717   4.652
11283TIP3    H133806   6.086   4.750   4.625
11283TIP3    H233807   6.017   4.670   4.734
11284TIP3   OH233808   3.317   2.637   4.028
11284TIP3    H133809   3.347   2.598   4.110
11284TIP3    H233810   3.249   2.699   4.054
11285TIP3   OH233811   7.971   7.003   6.071
11285TIP3    H133812   7.913   7.004   5.995
11285TIP3    H233813   8.054   7.038   6.038
11286TIP3   OH233814   0.854   7.751   2.844
11286TIP3    H133815   0.949   7.760   2.846
11286TIP3    H233816   0.826   7.805   2.771
11287TIP3   OH233817   0.081   6.100   0.008
11287TIP3    H133818   0.174   6.120   0.023
11287TIP3    H233819   0.036   6.180   0.032
11288TIP3   OH233820   5.357   7.252   4.268
11288TIP3    H133821   5.346   7.212   4.181
11288TIP3    H233822   5.285   7.216   4.320
11289TIP3   OH233823   7.926   7.491   4.693
11289TIP3    H133824   7.908   7.403   4.727
11289TIP3    H233825   7.936   7.479   4.598
11290TIP3   OH233826   7.684   0.905   1.701
11290TIP3    H133827   7.621   0.902   1.629
11290TIP3    H233828   7.645   0.851   1.770
11291TIP3   OH233829   3.571   4.166   3.800
11291TIP3    H133830   3.665   4.185   3.790
11291TIP3    H233831   3.568   4.090   3.857
11292TIP3   OH233832   3.882   3.353   1.941
11292TIP3    H133833   3.948   3.304   1.990
11292TIP3    H233834   3.825   3.390   2.009
11293TIP3   OH233835   7.333   0.624   4.205
11293TIP3    H133836   7.282   0.690   4.157
11293TIP3    H233837   7.407   0.605   4.148
11294TIP3   OH233838   4.299   1.840   3.390
11294TIP3    H133839   4.365   1.906   3.413
11294TIP3    H233840   4.320   1.815   3.300
11295TIP3   OH233841   4.868   3.525   6.459
11295TIP3    H133842   4.893   3.517   6.551
11295TIP3    H233843   4.774   3.503   6.458
11296TIP3   OH233844   3.457   6.048   6.586
11296TIP3    H133845   3.529   5.993   6.555
11296TIP3    H233846   3.497   6.135   6.597
11297TIP3   OH233847   7.673   1.709   4.416
11297TIP3    H133848   7.691   1.619   4.391
11297TIP3    H233849   7.659   1.756   4.334
11298TIP3   OH233850   3.677   1.134   0.258
11298TIP3    H133851   3.633   1.050   0.269
11298TIP3    H233852   3.616   1.198   0.294
11299TIP3   OH233853   4.300   6.379   2.720
11299TIP3    H133854   4.380   6.354   2.766
11299TIP3    H233855   4.329   6.442   2.654
11300TIP3   OH233856   4.381   3.613   6.405
11300TIP3    H133857   4.302   3.605   6.351
11300TIP3    H233858   4.348   3.632   6.493
11301TIP3   OH233859   6.751   6.553   4.924
11301TIP3    H133860   6.716   6.488   4.984
11301TIP3    H233861   6.844   6.530   4.916
11302TIP3   OH233862   5.224   7.759   2.161
11302TIP3    H133863   5.225   7.771   2.066
11302TIP3    H233864   5.276   7.680   2.175
11303TIP3   OH233865   3.848   3.283   0.159
11303TIP3    H133866   3.862   3.353   0.223
11303TIP3    H233867   3.754   3.269   0.158
11304TIP3   OH233868   2.073   4.358   1.307
11304TIP3    H133869   2.004   4.413   1.345
11304TIP3    H233870   2.140   4.354   1.374
11305TIP3   OH233871   6.700   7.713   1.071
11305TIP3    H133872   6.657   7.799   1.078
11305TIP3    H233873   6.784   7.731   1.029
11306TIP3   OH233874   7.661   0.089   4.942
11306TIP3    H133875   7.714   0.017   4.909
11306TIP3    H233876   7.643   0.066   5.034
11307TIP3   OH233877   4.621   1.511   4.360
11307TIP3    H133878   4.645   1.597   4.393
11307TIP3    H233879   4.701   1.476   4.321
11308TIP3   OH233880   4.323   6.929   4.013
11308TIP3    H133881   4.328   6.843   3.972
11308TIP3    H233882   4.297   6.910   4.103
11309TIP3   OH233883   0.864   2.972   2.357
11309TIP3    H133884   0.866   2.929   2.442
11309TIP3    H233885   0.808   2.916   2.303
11310TIP3   OH233886   2.727   6.266   4.700
11310TIP3    H133887   2.684   6.215   4.631
11310TIP3    H233888   2.766   6.201   4.758
11311TIP3   OH233889   7.723   6.294   6.404
11311TIP3    H133890   7.688   6.226   6.346
11311TIP3    H233891   7.720   6.374   6.351
11312TIP3   OH233892   5.595   3.990   4.203
11312TIP3    H133893   5.639   3.948   4.130
11312TIP3    H233894   5.543   4.060   4.163
11313TIP3   OH233895   2.367   2.881   4.517
11313TIP3    H133896   2.296   2.925   4.469
11313TIP3    H233897   2.386   2.939   4.591
11314TIP3   OH233898   4.505   1.591   6.250
11314TIP3    H133899   4.466   1.520   6.301
11314TIP3    H233900   4.465   1.671   6.285
11315TIP3   OH233901   7.852   1.448   3.690
11315TIP3    H133902   7.924   1.511   3.697
11315TIP3    H233903   7.829   1.447   3.598
11316TIP3   OH233904   1.600   0.575   2.539
11316TIP3    H133905   1.589   0.659   2.583
11316TIP3    H233906   1.545   0.581   2.460
11317TIP3   OH233907   0.486   2.421   5.458
11317TIP3    H133908   0.576   2.399   5.433
11317TIP3    H233909   0.493   2.509   5.496
11318TIP3   OH233910   0.317   3.192   0.510
11318TIP3    H133911   0.348   3.210   0.599
11318TIP3    H233912   0.397   3.168   0.462
11319TIP3   OH233913   6.961   2.887   5.139
11319TIP3    H133914   7.016   2.962   5.162
11319TIP3    H233915   6.994   2.858   5.054
11320TIP3   OH233916   3.607   4.552   0.450
11320TIP3    H133917   3.552   4.505   0.512
11320TIP3    H233918   3.683   4.495   0.436
11321TIP3   OH233919   3.772   3.852   0.041
11321TIP3    H133920   3.768   3.759   0.022
11321TIP3    H233921   3.863   3.877   0.023
11322TIP3   OH233922   3.192   6.615   6.348
11322TIP3    H133923   3.140   6.633   6.270
11322TIP3    H233924   3.180   6.521   6.363
11323TIP3   OH233925   0.980   1.759   3.890
11323TIP3    H133926   1.012   1.808   3.966
11323TIP3    H233927   1.058   1.742   3.837
11324TIP3   OH233928   3.781   2.834   4.157
11324TIP3    H133929   3.771   2.783   4.077
11324TIP3    H233930   3.711   2.898   4.154
11325TIP3   OH233931   7.605   0.887   2.376
11325TIP3    H133932   7.617   0.872   2.282
11325TIP3    H233933   7.584   0.800   2.411
11326TIP3   OH233934   1.334   2.976   2.055
11326TIP3    H133935   1.391   2.905   2.025
11326TIP3    H233936   1.280   2.937   2.124
11327TIP3   OH233937   3.953   2.857   2.161
11327TIP3    H133938   3.990   2.771   2.142
11327TIP3    H233939   4.021   2.903   2.210
11328TIP3   OH233940   3.766   4.345   0.909
11328TIP3    H133941   3.719   4.416   0.865
11328TIP3    H233942   3.835   4.321   0.847
11329TIP3   OH233943   4.723   5.666   1.944
11329TIP3    H133944   4.747   5.619   2.025
11329TIP3    H233945   4.704   5.597   1.881
11330TIP3   OH233946   1.227   5.119   1.689
11330TIP3    H133947   1.212   5.047   1.750
11330TIP3    H233948   1.263   5.076   1.611
11331TIP3   OH233949   2.288   2.432   1.390
11331TIP3    H133950   2.279   2.342   1.419
11331TIP3    H233951   2.269   2.484   1.468
11332TIP3   OH233952   6.636   0.335   0.596
11332TIP3    H133953   6.652   0.429   0.600
11332TIP3    H233954   6.569   0.319   0.664
11333TIP3   OH233955   0.220   0.913   1.024
11333TIP3    H133956   0.153   0.902   0.957
11333TIP3    H233957   0.215   1.006   1.047
11334TIP3   OH233958   3.562   0.483   2.829
11334TIP3    H133959   3.634   0.503   2.888
11334TIP3    H233960   3.602   0.429   2.760
11335TIP3   OH233961   1.280   2.150   1.755
11335TIP3    H133962   1.373   2.151   1.778
11335TIP3    H233963   1.259   2.058   1.743
11336TIP3   OH233964   1.208   3.945   2.255
11336TIP3    H133965   1.251   3.973   2.335
11336TIP3    H233966   1.239   4.006   2.188
11337TIP3   OH233967   4.330   2.112   5.374
11337TIP3    H133968   4.398   2.047   5.393
11337TIP3    H233969   4.375   2.196   5.382
11338TIP3   OH233970   3.534   5.907   6.124
11338TIP3    H133971   3.515   5.925   6.031
11338TIP3    H233972   3.486   5.975   6.172
11339TIP3   OH233973   0.249   6.646   2.792
11339TIP3    H133974   0.185   6.691   2.848
11339TIP3    H233975   0.265   6.708   2.721
11340TIP3   OH233976   6.758   2.543   1.952
11340TIP3    H133977   6.785   2.635   1.947
11340TIP3    H233978   6.802   2.509   2.029
11341TIP3   OH233979   5.020   3.018   3.907
11341TIP3    H133980   5.095   2.974   3.948
11341TIP3    H233981   4.976   2.949   3.857
11342TIP3   OH233982   0.378   6.786   4.253
11342TIP3    H133983   0.327   6.867   4.246
11342TIP3    H233984   0.328   6.721   4.204
11343TIP3   OH233985   1.038   7.212   4.144
11343TIP3    H133986   1.018   7.284   4.083
11343TIP3    H233987   0.954   7.192   4.185
11344TIP3   OH233988   3.574   2.963   5.085
11344TIP3    H133989   3.554   3.020   5.160
11344TIP3    H233990   3.661   2.990   5.057
11345TIP3   OH233991   0.398   1.230   3.493
11345TIP3    H133992   0.401   1.287   3.570
11345TIP3    H233993   0.305   1.215   3.478
11346TIP3   OH233994   7.554   5.778   5.138
11346TIP3    H133995   7.490   5.709   5.154
11346TIP3    H233996   7.515   5.856   5.179
11347TIP3   OH233997   3.996   1.623   6.370
11347TIP3    H133998   3.906   1.600   6.349
11347TIP3    H233999   3.998   1.719   6.364
11348TIP3   OH234000   3.821   1.966   6.428
11348TIP3    H134001   3.803   1.932   6.516
11348TIP3    H234002   3.916   1.955   6.417
11349TIP3   OH234003   6.779   2.668   5.096
11349TIP3    H134004   6.767   2.736   5.030
11349TIP3    H234005   6.808   2.715   5.174
11350TIP3   OH234006   6.623   5.114   2.981
11350TIP3    H134007   6.691   5.173   2.948
11350TIP3    H234008   6.594   5.154   3.063
11351TIP3   OH234009   3.437   7.006   3.743
11351TIP3    H134010   3.420   6.957   3.823
11351TIP3    H234011   3.369   7.073   3.741
11352TIP3   OH234012   0.441   1.481   3.703
11352TIP3    H134013   0.402   1.557   3.659
11352TIP3    H234014   0.535   1.489   3.687
11353TIP3   OH234015   7.629   2.945   0.650
11353TIP3    H134016   7.675   2.978   0.727
11353TIP3    H234017   7.699   2.917   0.591
11354TIP3   OH234018   4.535   0.963   3.656
11354TIP3    H134019   4.520   0.884   3.708
11354TIP3    H234020   4.538   1.034   3.720
11355TIP3   OH234021   3.866   6.206   2.882
11355TIP3    H134022   3.806   6.218   2.956
11355TIP3    H234023   3.915   6.288   2.877
11356TIP3   OH234024   0.728   4.244   1.567
11356TIP3    H134025   0.725   4.337   1.544
11356TIP3    H234026   0.643   4.227   1.608
11357TIP3   OH234027   6.909   4.578   2.544
11357TIP3    H134028   6.925   4.496   2.593
11357TIP3    H234029   6.995   4.620   2.541
11358TIP3   OH234030   2.455   4.156   4.431
11358TIP3    H134031   2.474   4.207   4.510
11358TIP3    H234032   2.454   4.222   4.360
11359TIP3   OH234033   1.612   1.705   6.350
11359TIP3    H134034   1.556   1.696   6.273
11359TIP3    H234035   1.597   1.625   6.400
11360TIP3   OH234036   7.042   5.540   2.498
11360TIP3    H134037   7.033   5.503   2.410
11360TIP3    H234038   6.992   5.621   2.495
11361TIP3   OH234039   3.732   0.725   1.688
11361TIP3    H134040   3.753   0.802   1.635
11361TIP3    H234041   3.681   0.759   1.761
11362TIP3   OH234042   3.803   3.080   4.991
11362TIP3    H134043   3.893   3.052   5.009
11362TIP3    H234044   3.800   3.094   4.897
11363TIP3   OH234045   0.412   0.210   0.735
11363TIP3    H134046   0.330   0.179   0.774
11363TIP3    H234047   0.466   0.131   0.727
11364TIP3   OH234048   0.831   4.025   6.043
11364TIP3    H134049   0.806   3.978   5.964
11364TIP3    H234050   0.925   4.040   6.032
11365TIP3   OH234051   8.060   0.477   4.795
11365TIP3    H134052   8.092   0.482   4.885
11365TIP3    H234053   7.986   0.418   4.798
11366TIP3   OH234054   7.091   2.657   4.640
11366TIP3    H134055   7.174   2.644   4.686
11366TIP3    H234056   7.025   2.624   4.700
11367TIP3   OH234057   7.257   5.723   2.435
11367TIP3    H134058   7.188   5.681   2.486
11367TIP3    H234059   7.327   5.657   2.429
11368TIP3   OH234060   5.093   2.351   3.348
11368TIP3    H134061   5.062   2.351   3.439
11368TIP3    H234062   5.033   2.410   3.302
11369TIP3   OH234063   3.756   4.518   1.407
11369TIP3    H134064   3.738   4.576   1.333
11369TIP3    H234065   3.846   4.488   1.392
11370TIP3   OH234066   0.542   2.820   4.741
11370TIP3    H134067   0.611   2.875   4.779
11370TIP3    H234068   0.491   2.879   4.687
11371TIP3   OH234069   3.315   5.428   3.745
11371TIP3    H134070   3.383   5.492   3.766
11371TIP3    H234071   3.250   5.438   3.815
11372TIP3   OH234072   7.036   4.206   5.103
11372TIP3    H134073   7.079   4.161   5.176
11372TIP3    H234074   6.946   4.173   5.104
11373TIP3   OH234075   3.099   7.067   5.270
11373TIP3    H134076   3.146   7.098   5.347
11373TIP3    H234077   3.054   7.144   5.236
11374TIP3   OH234078   6.899   7.465   1.823
11374TIP3    H134079   6.986   7.453   1.862
11374TIP3    H234080   6.838   7.442   1.894
11375TIP3   OH234081   3.325   2.501   5.821
11375TIP3    H134082   3.379   2.559   5.875
11375TIP3    H234083   3.317   2.421   5.872
11376TIP3   OH234084   2.413   4.755   0.986
11376TIP3    H134085   2.410   4.774   1.079
11376TIP3    H234086   2.479   4.815   0.951
11377TIP3   OH234087   2.832   2.992   2.387
11377TIP3    H134088   2.823   2.932   2.461
11377TIP3    H234089   2.904   2.957   2.335
11378TIP3   OH234090   6.710   4.561   2.381
11378TIP3    H134091   6.781   4.542   2.442
11378TIP3    H234092   6.630   4.553   2.434
11379TIP3   OH234093   5.032   6.428   1.209
11379TIP3    H134094   4.992   6.363   1.152
11379TIP3    H234095   5.081   6.377   1.273
11380TIP3   OH234096   6.107   6.124   1.118
11380TIP3    H134097   6.137   6.167   1.038
11380TIP3    H234098   6.012   6.126   1.113
11381TIP3   OH234099   1.707   2.734   0.931
11381TIP3    H134100   1.636   2.693   0.980
11381TIP3    H234101   1.763   2.661   0.904
11382TIP3   OH234102   1.788   4.082   5.587
11382TIP3    H134103   1.733   4.125   5.522
11382TIP3    H234104   1.872   4.128   5.582
11383TIP3   OH234105   1.972   5.202   4.269
11383TIP3    H134106   1.972   5.296   4.250
11383TIP3    H234107   2.027   5.193   4.347
11384TIP3   OH234108   2.719   6.642   5.272
11384TIP3    H134109   2.783   6.714   5.277
11384TIP3    H234110   2.648   6.677   5.218
11385TIP3   OH234111   4.148   0.628   1.395
11385TIP3    H134112   4.104   0.693   1.451
11385TIP3    H234113   4.232   0.612   1.438
11386TIP3   OH234114   5.521   5.307   1.598
11386TIP3    H134115   5.430   5.337   1.596
11386TIP3    H234116   5.520   5.224   1.549
11387TIP3   OH234117   1.463   3.144   2.693
11387TIP3    H134118   1.400   3.196   2.744
11387TIP3    H234119   1.422   3.134   2.607
11388TIP3   OH234120   4.988   2.913   6.625
11388TIP3    H134121   4.908   2.951   6.589
11388TIP3    H234122   5.031   2.986   6.670
11389TIP3   OH234123   5.308   1.106   2.036
11389TIP3    H134124   5.287   1.194   2.065
11389TIP3    H234125   5.330   1.059   2.117
11390TIP3   OH234126   2.509   2.316   2.170
11390TIP3    H134127   2.517   2.368   2.090
11390TIP3    H234128   2.590   2.265   2.173
11391TIP3   OH234129   0.401   0.946   4.885
11391TIP3    H134130   0.318   0.965   4.841
11391TIP3    H234131   0.398   0.998   4.965
11392TIP3   OH234132   6.104   7.752   2.197
11392TIP3    H134133   6.126   7.787   2.283
11392TIP3    H234134   6.013   7.779   2.183
11393TIP3   OH234135   2.829   5.192   3.488
11393TIP3    H134136   2.773   5.247   3.433
11393TIP3    H234137   2.768   5.135   3.535
11394TIP3   OH234138   1.380   1.457   2.287
11394TIP3    H134139   1.419   1.510   2.217
11394TIP3    H234140   1.454   1.433   2.342
11395TIP3   OH234141   1.873   2.178   6.490
11395TIP3    H134142   1.897   2.269   6.477
11395TIP3    H234143   1.794   2.166   6.437
11396TIP3   OH234144   3.707   1.919   4.243
11396TIP3    H134145   3.691   1.986   4.176
11396TIP3    H234146   3.734   1.968   4.320
11397TIP3   OH234147   2.908   2.269   1.057
11397TIP3    H134148   2.862   2.270   1.141
11397TIP3    H234149   2.882   2.351   1.014
11398TIP3   OH234150   1.510   5.968   0.408
11398TIP3    H134151   1.445   5.994   0.473
11398TIP3    H234152   1.509   5.873   0.409
11399TIP3   OH234153   2.664   2.520   0.232
11399TIP3    H134154   2.573   2.536   0.255
11399TIP3    H234155   2.714   2.553   0.307
11400TIP3   OH234156   4.560   0.271   2.919
11400TIP3    H134157   4.497   0.329   2.962
11400TIP3    H234158   4.509   0.193   2.897
11401TIP3   OH234159   7.870   0.039   1.155
11401TIP3    H134160   7.893   0.114   1.210
11401TIP3    H234161   7.926   0.049   1.078
11402TIP3   OH234162   5.543   3.156   6.071
11402TIP3    H134163   5.625   3.162   6.119
11402TIP3    H234164   5.558   3.086   6.006
11403TIP3   OH234165   3.867   4.100   6.106
11403TIP3    H134166   3.961   4.115   6.109
11403TIP3    H234167   3.830   4.185   6.083
11404TIP3   OH234168   0.066   5.003   1.209
11404TIP3    H134169   0.145   4.982   1.259
11404TIP3    H234170   0.010   5.049   1.272
11405TIP3   OH234171   0.339   0.076   0.058
11405TIP3    H134172   0.327  -0.006   0.012
11405TIP3    H234173   0.261   0.085   0.113
11406TIP3   OH234174   0.409   0.556   2.560
11406TIP3    H134175   0.383   0.604   2.481
11406TIP3    H234176   0.491   0.596   2.587
11407TIP3   OH234177   4.402   1.101   1.690
11407TIP3    H134178   4.416   1.119   1.597
11407TIP3    H234179   4.310   1.075   1.696
11408TIP3   OH234180   4.422   4.150   1.165
11408TIP3    H134181   4.402   4.214   1.234
11408TIP3    H234182   4.337   4.135   1.122
11409TIP3   OH234183   0.988   0.425   0.648
11409TIP3    H134184   1.048   0.476   0.594
11409TIP3    H234185   0.927   0.386   0.585
11410TIP3   OH234186   2.843   2.680   5.043
11410TIP3    H134187   2.828   2.695   4.950
11410TIP3    H234188   2.895   2.756   5.071
11411TIP3   OH234189   4.328   6.385   0.031
11411TIP3    H134190   4.386   6.330   0.084
11411TIP3    H234191   4.380   6.409  -0.045
11412TIP3   OH234192   4.450   2.315   0.408
11412TIP3    H134193   4.493   2.239   0.367
11412TIP3    H234194   4.392   2.348   0.340
11413TIP3   OH234195   4.517   0.154   1.269
11413TIP3    H134196   4.540   0.245   1.288
11413TIP3    H234197   4.544   0.106   1.347
11414TIP3   OH234198   0.218   6.362   6.671
11414TIP3    H134199   0.267   6.444   6.675
11414TIP3    H234200   0.284   6.297   6.646
11415TIP3   OH234201   6.184   4.038   0.242
11415TIP3    H134202   6.111   3.983   0.214
11415TIP3    H234203   6.197   4.015   0.334
11416TIP3   OH234204   0.446   2.362   4.283
11416TIP3    H134205   0.532   2.347   4.323
11416TIP3    H234206   0.453   2.447   4.241
11417TIP3   OH234207   3.152   6.580   4.074
11417TIP3    H134208   3.097   6.522   4.126
11417TIP3    H234209   3.116   6.668   4.089
11418TIP3   OH234210   1.551   6.605   6.196
11418TIP3    H134211   1.640   6.630   6.170
11418TIP3    H234212   1.497   6.628   6.120
11419TIP3   OH234213   1.551   2.112   4.140
11419TIP3    H134214   1.634   2.135   4.180
11419TIP3    H234215   1.539   2.176   4.070
11420TIP3   OH234216   0.359   6.038   1.146
11420TIP3    H134217   0.441   6.053   1.099
11420TIP3    H234218   0.384   6.040   1.239
11421TIP3   OH234219   4.832   0.510   2.458
11421TIP3    H134220   4.769   0.467   2.516
11421TIP3    H234221   4.780   0.574   2.409
11422TIP3   OH234222   5.696   1.486   3.667
11422TIP3    H134223   5.781   1.522   3.641
11422TIP3    H234224   5.676   1.423   3.598
11423TIP3   OH234225   7.397   3.696   3.740
11423TIP3    H134226   7.444   3.629   3.789
11423TIP3    H234227   7.340   3.646   3.681
11424TIP3   OH234228   7.311   4.562   5.671
11424TIP3    H134229   7.351   4.554   5.757
11424TIP3    H234230   7.369   4.622   5.623
11425TIP3   OH234231   7.389   0.872   3.213
11425TIP3    H134232   7.358   0.963   3.214
11425TIP3    H234233   7.394   0.850   3.121
11426TIP3   OH234234   8.262   6.119   0.299
11426TIP3    H134235   8.324   6.064   0.251
11426TIP3    H234236   8.177   6.100   0.260
11427TIP3   OH234237   1.536   1.916   0.760
11427TIP3    H134238   1.527   1.947   0.850
11427TIP3    H234239   1.468   1.963   0.712
11428TIP3   OH234240   3.623   1.262   2.787
11428TIP3    H134241   3.714   1.288   2.796
11428TIP3    H234242   3.574   1.321   2.844
11429TIP3   OH234243   4.177   7.104   0.835
11429TIP3    H134244   4.163   7.027   0.890
11429TIP3    H234245   4.112   7.167   0.865
11430TIP3   OH234246   7.262   3.951   5.226
11430TIP3    H134247   7.280   3.861   5.254
11430TIP3    H234248   7.281   3.951   5.132
11431TIP3   OH234249   2.277   6.718   1.438
11431TIP3    H134250   2.300   6.701   1.347
11431TIP3    H234251   2.200   6.663   1.453
11432TIP3   OH234252   3.369   5.845   1.419
11432TIP3    H134253   3.345   5.934   1.392
11432TIP3    H234254   3.465   5.846   1.419
11433TIP3   OH234255   2.062   5.012   1.274
11433TIP3    H134256   1.985   5.064   1.249
11433TIP3    H234257   2.073   4.951   1.201
11434TIP3   OH234258   6.921   3.488   6.457
11434TIP3    H134259   6.919   3.579   6.486
11434TIP3    H234260   6.925   3.494   6.361
11435TIP3   OH234261   0.567   3.210   0.365
11435TIP3    H134262   0.628   3.263   0.314
11435TIP3    H234263   0.591   3.228   0.456
11436TIP3   OH234264   3.383   2.773   6.678
11436TIP3    H134265   3.476   2.761   6.695
11436TIP3    H234266   3.369   2.730   6.593
11437TIP3   OH234267   4.577   5.498   3.592
11437TIP3    H134268   4.558   5.418   3.544
11437TIP3    H234269   4.524   5.565   3.547
11438TIP3   OH234270   6.491   5.223   2.250
11438TIP3    H134271   6.407   5.207   2.206
11438TIP3    H234272   6.468   5.275   2.327
11439TIP3   OH234273   0.497   1.953   4.256
11439TIP3    H134274   0.458   1.958   4.343
11439TIP3    H234275   0.536   2.039   4.241
11440TIP3   OH234276   6.360   3.663   2.026
11440TIP3    H134277   6.267   3.653   2.007
11440TIP3    H234278   6.366   3.658   2.121
11441TIP3   OH234279   4.013   3.638   0.784
11441TIP3    H134280   3.932   3.667   0.742
11441TIP3    H234281   4.059   3.590   0.715
11442TIP3   OH234282   1.835   1.098   5.580
11442TIP3    H134283   1.796   1.065   5.500
11442TIP3    H234284   1.763   1.102   5.643
11443TIP3   OH234285   2.241   6.831   4.866
11443TIP3    H134286   2.218   6.924   4.859
11443TIP3    H234287   2.214   6.794   4.782
11444TIP3   OH234288   1.195   7.550   0.625
11444TIP3    H134289   1.124   7.591   0.674
11444TIP3    H234290   1.202   7.462   0.662
11445TIP3   OH234291   2.976   2.411   6.710
11445TIP3    H134292   3.050   2.399   6.769
11445TIP3    H234293   3.014   2.409   6.623
11446TIP3   OH234294   3.040   1.692   0.458
11446TIP3    H134295   2.992   1.767   0.424
11446TIP3    H234296   3.077   1.649   0.381
11447TIP3   OH234297   5.596   5.175   3.604
11447TIP3    H134298   5.524   5.180   3.667
11447TIP3    H234299   5.554   5.168   3.519
11448TIP3   OH234300   1.950   6.212   6.627
11448TIP3    H134301   2.011   6.280   6.599
11448TIP3    H234302   1.926   6.167   6.546
11449TIP3   OH234303   6.870   6.588   5.287
11449TIP3    H134304   6.797   6.649   5.282
11449TIP3    H234305   6.927   6.623   5.355
11450TIP3   OH234306   4.479   5.165   3.817
11450TIP3    H134307   4.551   5.103   3.816
11450TIP3    H234308   4.448   5.168   3.727
11451TIP3   OH234309   5.191   2.160   6.600
11451TIP3    H134310   5.211   2.123   6.514
11451TIP3    H234311   5.214   2.253   6.592
11452TIP3   OH234312   5.376   1.980   2.698
11452TIP3    H134313   5.374   1.976   2.793
11452TIP3    H234314   5.285   1.998   2.673
11453TIP3   OH234315   0.308   5.538   6.441
11453TIP3    H134316   0.396   5.527   6.407
11453TIP3    H234317   0.254   5.480   6.386
11454TIP3   OH234318   0.926   6.813   5.159
11454TIP3    H134319   0.998   6.837   5.218
11454TIP3    H234320   0.970   6.774   5.083
11455TIP3   OH234321   2.688   7.302   5.189
11455TIP3    H134322   2.667   7.308   5.096
11455TIP3    H234323   2.621   7.356   5.232
11456TIP3   OH234324   6.198   6.692   3.429
11456TIP3    H134325   6.190   6.775   3.383
11456TIP3    H234326   6.125   6.692   3.491
11457TIP3   OH234327   6.975   2.206   4.710
11457TIP3    H134328   6.941   2.272   4.650
11457TIP3    H234329   6.968   2.247   4.797
11458TIP3   OH234330   1.683   6.532   5.604
11458TIP3    H134331   1.735   6.453   5.589
11458TIP3    H234332   1.736   6.603   5.567
11459TIP3   OH234333   6.693   6.731   5.670
11459TIP3    H134334   6.775   6.693   5.637
11459TIP3    H234335   6.690   6.819   5.632
11460TIP3   OH234336   3.340   4.496   4.749
11460TIP3    H134337   3.295   4.444   4.683
11460TIP3    H234338   3.419   4.446   4.770
11461TIP3   OH234339   5.690   4.229   6.505
11461TIP3    H134340   5.651   4.146   6.476
11461TIP3    H234341   5.618   4.291   6.504
11462TIP3   OH234342   0.966   2.094   2.909
11462TIP3    H134343   0.950   2.108   3.003
11462TIP3    H234344   0.911   2.159   2.866
11463TIP3   OH234345   7.194   5.889   1.443
11463TIP3    H134346   7.217   5.941   1.366
11463TIP3    H234347   7.269   5.831   1.456
11464TIP3   OH234348   1.606   0.134   4.033
11464TIP3    H134349   1.643   0.118   4.120
11464TIP3    H234350   1.556   0.055   4.013
11465TIP3   OH234351   4.641   7.529   6.615
11465TIP3    H134352   4.615   7.571   6.533
11465TIP3    H234353   4.668   7.441   6.590
11466TIP3   OH234354   2.425   3.453   4.048
11466TIP3    H134355   2.476   3.374   4.061
11466TIP3    H234356   2.334   3.425   4.058
11467TIP3   OH234357   5.947   7.684   3.133
11467TIP3    H134358   5.881   7.728   3.186
11467TIP3    H234359   5.961   7.600   3.177
11468TIP3   OH234360   8.136   3.254   3.150
11468TIP3    H134361   8.149   3.333   3.203
11468TIP3    H234362   8.166   3.183   3.206
11469TIP3   OH234363   6.303   4.911   6.402
11469TIP3    H134364   6.283   5.001   6.374
11469TIP3    H234365   6.374   4.884   6.344
11470TIP3   OH234366   4.870   2.160   3.007
11470TIP3    H134367   4.912   2.230   2.957
11470TIP3    H234368   4.928   2.085   2.995
11471TIP3   OH234369   5.029   0.128   0.266
11471TIP3    H134370   4.995   0.149   0.353
11471TIP3    H234371   4.969   0.060   0.233
11472TIP3   OH234372   8.006   1.426   0.196
11472TIP3    H134373   8.062   1.398   0.268
11472TIP3    H234374   8.067   1.449   0.126
11473TIP3   OH234375   1.860   7.267   6.618
11473TIP3    H134376   1.928   7.294   6.557
11473TIP3    H234377   1.839   7.177   6.593
11474TIP3   OH234378   6.043   1.820   3.336
11474TIP3    H134379   6.128   1.779   3.354
11474TIP3    H234380   6.054   1.910   3.368
11475TIP3   OH234381   0.386   2.941   1.642
11475TIP3    H134382   0.336   2.939   1.724
11475TIP3    H234383   0.430   2.856   1.640
11476TIP3   OH234384   0.201   1.467   0.797
11476TIP3    H134385   0.239   1.432   0.878
11476TIP3    H234386   0.276   1.496   0.746
11477TIP3   OH234387   1.160   2.131   6.570
11477TIP3    H134388   1.201   2.217   6.560
11477TIP3    H234389   1.122   2.133   6.658
11478TIP3   OH234390   6.326   1.229   2.470
11478TIP3    H134391   6.378   1.289   2.415
11478TIP3    H234392   6.306   1.280   2.548
11479TIP3   OH234393   7.092   0.287   5.481
11479TIP3    H134394   7.108   0.374   5.446
11479TIP3    H234395   6.997   0.275   5.474
11480TIP3   OH234396   3.144   1.613   0.196
11480TIP3    H134397   3.131   1.680   0.129
11480TIP3    H234398   3.060   1.568   0.202
11481TIP3   OH234399   5.170   2.142   1.382
11481TIP3    H134400   5.121   2.168   1.461
11481TIP3    H234401   5.140   2.203   1.314
11482TIP3   OH234402   2.481   5.509   5.814
11482TIP3    H134403   2.439   5.531   5.897
11482TIP3    H234404   2.521   5.591   5.784
11483TIP3   OH234405   4.032   3.141   0.488
11483TIP3    H134406   3.986   3.092   0.556
11483TIP3    H234407   4.024   3.233   0.516
11484TIP3   OH234408   7.033   6.861   2.096
11484TIP3    H134409   7.038   6.878   2.190
11484TIP3    H234410   7.124   6.852   2.068
11485TIP3   OH234411   5.280   2.671   4.196
11485TIP3    H134412   5.320   2.627   4.121
11485TIP3    H234413   5.188   2.646   4.192
11486TIP3   OH234414   7.153   0.012   1.158
11486TIP3    H134415   7.144  -0.033   1.074
11486TIP3    H234416   7.065   0.011   1.196
11487TIP3   OH234417   7.966   5.913   3.672
11487TIP3    H134418   7.893   5.973   3.656
11487TIP3    H234419   7.966   5.901   3.767
11488TIP3   OH234420   1.110   3.840   6.242
11488TIP3    H134421   1.194   3.812   6.279
11488TIP3    H234422   1.046   3.778   6.278
11489TIP3   OH234423   7.851   7.411   4.082
11489TIP3    H134424   7.931   7.361   4.066
11489TIP3    H234425   7.854   7.432   4.175
11490TIP3   OH234426   5.527   1.798   3.799
11490TIP3    H134427   5.604   1.792   3.743
11490TIP3    H234428   5.542   1.875   3.853
11491TIP3   OH234429   2.974   4.104   2.027
11491TIP3    H134430   2.975   4.132   2.119
11491TIP3    H234431   2.913   4.030   2.025
11492TIP3   OH234432   3.449   1.431   3.196
11492TIP3    H134433   3.510   1.361   3.174
11492TIP3    H234434   3.391   1.393   3.262
11493TIP3   OH234435   7.260   3.027   4.599
11493TIP3    H134436   7.350   3.047   4.627
11493TIP3    H234437   7.216   3.000   4.679
11494TIP3   OH234438   2.906   3.477   3.256
11494TIP3    H134439   2.972   3.449   3.319
11494TIP3    H234440   2.887   3.568   3.280
11495TIP3   OH234441   3.856   5.984   6.495
11495TIP3    H134442   3.926   5.979   6.430
11495TIP3    H234443   3.886   6.047   6.559
11496TIP3   OH234444   3.293   5.783   4.555
11496TIP3    H134445   3.228   5.714   4.538
11496TIP3    H234446   3.311   5.820   4.469
11497TIP3   OH234447   7.764   2.450   3.307
11497TIP3    H134448   7.747   2.390   3.379
11497TIP3    H234449   7.855   2.433   3.283
11498TIP3   OH234450   7.612   0.741   1.945
11498TIP3    H134451   7.686   0.734   2.005
11498TIP3    H234452   7.552   0.672   1.973
11499TIP3   OH234453   2.366   6.148   4.792
11499TIP3    H134454   2.419   6.165   4.870
11499TIP3    H234455   2.333   6.059   4.805
11500TIP3   OH234456   5.352   5.621   4.435
11500TIP3    H134457   5.265   5.620   4.475
11500TIP3    H234458   5.388   5.535   4.453
11501TIP3   OH234459   5.062   5.745   6.261
11501TIP3    H134460   5.128   5.779   6.200
11501TIP3    H234461   5.103   5.666   6.297
11502TIP3   OH234462   3.921   6.828   4.701
11502TIP3    H134463   3.966   6.873   4.630
11502TIP3    H234464   3.956   6.867   4.781
11503TIP3   OH234465   4.693   5.016   2.525
11503TIP3    H134466   4.743   5.097   2.514
11503TIP3    H234467   4.725   4.980   2.608
11504TIP3   OH234468   3.047   5.125   5.642
11504TIP3    H134469   2.953   5.141   5.637
11504TIP3    H234470   3.076   5.173   5.720
11505TIP3   OH234471   2.658   7.481   0.964
11505TIP3    H134472   2.622   7.505   0.878
11505TIP3    H234473   2.720   7.551   0.984
11506TIP3   OH234474   7.748   5.841   2.187
11506TIP3    H134475   7.661   5.806   2.206
11506TIP3    H234476   7.733   5.913   2.126
11507TIP3   OH234477   3.125   4.279   5.391
11507TIP3    H134478   3.194   4.343   5.406
11507TIP3    H234479   3.099   4.292   5.300
11508TIP3   OH234480   2.232   4.405   2.886
11508TIP3    H134481   2.315   4.441   2.854
11508TIP3    H234482   2.214   4.453   2.967
11509TIP3   OH234483   4.333   1.424   0.800
11509TIP3    H134484   4.418   1.385   0.777
11509TIP3    H234485   4.323   1.406   0.893
11510TIP3   OH234486   6.736   0.362   1.152
11510TIP3    H134487   6.757   0.322   1.236
11510TIP3    H234488   6.669   0.427   1.171
11511TIP3   OH234489   3.990   5.856   5.142
11511TIP3    H134490   3.981   5.826   5.232
11511TIP3    H234491   4.084   5.864   5.127
11512TIP3   OH234492   6.824   6.763   3.006
11512TIP3    H134493   6.816   6.814   2.925
11512TIP3    H234494   6.853   6.827   3.071
11513TIP3   OH234495   4.124   4.298   4.001
11513TIP3    H134496   4.178   4.294   3.922
11513TIP3    H234497   4.102   4.390   4.011
11514TIP3   OH234498   1.155   3.029   5.495
11514TIP3    H134499   1.178   2.962   5.560
11514TIP3    H234500   1.175   2.989   5.411
11515TIP3   OH234501   4.527   0.796   2.173
11515TIP3    H134502   4.484   0.823   2.093
11515TIP3    H234503   4.468   0.823   2.243
11516TIP3   OH234504   2.519   1.632   5.353
11516TIP3    H134505   2.575   1.697   5.396
11516TIP3    H234506   2.575   1.593   5.286
11517TIP3   OH234507   2.816   0.699   6.274
11517TIP3    H134508   2.866   0.726   6.198
11517TIP3    H234509   2.874   0.716   6.349
11518TIP3   OH234510   8.125   3.829   4.245
11518TIP3    H134511   8.055   3.892   4.262
11518TIP3    H234512   8.193   3.851   4.309
11519TIP3   OH234513   0.356   1.812   1.678
11519TIP3    H134514   0.364   1.717   1.675
11519TIP3    H234515   0.262   1.828   1.688
11520TIP3   OH234516   3.676   4.603   1.144
11520TIP3    H134517   3.609   4.657   1.103
11520TIP3    H234518   3.757   4.652   1.132
11521TIP3   OH234519   0.082   6.983   6.309
11521TIP3    H134520   0.153   6.933   6.268
11521TIP3    H234521   0.029   6.918   6.355
11522TIP3   OH234522   2.553   5.057   1.572
11522TIP3    H134523   2.606   4.984   1.603
11522TIP3    H234524   2.466   5.019   1.559
11523TIP3   OH234525   5.112   4.512   1.216
11523TIP3    H134526   5.131   4.445   1.150
11523TIP3    H234527   5.159   4.483   1.294
11524TIP3   OH234528   5.257   3.483   4.039
11524TIP3    H134529   5.292   3.475   4.128
11524TIP3    H234530   5.328   3.450   3.983
11525TIP3   OH234531   4.933   7.055   6.087
11525TIP3    H134532   4.883   7.026   6.163
11525TIP3    H234533   4.987   7.127   6.119
11526TIP3   OH234534   6.012   2.690   3.152
11526TIP3    H134535   5.952   2.753   3.113
11526TIP3    H234536   6.085   2.744   3.185
11527TIP3   OH234537   7.442   5.781   1.804
11527TIP3    H134538   7.424   5.695   1.766
11527TIP3    H234539   7.360   5.830   1.793
11528TIP3   OH234540   1.927   1.527   3.236
11528TIP3    H134541   1.907   1.459   3.172
11528TIP3    H234542   2.019   1.547   3.221
11529TIP3   OH234543  -0.023   2.531   6.452
11529TIP3    H134544  -0.025   2.620   6.487
11529TIP3    H234545   0.064   2.523   6.413
11530TIP3   OH234546   5.212   1.368   3.835
11530TIP3    H134547   5.294   1.417   3.841
11530TIP3    H234548   5.166   1.408   3.760
11531TIP3   OH234549   0.571   7.422   6.440
11531TIP3    H134550   0.573   7.358   6.369
11531TIP3    H234551   0.533   7.375   6.514
11532TIP3   OH234552   0.002   5.515   2.334
11532TIP3    H134553  -0.054   5.441   2.310
11532TIP3    H234554   0.090   5.488   2.309
11533TIP3   OH234555   7.800   1.938   4.213
11533TIP3    H134556   7.889   1.932   4.178
11533TIP3    H234557   7.749   1.978   4.143
11534TIP3   OH234558   4.179   3.583   5.243
11534TIP3    H134559   4.268   3.587   5.209
11534TIP3    H234560   4.148   3.673   5.240
11535TIP3   OH234561   5.456   3.985   1.332
11535TIP3    H134562   5.497   3.952   1.251
11535TIP3    H234563   5.372   3.940   1.336
11536TIP3   OH234564   0.327   5.215   2.653
11536TIP3    H134565   0.378   5.296   2.646
11536TIP3    H234566   0.315   5.187   2.563
11537TIP3   OH234567   1.970   0.068   3.174
11537TIP3    H134568   1.992  -0.025   3.167
11537TIP3    H234569   2.004   0.094   3.260
11538TIP3   OH234570   5.616   1.740   1.366
11538TIP3    H134571   5.660   1.823   1.353
11538TIP3    H234572   5.651   1.707   1.449
11539TIP3   OH234573   6.221   3.364   3.306
11539TIP3    H134574   6.266   3.373   3.222
11539TIP3    H234575   6.289   3.337   3.368
11540TIP3   OH234576   1.177   5.049   0.515
11540TIP3    H134577   1.170   5.139   0.547
11540TIP3    H234578   1.133   5.051   0.430
11541TIP3   OH234579   7.418   5.657   0.924
11541TIP3    H134580   7.376   5.594   0.982
11541TIP3    H234581   7.465   5.603   0.860
11542TIP3   OH234582   1.718   2.326   2.397
11542TIP3    H134583   1.705   2.421   2.395
11542TIP3    H234584   1.808   2.316   2.428
11543TIP3   OH234585   7.971   1.937   4.975
11543TIP3    H134586   8.023   1.975   5.046
11543TIP3    H234587   8.002   1.981   4.896
11544TIP3   OH234588   7.571   4.888   5.700
11544TIP3    H134589   7.479   4.874   5.724
11544TIP3    H234590   7.593   4.813   5.646
11545TIP3   OH234591   1.228   1.017   3.248
11545TIP3    H134592   1.250   1.094   3.300
11545TIP3    H234593   1.260   1.036   3.160
11546TIP3   OH234594   6.135   5.741   0.471
11546TIP3    H134595   6.196   5.802   0.429
11546TIP3    H234596   6.167   5.654   0.445
11547TIP3   OH234597   0.461   5.562   3.134
11547TIP3    H134598   0.429   5.472   3.129
11547TIP3    H234599   0.396   5.607   3.188
11548TIP3   OH234600   6.804   1.821   4.592
11548TIP3    H134601   6.721   1.817   4.640
11548TIP3    H234602   6.793   1.895   4.532
11549TIP3   OH234603   1.390   6.093   6.387
11549TIP3    H134604   1.401   6.081   6.292
11549TIP3    H234605   1.472   6.132   6.416
11550TIP3   OH234606   6.638   1.018   2.546
11550TIP3    H134607   6.609   1.033   2.636
11550TIP3    H234608   6.594   0.937   2.520
11551TIP3   OH234609   6.751   5.942   1.227
11551TIP3    H134610   6.694   5.865   1.234
11551TIP3    H234611   6.699   6.007   1.181
11552TIP3   OH234612   6.551   6.142   0.169
11552TIP3    H134613   6.633   6.095   0.183
11552TIP3    H234614   6.483   6.082   0.200
11553TIP3   OH234615   6.513   3.031   4.833
11553TIP3    H134616   6.569   3.103   4.806
11553TIP3    H234617   6.468   3.062   4.911
11554TIP3   OH234618   4.544   4.150   2.533
11554TIP3    H134619   4.492   4.120   2.458
11554TIP3    H234620   4.619   4.194   2.493
11555TIP3   OH234621   3.026   1.488   3.608
11555TIP3    H134622   3.086   1.530   3.547
11555TIP3    H234623   3.080   1.428   3.658
11556TIP3   OH234624   4.953   3.716   3.451
11556TIP3    H134625   4.958   3.677   3.363
11556TIP3    H234626   4.923   3.806   3.435
11557TIP3   OH234627   3.989   1.375   3.980
11557TIP3    H134628   3.942   1.362   4.063
11557TIP3    H234629   3.994   1.288   3.941
11558TIP3   OH234630   7.677   3.903   3.370
11558TIP3    H134631   7.686   3.851   3.449
11558TIP3    H234632   7.690   3.841   3.298
11559TIP3   OH234633   2.574   2.428   5.132
11559TIP3    H134634   2.486   2.390   5.129
11559TIP3    H234635   2.561   2.520   5.151
11560TIP3   OH234636   5.888   0.336   3.000
11560TIP3    H134637   5.824   0.268   3.023
11560TIP3    H234638   5.973   0.292   3.006
11561TIP3   OH234639   5.946   4.102   2.964
11561TIP3    H134640   5.888   4.151   2.906
11561TIP3    H234641   5.898   4.021   2.982
11562TIP3   OH234642   4.726   0.046   2.034
11562TIP3    H134643   4.785  -0.001   1.976
11562TIP3    H234644   4.692   0.119   1.981
11563TIP3   OH234645   6.097   1.990   0.493
11563TIP3    H134646   6.079   1.933   0.418
11563TIP3    H234647   6.022   1.978   0.551
11564TIP3   OH234648   2.322   4.963   1.884
11564TIP3    H134649   2.386   4.894   1.899
11564TIP3    H234650   2.369   5.044   1.904
11565TIP3   OH234651   2.690   0.969   6.003
11565TIP3    H134652   2.653   1.049   5.968
11565TIP3    H234653   2.659   0.900   5.945
11566TIP3   OH234654   5.290   3.849   0.674
11566TIP3    H134655   5.356   3.918   0.678
11566TIP3    H234656   5.305   3.806   0.590
11567TIP3   OH234657   4.373   2.472   5.216
11567TIP3    H134658   4.352   2.469   5.309
11567TIP3    H234659   4.306   2.418   5.175
11568TIP3   OH234660   0.913   3.013   4.041
11568TIP3    H134661   0.995   2.964   4.039
11568TIP3    H234662   0.859   2.966   4.106
11569TIP3   OH234663   6.605   7.241   2.953
11569TIP3    H134664   6.576   7.261   2.864
11569TIP3    H234665   6.667   7.311   2.974
11570TIP3   OH234666   1.516   3.993   4.974
11570TIP3    H134667   1.603   3.959   4.997
11570TIP3    H234668   1.501   3.962   4.885
11571TIP3   OH234669   7.361   0.293   6.480
11571TIP3    H134670   7.442   0.328   6.517
11571TIP3    H234671   7.364   0.318   6.388
11572TIP3   OH234672   0.140   3.208   2.710
11572TIP3    H134673   0.144   3.231   2.803
11572TIP3    H234674   0.048   3.220   2.686
11573TIP3   OH234675   0.351   3.824   3.532
11573TIP3    H134676   0.313   3.797   3.449
11573TIP3    H234677   0.349   3.920   3.529
11574TIP3   OH234678   2.288   0.478   4.075
11574TIP3    H134679   2.326   0.436   3.997
11574TIP3    H234680   2.230   0.546   4.040
11575TIP3   OH234681   6.483   3.604   4.139
11575TIP3    H134682   6.478   3.700   4.139
11575TIP3    H234683   6.572   3.585   4.108
11576TIP3   OH234684   3.641   4.728   6.436
11576TIP3    H134685   3.709   4.793   6.417
11576TIP3    H234686   3.559   4.773   6.420
11577TIP3   OH234687   1.964   6.081   5.908
11577TIP3    H134688   1.938   6.063   5.998
11577TIP3    H234689   2.057   6.060   5.905
11578TIP3   OH234690   2.311   0.665   4.872
11578TIP3    H134691   2.327   0.756   4.894
11578TIP3    H234692   2.307   0.619   4.956
11579TIP3   OH234693   5.600   4.283   1.753
11579TIP3    H134694   5.627   4.320   1.669
11579TIP3    H234695   5.507   4.303   1.759
11580TIP3   OH234696   3.288   3.150   0.331
11580TIP3    H134697   3.283   3.242   0.308
11580TIP3    H234698   3.276   3.148   0.426
11581TIP3   OH234699   2.334   3.931   0.569
11581TIP3    H134700   2.365   3.970   0.651
11581TIP3    H234701   2.356   3.839   0.576
11582TIP3   OH234702   6.783   5.333   1.982
11582TIP3    H134703   6.692   5.357   1.994
11582TIP3    H234704   6.810   5.297   2.066
11583TIP3   OH234705   5.613   5.093   3.025
11583TIP3    H134706   5.607   5.152   2.950
11583TIP3    H234707   5.616   5.006   2.987
11584TIP3   OH234708   7.946   5.661   6.381
11584TIP3    H134709   7.940   5.660   6.477
11584TIP3    H234710   8.025   5.712   6.363
11585TIP3   OH234711   3.966   4.287   2.533
11585TIP3    H134712   3.897   4.302   2.468
11585TIP3    H234713   4.043   4.332   2.496
11586TIP3   OH234714   6.631   6.167   5.612
11586TIP3    H134715   6.651   6.104   5.681
11586TIP3    H234716   6.592   6.242   5.658
11587TIP3   OH234717   5.090   5.020   4.294
11587TIP3    H134718   5.156   5.089   4.294
11587TIP3    H234719   5.135   4.943   4.260
11588TIP3   OH234720   6.499   3.060   2.882
11588TIP3    H134721   6.422   3.003   2.887
11588TIP3    H234722   6.560   3.012   2.826
11589TIP3   OH234723   4.738   6.582   3.524
11589TIP3    H134724   4.762   6.548   3.611
11589TIP3    H234725   4.659   6.635   3.541
11590TIP3   OH234726   1.121   1.394   1.249
11590TIP3    H134727   1.187   1.430   1.308
11590TIP3    H234728   1.171   1.365   1.173
11591TIP3   OH234729   4.229   4.099   4.201
11591TIP3    H134730   4.147   4.055   4.219
11591TIP3    H234731   4.220   4.132   4.112
11592TIP3   OH234732   2.965   6.736   5.527
11592TIP3    H134733   2.923   6.768   5.447
11592TIP3    H234734   2.901   6.676   5.565
11593TIP3   OH234735   8.029   1.031   2.432
11593TIP3    H134736   7.955   1.080   2.466
11593TIP3    H234737   8.019   0.943   2.469
11594TIP3   OH234738   4.162   0.067   4.163
11594TIP3    H134739   4.178   0.021   4.245
11594TIP3    H234740   4.248   0.073   4.121
11595TIP3   OH234741   7.785   5.543   1.099
11595TIP3    H134742   7.765   5.484   1.027
11595TIP3    H234743   7.767   5.630   1.064
11596TIP3   OH234744   7.635   7.426   2.782
11596TIP3    H134745   7.661   7.343   2.823
11596TIP3    H234746   7.578   7.400   2.710
11597TIP3   OH234747   2.825   3.346   0.594
11597TIP3    H134748   2.787   3.403   0.660
11597TIP3    H234749   2.817   3.258   0.630
11598TIP3   OH234750   1.789   6.706   3.975
11598TIP3    H134751   1.724   6.663   4.032
11598TIP3    H234752   1.806   6.643   3.905
11599TIP3   OH234753   6.492   5.806   5.285
11599TIP3    H134754   6.450   5.720   5.279
11599TIP3    H234755   6.452   5.846   5.362
11600TIP3   OH234756   5.654   0.512   0.165
11600TIP3    H134757   5.703   0.578   0.216
11600TIP3    H234758   5.718   0.444   0.146
11601TIP3   OH234759   6.100   1.415   1.213
11601TIP3    H134760   6.094   1.334   1.263
11601TIP3    H234761   6.127   1.387   1.125
11602TIP3   OH234762   0.070   4.755   5.752
11602TIP3    H134763   0.143   4.730   5.808
11602TIP3    H234764  -0.004   4.701   5.782
11603TIP3   OH234765   3.959   4.837   4.407
11603TIP3    H134766   4.010   4.757   4.391
11603TIP3    H234767   4.022   4.899   4.444
11604TIP3   OH234768   2.241   0.877   0.063
11604TIP3    H134769   2.318   0.933   0.071
11604TIP3    H234770   2.169   0.930   0.098
11605TIP3   OH234771   7.734   2.549   2.369
11605TIP3    H134772   7.716   2.502   2.288
11605TIP3    H234773   7.652   2.546   2.418
11606TIP3   OH234774   8.035   3.202   6.154
11606TIP3    H134775   7.973   3.164   6.216
11606TIP3    H234776   8.100   3.246   6.209
11607TIP3   OH234777   6.517   0.819   5.725
11607TIP3    H134778   6.552   0.786   5.642
11607TIP3    H234779   6.451   0.756   5.751
11608TIP3   OH234780   5.792   3.612   0.711
11608TIP3    H134781   5.860   3.629   0.776
11608TIP3    H234782   5.834   3.627   0.626
11609TIP3   OH234783   7.659   6.762   2.200
11609TIP3    H134784   7.662   6.829   2.268
11609TIP3    H234785   7.640   6.681   2.248
11610TIP3   OH234786   7.232   2.537   1.338
11610TIP3    H134787   7.197   2.460   1.294
11610TIP3    H234788   7.207   2.610   1.282
11611TIP3   OH234789   1.523   6.971   0.620
11611TIP3    H134790   1.492   7.050   0.574
11611TIP3    H234791   1.526   6.904   0.552
11612TIP3   OH234792   8.260   7.540   3.041
11612TIP3    H134793   8.180   7.586   3.014
11612TIP3    H234794   8.318   7.545   2.965
11613TIP3   OH234795   3.821   2.018   3.991
11613TIP3    H134796   3.871   2.081   3.939
11613TIP3    H234797   3.883   1.987   4.057
11614TIP3   OH234798   2.037   5.924   0.625
11614TIP3    H134799   2.044   5.909   0.531
11614TIP3    H234800   2.123   5.957   0.651
11615TIP3   OH234801   6.212   6.945   0.987
11615TIP3    H134802   6.279   6.984   0.930
11615TIP3    H234803   6.142   6.921   0.927
11616TIP3   OH234804   3.046   2.689   3.096
11616TIP3    H134805   3.135   2.720   3.111
11616TIP3    H234806   3.047   2.655   3.007
11617TIP3   OH234807   2.325   1.195   0.561
11617TIP3    H134808   2.397   1.132   0.563
11617TIP3    H234809   2.350   1.258   0.494
11618TIP3   OH234810   6.797   4.370   0.420
11618TIP3    H134811   6.855   4.436   0.383
11618TIP3    H234812   6.743   4.341   0.347
11619TIP3   OH234813   2.141   5.525   4.029
11619TIP3    H134814   2.220   5.551   4.076
11619TIP3    H234815   2.075   5.588   4.057
11620TIP3   OH234816   8.054   2.034   5.955
11620TIP3    H134817   8.132   1.984   5.932
11620TIP3    H234818   8.044   2.097   5.884
11621TIP3   OH234819   4.890   1.214   3.225
11621TIP3    H134820   4.934   1.256   3.151
11621TIP3    H234821   4.835   1.283   3.263
11622TIP3   OH234822   5.927   5.638   2.444
11622TIP3    H134823   5.991   5.573   2.413
11622TIP3    H234824   5.937   5.712   2.384
11623TIP3   OH234825   0.303   0.226   5.853
11623TIP3    H134826   0.327   0.140   5.886
11623TIP3    H234827   0.207   0.228   5.860
11624TIP3   OH234828   4.992   0.696   0.098
11624TIP3    H134829   4.911   0.744   0.080
11624TIP3    H234830   4.976   0.652   0.181
11625TIP3   OH234831   2.374   4.045   3.583
11625TIP3    H134832   2.345   3.993   3.508
11625TIP3    H234833   2.436   4.108   3.546
11626TIP3   OH234834   0.366   2.716   0.731
11626TIP3    H134835   0.351   2.727   0.637
11626TIP3    H234836   0.282   2.686   0.765
11627TIP3   OH234837   4.754   4.928   6.678
11627TIP3    H134838   4.792   4.904   6.594
11627TIP3    H234839   4.693   4.856   6.698
11628TIP3   OH234840   2.823   1.660   3.476
11628TIP3    H134841   2.847   1.630   3.564
11628TIP3    H234842   2.778   1.585   3.437
11629TIP3   OH234843   6.226   1.294   2.075
11629TIP3    H134844   6.181   1.341   2.145
11629TIP3    H234845   6.298   1.249   2.119
11630TIP3   OH234846   1.567   2.053   0.424
11630TIP3    H134847   1.513   1.985   0.384
11630TIP3    H234848   1.508   2.127   0.436
11631TIP3   OH234849   3.223   2.774   6.146
11631TIP3    H134850   3.249   2.684   6.167
11631TIP3    H234851   3.305   2.817   6.122
11632TIP3   OH234852   4.297   5.272   1.352
11632TIP3    H134853   4.386   5.287   1.384
11632TIP3    H234854   4.257   5.359   1.353
11633TIP3   OH234855   1.439   1.462   0.395
11633TIP3    H134856   1.391   1.496   0.320
11633TIP3    H234857   1.529   1.451   0.363
11634TIP3   OH234858   0.378   2.932   1.267
11634TIP3    H134859   0.319   3.007   1.262
11634TIP3    H234860   0.421   2.941   1.352
11635TIP3   OH234861   0.024   5.030   4.634
11635TIP3    H134862   0.097   4.978   4.601
11635TIP3    H234863   0.002   4.991   4.718
11636TIP3   OH234864   2.883   1.919   0.383
11636TIP3    H134865   2.895   1.970   0.303
11636TIP3    H234866   2.912   1.978   0.453
11637TIP3   OH234867   3.516   1.591   0.089
11637TIP3    H134868   3.448   1.629   0.034
11637TIP3    H234869   3.565   1.533   0.031
11638TIP3   OH234870   4.735   2.187   4.773
11638TIP3    H134871   4.825   2.170   4.744
11638TIP3    H234872   4.687   2.107   4.751
11639TIP3   OH234873   1.996   0.294   0.237
11639TIP3    H134874   1.947   0.214   0.257
11639TIP3    H234875   1.948   0.363   0.283
11640TIP3   OH234876   5.406   7.261   1.211
11640TIP3    H134877   5.363   7.290   1.130
11640TIP3    H234878   5.354   7.300   1.281
11641TIP3   OH234879   6.857   3.085   1.036
11641TIP3    H134880   6.852   3.010   0.977
11641TIP3    H234881   6.943   3.124   1.020
11642TIP3   OH234882   1.437   4.217   4.194
11642TIP3    H134883   1.391   4.150   4.245
11642TIP3    H234884   1.519   4.230   4.240
11643TIP3   OH234885   0.671   5.064   2.504
11643TIP3    H134886   0.660   5.147   2.550
11643TIP3    H234887   0.636   5.080   2.417
11644TIP3   OH234888   1.054   5.126   2.129
11644TIP3    H134889   0.980   5.119   2.068
11644TIP3    H234890   1.101   5.204   2.100
11645TIP3   OH234891   6.303   3.891   5.216
11645TIP3    H134892   6.320   3.799   5.234
11645TIP3    H234893   6.389   3.930   5.202
11646TIP3   OH234894   5.135   4.881   0.937
11646TIP3    H134895   5.201   4.889   1.006
11646TIP3    H234896   5.111   4.971   0.916
11647TIP3   OH234897   0.186   5.418   6.197
11647TIP3    H134898   0.107   5.375   6.163
11647TIP3    H234899   0.163   5.511   6.201
11648TIP3   OH234900   0.204   5.552   3.697
11648TIP3    H134901   0.177   5.611   3.627
11648TIP3    H234902   0.207   5.465   3.655
11649TIP3   OH234903   8.203   1.607   6.545
11649TIP3    H134904   8.175   1.672   6.480
11649TIP3    H234905   8.290   1.581   6.517
11650TIP3   OH234906   5.494   4.423   0.622
11650TIP3    H134907   5.550   4.443   0.697
11650TIP3    H234908   5.510   4.330   0.604
11651TIP3   OH234909   4.351   2.007   5.635
11651TIP3    H134910   4.380   2.089   5.595
11651TIP3    H234911   4.275   2.033   5.688
11652TIP3   OH234912   5.682   1.161   0.096
11652TIP3    H134913   5.671   1.101   0.023
11652TIP3    H234914   5.641   1.242   0.066
11653TIP3   OH234915   1.796   0.986   1.367
11653TIP3    H134916   1.808   0.891   1.372
11653TIP3    H234917   1.712   1.002   1.409
11654TIP3   OH234918   7.634   3.525   0.404
11654TIP3    H134919   7.539   3.536   0.403
11654TIP3    H234920   7.669   3.614   0.410
11655TIP3   OH234921   5.043   0.618   4.538
11655TIP3    H134922   5.070   0.695   4.589
11655TIP3    H234923   5.124   0.568   4.525
11656TIP3   OH234924   2.665   7.333   4.904
11656TIP3    H134925   2.740   7.322   4.846
11656TIP3    H234926   2.590   7.342   4.846
11657TIP3   OH234927   6.362   2.512   4.855
11657TIP3    H134928   6.435   2.536   4.912
11657TIP3    H234929   6.284   2.523   4.909
11658TIP3   OH234930   0.412   7.666   5.014
11658TIP3    H134931   0.451   7.737   5.064
11658TIP3    H234932   0.476   7.594   5.019
11659TIP3   OH234933   5.986   1.654   5.775
11659TIP3    H134934   5.898   1.650   5.737
11659TIP3    H234935   6.037   1.702   5.710
11660TIP3   OH234936   1.332   5.509   1.197
11660TIP3    H134937   1.371   5.518   1.284
11660TIP3    H234938   1.321   5.599   1.166
11661TIP3   OH234939   0.261   2.692   1.361
11661TIP3    H134940   0.330   2.626   1.370
11661TIP3    H234941   0.305   2.768   1.323
11662TIP3   OH234942   7.157   0.078   3.958
11662TIP3    H134943   7.106   0.082   4.039
11662TIP3    H234944   7.223   0.147   3.967
11663TIP3   OH234945   2.792   4.613   1.209
11663TIP3    H134946   2.745   4.556   1.269
11663TIP3    H234947   2.857   4.657   1.264
11664TIP3   OH234948   3.397   5.429   2.025
11664TIP3    H134949   3.315   5.417   2.074
11664TIP3    H234950   3.407   5.348   1.976
11665TIP3   OH234951   2.198   0.262   2.819
11665TIP3    H134952   2.178   0.351   2.790
11665TIP3    H234953   2.166   0.258   2.909
11666TIP3   OH234954   3.160   4.284   1.507
11666TIP3    H134955   3.109   4.281   1.426
11666TIP3    H234956   3.203   4.370   1.505
11667TIP3   OH234957   1.485   1.977   3.432
11667TIP3    H134958   1.514   2.020   3.512
11667TIP3    H234959   1.503   1.884   3.447
11668TIP3   OH234960   0.514   6.216   3.360
11668TIP3    H134961   0.463   6.142   3.328
11668TIP3    H234962   0.475   6.292   3.317
11669TIP3   OH234963   0.994   2.780   0.186
11669TIP3    H134964   1.075   2.828   0.167
11669TIP3    H234965   1.015   2.727   0.263
11670TIP3   OH234966   3.818   6.114   2.613
11670TIP3    H134967   3.877   6.184   2.585
11670TIP3    H234968   3.831   6.109   2.708
11671TIP3   OH234969   5.185   5.392   0.782
11671TIP3    H134970   5.266   5.440   0.763
11671TIP3    H234971   5.130   5.456   0.827
11672TIP3   OH234972   4.659   2.441   4.954
11672TIP3    H134973   4.580   2.493   4.934
11672TIP3    H234974   4.669   2.383   4.878
11673TIP3   OH234975   7.855   0.299   4.940
11673TIP3    H134976   7.784   0.240   4.914
11673TIP3    H234977   7.906   0.249   5.003
11674TIP3   OH234978   3.114   2.165   6.238
11674TIP3    H134979   3.209   2.163   6.249
11674TIP3    H234980   3.100   2.220   6.161
11675TIP3   OH234981   7.844   5.054   1.366
11675TIP3    H134982   7.775   5.070   1.430
11675TIP3    H234983   7.863   5.140   1.329
11676TIP3   OH234984   5.408   5.474   0.624
11676TIP3    H134985   5.324   5.465   0.579
11676TIP3    H234986   5.468   5.505   0.556
11677TIP3   OH234987   2.426   2.683   2.888
11677TIP3    H134988   2.450   2.774   2.908
11677TIP3    H234989   2.474   2.631   2.952
11678TIP3   OH234990   1.488   3.270   3.260
11678TIP3    H134991   1.400   3.234   3.273
11678TIP3    H234992   1.494   3.286   3.166
11679TIP3   OH234993   2.693   2.147   5.285
11679TIP3    H134994   2.644   2.229   5.273
11679TIP3    H234995   2.785   2.173   5.279
11680TIP3   OH234996   7.038   5.575   4.000
11680TIP3    H134997   7.042   5.649   4.059
11680TIP3    H234998   7.024   5.614   3.913
11681TIP3   OH234999   2.914   5.087   2.983
11681TIP3    H135000   2.888   5.001   3.018
11681TIP3    H235001   2.879   5.088   2.893
11682TIP3   OH235002   4.023   5.805   6.008
11682TIP3    H135003   4.076   5.771   5.936
11682TIP3    H235004   3.935   5.770   5.991
11683TIP3   OH235005   3.239   7.489   2.447
11683TIP3    H135006   3.288   7.461   2.523
11683TIP3    H235007   3.188   7.412   2.421
11684TIP3   OH235008   5.721   6.581   5.170
11684TIP3    H135009   5.654   6.520   5.202
11684TIP3    H235010   5.704   6.662   5.218
11685TIP3   OH235011   7.688   1.732   0.773
11685TIP3    H135012   7.725   1.666   0.716
11685TIP3    H235013   7.672   1.686   0.856
11686TIP3   OH235014   0.844   5.709   4.950
11686TIP3    H135015   0.852   5.804   4.962
11686TIP3    H235016   0.882   5.671   5.029
11687TIP3   OH235017   1.614   0.626   1.455
11687TIP3    H135018   1.551   0.560   1.425
11687TIP3    H235019   1.684   0.624   1.389
11688TIP3   OH235020   1.418   4.795   2.031
11688TIP3    H135021   1.499   4.754   2.060
11688TIP3    H235022   1.353   4.725   2.032
11689TIP3   OH235023   7.806   1.380   6.058
11689TIP3    H135024   7.787   1.466   6.095
11689TIP3    H235025   7.804   1.320   6.133
11690TIP3   OH235026   5.458   0.270   6.069
11690TIP3    H135027   5.551   0.262   6.093
11690TIP3    H235028   5.433   0.183   6.039
11691TIP3   OH235029   0.241   5.228   4.185
11691TIP3    H135030   0.210   5.181   4.107
11691TIP3    H235031   0.244   5.320   4.158
11692TIP3   OH235032   6.434   5.612   4.216
11692TIP3    H135033   6.365   5.618   4.283
11692TIP3    H235034   6.516   5.619   4.265
11693TIP3   OH235035   2.937   2.157   0.544
11693TIP3    H135036   2.892   2.170   0.628
11693TIP3    H235037   3.028   2.179   0.561
11694TIP3   OH235038   2.948   4.207   0.523
11694TIP3    H135039   2.940   4.165   0.609
11694TIP3    H235040   2.927   4.137   0.461
11695TIP3   OH235041   2.960   0.367   0.496
11695TIP3    H135042   2.935   0.318   0.575
11695TIP3    H235043   3.050   0.395   0.513
11696TIP3   OH235044   1.392   3.137   0.167
11696TIP3    H135045   1.455   3.094   0.225
11696TIP3    H235046   1.442   3.159   0.088
11697TIP3   OH235047   3.436   5.051   0.712
11697TIP3    H135048   3.492   5.108   0.659
11697TIP3    H235049   3.347   5.082   0.694
11698TIP3   OH235050   4.841   5.105   4.376
11698TIP3    H135051   4.850   5.104   4.471
11698TIP3    H235052   4.923   5.067   4.343
11699TIP3   OH235053   7.288   6.325   1.894
11699TIP3    H135054   7.210   6.292   1.938
11699TIP3    H235055   7.270   6.313   1.801
11700TIP3   OH235056   3.415   0.496   2.279
11700TIP3    H135057   3.405   0.566   2.215
11700TIP3    H235058   3.475   0.531   2.344
11701TIP3   OH235059   7.708   0.140   6.185
11701TIP3    H135060   7.790   0.166   6.227
11701TIP3    H235061   7.736   0.084   6.112
11702TIP3   OH235062   0.558   3.286   1.170
11702TIP3    H135063   0.561   3.381   1.157
11702TIP3    H235064   0.603   3.250   1.094
11703TIP3   OH235065   3.239   0.923   3.912
11703TIP3    H135066   3.286   0.840   3.920
11703TIP3    H235067   3.154   0.907   3.952
11704TIP3   OH235068   6.814   2.956   2.111
11704TIP3    H135069   6.807   3.045   2.075
11704TIP3    H235070   6.727   2.938   2.147
11705TIP3   OH235071   3.126   1.640   4.654
11705TIP3    H135072   3.155   1.561   4.701
11705TIP3    H235073   3.058   1.677   4.710
11706TIP3   OH235074   1.826   2.018   2.762
11706TIP3    H135075   1.754   2.081   2.764
11706TIP3    H235076   1.836   1.990   2.853
11707TIP3   OH235077   6.518   7.219   0.254
11707TIP3    H135078   6.524   7.180   0.341
11707TIP3    H235079   6.585   7.174   0.203
11708TIP3   OH235080   3.340   0.302   6.748
11708TIP3    H135081   3.356   0.326   6.839
11708TIP3    H235082   3.318   0.209   6.752
11709TIP3   OH235083   3.131   6.964   4.741
11709TIP3    H135084   3.078   6.982   4.664
11709TIP3    H235085   3.127   7.045   4.793
11710TIP3   OH235086   7.135   7.461   4.729
11710TIP3    H135087   7.061   7.517   4.706
11710TIP3    H235088   7.117   7.378   4.685
11711TIP3   OH235089   5.829   2.109   6.436
11711TIP3    H135090   5.735   2.101   6.420
11711TIP3    H235091   5.862   2.020   6.427
11712TIP3   OH235092   1.622   2.988   2.880
11712TIP3    H135093   1.589   3.037   2.804
11712TIP3    H235094   1.635   2.899   2.847
11713TIP3   OH235095   5.211   4.815   6.178
11713TIP3    H135096   5.210   4.720   6.164
11713TIP3    H235097   5.165   4.827   6.261
11714TIP3   OH235098   6.127   3.165   3.865
11714TIP3    H135099   6.073   3.165   3.944
11714TIP3    H235100   6.198   3.105   3.885
11715TIP3   OH235101   0.801   7.232   3.870
11715TIP3    H135102   0.733   7.164   3.867
11715TIP3    H235103   0.756   7.310   3.903
11716TIP3   OH235104   2.791   0.201   0.679
11716TIP3    H135105   2.844   0.202   0.759
11716TIP3    H235106   2.731   0.127   0.690
11717TIP3   OH235107   4.405   3.127   3.095
11717TIP3    H135108   4.379   3.051   3.044
11717TIP3    H235109   4.439   3.188   3.029
11718TIP3   OH235110   2.146   7.623   3.380
11718TIP3    H135111   2.217   7.566   3.350
11718TIP3    H235112   2.112   7.664   3.300
11719TIP3   OH235113   0.607   0.011   2.876
11719TIP3    H135114   0.614   0.062   2.957
11719TIP3    H235115   0.543   0.059   2.823
11720TIP3   OH235116   2.845   3.968   4.627
11720TIP3    H135117   2.892   3.884   4.631
11720TIP3    H235118   2.908   4.029   4.591
11721TIP3   OH235119   6.359   5.592   0.836
11721TIP3    H135120   6.330   5.578   0.926
11721TIP3    H235121   6.308   5.667   0.806
11722TIP3   OH235122   3.159   0.748   4.938
11722TIP3    H135123   3.161   0.659   4.902
11722TIP3    H235124   3.087   0.791   4.891
11723TIP3   OH235125   0.291   1.865   5.575
11723TIP3    H135126   0.347   1.933   5.538
11723TIP3    H235127   0.222   1.913   5.621
11724TIP3   OH235128   6.451   1.703   6.453
11724TIP3    H135129   6.516   1.753   6.502
11724TIP3    H235130   6.376   1.762   6.445
11725TIP3   OH235131   0.468   3.766   1.292
11725TIP3    H135132   0.447   3.859   1.299
11725TIP3    H235133   0.403   3.730   1.233
11726TIP3   OH235134   5.872   0.075   1.009
11726TIP3    H135135   5.866   0.092   0.914
11726TIP3    H235136   5.965   0.084   1.029
11727TIP3   OH235137   3.727   4.268   2.353
11727TIP3    H135138   3.650   4.308   2.313
11727TIP3    H235139   3.762   4.210   2.286
11728TIP3   OH235140   0.623   0.185   3.156
11728TIP3    H135141   0.713   0.193   3.126
11728TIP3    H235142   0.614   0.093   3.182
11729TIP3   OH235143   4.739   1.332   0.782
11729TIP3    H135144   4.655   1.290   0.800
11729TIP3    H235145   4.773   1.354   0.869
11730TIP3   OH235146   4.864   2.351   5.695
11730TIP3    H135147   4.927   2.280   5.679
11730TIP3    H235148   4.801   2.343   5.623
11731TIP3   OH235149   1.883   6.429   5.161
11731TIP3    H135150   1.853   6.365   5.096
11731TIP3    H235151   1.972   6.452   5.133
11732TIP3   OH235152   7.446   4.359   2.508
11732TIP3    H135153   7.425   4.269   2.482
11732TIP3    H235154   7.498   4.349   2.588
11733TIP3   OH235155   7.626   5.331   4.293
11733TIP3    H135156   7.677   5.285   4.359
11733TIP3    H235157   7.598   5.262   4.232
11734TIP3   OH235158   7.508   0.276   4.210
11734TIP3    H135159   7.596   0.313   4.202
11734TIP3    H235160   7.497   0.259   4.303
11735TIP3   OH235161   6.937   5.092   5.739
11735TIP3    H135162   6.995   5.105   5.814
11735TIP3    H235163   6.909   5.180   5.715
11736TIP3   OH235164   6.912   3.759   3.691
11736TIP3    H135165   6.884   3.771   3.600
11736TIP3    H235166   6.905   3.846   3.730
11737TIP3   OH235167   2.253   5.098   0.903
11737TIP3    H135168   2.268   5.050   0.985
11737TIP3    H235169   2.324   5.069   0.845
11738TIP3   OH235170   5.858   6.844   1.885
11738TIP3    H135171   5.781   6.847   1.829
11738TIP3    H235172   5.830   6.885   1.967
11739TIP3   OH235173   3.431   7.089   6.419
11739TIP3    H135174   3.386   7.098   6.503
11739TIP3    H235175   3.408   7.001   6.389
11740TIP3   OH235176   0.633   6.942   6.251
11740TIP3    H135177   0.712   6.979   6.211
11740TIP3    H235178   0.662   6.861   6.293
11741TIP3   OH235179   3.675   4.858   0.840
11741TIP3    H135180   3.614   4.931   0.833
11741TIP3    H235181   3.747   4.892   0.892
11742TIP3   OH235182   3.057   5.815   1.287
11742TIP3    H135183   3.143   5.773   1.294
11742TIP3    H235184   3.048   5.865   1.369
11743TIP3   OH235185   6.967   5.850   3.990
11743TIP3    H135186   7.056   5.848   4.025
11743TIP3    H235187   6.911   5.859   4.067
11744TIP3   OH235188   4.183   4.122   6.775
11744TIP3    H135189   4.126   4.177   6.720
11744TIP3    H235190   4.209   4.051   6.717
11745TIP3   OH235191   3.124   5.546   2.682
11745TIP3    H135192   3.055   5.610   2.698
11745TIP3    H235193   3.194   5.570   2.742
11746TIP3   OH235194  -0.008   6.052   2.066
11746TIP3    H135195   0.020   6.041   1.975
11746TIP3    H235196   0.073   6.046   2.117
11747TIP3   OH235197   7.735   5.345   6.646
11747TIP3    H135198   7.727   5.252   6.670
11747TIP3    H235199   7.768   5.387   6.725
11748TIP3   OH235200   5.824   0.927   3.969
11748TIP3    H135201   5.829   1.013   3.927
11748TIP3    H235202   5.909   0.917   4.013
11749TIP3   OH235203   3.372   4.095   5.498
11749TIP3    H135204   3.359   4.074   5.405
11749TIP3    H235205   3.373   4.191   5.501
11750TIP3   OH235206   6.283   1.578   4.284
11750TIP3    H135207   6.239   1.545   4.205
11750TIP3    H235208   6.214   1.586   4.349
11751TIP3   OH235209   8.084   3.087   0.420
11751TIP3    H135210   8.099   3.024   0.351
11751TIP3    H235211   8.078   3.172   0.375
11752TIP3   OH235212   3.183   0.226   0.059
11752TIP3    H135213   3.112   0.166   0.035
11752TIP3    H235214   3.185   0.289  -0.013
11753TIP3   OH235215   0.598   6.670   3.961
11753TIP3    H135216   0.606   6.682   3.866
11753TIP3    H235217   0.526   6.608   3.971
11754TIP3   OH235218   3.135   3.700   0.228
11754TIP3    H135219   3.118   3.711   0.322
11754TIP3    H235220   3.222   3.737   0.215
11755TIP3   OH235221   4.732   7.613   4.725
11755TIP3    H135222   4.708   7.607   4.632
11755TIP3    H235223   4.681   7.687   4.758
11756TIP3   OH235224   2.679   1.888   5.198
11756TIP3    H135225   2.683   1.974   5.241
11756TIP3    H235226   2.608   1.842   5.243
11757TIP3   OH235227   4.677   6.171   3.383
11757TIP3    H135228   4.612   6.166   3.453
11757TIP3    H235229   4.679   6.263   3.358
11758TIP3   OH235230   1.270   0.311   3.340
11758TIP3    H135231   1.258   0.337   3.431
11758TIP3    H235232   1.341   0.367   3.307
11759TIP3   OH235233   7.602   6.176   1.736
11759TIP3    H135234   7.559   6.122   1.670
11759TIP3    H235235   7.682   6.208   1.693
11760TIP3   OH235236   0.609   0.910   5.598
11760TIP3    H135237   0.584   0.893   5.689
11760TIP3    H235238   0.704   0.923   5.601
11761TIP3   OH235239   1.144   0.823   2.398
11761TIP3    H135240   1.107   0.760   2.336
11761TIP3    H235241   1.085   0.819   2.474
11762TIP3   OH235242   6.234   0.096   5.637
11762TIP3    H135243   6.246   0.069   5.728
11762TIP3    H235244   6.176   0.030   5.600
11763TIP3   OH235245   2.780   3.805   3.118
11763TIP3    H135246   2.871   3.775   3.119
11763TIP3    H235247   2.787   3.900   3.104
11764TIP3   OH235248   5.996   0.922   0.906
11764TIP3    H135249   6.062   0.986   0.934
11764TIP3    H235250   6.012   0.911   0.812
11765TIP3   OH235251   8.224   5.084   5.233
11765TIP3    H135252   8.162   5.080   5.305
11765TIP3    H235253   8.305   5.048   5.269
11766TIP3   OH235254   5.351   2.621   1.503
11766TIP3    H135255   5.328   2.677   1.429
11766TIP3    H235256   5.395   2.546   1.464
11767TIP3   OH235257   0.792   6.007   1.930
11767TIP3    H135258   0.806   6.076   1.995
11767TIP3    H235259   0.815   5.926   1.976
11768TIP3   OH235260   6.648   4.842   0.432
11768TIP3    H135261   6.681   4.931   0.447
11768TIP3    H235262   6.715   4.785   0.469
11769TIP3   OH235263   3.138   1.874   4.132
11769TIP3    H135264   3.085   1.837   4.202
11769TIP3    H235265   3.162   1.961   4.164
11770TIP3   OH235266   6.271   3.369   5.402
11770TIP3    H135267   6.227   3.384   5.485
11770TIP3    H235268   6.203   3.330   5.346
11771TIP3   OH235269   2.266   4.723   5.632
11771TIP3    H135270   2.268   4.731   5.537
11771TIP3    H235271   2.351   4.757   5.661
11772TIP3   OH235272   0.607   7.092   2.210
11772TIP3    H135273   0.548   7.019   2.190
11772TIP3    H235274   0.552   7.156   2.256
11773TIP3   OH235275   2.413   0.503   0.954
11773TIP3    H135276   2.503   0.494   0.983
11773TIP3    H235277   2.384   0.413   0.937
11774TIP3   OH235278   6.607   0.539   2.505
11774TIP3    H135279   6.651   0.455   2.516
11774TIP3    H235280   6.658   0.600   2.558
11775TIP3   OH235281   7.232   5.143   5.318
11775TIP3    H135282   7.225   5.082   5.392
11775TIP3    H235283   7.284   5.216   5.352
11776TIP3   OH235284   1.978   6.600   6.088
11776TIP3    H135285   2.064   6.642   6.087
11776TIP3    H235286   1.915   6.671   6.079
11777TIP3   OH235287   2.247   7.348   0.011
11777TIP3    H135288   2.271   7.256   0.004
11777TIP3    H235289   2.162   7.348   0.053
11778TIP3   OH235290   3.436   1.298   4.243
11778TIP3    H135291   3.452   1.213   4.202
11778TIP3    H235292   3.446   1.282   4.337
11779TIP3   OH235293   2.061   6.670   4.070
11779TIP3    H135294   2.074   6.663   4.164
11779TIP3    H235295   1.971   6.701   4.060
11780TIP3   OH235296   0.651   1.276   0.520
11780TIP3    H135297   0.631   1.362   0.484
11780TIP3    H235298   0.747   1.272   0.521
11781TIP3   OH235299   0.158   6.092   1.813
11781TIP3    H135300   0.217   6.148   1.864
11781TIP3    H235301   0.106   6.153   1.761
11782TIP3   OH235302   8.199   3.781   1.098
11782TIP3    H135303   8.206   3.700   1.148
11782TIP3    H235304   8.257   3.769   1.023
11783TIP3   OH235305   1.120   6.427   2.785
11783TIP3    H135306   1.025   6.433   2.798
11783TIP3    H235307   1.157   6.433   2.872
11784TIP3   OH235308   1.652   7.594   1.256
11784TIP3    H135309   1.610   7.679   1.258
11784TIP3    H235310   1.689   7.583   1.344
11785TIP3   OH235311   6.479   6.688   5.824
11785TIP3    H135312   6.550   6.712   5.764
11785TIP3    H235313   6.466   6.765   5.879
11786TIP3   OH235314   1.009   6.503   1.952
11786TIP3    H135315   0.976   6.428   1.902
11786TIP3    H235316   1.011   6.575   1.889
11787TIP3   OH235317   3.749   6.977   2.822
11787TIP3    H135318   3.715   6.941   2.905
11787TIP3    H235319   3.731   7.070   2.827
11788TIP3   OH235320   6.524   5.022   5.167
11788TIP3    H135321   6.443   5.036   5.217
11788TIP3    H235322   6.515   5.080   5.091
11789TIP3   OH235323   5.689   4.931   6.380
11789TIP3    H135324   5.768   4.884   6.353
11789TIP3    H235325   5.628   4.862   6.405
11790TIP3   OH235326   5.242   5.385   1.596
11790TIP3    H135327   5.205   5.374   1.684
11790TIP3    H235328   5.170   5.363   1.537
11791TIP3   OH235329   6.582   4.906   2.021
11791TIP3    H135330   6.668   4.871   2.001
11791TIP3    H235331   6.575   4.985   1.968
11792TIP3   OH235332   3.447   3.565   1.404
11792TIP3    H135333   3.540   3.583   1.395
11792TIP3    H235334   3.431   3.569   1.499
11793TIP3   OH235335   2.129   4.188   5.721
11793TIP3    H135336   2.078   4.159   5.797
11793TIP3    H235337   2.210   4.222   5.758
11794TIP3   OH235338   1.360   6.753   0.884
11794TIP3    H135339   1.270   6.770   0.859
11794TIP3    H235340   1.358   6.747   0.979
11795TIP3   OH235341   0.292   3.218   6.609
11795TIP3    H135342   0.289   3.130   6.571
11795TIP3    H235343   0.385   3.242   6.606
11796TIP3   OH235344   4.868   5.027   0.764
11796TIP3    H135345   4.959   5.054   0.776
11796TIP3    H235346   4.836   5.079   0.691
11797TIP3   OH235347   7.237   2.374   0.419
11797TIP3    H135348   7.154   2.342   0.383
11797TIP3    H235349   7.231   2.354   0.513
11798TIP3   OH235350   6.824   7.396   5.313
11798TIP3    H135351   6.879   7.422   5.387
11798TIP3    H235352   6.807   7.303   5.328
11799TIP3   OH235353   3.407   7.410   3.083
11799TIP3    H135354   3.360   7.331   3.112
11799TIP3    H235355   3.382   7.420   2.991
11800TIP3   OH235356   0.346   5.876   4.342
11800TIP3    H135357   0.307   5.940   4.401
11800TIP3    H235358   0.360   5.799   4.396
11801TIP3   OH235359   7.646   1.699   1.433
11801TIP3    H135360   7.570   1.654   1.471
11801TIP3    H235361   7.608   1.758   1.368
11802TIP3   OH235362   2.871   0.363   2.641
11802TIP3    H135363   2.954   0.393   2.677
11802TIP3    H235364   2.895   0.314   2.562
11803TIP3   OH235365   4.647   3.043   5.405
11803TIP3    H135366   4.644   3.116   5.343
11803TIP3    H235367   4.737   3.010   5.399
11804TIP3   OH235368   1.063   7.567   1.950
11804TIP3    H135369   1.100   7.632   2.009
11804TIP3    H235370   1.062   7.486   2.001
11805TIP3   OH235371   6.039   2.432   0.746
11805TIP3    H135372   6.005   2.395   0.664
11805TIP3    H235373   6.048   2.525   0.729
11806TIP3   OH235374   7.772   0.858   2.135
11806TIP3    H135375   7.789   0.942   2.093
11806TIP3    H235376   7.851   0.840   2.185
11807TIP3   OH235377   2.590   6.040   5.607
11807TIP3    H135378   2.498   6.034   5.578
11807TIP3    H235379   2.636   5.974   5.554
11808TIP3   OH235380   1.031   1.654   5.380
11808TIP3    H135381   1.044   1.682   5.289
11808TIP3    H235382   1.114   1.674   5.423
11809TIP3   OH235383   6.203   3.215   6.245
11809TIP3    H135384   6.256   3.284   6.204
11809TIP3    H235385   6.264   3.167   6.300
11810TIP3   OH235386   7.324   3.288   3.558
11810TIP3    H135387   7.261   3.231   3.512
11810TIP3    H235388   7.270   3.341   3.616
11811TIP3   OH235389   0.159   0.145   0.809
11811TIP3    H135390   0.153   0.148   0.905
11811TIP3    H235391   0.088   0.202   0.779
11812TIP3   OH235392   2.917   6.327   1.665
11812TIP3    H135393   2.974   6.390   1.711
11812TIP3    H235394   2.867   6.284   1.734
11813TIP3   OH235395   5.499   7.116   4.027
11813TIP3    H135396   5.556   7.038   4.027
11813TIP3    H235397   5.478   7.130   3.934
11814TIP3   OH235398   0.863   3.410   4.830
11814TIP3    H135399   0.783   3.358   4.835
11814TIP3    H235400   0.927   3.352   4.788
11815TIP3   OH235401   6.302   3.372   1.512
11815TIP3    H135402   6.397   3.373   1.495
11815TIP3    H235403   6.264   3.422   1.440
11816TIP3   OH235404   3.670   1.071   0.775
11816TIP3    H135405   3.719   1.153   0.766
11816TIP3    H235406   3.643   1.050   0.685
11817TIP3   OH235407   5.216   4.871   5.540
11817TIP3    H135408   5.214   4.888   5.446
11817TIP3    H235409   5.177   4.784   5.549
11818TIP3   OH235410   1.009   0.194   4.056
11818TIP3    H135411   1.027   0.105   4.085
11818TIP3    H235412   0.966   0.184   3.972
11819TIP3   OH235413   0.709   0.666   3.411
11819TIP3    H135414   0.665   0.582   3.422
11819TIP3    H235415   0.744   0.687   3.497
11820TIP3   OH235416   2.014   1.453   3.516
11820TIP3    H135417   2.026   1.464   3.421
11820TIP3    H235418   2.028   1.359   3.530
11821TIP3   OH235419   4.233   6.044   1.313
11821TIP3    H135420   4.265   6.088   1.234
11821TIP3    H235421   4.276   5.958   1.311
11822TIP3   OH235422   8.215   0.044   2.018
11822TIP3    H135423   8.307   0.053   1.993
11822TIP3    H235424   8.185  -0.032   1.969
11823TIP3   OH235425   7.502   0.894   4.368
11823TIP3    H135426   7.479   0.928   4.454
11823TIP3    H235427   7.427   0.839   4.343
11824TIP3   OH235428   4.075   5.084   4.509
11824TIP3    H135429   4.042   5.135   4.583
11824TIP3    H235430   4.170   5.082   4.522
11825TIP3   OH235431   7.709   6.790   4.748
11825TIP3    H135432   7.659   6.841   4.811
11825TIP3    H235433   7.728   6.852   4.677
11826TIP3   OH235434   1.387   4.196   2.915
11826TIP3    H135435   1.311   4.139   2.908
11826TIP3    H235436   1.352   4.285   2.906
11827TIP3   OH235437   2.823   6.182   4.397
11827TIP3    H135438   2.737   6.222   4.382
11827TIP3    H235439   2.811   6.130   4.476
11828TIP3   OH235440   8.068   4.296   5.835
11828TIP3    H135441   8.040   4.380   5.797
11828TIP3    H235442   8.132   4.320   5.902
11829TIP3   OH235443   7.528   6.457   0.097
11829TIP3    H135444   7.499   6.466   0.188
11829TIP3    H235445   7.589   6.383   0.098
11830TIP3   OH235446   1.472   2.949   4.474
11830TIP3    H135447   1.488   3.044   4.469
11830TIP3    H235448   1.554   2.909   4.446
11831TIP3   OH235449   1.733   2.786   6.779
11831TIP3    H135450   1.794   2.789   6.705
11831TIP3    H235451   1.733   2.695   6.806
11832TIP3   OH235452   7.463   4.885   3.685
11832TIP3    H135453   7.452   4.903   3.591
11832TIP3    H235454   7.466   4.972   3.725
11833TIP3   OH235455   2.606   4.781   4.447
11833TIP3    H135456   2.698   4.792   4.421
11833TIP3    H235457   2.575   4.870   4.461
11834TIP3   OH235458   1.367   0.381   6.476
11834TIP3    H135459   1.382   0.472   6.451
11834TIP3    H235460   1.455   0.344   6.486
11835TIP3   OH235461   6.267   3.330   5.822
11835TIP3    H135462   6.335   3.397   5.815
11835TIP3    H235463   6.210   3.345   5.747
11836TIP3   OH235464   7.406   6.042   6.021
11836TIP3    H135465   7.342   6.069   6.088
11836TIP3    H235466   7.476   6.106   6.028
11837TIP3   OH235467   1.537   5.171   6.501
11837TIP3    H135468   1.446   5.203   6.500
11837TIP3    H235469   1.576   5.212   6.578
11838TIP3   OH235470   1.723   3.502   1.053
11838TIP3    H135471   1.675   3.539   1.127
11838TIP3    H235472   1.791   3.448   1.094
11839TIP3   OH235473   0.125   1.518   2.415
11839TIP3    H135474   0.109   1.613   2.414
11839TIP3    H235475   0.122   1.495   2.508
11840TIP3   OH235476   4.088   1.226   0.634
11840TIP3    H135477   4.060   1.246   0.724
11840TIP3    H235478   4.117   1.311   0.600
11841TIP3   OH235479   3.827   7.261   4.748
11841TIP3    H135480   3.809   7.186   4.805
11841TIP3    H235481   3.771   7.246   4.672
11842TIP3   OH235482   3.888   5.949   5.430
11842TIP3    H135483   3.796   5.952   5.404
11842TIP3    H235484   3.905   6.035   5.468
11843TIP3   OH235485   0.040   2.463   0.202
11843TIP3    H135486   0.110   2.470   0.138
11843TIP3    H235487  -0.028   2.412   0.159
11844TIP3   OH235488   0.568   0.897   6.321
11844TIP3    H135489   0.655   0.901   6.281
11844TIP3    H235490   0.585   0.896   6.415
11845TIP3   OH235491   1.400   5.303   4.933
11845TIP3    H135492   1.405   5.313   4.838
11845TIP3    H235493   1.490   5.316   4.963
11846TIP3   OH235494   2.512   7.151   1.472
11846TIP3    H135495   2.571   7.082   1.501
11846TIP3    H235496   2.553   7.187   1.394
11847TIP3   OH235497   6.192   4.552   1.628
11847TIP3    H135498   6.151   4.621   1.679
11847TIP3    H235499   6.271   4.592   1.592
11848TIP3   OH235500   4.360   4.915   6.539
11848TIP3    H135501   4.424   4.850   6.509
11848TIP3    H235502   4.284   4.901   6.482
11849TIP3   OH235503   2.475   4.722   5.043
11849TIP3    H135504   2.450   4.714   5.135
11849TIP3    H235505   2.532   4.799   5.041
11850TIP3   OH235506   5.577   0.041   4.562
11850TIP3    H135507   5.577   0.095   4.641
11850TIP3    H235508   5.557   0.103   4.492
11851TIP3   OH235509   4.059   4.233   1.547
11851TIP3    H135510   4.034   4.294   1.478
11851TIP3    H235511   4.155   4.231   1.543
11852TIP3   OH235512   2.132   1.149   2.677
11852TIP3    H135513   2.130   1.243   2.662
11852TIP3    H235514   2.071   1.113   2.613
11853TIP3   OH235515   1.418   3.481   1.281
11853TIP3    H135516   1.331   3.499   1.317
11853TIP3    H235517   1.434   3.551   1.218
11854TIP3   OH235518   6.891   2.679   5.950
11854TIP3    H135519   6.911   2.590   5.977
11854TIP3    H235520   6.914   2.681   5.857
11855TIP3   OH235521   6.997   6.106   2.152
11855TIP3    H135522   6.971   6.161   2.079
11855TIP3    H235523   6.927   6.041   2.159
11856TIP3   OH235524   1.598   1.597   4.440
11856TIP3    H135525   1.644   1.680   4.455
11856TIP3    H235526   1.507   1.622   4.430
11857TIP3   OH235527   0.581   7.737   1.969
11857TIP3    H135528   0.503   7.701   1.927
11857TIP3    H235529   0.627   7.783   1.899
11858TIP3   OH235530   4.631   3.449   2.353
11858TIP3    H135531   4.589   3.399   2.422
11858TIP3    H235532   4.596   3.413   2.271
11859TIP3   OH235533   4.800   1.652   0.256
11859TIP3    H135534   4.801   1.568   0.210
11859TIP3    H235535   4.752   1.634   0.337
11860TIP3   OH235536   3.379   0.167   1.451
11860TIP3    H135537   3.311   0.115   1.409
11860TIP3    H235538   3.456   0.111   1.450
11861TIP3   OH235539  -0.040   3.263   4.140
11861TIP3    H135540   0.048   3.228   4.124
11861TIP3    H235541  -0.034   3.301   4.228
11862TIP3   OH235542   3.548   3.262   4.670
11862TIP3    H135543   3.547   3.251   4.575
11862TIP3    H235544   3.456   3.260   4.696
11863TIP3   OH235545   1.109   2.387   2.891
11863TIP3    H135546   1.064   2.465   2.924
11863TIP3    H235547   1.079   2.379   2.801
11864TIP3   OH235548   2.362   0.255   1.571
11864TIP3    H135549   2.269   0.269   1.590
11864TIP3    H235550   2.405   0.259   1.656
11865TIP3   OH235551   1.646   1.934   6.517
11865TIP3    H135552   1.679   2.011   6.470
11865TIP3    H235553   1.650   1.863   6.454
11866TIP3   OH235554   6.414   6.013   2.487
11866TIP3    H135555   6.357   6.088   2.505
11866TIP3    H235556   6.456   5.993   2.570
11867TIP3   OH235557   2.201   6.862   3.950
11867TIP3    H135558   2.164   6.779   3.980
11867TIP3    H235559   2.134   6.927   3.968
11868TIP3   OH235560   7.566   7.209   5.727
11868TIP3    H135561   7.501   7.235   5.793
11868TIP3    H235562   7.566   7.281   5.664
11869TIP3   OH235563   6.549   3.364   6.729
11869TIP3    H135564   6.557   3.299   6.799
11869TIP3    H235565   6.468   3.340   6.684
11870TIP3   OH235566   3.189   2.999   5.897
11870TIP3    H135567   3.157   2.960   5.815
11870TIP3    H235568   3.110   3.032   5.940
11871TIP3   OH235569   7.523   1.243   4.541
11871TIP3    H135570   7.553   1.326   4.576
11871TIP3    H235571   7.497   1.192   4.617
11872TIP3   OH235572   4.688   2.378   6.199
11872TIP3    H135573   4.696   2.437   6.274
11872TIP3    H235574   4.767   2.324   6.203
11873TIP3   OH235575   8.121   0.332   0.985
11873TIP3    H135576   8.126   0.425   1.008
11873TIP3    H235577   8.091   0.289   1.065
11874TIP3   OH235578   5.672   0.118   1.192
11874TIP3    H135579   5.732   0.102   1.119
11874TIP3    H235580   5.727   0.113   1.270
11875TIP3   OH235581   3.460   5.956   1.125
11875TIP3    H135582   3.480   5.925   1.036
11875TIP3    H235583   3.514   5.902   1.182
11876TIP3   OH235584   1.908   0.860   5.731
11876TIP3    H135585   1.992   0.815   5.741
11876TIP3    H235586   1.928   0.937   5.679
11877TIP3   OH235587   0.837   6.703   0.833
11877TIP3    H135588   0.797   6.725   0.918
11877TIP3    H235589   0.764   6.676   0.778
11878TIP3   OH235590   1.758   1.930   1.644
11878TIP3    H135591   1.729   1.906   1.556
11878TIP3    H235592   1.821   1.861   1.668
11879TIP3   OH235593   1.934   5.754   0.002
11879TIP3    H135594   1.863   5.704   0.040
11879TIP3    H235595   2.013   5.716   0.039
11880TIP3   OH235596   5.597   6.994   5.427
11880TIP3    H135597   5.613   7.052   5.502
11880TIP3    H235598   5.561   7.052   5.360
11881TIP3   OH235599   4.135   6.520   0.158
11881TIP3    H135600   4.101   6.465   0.228
11881TIP3    H235601   4.209   6.471   0.123
11882TIP3   OH235602   2.385   6.507   4.009
11882TIP3    H135603   2.295   6.540   4.004
11882TIP3    H235604   2.418   6.537   4.093
11883TIP3   OH235605   6.299   6.284   4.076
11883TIP3    H135606   6.289   6.311   3.984
11883TIP3    H235607   6.237   6.339   4.124
11884TIP3   OH235608   3.075   4.160   2.520
11884TIP3    H135609   3.134   4.094   2.557
11884TIP3    H235610   3.131   4.211   2.461
11885TIP3   OH235611   4.141   3.050   5.373
11885TIP3    H135612   4.163   2.990   5.302
11885TIP3    H235613   4.142   3.137   5.332
11886TIP3   OH235614   5.750   6.457   3.216
11886TIP3    H135615   5.687   6.417   3.275
11886TIP3    H235616   5.804   6.384   3.185
11887TIP3   OH235617   5.341   1.363   5.862
11887TIP3    H135618   5.300   1.426   5.922
11887TIP3    H235619   5.434   1.384   5.866
11888TIP3   OH235620   1.846   7.208   5.803
11888TIP3    H135621   1.930   7.253   5.806
11888TIP3    H235622   1.825   7.189   5.894
11889TIP3   OH235623   7.700   2.823   2.398
11889TIP3    H135624   7.635   2.847   2.332
11889TIP3    H235625   7.715   2.729   2.384
11890TIP3   OH235626   7.174   3.696   6.506
11890TIP3    H135627   7.091   3.691   6.554
11890TIP3    H235628   7.240   3.713   6.574
11891TIP3   OH235629   1.528   5.208   3.824
11891TIP3    H135630   1.621   5.222   3.843
11891TIP3    H235631   1.526   5.131   3.767
11892TIP3   OH235632   0.929   4.426   3.629
11892TIP3    H135633   0.966   4.412   3.542
11892TIP3    H235634   1.003   4.457   3.682
11893TIP3   OH235635   2.798   2.086   6.194
11893TIP3    H135636   2.863   2.152   6.167
11893TIP3    H235637   2.725   2.138   6.229
11894TIP3   OH235638   7.327   1.919   5.677
11894TIP3    H135639   7.346   2.000   5.724
11894TIP3    H235640   7.266   1.945   5.608
11895TIP3   OH235641   2.453   0.380   0.455
11895TIP3    H135642   2.380   0.433   0.485
11895TIP3    H235643   2.435   0.292   0.490
11896TIP3   OH235644   1.947   2.321   3.335
11896TIP3    H135645   1.997   2.355   3.261
11896TIP3    H235646   1.956   2.226   3.329
11897TIP3   OH235647   1.488   0.653   2.052
11897TIP3    H135648   1.409   0.600   2.059
11897TIP3    H235649   1.559   0.593   2.074
11898TIP3   OH235650   0.116   7.486   6.513
11898TIP3    H135651   0.053   7.483   6.441
11898TIP3    H235652   0.157   7.572   6.506
11899TIP3   OH235653   0.330   6.678   0.570
11899TIP3    H135654   0.333   6.692   0.665
11899TIP3    H235655   0.259   6.735   0.540
11900TIP3   OH235656   7.938   7.153   4.425
11900TIP3    H135657   7.862   7.206   4.402
11900TIP3    H235658   8.013   7.209   4.406
11901TIP3   OH235659   3.811   4.372   5.041
11901TIP3    H135660   3.837   4.280   5.051
11901TIP3    H235661   3.791   4.380   4.948
11902TIP3   OH235662   0.279   6.385   2.865
11902TIP3    H135663   0.306   6.474   2.843
11902TIP3    H235664   0.196   6.397   2.910
11903TIP3   OH235665   6.038   4.758   1.752
11903TIP3    H135666   5.947   4.730   1.741
11903TIP3    H235667   6.035   4.853   1.741
11904TIP3   OH235668   7.762   3.408   2.084
11904TIP3    H135669   7.699   3.363   2.028
11904TIP3    H235670   7.713   3.482   2.121
11905TIP3   OH235671   0.636   0.041   2.451
11905TIP3    H135672   0.567   0.002   2.504
11905TIP3    H235673   0.601   0.126   2.423
11906TIP3   OH235674   6.350   0.708   0.690
11906TIP3    H135675   6.438   0.686   0.719
11906TIP3    H235676   6.313   0.759   0.762
11907TIP3   OH235677   0.006   6.352   6.108
11907TIP3    H135678   0.009   6.256   6.102
11907TIP3    H235679   0.034   6.371   6.198
11908TIP3   OH235680   7.504   2.542   4.515
11908TIP3    H135681   7.571   2.609   4.503
11908TIP3    H235682   7.427   2.578   4.470
11909TIP3   OH235683   7.335   3.216   3.842
11909TIP3    H135684   7.353   3.158   3.915
11909TIP3    H235685   7.335   3.158   3.765
11910TIP3   OH235686   5.584   7.380   1.013
11910TIP3    H135687   5.550   7.321   1.080
11910TIP3    H235688   5.561   7.338   0.930
11911TIP3   OH235689   5.948   0.942   5.464
11911TIP3    H135690   6.034   0.946   5.506
11911TIP3    H235691   5.967   0.922   5.373
11912TIP3   OH235692   3.043   6.845   4.038
11912TIP3    H135693   3.023   6.925   4.087
11912TIP3    H235694   2.958   6.814   4.006
11913TIP3   OH235695   6.792   2.980   5.688
11913TIP3    H135696   6.855   3.047   5.713
11913TIP3    H235697   6.811   2.963   5.596
11914TIP3   OH235698   7.117   0.436   1.059
11914TIP3    H135699   7.120   0.351   1.016
11914TIP3    H235700   7.034   0.475   1.030
11915TIP3   OH235701   6.249   7.488   0.582
11915TIP3    H135702   6.327   7.441   0.551
11915TIP3    H235703   6.268   7.508   0.673
11916TIP3   OH235704   0.254   4.926   5.651
11916TIP3    H135705   0.275   5.008   5.695
11916TIP3    H235706   0.177   4.893   5.698
11917TIP3   OH235707   8.096   5.126   6.612
11917TIP3    H135708   8.022   5.074   6.580
11917TIP3    H235709   8.134   5.165   6.534
11918TIP3   OH235710   3.681   0.178   6.602
11918TIP3    H135711   3.654   0.270   6.594
11918TIP3    H235712   3.767   0.182   6.644
11919TIP3   OH235713   3.208   7.415   1.505
11919TIP3    H135714   3.167   7.399   1.590
11919TIP3    H235715   3.159   7.488   1.468
11920TIP3   OH235716   7.414   1.494   6.782
11920TIP3    H135717   7.412   1.400   6.763
11920TIP3    H235718   7.379   1.535   6.703
11921TIP3   OH235719   2.306   7.021   1.014
11921TIP3    H135720   2.326   6.929   0.997
11921TIP3    H235721   2.352   7.069   0.946
11922TIP3   OH235722   3.917   2.562   1.520
11922TIP3    H135723   3.864   2.600   1.450
11922TIP3    H235724   3.963   2.637   1.559
11923TIP3   OH235725   0.364   0.251   3.160
11923TIP3    H135726   0.360   0.221   3.251
11923TIP3    H235727   0.458   0.260   3.142
11924TIP3   OH235728   2.473   4.118   0.434
11924TIP3    H135729   2.396   4.162   0.397
11924TIP3    H235730   2.440   4.072   0.511
11925TIP3   OH235731   6.473   0.388   3.570
11925TIP3    H135732   6.501   0.459   3.512
11925TIP3    H235733   6.531   0.315   3.549
11926TIP3   OH235734   6.450   2.508   1.287
11926TIP3    H135735   6.487   2.455   1.217
11926TIP3    H235736   6.390   2.568   1.244
11927TIP3   OH235737   0.885   0.352   4.342
11927TIP3    H135738   0.932   0.429   4.374
11927TIP3    H235739   0.923   0.337   4.255
11928TIP3   OH235740   6.529   0.085   5.696
11928TIP3    H135741   6.439   0.061   5.676
11928TIP3    H235742   6.540   0.065   5.789
11929TIP3   OH235743   3.809   0.476   1.597
11929TIP3    H135744   3.745   0.467   1.527
11929TIP3    H235745   3.774   0.545   1.653
11930TIP3   OH235746   7.900   4.680   0.257
11930TIP3    H135747   7.995   4.684   0.268
11930TIP3    H235748   7.888   4.640   0.170
11931TIP3   OH235749   3.007   2.832   1.339
11931TIP3    H135750   3.082   2.828   1.280
11931TIP3    H235751   3.021   2.758   1.399
11932TIP3   OH235752   6.321   3.995   6.416
11932TIP3    H135753   6.387   3.926   6.410
11932TIP3    H235754   6.238   3.948   6.422
11933TIP3   OH235755   8.136   4.481   0.017
11933TIP3    H135756   8.041   4.470   0.014
11933TIP3    H235757   8.153   4.521   0.102
11934TIP3   OH235758   7.604   6.839   3.425
11934TIP3    H135759   7.562   6.762   3.464
11934TIP3    H235760   7.688   6.807   3.392
11935TIP3   OH235761   1.168   0.257   3.041
11935TIP3    H135762   1.156   0.171   3.001
11935TIP3    H235763   1.236   0.243   3.107
11936TIP3   OH235764   6.408   2.260   4.123
11936TIP3    H135765   6.371   2.348   4.127
11936TIP3    H235766   6.405   2.238   4.030
11937TIP3   OH235767   2.410   4.469   0.440
11937TIP3    H135768   2.493   4.507   0.412
11937TIP3    H235769   2.358   4.544   0.471
11938TIP3   OH235770   6.735   1.550   3.486
11938TIP3    H135771   6.784   1.612   3.433
11938TIP3    H235772   6.764   1.566   3.576
11939TIP3   OH235773   7.036   4.364   2.718
11939TIP3    H135774   7.032   4.290   2.657
11939TIP3    H235775   7.128   4.369   2.744
11940TIP3   OH235776   1.261   2.132   0.221
11940TIP3    H135777   1.194   2.074   0.187
11940TIP3    H235778   1.253   2.126   0.317
11941TIP3   OH235779   3.202   4.001   1.929
11941TIP3    H135780   3.111   4.032   1.924
11941TIP3    H235781   3.242   4.034   1.849
11942TIP3   OH235782   7.789   0.479   3.954
11942TIP3    H135783   7.826   0.461   3.868
11942TIP3    H235784   7.831   0.561   3.981
11943TIP3   OH235785   2.146   5.980   5.332
11943TIP3    H135786   2.088   5.978   5.408
11943TIP3    H235787   2.217   6.039   5.358
11944TIP3   OH235788   1.421   3.591   3.710
11944TIP3    H135789   1.484   3.528   3.675
11944TIP3    H235790   1.468   3.674   3.710
11945TIP3   OH235791   6.328   2.722   1.243
11945TIP3    H135792   6.267   2.784   1.203
11945TIP3    H235793   6.396   2.777   1.283
11946TIP3   OH235794   3.334   2.293   6.529
11946TIP3    H135795   3.387   2.223   6.567
11946TIP3    H235796   3.244   2.271   6.554
11947TIP3   OH235797   4.400   0.869   1.109
11947TIP3    H135798   4.481   0.818   1.116
11947TIP3    H235799   4.344   0.816   1.051
11948TIP3   OH235800   1.901   1.287   5.051
11948TIP3    H135801   1.863   1.333   4.976
11948TIP3    H235802   1.826   1.267   5.106
11949TIP3   OH235803   7.641   3.639   2.612
11949TIP3    H135804   7.673   3.707   2.672
11949TIP3    H235805   7.625   3.684   2.530
11950TIP3   OH235806   0.545   4.505   2.326
11950TIP3    H135807   0.523   4.493   2.418
11950TIP3    H235808   0.641   4.503   2.323
11951TIP3   OH235809   5.790   7.388   2.856
11951TIP3    H135810   5.762   7.310   2.808
11951TIP3    H235811   5.820   7.355   2.940
11952TIP3   OH235812   3.394   3.496   4.440
11952TIP3    H135813   3.443   3.413   4.443
11952TIP3    H235814   3.319   3.477   4.384
11953TIP3   OH235815   5.179   6.753   0.833
11953TIP3    H135816   5.133   6.832   0.804
11953TIP3    H235817   5.116   6.682   0.821
11954TIP3   OH235818   2.584   6.192   3.010
11954TIP3    H135819   2.630   6.275   3.022
11954TIP3    H235820   2.627   6.151   2.934
11955TIP3   OH235821   2.771   6.945   6.589
11955TIP3    H135822   2.806   6.878   6.648
11955TIP3    H235823   2.736   7.012   6.648
11956TIP3   OH235824   6.540   6.132   3.467
11956TIP3    H135825   6.588   6.175   3.538
11956TIP3    H235826   6.602   6.068   3.432
11957TIP3   OH235827   6.484   2.491   1.600
11957TIP3    H135828   6.525   2.414   1.639
11957TIP3    H235829   6.479   2.470   1.507
11958TIP3   OH235830   0.548   0.485   1.459
11958TIP3    H135831   0.608   0.425   1.414
11958TIP3    H235832   0.530   0.442   1.543
11959TIP3   OH235833   7.149   6.208   1.654
11959TIP3    H135834   7.063   6.222   1.616
11959TIP3    H235835   7.207   6.264   1.603
11960TIP3   OH235836   6.002   7.518   0.866
11960TIP3    H135837   6.022   7.424   0.859
11960TIP3    H235838   5.919   7.528   0.820
11961TIP3   OH235839   4.054   1.185   5.636
11961TIP3    H135840   4.076   1.242   5.710
11961TIP3    H235841   4.106   1.107   5.650
11962TIP3   OH235842   8.044   4.109   1.509
11962TIP3    H135843   8.091   4.191   1.525
11962TIP3    H235844   7.970   4.134   1.453
11963TIP3   OH235845   6.290   7.148   2.300
11963TIP3    H135846   6.319   7.184   2.384
11963TIP3    H235847   6.305   7.054   2.307
11964TIP3   OH235848   2.609   1.050   6.286
11964TIP3    H135849   2.638   1.007   6.206
11964TIP3    H235850   2.569   1.132   6.256
11965TIP3   OH235851   7.414   4.310   6.346
11965TIP3    H135852   7.406   4.217   6.370
11965TIP3    H235853   7.496   4.314   6.297
11966TIP3   OH235854   6.842   1.893   0.804
11966TIP3    H135855   6.880   1.888   0.717
11966TIP3    H235856   6.902   1.948   0.854
11967TIP3   OH235857   0.236   2.980   4.267
11967TIP3    H135858   0.326   3.015   4.267
11967TIP3    H235859   0.203   3.000   4.180
11968TIP3   OH235860   6.437   6.995   4.417
11968TIP3    H135861   6.509   6.933   4.430
11968TIP3    H235862   6.377   6.977   4.490
11969TIP3   OH235863   7.521   0.218   3.467
11969TIP3    H135864   7.599   0.163   3.463
11969TIP3    H235865   7.456   0.171   3.414
11970TIP3   OH235866   5.459   5.835   1.320
11970TIP3    H135867   5.496   5.881   1.395
11970TIP3    H235868   5.381   5.792   1.354
11971TIP3   OH235869   3.190   5.902   5.038
11971TIP3    H135870   3.110   5.852   5.024
11971TIP3    H235871   3.255   5.861   4.980
11972TIP3   OH235872   3.770   2.913   3.808
11972TIP3    H135873   3.694   2.910   3.867
11972TIP3    H235874   3.736   2.953   3.728
11973TIP3   OH235875   7.660   6.324   5.570
11973TIP3    H135876   7.631   6.380   5.498
11973TIP3    H235877   7.710   6.254   5.527
11974TIP3   OH235878   5.136   3.064   5.183
11974TIP3    H135879   5.181   2.986   5.151
11974TIP3    H235880   5.150   3.130   5.115
11975TIP3   OH235881   1.219   1.067   1.619
11975TIP3    H135882   1.235   1.106   1.705
11975TIP3    H235883   1.132   1.028   1.626
11976TIP3   OH235884   6.209   3.768   5.689
11976TIP3    H135885   6.138   3.740   5.632
11976TIP3    H235886   6.268   3.818   5.632
11977TIP3   OH235887   3.298   7.094   4.166
11977TIP3    H135888   3.219   7.069   4.215
11977TIP3    H235889   3.274   7.177   4.123
11978TIP3   OH235890   2.560   0.074   0.374
11978TIP3    H135891   2.466   0.087   0.370
11978TIP3    H235892   2.573  -0.017   0.347
11979TIP3   OH235893   7.299   0.108   0.500
11979TIP3    H135894   7.312   0.198   0.470
11979TIP3    H235895   7.207   0.089   0.479
11980TIP3   OH235896   7.117   7.163   3.797
11980TIP3    H135897   7.125   7.121   3.711
11980TIP3    H235898   7.027   7.197   3.798
11981TIP3   OH235899   7.287   5.181   4.536
11981TIP3    H135900   7.231   5.254   4.511
11981TIP3    H235901   7.225   5.111   4.560
11982TIP3   OH235902   8.216   5.034   5.909
11982TIP3    H135903   8.174   5.076   5.834
11982TIP3    H235904   8.178   4.946   5.912
11983TIP3   OH235905   5.212   3.335   3.781
11983TIP3    H135906   5.192   3.242   3.772
11983TIP3    H235907   5.127   3.377   3.797
11984TIP3   OH235908   5.827   1.578   4.170
11984TIP3    H135909   5.780   1.541   4.245
11984TIP3    H235910   5.879   1.650   4.208
11985TIP3   OH235911   7.294   3.534   0.288
11985TIP3    H135912   7.324   3.553   0.199
11985TIP3    H235913   7.284   3.439   0.290
11986TIP3   OH235914   3.369   4.318   3.884
11986TIP3    H135915   3.443   4.266   3.852
11986TIP3    H235916   3.305   4.253   3.913
11987TIP3   OH235917   6.405   1.063   0.053
11987TIP3    H135918   6.416   1.099  -0.035
11987TIP3    H235919   6.362   0.979   0.039
11988TIP3   OH235920   7.190   0.624   6.456
11988TIP3    H135921   7.279   0.652   6.475
11988TIP3    H235922   7.168   0.665   6.373
11989TIP3   OH235923   0.165   5.317   3.536
11989TIP3    H135924   0.089   5.324   3.478
11989TIP3    H235925   0.165   5.225   3.563
11990TIP3   OH235926   5.434   6.444   4.403
11990TIP3    H135927   5.467   6.424   4.315
11990TIP3    H235928   5.366   6.510   4.388
11991TIP3   OH235929   2.606   3.366   6.432
11991TIP3    H135930   2.575   3.337   6.518
11991TIP3    H235931   2.605   3.461   6.437
11992TIP3   OH235932   4.780   6.385   2.115
11992TIP3    H135933   4.790   6.399   2.209
11992TIP3    H235934   4.858   6.336   2.090
11993TIP3   OH235935   1.112   6.047   6.163
11993TIP3    H135936   1.074   6.134   6.167
11993TIP3    H235937   1.206   6.060   6.177
11994TIP3   OH235938   6.317   5.288   4.191
11994TIP3    H135939   6.252   5.336   4.242
11994TIP3    H235940   6.268   5.255   4.115
11995TIP3   OH235941   2.481   4.265   6.219
11995TIP3    H135942   2.576   4.276   6.221
11995TIP3    H235943   2.448   4.337   6.273
11996TIP3   OH235944   6.293   6.005   3.827
11996TIP3    H135945   6.252   5.919   3.831
11996TIP3    H235946   6.371   5.997   3.883
11997TIP3   OH235947   6.160   6.283   0.901
11997TIP3    H135948   6.092   6.292   0.834
11997TIP3    H235949   6.165   6.369   0.942
11998TIP3   OH235950   1.360   6.568   0.113
11998TIP3    H135951   1.452   6.552   0.135
11998TIP3    H235952   1.343   6.513   0.036
11999TIP3   OH235953   5.975   0.800   2.655
11999TIP3    H135954   6.053   0.815   2.602
11999TIP3    H235955   5.963   0.705   2.654
12000TIP3   OH235956   5.441   6.575   0.217
12000TIP3    H135957   5.428   6.482   0.237
12000TIP3    H235958   5.532   6.581   0.188
12001TIP3   OH235959   2.744   5.398   0.603
12001TIP3    H135960   2.698   5.454   0.541
12001TIP3    H235961   2.676   5.367   0.663
12002TIP3   OH235962   6.409   6.767   5.516
12002TIP3    H135963   6.337   6.744   5.574
12002TIP3    H235964   6.461   6.687   5.509
12003TIP3   OH235965   0.644   3.235   4.853
12003TIP3    H135966   0.632   3.185   4.934
12003TIP3    H235967   0.572   3.297   4.852
12004TIP3   OH235968   2.784   4.736   4.203
12004TIP3    H135969   2.825   4.710   4.286
12004TIP3    H235970   2.853   4.724   4.138
12005TIP3   OH235971   8.201   1.247   3.097
12005TIP3    H135972   8.221   1.193   3.020
12005TIP3    H235973   8.278   1.236   3.154
12006TIP3   OH235974   3.575   1.281   2.523
12006TIP3    H135975   3.605   1.258   2.610
12006TIP3    H235976   3.609   1.212   2.466
12007TIP3   OH235977   5.972   1.938   5.159
12007TIP3    H135978   5.989   1.885   5.237
12007TIP3    H235979   6.027   2.015   5.170
12008TIP3   OH235980   7.814   5.145   4.404
12008TIP3    H135981   7.831   5.145   4.498
12008TIP3    H235982   7.772   5.060   4.387
12009TIP3   OH235983   4.697   5.935   1.318
12009TIP3    H135984   4.755   6.011   1.313
12009TIP3    H235985   4.653   5.945   1.403
12010TIP3   OH235986   1.059   7.423   4.461
12010TIP3    H135987   1.107   7.447   4.382
12010TIP3    H235988   1.112   7.459   4.533
12011TIP3   OH235989   6.219   1.180   6.401
12011TIP3    H135990   6.237   1.204   6.492
12011TIP3    H235991   6.292   1.124   6.376
12012TIP3   OH235992   0.367   2.936   0.135
12012TIP3    H135993   0.345   2.854   0.091
12012TIP3    H235994   0.285   2.985   0.138
12013TIP3   OH235995   2.961   5.478   1.389
12013TIP3    H135996   3.020   5.538   1.435
12013TIP3    H235997   3.020   5.419   1.343
12014TIP3   OH235998   7.443   0.946   0.090
12014TIP3    H135999   7.393   1.026   0.107
12014TIP3    H236000   7.531   0.976   0.070
12015TIP3   OH236001   7.943   0.615   1.297
12015TIP3    H136002   7.884   0.688   1.280
12015TIP3    H236003   7.886   0.540   1.313
12016TIP3   OH236004   4.121   7.526   2.719
12016TIP3    H136005   4.137   7.468   2.793
12016TIP3    H236006   4.208   7.546   2.685
12017TIP3   OH236007   2.295   6.936   5.459
12017TIP3    H136008   2.329   7.015   5.501
12017TIP3    H236009   2.281   6.962   5.368
12018TIP3   OH236010   3.544   6.899   3.361
12018TIP3    H136011   3.474   6.838   3.383
12018TIP3    H236012   3.603   6.898   3.437
12019TIP3   OH236013   5.529   1.312   1.427
12019TIP3    H136014   5.503   1.316   1.519
12019TIP3    H236015   5.469   1.371   1.382
12020TIP3   OH236016   7.409   0.688   5.871
12020TIP3    H136017   7.411   0.595   5.895
12020TIP3    H236018   7.320   0.716   5.889
12021TIP3   OH236019   2.098   0.462   3.273
12021TIP3    H136020   2.041   0.537   3.290
12021TIP3    H236021   2.067   0.427   3.189
12022TIP3   OH236022   3.342   0.726   0.221
12022TIP3    H136023   3.259   0.700   0.262
12022TIP3    H236024   3.323   0.728   0.127
12023TIP3   OH236025   0.055   3.585   5.235
12023TIP3    H136026   0.087   3.509   5.284
12023TIP3    H236027  -0.015   3.621   5.289
12024TIP3   OH236028   0.310   0.641   1.973
12024TIP3    H136029   0.267   0.723   1.996
12024TIP3    H236030   0.384   0.666   1.917
12025TIP3   OH236031   5.012   1.799   1.088
12025TIP3    H136032   5.009   1.893   1.106
12025TIP3    H236033   4.983   1.758   1.170
12026TIP3   OH236034   5.851   0.396   6.347
12026TIP3    H136035   5.810   0.337   6.283
12026TIP3    H236036   5.928   0.430   6.302
12027TIP3   OH236037   3.835   7.258   6.693
12027TIP3    H136038   3.796   7.228   6.611
12027TIP3    H236039   3.914   7.205   6.702
12028TIP3   OH236040   3.211   3.239   6.146
12028TIP3    H136041   3.294   3.235   6.099
12028TIP3    H236042   3.204   3.330   6.174
12029TIP3   OH236043   0.823   2.382   6.629
12029TIP3    H136044   0.866   2.467   6.626
12029TIP3    H236045   0.890   2.320   6.600
12030TIP3   OH236046   6.772   1.326   1.067
12030TIP3    H136047   6.766   1.398   1.004
12030TIP3    H236048   6.825   1.362   1.139
12031TIP3   OH236049   8.229   5.233   6.395
12031TIP3    H136050   8.315   5.201   6.364
12031TIP3    H236051   8.175   5.234   6.316
12032TIP3   OH236052   6.053   7.855   1.731
12032TIP3    H136053   5.996   7.810   1.793
12032TIP3    H236054   6.128   7.796   1.721
12033TIP3   OH236055   2.977   1.081   0.544
12033TIP3    H136056   2.965   1.004   0.488
12033TIP3    H236057   3.038   1.136   0.496
12034TIP3   OH236058   7.243   0.056   6.526
12034TIP3    H136059   7.252   0.060   6.621
12034TIP3    H236060   7.305   0.121   6.493
12035TIP3   OH236061   0.721   0.248   4.851
12035TIP3    H136062   0.753   0.305   4.781
12035TIP3    H236063   0.706   0.164   4.809
12036TIP3   OH236064   5.036   6.158   4.833
12036TIP3    H136065   4.951   6.131   4.868
12036TIP3    H236066   5.098   6.141   4.904
12037TIP3   OH236067   1.996   7.379   1.358
12037TIP3    H136068   1.980   7.464   1.315
12037TIP3    H236069   2.091   7.367   1.352
12038TIP3   OH236070   6.585   0.064   6.314
12038TIP3    H136071   6.613   0.155   6.307
12038TIP3    H236072   6.653   0.021   6.366
12039TIP3   OH236073   0.871   4.809   5.948
12039TIP3    H136074   0.882   4.714   5.941
12039TIP3    H236075   0.914   4.843   5.869
12040TIP3   OH236076   5.598   1.454   5.180
12040TIP3    H136077   5.517   1.406   5.163
12040TIP3    H236078   5.577   1.545   5.156
12041TIP3   OH236079   2.497   3.101   5.574
12041TIP3    H136080   2.447   3.180   5.551
12041TIP3    H236081   2.588   3.130   5.578
12042TIP3   OH236082   5.237   7.494   5.014
12042TIP3    H136083   5.227   7.472   4.921
12042TIP3    H236084   5.206   7.415   5.060
12043TIP3   OH236085   7.612   1.326   0.879
12043TIP3    H136086   7.584   1.329   0.788
12043TIP3    H236087   7.646   1.414   0.897
12044TIP3   OH236088   6.517   2.909   3.702
12044TIP3    H136089   6.607   2.936   3.721
12044TIP3    H236090   6.474   2.988   3.671
12045TIP3   OH236091   3.659   5.958   0.531
12045TIP3    H136092   3.601   5.997   0.596
12045TIP3    H236093   3.743   5.949   0.575
12046TIP3   OH236094   4.918   4.090   6.716
12046TIP3    H136095   4.947   4.090   6.807
12046TIP3    H236096   4.984   4.038   6.670
12047TIP3   OH236097   3.253   4.637   6.185
12047TIP3    H136098   3.199   4.655   6.108
12047TIP3    H236099   3.327   4.588   6.152
12048TIP3   OH236100   2.697   2.781   4.828
12048TIP3    H136101   2.643   2.704   4.809
12048TIP3    H236102   2.668   2.847   4.766
12049TIP3   OH236103   1.409   2.996   6.378
12049TIP3    H136104   1.448   2.992   6.291
12049TIP3    H236105   1.483   2.990   6.438
12050TIP3   OH236106   8.157   2.500   2.923
12050TIP3    H136107   8.215   2.494   2.999
12050TIP3    H236108   8.207   2.550   2.859
12051TIP3   OH236109   5.651   2.128   4.668
12051TIP3    H136110   5.643   2.223   4.658
12051TIP3    H236111   5.589   2.105   4.738
12052TIP3   OH236112   0.804   7.033   5.017
12052TIP3    H136113   0.844   6.958   5.061
12052TIP3    H236114   0.827   7.022   4.925
12053TIP3   OH236115   5.163   5.320   3.661
12053TIP3    H136116   5.172   5.413   3.682
12053TIP3    H236117   5.098   5.287   3.723
12054TIP3   OH236118   7.345   5.672   3.826
12054TIP3    H136119   7.285   5.725   3.774
12054TIP3    H236120   7.432   5.707   3.807
12055TIP3   OH236121   7.206   6.105   5.661
12055TIP3    H136122   7.121   6.136   5.630
12055TIP3    H236123   7.245   6.064   5.584
12056TIP3   OH236124   7.478   2.733   3.196
12056TIP3    H136125   7.549   2.726   3.133
12056TIP3    H236126   7.515   2.704   3.279
12057TIP3   OH236127   3.171   0.938   2.165
12057TIP3    H136128   3.237   0.917   2.231
12057TIP3    H236129   3.221   0.975   2.093
12058TIP3   OH236130   0.434   3.698   0.863
12058TIP3    H136131   0.465   3.639   0.931
12058TIP3    H236132   0.504   3.698   0.797
12059TIP3   OH236133   7.470   3.011  -0.046
12059TIP3    H136134   7.522   3.027   0.032
12059TIP3    H236135   7.409   2.941  -0.020
12060TIP3   OH236136   2.342   1.284   3.515
12060TIP3    H136137   2.266   1.239   3.553
12060TIP3    H236138   2.331   1.271   3.420
12061TIP3   OH236139   3.674   6.228   1.432
12061TIP3    H136140   3.686   6.297   1.498
12061TIP3    H236141   3.626   6.271   1.361
12062TIP3   OH236142   2.852   1.255   2.857
12062TIP3    H136143   2.805   1.286   2.780
12062TIP3    H236144   2.784   1.244   2.924
12063TIP3   OH236145   4.944   6.237   3.736
12063TIP3    H136146   5.020   6.214   3.682
12063TIP3    H236147   4.941   6.170   3.804
12064TIP3   OH236148   7.865   1.326   5.363
12064TIP3    H136149   7.932   1.314   5.431
12064TIP3    H236150   7.913   1.319   5.281
12065TIP3   OH236151   1.724   0.147   1.082
12065TIP3    H136152   1.652   0.202   1.113
12065TIP3    H236153   1.707   0.061   1.120
12066TIP3   OH236154   7.976   2.502   2.495
12066TIP3    H136155   7.976   2.431   2.560
12066TIP3    H236156   7.885   2.508   2.466
12067TIP3   OH236157   7.300   5.589   4.596
12067TIP3    H136158   7.290   5.602   4.502
12067TIP3    H236159   7.214   5.613   4.632
12068TIP3   OH236160   0.808   2.966   4.792
12068TIP3    H136161   0.751   3.038   4.819
12068TIP3    H236162   0.890   2.982   4.838
12069TIP3   OH236163   6.958   3.787   5.276
12069TIP3    H136164   6.915   3.802   5.361
12069TIP3    H236165   7.037   3.841   5.280
12070TIP3   OH236166   6.944   3.790   1.018
12070TIP3    H136167   6.873   3.839   1.060
12070TIP3    H236168   6.907   3.703   1.002
12071TIP3   OH236169   6.118   3.063   5.779
12071TIP3    H136170   6.203   3.103   5.799
12071TIP3    H236171   6.055   3.117   5.826
12072TIP3   OH236172   5.996   4.966   4.375
12072TIP3    H136173   6.009   4.944   4.283
12072TIP3    H236174   6.080   5.000   4.405
12073TIP3   OH236175   4.036   7.301   5.485
12073TIP3    H136176   4.117   7.328   5.442
12073TIP3    H236177   4.049   7.324   5.577
12074TIP3   OH236178   2.549   0.499   2.127
12074TIP3    H136179   2.483   0.439   2.161
12074TIP3    H236180   2.628   0.479   2.178
12075TIP3   OH236181   3.533   7.344   4.338
12075TIP3    H136182   3.527   7.279   4.267
12075TIP3    H236183   3.602   7.311   4.395
12076TIP3   OH236184   7.341   4.270   1.508
12076TIP3    H136185   7.292   4.241   1.584
12076TIP3    H236186   7.282   4.256   1.434
12077TIP3   OH236187   6.914   5.679   3.138
12077TIP3    H136188   6.836   5.623   3.133
12077TIP3    H236189   6.987   5.620   3.118
12078TIP3   OH236190   7.869   4.309   0.280
12078TIP3    H136191   7.796   4.254   0.248
12078TIP3    H236192   7.826   4.386   0.317
12079TIP3   OH236193   0.343   1.041   6.317
12079TIP3    H136194   0.416   0.982   6.298
12079TIP3    H236195   0.315   1.016   6.406
12080TIP3   OH236196   1.846   4.560   3.326
12080TIP3    H136197   1.784   4.620   3.367
12080TIP3    H236198   1.873   4.501   3.396
12081TIP3   OH236199   2.751   5.572   2.271
12081TIP3    H136200   2.842   5.563   2.297
12081TIP3    H236201   2.738   5.667   2.264
12082TIP3   OH236202   3.662   4.723   3.376
12082TIP3    H136203   3.665   4.790   3.444
12082TIP3    H236204   3.667   4.771   3.294
12083TIP3   OH236205   3.369   1.351   2.330
12083TIP3    H136206   3.327   1.433   2.357
12083TIP3    H236207   3.409   1.317   2.411
12084TIP3   OH236208   2.792   2.076   3.943
12084TIP3    H136209   2.748   1.994   3.919
12084TIP3    H236210   2.773   2.086   4.036
12085TIP3   OH236211   3.987   6.048   1.017
12085TIP3    H136212   3.937   5.993   1.077
12085TIP3    H236213   3.944   6.133   1.019
12086TIP3   OH236214   5.552   6.575   0.484
12086TIP3    H136215   5.565   6.666   0.460
12086TIP3    H236216   5.457   6.562   0.476
12087TIP3   OH236217   5.942   0.326   3.951
12087TIP3    H136218   5.980   0.284   3.873
12087TIP3    H236219   5.912   0.411   3.920
12088TIP3   OH236220   5.793   2.509   2.624
12088TIP3    H136221   5.755   2.430   2.586
12088TIP3    H236222   5.795   2.572   2.551
12089TIP3   OH236223   0.674   3.668   0.701
12089TIP3    H136224   0.760   3.645   0.737
12089TIP3    H236225   0.692   3.737   0.637
12090TIP3   OH236226   2.034   5.484   4.772
12090TIP3    H136227   2.072   5.544   4.708
12090TIP3    H236228   2.101   5.416   4.783
12091TIP3   OH236229   2.518   5.152   3.341
12091TIP3    H136230   2.531   5.091   3.413
12091TIP3    H236231   2.454   5.109   3.284
12092TIP3   OH236232   4.379   7.449   5.858
12092TIP3    H136233   4.335   7.533   5.870
12092TIP3    H236234   4.433   7.438   5.937
12093TIP3   OH236235   7.943   5.251   0.705
12093TIP3    H136236   7.946   5.234   0.611
12093TIP3    H236237   8.034   5.264   0.730
12094TIP3   OH236238   7.961   1.860   1.449
12094TIP3    H136239   7.875   1.872   1.489
12094TIP3    H236240   8.000   1.947   1.447
12095TIP3   OH236241   1.102   6.159   0.508
12095TIP3    H136242   1.151   6.217   0.450
12095TIP3    H236243   1.098   6.076   0.461
12096TIP3   OH236244   0.260   6.720   4.711
12096TIP3    H136245   0.305   6.795   4.671
12096TIP3    H236246   0.233   6.667   4.636
12097TIP3   OH236247   3.675   4.004   3.016
12097TIP3    H136248   3.682   4.096   2.990
12097TIP3    H236249   3.653   3.958   2.935
12098TIP3   OH236250   0.173   2.062   2.156
12098TIP3    H136251   0.078   2.055   2.166
12098TIP3    H236252   0.194   2.152   2.181
12099TIP3   OH236253   0.440   4.759   0.238
12099TIP3    H136254   0.362   4.811   0.253
12099TIP3    H236255   0.407   4.671   0.220
12100TIP3   OH236256   4.065   7.015   0.406
12100TIP3    H136257   3.982   7.037   0.449
12100TIP3    H236258   4.051   7.038   0.314
12101TIP3   OH236259   6.728   0.140   3.091
12101TIP3    H136260   6.796   0.157   3.156
12101TIP3    H236261   6.774   0.104   3.016
12102TIP3   OH236262   7.862   1.902   2.168
12102TIP3    H136263   7.813   1.980   2.140
12102TIP3    H236264   7.893   1.923   2.256
12103TIP3   OH236265   4.200   6.773   0.229
12103TIP3    H136266   4.260   6.778   0.155
12103TIP3    H236267   4.139   6.704   0.206
12104TIP3   OH236268   3.444   5.394   5.769
12104TIP3    H136269   3.448   5.351   5.684
12104TIP3    H236270   3.505   5.467   5.762
12105TIP3   OH236271   6.990   4.163   0.587
12105TIP3    H136272   7.069   4.186   0.538
12105TIP3    H236273   6.937   4.243   0.587
12106TIP3   OH236274   3.420   2.722   0.090
12106TIP3    H136275   3.396   2.631   0.074
12106TIP3    H236276   3.356   2.753   0.155
12107TIP3   OH236277   7.472   6.172   3.675
12107TIP3    H136278   7.411   6.179   3.748
12107TIP3    H236279   7.509   6.260   3.667
12108TIP3   OH236280   2.288   1.234   1.670
12108TIP3    H136281   2.276   1.152   1.718
12108TIP3    H236282   2.218   1.291   1.703
12109TIP3   OH236283   2.740   7.047   0.603
12109TIP3    H136284   2.765   7.139   0.601
12109TIP3    H236285   2.653   7.046   0.643
12110TIP3   OH236286   4.700   1.621   0.536
12110TIP3    H136287   4.791   1.633   0.565
12110TIP3    H236288   4.648   1.636   0.614
12111TIP3   OH236289   5.819   5.084   3.451
12111TIP3    H136290   5.833   5.105   3.359
12111TIP3    H236291   5.727   5.103   3.467
12112TIP3   OH236292   0.633   3.898   4.571
12112TIP3    H136293   0.657   3.980   4.614
12112TIP3    H236294   0.585   3.849   4.638
12113TIP3   OH236295   5.816   6.247   4.995
12113TIP3    H136296   5.872   6.295   5.056
12113TIP3    H236297   5.766   6.315   4.949
12114TIP3   OH236298   4.790   6.512   2.567
12114TIP3    H136299   4.724   6.568   2.608
12114TIP3    H236300   4.746   6.428   2.555
12115TIP3   OH236301   6.813   7.045   1.086
12115TIP3    H136302   6.744   7.071   1.148
12115TIP3    H236303   6.780   7.075   1.001
12116TIP3   OH236304   6.269   4.884   0.053
12116TIP3    H136305   6.246   4.899   0.145
12116TIP3    H236306   6.333   4.813   0.055
12117TIP3   OH236307   0.710   7.325   2.748
12117TIP3    H136308   0.683   7.403   2.796
12117TIP3    H236309   0.649   7.257   2.778
12118TIP3   OH236310   3.062   1.898   6.279
12118TIP3    H136311   3.139   1.873   6.228
12118TIP3    H236312   3.049   1.991   6.260
12119TIP3   OH236313   6.870   7.050   0.480
12119TIP3    H136314   6.850   7.137   0.446
12119TIP3    H236315   6.819   6.990   0.425
12120TIP3   OH236316   4.141   5.791   5.453
12120TIP3    H136317   4.123   5.877   5.416
12120TIP3    H236318   4.078   5.733   5.409
12121TIP3   OH236319   1.895   1.710   0.239
12121TIP3    H136320   1.963   1.762   0.283
12121TIP3    H236321   1.912   1.723   0.146
12122TIP3   OH236322   2.591   0.783   5.836
12122TIP3    H136323   2.507   0.827   5.822
12122TIP3    H236324   2.604   0.729   5.758
12123TIP3   OH236325   6.138   1.208   1.378
12123TIP3    H136326   6.083   1.188   1.454
12123TIP3    H236327   6.198   1.134   1.372
12124TIP3   OH236328   0.735   3.428   3.638
12124TIP3    H136329   0.675   3.452   3.567
12124TIP3    H236330   0.690   3.457   3.717
12125TIP3   OH236331   6.024   0.684  -0.016
12125TIP3    H136332   6.039   0.592   0.005
12125TIP3    H236333   5.984   0.720   0.063
12126TIP3   OH236334   5.675   1.668   1.635
12126TIP3    H136335   5.768   1.690   1.645
12126TIP3    H236336   5.648   1.636   1.722
12127TIP3   OH236337   0.424   4.295   1.341
12127TIP3    H136338   0.509   4.281   1.298
12127TIP3    H236339   0.362   4.305   1.268
12128TIP3   OH236340   3.205   5.526   5.853
12128TIP3    H136341   3.286   5.485   5.822
12128TIP3    H236342   3.225   5.620   5.853
12129TIP3   OH236343   5.264   5.980   3.830
12129TIP3    H136344   5.212   5.900   3.838
12129TIP3    H236345   5.268   6.014   3.920
12130TIP3   OH236346   6.347   6.546   3.622
12130TIP3    H136347   6.311   6.595   3.549
12130TIP3    H236348   6.439   6.534   3.600
12131TIP3   OH236349   4.147   5.261   6.668
12131TIP3    H136350   4.176   5.348   6.641
12131TIP3    H236351   4.099   5.227   6.592
12132TIP3   OH236352   2.011   7.535   4.477
12132TIP3    H136353   2.097   7.494   4.465
12132TIP3    H236354   2.010   7.608   4.415
12133TIP3   OH236355   7.740   7.148   2.552
12133TIP3    H136356   7.657   7.134   2.506
12133TIP3    H236357   7.724   7.113   2.640
12134TIP3   OH236358   8.179   3.157   4.728
12134TIP3    H136359   8.166   3.175   4.635
12134TIP3    H236360   8.120   3.083   4.746
12135TIP3   OH236361   4.466   7.507   5.180
12135TIP3    H136362   4.545   7.454   5.168
12135TIP3    H236363   4.498   7.588   5.221
12136TIP3   OH236364   6.320   7.352   4.980
12136TIP3    H136365   6.284   7.438   4.957
12136TIP3    H236366   6.342   7.359   5.072
12137TIP3   OH236367   0.127   7.594   2.777
12137TIP3    H136368   0.216   7.570   2.805
12137TIP3    H236369   0.122   7.688   2.791
12138TIP3   OH236370   6.089   7.404   6.350
12138TIP3    H136371   6.146   7.356   6.410
12138TIP3    H236372   6.116   7.374   6.263
12139TIP3   OH236373   6.742   6.650   6.566
12139TIP3    H136374   6.725   6.598   6.644
12139TIP3    H236375   6.778   6.588   6.503
12140TIP3   OH236376   3.642   7.713   6.442
12140TIP3    H136377   3.608   7.757   6.520
12140TIP3    H236378   3.695   7.780   6.398
12141TIP3   OH236379   1.482   2.602   0.731
12141TIP3    H136380   1.429   2.604   0.651
12141TIP3    H236381   1.572   2.610   0.701
12142TIP3   OH236382   1.215   6.002   1.127
12142TIP3    H136383   1.169   6.059   1.188
12142TIP3    H236384   1.166   6.011   1.045
12143TIP3   OH236385   2.288   5.628   6.009
12143TIP3    H136386   2.307   5.551   6.064
12143TIP3    H236387   2.344   5.697   6.045
12144TIP3   OH236388   2.307   7.606   0.369
12144TIP3    H136389   2.343   7.543   0.307
12144TIP3    H236390   2.306   7.559   0.453
12145TIP3   OH236391   5.102   3.331   2.377
12145TIP3    H136392   5.044   3.393   2.332
12145TIP3    H236393   5.182   3.381   2.393
12146TIP3   OH236394   2.294   1.342   2.005
12146TIP3    H136395   2.380   1.375   1.978
12146TIP3    H236396   2.315   1.266   2.059
12147TIP3   OH236397   5.357   0.104   2.700
12147TIP3    H136398   5.321   0.120   2.613
12147TIP3    H236399   5.450   0.127   2.692
12148TIP3   OH236400   4.430   5.902   4.308
12148TIP3    H136401   4.408   5.860   4.392
12148TIP3    H236402   4.345   5.921   4.268
12149TIP3   OH236403   1.673   6.722   2.485
12149TIP3    H136404   1.620   6.784   2.435
12149TIP3    H236405   1.611   6.681   2.545
12150TIP3   OH236406   4.998   5.507   3.910
12150TIP3    H136407   4.930   5.480   3.971
12150TIP3    H236408   5.079   5.505   3.962
12151TIP3   OH236409   3.873   1.792   1.913
12151TIP3    H136410   3.881   1.771   1.820
12151TIP3    H236411   3.963   1.791   1.946
12152TIP3   OH236412   0.630   1.746   1.883
12152TIP3    H136413   0.572   1.733   1.808
12152TIP3    H236414   0.588   1.815   1.935
12153TIP3   OH236415   6.621   4.955   6.431
12153TIP3    H136416   6.631   5.047   6.406
12153TIP3    H236417   6.550   4.955   6.495
12154TIP3   OH236418   3.591   0.415   0.631
12154TIP3    H136419   3.539   0.395   0.709
12154TIP3    H236420   3.681   0.425   0.665
12155TIP3   OH236421   7.989   7.798   3.391
12155TIP3    H136422   8.038   7.829   3.468
12155TIP3    H236423   7.945   7.718   3.422
12156TIP3   OH236424   2.172   0.618   1.932
12156TIP3    H136425   2.113   0.559   1.886
12156TIP3    H236426   2.190   0.688   1.869
12157TIP3   OH236427   0.893   4.217   5.165
12157TIP3    H136428   0.854   4.303   5.183
12157TIP3    H236429   0.819   4.159   5.151
12158TIP3   OH236430   2.610   0.542   0.270
12158TIP3    H136431   2.572   0.628   0.259
12158TIP3    H236432   2.540   0.488   0.306
12159TIP3   OH236433   8.226   6.731   3.110
12159TIP3    H136434   8.136   6.758   3.092
12159TIP3    H236435   8.233   6.732   3.205
12160TIP3   OH236436   8.012   6.078   0.156
12160TIP3    H136437   8.069   6.126   0.096
12160TIP3    H236438   7.928   6.123   0.151
12161TIP3   OH236439   6.760   1.203   4.399
12161TIP3    H136440   6.834   1.149   4.424
12161TIP3    H236441   6.794   1.260   4.330
12162TIP3   OH236442   7.628   2.372   4.307
12162TIP3    H136443   7.639   2.366   4.212
12162TIP3    H236444   7.538   2.402   4.319
12163TIP3   OH236445   4.141   7.425   5.726
12163TIP3    H136446   4.228   7.386   5.736
12163TIP3    H236447   4.157   7.520   5.726
12164TIP3   OH236448   6.517   1.583   5.045
12164TIP3    H136449   6.538   1.491   5.031
12164TIP3    H236450   6.591   1.631   5.008
12165TIP3   OH236451   4.997   0.320   1.916
12165TIP3    H136452   4.971   0.329   2.008
12165TIP3    H236453   5.072   0.260   1.918
12166TIP3   OH236454   1.373   4.036   1.166
12166TIP3    H136455   1.454   4.008   1.123
12166TIP3    H236456   1.403   4.079   1.246
12167TIP3   OH236457   5.532   1.127   3.072
12167TIP3    H136458   5.494   1.039   3.072
12167TIP3    H236459   5.492   1.170   3.149
12168TIP3   OH236460   2.049   4.442   2.651
12168TIP3    H136461   2.077   4.438   2.742
12168TIP3    H236462   1.966   4.489   2.654
12169TIP3   OH236463   1.796   3.859   3.995
12169TIP3    H136464   1.785   3.911   4.075
12169TIP3    H236465   1.721   3.800   3.994
12170TIP3   OH236466   3.868   2.030   5.348
12170TIP3    H136467   3.937   2.052   5.285
12170TIP3    H236468   3.802   1.985   5.296
12171TIP3   OH236469   3.937   3.415   4.620
12171TIP3    H136470   3.924   3.440   4.711
12171TIP3    H236471   4.028   3.384   4.616
12172TIP3   OH236472   1.149   5.442   1.500
12172TIP3    H136473   1.239   5.413   1.495
12172TIP3    H236474   1.100   5.381   1.446
12173TIP3   OH236475   5.790   4.300   4.005
12173TIP3    H136476   5.830   4.214   4.011
12173TIP3    H236477   5.855   4.360   4.040
12174TIP3   OH236478   2.042   0.398   4.415
12174TIP3    H136479   2.013   0.429   4.501
12174TIP3    H236480   2.010   0.464   4.353
12175TIP3   OH236481   6.560   5.591   2.265
12175TIP3    H136482   6.496   5.662   2.268
12175TIP3    H236483   6.577   5.570   2.357
12176TIP3   OH236484   0.494   1.864   0.609
12176TIP3    H136485   0.550   1.918   0.554
12176TIP3    H236486   0.407   1.904   0.601
12177TIP3   OH236487   7.588   2.912   1.058
12177TIP3    H136488   7.508   2.877   1.096
12177TIP3    H236489   7.656   2.848   1.080
12178TIP3   OH236490   5.745   3.578   1.225
12178TIP3    H136491   5.734   3.661   1.271
12178TIP3    H236492   5.681   3.520   1.266
12179TIP3   OH236493   4.877   0.364   2.203
12179TIP3    H136494   4.881   0.439   2.262
12179TIP3    H236495   4.860   0.289   2.260
12180TIP3   OH236496   7.513   4.609   0.519
12180TIP3    H136497   7.516   4.587   0.612
12180TIP3    H236498   7.457   4.687   0.514
12181TIP3   OH236499   7.050   6.673   6.618
12181TIP3    H136500   7.086   6.685   6.530
12181TIP3    H236501   6.980   6.737   6.625
12182TIP3   OH236502   7.917   6.766   1.837
12182TIP3    H136503   7.911   6.797   1.747
12182TIP3    H236504   7.831   6.727   1.854
12183TIP3   OH236505   1.670   1.875   4.413
12183TIP3    H136506   1.743   1.936   4.426
12183TIP3    H236507   1.668   1.859   4.319
12184TIP3   OH236508   2.608   2.007   5.797
12184TIP3    H136509   2.530   1.962   5.764
12184TIP3    H236510   2.633   1.957   5.875
12185TIP3   OH236511   2.686   7.195   6.369
12185TIP3    H136512   2.763   7.164   6.321
12185TIP3    H236513   2.717   7.211   6.458
12186TIP3   OH236514   1.804   4.886   3.790
12186TIP3    H136515   1.883   4.932   3.760
12186TIP3    H236516   1.813   4.883   3.885
12187TIP3   OH236517   8.059   3.785   3.808
12187TIP3    H136518   8.039   3.789   3.714
12187TIP3    H236519   8.057   3.876   3.837
12188TIP3   OH236520   3.345   4.277   4.537
12188TIP3    H136521   3.359   4.196   4.488
12188TIP3    H236522   3.332   4.344   4.470
12189TIP3   OH236523   7.321   7.645   6.579
12189TIP3    H136524   7.402   7.606   6.545
12189TIP3    H236525   7.280   7.575   6.630
12190TIP3   OH236526   1.777   7.241   1.424
12190TIP3    H136527   1.812   7.161   1.463
12190TIP3    H236528   1.852   7.282   1.381
12191TIP3   OH236529   4.453   2.890   5.868
12191TIP3    H136530   4.454   2.950   5.793
12191TIP3    H236531   4.360   2.870   5.880
12192TIP3   OH236532   3.791   4.918   4.209
12192TIP3    H136533   3.729   4.856   4.248
12192TIP3    H236534   3.865   4.920   4.270
12193TIP3   OH236535   3.829   6.287   1.824
12193TIP3    H136536   3.899   6.329   1.875
12193TIP3    H236537   3.752   6.292   1.880
12194TIP3   OH236538   2.869   0.368   5.350
12194TIP3    H136539   2.807   0.357   5.277
12194TIP3    H236540   2.847   0.298   5.411
12195TIP3   OH236541   5.249   2.021   6.327
12195TIP3    H136542   5.332   1.980   6.353
12195TIP3    H236543   5.216   1.965   6.257
12196TIP3   OH236544   7.912   0.022   4.139
12196TIP3    H136545   7.899  -0.004   4.048
12196TIP3    H236546   7.982   0.088   4.135
12197TIP3   OH236547   7.551   3.976   1.206
12197TIP3    H136548   7.462   3.960   1.234
12197TIP3    H236549   7.597   4.004   1.285
12198TIP3   OH236550   5.202   4.577   1.733
12198TIP3    H136551   5.137   4.608   1.796
12198TIP3    H236552   5.272   4.641   1.737
12199TIP3   OH236553   2.406   0.471   5.529
12199TIP3    H136554   2.470   0.421   5.478
12199TIP3    H236555   2.343   0.502   5.464
12200TIP3   OH236556   2.028   4.876   0.742
12200TIP3    H136557   2.082   4.953   0.725
12200TIP3    H236558   2.047   4.818   0.669
12201TIP3   OH236559   6.448   3.267   0.873
12201TIP3    H136560   6.420   3.178   0.895
12201TIP3    H236561   6.402   3.323   0.936
12202TIP3   OH236562   2.869   2.294   2.768
12202TIP3    H136563   2.908   2.208   2.751
12202TIP3    H236564   2.798   2.301   2.704
12203TIP3   OH236565   4.099   2.486   6.499
12203TIP3    H136566   4.044   2.433   6.556
12203TIP3    H236567   4.134   2.424   6.435
12204TIP3   OH236568   4.921   1.679   1.311
12204TIP3    H136569   4.841   1.730   1.315
12204TIP3    H236570   4.940   1.657   1.402
12205TIP3   OH236571   5.691   2.705   1.450
12205TIP3    H136572   5.693   2.801   1.447
12205TIP3    H236573   5.611   2.681   1.404
12206TIP3   OH236574   6.730   2.410   2.677
12206TIP3    H136575   6.676   2.486   2.699
12206TIP3    H236576   6.699   2.341   2.735
12207TIP3   OH236577   7.544   1.893   1.252
12207TIP3    H136578   7.507   1.909   1.339
12207TIP3    H236579   7.600   1.968   1.235
12208TIP3   OH236580   3.256   1.947   3.787
12208TIP3    H136581   3.280   1.889   3.860
12208TIP3    H236582   3.206   2.018   3.828
12209TIP3   OH236583   1.547   7.314   1.275
12209TIP3    H136584   1.583   7.400   1.251
12209TIP3    H236585   1.610   7.278   1.336
12210TIP3   OH236586   6.065   6.762   1.736
12210TIP3    H136587   6.025   6.686   1.693
12210TIP3    H236588   5.995   6.796   1.793
12211TIP3   OH236589   4.513   4.017   4.697
12211TIP3    H136590   4.466   3.934   4.692
12211TIP3    H236591   4.449   4.078   4.736
12212TIP3   OH236592   1.738   4.680   6.250
12212TIP3    H136593   1.643   4.693   6.247
12212TIP3    H236594   1.754   4.636   6.333
12213TIP3   OH236595   1.920   0.402   0.708
12213TIP3    H136596   1.855   0.387   0.776
12213TIP3    H236597   1.870   0.410   0.627
12214TIP3   OH236598   7.579   2.403   3.090
12214TIP3    H136599   7.632   2.381   3.166
12214TIP3    H236600   7.605   2.493   3.068
12215TIP3   OH236601   4.343   3.025   4.047
12215TIP3    H136602   4.257   3.045   4.011
12215TIP3    H236603   4.332   3.033   4.142
12216TIP3   OH236604   2.931   7.079   0.083
12216TIP3    H136605   2.867   7.146   0.105
12216TIP3    H236606   2.980   7.116   0.009
12217TIP3   OH236607   0.874   0.289   5.089
12217TIP3    H136608   0.834   0.369   5.124
12217TIP3    H236609   0.825   0.271   5.009
12218TIP3   OH236610   6.658   7.608   3.022
12218TIP3    H136611   6.701   7.524   3.033
12218TIP3    H236612   6.581   7.589   2.968
12219TIP3   OH236613   7.022   5.020   2.034
12219TIP3    H136614   7.115   5.014   2.056
12219TIP3    H236615   7.016   5.090   1.970
12220TIP3   OH236616   4.542   2.760   3.438
12220TIP3    H136617   4.631   2.789   3.459
12220TIP3    H236618   4.487   2.805   3.503
12221TIP3   OH236619   3.227   4.568   1.394
12221TIP3    H136620   3.185   4.527   1.319
12221TIP3    H236621   3.317   4.537   1.391
12222TIP3   OH236622   7.898   7.614   5.957
12222TIP3    H136623   7.862   7.565   6.030
12222TIP3    H236624   7.993   7.614   5.971
12223TIP3   OH236625   3.893   7.551   1.057
12223TIP3    H136626   3.892   7.623   1.121
12223TIP3    H236627   3.892   7.594   0.972
12224TIP3   OH236628   0.520   1.591   4.029
12224TIP3    H136629   0.556   1.650   4.095
12224TIP3    H236630   0.591   1.581   3.966
12225TIP3   OH236631   2.758   7.017   2.325
12225TIP3    H136632   2.841   6.994   2.284
12225TIP3    H236633   2.771   7.105   2.358
12226TIP3   OH236634   3.478   3.981   0.443
12226TIP3    H136635   3.442   4.043   0.506
12226TIP3    H236636   3.440   4.006   0.359
12227TIP3   OH236637   4.698   6.024   5.899
12227TIP3    H136638   4.612   6.013   5.859
12227TIP3    H236639   4.682   6.021   5.993
12228TIP3   OH236640   1.830   2.015   0.375
12228TIP3    H136641   1.751   2.003   0.429
12228TIP3    H236642   1.804   1.986   0.288
12229TIP3   OH236643   4.134   1.511   3.753
12229TIP3    H136644   4.159   1.443   3.815
12229TIP3    H236645   4.051   1.481   3.716
12230TIP3   OH236646   3.900   0.743   0.064
12230TIP3    H136647   3.855   0.743   0.148
12230TIP3    H236648   3.896   0.834   0.035
12231TIP3   OH236649   0.641   5.943   4.700
12231TIP3    H136650   0.581   5.916   4.630
12231TIP3    H236651   0.726   5.907   4.674
12232TIP3   OH236652   2.195   6.513   1.021
12232TIP3    H136653   2.175   6.421   1.040
12232TIP3    H236654   2.117   6.561   1.048
12233TIP3   OH236655   7.528   5.608   2.002
12233TIP3    H136656   7.488   5.681   1.955
12233TIP3    H236657   7.517   5.631   2.095
12234TIP3   OH236658   0.245   5.089   4.967
12234TIP3    H136659   0.319   5.101   4.907
12234TIP3    H236660   0.238   4.994   4.978
12235TIP3   OH236661   5.734   4.840   2.903
12235TIP3    H136662   5.702   4.753   2.878
12235TIP3    H236663   5.805   4.858   2.840
12236TIP3   OH236664   6.405   0.985   1.936
12236TIP3    H136665   6.401   1.042   2.013
12236TIP3    H236666   6.378   0.899   1.969
12237TIP3   OH236667   8.123   7.591   1.801
12237TIP3    H136668   8.175   7.619   1.726
12237TIP3    H236669   8.105   7.498   1.784
12238TIP3   OH236670   0.625   1.188   1.603
12238TIP3    H136671   0.634   1.134   1.525
12238TIP3    H236672   0.705   1.172   1.654
12239TIP3   OH236673   4.228   2.084   1.021
12239TIP3    H136674   4.280   2.104   0.943
12239TIP3    H236675   4.172   2.161   1.033
12240TIP3   OH236676   1.239   1.679   3.821
12240TIP3    H136677   1.253   1.585   3.833
12240TIP3    H236678   1.207   1.688   3.731
12241TIP3   OH236679   7.485   5.135   2.518
12241TIP3    H136680   7.573   5.121   2.553
12241TIP3    H236681   7.483   5.084   2.437
12242TIP3   OH236682   0.563   2.601   5.643
12242TIP3    H136683   0.618   2.675   5.668
12242TIP3    H236684   0.479   2.641   5.621
12243TIP3   OH236685   1.915   2.079   5.845
12243TIP3    H136686   1.853   2.025   5.796
12243TIP3    H236687   2.001   2.050   5.814
12244TIP3   OH236688   1.026   2.630   4.712
12244TIP3    H136689   1.040   2.701   4.649
12244TIP3    H236690   1.095   2.643   4.777
12245TIP3   OH236691   4.383   0.962   4.184
12245TIP3    H136692   4.356   0.875   4.153
12245TIP3    H236693   4.461   0.982   4.133
12246TIP3   OH236694   0.330   2.877   2.005
12246TIP3    H136695   0.369   2.959   2.034
12246TIP3    H236696   0.247   2.872   2.054
12247TIP3   OH236697   4.528   6.332   2.838
12247TIP3    H136698   4.611   6.297   2.806
12247TIP3    H236699   4.516   6.293   2.925
12248TIP3   OH236700   2.186   0.174   4.710
12248TIP3    H136701   2.175   0.267   4.691
12248TIP3    H236702   2.098   0.137   4.698
12249TIP3   OH236703   4.415   4.837   3.814
12249TIP3    H136704   4.511   4.828   3.813
12249TIP3    H236705   4.395   4.883   3.733
12250TIP3   OH236706   2.325   6.064   0.634
12250TIP3    H136707   2.354   6.113   0.711
12250TIP3    H236708   2.283   6.129   0.578
12251TIP3   OH236709   1.529   7.386   5.330
12251TIP3    H136710   1.529   7.445   5.406
12251TIP3    H236711   1.438   7.358   5.323
12252TIP3   OH236712   2.018   2.431   1.693
12252TIP3    H136713   1.996   2.349   1.648
12252TIP3    H236714   1.985   2.419   1.782
12253TIP3   OH236715   0.196   1.583   5.319
12253TIP3    H136716   0.208   1.652   5.254
12253TIP3    H236717   0.262   1.603   5.386
12254TIP3   OH236718   2.370   2.102   5.034
12254TIP3    H136719   2.330   2.164   5.095
12254TIP3    H236720   2.440   2.152   4.992
12255TIP3   OH236721   5.486   0.081   5.480
12255TIP3    H136722   5.457   0.171   5.495
12255TIP3    H236723   5.427   0.027   5.532
12256TIP3   OH236724   4.477   6.939   3.461
12256TIP3    H136725   4.456   6.921   3.553
12256TIP3    H236726   4.446   6.862   3.414
12257TIP3   OH236727   2.062   7.301   3.251
12257TIP3    H136728   1.990   7.272   3.195
12257TIP3    H236729   2.089   7.385   3.213
12258TIP3   OH236730   1.215   2.113   2.828
12258TIP3    H136731   1.214   2.208   2.832
12258TIP3    H236732   1.124   2.087   2.841
12259TIP3   OH236733   7.364   6.660   3.772
12259TIP3    H136734   7.435   6.667   3.836
12259TIP3    H236735   7.409   6.639   3.690
12260TIP3   OH236736   5.578   6.226   0.250
12260TIP3    H136737   5.639   6.279   0.303
12260TIP3    H236738   5.624   6.144   0.236
12261TIP3   OH236739   3.912   1.349   1.703
12261TIP3    H136740   3.848   1.415   1.731
12261TIP3    H236741   3.910   1.353   1.608
12262TIP3   OH236742   6.737   1.593   2.237
12262TIP3    H136743   6.659   1.648   2.237
12262TIP3    H236744   6.809   1.653   2.217
12263TIP3   OH236745   4.283   4.715   3.103
12263TIP3    H136746   4.253   4.744   3.189
12263TIP3    H236747   4.377   4.734   3.103
12264TIP3   OH236748   3.428   7.515   3.697
12264TIP3    H136749   3.401   7.585   3.638
12264TIP3    H236750   3.433   7.558   3.783
12265TIP3   OH236751   5.849   2.103   0.913
12265TIP3    H136752   5.943   2.089   0.911
12265TIP3    H236753   5.830   2.134   1.001
12266TIP3   OH236754   1.506   4.188   4.653
12266TIP3    H136755   1.568   4.243   4.701
12266TIP3    H236756   1.543   4.100   4.656
12267TIP3   OH236757   7.780   1.588   2.730
12267TIP3    H136758   7.699   1.536   2.727
12267TIP3    H236759   7.796   1.614   2.639
12268TIP3   OH236760   3.251   5.804   3.478
12268TIP3    H136761   3.255   5.896   3.502
12268TIP3    H236762   3.168   5.772   3.513
12269TIP3   OH236763   7.589   2.923   2.162
12269TIP3    H136764   7.638   2.887   2.088
12269TIP3    H236765   7.510   2.960   2.122
12270TIP3   OH236766   7.600   2.776   3.779
12270TIP3    H136767   7.675   2.793   3.722
12270TIP3    H236768   7.623   2.695   3.824
12271TIP3   OH236769   0.993   4.312   5.752
12271TIP3    H136770   1.059   4.365   5.707
12271TIP3    H236771   1.041   4.236   5.784
12272TIP3   OH236772   2.341   3.361   2.285
12272TIP3    H136773   2.294   3.434   2.325
12272TIP3    H236774   2.419   3.401   2.246
12273TIP3   OH236775   3.801   5.131   5.860
12273TIP3    H136776   3.846   5.055   5.824
12273TIP3    H236777   3.743   5.096   5.928
12274TIP3   OH236778   5.962   3.853   0.649
12274TIP3    H136779   5.890   3.890   0.598
12274TIP3    H236780   6.023   3.818   0.584
12275TIP3   OH236781   0.928   6.803   2.064
12275TIP3    H136782   0.980   6.814   1.985
12275TIP3    H236783   0.925   6.891   2.103
12276TIP3   OH236784   2.939   3.964   1.722
12276TIP3    H136785   2.977   3.938   1.639
12276TIP3    H236786   2.947   3.887   1.779
12277TIP3   OH236787   7.487   4.903   4.609
12277TIP3    H136788   7.495   4.995   4.586
12277TIP3    H236789   7.519   4.856   4.532
12278TIP3   OH236790   6.698   7.737   0.169
12278TIP3    H136791   6.612   7.751   0.130
12278TIP3    H236792   6.688   7.659   0.223
12279TIP3   OH236793   0.413   0.529   5.311
12279TIP3    H136794   0.337   0.491   5.355
12279TIP3    H236795   0.468   0.562   5.382
12280TIP3   OH236796   1.758   2.260   4.245
12280TIP3    H136797   1.783   2.281   4.155
12280TIP3    H236798   1.774   2.341   4.294
12281TIP3   OH236799   2.371   3.248   0.819
12281TIP3    H136800   2.325   3.258   0.736
12281TIP3    H236801   2.454   3.205   0.796
12282TIP3   OH236802   2.494   0.467   4.572
12282TIP3    H136803   2.589   0.479   4.573
12282TIP3    H236804   2.470   0.471   4.480
12283TIP3   OH236805   7.813   4.653   6.170
12283TIP3    H136806   7.862   4.619   6.095
12283TIP3    H236807   7.734   4.691   6.132
12284TIP3   OH236808   3.992   3.005   4.207
12284TIP3    H136809   4.012   2.979   4.296
12284TIP3    H236810   3.915   2.953   4.184
12285TIP3   OH236811   4.924   0.270   3.656
12285TIP3    H136812   4.895   0.341   3.599
12285TIP3    H236813   5.015   0.253   3.629
12286TIP3   OH236814   0.036   0.706   6.168
12286TIP3    H136815   0.046   0.685   6.261
12286TIP3    H236816   0.017   0.622   6.127
12287TIP3   OH236817   8.071   1.519   0.629
12287TIP3    H136818   8.120   1.437   0.633
12287TIP3    H236819   8.091   1.555   0.542
12288TIP3   OH236820   5.050   5.085   6.198
12288TIP3    H136821   5.004   5.166   6.221
12288TIP3    H236822   4.987   5.016   6.216
12289TIP3   OH236823   1.038   2.248   1.298
12289TIP3    H136824   1.036   2.299   1.379
12289TIP3    H236825   1.121   2.272   1.257
12290TIP3   OH236826   5.807   3.719   0.039
12290TIP3    H136827   5.805   3.623   0.036
12290TIP3    H236828   5.715   3.745   0.033
12291TIP3   OH236829   7.235   5.350   5.893
12291TIP3    H136830   7.312   5.297   5.873
12291TIP3    H236831   7.171   5.288   5.927
12292TIP3   OH236832   7.555   0.953   5.664
12292TIP3    H136833   7.521   1.029   5.617
12292TIP3    H236834   7.634   0.929   5.617
12293TIP3   OH236835   7.223   5.853   2.160
12293TIP3    H136836   7.209   5.837   2.253
12293TIP3    H236837   7.166   5.791   2.115
12294TIP3   OH236838   6.526   3.641   0.690
12294TIP3    H136839   6.524   3.547   0.672
12294TIP3    H236840   6.615   3.658   0.719
12295TIP3   OH236841   7.968   5.818   5.348
12295TIP3    H136842   8.054   5.778   5.333
12295TIP3    H236843   7.907   5.744   5.349
12296TIP3   OH236844   4.597   5.685   3.078
12296TIP3    H136845   4.514   5.729   3.059
12296TIP3    H236846   4.639   5.675   2.993
12297TIP3   OH236847   3.020   1.141   2.651
12297TIP3    H136848   2.978   1.153   2.736
12297TIP3    H236849   3.048   1.229   2.625
12298TIP3   OH236850   3.938   0.986   3.505
12298TIP3    H136851   3.954   1.078   3.527
12298TIP3    H236852   3.935   0.941   3.589
12299TIP3   OH236853   3.864   1.287   4.623
12299TIP3    H136854   3.817   1.369   4.631
12299TIP3    H236855   3.817   1.226   4.680
12300TIP3   OH236856   4.738   1.030   2.569
12300TIP3    H136857   4.760   1.047   2.661
12300TIP3    H236858   4.820   0.999   2.531
12301TIP3   OH236859   0.604   6.119   1.292
12301TIP3    H136860   0.553   6.046   1.326
12301TIP3    H236861   0.693   6.085   1.285
12302TIP3   OH236862   5.067   6.672   2.790
12302TIP3    H136863   5.094   6.753   2.833
12302TIP3    H236864   5.019   6.624   2.857
12303TIP3   OH236865   7.156   5.268   1.131
12303TIP3    H136866   7.127   5.287   1.042
12303TIP3    H236867   7.076   5.267   1.183
12304TIP3   OH236868   1.089   7.243   6.535
12304TIP3    H136869   1.120   7.153   6.535
12304TIP3    H236870   1.166   7.295   6.510
12305TIP3   OH236871   6.938   7.453   3.668
12305TIP3    H136872   6.923   7.395   3.743
12305TIP3    H236873   6.926   7.396   3.591
12306TIP3   OH236874   2.474   1.043   3.945
12306TIP3    H136875   2.403   1.093   3.985
12306TIP3    H236876   2.482   1.079   3.856
12307TIP3   OH236877   1.202   4.872   1.833
12307TIP3    H136878   1.120   4.822   1.828
12307TIP3    H236879   1.246   4.839   1.912
12308TIP3   OH236880   4.843   2.536   3.754
12308TIP3    H136881   4.803   2.455   3.788
12308TIP3    H236882   4.924   2.546   3.805
12309TIP3   OH236883   3.139   6.952   2.054
12309TIP3    H136884   3.167   6.862   2.035
12309TIP3    H236885   3.192   7.006   1.995
12310TIP3   OH236886   2.986   5.448   4.327
12310TIP3    H136887   2.897   5.478   4.345
12310TIP3    H236888   3.033   5.526   4.298
12311TIP3   OH236889   3.733   6.995   5.400
12311TIP3    H136890   3.758   7.085   5.379
12311TIP3    H236891   3.816   6.952   5.423
12312TIP3   OH236892   7.551   6.058   5.531
12312TIP3    H136893   7.582   6.055   5.621
12312TIP3    H236894   7.629   6.038   5.478
12313TIP3   OH236895   2.744   5.461   0.041
12313TIP3    H136896   2.709   5.548   0.064
12313TIP3    H236897   2.745   5.460  -0.054
12314TIP3   OH236898   4.518   3.698   1.071
12314TIP3    H136899   4.493   3.609   1.098
12314TIP3    H236900   4.556   3.737   1.149
12315TIP3   OH236901   0.685   1.860   4.616
12315TIP3    H136902   0.613   1.797   4.619
12315TIP3    H236903   0.651   1.938   4.659
12316TIP3   OH236904   3.778   1.388   4.943
12316TIP3    H136905   3.857   1.436   4.918
12316TIP3    H236906   3.742   1.436   5.017
12317TIP3   OH236907   1.564   1.827   2.706
12317TIP3    H136908   1.534   1.737   2.696
12317TIP3    H236909   1.612   1.828   2.789
12318TIP3   OH236910   7.349   7.467   5.268
12318TIP3    H136911   7.310   7.472   5.181
12318TIP3    H236912   7.372   7.558   5.289
12319TIP3   OH236913   0.332   4.432   3.261
12319TIP3    H136914   0.353   4.444   3.169
12319TIP3    H236915   0.298   4.343   3.268
12320TIP3   OH236916   7.012   7.518   2.239
12320TIP3    H136917   7.098   7.476   2.245
12320TIP3    H236918   7.004   7.542   2.147
12321TIP3   OH236919   7.406   7.025   3.176
12321TIP3    H136920   7.455   7.098   3.138
12321TIP3    H236921   7.458   6.947   3.155
12322TIP3   OH236922   5.808   0.076   5.424
12322TIP3    H136923   5.718   0.091   5.451
12322TIP3    H236924   5.838   0.162   5.393
12323TIP3   OH236925   5.905   7.190   4.572
12323TIP3    H136926   5.920   7.214   4.481
12323TIP3    H236927   5.813   7.211   4.588
12324TIP3   OH236928   0.276   7.295   4.403
12324TIP3    H136929   0.313   7.379   4.379
12324TIP3    H236930   0.183   7.311   4.415
12325TIP3   OH236931   2.206   6.194   4.174
12325TIP3    H136932   2.238   6.211   4.086
12325TIP3    H236933   2.124   6.146   4.161
12326TIP3   OH236934   6.540   5.528   0.115
12326TIP3    H136935   6.574   5.557   0.199
12326TIP3    H236936   6.480   5.457   0.137
12327TIP3   OH236937   4.898   4.495   0.980
12327TIP3    H136938   4.854   4.410   0.977
12327TIP3    H236939   4.961   4.488   1.052
12328TIP3   OH236940   4.255   6.487   4.890
12328TIP3    H136941   4.229   6.576   4.911
12328TIP3    H236942   4.185   6.432   4.925
12329TIP3   OH236943   0.567   1.190   6.533
12329TIP3    H136944   0.620   1.187   6.613
12329TIP3    H236945   0.590   1.110   6.486
12330TIP3   OH236946   7.147   2.712   5.356
12330TIP3    H136947   7.103   2.768   5.421
12330TIP3    H236948   7.208   2.771   5.311
12331TIP3   OH236949   4.062   2.333   1.038
12331TIP3    H136950   4.023   2.349   0.952
12331TIP3    H236951   4.002   2.376   1.100
12332TIP3   OH236952   0.263   7.001   1.923
12332TIP3    H136953   0.310   6.926   1.958
12332TIP3    H236954   0.324   7.042   1.861
12333TIP3   OH236955   1.764   6.649   5.861
12333TIP3    H136956   1.843   6.595   5.865
12333TIP3    H236957   1.722   6.622   5.779
12334TIP3   OH236958   7.707   0.010   6.530
12334TIP3    H136959   7.703  -0.030   6.443
12334TIP3    H236960   7.695   0.104   6.514
12335TIP3   OH236961   4.126   3.583   2.931
12335TIP3    H136962   4.054   3.641   2.955
12335TIP3    H236963   4.202   3.640   2.924
12336TIP3   OH236964   7.581   5.830   2.560
12336TIP3    H136965   7.534   5.842   2.643
12336TIP3    H236966   7.518   5.859   2.493
12337TIP3   OH236967   4.014   3.704   5.756
12337TIP3    H136968   4.037   3.794   5.780
12337TIP3    H236969   4.076   3.681   5.686
12338TIP3   OH236970   0.893   1.528   3.147
12338TIP3    H136971   0.867   1.532   3.055
12338TIP3    H236972   0.885   1.435   3.170
12339TIP3   OH236973   5.643   2.924   1.319
12339TIP3    H136974   5.653   2.860   1.249
12339TIP3    H236975   5.643   3.009   1.274
12340TIP3   OH236976   0.553   6.618   0.058
12340TIP3    H136977   0.578   6.542   0.110
12340TIP3    H236978   0.461   6.632   0.078
12341TIP3   OH236979   6.119   0.278   4.903
12341TIP3    H136980   6.170   0.348   4.862
12341TIP3    H236981   6.101   0.217   4.831
12342TIP3   OH236982   7.004   5.916   1.123
12342TIP3    H136983   7.034   5.825   1.118
12342TIP3    H236984   6.919   5.911   1.167
12343TIP3   OH236985   4.384   1.524   1.803
12343TIP3    H136986   4.301   1.479   1.817
12343TIP3    H236987   4.360   1.607   1.762
12344TIP3   OH236988   8.249   4.493   1.980
12344TIP3    H136989   8.293   4.524   1.901
12344TIP3    H236990   8.207   4.411   1.954
12345TIP3   OH236991   3.719   2.554   6.442
12345TIP3    H136992   3.768   2.472   6.433
12345TIP3    H236993   3.635   2.536   6.400
12346TIP3   OH236994   7.852   4.925   5.856
12346TIP3    H136995   7.920   4.858   5.854
12346TIP3    H236996   7.773   4.880   5.824
12347TIP3   OH236997   6.974   2.235   0.325
12347TIP3    H136998   6.987   2.157   0.272
12347TIP3    H236999   6.958   2.202   0.413
12348TIP3   OH237000   0.232   3.211   4.484
12348TIP3    H137001   0.252   3.121   4.510
12348TIP3    H237002   0.225   3.258   4.566
12349TIP3   OH237003   0.784   0.719   2.072
12349TIP3    H137004   0.747   0.803   2.045
12349TIP3    H237005   0.728   0.690   2.144
12350TIP3   OH237006   5.360   6.480   5.509
12350TIP3    H137007   5.448   6.462   5.542
12350TIP3    H237008   5.348   6.416   5.438
12351TIP3   OH237009   0.399   6.464   1.829
12351TIP3    H137010   0.429   6.502   1.746
12351TIP3    H237011   0.335   6.527   1.861
12352TIP3   OH237012   1.708   7.177   2.077
12352TIP3    H137013   1.695   7.253   2.135
12352TIP3    H237014   1.624   7.166   2.033
12353TIP3   OH237015   2.730   0.595   2.626
12353TIP3    H137016   2.774   0.512   2.645
12353TIP3    H237017   2.637   0.574   2.628
12354TIP3   OH237018   0.746   6.156   6.574
12354TIP3    H137019   0.773   6.088   6.636
12354TIP3    H237020   0.679   6.113   6.520
12355TIP3   OH237021   1.416   2.722   4.090
12355TIP3    H137022   1.483   2.654   4.085
12355TIP3    H237023   1.455   2.790   4.145
12356TIP3   OH237024   2.778   5.358   3.818
12356TIP3    H137025   2.722   5.377   3.743
12356TIP3    H237026   2.750   5.272   3.848
12357TIP3   OH237027   7.080   7.660   1.656
12357TIP3    H137028   7.112   7.748   1.674
12357TIP3    H237029   7.145   7.622   1.598
12358TIP3   OH237030   6.045   1.695   2.545
12358TIP3    H137031   6.095   1.683   2.464
12358TIP3    H237032   5.954   1.684   2.519
12359TIP3   OH237033   1.489   6.482   3.856
12359TIP3    H137034   1.450   6.438   3.781
12359TIP3    H237035   1.582   6.489   3.835
12360TIP3   OH237036   1.067   3.879   5.717
12360TIP3    H137037   1.076   3.824   5.795
12360TIP3    H237038   1.118   3.834   5.650
12361TIP3   OH237039   8.286   1.345   1.628
12361TIP3    H137040   8.300   1.258   1.664
12361TIP3    H237041   8.206   1.337   1.575
12362TIP3   OH237042   7.888   5.804   3.174
12362TIP3    H137043   7.843   5.888   3.161
12362TIP3    H237044   7.956   5.822   3.239
12363TIP3   OH237045   5.031   4.846   4.509
12363TIP3    H137046   5.078   4.902   4.447
12363TIP3    H237047   4.972   4.906   4.555
12364TIP3   OH237048   6.928   7.090   5.870
12364TIP3    H137049   6.946   7.106   5.777
12364TIP3    H237050   6.945   6.996   5.881
12365TIP3   OH237051   1.448   1.297   2.864
12365TIP3    H137052   1.372   1.243   2.885
12365TIP3    H237053   1.463   1.349   2.943
12366TIP3   OH237054   4.784   2.719   5.458
12366TIP3    H137055   4.763   2.783   5.391
12366TIP3    H237056   4.875   2.693   5.438
12367TIP3   OH237057   3.016   3.040   0.545
12367TIP3    H137058   3.023   3.076   0.634
12367TIP3    H237059   3.055   2.953   0.551
12368TIP3   OH237060   6.154   6.095   0.573
12368TIP3    H137061   6.186   6.084   0.484
12368TIP3    H237062   6.165   6.189   0.591
12369TIP3   OH237063   4.783   4.623   1.803
12369TIP3    H137064   4.693   4.656   1.793
12369TIP3    H237065   4.838   4.693   1.768
12370TIP3   OH237066   6.092   7.250   3.915
12370TIP3    H137067   6.111   7.200   3.836
12370TIP3    H237068   6.056   7.333   3.882
12371TIP3   OH237069   2.146   0.052   1.461
12371TIP3    H137070   2.231   0.009   1.461
12371TIP3    H237071   2.082  -0.020   1.456
12372TIP3   OH237072   3.191   5.632   1.517
12372TIP3    H137073   3.243   5.702   1.477
12372TIP3    H237074   3.249   5.596   1.585
12373TIP3   OH237075   2.357   3.045   1.421
12373TIP3    H137076   2.445   3.009   1.410
12373TIP3    H237077   2.299   2.977   1.385
12374TIP3   OH237078   0.771   3.337   4.491
12374TIP3    H137079   0.821   3.304   4.566
12374TIP3    H237080   0.820   3.308   4.414
12375TIP3   OH237081   5.434   1.547   3.759
12375TIP3    H137082   5.456   1.640   3.768
12375TIP3    H237083   5.512   1.508   3.722
12376TIP3   OH237084   7.076   5.703   3.359
12376TIP3    H137085   7.033   5.754   3.427
12376TIP3    H237086   7.041   5.738   3.277
12377TIP3   OH237087   8.203   6.007   5.157
12377TIP3    H137088   8.153   5.945   5.209
12377TIP3    H237089   8.223   5.960   5.076
12378TIP3   OH237090   0.042   0.318   6.074
12378TIP3    H137091  -0.014   0.394   6.086
12378TIP3    H237092  -0.016   0.243   6.091
12379TIP3   OH237093   1.064   0.169   1.080
12379TIP3    H137094   1.106   0.223   1.013
12379TIP3    H237095   1.085   0.212   1.163
12380TIP3   OH237096   3.540   7.327   1.931
12380TIP3    H137097   3.567   7.328   2.023
12380TIP3    H237098   3.465   7.387   1.928
12381TIP3   OH237099   2.216   2.835   1.750
12381TIP3    H137100   2.310   2.848   1.762
12381TIP3    H237101   2.178   2.922   1.763
12382TIP3   OH237102   5.190   3.491   2.036
12382TIP3    H137103   5.195   3.463   1.944
12382TIP3    H237104   5.204   3.410   2.085
12383TIP3   OH237105   2.761   1.008   0.964
12383TIP3    H137106   2.830   1.033   0.903
12383TIP3    H237107   2.808   0.971   1.039
12384TIP3   OH237108   0.376   3.314   4.273
12384TIP3    H137109   0.322   3.365   4.213
12384TIP3    H237110   0.319   3.296   4.347
12385TIP3   OH237111   5.516   3.115   3.727
12385TIP3    H137112   5.539   3.091   3.638
12385TIP3    H237113   5.421   3.109   3.730
12386TIP3   OH237114   8.101   7.411   2.114
12386TIP3    H137115   8.021   7.386   2.068
12386TIP3    H237116   8.073   7.476   2.179
12387TIP3   OH237117   8.203   1.610   5.649
12387TIP3    H137118   8.247   1.671   5.591
12387TIP3    H237119   8.271   1.548   5.675
12388TIP3   OH237120   2.831   2.603   3.644
12388TIP3    H137121   2.820   2.554   3.725
12388TIP3    H237122   2.767   2.565   3.584
12389TIP3   OH237123   0.064   7.655   2.376
12389TIP3    H137124   0.159   7.646   2.388
12389TIP3    H237125   0.053   7.669   2.282
12390TIP3   OH237126   0.082   7.236   3.857
12390TIP3    H137127   0.031   7.307   3.820
12390TIP3    H237128   0.126   7.273   3.933
12391TIP3   OH237129   6.975   7.483   5.597
12391TIP3    H137130   6.972   7.571   5.561
12391TIP3    H237131   6.903   7.480   5.660
12392TIP3   OH237132   7.366   2.891   5.227
12392TIP3    H137133   7.456   2.888   5.260
12392TIP3    H237134   7.330   2.972   5.264
12393TIP3   OH237135   7.164   7.270   1.448
12393TIP3    H137136   7.227   7.232   1.385
12393TIP3    H237137   7.194   7.238   1.533
12394TIP3   OH237138   2.886   5.276   3.206
12394TIP3    H137139   2.852   5.193   3.174
12394TIP3    H237140   2.813   5.315   3.255
12395TIP3   OH237141   2.236   2.158   1.453
12395TIP3    H137142   2.152   2.112   1.456
12395TIP3    H237143   2.295   2.095   1.411
12396TIP3   OH237144   6.417   0.103   0.908
12396TIP3    H137145   6.351   0.111   0.977
12396TIP3    H237146   6.454   0.191   0.901
12397TIP3   OH237147   0.009   3.895   2.662
12397TIP3    H137148   0.102   3.904   2.686
12397TIP3    H237149  -0.015   3.808   2.691
12398TIP3   OH237150   3.970   2.199   3.814
12398TIP3    H137151   4.009   2.282   3.843
12398TIP3    H237152   3.911   2.224   3.744
12399TIP3   OH237153   1.936   1.694   2.362
12399TIP3    H137154   1.900   1.748   2.432
12399TIP3    H237155   1.882   1.714   2.286
12400TIP3   OH237156   6.455   6.873   6.541
12400TIP3    H137157   6.483   6.786   6.569
12400TIP3    H237158   6.422   6.915   6.620
12401TIP3   OH237159   0.490   0.504   5.727
12401TIP3    H137160   0.452   0.488   5.814
12401TIP3    H237161   0.584   0.491   5.738
12402TIP3   OH237162   3.852   4.433   0.442
12402TIP3    H137163   3.889   4.407   0.526
12402TIP3    H237164   3.915   4.495   0.406
12403TIP3   OH237165   6.818   4.493   5.645
12403TIP3    H137166   6.808   4.491   5.550
12403TIP3    H237167   6.729   4.497   5.679
12404TIP3   OH237168   3.374   1.953   2.956
12404TIP3    H137169   3.286   1.929   2.985
12404TIP3    H237170   3.361   2.029   2.900
12405TIP3   OH237171   4.504   4.018   1.574
12405TIP3    H137172   4.499   3.947   1.639
12405TIP3    H237173   4.469   3.979   1.494
12406TIP3   OH237174   0.274   2.006   1.222
12406TIP3    H137175   0.352   1.980   1.174
12406TIP3    H237176   0.292   1.982   1.313
12407TIP3   OH237177   0.466   5.051   4.798
12407TIP3    H137178   0.547   5.009   4.825
12407TIP3    H237179   0.493   5.128   4.748
12408TIP3   OH237180   8.276   1.126   2.611
12408TIP3    H137181   8.339   1.175   2.558
12408TIP3    H237182   8.194   1.173   2.599
12409TIP3   OH237183   1.984   3.742   2.406
12409TIP3    H137184   2.069   3.698   2.402
12409TIP3    H237185   1.949   3.737   2.317
12410TIP3   OH237186   2.963   5.404   6.614
12410TIP3    H137187   2.918   5.352   6.547
12410TIP3    H237188   2.925   5.376   6.697
12411TIP3   OH237189   3.897   2.125   0.485
12411TIP3    H137190   3.890   2.091   0.574
12411TIP3    H237191   3.826   2.081   0.437
12412TIP3   OH237192   6.584   6.802   1.860
12412TIP3    H137193   6.677   6.790   1.880
12412TIP3    H237194   6.561   6.724   1.810
12413TIP3   OH237195   6.779   4.816   1.458
12413TIP3    H137196   6.858   4.765   1.472
12413TIP3    H237197   6.707   4.758   1.481
12414TIP3   OH237198   5.815   3.384   1.044
12414TIP3    H137199   5.750   3.376   0.974
12414TIP3    H237200   5.787   3.461   1.094
12415TIP3   OH237201   0.994   3.929   4.397
12415TIP3    H137202   0.925   3.868   4.424
12415TIP3    H237203   0.952   4.015   4.404
12416TIP3   OH237204   1.400   4.644   0.246
12416TIP3    H137205   1.477   4.694   0.218
12416TIP3    H237206   1.424   4.612   0.333
12417TIP3   OH237207   3.965   6.866   5.787
12417TIP3    H137208   3.934   6.953   5.763
12417TIP3    H237209   3.888   6.809   5.774
12418TIP3   OH237210   8.142   7.268   0.428
12418TIP3    H137211   8.166   7.350   0.385
12418TIP3    H237212   8.075   7.293   0.492
12419TIP3   OH237213   1.398   4.746   5.746
12419TIP3    H137214   1.386   4.652   5.755
12419TIP3    H237215   1.451   4.756   5.667
12420TIP3   OH237216   5.359   0.872   3.197
12420TIP3    H137217   5.428   0.815   3.162
12420TIP3    H237218   5.277   0.831   3.168
12421TIP3   OH237219   0.694   3.989   4.975
12421TIP3    H137220   0.671   4.067   4.924
12421TIP3    H237221   0.659   4.006   5.062
12422TIP3   OH237222   7.561   1.425   2.893
12422TIP3    H137223   7.544   1.336   2.863
12422TIP3    H237224   7.503   1.480   2.841
12423TIP3   OH237225   3.073   5.023   1.938
12423TIP3    H137226   3.066   5.116   1.962
12423TIP3    H237227   3.166   5.003   1.949
12424TIP3   OH237228   8.309   3.036   2.954
12424TIP3    H137229   8.241   3.101   2.934
12424TIP3    H237230   8.369   3.082   3.013
12425TIP3   OH237231   2.507   6.179   5.063
12425TIP3    H137232   2.560   6.237   5.118
12425TIP3    H237233   2.556   6.097   5.059
12426TIP3   OH237234   8.268   3.570   2.268
12426TIP3    H137235   8.210   3.532   2.202
12426TIP3    H237236   8.217   3.569   2.349
12427TIP3   OH237237   4.472   6.596   2.420
12427TIP3    H137238   4.539   6.634   2.363
12427TIP3    H237239   4.462   6.506   2.389
12428TIP3   OH237240   3.883   1.331   2.778
12428TIP3    H137241   3.941   1.312   2.852
12428TIP3    H237242   3.909   1.419   2.750
12429TIP3   OH237243   2.169   7.785   1.070
12429TIP3    H137244   2.190   7.842   0.996
12429TIP3    H237245   2.100   7.727   1.037
12430TIP3   OH237246   6.136   2.912   6.382
12430TIP3    H137247   6.206   2.953   6.432
12430TIP3    H237248   6.058   2.924   6.436
12431TIP3   OH237249   2.630   2.258   0.159
12431TIP3    H137250   2.568   2.257   0.086
12431TIP3    H237251   2.628   2.348   0.192
12432TIP3   OH237252   8.073   6.532   6.609
12432TIP3    H137253   8.031   6.446   6.605
12432TIP3    H237254   8.113   6.543   6.523
12433TIP3   OH237255   0.955   6.620   5.430
12433TIP3    H137256   0.994   6.568   5.359
12433TIP3    H237257   1.020   6.615   5.501
12434TIP3   OH237258   3.415   0.225   6.362
12434TIP3    H137259   3.477   0.228   6.290
12434TIP3    H237260   3.387   0.133   6.366
12435TIP3   OH237261   4.136   2.235   1.317
12435TIP3    H137262   4.141   2.240   1.222
12435TIP3    H237263   4.181   2.314   1.348
12436TIP3   OH237264   6.441   7.318   5.523
12436TIP3    H137265   6.414   7.324   5.615
12436TIP3    H237266   6.436   7.225   5.503
12437TIP3   OH237267   1.639   2.181   4.594
12437TIP3    H137268   1.719   2.135   4.567
12437TIP3    H237269   1.671   2.256   4.644
12438TIP3   OH237270   5.113   6.605   0.225
12438TIP3    H137271   5.158   6.688   0.244
12438TIP3    H237272   5.183   6.548   0.193
12439TIP3   OH237273   6.541   4.008   0.450
12439TIP3    H137274   6.590   3.985   0.529
12439TIP3    H237275   6.606   3.999   0.379
12440TIP3   OH237276   7.073   6.023   2.388
12440TIP3    H137277   7.049   6.032   2.296
12440TIP3    H237278   7.092   6.113   2.417
12441TIP3   OH237279   6.268   6.140   4.560
12441TIP3    H137280   6.333   6.132   4.631
12441TIP3    H237281   6.194   6.185   4.601
12442TIP3   OH237282   1.211   0.821   1.170
12442TIP3    H137283   1.204   0.770   1.251
12442TIP3    H237284   1.122   0.853   1.154
12443TIP3   OH237285   2.971   2.463   4.816
12443TIP3    H137286   3.019   2.528   4.867
12443TIP3    H237287   2.930   2.406   4.880
12444TIP3   OH237288   2.145   1.089   3.765
12444TIP3    H137289   2.135   1.099   3.670
12444TIP3    H237290   2.097   1.163   3.801
12445TIP3   OH237291   2.466   7.759   2.290
12445TIP3    H137292   2.457   7.840   2.340
12445TIP3    H237293   2.541   7.714   2.329
12446TIP3   OH237294   5.565   4.856   4.972
12446TIP3    H137295   5.603   4.785   4.920
12446TIP3    H237296   5.608   4.849   5.057
12447TIP3   OH237297   0.242   4.269   2.846
12447TIP3    H137298   0.186   4.302   2.776
12447TIP3    H237299   0.306   4.214   2.801
12448TIP3   OH237300   0.383   4.907   6.740
12448TIP3    H137301   0.387   5.002   6.745
12448TIP3    H237302   0.368   4.888   6.648
12449TIP3   OH237303   7.351   1.622   0.041
12449TIP3    H137304   7.284   1.635   0.108
12449TIP3    H237305   7.434   1.641   0.085
12450TIP3   OH237306   2.599   3.702   4.362
12450TIP3    H137307   2.596   3.791   4.397
12450TIP3    H237308   2.551   3.707   4.280
12451TIP3   OH237309   1.342   1.755   6.599
12451TIP3    H137310   1.282   1.693   6.638
12451TIP3    H237311   1.422   1.747   6.651
12452TIP3   OH237312   2.286   6.460   5.277
12452TIP3    H137313   2.357   6.522   5.261
12452TIP3    H237314   2.219   6.511   5.323
12453TIP3   OH237315   1.882   4.742   5.522
12453TIP3    H137316   1.836   4.716   5.602
12453TIP3    H237317   1.961   4.689   5.522
12454TIP3   OH237318   3.216   2.389   3.551
12454TIP3    H137319   3.239   2.303   3.584
12454TIP3    H237320   3.266   2.450   3.605
12455TIP3   OH237321   2.189   1.564   4.839
12455TIP3    H137322   2.131   1.599   4.907
12455TIP3    H237323   2.189   1.631   4.770
12456TIP3   OH237324   3.695   1.152   6.726
12456TIP3    H137325   3.612   1.113   6.756
12456TIP3    H237326   3.763   1.095   6.761
12457TIP3   OH237327   2.270   1.738   6.417
12457TIP3    H137328   2.250   1.827   6.389
12457TIP3    H237329   2.188   1.690   6.402
12458TIP3   OH237330   7.350   2.847   2.923
12458TIP3    H137331   7.425   2.870   2.868
12458TIP3    H237332   7.388   2.826   3.009
12459TIP3   OH237333   5.649   1.120   6.524
12459TIP3    H137334   5.601   1.100   6.444
12459TIP3    H237335   5.730   1.161   6.493
12460TIP3   OH237336   3.692   4.454   2.695
12460TIP3    H137337   3.700   4.540   2.655
12460TIP3    H237338   3.700   4.393   2.622
12461TIP3   OH237339   2.109   6.525   5.034
12461TIP3    H137340   2.054   6.592   4.993
12461TIP3    H237341   2.179   6.575   5.077
12462TIP3   OH237342   3.763   7.233   1.719
12462TIP3    H137343   3.808   7.267   1.796
12462TIP3    H237344   3.688   7.291   1.707
12463TIP3   OH237345   7.451   5.931   0.537
12463TIP3    H137346   7.526   5.899   0.487
12463TIP3    H237347   7.377   5.878   0.508
12464TIP3   OH237348   0.794   5.899   2.357
12464TIP3    H137349   0.763   5.891   2.448
12464TIP3    H237350   0.884   5.930   2.366
12465TIP3   OH237351   7.535   1.274   1.501
12465TIP3    H137352   7.496   1.213   1.564
12465TIP3    H237353   7.498   1.359   1.526
12466TIP3   OH237354   4.316   2.742   6.160
12466TIP3    H137355   4.256   2.743   6.085
12466TIP3    H237356   4.334   2.650   6.176
12467TIP3   OH237357   5.655   3.495   6.588
12467TIP3    H137358   5.730   3.552   6.607
12467TIP3    H237359   5.684   3.441   6.514
12468TIP3   OH237360   1.472   1.241   3.964
12468TIP3    H137361   1.521   1.187   4.027
12468TIP3    H237362   1.479   1.330   3.999
12469TIP3   OH237363   8.002   6.858   6.677
12469TIP3    H137364   7.944   6.895   6.743
12469TIP3    H237365   8.014   6.767   6.703
12470TIP3   OH237366   6.544   0.963   4.274
12470TIP3    H137367   6.499   0.988   4.355
12470TIP3    H237368   6.633   0.995   4.286
12471TIP3   OH237369   6.213   7.159   6.306
12471TIP3    H137370   6.168   7.109   6.238
12471TIP3    H237371   6.304   7.131   6.299
12472TIP3   OH237372   5.303   0.268   0.908
12472TIP3    H137373   5.241   0.246   0.978
12472TIP3    H237374   5.304   0.191   0.852
12473TIP3   OH237375   1.926   0.875   0.751
12473TIP3    H137376   1.966   0.789   0.758
12473TIP3    H237377   1.943   0.903   0.661
12474TIP3   OH237378   2.614   7.858   5.961
12474TIP3    H137379   2.537   7.804   5.944
12474TIP3    H237380   2.687   7.796   5.955
12475TIP3   OH237381   3.556   0.852   1.904
12475TIP3    H137382   3.518   0.932   1.940
12475TIP3    H237383   3.650   0.860   1.923
12476TIP3   OH237384   2.732   3.664   5.055
12476TIP3    H137385   2.749   3.601   4.985
12476TIP3    H237386   2.732   3.749   5.011
12477TIP3   OH237387   2.577   1.784   0.909
12477TIP3    H137388   2.579   1.808   0.816
12477TIP3    H237389   2.657   1.734   0.923
12478TIP3   OH237390   2.480   3.488   0.284
12478TIP3    H137391   2.435   3.571   0.298
12478TIP3    H237392   2.449   3.458   0.199
12479TIP3   OH237393   0.767   3.882   3.036
12479TIP3    H137394   0.751   3.874   2.942
12479TIP3    H237395   0.682   3.906   3.073
12480TIP3   OH237396   1.231   7.172   5.081
12480TIP3    H137397   1.308   7.118   5.066
12480TIP3    H237398   1.256   7.231   5.152
12481TIP3   OH237399   4.948   5.433   5.050
12481TIP3    H137400   5.028   5.420   4.999
12481TIP3    H237401   4.977   5.428   5.141
12482TIP3   OH237402   6.267   4.987   0.576
12482TIP3    H137403   6.213   4.909   0.558
12482TIP3    H237404   6.206   5.050   0.613
12483TIP3   OH237405   5.614   5.120   6.208
12483TIP3    H137406   5.545   5.077   6.157
12483TIP3    H237407   5.639   5.056   6.274
12484TIP3   OH237408   4.812   3.223   2.004
12484TIP3    H137409   4.828   3.232   1.910
12484TIP3    H237410   4.816   3.129   2.020
12485TIP3   OH237411   4.609   7.099   5.657
12485TIP3    H137412   4.575   7.189   5.655
12485TIP3    H237413   4.690   7.106   5.709
12486TIP3   OH237414   8.103   3.291   1.209
12486TIP3    H137415   8.193   3.314   1.234
12486TIP3    H237416   8.058   3.279   1.293
12487TIP3   OH237417   6.816   7.132   4.253
12487TIP3    H137418   6.868   7.053   4.270
12487TIP3    H237419   6.869   7.183   4.192
12488TIP3   OH237420   3.725   3.697   0.995
12488TIP3    H137421   3.657   3.676   0.932
12488TIP3    H237422   3.678   3.712   1.077
12489TIP3   OH237423   6.038   2.115   3.231
12489TIP3    H137424   6.125   2.075   3.224
12489TIP3    H237425   5.980   2.056   3.183
12490TIP3   OH237426   3.038   5.681   4.968
12490TIP3    H137427   2.992   5.715   4.892
12490TIP3    H237428   3.026   5.587   4.964
12491TIP3   OH237429   3.023   6.087   0.481
12491TIP3    H137430   3.032   6.059   0.390
12491TIP3    H237431   3.020   6.183   0.476
12492TIP3   OH237432   0.245   4.803   2.357
12492TIP3    H137433   0.184   4.743   2.314
12492TIP3    H237434   0.288   4.749   2.424
12493TIP3   OH237435   7.720   6.670   1.270
12493TIP3    H137436   7.773   6.595   1.245
12493TIP3    H237437   7.777   6.746   1.255
12494TIP3   OH237438   7.238   4.804   4.629
12494TIP3    H137439   7.319   4.854   4.638
12494TIP3    H237440   7.265   4.720   4.594
12495TIP3   OH237441   4.674   6.522   6.545
12495TIP3    H137442   4.705   6.493   6.460
12495TIP3    H237443   4.751   6.558   6.588
12496TIP3   OH237444   1.078   4.390   5.478
12496TIP3    H137445   1.068   4.302   5.443
12496TIP3    H237446   1.024   4.445   5.421
12497TIP3   OH237447   4.170   5.780   6.343
12497TIP3    H137448   4.087   5.752   6.382
12497TIP3    H237449   4.162   5.756   6.251
12498TIP3   OH237450   8.040   1.697   4.133
12498TIP3    H137451   8.054   1.678   4.225
12498TIP3    H237452   8.097   1.772   4.115
12499TIP3   OH237453   0.640   6.689   1.439
12499TIP3    H137454   0.690   6.760   1.400
12499TIP3    H237455   0.705   6.633   1.482
12500TIP3   OH237456   0.665   7.438   0.849
12500TIP3    H137457   0.594   7.472   0.904
12500TIP3    H237458   0.631   7.354   0.816
12501TIP3   OH237459   0.447   4.091   2.749
12501TIP3    H137460   0.529   4.128   2.716
12501TIP3    H237461   0.472   4.007   2.787
12502TIP3   OH237462   5.059   4.128   5.918
12502TIP3    H137463   5.054   4.052   5.975
12502TIP3    H237464   5.029   4.201   5.972
12503TIP3   OH237465   5.320   4.452   3.390
12503TIP3    H137466   5.288   4.418   3.474
12503TIP3    H237467   5.309   4.546   3.397
12504TIP3   OH237468   0.388   7.141   1.732
12504TIP3    H137469   0.434   7.073   1.682
12504TIP3    H237470   0.454   7.174   1.793
12505TIP3   OH237471   6.536   4.822   4.980
12505TIP3    H137472   6.605   4.756   4.992
12505TIP3    H237473   6.551   4.885   5.050
12506TIP3   OH237474   7.177   7.782   2.808
12506TIP3    H137475   7.219   7.828   2.735
12506TIP3    H237476   7.219   7.816   2.886
12507TIP3   OH237477   3.529   1.812   1.699
12507TIP3    H137478   3.469   1.882   1.722
12507TIP3    H237479   3.598   1.854   1.648
12508TIP3   OH237480   1.185   7.085   4.776
12508TIP3    H137481   1.247   7.050   4.839
12508TIP3    H237482   1.207   7.177   4.769
12509TIP3   OH237483   5.961   6.811   0.327
12509TIP3    H137484   5.971   6.807   0.232
12509TIP3    H237485   6.045   6.779   0.361
12510TIP3   OH237486   4.923   4.975   3.458
12510TIP3    H137487   4.938   5.058   3.413
12510TIP3    H237488   4.978   4.980   3.536
12511TIP3   OH237489   2.441   1.688   3.830
12511TIP3    H137490   2.356   1.668   3.870
12511TIP3    H237491   2.488   1.604   3.831
12512TIP3   OH237492   3.061   2.109   3.915
12512TIP3    H137493   2.975   2.075   3.889
12512TIP3    H237494   3.059   2.108   4.011
12513TIP3   OH237495   5.797   6.540   5.534
12513TIP3    H137496   5.736   6.483   5.580
12513TIP3    H237497   5.780   6.523   5.441
12514TIP3   OH237498   5.565   3.622   4.951
12514TIP3    H137499   5.597   3.567   5.022
12514TIP3    H237500   5.474   3.597   4.939
12515TIP3   OH237501   5.532   2.517   4.152
12515TIP3    H137502   5.566   2.606   4.162
12515TIP3    H237503   5.552   2.475   4.236
12516TIP3   OH237504   7.427   6.086   2.656
12516TIP3    H137505   7.426   5.997   2.691
12516TIP3    H237506   7.398   6.078   2.566
12517TIP3   OH237507   3.649   5.005   1.134
12517TIP3    H137508   3.625   4.973   1.221
12517TIP3    H237509   3.567   5.004   1.084
12518TIP3   OH237510   2.800   1.093   5.102
12518TIP3    H137511   2.717   1.136   5.079
12518TIP3    H237512   2.863   1.128   5.040
12519TIP3   OH237513   5.015   2.149   3.724
12519TIP3    H137514   5.024   2.102   3.641
12519TIP3    H237515   5.099   2.192   3.736
12520TIP3   OH237516   3.752   5.439   0.695
12520TIP3    H137517   3.736   5.360   0.747
12520TIP3    H237518   3.759   5.408   0.605
12521TIP3   OH237519   0.061   2.967   2.398
12521TIP3    H137520   0.000   3.039   2.408
12521TIP3    H237521   0.094   2.949   2.486
12522TIP3   OH237522   7.087   2.723   6.353
12522TIP3    H137523   7.088   2.633   6.384
12522TIP3    H237524   7.012   2.728   6.293
12523TIP3   OH237525   5.184   1.537   4.411
12523TIP3    H137526   5.167   1.448   4.442
12523TIP3    H237527   5.266   1.530   4.361
12524TIP3   OH237528   0.759   6.259   3.489
12524TIP3    H137529   0.663   6.250   3.485
12524TIP3    H237530   0.777   6.339   3.441
12525TIP3   OH237531   6.757   4.563   0.037
12525TIP3    H137532   6.818   4.593   0.105
12525TIP3    H237533   6.703   4.497   0.081
12526TIP3   OH237534   0.713   1.498   4.492
12526TIP3    H137535   0.662   1.579   4.490
12526TIP3    H237536   0.692   1.455   4.409
12527TIP3   OH237537   1.202   7.714   5.286
12527TIP3    H137538   1.139   7.648   5.315
12527TIP3    H237539   1.148   7.782   5.245
12528TIP3   OH237540   5.278   1.049   3.985
12528TIP3    H137541   5.340   1.036   3.914
12528TIP3    H237542   5.195   1.070   3.941
12529TIP3   OH237543   7.896   2.684   2.985
12529TIP3    H137544   7.983   2.645   2.995
12529TIP3    H237545   7.910   2.777   3.002
12530TIP3   OH237546   7.421   2.051   6.126
12530TIP3    H137547   7.508   2.062   6.162
12530TIP3    H237548   7.412   2.120   6.061
12531TIP3   OH237549   7.751   2.713   6.670
12531TIP3    H137550   7.715   2.652   6.735
12531TIP3    H237551   7.673   2.750   6.626
12532TIP3   OH237552   6.940   5.984   1.816
12532TIP3    H137553   6.959   5.896   1.848
12532TIP3    H237554   6.943   5.976   1.721
12533TIP3   OH237555   6.349   7.495   0.070
12533TIP3    H137556   6.321   7.424   0.012
12533TIP3    H237557   6.270   7.518   0.119
12534TIP3   OH237558   4.039   7.684   3.936
12534TIP3    H137559   4.039   7.628   3.858
12534TIP3    H237560   3.995   7.764   3.908
12535TIP3   OH237561   1.048   1.751   6.283
12535TIP3    H137562   1.141   1.775   6.276
12535TIP3    H237563   1.027   1.765   6.375
12536TIP3   OH237564   1.279   6.608   6.285
12536TIP3    H137565   1.266   6.518   6.315
12536TIP3    H237566   1.372   6.611   6.261
12537TIP3   OH237567   8.232   4.464   0.496
12537TIP3    H137568   8.179   4.390   0.466
12537TIP3    H237569   8.177   4.508   0.560
12538TIP3   OH237570   1.237   3.172   4.919
12538TIP3    H137571   1.229   3.266   4.935
12538TIP3    H237572   1.318   3.147   4.963
12539TIP3   OH237573   8.052   0.854   0.375
12539TIP3    H137574   8.099   0.879   0.295
12539TIP3    H237575   8.002   0.932   0.398
12540TIP3   OH237576   1.840   2.968   2.461
12540TIP3    H137577   1.858   2.936   2.373
12540TIP3    H237578   1.794   3.051   2.447
12541TIP3   OH237579   1.114   1.850   4.126
12541TIP3    H137580   1.173   1.918   4.158
12541TIP3    H237581   1.098   1.794   4.203
12542TIP3   OH237582   1.531   4.158   3.951
12542TIP3    H137583   1.489   4.181   4.033
12542TIP3    H237584   1.600   4.224   3.939
12543TIP3   OH237585   0.338   5.613   1.082
12543TIP3    H137586   0.380   5.546   1.029
12543TIP3    H237587   0.289   5.667   1.019
12544TIP3   OH237588   2.038   6.401   4.021
12544TIP3    H137589   2.048   6.496   4.020
12544TIP3    H237590   2.126   6.368   4.004
12545TIP3   OH237591   6.987   0.070   6.711
12545TIP3    H137592   6.929   0.146   6.712
12545TIP3    H237593   7.075   0.107   6.703
12546TIP3   OH237594   7.245   5.691   3.132
12546TIP3    H137595   7.323   5.742   3.108
12546TIP3    H237596   7.281   5.610   3.168
12547TIP3   OH237597   0.430   7.247   2.362
12547TIP3    H137598   0.335   7.244   2.372
12547TIP3    H237599   0.450   7.339   2.347
12548TIP3   OH237600   3.057   4.024   0.047
12548TIP3    H137601   3.139   4.053   0.087
12548TIP3    H237602   3.084   3.963  -0.022
12549TIP3   OH237603   6.509   5.426   2.053
12549TIP3    H137604   6.542   5.494   2.112
12549TIP3    H237605   6.463   5.364   2.110
12550TIP3   OH237606   2.511   4.008   6.336
12550TIP3    H137607   2.469   4.093   6.329
12550TIP3    H237608   2.587   4.023   6.392
12551TIP3   OH237609   5.938   4.074   3.994
12551TIP3    H137610   6.032   4.065   4.010
12551TIP3    H237611   5.917   4.006   3.931
12552TIP3   OH237612   4.295   3.850   4.558
12552TIP3    H137613   4.217   3.906   4.565
12552TIP3    H237614   4.343   3.885   4.484
12553TIP3   OH237615   6.824   4.810   4.068
12553TIP3    H137616   6.775   4.893   4.073
12553TIP3    H237617   6.764   4.750   4.023
12554TIP3   OH237618   5.249   2.420   6.603
12554TIP3    H137619   5.235   2.487   6.670
12554TIP3    H237620   5.189   2.445   6.533
12555TIP3   OH237621   6.839   6.089   4.995
12555TIP3    H137622   6.908   6.074   5.059
12555TIP3    H237623   6.885   6.119   4.917
12556TIP3   OH237624   7.912   4.518   1.683
12556TIP3    H137625   8.004   4.544   1.680
12556TIP3    H237626   7.875   4.554   1.603
12557TIP3   OH237627   8.013   1.346   6.653
12557TIP3    H137628   8.093   1.301   6.624
12557TIP3    H237629   8.015   1.430   6.608
12558TIP3   OH237630   5.900   4.721   2.115
12558TIP3    H137631   5.909   4.637   2.070
12558TIP3    H237632   5.899   4.786   2.045
12559TIP3   OH237633  -0.023   2.834   0.796
12559TIP3    H137634   0.027   2.785   0.861
12559TIP3    H237635   0.021   2.919   0.790
12560TIP3   OH237636   0.351   5.881   6.118
12560TIP3    H137637   0.377   5.957   6.065
12560TIP3    H237638   0.374   5.907   6.207
12561TIP3   OH237639   5.728   5.715   5.693
12561TIP3    H137640   5.800   5.652   5.698
12561TIP3    H237641   5.736   5.767   5.773
12562TIP3   OH237642   5.262   0.484   3.281
12562TIP3    H137643   5.345   0.500   3.326
12562TIP3    H237644   5.286   0.478   3.188
12563TIP3   OH237645   2.111   5.234   5.843
12563TIP3    H137646   2.087   5.249   5.934
12563TIP3    H237647   2.075   5.147   5.823
12564TIP3   OH237648   7.335   1.231   3.511
12564TIP3    H137649   7.373   1.150   3.478
12564TIP3    H237650   7.240   1.215   3.511
12565TIP3   OH237651   7.484   2.594   0.925
12565TIP3    H137652   7.546   2.537   0.881
12565TIP3    H237653   7.485   2.565   1.016
12566TIP3   OH237654   2.158   0.189   5.731
12566TIP3    H137655   2.143   0.244   5.808
12566TIP3    H237656   2.090   0.122   5.736
12567TIP3   OH237657   0.805   5.922   1.269
12567TIP3    H137658   0.827   5.907   1.361
12567TIP3    H237659   0.765   5.840   1.240
12568TIP3   OH237660   8.015   1.437   5.866
12568TIP3    H137661   7.943   1.439   5.928
12568TIP3    H237662   7.974   1.425   5.781
12569TIP3   OH237663   4.117   4.128   6.048
12569TIP3    H137664   4.172   4.053   6.073
12569TIP3    H237665   4.124   4.132   5.952
12570TIP3   OH237666   6.580   2.936   1.576
12570TIP3    H137667   6.587   2.862   1.637
12570TIP3    H237668   6.667   2.976   1.577
12571TIP3   OH237669   6.813   2.347   4.557
12571TIP3    H137670   6.803   2.391   4.472
12571TIP3    H237671   6.774   2.408   4.619
12572TIP3   OH237672   4.835   3.508   2.053
12572TIP3    H137673   4.824   3.414   2.048
12572TIP3    H237674   4.747   3.543   2.062
12573TIP3   OH237675   2.397   0.183   2.635
12573TIP3    H137676   2.482   0.209   2.670
12573TIP3    H237677   2.338   0.183   2.710
12574TIP3   OH237678   7.893   6.086   5.771
12574TIP3    H137679   7.914   6.113   5.860
12574TIP3    H237680   7.797   6.094   5.766
12575TIP3   OH237681   6.604   6.585   1.671
12575TIP3    H137682   6.581   6.623   1.586
12575TIP3    H237683   6.522   6.552   1.706
12576TIP3   OH237684   5.183   5.673   0.844
12576TIP3    H137685   5.235   5.615   0.899
12576TIP3    H237686   5.102   5.687   0.893
12577TIP3   OH237687   2.317   4.391   6.418
12577TIP3    H137688   2.341   4.473   6.373
12577TIP3    H237689   2.275   4.420   6.499
12578TIP3   OH237690   4.594   3.811   2.842
12578TIP3    H137691   4.640   3.760   2.909
12578TIP3    H237692   4.577   3.896   2.883
12579TIP3   OH237693   0.223   2.927   5.347
12579TIP3    H137694   0.266   2.997   5.396
12579TIP3    H237695   0.130   2.951   5.350
12580TIP3   OH237696   5.417   3.281   2.340
12580TIP3    H137697   5.394   3.242   2.255
12580TIP3    H237698   5.505   3.248   2.358
12581TIP3   OH237699   7.474   1.553   2.221
12581TIP3    H137700   7.441   1.640   2.244
12581TIP3    H237701   7.396   1.504   2.195
12582TIP3   OH237702   4.893   4.726   3.188
12582TIP3    H137703   4.938   4.803   3.154
12582TIP3    H237704   4.927   4.716   3.277
12583TIP3   OH237705   3.947   3.556   0.199
12583TIP3    H137706   3.955   3.571   0.105
12583TIP3    H237707   3.965   3.640   0.240
12584TIP3   OH237708   8.021   7.594   0.819
12584TIP3    H137709   8.011   7.510   0.773
12584TIP3    H237710   8.013   7.571   0.912
12585TIP3   OH237711   6.424   3.355   4.224
12585TIP3    H137712   6.359   3.337   4.293
12585TIP3    H237713   6.431   3.450   4.222
12586TIP3   OH237714   3.081   2.336   1.730
12586TIP3    H137715   3.170   2.333   1.765
12586TIP3    H237716   3.074   2.259   1.674
12587TIP3   OH237717   1.655   4.895   2.341
12587TIP3    H137718   1.565   4.865   2.349
12587TIP3    H237719   1.697   4.831   2.284
12588TIP3   OH237720   2.306   1.272   4.002
12588TIP3    H137721   2.216   1.289   3.976
12588TIP3    H237722   2.310   1.298   4.094
12589TIP3   OH237723   5.194   0.170   3.628
12589TIP3    H137724   5.160   0.087   3.596
12589TIP3    H237725   5.284   0.151   3.656
12590TIP3   OH237726   3.931   6.707   6.427
12590TIP3    H137727   3.975   6.695   6.511
12590TIP3    H237728   3.979   6.779   6.385
12591TIP3   OH237729   8.022   3.371   2.209
12591TIP3    H137730   7.930   3.390   2.192
12591TIP3    H237731   8.025   3.276   2.221
12592TIP3   OH237732   1.139   6.782   3.216
12592TIP3    H137733   1.187   6.845   3.162
12592TIP3    H237734   1.208   6.727   3.254
12593TIP3   OH237735   1.806   6.402   6.129
12593TIP3    H137736   1.852   6.462   6.070
12593TIP3    H237737   1.869   6.385   6.199
12594TIP3   OH237738   1.191   6.492   3.651
12594TIP3    H137739   1.224   6.432   3.719
12594TIP3    H237740   1.257   6.487   3.582
12595TIP3   OH237741   4.585   6.418   6.787
12595TIP3    H137742   4.621   6.442   6.702
12595TIP3    H237743   4.516   6.355   6.767
12596TIP3   OH237744   2.268   3.829   0.840
12596TIP3    H137745   2.346   3.775   0.825
12596TIP3    H237746   2.216   3.778   0.902
12597TIP3   OH237747   6.656   6.681   4.019
12597TIP3    H137748   6.693   6.649   4.101
12597TIP3    H237749   6.596   6.612   3.990
12598TIP3   OH237750   7.538   5.409   4.656
12598TIP3    H137751   7.501   5.368   4.577
12598TIP3    H237752   7.462   5.446   4.701
12599TIP3   OH237753   4.968   7.384   3.206
12599TIP3    H137754   4.960   7.305   3.152
12599TIP3    H237755   4.983   7.351   3.294
12600TIP3   OH237756   2.903   6.745   0.757
12600TIP3    H137757   2.924   6.775   0.668
12600TIP3    H237758   2.903   6.825   0.810
12601TIP3   OH237759   5.510   7.531   4.611
12601TIP3    H137760   5.583   7.572   4.658
12601TIP3    H237761   5.444   7.600   4.604
12602TIP3   OH237762   5.335   3.996   3.654
12602TIP3    H137763   5.338   3.995   3.750
12602TIP3    H237764   5.327   3.904   3.629
12603TIP3   OH237765   1.329   4.433   0.085
12603TIP3    H137766   1.329   4.463  -0.006
12603TIP3    H237767   1.376   4.500   0.133
12604TIP3   OH237768   3.331   3.452   5.998
12604TIP3    H137769   3.398   3.490   5.941
12604TIP3    H237770   3.248   3.485   5.963
12605TIP3   OH237771   6.075   3.687   4.744
12605TIP3    H137772   6.070   3.721   4.655
12605TIP3    H237773   6.057   3.763   4.800
12606TIP3   OH237774   5.291   7.764   3.192
12606TIP3    H137775   5.300   7.740   3.285
12606TIP3    H237776   5.301   7.682   3.145
12607TIP3   OH237777   2.720   4.942   2.620
12607TIP3    H137778   2.708   4.860   2.667
12607TIP3    H237779   2.799   4.980   2.659
12608TIP3   OH237780   5.156   2.246   0.300
12608TIP3    H137781   5.102   2.285   0.231
12608TIP3    H237782   5.235   2.299   0.302
12609TIP3   OH237783   3.833   5.134   2.757
12609TIP3    H137784   3.892   5.066   2.786
12609TIP3    H237785   3.862   5.156   2.668
12610TIP3   OH237786   6.922   1.603   4.497
12610TIP3    H137787   7.007   1.637   4.524
12610TIP3    H237788   6.860   1.670   4.527
12611TIP3   OH237789   5.377   4.665   2.630
12611TIP3    H137790   5.344   4.647   2.718
12611TIP3    H237791   5.393   4.759   2.630
12612TIP3   OH237792   0.455   2.459   3.356
12612TIP3    H137793   0.400   2.384   3.378
12612TIP3    H237794   0.409   2.534   3.395
12613TIP3   OH237795   2.535   3.736   5.921
12613TIP3    H137796   2.607   3.796   5.940
12613TIP3    H237797   2.578   3.651   5.907
12614TIP3   OH237798   2.464   0.086   1.046
12614TIP3    H137799   2.413   0.125   1.116
12614TIP3    H237800   2.422   0.115   0.965
12615TIP3   OH237801   3.038   5.285   3.879
12615TIP3    H137802   3.086   5.361   3.909
12615TIP3    H237803   2.958   5.321   3.840
12616TIP3   OH237804   5.639   7.355   4.196
12616TIP3    H137805   5.697   7.313   4.133
12616TIP3    H237806   5.565   7.294   4.205
12617TIP3   OH237807   6.030   4.626   1.085
12617TIP3    H137808   6.088   4.614   1.011
12617TIP3    H237809   6.057   4.559   1.148
12618TIP3   OH237810   6.575   2.283   5.744
12618TIP3    H137811   6.620   2.310   5.823
12618TIP3    H237812   6.590   2.189   5.738
12619TIP3   OH237813   6.313   4.002   2.268
12619TIP3    H137814   6.237   3.982   2.213
12619TIP3    H237815   6.332   3.920   2.314
12620TIP3   OH237816   5.901   1.191   2.338
12620TIP3    H137817   5.961   1.235   2.398
12620TIP3    H237818   5.924   1.226   2.251
12621TIP3   OH237819   3.974   1.131   0.236
12621TIP3    H137820   3.881   1.144   0.255
12621TIP3    H237821   3.975   1.097   0.146
12622TIP3   OH237822   2.642   1.845   5.509
12622TIP3    H137823   2.567   1.902   5.521
12622TIP3    H237824   2.718   1.901   5.523
12623TIP3   OH237825   6.160   2.223   6.049
12623TIP3    H137826   6.142   2.239   5.957
12623TIP3    H237827   6.205   2.138   6.051
12624TIP3   OH237828   0.928   7.070   1.205
12624TIP3    H137829   0.997   7.136   1.215
12624TIP3    H237830   0.972   6.993   1.171
12625TIP3   OH237831   1.739   6.926   4.915
12625TIP3    H137832   1.681   6.860   4.878
12625TIP3    H237833   1.691   6.961   4.991
12626TIP3   OH237834   0.088   1.623   4.295
12626TIP3    H137835   0.175   1.643   4.261
12626TIP3    H237836   0.033   1.694   4.260
12627TIP3   OH237837   0.896   7.670   4.607
12627TIP3    H137838   0.872   7.664   4.515
12627TIP3    H237839   0.882   7.582   4.642
12628TIP3   OH237840   3.749   6.728   5.710
12628TIP3    H137841   3.790   6.652   5.668
12628TIP3    H237842   3.677   6.753   5.652
12629TIP3   OH237843   4.857   2.978   4.319
12629TIP3    H137844   4.792   2.968   4.250
12629TIP3    H237845   4.808   3.011   4.394
12630TIP3   OH237846   6.139   7.014   2.032
12630TIP3    H137847   6.229   7.022   2.065
12630TIP3    H237848   6.138   7.066   1.952
12631TIP3   OH237849   0.973   1.363   5.938
12631TIP3    H137850   1.027   1.286   5.957
12631TIP3    H237851   1.004   1.394   5.854
12632TIP3   OH237852   2.646   5.660   1.093
12632TIP3    H137853   2.710   5.715   1.048
12632TIP3    H237854   2.573   5.653   1.030
12633TIP3   OH237855   2.900   6.185   2.442
12633TIP3    H137856   2.865   6.269   2.472
12633TIP3    H237857   2.926   6.140   2.522
12634TIP3   OH237858   0.748   6.817   6.609
12634TIP3    H137859   0.685   6.842   6.677
12634TIP3    H237860   0.832   6.852   6.640
12635TIP3   OH237861   8.276   5.370   4.145
12635TIP3    H137862   8.319   5.357   4.229
12635TIP3    H237863   8.311   5.454   4.114
12636TIP3   OH237864   2.492   7.108   5.539
12636TIP3    H137865   2.529   7.067   5.617
12636TIP3    H237866   2.553   7.085   5.469
12637TIP3   OH237867   6.007   5.174   1.903
12637TIP3    H137868   6.077   5.217   1.950
12637TIP3    H237869   5.928   5.223   1.925
12638TIP3   OH237870   1.127   4.872   2.260
12638TIP3    H137871   1.039   4.863   2.297
12638TIP3    H237872   1.124   4.956   2.213
12639TIP3   OH237873   4.360   3.071   3.389
12639TIP3    H137874   4.343   3.044   3.299
12639TIP3    H237875   4.404   2.995   3.429
12640TIP3   OH237876   2.830   7.661   0.445
12640TIP3    H137877   2.747   7.630   0.408
12640TIP3    H237878   2.896   7.603   0.406
12641TIP3   OH237879   4.035   0.516   6.298
12641TIP3    H137880   4.008   0.571   6.372
12641TIP3    H237881   4.006   0.428   6.321
12642TIP3   OH237882   0.282   2.152   6.382
12642TIP3    H137883   0.310   2.078   6.436
12642TIP3    H237884   0.303   2.125   6.292
12643TIP3   OH237885   1.310   5.241   2.944
12643TIP3    H137886   1.311   5.153   2.983
12643TIP3    H237887   1.292   5.299   3.017
12644TIP3   OH237888   1.574   0.469   4.407
12644TIP3    H137889   1.518   0.443   4.480
12644TIP3    H237890   1.575   0.564   4.410
12645TIP3   OH237891   7.764   7.068   1.779
12645TIP3    H137892   7.745   6.986   1.734
12645TIP3    H237893   7.792   7.127   1.709
12646TIP3   OH237894   7.776   5.647   5.302
12646TIP3    H137895   7.741   5.713   5.241
12646TIP3    H237896   7.717   5.651   5.377
12647TIP3   OH237897   2.227   2.064   3.329
12647TIP3    H137898   2.196   1.974   3.325
12647TIP3    H237899   2.262   2.073   3.418
12648TIP3   OH237900   4.700   2.385   3.978
12648TIP3    H137901   4.703   2.453   4.045
12648TIP3    H237902   4.749   2.312   4.015
12649TIP3   OH237903   7.609   4.194   0.230
12649TIP3    H137904   7.556   4.164   0.304
12649TIP3    H237905   7.575   4.280   0.209
12650TIP3   OH237906   3.194   2.978   2.631
12650TIP3    H137907   3.289   2.980   2.627
12650TIP3    H237908   3.167   3.069   2.623
12651TIP3   OH237909   0.005   1.102   2.153
12651TIP3    H137910   0.078   1.158   2.125
12651TIP3    H237911  -0.010   1.043   2.079
12652TIP3   OH237912   4.292   5.877   5.671
12652TIP3    H137913   4.299   5.971   5.657
12652TIP3    H237914   4.259   5.843   5.588
12653TIP3   OH237915   1.542   0.619   3.437
12653TIP3    H137916   1.460   0.647   3.395
12653TIP3    H237917   1.572   0.696   3.484
12654TIP3   OH237918   5.051   5.751   5.318
12654TIP3    H137919   5.123   5.758   5.254
12654TIP3    H237920   5.092   5.773   5.402
12655TIP3   OH237921   4.811   3.013   0.868
12655TIP3    H137922   4.876   3.029   0.937
12655TIP3    H237923   4.769   2.931   0.894
12656TIP3   OH237924   0.428   2.368   1.180
12656TIP3    H137925   0.462   2.457   1.186
12656TIP3    H237926   0.506   2.312   1.178
12657TIP3   OH237927   1.859   6.302   2.421
12657TIP3    H137928   1.869   6.376   2.481
12657TIP3    H237929   1.776   6.262   2.446
12658TIP3   OH237930   2.799   6.368   1.040
12658TIP3    H137931   2.729   6.411   0.989
12658TIP3    H237932   2.823   6.292   0.987
12659TIP3   OH237933   5.030   1.377   1.848
12659TIP3    H137934   5.001   1.395   1.938
12659TIP3    H237935   5.032   1.282   1.841
12660TIP3   OH237936   0.045   7.686   6.176
12660TIP3    H137937   0.105   7.676   6.102
12660TIP3    H237938   0.102   7.693   6.253
12661TIP3   OH237939   4.923   0.862   6.546
12661TIP3    H137940   4.984   0.916   6.596
12661TIP3    H237941   4.975   0.787   6.517
12662TIP3   OH237942   2.825   2.520   5.649
12662TIP3    H137943   2.920   2.527   5.655
12662TIP3    H237944   2.792   2.577   5.719
12663TIP3   OH237945   7.760   6.021   5.351
12663TIP3    H137946   7.801   6.074   5.283
12663TIP3    H237947   7.826   5.955   5.374
12664TIP3   OH237948   5.607   0.469   5.580
12664TIP3    H137949   5.652   0.407   5.637
12664TIP3    H237950   5.647   0.553   5.598
12665TIP3   OH237951   5.164   3.767   2.258
12665TIP3    H137952   5.094   3.708   2.289
12665TIP3    H237953   5.120   3.850   2.243
12666TIP3   OH237954   7.430   0.527   2.025
12666TIP3    H137955   7.427   0.483   1.940
12666TIP3    H237956   7.410   0.458   2.088
12667TIP3   OH237957   4.585   5.054   2.992
12667TIP3    H137958   4.593   4.963   3.021
12667TIP3    H237959   4.659   5.067   2.932
12668TIP3   OH237960   3.491   6.575   3.203
12668TIP3    H137961   3.456   6.612   3.284
12668TIP3    H237962   3.526   6.490   3.228
12669TIP3   OH237963   7.058   4.905   0.251
12669TIP3    H137964   7.027   4.815   0.261
12669TIP3    H237965   7.060   4.940   0.340
12670TIP3   OH237966   7.599   0.721   4.947
12670TIP3    H137967   7.544   0.696   4.874
12670TIP3    H237968   7.688   0.723   4.911
12671TIP3   OH237969   8.079   6.603   5.654
12671TIP3    H137970   8.080   6.646   5.740
12671TIP3    H237971   7.987   6.587   5.636
12672TIP3   OH237972   5.994   5.575   1.437
12672TIP3    H137973   6.078   5.590   1.395
12672TIP3    H237974   6.013   5.512   1.507
12673TIP3   OH237975   0.465   4.467   1.872
12673TIP3    H137976   0.547   4.421   1.894
12673TIP3    H237977   0.420   4.476   1.956
12674TIP3   OH237978   6.413   2.139   0.824
12674TIP3    H137979   6.482   2.086   0.865
12674TIP3    H237980   6.428   2.227   0.858
12675TIP3   OH237981   0.887   1.263   1.520
12675TIP3    H137982   0.934   1.234   1.598
12675TIP3    H237983   0.852   1.349   1.543
12676TIP3   OH237984   1.361   6.016   1.480
12676TIP3    H137985   1.354   5.971   1.564
12676TIP3    H237986   1.387   6.105   1.502
12677TIP3   OH237987   3.683   2.743   5.233
12677TIP3    H137988   3.662   2.796   5.157
12677TIP3    H237989   3.777   2.754   5.245
12678TIP3   OH237990   1.095   5.038   0.253
12678TIP3    H137991   1.014   5.003   0.216
12678TIP3    H237992   1.162   5.020   0.187
12679TIP3   OH237993   1.457   7.596   0.165
12679TIP3    H137994   1.483   7.685   0.191
12679TIP3    H237995   1.402   7.566   0.237
12680TIP3   OH237996   5.039   3.977   0.217
12680TIP3    H137997   5.064   3.892   0.179
12680TIP3    H237998   4.969   4.008   0.160
12681TIP3   OH237999   3.242   5.040   6.273
12681TIP3    H138000   3.296   4.967   6.304
12681TIP3    H238001   3.256   5.042   6.179
12682TIP3   OH238002   7.463   4.399   3.772
12682TIP3    H138003   7.535   4.462   3.781
12682TIP3    H238004   7.384   4.449   3.791
12683TIP3   OH238005   5.895   2.908   6.552
12683TIP3    H138006   5.862   2.826   6.516
12683TIP3    H238007   5.831   2.932   6.619
12684TIP3   OH238008   2.903   7.303   1.424
12684TIP3    H138009   2.844   7.371   1.455
12684TIP3    H238010   2.914   7.244   1.499
12685TIP3   OH238011   0.470   4.282   0.329
12685TIP3    H138012   0.539   4.221   0.357
12685TIP3    H238013   0.477   4.285   0.234
12686TIP3   OH238014   8.021   5.311   1.853
12686TIP3    H138015   7.948   5.257   1.824
12686TIP3    H238016   8.088   5.248   1.881
12687TIP3   OH238017   1.461   7.801   4.422
12687TIP3    H138018   1.393   7.860   4.454
12687TIP3    H238019   1.543   7.844   4.448
12688TIP3   OH238020   1.768   4.620   6.507
12688TIP3    H138021   1.770   4.549   6.571
12688TIP3    H238022   1.854   4.661   6.515
12689TIP3   OH238023   6.904   5.529   0.549
12689TIP3    H138024   6.912   5.433   0.547
12689TIP3    H238025   6.989   5.561   0.521
12690TIP3   OH238026   7.133   0.138   4.290
12690TIP3    H138027   7.072   0.082   4.243
12690TIP3    H238028   7.087   0.222   4.299
12691TIP3   OH238029   4.146   1.016   0.407
12691TIP3    H138030   4.137   1.041   0.499
12691TIP3    H238031   4.056   1.006   0.376
12692TIP3   OH238032   2.932   6.192   0.837
12692TIP3    H138033   2.916   6.238   0.755
12692TIP3    H238034   3.018   6.222   0.866
12693TIP3   OH238035   2.113   5.612   0.387
12693TIP3    H138036   2.087   5.703   0.402
12693TIP3    H238037   2.114   5.602   0.292
12694TIP3   OH238038   5.537   3.979   0.677
12694TIP3    H138039   5.569   3.974   0.587
12694TIP3    H238040   5.584   4.052   0.716
12695TIP3   OH238041   6.488   7.301   0.811
12695TIP3    H138042   6.430   7.374   0.830
12695TIP3    H238043   6.570   7.323   0.855
12696TIP3   OH238044   0.632   5.180   2.246
12696TIP3    H138045   0.564   5.139   2.193
12696TIP3    H238046   0.699   5.208   2.183
12697TIP3   OH238047   2.396   5.283   0.564
12697TIP3    H138048   2.412   5.238   0.647
12697TIP3    H238049   2.345   5.360   0.587
12698TIP3   OH238050   2.341   4.852   2.931
12698TIP3    H138051   2.271   4.915   2.916
12698TIP3    H238052   2.421   4.904   2.926
12699TIP3   OH238053   3.297   7.701   4.926
12699TIP3    H138054   3.342   7.755   4.991
12699TIP3    H238055   3.361   7.687   4.857
12700TIP3   OH238056   3.687   2.899   4.598
12700TIP3    H138057   3.634   2.920   4.520
12700TIP3    H238058   3.636   2.934   4.671
12701TIP3   OH238059   5.519   2.071   2.232
12701TIP3    H138060   5.517   2.146   2.172
12701TIP3    H238061   5.478   2.104   2.312
12702TIP3   OH238062   2.368   1.346   4.260
12702TIP3    H138063   2.443   1.328   4.317
12702TIP3    H238064   2.386   1.433   4.223
12703TIP3   OH238065   2.497   1.599   5.879
12703TIP3    H138066   2.508   1.504   5.876
12703TIP3    H238067   2.563   1.633   5.818
12704TIP3   OH238068   5.573   6.016   1.525
12704TIP3    H138069   5.603   5.992   1.612
12704TIP3    H238070   5.653   6.038   1.477
12705TIP3   OH238071   1.447   5.453   6.192
12705TIP3    H138072   1.449   5.360   6.171
12705TIP3    H238073   1.480   5.497   6.113
12706TIP3   OH238074   6.319   1.096   0.484
12706TIP3    H138075   6.379   1.022   0.476
12706TIP3    H238076   6.255   1.083   0.414
12707TIP3   OH238077   6.641   2.217   2.163
12707TIP3    H138078   6.689   2.268   2.229
12707TIP3    H238079   6.600   2.282   2.107
12708TIP3   OH238080   5.319   1.771   1.372
12708TIP3    H138081   5.295   1.804   1.285
12708TIP3    H238082   5.414   1.783   1.376
12709TIP3   OH238083   4.327   4.534   4.195
12709TIP3    H138084   4.349   4.619   4.158
12709TIP3    H238085   4.365   4.470   4.135
12710TIP3   OH238086   7.200   0.793   0.156
12710TIP3    H138087   7.192   0.805   0.250
12710TIP3    H238088   7.293   0.809   0.138
12711TIP3   OH238089   3.175   6.008   2.876
12711TIP3    H138090   3.243   5.949   2.906
12711TIP3    H238091   3.109   6.006   2.945
12712TIP3   OH238092   5.981   3.451   4.856
12712TIP3    H138093   5.954   3.369   4.814
12712TIP3    H238094   6.013   3.505   4.785
12713TIP3   OH238095   7.985   1.887   1.874
12713TIP3    H138096   7.969   1.910   1.965
12713TIP3    H238097   8.030   1.803   1.879
12714TIP3   OH238098   6.857   4.929   3.066
12714TIP3    H138099   6.832   4.986   3.139
12714TIP3    H238100   6.922   4.979   3.018
12715TIP3   OH238101   7.221   5.116   3.964
12715TIP3    H138102   7.240   5.053   4.034
12715TIP3    H238103   7.163   5.180   4.006
12716TIP3   OH238104   6.320   3.261   4.731
12716TIP3    H138105   6.287   3.187   4.783
12716TIP3    H238106   6.411   3.239   4.712
12717TIP3   OH238107   8.049   4.841   1.088
12717TIP3    H138108   7.978   4.777   1.098
12717TIP3    H238109   8.078   4.858   1.178
12718TIP3   OH238110   5.145   2.806   0.667
12718TIP3    H138111   5.165   2.722   0.625
12718TIP3    H238112   5.098   2.856   0.600
12719TIP3   OH238113   4.903   2.015   1.872
12719TIP3    H138114   4.867   2.025   1.960
12719TIP3    H238115   4.984   2.066   1.872
12720TIP3   OH238116   4.631   4.776   3.035
12720TIP3    H138117   4.681   4.749   3.112
12720TIP3    H238118   4.676   4.733   2.962
12721TIP3   OH238119   1.242   6.741   6.636
12721TIP3    H138120   1.160   6.761   6.682
12721TIP3    H238121   1.270   6.657   6.674
12722TIP3   OH238122   0.746   6.271   5.008
12722TIP3    H138123   0.719   6.355   4.971
12722TIP3    H238124   0.763   6.290   5.101
12723TIP3   OH238125   6.107   3.212   0.346
12723TIP3    H138126   6.154   3.147   0.294
12723TIP3    H238127   6.015   3.201   0.320
12724TIP3   OH238128   7.465   2.335   6.395
12724TIP3    H138129   7.526   2.285   6.450
12724TIP3    H238130   7.483   2.426   6.415
12725TIP3   OH238131   8.027   0.631   6.307
12725TIP3    H138132   8.008   0.724   6.299
12725TIP3    H238133   8.036   0.615   6.401
12726TIP3   OH238134   4.007   2.581   2.226
12726TIP3    H138135   4.082   2.536   2.188
12726TIP3    H238136   3.954   2.511   2.264
12727TIP3   OH238137   1.195   4.916   5.738
12727TIP3    H138138   1.241   4.998   5.755
12727TIP3    H238139   1.263   4.849   5.740
12728TIP3   OH238140   2.501   6.649   2.922
12728TIP3    H138141   2.419   6.601   2.912
12728TIP3    H238142   2.499   6.683   3.011
12729TIP3   OH238143   1.052   5.348   6.418
12729TIP3    H138144   0.980   5.348   6.482
12729TIP3    H238145   1.128   5.378   6.468
12730TIP3   OH238146   4.414   7.045   0.070
12730TIP3    H138147   4.436   6.988   0.144
12730TIP3    H238148   4.391   7.129   0.110
12731TIP3   OH238149   5.353   6.755   4.209
12731TIP3    H138150   5.420   6.749   4.141
12731TIP3    H238151   5.396   6.800   4.282
12732TIP3   OH238152   2.514   5.886   0.636
12732TIP3    H138153   2.449   5.954   0.647
12732TIP3    H238154   2.598   5.931   0.647
12733TIP3   OH238155   0.742   5.978   3.183
12733TIP3    H138156   0.810   6.035   3.220
12733TIP3    H238157   0.746   5.995   3.088
12734TIP3   OH238158   5.269   2.590   6.290
12734TIP3    H138159   5.281   2.501   6.259
12734TIP3    H238160   5.354   2.617   6.322
12735TIP3   OH238161   5.547   3.920   3.135
12735TIP3    H138162   5.471   3.876   3.172
12735TIP3    H238163   5.607   3.930   3.209
12736TIP3   OH238164   0.655   5.549   4.591
12736TIP3    H138165   0.723   5.616   4.592
12736TIP3    H238166   0.696   5.473   4.549
12737TIP3   OH238167   6.358   3.078   2.127
12737TIP3    H138168   6.337   2.990   2.095
12737TIP3    H238169   6.326   3.137   2.058
12738TIP3   OH238170   3.372   4.430   4.296
12738TIP3    H138171   3.394   4.514   4.255
12738TIP3    H238172   3.394   4.364   4.230
12739TIP3   OH238173   0.013   0.137   1.568
12739TIP3    H138174   0.100   0.099   1.582
12739TIP3    H238175  -0.045   0.061   1.562
12740TIP3   OH238176   4.094   1.716   2.287
12740TIP3    H138177   4.101   1.624   2.263
12740TIP3    H238178   4.172   1.734   2.340
12741TIP3   OH238179   4.544   4.949   1.472
12741TIP3    H138180   4.483   4.886   1.511
12741TIP3    H238181   4.630   4.909   1.482
12742TIP3   OH238182   5.475   3.139   5.616
12742TIP3    H138183   5.482   3.048   5.645
12742TIP3    H238184   5.543   3.185   5.666
12743TIP3   OH238185   0.937   4.949   4.008
12743TIP3    H138186   0.884   4.877   3.975
12743TIP3    H238187   0.946   5.009   3.934
12744TIP3   OH238188   8.230   4.656   3.650
12744TIP3    H138189   8.278   4.727   3.608
12744TIP3    H238190   8.286   4.579   3.638
12745TIP3   OH238191   4.519   3.643   0.137
12745TIP3    H138192   4.586   3.593   0.182
12745TIP3    H238193   4.457   3.577   0.106
12746TIP3   OH238194   6.787   5.249   2.252
12746TIP3    H138195   6.832   5.202   2.323
12746TIP3    H238196   6.702   5.206   2.246
12747TIP3   OH238197   0.339   6.219   2.654
12747TIP3    H138198   0.313   6.274   2.728
12747TIP3    H238199   0.273   6.236   2.587
12748TIP3   OH238200   1.445   2.919   6.072
12748TIP3    H138201   1.526   2.916   6.123
12748TIP3    H238202   1.442   2.833   6.029
12749TIP3   OH238203   3.083   7.582   4.305
12749TIP3    H138204   3.040   7.605   4.223
12749TIP3    H238205   3.021   7.524   4.349
12750TIP3   OH238206   7.106   2.340   2.752
12750TIP3    H138207   7.047   2.291   2.695
12750TIP3    H238208   7.194   2.309   2.729
12751TIP3   OH238209   0.868   1.688   0.760
12751TIP3    H138210   0.775   1.701   0.779
12751TIP3    H238211   0.909   1.678   0.846
12752TIP3   OH238212   1.107   4.753   3.859
12752TIP3    H138213   1.103   4.780   3.767
12752TIP3    H238214   1.017   4.734   3.883
12753TIP3   OH238215   0.432   7.611   0.132
12753TIP3    H138216   0.343   7.645   0.136
12753TIP3    H238217   0.445   7.566   0.215
12754TIP3   OH238218   0.894   0.135   0.245
12754TIP3    H138219   0.893   0.080   0.167
12754TIP3    H238220   0.894   0.225   0.212
12755TIP3   OH238221   5.245   6.784   5.738
12755TIP3    H138222   5.230   6.844   5.811
12755TIP3    H238223   5.248   6.697   5.779
12756TIP3   OH238224   3.982   5.510   4.653
12756TIP3    H138225   4.027   5.516   4.569
12756TIP3    H238226   4.039   5.558   4.713
12757TIP3   OH238227   2.248   5.895   4.823
12757TIP3    H138228   2.163   5.864   4.792
12757TIP3    H238229   2.236   5.909   4.917
12758TIP3   OH238230   7.292   0.932   5.742
12758TIP3    H138231   7.277   0.904   5.652
12758TIP3    H238232   7.387   0.929   5.753
12759TIP3   OH238233   7.188   1.662   4.569
12759TIP3    H138234   7.259   1.723   4.553
12759TIP3    H238235   7.228   1.576   4.559
12760TIP3   OH238236   3.491   5.997   0.773
12760TIP3    H138237   3.487   6.090   0.752
12760TIP3    H238238   3.409   5.961   0.740
12761TIP3   OH238239   6.627   5.179   0.851
12761TIP3    H138240   6.622   5.253   0.912
12761TIP3    H238241   6.571   5.112   0.890
12762TIP3   OH238242   2.760   2.399   4.166
12762TIP3    H138243   2.695   2.442   4.222
12762TIP3    H238244   2.783   2.320   4.213
12763TIP3   OH238245   0.169   1.750   5.088
12763TIP3    H138246   0.125   1.748   5.003
12763TIP3    H238247   0.111   1.802   5.144
12764TIP3   OH238248   2.730   5.463   4.372
12764TIP3    H138249   2.668   5.390   4.374
12764TIP3    H238250   2.691   5.525   4.309
12765TIP3   OH238251   4.271   2.434   4.119
12765TIP3    H138252   4.302   2.520   4.149
12765TIP3    H238253   4.336   2.406   4.055
12766TIP3   OH238254   6.166   1.671   1.308
12766TIP3    H138255   6.257   1.679   1.335
12766TIP3    H238256   6.163   1.589   1.257
12767TIP3   OH238257   5.286   6.594   2.637
12767TIP3    H138258   5.237   6.601   2.718
12767TIP3    H238259   5.377   6.611   2.662
12768TIP3   OH238260   1.724   1.578   5.782
12768TIP3    H138261   1.690   1.559   5.695
12768TIP3    H238262   1.815   1.549   5.779
12769TIP3   OH238263   6.456   6.937   2.720
12769TIP3    H138264   6.479   6.856   2.766
12769TIP3    H238265   6.362   6.930   2.705
12770TIP3   OH238266   7.638   6.877   3.061
12770TIP3    H138267   7.690   6.937   3.114
12770TIP3    H238268   7.641   6.794   3.109
12771TIP3   OH238269   7.660   4.939   4.362
12771TIP3    H138270   7.622   4.935   4.274
12771TIP3    H238271   7.649   4.850   4.397
12772TIP3   OH238272   4.404   6.940   6.371
12772TIP3    H138273   4.471   6.960   6.437
12772TIP3    H238274   4.362   7.024   6.354
12773TIP3   OH238275   1.055   2.551   5.756
12773TIP3    H138276   1.133   2.495   5.758
12773TIP3    H238277   1.086   2.634   5.720
12774TIP3   OH238278   2.421   7.819   5.630
12774TIP3    H138279   2.421   7.734   5.586
12774TIP3    H238280   2.413   7.798   5.723
12775TIP3   OH238281   7.678   5.655   3.661
12775TIP3    H138282   7.631   5.739   3.670
12775TIP3    H238283   7.700   5.631   3.751
12776TIP3   OH238284   7.602   6.257   5.064
12776TIP3    H138285   7.553   6.182   5.098
12776TIP3    H238286   7.634   6.228   4.978
12777TIP3   OH238287   3.803   7.649   5.241
12777TIP3    H138288   3.783   7.627   5.332
12777TIP3    H238289   3.894   7.622   5.229
12778TIP3   OH238290   5.151   4.643   4.729
12778TIP3    H138291   5.088   4.697   4.680
12778TIP3    H238292   5.141   4.671   4.820
12779TIP3   OH238293   0.541   5.856   3.631
12779TIP3    H138294   0.453   5.841   3.595
12779TIP3    H238295   0.574   5.768   3.650
12780TIP3   OH238296   2.725   6.881   3.988
12780TIP3    H138297   2.738   6.939   4.063
12780TIP3    H238298   2.630   6.868   3.984
12781TIP3   OH238299   4.676   3.855   4.556
12781TIP3    H138300   4.622   3.920   4.599
12781TIP3    H238301   4.646   3.771   4.590
12782TIP3   OH238302   5.548   5.092   1.438
12782TIP3    H138303   5.490   5.020   1.461
12782TIP3    H238304   5.504   5.136   1.365
12783TIP3   OH238305   6.385   6.066   2.009
12783TIP3    H138306   6.427   6.135   2.060
12783TIP3    H238307   6.431   6.067   1.925
12784TIP3   OH238308   3.901   4.542   3.451
12784TIP3    H138309   3.875   4.490   3.374
12784TIP3    H238310   3.887   4.633   3.425
12785TIP3   OH238311   3.203   4.984   6.583
12785TIP3    H138312   3.223   5.010   6.673
12785TIP3    H238313   3.194   5.067   6.535
12786TIP3   OH238314   1.558   2.252   1.092
12786TIP3    H138315   1.640   2.210   1.117
12786TIP3    H238316   1.562   2.258   0.997
12787TIP3   OH238317   6.929   1.061   2.812
12787TIP3    H138318   6.942   1.156   2.819
12787TIP3    H238319   6.836   1.052   2.790
12788TIP3   OH238320   6.716   2.967   5.226
12788TIP3    H138321   6.790   2.968   5.165
12788TIP3    H238322   6.650   3.024   5.186
12789TIP3   OH238323   0.133   6.901   2.663
12789TIP3    H138324   0.050   6.903   2.617
12789TIP3    H238325   0.110   6.886   2.755
12790TIP3   OH238326   6.853   7.813   0.440
12790TIP3    H138327   6.762   7.817   0.410
12790TIP3    H238328   6.870   7.720   0.454
12791TIP3   OH238329   5.704   1.082   1.401
12791TIP3    H138330   5.786   1.088   1.450
12791TIP3    H238331   5.636   1.089   1.468
12792TIP3   OH238332   6.281   5.967   3.050
12792TIP3    H138333   6.325   5.902   3.105
12792TIP3    H238334   6.352   6.023   3.019
12793TIP3   OH238335   6.339   0.848   5.038
12793TIP3    H138336   6.302   0.769   4.999
12793TIP3    H238337   6.351   0.908   4.963
12794TIP3   OH238338   6.443   4.933   1.300
12794TIP3    H138339   6.535   4.948   1.322
12794TIP3    H238340   6.402   4.906   1.382
12795TIP3   OH238341   7.427   1.793   6.290
12795TIP3    H138342   7.445   1.865   6.229
12795TIP3    H238343   7.415   1.836   6.375
12796TIP3   OH238344   5.259   4.115   0.845
12796TIP3    H138345   5.275   4.126   0.751
12796TIP3    H238346   5.323   4.049   0.872
12797TIP3   OH238347   4.668   4.822   0.427
12797TIP3    H138348   4.718   4.813   0.508
12797TIP3    H238349   4.606   4.749   0.429
12798TIP3   OH238350   3.339   1.646   3.655
12798TIP3    H138351   3.276   1.631   3.584
12798TIP3    H238352   3.291   1.627   3.735
12799TIP3   OH238353   2.999   3.388   1.032
12799TIP3    H138354   3.027   3.475   1.059
12799TIP3    H238355   2.910   3.380   1.067
12800TIP3   OH238356   7.575   5.500   1.304
12800TIP3    H138357   7.657   5.501   1.255
12800TIP3    H238358   7.603   5.501   1.396
12801TIP3   OH238359   3.430   3.318   2.067
12801TIP3    H138360   3.496   3.370   2.112
12801TIP3    H238361   3.351   3.371   2.071
12802TIP3   OH238362   6.595   1.499   2.612
12802TIP3    H138363   6.585   1.592   2.593
12802TIP3    H238364   6.687   1.489   2.637
12803TIP3   OH238365   5.617   6.318   2.921
12803TIP3    H138366   5.711   6.337   2.931
12803TIP3    H238367   5.590   6.368   2.844
12804TIP3   OH238368   0.627   5.176   4.206
12804TIP3    H138369   0.671   5.091   4.194
12804TIP3    H238370   0.553   5.157   4.263
12805TIP3   OH238371   4.490   2.415   5.781
12805TIP3    H138372   4.549   2.488   5.762
12805TIP3    H238373   4.523   2.379   5.863
12806TIP3   OH238374   5.639   5.157   5.916
12806TIP3    H138375   5.657   5.065   5.937
12806TIP3    H238376   5.638   5.201   6.001
12807TIP3   OH238377   7.654   5.841   4.020
12807TIP3    H138378   7.748   5.829   4.004
12807TIP3    H238379   7.640   5.935   4.012
12808TIP3   OH238380   7.762   2.878   5.514
12808TIP3    H138381   7.698   2.813   5.486
12808TIP3    H238382   7.841   2.828   5.534
12809TIP3   OH238383   4.305   4.324   2.902
12809TIP3    H138384   4.301   4.229   2.905
12809TIP3    H238385   4.223   4.350   2.858
12810TIP3   OH238386   3.716   3.837   0.354
12810TIP3    H138387   3.643   3.892   0.384
12810TIP3    H238388   3.720   3.852   0.260
12811TIP3   OH238389   6.113   7.021   5.296
12811TIP3    H138390   6.084   6.940   5.254
12811TIP3    H238391   6.117   6.999   5.389
12812TIP3   OH238392   0.170   7.769   3.507
12812TIP3    H138393   0.180   7.863   3.518
12812TIP3    H238394   0.100   7.744   3.567
12813TIP3   OH238395   5.773   3.136   6.204
12813TIP3    H138396   5.830   3.059   6.211
12813TIP3    H238397   5.834   3.208   6.190
12814TIP3   OH238398   0.994   5.763   1.086
12814TIP3    H138399   0.930   5.700   1.121
12814TIP3    H238400   0.957   5.849   1.108
12815TIP3   OH238401   1.080   0.976   3.758
12815TIP3    H138402   1.138   1.030   3.811
12815TIP3    H238403   0.996   0.979   3.803
12816TIP3   OH238404   4.240   7.299   4.979
12816TIP3    H138405   4.190   7.311   4.898
12816TIP3    H238406   4.188   7.344   5.045
12817TIP3   OH238407   0.949   1.169   2.343
12817TIP3    H138408   1.033   1.125   2.330
12817TIP3    H238409   0.944   1.184   2.438
12818TIP3   OH238410   4.258   6.031   0.882
12818TIP3    H138411   4.296   6.007   0.966
12818TIP3    H238412   4.168   6.057   0.903
12819TIP3   OH238413   0.982   1.259   1.004
12819TIP3    H138414   0.938   1.282   0.922
12819TIP3    H238415   1.069   1.297   0.996
12820TIP3   OH238416   1.232   7.487   3.280
12820TIP3    H138417   1.306   7.526   3.234
12820TIP3    H238418   1.270   7.452   3.361
12821TIP3   OH238419   1.833   5.083   2.476
12821TIP3    H138420   1.780   5.025   2.422
12821TIP3    H238421   1.884   5.135   2.413
12822TIP3   OH238422   4.307   2.682   6.511
12822TIP3    H138423   4.230   2.626   6.504
12822TIP3    H238424   4.376   2.634   6.464
12823TIP3   OH238425   2.127   3.412   2.463
12823TIP3    H138426   2.058   3.422   2.397
12823TIP3    H238427   2.175   3.495   2.461
12824TIP3   OH238428   5.881   1.050   6.739
12824TIP3    H138429   5.919   1.064   6.825
12824TIP3    H238430   5.850   0.959   6.742
12825TIP3   OH238431   3.923   6.064   3.252
12825TIP3    H138432   3.860   5.992   3.242
12825TIP3    H238433   3.994   6.041   3.192
12826TIP3   OH238434   1.301   2.620   5.524
12826TIP3    H138435   1.379   2.595   5.574
12826TIP3    H238436   1.319   2.711   5.497
12827TIP3   OH238437   5.597   4.217   0.862
12827TIP3    H138438   5.648   4.294   0.841
12827TIP3    H238439   5.523   4.250   0.913
12828TIP3   OH238440   7.879   7.133   1.340
12828TIP3    H138441   7.789   7.150   1.312
12828TIP3    H238442   7.874   7.127   1.436
12829TIP3   OH238443   6.617   2.410   0.160
12829TIP3    H138444   6.698   2.413   0.211
12829TIP3    H238445   6.584   2.500   0.162
12830TIP3   OH238446   3.200   4.697   0.073
12830TIP3    H138447   3.185   4.786   0.104
12830TIP3    H238448   3.200   4.644   0.152
12831TIP3   OH238449   0.708   3.193   6.189
12831TIP3    H138450   0.615   3.206   6.210
12831TIP3    H238451   0.742   3.144   6.263
12832TIP3   OH238452   0.039   4.679   4.331
12832TIP3    H138453  -0.008   4.600   4.304
12832TIP3    H238454   0.126   4.669   4.293
12833TIP3   OH238455   2.734   2.602   2.310
12833TIP3    H138456   2.762   2.693   2.316
12833TIP3    H238457   2.643   2.607   2.279
12834TIP3   OH238458   7.535   7.356   4.557
12834TIP3    H138459   7.544   7.293   4.628
12834TIP3    H238460   7.583   7.319   4.484
12835TIP3   OH238461   2.254   3.759   5.288
12835TIP3    H138462   2.245   3.854   5.276
12835TIP3    H238463   2.312   3.731   5.218
12836TIP3   OH238464   4.202   0.684   3.119
12836TIP3    H138465   4.141   0.664   3.049
12836TIP3    H238466   4.203   0.606   3.174
12837TIP3   OH238467   0.599   4.975   0.179
12837TIP3    H138468   0.516   4.950   0.219
12837TIP3    H238469   0.640   4.892   0.155
12838TIP3   OH238470   2.256   0.184   6.081
12838TIP3    H138471   2.212   0.240   6.016
12838TIP3    H238472   2.308   0.245   6.133
12839TIP3   OH238473   4.983   1.109   4.988
12839TIP3    H138474   4.968   1.102   5.083
12839TIP3    H238475   4.975   1.019   4.956
12840TIP3   OH238476   5.968   6.743   3.057
12840TIP3    H138477   5.885   6.738   3.105
12840TIP3    H238478   5.998   6.832   3.072
12841TIP3   OH238479   4.299   7.486   6.451
12841TIP3    H138480   4.322   7.555   6.390
12841TIP3    H238481   4.245   7.529   6.517
12842TIP3   OH238482   3.059   1.366   1.457
12842TIP3    H138483   3.152   1.344   1.448
12842TIP3    H238484   3.022   1.352   1.369
12843TIP3   OH238485   5.377   5.959   6.477
12843TIP3    H138486   5.380   6.050   6.450
12843TIP3    H238487   5.284   5.936   6.472
12844TIP3   OH238488   7.096   5.932   3.089
12844TIP3    H138489   7.132   5.845   3.108
12844TIP3    H238490   7.111   5.982   3.170
12845TIP3   OH238491   7.292   0.640   1.389
12845TIP3    H138492   7.265   0.550   1.373
12845TIP3    H238493   7.210   0.690   1.392
12846TIP3   OH238494   1.522   3.572   0.302
12846TIP3    H138495   1.496   3.563   0.394
12846TIP3    H238496   1.450   3.534   0.252
12847TIP3   OH238497   0.184   0.998   4.072
12847TIP3    H138498   0.128   1.036   4.004
12847TIP3    H238499   0.265   1.050   4.068
12848TIP3   OH238500   1.964   1.934   3.075
12848TIP3    H138501   2.007   1.849   3.077
12848TIP3    H238502   2.035   1.997   3.062
12849TIP3   OH238503   3.025   7.388   0.514
12849TIP3    H138504   3.055   7.299   0.534
12849TIP3    H238505   3.048   7.439   0.592
12850TIP3   OH238506   6.316   0.214   4.160
12850TIP3    H138507   6.373   0.277   4.204
12850TIP3    H238508   6.228   0.250   4.172
12851TIP3   OH238509   4.287   6.140   5.550
12851TIP3    H138510   4.341   6.211   5.584
12851TIP3    H238511   4.199   6.177   5.545
12852TIP3   OH238512   1.637   6.484   3.332
12852TIP3    H138513   1.711   6.425   3.323
12852TIP3    H238514   1.658   6.538   3.407
12853TIP3   OH238515   4.919   4.380   6.534
12853TIP3    H138516   4.870   4.449   6.580
12853TIP3    H238517   4.999   4.370   6.586
12854TIP3   OH238518   0.594   6.250   3.869
12854TIP3    H138519   0.603   6.257   3.964
12854TIP3    H238520   0.684   6.247   3.837
12855TIP3   OH238521   0.274   0.414   5.529
12855TIP3    H138522   0.211   0.409   5.601
12855TIP3    H238523   0.359   0.398   5.569
12856TIP3   OH238524   2.623   7.066   3.150
12856TIP3    H138525   2.677   6.988   3.145
12856TIP3    H238526   2.583   7.063   3.237
12857TIP3   OH238527   7.201   6.220   6.654
12857TIP3    H138528   7.204   6.266   6.570
12857TIP3    H238529   7.259   6.145   6.642
12858TIP3   OH238530   3.648   1.257   3.648
12858TIP3    H138531   3.710   1.317   3.608
12858TIP3    H238532   3.599   1.312   3.710
12859TIP3   OH238533   1.945   5.490   3.164
12859TIP3    H138534   1.862   5.530   3.137
12859TIP3    H238535   1.978   5.547   3.233
12860TIP3   OH238536   2.260   7.019   5.201
12860TIP3    H138537   2.215   7.102   5.216
12860TIP3    H238538   2.308   7.033   5.119
12861TIP3   OH238539   3.684   7.146   3.782
12861TIP3    H138540   3.592   7.123   3.770
12861TIP3    H238541   3.731   7.083   3.728
12862TIP3   OH238542   3.626   4.495   6.289
12862TIP3    H138543   3.593   4.568   6.341
12862TIP3    H238544   3.558   4.481   6.223
12863TIP3   OH238545   7.553   5.930   0.817
12863TIP3    H138546   7.638   5.913   0.775
12863TIP3    H238547   7.494   5.866   0.780
12864TIP3   OH238548   6.962   3.438   5.498
12864TIP3    H138549   7.034   3.474   5.549
12864TIP3    H238550   7.001   3.416   5.414
12865TIP3   OH238551   7.048   3.859   5.571
12865TIP3    H138552   7.084   3.947   5.585
12865TIP3    H238553   7.096   3.825   5.495
12866TIP3   OH238554   5.423   4.824   2.940
12866TIP3    H138555   5.513   4.803   2.914
12866TIP3    H238556   5.370   4.755   2.901
12867TIP3   OH238557   2.233   3.260   1.551
12867TIP3    H138558   2.183   3.210   1.616
12867TIP3    H238559   2.295   3.197   1.514
12868TIP3   OH238560   2.794   4.742   2.801
12868TIP3    H138561   2.888   4.729   2.803
12868TIP3    H238562   2.757   4.662   2.839
12869TIP3   OH238563   1.890   6.168   1.867
12869TIP3    H138564   1.978   6.178   1.831
12869TIP3    H238565   1.904   6.136   1.956
12870TIP3   OH238566   3.702   6.619   2.920
12870TIP3    H138567   3.775   6.631   2.982
12870TIP3    H238568   3.713   6.530   2.888
12871TIP3   OH238569   6.623   4.598   1.409
12871TIP3    H138570   6.628   4.537   1.336
12871TIP3    H238571   6.531   4.627   1.410
12872TIP3   OH238572   3.959   4.107   1.782
12872TIP3    H138573   3.894   4.166   1.820
12872TIP3    H238574   3.997   4.156   1.709
12873TIP3   OH238575   2.677   5.952   5.100
12873TIP3    H138576   2.641   5.890   5.038
12873TIP3    H238577   2.720   5.898   5.167
12874TIP3   OH238578   6.095   3.393   5.619
12874TIP3    H138579   6.022   3.336   5.593
12874TIP3    H238580   6.054   3.463   5.669
12875TIP3   OH238581   5.291   4.616   0.118
12875TIP3    H138582   5.207   4.634   0.160
12875TIP3    H238583   5.270   4.556   0.047
12876TIP3   OH238584   2.927   4.226   5.719
12876TIP3    H138585   2.932   4.175   5.799
12876TIP3    H238586   2.951   4.165   5.649
12877TIP3   OH238587   1.737   6.142   2.959
12877TIP3    H138588   1.678   6.069   2.980
12877TIP3    H238589   1.701   6.180   2.880
12878TIP3   OH238590   6.634   1.054   4.706
12878TIP3    H138591   6.722   1.091   4.711
12878TIP3    H238592   6.645   0.970   4.661
12879TIP3   OH238593   1.633   2.458   3.514
12879TIP3    H138594   1.660   2.536   3.465
12879TIP3    H238595   1.570   2.414   3.456
12880TIP3   OH238596   8.131   0.120   4.823
12880TIP3    H138597   8.060   0.142   4.763
12880TIP3    H238598   8.211   0.130   4.770
12881TIP3   OH238599   4.543   0.731   3.224
12881TIP3    H138600   4.569   0.815   3.185
12881TIP3    H238601   4.498   0.685   3.152
12882TIP3   OH238602   6.348   4.505   3.213
12882TIP3    H138603   6.393   4.432   3.255
12882TIP3    H238604   6.363   4.493   3.119
12883TIP3   OH238605   4.541   7.700   1.337
12883TIP3    H138606   4.516   7.764   1.270
12883TIP3    H238607   4.479   7.715   1.408
12884TIP3   OH238608   3.878   1.727   0.473
12884TIP3    H138609   3.910   1.637   0.475
12884TIP3    H238610   3.896   1.757   0.384
12885TIP3   OH238611   4.250   3.637   5.556
12885TIP3    H138612   4.295   3.720   5.540
12885TIP3    H238613   4.320   3.572   5.558
12886TIP3   OH238614   8.147   5.834   2.230
12886TIP3    H138615   8.081   5.785   2.179
12886TIP3    H238616   8.183   5.897   2.167
12887TIP3   OH238617   1.219   0.490   4.661
12887TIP3    H138618   1.187   0.555   4.598
12887TIP3    H238619   1.161   0.501   4.737
12888TIP3   OH238620   4.769   1.144   1.911
12888TIP3    H138621   4.740   1.155   2.002
12888TIP3    H238622   4.703   1.190   1.859
12889TIP3   OH238623   8.036   2.488   3.208
12889TIP3    H138624   8.057   2.463   3.118
12889TIP3    H238625   8.037   2.583   3.208
12890TIP3   OH238626   4.113   0.712   2.381
12890TIP3    H138627   4.146   0.650   2.316
12890TIP3    H238628   4.171   0.787   2.375
12891TIP3   OH238629   7.690   2.191   6.513
12891TIP3    H138630   7.657   2.105   6.488
12891TIP3    H238631   7.783   2.187   6.491
12892TIP3   OH238632   0.749   6.948   5.752
12892TIP3    H138633   0.785   7.036   5.759
12892TIP3    H238634   0.769   6.920   5.663
12893TIP3   OH238635   8.282   4.371   5.593
12893TIP3    H138636   8.312   4.427   5.522
12893TIP3    H238637   8.207   4.418   5.631
12894TIP3   OH238638   4.587   1.095   5.427
12894TIP3    H138639   4.512   1.037   5.414
12894TIP3    H238640   4.548   1.176   5.461
12895TIP3   OH238641   4.256   2.194   3.646
12895TIP3    H138642   4.226   2.126   3.585
12895TIP3    H238643   4.175   2.234   3.678
12896TIP3   OH238644   8.075   3.197   2.895
12896TIP3    H138645   8.099   3.220   2.984
12896TIP3    H238646   8.084   3.279   2.846
12897TIP3   OH238647   0.102   3.311   0.381
12897TIP3    H138648   0.171   3.270   0.434
12897TIP3    H238649   0.102   3.403   0.409
12898TIP3   OH238650   1.326   0.074   5.288
12898TIP3    H138651   1.403   0.124   5.263
12898TIP3    H238652   1.252   0.131   5.270
12899TIP3   OH238653   4.273   5.947   6.571
12899TIP3    H138654   4.256   5.898   6.491
12899TIP3    H238655   4.257   6.038   6.548
12900TIP3   OH238656   7.778   7.076   0.732
12900TIP3    H138657   7.783   7.005   0.667
12900TIP3    H238658   7.827   7.148   0.692
12901TIP3   OH238659   7.286   3.022   4.992
12901TIP3    H138660   7.288   2.946   5.051
12901TIP3    H238661   7.343   3.086   5.034
12902TIP3   OH238662   3.453   4.730   4.627
12902TIP3    H138663   3.440   4.799   4.692
12902TIP3    H238664   3.421   4.651   4.671
12903TIP3   OH238665   7.770   4.541   4.213
12903TIP3    H138666   7.738   4.591   4.289
12903TIP3    H238667   7.724   4.579   4.138
12904TIP3   OH238668   4.061   2.670   5.315
12904TIP3    H138669   4.018   2.597   5.360
12904TIP3    H238670   4.023   2.668   5.227
12905TIP3   OH238671   7.617   3.232   2.873
12905TIP3    H138672   7.647   3.249   2.963
12905TIP3    H238673   7.698   3.222   2.823
12906TIP3   OH238674   2.719   6.695   6.759
12906TIP3    H138675   2.712   6.633   6.687
12906TIP3    H238676   2.803   6.674   6.801
12907TIP3   OH238677   0.783   5.708   6.527
12907TIP3    H138678   0.846   5.697   6.598
12907TIP3    H238679   0.697   5.709   6.570
12908TIP3   OH238680   1.468   5.185   0.634
12908TIP3    H138681   1.545   5.142   0.670
12908TIP3    H238682   1.457   5.146   0.547
12909TIP3   OH238683   7.590   4.558   1.203
12909TIP3    H138684   7.496   4.571   1.192
12909TIP3    H238685   7.630   4.640   1.174
12910TIP3   OH238686   8.127   6.254   2.352
12910TIP3    H138687   8.047   6.287   2.392
12910TIP3    H238688   8.141   6.168   2.392
12911TIP3   OH238689   6.420   3.832   2.766
12911TIP3    H138690   6.503   3.872   2.789
12911TIP3    H238691   6.357   3.868   2.829
12912TIP3   OH238692   5.304   3.144   1.562
12912TIP3    H138693   5.293   3.144   1.657
12912TIP3    H238694   5.320   3.236   1.539
12913TIP3   OH238695   0.297   7.311   4.721
12913TIP3    H138696   0.204   7.334   4.716
12913TIP3    H238697   0.309   7.248   4.649
12914TIP3   OH238698   4.387   6.653   5.351
12914TIP3    H138699   4.372   6.687   5.439
12914TIP3    H238700   4.479   6.672   5.333
12915TIP3   OH238701   5.054   2.578   3.937
12915TIP3    H138702   5.093   2.516   3.999
12915TIP3    H238703   5.010   2.642   3.993
12916TIP3   OH238704   3.526   1.427   5.623
12916TIP3    H138705   3.514   1.437   5.529
12916TIP3    H238706   3.478   1.500   5.661
12917TIP3   OH238707   0.332   4.958   3.052
12917TIP3    H138708   0.338   5.053   3.050
12917TIP3    H238709   0.421   4.928   3.068
12918TIP3   OH238710   5.263   3.206   5.000
12918TIP3    H138711   5.302   3.290   5.022
12918TIP3    H238712   5.324   3.167   4.937
12919TIP3   OH238713   3.582   0.780   6.600
12919TIP3    H138714   3.626   0.743   6.523
12919TIP3    H238715   3.647   0.837   6.639
12920TIP3   OH238716   1.469   0.813   5.725
12920TIP3    H138717   1.531   0.790   5.794
12920TIP3    H238718   1.491   0.755   5.652
12921TIP3   OH238719   7.920   7.207   4.746
12921TIP3    H138720   7.903   7.183   4.837
12921TIP3    H238721   7.842   7.178   4.699
12922TIP3   OH238722   4.359   5.845   2.273
12922TIP3    H138723   4.320   5.910   2.215
12922TIP3    H238724   4.441   5.820   2.230
12923TIP3   OH238725   6.172   1.716   2.970
12923TIP3    H138726   6.156   1.753   2.883
12923TIP3    H238727   6.254   1.755   2.999
12924TIP3   OH238728   0.140   5.119   1.779
12924TIP3    H138729   0.138   5.197   1.835
12924TIP3    H238730   0.097   5.147   1.698
12925TIP3   OH238731   2.796   5.806   5.459
12925TIP3    H138732   2.870   5.788   5.400
12925TIP3    H238733   2.744   5.725   5.456
12926TIP3   OH238734   2.705   2.493   3.911
12926TIP3    H138735   2.722   2.469   4.002
12926TIP3    H238736   2.747   2.424   3.859
12927TIP3   OH238737   7.722   2.579   2.669
12927TIP3    H138738   7.766   2.657   2.702
12927TIP3    H238739   7.778   2.507   2.699
12928TIP3   OH238740   3.703   4.219   6.642
12928TIP3    H138741   3.717   4.310   6.613
12928TIP3    H238742   3.616   4.197   6.608
12929TIP3   OH238743   5.099   2.087   3.275
12929TIP3    H138744   5.071   2.044   3.356
12929TIP3    H238745   5.059   2.174   3.280
12930TIP3   OH238746   7.729   7.474   5.774
12930TIP3    H138747   7.686   7.546   5.729
12930TIP3    H238748   7.781   7.516   5.843
12931TIP3   OH238749   8.057   6.927   1.003
12931TIP3    H138750   7.994   6.998   1.007
12931TIP3    H238751   8.067   6.909   0.909
12932TIP3   OH238752   7.038   2.472   5.321
12932TIP3    H138753   7.095   2.547   5.336
12932TIP3    H238754   7.063   2.440   5.234
12933TIP3   OH238755   6.516   0.063   3.253
12933TIP3    H138756   6.566   0.092   3.330
12933TIP3    H238757   6.571   0.086   3.179
12934TIP3   OH238758   0.051   3.768   1.391
12934TIP3    H138759   0.001   3.782   1.472
12934TIP3    H238760   0.040   3.850   1.342
12935TIP3   OH238761   1.044   1.658   1.471
12935TIP3    H138762   1.073   1.615   1.390
12935TIP3    H238763   1.091   1.741   1.472
12936TIP3   OH238764   0.746   7.624   5.001
12936TIP3    H138765   0.695   7.547   4.976
12936TIP3    H238766   0.752   7.676   4.921
12937TIP3   OH238767   4.305   3.167   2.812
12937TIP3    H138768   4.374   3.223   2.847
12937TIP3    H238769   4.226   3.196   2.858
12938TIP3   OH238770   0.569   4.049   3.419
12938TIP3    H138771   0.486   4.063   3.464
12938TIP3    H238772   0.632   4.104   3.466
12939TIP3   OH238773   0.345   4.677   2.572
12939TIP3    H138774   0.416   4.627   2.611
12939TIP3    H238775   0.284   4.693   2.644
12940TIP3   OH238776   0.254   0.578   5.043
12940TIP3    H138777   0.190   0.507   5.039
12940TIP3    H238778   0.252   0.618   4.955
12941TIP3   OH238779   4.322   3.306   6.629
12941TIP3    H138780   4.318   3.293   6.534
12941TIP3    H238781   4.298   3.221   6.665
12942TIP3   OH238782   7.061   6.095   0.575
12942TIP3    H138783   7.107   6.019   0.539
12942TIP3    H238784   7.124   6.167   0.568
12943TIP3   OH238785   7.937   2.861   5.909
12943TIP3    H138786   7.996   2.867   5.835
12943TIP3    H238787   7.989   2.820   5.978
12944TIP3   OH238788   5.398   1.303   6.264
12944TIP3    H138789   5.325   1.259   6.220
12944TIP3    H238790   5.471   1.296   6.203
12945TIP3   OH238791   6.575   1.221   0.356
12945TIP3    H138792   6.550   1.137   0.318
12945TIP3    H238793   6.524   1.227   0.437
12946TIP3   OH238794   0.526   3.794   3.807
12946TIP3    H138795   0.447   3.840   3.780
12946TIP3    H238796   0.571   3.855   3.865
12947TIP3   OH238797   8.233   6.665   2.053
12947TIP3    H138798   8.225   6.742   2.110
12947TIP3    H238799   8.174   6.601   2.092
12948TIP3   OH238800   1.209   2.374   4.994
12948TIP3    H138801   1.241   2.314   4.927
12948TIP3    H238802   1.160   2.319   5.055
12949TIP3   OH238803   0.848   5.139   1.915
12949TIP3    H138804   0.787   5.093   1.857
12949TIP3    H238805   0.901   5.194   1.857
12950TIP3   OH238806   2.521   0.391   3.408
12950TIP3    H138807   2.482   0.337   3.476
12950TIP3    H238808   2.506   0.481   3.438
12951TIP3   OH238809   2.005   3.913   4.302
12951TIP3    H138810   2.043   3.831   4.332
12951TIP3    H238811   1.965   3.951   4.381
12952TIP3   OH238812   4.538   1.660   5.077
12952TIP3    H138813   4.507   1.572   5.100
12952TIP3    H238814   4.575   1.650   4.989
12953TIP3   OH238815   3.530   4.702   5.014
12953TIP3    H138816   3.572   4.776   4.969
12953TIP3    H238817   3.603   4.651   5.049
12954TIP3   OH238818   1.346   7.521   1.069
12954TIP3    H138819   1.411   7.523   1.138
12954TIP3    H238820   1.350   7.431   1.035
12955TIP3   OH238821   6.739   4.354   1.888
12955TIP3    H138822   6.759   4.434   1.839
12955TIP3    H238823   6.696   4.384   1.967
12956TIP3   OH238824   3.217   1.572   3.874
12956TIP3    H138825   3.149   1.636   3.893
12956TIP3    H238826   3.188   1.492   3.915
12957TIP3   OH238827   2.886   3.126   4.899
12957TIP3    H138828   2.810   3.145   4.843
12957TIP3    H238829   2.947   3.080   4.842
12958TIP3   OH238830   0.928   0.938   1.621
12958TIP3    H138831   0.869   0.866   1.642
12958TIP3    H238832   0.893   1.014   1.669
12959TIP3   OH238833   7.531   4.303   4.912
12959TIP3    H138834   7.441   4.289   4.942
12959TIP3    H238835   7.524   4.371   4.846
12960TIP3   OH238836   5.176   4.135   4.700
12960TIP3    H138837   5.221   4.061   4.740
12960TIP3    H238838   5.124   4.096   4.630
12961TIP3   OH238839   1.995   4.371   4.359
12961TIP3    H138840   2.088   4.390   4.343
12961TIP3    H238841   1.958   4.358   4.272
12962TIP3   OH238842   5.574   3.073   4.663
12962TIP3    H138843   5.578   2.978   4.678
12962TIP3    H238844   5.531   3.081   4.578
12963TIP3   OH238845   3.728   0.039   1.547
12963TIP3    H138846   3.751  -0.005   1.629
12963TIP3    H238847   3.648  -0.006   1.517
12964TIP3   OH238848   2.847   3.993   0.348
12964TIP3    H138849   2.877   3.904   0.365
12964TIP3    H238850   2.835   3.996   0.253
12965TIP3   OH238851   4.434   1.787   5.780
12965TIP3    H138852   4.388   1.797   5.863
12965TIP3    H238853   4.428   1.874   5.739
12966TIP3   OH238854   5.266   3.279   2.957
12966TIP3    H138855   5.358   3.295   2.975
12966TIP3    H238856   5.252   3.312   2.868
12967TIP3   OH238857   4.630   3.972   4.034
12967TIP3    H138858   4.627   3.886   4.075
12967TIP3    H238859   4.595   4.032   4.100
12968TIP3   OH238860   7.721   0.987   0.121
12968TIP3    H138861   7.778   1.060   0.099
12968TIP3    H238862   7.749   0.916   0.064
12969TIP3   OH238863   3.127   2.269   4.706
12969TIP3    H138864   3.097   2.192   4.754
12969TIP3    H238865   3.047   2.319   4.688
12970TIP3   OH238866   0.566   2.517   5.950
12970TIP3    H138867   0.530   2.524   5.862
12970TIP3    H238868   0.656   2.489   5.938
12971TIP3   OH238869   7.887   5.810   2.871
12971TIP3    H138870   7.896   5.724   2.830
12971TIP3    H238871   7.890   5.792   2.965
12972TIP3   OH238872   6.951   6.216   6.226
12972TIP3    H138873   6.988   6.155   6.162
12972TIP3    H238874   6.986   6.301   6.202
12973TIP3   OH238875   2.675   2.936   0.097
12973TIP3    H138876   2.621   2.864   0.130
12973TIP3    H238877   2.760   2.924   0.139
12974TIP3   OH238878   1.102   6.550   0.207
12974TIP3    H138879   1.072   6.621   0.264
12974TIP3    H238880   1.188   6.579   0.177
12975TIP3   OH238881   5.564   7.298   2.315
12975TIP3    H138882   5.554   7.393   2.310
12975TIP3    H238883   5.479   7.263   2.288
12976TIP3   OH238884   8.062   0.801   4.490
12976TIP3    H138885   8.114   0.881   4.496
12976TIP3    H238886   8.105   0.739   4.550
12977TIP3   OH238887   7.484   2.322   4.711
12977TIP3    H138888   7.440   2.252   4.663
12977TIP3    H238889   7.521   2.378   4.643
12978TIP3   OH238890   1.960   3.580   4.125
12978TIP3    H138891   1.915   3.659   4.097
12978TIP3    H238892   1.997   3.602   4.211
12979TIP3   OH238893   6.570   4.440   6.436
12979TIP3    H138894   6.608   4.527   6.425
12979TIP3    H238895   6.548   4.435   6.529
12980TIP3   OH238896   4.300   1.372   1.091
12980TIP3    H138897   4.213   1.350   1.125
12980TIP3    H238898   4.349   1.290   1.096
12981TIP3   OH238899   7.630   5.706   5.524
12981TIP3    H138900   7.668   5.676   5.607
12981TIP3    H238901   7.546   5.745   5.548
12982TIP3   OH238902   7.070   2.949   4.087
12982TIP3    H138903   7.163   2.958   4.066
12982TIP3    H238904   7.050   2.857   4.069
12983TIP3   OH238905   3.207   3.267   5.446
12983TIP3    H138906   3.261   3.258   5.524
12983TIP3    H238907   3.235   3.349   5.407
12984TIP3   OH238908   5.275   4.549   4.132
12984TIP3    H138909   5.317   4.587   4.055
12984TIP3    H238910   5.212   4.486   4.096
12985TIP3   OH238911   6.727   3.311   0.856
12985TIP3    H138912   6.634   3.290   0.848
12985TIP3    H238913   6.758   3.253   0.926
12986TIP3   OH238914   3.650   6.267   2.040
12986TIP3    H138915   3.595   6.198   2.003
12986TIP3    H238916   3.692   6.226   2.115
12987TIP3   OH238917   5.869   0.363   0.277
12987TIP3    H138918   5.964   0.347   0.280
12987TIP3    H238919   5.855   0.434   0.340
12988TIP3   OH238920   6.268   1.709   0.067
12988TIP3    H138921   6.349   1.665   0.042
12988TIP3    H238922   6.241   1.666   0.148
12989TIP3   OH238923   0.833   6.328   3.106
12989TIP3    H138924   0.770   6.385   3.150
12989TIP3    H238925   0.896   6.305   3.174
12990TIP3   OH238926   7.299   1.169   2.977
12990TIP3    H138927   7.236   1.207   3.037
12990TIP3    H238928   7.280   1.075   2.980
12991TIP3   OH238929   4.038   2.723   2.604
12991TIP3    H138930   3.963   2.673   2.573
12991TIP3    H238931   4.023   2.812   2.570
12992TIP3   OH238932   7.073   7.010   4.381
12992TIP3    H138933   7.138   6.991   4.313
12992TIP3    H238934   7.122   7.053   4.450
12993TIP3   OH238935   5.430   4.840   1.524
12993TIP3    H138936   5.408   4.835   1.617
12993TIP3    H238937   5.463   4.753   1.502
12994TIP3   OH238938   2.720   7.699   4.934
12994TIP3    H138939   2.655   7.689   5.003
12994TIP3    H238940   2.763   7.783   4.953
12995TIP3   OH238941   1.963   2.350   5.132
12995TIP3    H138942   1.988   2.338   5.223
12995TIP3    H238943   2.043   2.331   5.082
12996TIP3   OH238944   7.658   1.100   4.913
12996TIP3    H138945   7.708   1.034   4.865
12996TIP3    H238946   7.716   1.175   4.919
12997TIP3   OH238947   7.994   2.886   1.819
12997TIP3    H138948   8.087   2.906   1.821
12997TIP3    H238949   7.954   2.950   1.878
12998TIP3   OH238950   0.511   3.264   5.843
12998TIP3    H138951   0.498   3.337   5.902
12998TIP3    H238952   0.508   3.186   5.899
12999TIP3   OH238953   1.844   7.543   2.863
12999TIP3    H138954   1.902   7.618   2.851
12999TIP3    H238955   1.766   7.564   2.811
13000TIP3   OH238956   5.413   1.069   2.275
13000TIP3    H138957   5.505   1.087   2.254
13000TIP3    H238958   5.417   0.996   2.337
13001TIP3   OH238959   4.868   1.710   2.169
13001TIP3    H138960   4.927   1.732   2.096
13001TIP3    H238961   4.812   1.641   2.135
13002TIP3   OH238962   1.803   1.172   3.951
13002TIP3    H138963   1.775   1.220   3.873
13002TIP3    H238964   1.783   1.081   3.932
13003TIP3   OH238965   7.265   1.291   3.800
13003TIP3    H138966   7.335   1.263   3.858
13003TIP3    H238967   7.284   1.248   3.717
13004TIP3   OH238968   3.047   7.646   0.985
13004TIP3    H138969   3.065   7.594   1.064
13004TIP3    H238970   3.085   7.732   1.004
13005TIP3   OH238971   4.900   3.228   4.083
13005TIP3    H138972   4.902   3.140   4.044
13005TIP3    H238973   4.930   3.286   4.013
13006TIP3   OH238974   3.876   1.836   2.492
13006TIP3    H138975   3.786   1.806   2.505
13006TIP3    H238976   3.911   1.777   2.424
13007TIP3   OH238977   6.124   2.950   1.127
13007TIP3    H138978   6.076   3.031   1.110
13007TIP3    H238979   6.066   2.899   1.184
13008TIP3   OH238980   0.976   7.615   0.264
13008TIP3    H138981   1.059   7.621   0.310
13008TIP3    H238982   0.975   7.691   0.206
13009TIP3   OH238983   2.115   4.519   6.140
13009TIP3    H138984   2.087   4.489   6.226
13009TIP3    H238985   2.210   4.523   6.146
13010TIP3   OH238986   4.386   4.587   0.233
13010TIP3    H138987   4.353   4.504   0.199
13010TIP3    H238988   4.422   4.632   0.157
13011TIP3   OH238989   1.092   4.377   0.221
13011TIP3    H138990   1.138   4.345   0.299
13011TIP3    H238991   1.161   4.412   0.165
13012TIP3   OH238992   0.680   2.543   2.853
13012TIP3    H138993   0.687   2.483   2.778
13012TIP3    H238994   0.633   2.619   2.818
13013TIP3   OH238995   0.646   1.995   2.755
13013TIP3    H138996   0.566   2.038   2.725
13013TIP3    H238997   0.653   2.020   2.847
13014TIP3   OH238998   0.355   6.403   0.707
13014TIP3    H138999   0.327   6.487   0.670
13014TIP3    H239000   0.309   6.398   0.791
13015TIP3   OH239001   1.629   6.609   4.169
13015TIP3    H139002   1.656   6.557   4.245
13015TIP3    H239003   1.549   6.566   4.138
13016TIP3   OH239004   5.370   2.313   3.333
13016TIP3    H139005   5.279   2.331   3.309
13016TIP3    H239006   5.373   2.324   3.428
13017TIP3   OH239007   6.753   3.044   4.493
13017TIP3    H139008   6.762   3.110   4.562
13017TIP3    H239009   6.689   3.081   4.433
13018TIP3   OH239010   2.602   2.422   4.862
13018TIP3    H139011   2.649   2.378   4.791
13018TIP3    H239012   2.643   2.390   4.942
13019TIP3   OH239013   3.437   1.280   5.375
13019TIP3    H139014   3.353   1.271   5.420
13019TIP3    H239015   3.460   1.190   5.349
13020TIP3   OH239016   4.917   3.948   5.223
13020TIP3    H139017   4.886   3.857   5.222
13020TIP3    H239018   4.942   3.964   5.314
13021TIP3   OH239019   3.559   2.331   0.076
13021TIP3    H139020   3.589   2.274   0.006
13021TIP3    H239021   3.485   2.379   0.038
13022TIP3   OH239022   7.113   1.788   5.048
13022TIP3    H139023   7.031   1.820   5.086
13022TIP3    H239024   7.109   1.816   4.957
13023TIP3   OH239025   2.282   6.043   6.014
13023TIP3    H139026   2.309   5.987   6.087
13023TIP3    H239027   2.255   6.126   6.055
13024TIP3   OH239028   1.439   2.696   0.228
13024TIP3    H139029   1.505   2.631   0.253
13024TIP3    H239030   1.476   2.740   0.152
13025TIP3   OH239031   7.008   3.056   2.725
13025TIP3    H139032   7.059   2.986   2.766
13025TIP3    H239033   7.045   3.136   2.762
13026TIP3   OH239034   6.410   3.884   4.395
13026TIP3    H139035   6.498   3.848   4.399
13026TIP3    H239036   6.404   3.924   4.308
13027TIP3   OH239037   3.090   6.832   5.985
13027TIP3    H139038   3.093   6.744   6.022
13027TIP3    H239039   3.060   6.888   6.057
13028TIP3   OH239040   6.719   2.991   0.409
13028TIP3    H139041   6.712   3.073   0.359
13028TIP3    H239042   6.657   3.001   0.481
13029TIP3   OH239043   2.308   4.765   3.210
13029TIP3    H139044   2.213   4.764   3.201
13029TIP3    H239045   2.339   4.809   3.130
13030TIP3   OH239046   1.069   7.783   0.805
13030TIP3    H139047   0.984   7.791   0.762
13030TIP3    H239048   1.107   7.871   0.800
13031TIP3   OH239049   3.518   6.130   3.683
13031TIP3    H139050   3.553   6.149   3.770
13031TIP3    H239051   3.591   6.144   3.623
13032TIP3   OH239052   8.169   7.147   0.851
13032TIP3    H139053   8.086   7.182   0.885
13032TIP3    H239054   8.236   7.198   0.896
13033TIP3   OH239055   2.275   0.048   4.939
13033TIP3    H139056   2.232   0.071   5.021
13033TIP3    H239057   2.221   0.090   4.872
13034TIP3   OH239058   6.640   6.754   0.487
13034TIP3    H139059   6.706   6.687   0.504
13034TIP3    H239060   6.681   6.813   0.424
13035TIP3   OH239061   6.627   2.318   0.492
13035TIP3    H139062   6.627   2.223   0.506
13035TIP3    H239063   6.569   2.352   0.560
13036TIP3   OH239064   4.909   2.920   0.238
13036TIP3    H139065   4.857   2.869   0.176
13036TIP3    H239066   4.844   2.963   0.293
13037TIP3   OH239067   6.245   7.074   0.285
13037TIP3    H139068   6.265   7.027   0.365
13037TIP3    H239069   6.208   7.157   0.315
13038TIP3   OH239070   5.482   0.658   2.112
13038TIP3    H139071   5.458   0.676   2.021
13038TIP3    H239072   5.404   0.617   2.150
13039TIP3   OH239073   5.947   1.983   4.196
13039TIP3    H139074   5.947   1.904   4.250
13039TIP3    H239075   6.033   2.022   4.210
13040TIP3   OH239076   0.619   6.591   6.061
13040TIP3    H139077   0.603   6.499   6.039
13040TIP3    H239078   0.653   6.630   5.981
13041TIP3   OH239079   3.143   5.615   2.077
13041TIP3    H139080   3.123   5.591   1.986
13041TIP3    H239081   3.178   5.704   2.072
13042TIP3   OH239082   2.946   0.929   3.906
13042TIP3    H139083   2.874   0.986   3.880
13042TIP3    H239084   2.904   0.854   3.947
13043TIP3   OH239085   3.214   3.362   2.971
13043TIP3    H139086   3.130   3.405   2.957
13043TIP3    H239087   3.257   3.365   2.885
13044TIP3   OH239088   0.256   5.152   6.060
13044TIP3    H139089   0.317   5.122   6.128
13044TIP3    H239090   0.238   5.243   6.083
13045TIP3   OH239091   1.423   0.111   3.534
13045TIP3    H139092   1.452   0.044   3.595
13045TIP3    H239093   1.368   0.169   3.587
13046TIP3   OH239094   3.275   5.630   0.258
13046TIP3    H139095   3.364   5.595   0.260
13046TIP3    H239096   3.238   5.597   0.176
13047TIP3   OH239097   4.214   7.402   5.299
13047TIP3    H139098   4.141   7.464   5.294
13047TIP3    H239099   4.285   7.445   5.250
13048TIP3   OH239100   1.946   1.916   4.614
13048TIP3    H139101   1.940   2.001   4.570
13048TIP3    H239102   2.019   1.871   4.571
13049TIP3   OH239103   4.391   3.912   4.306
13049TIP3    H139104   4.336   3.973   4.257
13049TIP3    H239105   4.469   3.902   4.253
13050TIP3   OH239106   7.890   6.880   1.202
13050TIP3    H139107   7.881   6.974   1.220
13050TIP3    H239108   7.886   6.874   1.106
13051TIP3   OH239109   0.543   6.108   5.404
13051TIP3    H139110   0.526   6.036   5.343
13051TIP3    H239111   0.501   6.184   5.363
13052TIP3   OH239112   6.001   7.624   4.527
13052TIP3    H139113   5.956   7.586   4.452
13052TIP3    H239114   6.014   7.716   4.504
13053TIP3   OH239115   0.282   0.469   0.857
13053TIP3    H139116   0.348   0.401   0.842
13053TIP3    H239117   0.237   0.477   0.773
13054TIP3   OH239118   4.880   6.127   0.216
13054TIP3    H139119   4.910   6.052   0.166
13054TIP3    H239120   4.793   6.146   0.181
13055TIP3   OH239121   1.950   5.262   2.839
13055TIP3    H139122   1.965   5.321   2.766
13055TIP3    H239123   1.883   5.201   2.808
13056TIP3   OH239124   5.486   5.046   6.628
13056TIP3    H139125   5.488   4.962   6.581
13056TIP3    H239126   5.426   5.100   6.576
13057TIP3   OH239127   5.372   0.876   1.887
13057TIP3    H139128   5.428   0.903   1.815
13057TIP3    H239129   5.366   0.954   1.943
13058TIP3   OH239130   6.604   0.094   0.202
13058TIP3    H139131   6.560   0.179   0.196
13058TIP3    H239132   6.547   0.034   0.155
13059TIP3   OH239133   5.974   3.188   4.108
13059TIP3    H139134   6.028   3.171   4.185
13059TIP3    H239135   5.947   3.279   4.117
13060TIP3   OH239136   2.046   4.872   0.402
13060TIP3    H139137   2.051   4.815   0.325
13060TIP3    H239138   2.064   4.959   0.369
13061TIP3   OH239139   0.212   3.529   0.556
13061TIP3    H139140   0.307   3.519   0.558
13061TIP3    H239141   0.197   3.624   0.558
13062TIP3   OH239142   2.861   2.489   1.772
13062TIP3    H139143   2.939   2.434   1.771
13062TIP3    H239144   2.861   2.532   1.687
13063TIP3   OH239145   3.593   7.543   2.606
13063TIP3    H139146   3.656   7.482   2.567
13063TIP3    H239147   3.510   7.496   2.601
13064TIP3   OH239148   0.824   2.190   0.236
13064TIP3    H139149   0.829   2.238   0.319
13064TIP3    H239150   0.755   2.234   0.187
13065TIP3   OH239151   3.854   3.488   4.882
13065TIP3    H139152   3.877   3.473   4.974
13065TIP3    H239153   3.761   3.470   4.877
13066TIP3   OH239154   1.858   5.743   5.371
13066TIP3    H139155   1.861   5.803   5.296
13066TIP3    H239156   1.890   5.660   5.335
13067TIP3   OH239157   4.779   3.243   1.697
13067TIP3    H139158   4.730   3.219   1.618
13067TIP3    H239159   4.850   3.179   1.701
13068TIP3   OH239160   3.901   0.115   4.962
13068TIP3    H139161   3.874   0.176   5.030
13068TIP3    H239162   3.980   0.073   4.998
13069TIP3   OH239163   0.263   5.321   3.892
13069TIP3    H139164   0.285   5.409   3.861
13069TIP3    H239165   0.347   5.284   3.920
13070TIP3   OH239166   4.057   2.262   2.989
13070TIP3    H139167   4.109   2.343   2.996
13070TIP3    H239168   4.045   2.249   2.895
13071TIP3   OH239169   6.159   2.061   1.678
13071TIP3    H139170   6.070   2.047   1.713
13071TIP3    H239171   6.174   1.987   1.620
13072TIP3   OH239172   0.671   2.356   0.450
13072TIP3    H139173   0.654   2.441   0.490
13072TIP3    H239174   0.584   2.322   0.430
13073TIP3   OH239175   6.243   7.065   3.709
13073TIP3    H139176   6.231   7.062   3.614
13073TIP3    H239177   6.216   6.978   3.738
13074TIP3   OH239178   8.069   2.463   5.019
13074TIP3    H139179   8.004   2.476   4.950
13074TIP3    H239180   8.098   2.372   5.008
13075TIP3   OH239181   1.791   6.067   5.216
13075TIP3    H139182   1.698   6.084   5.200
13075TIP3    H239183   1.806   6.097   5.305
13076TIP3   OH239184   6.274   5.916   4.404
13076TIP3    H139185   6.275   5.999   4.452
13076TIP3    H239186   6.326   5.857   4.458
13077TIP3   OH239187   6.666   3.743   6.113
13077TIP3    H139188   6.623   3.665   6.147
13077TIP3    H239189   6.598   3.788   6.063
13078TIP3   OH239190   5.659   4.343   4.833
13078TIP3    H139191   5.632   4.297   4.913
13078TIP3    H239192   5.612   4.299   4.763
13079TIP3   OH239193   0.484   2.063   1.756
13079TIP3    H139194   0.403   2.104   1.726
13079TIP3    H239195   0.471   1.970   1.740
13080TIP3   OH239196   7.565   7.270   5.020
13080TIP3    H139197   7.503   7.286   4.949
13080TIP3    H239198   7.510   7.240   5.093
13081TIP3   OH239199   4.226   6.152   3.659
13081TIP3    H139200   4.252   6.224   3.601
13081TIP3    H239201   4.135   6.135   3.637
13082TIP3   OH239202   1.087   3.769   3.690
13082TIP3    H139203   1.055   3.707   3.624
13082TIP3    H239204   1.009   3.791   3.741
13083TIP3   OH239205   3.882   0.824   0.643
13083TIP3    H139206   3.894   0.854   0.733
13083TIP3    H239207   3.884   0.903   0.590
13084TIP3   OH239208   1.875   6.515   2.579
13084TIP3    H139209   1.827   6.563   2.511
13084TIP3    H239210   1.829   6.537   2.660
13085TIP3   OH239211   7.990   1.444   3.060
13085TIP3    H139212   8.057   1.399   3.112
13085TIP3    H239213   8.016   1.536   3.061
13086TIP3   OH239214   0.349   5.577   2.828
13086TIP3    H139215   0.409   5.640   2.867
13086TIP3    H239216   0.314   5.528   2.902
13087TIP3   OH239217   2.455   6.917   4.058
13087TIP3    H139218   2.366   6.906   4.026
13087TIP3    H239219   2.457   7.007   4.093
13088TIP3   OH239220   6.180   4.277   2.941
13088TIP3    H139221   6.096   4.231   2.944
13088TIP3    H239222   6.195   4.294   2.848
13089TIP3   OH239223   5.408   2.304   0.208
13089TIP3    H139224   5.437   2.218   0.238
13089TIP3    H239225   5.373   2.288   0.121
13090TIP3   OH239226   1.450   4.480   4.899
13090TIP3    H139227   1.504   4.407   4.866
13090TIP3    H239228   1.422   4.452   4.986
13091TIP3   OH239229   4.963   0.512   0.302
13091TIP3    H139230   4.973   0.417   0.296
13091TIP3    H239231   4.876   0.525   0.340
13092TIP3   OH239232   1.079   2.469   2.369
13092TIP3    H139233   1.119   2.382   2.367
13092TIP3    H239234   1.145   2.527   2.332
13093TIP3   OH239235   1.511   5.808   2.381
13093TIP3    H139236   1.547   5.825   2.468
13093TIP3    H239237   1.435   5.752   2.397
13094TIP3   OH239238   7.884   1.767   1.172
13094TIP3    H139239   7.896   1.777   1.266
13094TIP3    H239240   7.968   1.732   1.141
13095TIP3   OH239241   7.660   7.217   0.131
13095TIP3    H139242   7.583   7.262   0.166
13095TIP3    H239243   7.705   7.183   0.208
13096TIP3   OH239244   5.075   1.706   1.674
13096TIP3    H139245   5.068   1.760   1.595
13096TIP3    H239246   5.169   1.691   1.684
13097TIP3   OH239247   1.500   3.938   6.467
13097TIP3    H139248   1.576   3.948   6.410
13097TIP3    H239249   1.510   4.006   6.534
13098TIP3   OH239250   5.764   3.607   3.151
13098TIP3    H139251   5.707   3.599   3.075
13098TIP3    H239252   5.852   3.614   3.115
13099TIP3   OH239253   0.772   0.748   4.120
13099TIP3    H139254   0.793   0.716   4.032
13099TIP3    H239255   0.748   0.840   4.106
13100TIP3   OH239256   3.099   7.549   6.468
13100TIP3    H139257   3.054   7.573   6.387
13100TIP3    H239258   3.094   7.454   6.470
13101TIP3   OH239259   8.116   2.475   0.378
13101TIP3    H139260   8.104   2.425   0.298
13101TIP3    H239261   8.032   2.470   0.423
13102TIP3   OH239262   8.039   6.143   3.012
13102TIP3    H139263   8.053   6.167   3.104
13102TIP3    H239264   8.027   6.226   2.967
13103TIP3   OH239265   4.041   1.922   4.138
13103TIP3    H139266   3.999   1.889   4.218
13103TIP3    H239267   4.084   2.004   4.166
13104TIP3   OH239268   1.156   3.887   6.586
13104TIP3    H139269   1.226   3.948   6.611
13104TIP3    H239270   1.090   3.942   6.545
13105TIP3   OH239271   0.919   1.018   2.924
13105TIP3    H139272   0.873   0.978   2.850
13105TIP3    H239273   0.903   0.959   2.997
13106TIP3   OH239274   3.259   2.096   4.247
13106TIP3    H139275   3.268   2.168   4.185
13106TIP3    H239276   3.330   2.110   4.310
13107TIP3   OH239277   3.449   2.075   1.179
13107TIP3    H139278   3.360   2.102   1.156
13107TIP3    H239279   3.501   2.155   1.170
13108TIP3   OH239280   2.029   2.489   1.985
13108TIP3    H139281   2.043   2.572   1.939
13108TIP3    H239282   2.000   2.515   2.072
13109TIP3   OH239283   0.148   4.970   0.782
13109TIP3    H139284   0.097   4.935   0.709
13109TIP3    H239285   0.131   5.064   0.781
13110TIP3   OH239286   2.906   5.499   5.754
13110TIP3    H139287   2.952   5.514   5.672
13110TIP3    H239288   2.975   5.479   5.817
13111TIP3   OH239289   6.934   1.164   5.256
13111TIP3    H139290   6.995   1.225   5.298
13111TIP3    H239291   6.862   1.156   5.318
13112TIP3   OH239292   2.698   3.339   1.037
13112TIP3    H139293   2.729   3.338   0.946
13112TIP3    H239294   2.625   3.277   1.038
13113TIP3   OH239295   7.810   5.067   6.501
13113TIP3    H139296   7.820   5.150   6.455
13113TIP3    H239297   7.812   5.001   6.433
13114TIP3   OH239298   6.855   0.499   1.544
13114TIP3    H139299   6.835   0.440   1.472
13114TIP3    H239300   6.950   0.494   1.553
13115TIP3   OH239301   6.947   7.113   1.755
13115TIP3    H139302   6.930   7.024   1.722
13115TIP3    H239303   6.939   7.105   1.850
13116TIP3   OH239304   4.071   3.191   5.912
13116TIP3    H139305   4.093   3.250   5.839
13116TIP3    H239306   4.153   3.184   5.962
13117TIP3   OH239307   6.481   1.150   1.483
13117TIP3    H139308   6.476   1.231   1.432
13117TIP3    H239309   6.480   1.080   1.418
13118TIP3   OH239310   3.824   5.200   1.238
13118TIP3    H139311   3.903   5.147   1.232
13118TIP3    H239312   3.757   5.148   1.194
13119TIP3   OH239313   1.166   0.263   0.230
13119TIP3    H139314   1.072   0.272   0.216
13119TIP3    H239315   1.188   0.181   0.185
13120TIP3   OH239316   4.304   3.517   1.358
13120TIP3    H139317   4.227   3.568   1.331
13120TIP3    H239318   4.348   3.495   1.276
13121TIP3   OH239319   6.821   4.009   2.462
13121TIP3    H139320   6.785   4.029   2.375
13121TIP3    H239321   6.805   3.915   2.473
13122TIP3   OH239322   2.766   3.672   3.677
13122TIP3    H139323   2.746   3.580   3.660
13122TIP3    H239324   2.778   3.710   3.590
13123TIP3   OH239325   4.595   5.709   2.271
13123TIP3    H139326   4.679   5.752   2.252
13123TIP3    H239327   4.599   5.626   2.224
13124TIP3   OH239328   5.189   1.076   3.044
13124TIP3    H139329   5.161   1.162   3.077
13124TIP3    H239330   5.238   1.038   3.116
13125TIP3   OH239331   7.668   3.509   4.194
13125TIP3    H139332   7.702   3.597   4.178
13125TIP3    H239333   7.573   3.521   4.204
13126TIP3   OH239334   0.135   7.077   4.576
13126TIP3    H139335   0.060   7.038   4.620
13126TIP3    H239336   0.096   7.137   4.512
13127TIP3   OH239337   6.435   1.881   3.617
13127TIP3    H139338   6.377   1.903   3.690
13127TIP3    H239339   6.505   1.830   3.657
13128TIP3   OH239340   1.599   5.573   2.536
13128TIP3    H139341   1.609   5.479   2.517
13128TIP3    H239342   1.688   5.608   2.530
13129TIP3   OH239343   0.569   1.759   3.064
13129TIP3    H139344   0.487   1.713   3.050
13129TIP3    H239345   0.583   1.755   3.158
13130TIP3   OH239346   3.586   5.454   0.361
13130TIP3    H139347   3.677   5.428   0.376
13130TIP3    H239348   3.592   5.528   0.300
13131TIP3   OH239349   2.421   6.746   0.694
13131TIP3    H139350   2.498   6.696   0.670
13131TIP3    H239351   2.357   6.726   0.626
13132TIP3   OH239352   5.694   6.064   4.812
13132TIP3    H139353   5.600   6.086   4.809
13132TIP3    H239354   5.727   6.114   4.887
13133TIP3   OH239355   4.172   7.754   0.769
13133TIP3    H139356   4.253   7.751   0.821
13133TIP3    H239357   4.164   7.846   0.744
13134TIP3   OH239358   3.023   3.244   1.327
13134TIP3    H139359   3.049   3.175   1.388
13134TIP3    H239360   3.106   3.278   1.292
13135TIP3   OH239361   5.950   2.359   3.271
13135TIP3    H139362   5.859   2.348   3.298
13135TIP3    H239363   5.968   2.283   3.215
13136TIP3   OH239364   0.843   6.583   4.089
13136TIP3    H139365   0.767   6.610   4.038
13136TIP3    H239366   0.838   6.487   4.092
13137TIP3   OH239367   6.440   1.453   6.361
13137TIP3    H139368   6.444   1.537   6.406
13137TIP3    H239369   6.497   1.395   6.412
13138TIP3   OH239370   5.399   3.096   3.140
13138TIP3    H139371   5.353   3.017   3.113
13138TIP3    H239372   5.330   3.157   3.167
13139TIP3   OH239373   6.252   5.831   1.598
13139TIP3    H139374   6.268   5.925   1.588
13139TIP3    H239375   6.195   5.808   1.524
13140TIP3   OH239376   1.240   3.246   2.807
13140TIP3    H139377   1.216   3.320   2.751
13140TIP3    H239378   1.202   3.269   2.892
13141TIP3   OH239379   1.401   2.261   0.470
13141TIP3    H139380   1.451   2.323   0.417
13141TIP3    H239381   1.359   2.315   0.537
13142TIP3   OH239382   5.954   7.029   0.526
13142TIP3    H139383   5.976   6.947   0.483
13142TIP3    H239384   6.008   7.095   0.482
13143TIP3   OH239385   5.748   6.710   6.440
13143TIP3    H139386   5.702   6.792   6.454
13143TIP3    H239387   5.688   6.643   6.474
13144TIP3   OH239388   6.094   2.920   1.780
13144TIP3    H139389   6.022   2.979   1.802
13144TIP3    H239390   6.164   2.978   1.749
13145TIP3   OH239391   4.060   4.414   2.775
13145TIP3    H139392   4.062   4.500   2.734
13145TIP3    H239393   4.044   4.353   2.703
13146TIP3   OH239394   2.121   2.245   4.370
13146TIP3    H139395   2.152   2.236   4.280
13146TIP3    H239396   2.195   2.282   4.418
13147TIP3   OH239397   4.857   4.248   1.412
13147TIP3    H139398   4.776   4.218   1.453
13147TIP3    H239399   4.837   4.249   1.318
13148TIP3   OH239400   6.178   6.698   1.413
13148TIP3    H139401   6.094   6.679   1.372
13148TIP3    H239402   6.179   6.793   1.424
13149TIP3   OH239403   7.113   7.721   5.275
13149TIP3    H139404   7.139   7.806   5.240
13149TIP3    H239405   7.152   7.658   5.215
13150TIP3   OH239406   7.224   6.869   3.847
13150TIP3    H139407   7.244   6.781   3.816
13150TIP3    H239408   7.298   6.893   3.902
13151TIP3   OH239409   2.664   1.664   4.939
13151TIP3    H139410   2.681   1.661   5.033
13151TIP3    H239411   2.673   1.756   4.915
13152TIP3   OH239412   4.946   7.287   3.457
13152TIP3    H139413   4.934   7.196   3.482
13152TIP3    H239414   4.861   7.328   3.474
13153TIP3   OH239415   7.210   7.597   4.114
13153TIP3    H139416   7.299   7.590   4.081
13153TIP3    H239417   7.166   7.519   4.079
13154TIP3   OH239418   2.979   2.682   0.755
13154TIP3    H139419   3.031   2.737   0.696
13154TIP3    H239420   3.044   2.636   0.808
13155TIP3   OH239421   4.047   4.599   2.031
13155TIP3    H139422   4.126   4.630   1.987
13155TIP3    H239423   4.036   4.659   2.105
13156TIP3   OH239424   0.826   3.744   3.805
13156TIP3    H139425   0.768   3.765   3.732
13156TIP3    H239426   0.774   3.686   3.861
13157TIP3   OH239427   1.202   5.292   0.317
13157TIP3    H139428   1.131   5.336   0.364
13157TIP3    H239429   1.160   5.213   0.280
13158TIP3   OH239430   2.994   5.524   5.502
13158TIP3    H139431   3.086   5.510   5.477
13158TIP3    H239432   2.945   5.513   5.421
13159TIP3   OH239433   0.100   6.110   5.360
13159TIP3    H139434   0.082   6.048   5.289
13159TIP3    H239435   0.053   6.190   5.334
13160TIP3   OH239436   6.413   0.811   0.448
13160TIP3    H139437   6.418   0.733   0.394
13160TIP3    H239438   6.402   0.779   0.537
13161TIP3   OH239439   7.111   1.618   2.968
13161TIP3    H139440   7.203   1.638   2.947
13161TIP3    H239441   7.082   1.692   3.021
13162TIP3   OH239442   3.291   1.808   6.083
13162TIP3    H139443   3.295   1.734   6.143
13162TIP3    H239444   3.374   1.807   6.036
13163TIP3   OH239445   6.082   1.584   5.489
13163TIP3    H139446   6.075   1.533   5.569
13163TIP3    H239447   6.052   1.525   5.420
13164TIP3   OH239448   1.757   3.774   0.284
13164TIP3    H139449   1.829   3.837   0.277
13164TIP3    H239450   1.717   3.792   0.369
13165TIP3   OH239451   3.208   2.902   4.061
13165TIP3    H139452   3.120   2.900   4.025
13165TIP3    H239453   3.196   2.888   4.155
13166TIP3   OH239454   4.646   6.459   5.940
13166TIP3    H139455   4.664   6.518   5.867
13166TIP3    H239456   4.577   6.401   5.908
13167TIP3   OH239457   8.202   1.044   6.483
13167TIP3    H139458   8.228   1.082   6.568
13167TIP3    H239459   8.177   1.120   6.430
13168TIP3   OH239460   0.590   6.616   0.685
13168TIP3    H139461   0.516   6.619   0.624
13168TIP3    H239462   0.558   6.562   0.758
13169TIP3   OH239463   1.789   5.884   1.831
13169TIP3    H139464   1.844   5.820   1.786
13169TIP3    H239465   1.848   5.957   1.850
13170TIP3   OH239466   7.883   3.396   6.445
13170TIP3    H139467   7.844   3.477   6.478
13170TIP3    H239468   7.819   3.362   6.383
13171TIP3   OH239469   0.571   6.250   1.543
13171TIP3    H139470   0.577   6.182   1.610
13171TIP3    H239471   0.587   6.203   1.460
13172TIP3   OH239472   1.452   3.730   1.178
13172TIP3    H139473   1.461   3.814   1.134
13172TIP3    H239474   1.384   3.744   1.244
13173TIP3   OH239475   6.253   2.035   3.058
13173TIP3    H139476   6.242   2.040   2.963
13173TIP3    H239477   6.341   2.068   3.074
13174TIP3   OH239478   2.117   2.862   5.955
13174TIP3    H139479   2.023   2.851   5.972
13174TIP3    H239480   2.123   2.944   5.906
13175TIP3   OH239481   1.248   6.288   0.300
13175TIP3    H139482   1.252   6.381   0.275
13175TIP3    H239483   1.337   6.267   0.327
13176TIP3   OH239484   7.860   2.407   0.447
13176TIP3    H139485   7.783   2.433   0.499
13176TIP3    H239486   7.839   2.319   0.416
13177TIP3   OH239487   2.955   1.550   1.648
13177TIP3    H139488   2.966   1.504   1.731
13177TIP3    H239489   3.006   1.498   1.585
13178TIP3   OH239490  -0.005   0.112   5.537
13178TIP3    H139491   0.072   0.068   5.571
13178TIP3    H239492  -0.007   0.196   5.583
13179TIP3   OH239493   2.280   5.540   3.123
13179TIP3    H139494   2.215   5.494   3.070
13179TIP3    H239495   2.364   5.519   3.083
13180TIP3   OH239496   2.766   3.668   6.160
13180TIP3    H139497   2.729   3.627   6.083
13180TIP3    H239498   2.819   3.740   6.126
13181TIP3   OH239499   6.394   5.559   6.271
13181TIP3    H139500   6.428   5.569   6.360
13181TIP3    H239501   6.317   5.616   6.269
13182TIP3   OH239502   1.059   6.449   5.247
13182TIP3    H139503   1.153   6.456   5.234
13182TIP3    H239504   1.049   6.371   5.302
13183TIP3   OH239505   6.634   1.056   2.870
13183TIP3    H139506   6.646   1.127   2.933
13183TIP3    H239507   6.643   0.976   2.921
13184TIP3   OH239508   0.808   1.581   1.996
13184TIP3    H139509   0.740   1.641   1.963
13184TIP3    H239510   0.874   1.639   2.034
13185TIP3   OH239511   4.100   7.157   4.066
13185TIP3    H139512   4.172   7.220   4.056
13185TIP3    H239513   4.137   7.087   4.120
13186TIP3   OH239514   6.515   4.425   2.547
13186TIP3    H139515   6.439   4.371   2.524
13186TIP3    H239516   6.583   4.362   2.569
13187TIP3   OH239517   2.468   1.126   5.564
13187TIP3    H139518   2.418   1.081   5.496
13187TIP3    H239519   2.472   1.217   5.535
13188TIP3   OH239520   0.020   0.639   5.659
13188TIP3    H139521  -0.012   0.691   5.733
13188TIP3    H239522   0.100   0.682   5.631
13189TIP3   OH239523   6.619   2.707   6.005
13189TIP3    H139524   6.713   2.712   5.987
13189TIP3    H239525   6.579   2.768   5.943
13190TIP3   OH239526   7.816   7.033   4.187
13190TIP3    H139527   7.876   7.076   4.126
13190TIP3    H239528   7.865   7.030   4.270
13191TIP3   OH239529   3.962   6.219   6.593
13191TIP3    H139530   3.980   6.298   6.644
13191TIP3    H239531   3.992   6.240   6.505
13192TIP3   OH239532   0.526   5.562   3.977
13192TIP3    H139533   0.532   5.467   3.964
13192TIP3    H239534   0.583   5.599   3.911
13193TIP3   OH239535   3.506   5.695   2.068
13193TIP3    H139536   3.428   5.746   2.046
13193TIP3    H239537   3.472   5.609   2.092
13194TIP3   OH239538   5.054   3.541   1.086
13194TIP3    H139539   5.084   3.477   1.021
13194TIP3    H239540   5.091   3.510   1.169
13195TIP3   OH239541   1.108   7.802   2.938
13195TIP3    H139542   1.168   7.849   2.997
13195TIP3    H239543   1.166   7.751   2.881
13196TIP3   OH239544   8.085   0.030   0.162
13196TIP3    H139545   8.010   0.048   0.217
13196TIP3    H239546   8.138   0.110   0.166
13197TIP3   OH239547   1.458   4.242   1.733
13197TIP3    H139548   1.422   4.294   1.661
13197TIP3    H239549   1.409   4.160   1.730
13198TIP3   OH239550   5.416   0.595   5.196
13198TIP3    H139551   5.446   0.585   5.106
13198TIP3    H239552   5.422   0.690   5.213
13199TIP3   OH239553   5.810   3.201   2.666
13199TIP3    H139554   5.851   3.117   2.647
13199TIP3    H239555   5.881   3.265   2.656
13200TIP3   OH239556   6.345   1.577   6.105
13200TIP3    H139557   6.400   1.597   6.030
13200TIP3    H239558   6.406   1.555   6.175
13201TIP3   OH239559   3.330   4.753   4.228
13201TIP3    H139560   3.410   4.719   4.187
13201TIP3    H239561   3.294   4.813   4.162
13202TIP3   OH239562   4.451   2.866   5.360
13202TIP3    H139563   4.428   2.837   5.448
13202TIP3    H239564   4.517   2.933   5.373
13203TIP3   OH239565   7.639   2.072   0.598
13203TIP3    H139566   7.548   2.088   0.621
13203TIP3    H239567   7.642   2.078   0.503
13204TIP3   OH239568   8.085   1.863   2.591
13204TIP3    H139569   8.063   1.827   2.677
13204TIP3    H239570   8.009   1.843   2.537
13205TIP3   OH239571   1.401   1.033   3.032
13205TIP3    H139572   1.364   1.000   2.950
13205TIP3    H239573   1.489   0.997   3.035
13206TIP3   OH239574   1.527   4.097   3.186
13206TIP3    H139575   1.459   4.049   3.233
13206TIP3    H239576   1.586   4.129   3.254
13207TIP3   OH239577   2.862   5.508   6.374
13207TIP3    H139578   2.927   5.567   6.413
13207TIP3    H239579   2.908   5.466   6.301
13208TIP3   OH239580   1.425   3.115   5.187
13208TIP3    H139581   1.438   3.039   5.244
13208TIP3    H239582   1.467   3.187   5.234
13209TIP3   OH239583   2.566   1.917   3.303
13209TIP3    H139584   2.569   2.001   3.259
13209TIP3    H239585   2.626   1.861   3.252
13210TIP3   OH239586   3.795   1.004   1.607
13210TIP3    H139587   3.755   1.072   1.662
13210TIP3    H239588   3.809   1.047   1.522
13211TIP3   OH239589   4.546   6.829   5.789
13211TIP3    H139590   4.571   6.766   5.722
13211TIP3    H239591   4.565   6.914   5.750
13212TIP3   OH239592   0.398   5.143   1.478
13212TIP3    H139593   0.377   5.069   1.536
13212TIP3    H239594   0.417   5.102   1.394
13213TIP3   OH239595   8.229   5.603   4.655
13213TIP3    H139596   8.222   5.521   4.605
13213TIP3    H239597   8.225   5.575   4.746
13214TIP3   OH239598   6.348   3.434   1.873
13214TIP3    H139599   6.423   3.375   1.882
13214TIP3    H239600   6.381   3.520   1.898
13215TIP3   OH239601   1.666   5.022   5.782
13215TIP3    H139602   1.584   5.068   5.764
13215TIP3    H239603   1.641   4.949   5.838
13216TIP3   OH239604   2.747   3.626   6.437
13216TIP3    H139605   2.841   3.628   6.451
13216TIP3    H239606   2.737   3.623   6.342
13217TIP3   OH239607   2.440   5.753   5.123
13217TIP3    H139608   2.357   5.801   5.112
13217TIP3    H239609   2.414   5.661   5.124
13218TIP3   OH239610   6.491   6.459   2.879
13218TIP3    H139611   6.455   6.377   2.910
13218TIP3    H239612   6.454   6.470   2.792
13219TIP3   OH239613   7.793   0.491   2.579
13219TIP3    H139614   7.827   0.417   2.528
13219TIP3    H239615   7.703   0.466   2.599
13220TIP3   OH239616   1.090   6.547   0.860
13220TIP3    H139617   1.011   6.600   0.851
13220TIP3    H239618   1.070   6.486   0.931
13221TIP3   OH239619   1.254   2.276   3.519
13221TIP3    H139620   1.306   2.323   3.454
13221TIP3    H239621   1.315   2.213   3.558
13222TIP3   OH239622   7.844   1.899   0.611
13222TIP3    H139623   7.784   1.973   0.603
13222TIP3    H239624   7.812   1.851   0.687
13223TIP3   OH239625   4.590   5.634   5.577
13223TIP3    H139626   4.546   5.670   5.654
13223TIP3    H239627   4.553   5.682   5.503
13224TIP3   OH239628   2.635   2.192   3.409
13224TIP3    H139629   2.722   2.186   3.449
13224TIP3    H239630   2.651   2.182   3.315
13225TIP3   OH239631   4.772   7.376   2.423
13225TIP3    H139632   4.777   7.442   2.353
13225TIP3    H239633   4.828   7.304   2.392
13226TIP3   OH239634   3.486   1.280   0.936
13226TIP3    H139635   3.400   1.320   0.932
13226TIP3    H239636   3.480   1.203   0.880
13227TIP3   OH239637   4.940   1.539   5.692
13227TIP3    H139638   4.889   1.495   5.624
13227TIP3    H239639   4.918   1.492   5.772
13228TIP3   OH239640   7.442   3.896   2.729
13228TIP3    H139641   7.373   3.832   2.710
13228TIP3    H239642   7.521   3.844   2.740
13229TIP3   OH239643   1.597   2.864   2.321
13229TIP3    H139644   1.625   2.955   2.315
13229TIP3    H239645   1.599   2.831   2.231
13230TIP3   OH239646   2.024   4.775   3.235
13230TIP3    H139647   1.945   4.723   3.250
13230TIP3    H239648   1.994   4.866   3.241
13231TIP3   OH239649   7.007   4.927   3.722
13231TIP3    H139650   7.060   4.847   3.720
13231TIP3    H239651   7.054   4.988   3.664
13232TIP3   OH239652   0.789   5.373   4.196
13232TIP3    H139653   0.842   5.369   4.116
13232TIP3    H239654   0.731   5.297   4.191
13233TIP3   OH239655   6.279   6.378   0.374
13233TIP3    H139656   6.306   6.342   0.458
13233TIP3    H239657   6.361   6.390   0.326
13234TIP3   OH239658   7.037   5.617   4.722
13234TIP3    H139659   6.954   5.660   4.701
13234TIP3    H239660   7.056   5.644   4.812
13235TIP3   OH239661   6.206   2.113   4.272
13235TIP3    H139662   6.266   2.039   4.272
13235TIP3    H239663   6.247   2.178   4.216
13236TIP3   OH239664   1.754   5.565   4.751
13236TIP3    H139665   1.838   5.538   4.786
13236TIP3    H239666   1.774   5.596   4.663
13237TIP3   OH239667   1.993   1.905   1.060
13237TIP3    H139668   2.039   1.874   1.138
13237TIP3    H239669   1.900   1.893   1.081
13238TIP3   OH239670   3.662   2.679   4.403
13238TIP3    H139671   3.697   2.713   4.485
13238TIP3    H239672   3.722   2.713   4.336
13239TIP3   OH239673   1.930   0.947   4.554
13239TIP3    H139674   1.967   0.864   4.583
13239TIP3    H239675   1.836   0.938   4.570
13240TIP3   OH239676   1.695   1.184   3.174
13240TIP3    H139677   1.750   1.199   3.097
13240TIP3    H239678   1.632   1.256   3.173
13241TIP3   OH239679   5.568   6.726   5.422
13241TIP3    H139680   5.474   6.715   5.412
13241TIP3    H239681   5.579   6.818   5.445
13242TIP3   OH239682   6.418   5.816   4.639
13242TIP3    H139683   6.372   5.830   4.722
13242TIP3    H239684   6.493   5.761   4.662
13243TIP3   OH239685   3.582   5.535   5.517
13243TIP3    H139686   3.545   5.450   5.494
13243TIP3    H239687   3.510   5.597   5.505
13244TIP3   OH239688   3.582   3.483   4.846
13244TIP3    H139689   3.590   3.557   4.786
13244TIP3    H239690   3.578   3.406   4.788
13245TIP3   OH239691   7.766   5.202   3.791
13245TIP3    H139692   7.695   5.258   3.761
13245TIP3    H239693   7.747   5.187   3.884
13246TIP3   OH239694   3.632   6.148   4.634
13246TIP3    H139695   3.634   6.220   4.696
13246TIP3    H239696   3.541   6.118   4.635
13247TIP3   OH239697   6.992   7.037   1.325
13247TIP3    H139698   6.967   7.092   1.399
13247TIP3    H239699   6.914   6.985   1.306
13248TIP3   OH239700   6.751   6.931   1.678
13248TIP3    H139701   6.688   6.873   1.721
13248TIP3    H239702   6.812   6.872   1.633
13249TIP3   OH239703   3.274   6.880   4.496
13249TIP3    H139704   3.221   6.847   4.568
13249TIP3    H239705   3.267   6.814   4.427
13250TIP3   OH239706   1.728   6.637   0.631
13250TIP3    H139707   1.733   6.545   0.659
13250TIP3    H239708   1.700   6.684   0.710
13251TIP3   OH239709   4.038   3.206   2.521
13251TIP3    H139710   3.950   3.208   2.558
13251TIP3    H239711   4.076   3.124   2.553
13252TIP3   OH239712   0.754   3.125   3.821
13252TIP3    H139713   0.684   3.158   3.877
13252TIP3    H239714   0.804   3.065   3.877
13253TIP3   OH239715   2.456   2.047   3.540
13253TIP3    H139716   2.493   2.111   3.480
13253TIP3    H239717   2.463   2.088   3.626
13254TIP3   OH239718   6.822   2.400   1.669
13254TIP3    H139719   6.888   2.341   1.705
13254TIP3    H239720   6.794   2.453   1.744
13255TIP3   OH239721   7.258   3.599   2.398
13255TIP3    H139722   7.169   3.587   2.367
13255TIP3    H239723   7.308   3.624   2.320
13256TIP3   OH239724   4.176   0.783   4.476
13256TIP3    H139725   4.230   0.711   4.509
13256TIP3    H239726   4.125   0.744   4.405
13257TIP3   OH239727   1.572   0.581   2.966
13257TIP3    H139728   1.493   0.532   2.989
13257TIP3    H239729   1.546   0.636   2.892
13258TIP3   OH239730   5.339   0.019   2.987
13258TIP3    H139731   5.384   0.073   3.052
13258TIP3    H239732   5.390  -0.062   2.985
13259TIP3   OH239733   3.322   3.887   3.371
13259TIP3    H139734   3.230   3.906   3.391
13259TIP3    H239735   3.329   3.900   3.277
13260TIP3   OH239736   5.432   5.952   0.934
13260TIP3    H139737   5.441   6.039   0.894
13260TIP3    H239738   5.406   5.895   0.862
13261TIP3   OH239739   4.429   7.304   3.795
13261TIP3    H139740   4.410   7.317   3.702
13261TIP3    H239741   4.512   7.350   3.809
13262TIP3   OH239742   2.069   6.450   6.505
13262TIP3    H139743   2.117   6.523   6.466
13262TIP3    H239744   2.002   6.491   6.559
13263TIP3   OH239745   6.679   3.671   1.992
13263TIP3    H139746   6.755   3.709   1.948
13263TIP3    H239747   6.659   3.592   1.941
13264TIP3   OH239748   8.198   1.996   2.215
13264TIP3    H139749   8.153   1.912   2.206
13264TIP3    H239750   8.155   2.054   2.152
13265TIP3   OH239751   2.067   2.354   0.590
13265TIP3    H139752   2.090   2.265   0.564
13265TIP3    H239753   2.127   2.375   0.661
13266TIP3   OH239754   5.415   5.539   2.596
13266TIP3    H139755   5.403   5.579   2.510
13266TIP3    H239756   5.384   5.605   2.658
13267TIP3   OH239757   5.226   1.170   5.999
13267TIP3    H139758   5.296   1.108   5.979
13267TIP3    H239759   5.254   1.252   5.958
13268TIP3   OH239760   7.136   0.398   0.217
13268TIP3    H139761   7.050   0.375   0.183
13268TIP3    H239762   7.170   0.463   0.155
13269TIP3   OH239763   2.607   0.018   3.944
13269TIP3    H139764   2.552  -0.056   3.969
13269TIP3    H239765   2.626   0.063   4.026
13270TIP3   OH239766   7.387   0.609   5.146
13270TIP3    H139767   7.335   0.573   5.075
13270TIP3    H239768   7.476   0.613   5.111
13271TIP3   OH239769   5.508   3.668   4.596
13271TIP3    H139770   5.583   3.621   4.634
13271TIP3    H239771   5.434   3.641   4.650
13272TIP3   OH239772   7.557   2.622   1.523
13272TIP3    H139773   7.476   2.673   1.532
13272TIP3    H239774   7.594   2.650   1.439
13273TIP3   OH239775   4.529   5.366   4.212
13273TIP3    H139776   4.546   5.379   4.306
13273TIP3    H239777   4.472   5.288   4.210
13274TIP3   OH239778   4.350   0.067   4.759
13274TIP3    H139779   4.423   0.030   4.710
13274TIP3    H239780   4.357   0.028   4.846
13275TIP3   OH239781   3.044   7.643   3.665
13275TIP3    H139782   3.135   7.650   3.637
13275TIP3    H239783   3.007   7.575   3.609
13276TIP3   OH239784   1.677   0.785   5.896
13276TIP3    H139785   1.706   0.705   5.939
13276TIP3    H239786   1.748   0.806   5.835
13277TIP3   OH239787   8.245   4.551   1.283
13277TIP3    H139788   8.245   4.644   1.305
13277TIP3    H239789   8.167   4.539   1.228
13278TIP3   OH239790   0.131   2.342   6.107
13278TIP3    H139791   0.181   2.421   6.126
13278TIP3    H239792   0.137   2.330   6.013
13279TIP3   OH239793   1.266   6.308   1.005
13279TIP3    H139794   1.245   6.296   0.912
13279TIP3    H239795   1.359   6.285   1.011
13280TIP3   OH239796   4.828   0.880   4.884
13280TIP3    H139797   4.747   0.855   4.839
13280TIP3    H239798   4.873   0.797   4.899
13281TIP3   OH239799   8.150   2.185   3.878
13281TIP3    H139800   8.237   2.160   3.908
13281TIP3    H239801   8.158   2.279   3.859
13282TIP3   OH239802   0.931   3.977   2.131
13282TIP3    H139803   0.892   3.969   2.044
13282TIP3    H239804   1.006   3.916   2.129
13283TIP3   OH239805   6.333   6.290   0.634
13283TIP3    H139806   6.396   6.355   0.667
13283TIP3    H239807   6.315   6.233   0.709
13284TIP3   OH239808   2.079   6.492   3.691
13284TIP3    H139809   2.131   6.571   3.709
13284TIP3    H239810   1.989   6.523   3.687
13285TIP3   OH239811   2.067   7.614   4.089
13285TIP3    H139812   2.076   7.519   4.100
13285TIP3    H239813   2.037   7.625   3.999
13286TIP3   OH239814   4.847   6.524   1.815
13286TIP3    H139815   4.884   6.550   1.730
13286TIP3    H239816   4.754   6.512   1.797
13287TIP3   OH239817   3.930   2.098   2.541
13287TIP3    H139818   4.013   2.073   2.582
13287TIP3    H239819   3.886   2.015   2.523
13288TIP3   OH239820   4.992   7.069   5.469
13288TIP3    H139821   5.087   7.073   5.470
13288TIP3    H239822   4.970   6.988   5.515
13289TIP3   OH239823   4.548   4.231   3.682
13289TIP3    H139824   4.589   4.262   3.601
13289TIP3    H239825   4.614   4.247   3.750
13290TIP3   OH239826   2.531   3.491   4.606
13290TIP3    H139827   2.590   3.532   4.543
13290TIP3    H239828   2.588   3.446   4.668
13291TIP3   OH239829   4.803   2.616   4.572
13291TIP3    H139830   4.844   2.624   4.657
13291TIP3    H239831   4.872   2.638   4.509
13292TIP3   OH239832   5.328   1.414   2.402
13292TIP3    H139833   5.286   1.482   2.453
13292TIP3    H239834   5.386   1.369   2.465
13293TIP3   OH239835   1.624   5.301   0.102
13293TIP3    H139836   1.614   5.253   0.020
13293TIP3    H239837   1.718   5.303   0.118
13294TIP3   OH239838   6.667   5.638   4.333
13294TIP3    H139839   6.676   5.663   4.425
13294TIP3    H239840   6.737   5.687   4.289
13295TIP3   OH239841   4.592   1.698   3.444
13295TIP3    H139842   4.614   1.717   3.536
13295TIP3    H239843   4.636   1.767   3.395
13296TIP3   OH239844   3.499   2.060   5.088
13296TIP3    H139845   3.585   2.077   5.050
13296TIP3    H239846   3.442   2.124   5.046
13297TIP3   OH239847   4.676   2.020   5.730
13297TIP3    H139848   4.687   2.062   5.816
13297TIP3    H239849   4.633   2.086   5.676
13298TIP3   OH239850   7.024   2.957   5.463
13298TIP3    H139851   7.029   3.025   5.396
13298TIP3    H239852   6.934   2.924   5.457
13299TIP3   OH239853   7.936   3.125   0.064
13299TIP3    H139854   8.022   3.114   0.105
13299TIP3    H239855   7.951   3.189  -0.005
13300TIP3   OH239856   2.059   4.705   5.214
13300TIP3    H139857   2.061   4.796   5.245
13300TIP3    H239858   2.097   4.708   5.127
13301TIP3   OH239859   0.599   7.011   3.706
13301TIP3    H139860   0.512   7.050   3.716
13301TIP3    H239861   0.644   7.069   3.643
13302TIP3   OH239862   5.459   6.447   3.415
13302TIP3    H139863   5.516   6.397   3.356
13302TIP3    H239864   5.371   6.416   3.395
13303TIP3   OH239865   0.928   6.590   6.205
13303TIP3    H139866   0.995   6.623   6.265
13303TIP3    H239867   0.845   6.617   6.246
13304TIP3   OH239868   0.762   6.913   1.355
13304TIP3    H139869   0.829   6.969   1.316
13304TIP3    H239870   0.765   6.933   1.449
13305TIP3   OH239871   1.190   4.755   1.262
13305TIP3    H139872   1.135   4.834   1.268
13305TIP3    H239873   1.244   4.758   1.341
13306TIP3   OH239874   5.829   3.529   4.418
13306TIP3    H139875   5.818   3.537   4.513
13306TIP3    H239876   5.777   3.601   4.382
13307TIP3   OH239877   2.234   5.398   6.459
13307TIP3    H139878   2.144   5.363   6.462
13307TIP3    H239879   2.242   5.452   6.537
13308TIP3   OH239880   4.283   2.981   0.402
13308TIP3    H139881   4.369   3.002   0.365
13308TIP3    H239882   4.221   3.013   0.337
13309TIP3   OH239883   3.219   1.449   4.149
13309TIP3    H139884   3.299   1.403   4.174
13309TIP3    H239885   3.221   1.530   4.201
13310TIP3   OH239886   6.954   4.363   4.400
13310TIP3    H139887   6.979   4.455   4.386
13310TIP3    H239888   6.858   4.366   4.409
13311TIP3   OH239889   4.527   0.924   2.445
13311TIP3    H139890   4.611   0.955   2.479
13311TIP3    H239891   4.480   0.891   2.521
13312TIP3   OH239892   7.661   6.573   4.233
13312TIP3    H139893   7.737   6.624   4.205
13312TIP3    H239894   7.631   6.616   4.313
13313TIP3   OH239895   3.839   3.640   1.653
13313TIP3    H139896   3.923   3.597   1.643
13313TIP3    H239897   3.841   3.678   1.741
13314TIP3   OH239898   4.361   2.946   4.834
13314TIP3    H139899   4.438   2.927   4.886
13314TIP3    H239900   4.372   3.036   4.805
13315TIP3   OH239901   2.751   4.829   3.896
13315TIP3    H139902   2.793   4.752   3.935
13315TIP3    H239903   2.824   4.886   3.873
13316TIP3   OH239904   1.471   3.204   4.062
13316TIP3    H139905   1.432   3.118   4.044
13316TIP3    H239906   1.410   3.266   4.020
13317TIP3   OH239907   1.575   3.536   6.624
13317TIP3    H139908   1.605   3.608   6.679
13317TIP3    H239909   1.581   3.458   6.680
13318TIP3   OH239910   4.524   6.447   4.800
13318TIP3    H139911   4.524   6.468   4.706
13318TIP3    H239912   4.437   6.474   4.830
13319TIP3   OH239913   2.484   6.225   1.103
13319TIP3    H139914   2.545   6.156   1.128
13319TIP3    H239915   2.451   6.259   1.186
13320TIP3   OH239916   0.906   0.081   2.101
13320TIP3    H139917   0.885   0.174   2.098
13320TIP3    H239918   0.847   0.041   2.037
13321TIP3   OH239919   3.400   5.958   0.181
13321TIP3    H139920   3.470   5.968   0.116
13321TIP3    H239921   3.332   5.907   0.136
13322TIP3   OH239922   5.377   1.334   4.159
13322TIP3    H139923   5.420   1.284   4.089
13322TIP3    H239924   5.318   1.271   4.200
13323TIP3   OH239925   4.646   5.797   6.534
13323TIP3    H139926   4.715   5.749   6.579
13323TIP3    H239927   4.589   5.729   6.497
13324TIP3   OH239928   1.433   5.834   0.776
13324TIP3    H139929   1.499   5.765   0.770
13324TIP3    H239930   1.352   5.788   0.797
13325TIP3   OH239931   7.281   3.770   4.760
13325TIP3    H139932   7.200   3.765   4.811
13325TIP3    H239933   7.314   3.680   4.758
13326TIP3   OH239934   5.830   7.040   6.247
13326TIP3    H139935   5.822   7.104   6.318
13326TIP3    H239936   5.897   7.076   6.189
13327TIP3   OH239937   3.665   3.367   3.233
13327TIP3    H139938   3.597   3.389   3.297
13327TIP3    H239939   3.711   3.293   3.272
13328TIP3   OH239940   1.569   6.291   6.073
13328TIP3    H139941   1.664   6.304   6.075
13328TIP3    H239942   1.539   6.326   6.156
13329TIP3   OH239943   2.255   0.497   0.616
13329TIP3    H139944   2.227   0.564   0.678
13329TIP3    H239945   2.200   0.421   0.637
13330TIP3   OH239946   2.543   0.392   5.787
13330TIP3    H139947   2.552   0.414   5.880
13330TIP3    H239948   2.483   0.457   5.752
13331TIP3   OH239949   3.336   3.653   3.967
13331TIP3    H139950   3.420   3.612   3.943
13331TIP3    H239951   3.303   3.688   3.885
13332TIP3   OH239952   2.261   5.129   2.370
13332TIP3    H139953   2.166   5.137   2.366
13332TIP3    H239954   2.277   5.064   2.439
13333TIP3   OH239955   0.283   2.735   4.936
13333TIP3    H139956   0.244   2.773   4.858
13333TIP3    H239957   0.377   2.740   4.921
13334TIP3   OH239958   1.190   6.179   1.840
13334TIP3    H139959   1.145   6.263   1.840
13334TIP3    H239960   1.191   6.152   1.748
13335TIP3   OH239961   5.884   6.927   4.801
13335TIP3    H139962   5.811   6.989   4.802
13335TIP3    H239963   5.942   6.959   4.870
13336TIP3   OH239964   4.169   3.615   1.764
13336TIP3    H139965   4.154   3.647   1.675
13336TIP3    H239966   4.101   3.657   1.816
13337TIP3   OH239967   7.844   4.687   1.188
13337TIP3    H139968   7.826   4.695   1.282
13337TIP3    H239969   7.842   4.593   1.171
13338TIP3   OH239970   8.022   7.340   1.773
13338TIP3    H139971   8.051   7.251   1.751
13338TIP3    H239972   7.960   7.328   1.845
13339TIP3   OH239973   5.988   5.345   0.030
13339TIP3    H139974   5.947   5.301  -0.045
13339TIP3    H239975   6.081   5.322   0.021
13340TIP3   OH239976   1.370   6.528   4.097
13340TIP3    H139977   1.291   6.576   4.074
13340TIP3    H239978   1.406   6.498   4.014
13341TIP3   OH239979   6.050   4.807   6.495
13341TIP3    H139980   5.985   4.765   6.439
13341TIP3    H239981   6.126   4.819   6.439
13342TIP3   OH239982   3.871   6.442   0.077
13342TIP3    H139983   3.877   6.369   0.139
13342TIP3    H239984   3.868   6.520   0.133
13343TIP3   OH239985   2.106   0.635   2.984
13343TIP3    H139986   2.059   0.597   2.910
13343TIP3    H239987   2.164   0.564   3.014
13344TIP3   OH239988   8.057   2.580   6.097
13344TIP3    H139989   8.107   2.517   6.149
13344TIP3    H239990   8.080   2.665   6.134
13345TIP3   OH239991   1.655   1.086   5.019
13345TIP3    H139992   1.609   1.170   5.028
13345TIP3    H239993   1.684   1.084   4.928
13346TIP3   OH239994   5.322   4.110   5.110
13346TIP3    H139995   5.275   4.180   5.156
13346TIP3    H239996   5.261   4.036   5.112
13347TIP3   OH239997   3.526   0.558   4.096
13347TIP3    H139998   3.529   0.465   4.115
13347TIP3    H239999   3.618   0.582   4.081
13348TIP3   OH240000   0.906   5.206   5.876
13348TIP3    H140001   0.980   5.211   5.936
13348TIP3    H240002   0.857   5.286   5.892
13349TIP3   OH240003   3.334   1.162   3.022
13349TIP3    H140004   3.322   1.256   3.008
13349TIP3    H240005   3.353   1.154   3.116
13350TIP3   OH240006   1.937   2.253   2.959
13350TIP3    H140007   2.011   2.220   3.009
13350TIP3    H240008   1.870   2.273   3.024
13351TIP3   OH240009   1.203   3.140   1.093
13351TIP3    H140010   1.254   3.175   1.165
13351TIP3    H240011   1.252   3.165   1.014
13352TIP3   OH240012   2.729   4.977   6.642
13352TIP3    H140013   2.817   4.943   6.660
13352TIP3    H240014   2.742   5.039   6.571
13353TIP3   OH240015   1.089   1.374   6.796
13353TIP3    H140016   1.008   1.413   6.830
13353TIP3    H240017   1.108   1.424   6.717
13354TIP3   OH240018   3.282   3.791   1.351
13354TIP3    H140019   3.201   3.800   1.401
13354TIP3    H240020   3.331   3.723   1.396
13355TIP3   OH240021   1.591   1.411   1.113
13355TIP3    H140022   1.570   1.331   1.161
13355TIP3    H240023   1.559   1.395   1.024
13356TIP3   OH240024   2.690   0.330   6.555
13356TIP3    H140025   2.631   0.368   6.490
13356TIP3    H240026   2.678   0.235   6.546
13357TIP3   OH240027   2.962   3.176   5.334
13357TIP3    H140028   2.897   3.237   5.369
13357TIP3    H240029   3.046   3.214   5.361
13358TIP3   OH240030   1.934   6.982   1.508
13358TIP3    H140031   1.914   6.969   1.601
13358TIP3    H240032   2.022   7.020   1.508
13359TIP3   OH240033   6.714   4.611   4.934
13359TIP3    H140034   6.775   4.573   4.998
13359TIP3    H240035   6.667   4.535   4.898
13360TIP3   OH240036   1.561   7.235   6.717
13360TIP3    H140037   1.652   7.258   6.736
13360TIP3    H240038   1.552   7.249   6.623
13361TIP3   OH240039   6.633   1.310   6.491
13361TIP3    H140040   6.621   1.244   6.559
13361TIP3    H240041   6.708   1.362   6.521
13362TIP3   OH240042   4.006   2.400   5.731
13362TIP3    H140043   4.015   2.413   5.637
13362TIP3    H240044   3.933   2.338   5.739
13363TIP3   OH240045   5.521   0.902   6.700
13363TIP3    H140046   5.563   0.979   6.660
13363TIP3    H240047   5.439   0.892   6.651
13364TIP3   OH240048   4.163   3.024   0.005
13364TIP3    H140049   4.236   3.084  -0.012
13364TIP3    H240050   4.152   3.027   0.100
13365TIP3   OH240051   4.002   6.453   4.492
13365TIP3    H140052   3.950   6.373   4.485
13365TIP3    H240053   3.970   6.496   4.571
13366TIP3   OH240054   7.632   3.088   3.348
13366TIP3    H140055   7.640   3.086   3.443
13366TIP3    H240056   7.541   3.062   3.331
13367TIP3   OH240057   3.017   4.683   5.052
13367TIP3    H140058   3.056   4.678   4.965
13367TIP3    H240059   3.077   4.738   5.102
13368TIP3   OH240060   5.693   3.072   1.785
13368TIP3    H140061   5.653   3.106   1.864
13368TIP3    H240062   5.623   3.070   1.720
13369TIP3   OH240063   8.280   4.376   4.262
13369TIP3    H140064   8.342   4.320   4.215
13369TIP3    H240065   8.217   4.404   4.195
13370TIP3   OH240066   7.163   3.544   1.494
13370TIP3    H140067   7.193   3.455   1.479
13370TIP3    H240068   7.072   3.534   1.524
13371TIP3   OH240069   6.836   3.050   1.566
13371TIP3    H140070   6.907   3.009   1.517
13371TIP3    H240071   6.877   3.085   1.645
13372TIP3   OH240072   3.391   6.639   5.376
13372TIP3    H140073   3.409   6.722   5.420
13372TIP3    H240074   3.371   6.664   5.286
13373TIP3   OH240075   3.216   4.036   2.199
13373TIP3    H140076   3.196   3.999   2.113
13373TIP3    H240077   3.188   4.127   2.193
13374TIP3   OH240078   0.449   7.619   2.677
13374TIP3    H140079   0.432   7.542   2.731
13374TIP3    H240080   0.462   7.690   2.739
13375TIP3   OH240081   7.715   2.060   3.978
13375TIP3    H140082   7.784   2.051   3.913
13375TIP3    H240083   7.646   2.109   3.932
13376TIP3   OH240084   0.126   1.144   5.066
13376TIP3    H140085   0.102   1.142   4.974
13376TIP3    H240086   0.057   1.197   5.107
13377TIP3   OH240087   3.141   1.300   0.732
13377TIP3    H140088   3.206   1.292   0.663
13377TIP3    H240089   3.069   1.242   0.704
13378TIP3   OH240090   5.281   2.330   6.227
13378TIP3    H140091   5.188   2.308   6.214
13378TIP3    H240092   5.315   2.258   6.281
13379TIP3   OH240093   6.798   0.350   2.542
13379TIP3    H140094   6.766   0.353   2.632
13379TIP3    H240095   6.851   0.429   2.534
13380TIP3   OH240096   0.016   0.939   5.693
13380TIP3    H140097  -0.029   1.022   5.677
13380TIP3    H240098   0.068   0.924   5.614
13381TIP3   OH240099   0.088   5.600   3.997
13381TIP3    H140100   0.121   5.690   4.001
13381TIP3    H240101   0.128   5.564   3.917
13382TIP3   OH240102   3.767   5.933   4.738
13382TIP3    H140103   3.766   5.864   4.672
13382TIP3    H240104   3.711   6.002   4.701
13383TIP3   OH240105   1.821   0.208   2.748
13383TIP3    H140106   1.752   0.227   2.684
13383TIP3    H240107   1.820   0.283   2.807
13384TIP3   OH240108   2.991   3.514   2.996
13384TIP3    H140109   2.900   3.520   2.967
13384TIP3    H240110   2.985   3.493   3.089
13385TIP3   OH240111   7.468   5.213   0.127
13385TIP3    H140112   7.394   5.241   0.181
13385TIP3    H240113   7.540   5.200   0.189
13386TIP3   OH240114   2.405   6.586   5.954
13386TIP3    H140115   2.465   6.657   5.934
13386TIP3    H240116   2.461   6.509   5.967
13387TIP3   OH240117   6.844   1.299   5.915
13387TIP3    H140118   6.819   1.275   5.826
13387TIP3    H240119   6.843   1.216   5.963
13388TIP3   OH240120   7.410   2.111   4.169
13388TIP3    H140121   7.424   2.137   4.078
13388TIP3    H240122   7.384   2.191   4.214
13389TIP3   OH240123   1.461   0.272   4.935
13389TIP3    H140124   1.391   0.236   4.880
13389TIP3    H240125   1.542   0.241   4.894
13390TIP3   OH240126   7.047   1.786   5.437
13390TIP3    H140127   7.017   1.750   5.354
13390TIP3    H240128   6.994   1.865   5.449
13391TIP3   OH240129   7.235   7.104   2.262
13391TIP3    H140130   7.218   7.198   2.262
13391TIP3    H240131   7.152   7.065   2.290
13392TIP3   OH240132   0.508   3.073   4.320
13392TIP3    H140133   0.493   3.042   4.409
13392TIP3    H240134   0.488   3.166   4.323
13393TIP3   OH240135   7.756   1.609   5.251
13393TIP3    H140136   7.726   1.561   5.174
13393TIP3    H240137   7.789   1.542   5.311
13394TIP3   OH240138   1.854   7.573   3.334
13394TIP3    H140139   1.851   7.650   3.277
13394TIP3    H240140   1.942   7.575   3.371
13395TIP3   OH240141   7.317   3.763   6.722
13395TIP3    H140142   7.361   3.835   6.676
13395TIP3    H240143   7.389   3.705   6.747
13396TIP3   OH240144   7.876   6.199   1.269
13396TIP3    H140145   7.886   6.293   1.258
13396TIP3    H240146   7.851   6.167   1.182
13397TIP3   OH240147   2.538   6.299   5.523
13397TIP3    H140148   2.544   6.291   5.428
13397TIP3    H240149   2.564   6.213   5.556
13398TIP3   OH240150   4.976   3.910   2.444
13398TIP3    H140151   4.923   3.911   2.364
13398TIP3    H240152   4.913   3.927   2.515
13399TIP3   OH240153   1.520   2.494   1.932
13399TIP3    H140154   1.486   2.423   1.987
13399TIP3    H240155   1.530   2.455   1.846
13400TIP3   OH240156   4.804   2.698   0.871
13400TIP3    H140157   4.880   2.702   0.928
13400TIP3    H240158   4.813   2.616   0.824
13401TIP3   OH240159   7.076   3.930   0.258
13401TIP3    H140160   7.066   3.837   0.237
13401TIP3    H240161   7.105   3.931   0.349
13402TIP3   OH240162   4.016   3.176   2.141
13402TIP3    H140163   4.094   3.161   2.086
13402TIP3    H240164   4.051   3.212   2.222
13403TIP3   OH240165   5.253   3.604   4.998
13403TIP3    H140166   5.255   3.569   5.087
13403TIP3    H240167   5.160   3.605   4.975
13404TIP3   OH240168   0.721   0.317   2.577
13404TIP3    H140169   0.709   0.339   2.670
13404TIP3    H240170   0.636   0.336   2.537
13405TIP3   OH240171   7.689   1.232   6.523
13405TIP3    H140172   7.672   1.177   6.600
13405TIP3    H240173   7.723   1.314   6.560
13406TIP3   OH240174   2.078   4.975   5.121
13406TIP3    H140175   2.037   4.974   5.034
13406TIP3    H240176   2.094   5.068   5.138
13407TIP3   OH240177   7.136   2.469   5.051
13407TIP3    H140178   7.052   2.476   5.006
13407TIP3    H240179   7.171   2.385   5.022
13408TIP3   OH240180   2.189   5.536   1.130
13408TIP3    H140181   2.146   5.465   1.082
13408TIP3    H240182   2.270   5.552   1.081
13409TIP3   OH240183   5.761   5.586   1.309
13409TIP3    H140184   5.730   5.496   1.300
13409TIP3    H240185   5.839   5.579   1.364
13410TIP3   OH240186   2.024   3.684   3.734
13410TIP3    H140187   2.039   3.641   3.650
13410TIP3    H240188   1.965   3.625   3.782
13411TIP3   OH240189   0.372   6.970   4.657
13411TIP3    H140190   0.449   7.012   4.618
13411TIP3    H240191   0.297   7.011   4.614
13412TIP3   OH240192   2.431   0.217   6.716
13412TIP3    H140193   2.459   0.154   6.650
13412TIP3    H240194   2.336   0.208   6.719
13413TIP3   OH240195   3.069   0.190   1.214
13413TIP3    H140196   3.119   0.126   1.264
13413TIP3    H240197   2.978   0.177   1.242
13414TIP3   OH240198   1.257   4.068   0.208
13414TIP3    H140199   1.336   4.017   0.228
13414TIP3    H240200   1.253   4.133   0.278
13415TIP3   OH240201   1.922   5.867   0.974
13415TIP3    H140202   1.906   5.785   0.927
13415TIP3    H240203   1.842   5.882   1.024
13416TIP3   OH240204   7.279   7.053   6.364
13416TIP3    H140205   7.285   6.969   6.411
13416TIP3    H240206   7.201   7.045   6.310
13417TIP3   OH240207   5.169   2.442   1.887
13417TIP3    H140208   5.230   2.444   1.814
13417TIP3    H240209   5.196   2.366   1.940
13418TIP3   OH240210   2.511   6.872   2.719
13418TIP3    H140211   2.569   6.843   2.648
13418TIP3    H240212   2.510   6.798   2.780
13419TIP3   OH240213   3.702   3.815   5.165
13419TIP3    H140214   3.657   3.852   5.241
13419TIP3    H240215   3.631   3.787   5.106
13420TIP3   OH240216   0.325   1.010   5.196
13420TIP3    H140217   0.260   1.061   5.149
13420TIP3    H240218   0.305   1.024   5.289
13421TIP3   OH240219   6.518   5.080   5.966
13421TIP3    H140220   6.430   5.097   5.933
13421TIP3    H240221   6.505   5.035   6.049
13422TIP3   OH240222   4.036   5.576   0.337
13422TIP3    H140223   4.066   5.593   0.426
13422TIP3    H240224   4.099   5.621   0.281
13423TIP3   OH240225   7.212   5.454   5.603
13423TIP3    H140226   7.249   5.396   5.536
13423TIP3    H240227   7.232   5.411   5.686
13424TIP3   OH240228   1.108   5.395   2.009
13424TIP3    H140229   1.124   5.474   1.957
13424TIP3    H240230   1.173   5.400   2.079
13425TIP3   OH240231   2.666   4.550   0.783
13425TIP3    H140232   2.658   4.485   0.712
13425TIP3    H240233   2.757   4.577   0.780
13426TIP3   OH240234   6.313   1.912   1.079
13426TIP3    H140235   6.388   1.923   1.021
13426TIP3    H240236   6.349   1.874   1.158
13427TIP3   OH240237   4.197   0.601   3.838
13427TIP3    H140238   4.275   0.563   3.796
13427TIP3    H240239   4.128   0.591   3.773
13428TIP3   OH240240   6.168   2.555   3.937
13428TIP3    H140241   6.119   2.636   3.952
13428TIP3    H240242   6.256   2.574   3.968
13429TIP3   OH240243   6.649   2.783   4.039
13429TIP3    H140244   6.591   2.811   4.110
13429TIP3    H240245   6.702   2.860   4.020
13430TIP3   OH240246   1.550   6.240   0.339
13430TIP3    H140247   1.541   6.150   0.372
13430TIP3    H240248   1.614   6.233   0.269
13431TIP3   OH240249   7.505   4.159   1.708
13431TIP3    H140250   7.419   4.160   1.667
13431TIP3    H240251   7.523   4.066   1.722
13432TIP3   OH240252   0.152   4.269   1.823
13432TIP3    H140253   0.161   4.278   1.728
13432TIP3    H240254   0.058   4.280   1.839
13433TIP3   OH240255   1.458   3.626   2.543
13433TIP3    H140256   1.483   3.535   2.561
13433TIP3    H240257   1.445   3.628   2.448
13434TIP3   OH240258   1.432   1.759   4.096
13434TIP3    H140259   1.388   1.809   4.164
13434TIP3    H240260   1.396   1.792   4.014
13435TIP3   OH240261   1.354   4.414   5.485
13435TIP3    H140262   1.367   4.463   5.566
13435TIP3    H240263   1.259   4.402   5.479
13436TIP3   OH240264   3.384   4.225   1.133
13436TIP3    H140265   3.411   4.176   1.210
13436TIP3    H240266   3.368   4.158   1.067
13437TIP3   OH240267   1.659   2.354   5.354
13437TIP3    H140268   1.631   2.425   5.296
13437TIP3    H240269   1.595   2.284   5.338
13438TIP3   OH240270   6.201   7.745   6.498
13438TIP3    H140271   6.268   7.803   6.463
13438TIP3    H240272   6.188   7.774   6.588
13439TIP3   OH240273   5.635   3.256   3.093
13439TIP3    H140274   5.568   3.201   3.133
13439TIP3    H240275   5.703   3.264   3.160
13440TIP3   OH240276   6.995   1.388   2.889
13440TIP3    H140277   7.050   1.456   2.927
13440TIP3    H240278   6.938   1.360   2.960
13441TIP3   OH240279   6.374   2.145   1.543
13441TIP3    H140280   6.439   2.127   1.611
13441TIP3    H240281   6.291   2.121   1.583
13442TIP3   OH240282   0.571   4.441   3.441
13442TIP3    H140283   0.499   4.407   3.387
13442TIP3    H240284   0.637   4.469   3.377
13443TIP3   OH240285   2.819   1.391   5.422
13443TIP3    H140286   2.725   1.394   5.438
13443TIP3    H240287   2.859   1.425   5.502
13444TIP3   OH240288   4.562   5.964   2.486
13444TIP3    H140289   4.641   5.914   2.468
13444TIP3    H240290   4.507   5.952   2.409
13445TIP3   OH240291   2.127   4.634   1.111
13445TIP3    H140292   2.185   4.599   1.178
13445TIP3    H240293   2.153   4.589   1.031
13446TIP3   OH240294   0.798   5.183   0.150
13446TIP3    H140295   0.828   5.217   0.235
13446TIP3    H240296   0.722   5.129   0.172
13447TIP3   OH240297   1.627   7.840   0.120
13447TIP3    H140298   1.679   7.768   0.083
13447TIP3    H240299   1.643   7.834   0.214
13448TIP3   OH240300   5.788   2.167   3.635
13448TIP3    H140301   5.831   2.194   3.553
13448TIP3    H240302   5.860   2.158   3.698
13449TIP3   OH240303   8.292   5.785   0.222
13449TIP3    H140304   8.250   5.747   0.144
13449TIP3    H240305   8.221   5.791   0.286
13450TIP3   OH240306   4.249   7.363   3.214
13450TIP3    H140307   4.266   7.276   3.249
13450TIP3    H240308   4.156   7.379   3.234
13451TIP3   OH240309   1.262   5.334   0.757
13451TIP3    H140310   1.297   5.319   0.845
13451TIP3    H240311   1.322   5.286   0.700
13452TIP3   OH240312   1.838   2.188   0.868
13452TIP3    H140313   1.904   2.122   0.847
13452TIP3    H240314   1.772   2.178   0.799
13453TIP3   OH240315   7.200   1.142   6.148
13453TIP3    H140316   7.263   1.178   6.086
13453TIP3    H240317   7.248   1.135   6.230
13454TIP3   OH240318   5.790   0.792   6.767
13454TIP3    H140319   5.853   0.720   6.770
13454TIP3    H240320   5.710   0.753   6.731
13455TIP3   OH240321   2.429   3.673   0.603
13455TIP3    H140322   2.403   3.590   0.563
13455TIP3    H240323   2.428   3.655   0.697
13456TIP3   OH240324   4.601   5.637   0.405
13456TIP3    H140325   4.581   5.626   0.498
13456TIP3    H240326   4.694   5.618   0.397
13457TIP3   OH240327   3.963   4.841   4.007
13457TIP3    H140328   4.041   4.873   4.052
13457TIP3    H240329   3.890   4.885   4.051
13458TIP3   OH240330   3.634   1.916   3.804
13458TIP3    H140331   3.706   1.913   3.866
13458TIP3    H240332   3.558   1.883   3.853
13459TIP3   OH240333   4.726   0.851   6.153
13459TIP3    H140334   4.809   0.807   6.136
13459TIP3    H240335   4.740   0.895   6.237
13460TIP3   OH240336   8.235   2.786   6.554
13460TIP3    H140337   8.267   2.825   6.636
13460TIP3    H240338   8.144   2.763   6.572
13461TIP3   OH240339   1.919   7.130   4.828
13461TIP3    H140340   1.945   7.102   4.741
13461TIP3    H240341   1.865   7.059   4.862
13462TIP3   OH240342   8.215   5.709   5.200
13462TIP3    H140343   8.222   5.627   5.249
13462TIP3    H240344   8.296   5.714   5.149
13463TIP3   OH240345   0.075   5.423   5.367
13463TIP3    H140346   0.060   5.353   5.430
13463TIP3    H240347   0.170   5.431   5.361
13464TIP3   OH240348   7.226   2.186   2.381
13464TIP3    H140349   7.168   2.160   2.309
13464TIP3    H240350   7.213   2.280   2.390
13465TIP3   OH240351   0.807   4.949   2.920
13465TIP3    H140352   0.740   4.969   2.855
13465TIP3    H240353   0.761   4.952   3.004
13466TIP3   OH240354   3.075   4.036   6.404
13466TIP3    H140355   3.063   4.112   6.347
13466TIP3    H240356   3.169   4.019   6.402
13467TIP3   OH240357   3.353   5.158   1.896
13467TIP3    H140358   3.369   5.086   1.957
13467TIP3    H240359   3.411   5.139   1.822
13468TIP3   OH240360   3.253   7.572   2.165
13468TIP3    H140361   3.300   7.594   2.245
13468TIP3    H240362   3.238   7.656   2.121
13469TIP3   OH240363   5.041   7.124   3.143
13469TIP3    H140364   5.093   7.067   3.087
13469TIP3    H240365   4.958   7.077   3.154
13470TIP3   OH240366   0.946   7.603   3.777
13470TIP3    H140367   1.006   7.585   3.705
13470TIP3    H240368   0.969   7.539   3.845
13471TIP3   OH240369   6.960   5.768   5.682
13471TIP3    H140370   6.870   5.793   5.706
13471TIP3    H240371   6.982   5.699   5.745
13472TIP3   OH240372   6.933   5.892   3.498
13472TIP3    H140373   6.945   5.953   3.572
13472TIP3    H240374   6.845   5.912   3.465
13473TIP3   OH240375   1.368   1.107   6.046
13473TIP3    H140376   1.293   1.167   6.046
13473TIP3    H240377   1.371   1.074   5.956
13474TIP3   OH240378   6.458   0.276   1.370
13474TIP3    H140379   6.547   0.267   1.406
13474TIP3    H240380   6.406   0.213   1.420
13475TIP3   OH240381   3.001   3.468   4.158
13475TIP3    H140382   2.989   3.384   4.202
13475TIP3    H240383   2.990   3.448   4.065
13476TIP3   OH240384   0.681   3.394   0.893
13476TIP3    H140385   0.764   3.346   0.899
13476TIP3    H240386   0.675   3.442   0.975
13477TIP3   OH240387   4.472   3.830   0.338
13477TIP3    H140388   4.484   3.787   0.423
13477TIP3    H240389   4.472   3.759   0.274
13478TIP3   OH240390   7.966   1.457   2.079
13478TIP3    H140391   7.876   1.488   2.068
13478TIP3    H240392   7.960   1.362   2.074
13479TIP3   OH240393   2.548   4.488   3.354
13479TIP3    H140394   2.452   4.492   3.350
13479TIP3    H240395   2.575   4.475   3.263
13480TIP3   OH240396   5.484   5.727   1.084
13480TIP3    H140397   5.477   5.802   1.025
13480TIP3    H240398   5.468   5.762   1.171
13481TIP3   OH240399   5.530   4.428   3.192
13481TIP3    H140400   5.524   4.339   3.158
13481TIP3    H240401   5.445   4.445   3.232
13482TIP3   OH240402   2.271   6.552   2.787
13482TIP3    H140403   2.225   6.630   2.756
13482TIP3    H240404   2.230   6.479   2.741
13483TIP3   OH240405   0.030   2.374   5.815
13483TIP3    H140406  -0.021   2.296   5.792
13483TIP3    H240407   0.075   2.398   5.734
13484TIP3   OH240408   3.733   6.630   1.824
13484TIP3    H140409   3.701   6.646   1.913
13484TIP3    H240410   3.822   6.665   1.824
13485TIP3   OH240411   4.446   2.451   3.125
13485TIP3    H140412   4.369   2.473   3.074
13485TIP3    H240413   4.510   2.419   3.061
13486TIP3   OH240414   2.120   1.862   0.329
13486TIP3    H140415   2.075   1.926   0.384
13486TIP3    H240416   2.204   1.903   0.309
13487TIP3   OH240417  -0.016   7.774   3.728
13487TIP3    H140418  -0.035   7.830   3.803
13487TIP3    H240419   0.056   7.718   3.758
13488TIP3   OH240420   4.817   4.702   4.804
13488TIP3    H140421   4.831   4.627   4.860
13488TIP3    H240422   4.892   4.759   4.820
13489TIP3   OH240423   0.773   7.694   4.371
13489TIP3    H140424   0.805   7.736   4.291
13489TIP3    H240425   0.714   7.760   4.409
13490TIP3   OH240426   3.607   0.238   6.157
13490TIP3    H140427   3.692   0.193   6.158
13490TIP3    H240428   3.627   0.325   6.124
13491TIP3   OH240429   1.171   2.846   4.084
13491TIP3    H140430   1.239   2.778   4.076
13491TIP3    H240431   1.191   2.890   4.166
13492TIP3   OH240432   5.864   5.535   0.636
13492TIP3    H140433   5.931   5.594   0.671
13492TIP3    H240434   5.905   5.449   0.637
13493TIP3   OH240435   1.084   1.204   5.327
13493TIP3    H140436   1.062   1.114   5.306
13493TIP3    H240437   1.047   1.256   5.255
13494TIP3   OH240438   4.012   0.334   1.091
13494TIP3    H140439   4.080   0.268   1.073
13494TIP3    H240440   3.941   0.284   1.131
13495TIP3   OH240441   3.441   4.814   5.922
13495TIP3    H140442   3.386   4.893   5.919
13495TIP3    H240443   3.379   4.741   5.915
13496TIP3   OH240444   6.190   5.104   3.600
13496TIP3    H140445   6.149   5.167   3.540
13496TIP3    H240446   6.282   5.128   3.600
13497TIP3   OH240447   0.697   3.181   3.357
13497TIP3    H140448   0.730   3.104   3.310
13497TIP3    H240449   0.752   3.253   3.326
13498TIP3   OH240450   2.328   2.044   0.508
13498TIP3    H140451   2.351   1.984   0.437
13498TIP3    H240452   2.233   2.057   0.498
13499TIP3   OH240453   5.918   4.228   5.019
13499TIP3    H140454   5.901   4.252   5.110
13499TIP3    H240455   5.832   4.227   4.977
13500TIP3   OH240456   6.764   4.141   5.163
13500TIP3    H140457   6.744   4.162   5.254
13500TIP3    H240458   6.679   4.137   5.120
13501TIP3   OH240459   4.245   5.919   3.411
13501TIP3    H140460   4.300   5.898   3.486
13501TIP3    H240461   4.281   6.000   3.376
13502TIP3   OH240462   2.530   3.361   2.614
13502TIP3    H140463   2.590   3.321   2.677
13502TIP3    H240464   2.493   3.436   2.661
13503TIP3   OH240465   6.601   3.693   5.170
13503TIP3    H140466   6.686   3.658   5.197
13503TIP3    H240467   6.562   3.624   5.116
13504TIP3   OH240468   2.393   4.819   0.505
13504TIP3    H140469   2.464   4.760   0.482
13504TIP3    H240470   2.354   4.845   0.422
13505TIP3   OH240471   3.620   5.022   6.081
13505TIP3    H140472   3.563   4.955   6.044
13505TIP3    H240473   3.584   5.104   6.050
13506TIP3   OH240474   1.847   5.624   1.626
13506TIP3    H140475   1.784   5.591   1.563
13506TIP3    H240476   1.929   5.582   1.604
13507TIP3   OH240477   4.731   1.820   2.882
13507TIP3    H140478   4.687   1.810   2.966
13507TIP3    H240479   4.717   1.737   2.837
13508TIP3   OH240480   1.789   3.819   1.396
13508TIP3    H140481   1.864   3.816   1.456
13508TIP3    H240482   1.763   3.728   1.385
13509TIP3   OH240483   1.908   4.293   4.637
13509TIP3    H140484   1.974   4.331   4.695
13509TIP3    H240485   1.936   4.319   4.549
13510TIP3   OH240486   3.568   7.596   3.441
13510TIP3    H140487   3.623   7.614   3.517
13510TIP3    H240488   3.547   7.682   3.406
13511TIP3   OH240489   8.078   3.561   6.337
13511TIP3    H140490   8.024   3.482   6.345
13511TIP3    H240491   8.015   3.633   6.334
13512TIP3   OH240492   0.162   7.241   1.585
13512TIP3    H140493   0.108   7.308   1.626
13512TIP3    H240494   0.229   7.221   1.649
13513TIP3   OH240495   3.315   7.707   3.538
13513TIP3    H140496   3.319   7.788   3.488
13513TIP3    H240497   3.315   7.637   3.472
13514TIP3   OH240498   6.858   0.576   0.298
13514TIP3    H140499   6.903   0.645   0.347
13514TIP3    H240500   6.795   0.623   0.242
13515TIP3   OH240501   3.624   3.356   5.316
13515TIP3    H140502   3.667   3.373   5.400
13515TIP3    H240503   3.560   3.287   5.335
13516TIP3   OH240504   5.828   0.390   4.300
13516TIP3    H140505   5.827   0.295   4.297
13516TIP3    H240506   5.857   0.411   4.389
13517TIP3   OH240507   7.133   5.381   6.508
13517TIP3    H140508   7.127   5.477   6.503
13517TIP3    H240509   7.075   5.357   6.581
13518TIP3   OH240510   2.592   1.164   0.101
13518TIP3    H140511   2.501   1.158   0.074
13518TIP3    H240512   2.642   1.158   0.019
13519TIP3   OH240513   3.326   5.377   4.539
13519TIP3    H140514   3.401   5.405   4.486
13519TIP3    H240515   3.275   5.457   4.551
13520TIP3   OH240516   1.099   3.393   6.082
13520TIP3    H140517   1.179   3.392   6.135
13520TIP3    H240518   1.120   3.451   6.008
13521TIP3   OH240519   2.379   5.273   4.589
13521TIP3    H140520   2.472   5.295   4.600
13521TIP3    H240521   2.341   5.289   4.676
13522TIP3   OH240522   1.583   0.127   0.829
13522TIP3    H140523   1.612   0.119   0.920
13522TIP3    H240524   1.560   0.219   0.820
13523TIP3   OH240525   2.155   4.142   4.598
13523TIP3    H140526   2.060   4.140   4.604
13523TIP3    H240527   2.173   4.205   4.528
13524TIP3   OH240528   3.317   6.876   3.984
13524TIP3    H140529   3.329   6.943   4.052
13524TIP3    H240530   3.226   6.848   3.994
13525TIP3   OH240531   6.248   3.683   3.133
13525TIP3    H140532   6.251   3.776   3.108
13525TIP3    H240533   6.298   3.679   3.214
13526TIP3   OH240534   6.815   5.969   2.689
13526TIP3    H140535   6.779   6.053   2.717
13526TIP3    H240536   6.906   5.972   2.717
13527TIP3   OH240537   3.894   7.696   4.403
13527TIP3    H140538   3.891   7.777   4.454
13527TIP3    H240539   3.849   7.717   4.321
13528TIP3   OH240540   5.937   1.971   1.820
13528TIP3    H140541   5.853   2.015   1.809
13528TIP3    H240542   5.920   1.881   1.791
13529TIP3   OH240543   0.302   0.955   0.237
13529TIP3    H140544   0.362   0.901   0.187
13529TIP3    H240545   0.358   1.014   0.287
13530TIP3   OH240546   4.299   4.157   4.778
13530TIP3    H140547   4.238   4.128   4.710
13530TIP3    H240548   4.257   4.133   4.861
13531TIP3   OH240549   2.325   5.372   1.350
13531TIP3    H140550   2.311   5.442   1.285
13531TIP3    H240551   2.376   5.306   1.302
13532TIP3   OH240552   0.838   0.987   5.997
13532TIP3    H140553   0.810   1.062   5.946
13532TIP3    H240554   0.793   0.997   6.081
13533TIP3   OH240555   3.717   6.377   3.080
13533TIP3    H140556   3.679   6.362   3.167
13533TIP3    H240557   3.648   6.351   3.019
13534TIP3   OH240558   5.692   1.598   5.635
13534TIP3    H140559   5.709   1.689   5.610
13534TIP3    H240560   5.597   1.588   5.629
13535TIP3   OH240561   6.568   7.748   5.315
13535TIP3    H140562   6.622   7.694   5.258
13535TIP3    H240563   6.548   7.692   5.390
13536TIP3   OH240564   8.288   0.191   1.292
13536TIP3    H140565   8.304   0.180   1.385
13536TIP3    H240566   8.193   0.196   1.284
13537TIP3   OH240567   1.907   6.252   0.563
13537TIP3    H140568   1.999   6.227   0.566
13537TIP3    H240569   1.888   6.261   0.470
13538TIP3   OH240570   5.241   3.075   3.705
13538TIP3    H140571   5.186   3.018   3.760
13538TIP3    H240572   5.189   3.089   3.626
13539TIP3   OH240573   0.343   6.751   0.203
13539TIP3    H140574   0.263   6.788   0.168
13539TIP3    H240575   0.314   6.680   0.261
13540TIP3   OH240576   0.208   7.368   4.057
13540TIP3    H140577   0.186   7.335   4.144
13540TIP3    H240578   0.269   7.440   4.074
13541TIP3   OH240579   5.820   6.149   1.355
13541TIP3    H140580   5.821   6.156   1.259
13541TIP3    H240581   5.844   6.058   1.372
13542TIP3   OH240582   1.814   7.737   3.104
13542TIP3    H140583   1.892   7.792   3.101
13542TIP3    H240584   1.830   7.669   3.039
13543TIP3   OH240585   5.873   1.339   4.631
13543TIP3    H140586   5.891   1.416   4.685
13543TIP3    H240587   5.856   1.269   4.694
13544TIP3   OH240588   5.863   4.100   4.273
13544TIP3    H140589   5.771   4.076   4.265
13544TIP3    H240590   5.901   4.079   4.188
13545TIP3   OH240591   7.263   7.263   0.407
13545TIP3    H140592   7.298   7.234   0.491
13545TIP3    H240593   7.285   7.192   0.347
13546TIP3   OH240594   2.521   7.781   0.911
13546TIP3    H140595   2.590   7.771   0.845
13546TIP3    H240596   2.568   7.783   0.995
13547TIP3   OH240597   3.599   6.860   3.047
13547TIP3    H140598   3.624   6.768   3.042
13547TIP3    H240599   3.593   6.878   3.141
13548TIP3   OH240600   3.730   4.790   5.883
13548TIP3    H140601   3.689   4.712   5.845
13548TIP3    H240602   3.656   4.848   5.904
13549TIP3   OH240603   1.863   2.679   3.957
13549TIP3    H140604   1.822   2.754   3.913
13549TIP3    H240605   1.946   2.667   3.911
13550TIP3   OH240606   7.805   0.851   1.225
13550TIP3    H140607   7.718   0.886   1.245
13550TIP3    H240608   7.864   0.898   1.283
13551TIP3   OH240609   5.702   7.823   1.914
13551TIP3    H140610   5.698   7.889   1.845
13551TIP3    H240611   5.678   7.741   1.869
13552TIP3   OH240612   4.020   3.401   1.657
13552TIP3    H140613   3.969   3.373   1.733
13552TIP3    H240614   4.106   3.422   1.693
13553TIP3   OH240615   7.854   2.207   5.797
13553TIP3    H140616   7.763   2.223   5.825
13553TIP3    H240617   7.895   2.294   5.802
13554TIP3   OH240618   5.886   3.407   2.055
13554TIP3    H140619   5.791   3.419   2.064
13554TIP3    H240620   5.907   3.450   1.972
13555TIP3   OH240621   2.212   0.529   6.428
13555TIP3    H140622   2.201   0.563   6.516
13555TIP3    H240623   2.251   0.602   6.379
13556TIP3   OH240624   2.095   3.023   2.027
13556TIP3    H140625   2.020   3.081   2.041
13556TIP3    H240626   2.164   3.060   2.083
13557TIP3   OH240627   6.476   6.697   2.138
13557TIP3    H140628   6.517   6.783   2.133
13557TIP3    H240629   6.412   6.697   2.067
13558TIP3   OH240630   5.407   6.680   3.109
13558TIP3    H140631   5.350   6.707   3.182
13558TIP3    H240632   5.388   6.587   3.098
13559TIP3   OH240633   4.123   1.434   2.218
13559TIP3    H140634   4.087   1.475   2.140
13559TIP3    H240635   4.213   1.410   2.193
13560TIP3   OH240636   4.056   0.715   5.828
13560TIP3    H140637   3.969   0.705   5.866
13560TIP3    H240638   4.101   0.633   5.850
13561TIP3   OH240639   3.805   0.230   3.488
13561TIP3    H140640   3.816   0.135   3.476
13561TIP3    H240641   3.883   0.257   3.537
13562TIP3   OH240642   2.231   7.377   4.443
13562TIP3    H140643   2.309   7.422   4.410
13562TIP3    H240644   2.261   7.287   4.458
13563TIP3   OH240645   4.044   2.571   3.611
13563TIP3    H140646   4.095   2.512   3.555
13563TIP3    H240647   4.055   2.535   3.699
13564TIP3   OH240648   6.960   1.196   6.263
13564TIP3    H140649   7.044   1.166   6.227
13564TIP3    H240650   6.895   1.151   6.209
13565TIP3   OH240651   7.783   1.812   3.249
13565TIP3    H140652   7.695   1.823   3.283
13565TIP3    H240653   7.772   1.758   3.170
13566TIP3   OH240654   4.084   2.762   6.301
13566TIP3    H140655   4.177   2.760   6.279
13566TIP3    H240656   4.074   2.694   6.368
13567TIP3   OH240657   3.178   6.889   1.349
13567TIP3    H140658   3.135   6.834   1.414
13567TIP3    H240659   3.270   6.888   1.373
13568TIP3   OH240660   8.007   4.583   6.368
13568TIP3    H140661   7.940   4.583   6.299
13568TIP3    H240662   7.959   4.605   6.448
13569TIP3   OH240663   3.426   1.045   0.035
13569TIP3    H140664   3.383   1.062   0.119
13569TIP3    H240665   3.375   1.096  -0.028
13570TIP3   OH240666   0.338   1.589   2.665
13570TIP3    H140667   0.404   1.529   2.629
13570TIP3    H240668   0.254   1.548   2.642
13571TIP3   OH240669   6.580   3.503   1.108
13571TIP3    H140670   6.568   3.434   1.043
13571TIP3    H240671   6.588   3.584   1.057
13572TIP3   OH240672   3.232   4.935   0.220
13572TIP3    H140673   3.162   4.983   0.264
13572TIP3    H240674   3.268   4.877   0.287
13573TIP3   OH240675   6.367   7.269   4.150
13573TIP3    H140676   6.412   7.326   4.212
13573TIP3    H240677   6.334   7.329   4.082
13574TIP3   OH240678   1.479   7.766   5.281
13574TIP3    H140679   1.505   7.688   5.330
13574TIP3    H240680   1.384   7.757   5.272
13575TIP3   OH240681   4.105   1.805   5.264
13575TIP3    H140682   4.163   1.767   5.197
13575TIP3    H240683   4.031   1.745   5.267
13576TIP3   OH240684   0.631   0.036   0.759
13576TIP3    H140685   0.695   0.001   0.822
13576TIP3    H240686   0.684   0.067   0.686
13577TIP3   OH240687   0.049   1.392   6.203
13577TIP3    H140688   0.049   1.460   6.135
13577TIP3    H240689   0.140   1.364   6.208
13578TIP3   OH240690   5.121   0.000   5.270
13578TIP3    H140691   5.198  -0.023   5.218
13578TIP3    H240692   5.154   0.060   5.336
13579TIP3   OH240693   1.465   3.180   1.194
13579TIP3    H140694   1.494   3.254   1.247
13579TIP3    H240695   1.532   3.170   1.126
13580TIP3   OH240696   7.627   3.750   0.658
13580TIP3    H140697   7.539   3.723   0.684
13580TIP3    H240698   7.618   3.770   0.564
13581TIP3   OH240699   4.238   3.606   6.627
13581TIP3    H140700   4.188   3.603   6.709
13581TIP3    H240701   4.236   3.517   6.594
13582TIP3   OH240702   6.387   3.065   1.702
13582TIP3    H140703   6.339   3.098   1.626
13582TIP3    H240704   6.449   3.002   1.664
13583TIP3   OH240705   0.059   7.025   5.421
13583TIP3    H140706   0.117   6.950   5.407
13583TIP3    H240707  -0.025   6.986   5.443
13584TIP3   OH240708   2.087   6.624   0.251
13584TIP3    H140709   2.031   6.617   0.328
13584TIP3    H240710   2.123   6.536   0.240
13585TIP3   OH240711   7.131   4.215   2.985
13585TIP3    H140712   7.173   4.244   3.065
13585TIP3    H240713   7.185   4.251   2.914
13586TIP3   OH240714   2.941   3.383   5.830
13586TIP3    H140715   3.011   3.413   5.772
13586TIP3    H240716   2.966   3.294   5.854
13587TIP3   OH240717   0.127   2.836   4.698
13587TIP3    H140718   0.044   2.802   4.731
13587TIP3    H240719   0.104   2.876   4.614
13588TIP3   OH240720   0.186   3.142   0.185
13588TIP3    H140721   0.138   3.149   0.103
13588TIP3    H240722   0.136   3.196   0.246
13589TIP3   OH240723   6.504   5.884   1.076
13589TIP3    H140724   6.556   5.826   1.021
13589TIP3    H240725   6.547   5.969   1.069
13590TIP3   OH240726   2.778   7.690   1.378
13590TIP3    H140727   2.744   7.779   1.390
13590TIP3    H240728   2.758   7.646   1.461
13591TIP3   OH240729   1.263   3.799   0.369
13591TIP3    H140730   1.250   3.713   0.329
13591TIP3    H240731   1.340   3.835   0.325
13592TIP3   OH240732   7.715   6.562   2.013
13592TIP3    H140733   7.748   6.472   2.008
13592TIP3    H240734   7.793   6.614   2.032
13593TIP3   OH240735   8.084   5.834   0.849
13593TIP3    H140736   8.161   5.892   0.845
13593TIP3    H240737   8.065   5.814   0.757
13594TIP3   OH240738   2.802   5.060   0.813
13594TIP3    H140739   2.751   4.981   0.828
13594TIP3    H240740   2.891   5.037   0.841
13595TIP3   OH240741   4.874   7.441   4.865
13595TIP3    H140742   4.880   7.376   4.795
13595TIP3    H240743   4.803   7.499   4.838
13596TIP3   OH240744   2.431   6.938   1.688
13596TIP3    H140745   2.449   6.990   1.766
13596TIP3    H240746   2.508   6.953   1.632
13597TIP3   OH240747   6.944   5.699   0.887
13597TIP3    H140748   6.994   5.719   0.808
13597TIP3    H240749   7.010   5.691   0.955
13598TIP3   OH240750   0.045   7.466   1.969
13598TIP3    H140751   0.091   7.392   2.008
13598TIP3    H240752  -0.048   7.449   1.987
13599TIP3   OH240753   1.107   0.421   4.170
13599TIP3    H140754   1.092   0.470   4.090
13599TIP3    H240755   1.083   0.331   4.149
13600TIP3   OH240756   6.992   5.679   1.328
13600TIP3    H140757   6.990   5.728   1.410
13600TIP3    H240758   6.901   5.656   1.312
13601TIP3   OH240759   3.141   5.093   5.017
13601TIP3    H140760   3.049   5.100   4.990
13601TIP3    H240761   3.142   5.022   5.082
13602TIP3   OH240762   6.741   0.467   4.526
13602TIP3    H140763   6.730   0.374   4.547
13602TIP3    H240764   6.832   0.486   4.549
13603TIP3   OH240765   5.956   2.568   1.135
13603TIP3    H140766   6.022   2.518   1.085
13603TIP3    H240767   5.882   2.577   1.075
13604TIP3   OH240768   1.954   1.454   5.757
13604TIP3    H140769   1.961   1.396   5.681
13604TIP3    H240770   2.007   1.411   5.825
13605TIP3   OH240771   3.821   7.241   2.756
13605TIP3    H140772   3.850   7.184   2.685
13605TIP3    H240773   3.779   7.315   2.712
13606TIP3   OH240774   7.777   4.086   3.705
13606TIP3    H140775   7.810   4.173   3.683
13606TIP3    H240776   7.850   4.043   3.750
13607TIP3   OH240777   6.719   6.371   1.142
13607TIP3    H140778   6.702   6.407   1.230
13607TIP3    H240779   6.811   6.344   1.145
13608TIP3   OH240780   0.127   3.656   6.452
13608TIP3    H140781   0.084   3.577   6.488
13608TIP3    H240782   0.202   3.670   6.509
13609TIP3   OH240783   0.468   0.664   6.229
13609TIP3    H140784   0.548   0.612   6.239
13609TIP3    H240785   0.491   0.749   6.266
13610TIP3   OH240786   2.567   6.297   3.947
13610TIP3    H140787   2.484   6.343   3.957
13610TIP3    H240788   2.561   6.224   4.009
13611TIP3   OH240789   2.867   4.735   0.006
13611TIP3    H140790   2.802   4.677  -0.033
13611TIP3    H240791   2.910   4.680   0.073
13612TIP3   OH240792   0.721   0.147   0.510
13612TIP3    H140793   0.713   0.230   0.557
13612TIP3    H240794   0.752   0.171   0.423
13613TIP3   OH240795   5.086   3.977   4.500
13613TIP3    H140796   5.000   4.019   4.489
13613TIP3    H240797   5.104   3.937   4.416
13614TIP3   OH240798   1.826   7.463   6.797
13614TIP3    H140799   1.903   7.519   6.785
13614TIP3    H240800   1.835   7.395   6.731
13615TIP3   OH240801   0.520   4.718   3.336
13615TIP3    H140802   0.614   4.709   3.352
13615TIP3    H240803   0.484   4.632   3.358
13616TIP3   OH240804   2.749   1.020   2.182
13616TIP3    H140805   2.654   1.015   2.189
13616TIP3    H240806   2.779   1.045   2.270
13617TIP3   OH240807   4.374   1.064   5.862
13617TIP3    H140808   4.406   1.135   5.806
13617TIP3    H240809   4.453   1.015   5.885
13618TIP3   OH240810   5.546   1.534   4.791
13618TIP3    H140811   5.573   1.566   4.705
13618TIP3    H240812   5.499   1.453   4.772
13619TIP3   OH240813   5.573   5.465   3.337
13619TIP3    H140814   5.517   5.388   3.345
13619TIP3    H240815   5.649   5.434   3.288
13620TIP3   OH240816   0.154   5.382   4.797
13620TIP3    H140817   0.079   5.343   4.843
13620TIP3    H240818   0.190   5.310   4.745
13621TIP3   OH240819   7.656   2.011   0.073
13621TIP3    H140820   7.675   1.925   0.036
13621TIP3    H240821   7.607   2.056   0.005
13622TIP3   OH240822   4.343   0.484   4.074
13622TIP3    H140823   4.281   0.429   4.122
13622TIP3    H240824   4.302   0.571   4.074
13623TIP3   OH240825   1.746   5.241   3.066
13623TIP3    H140826   1.816   5.269   3.006
13623TIP3    H240827   1.678   5.308   3.056
13624TIP3   OH240828   1.555   1.719   3.495
13624TIP3    H140829   1.537   1.703   3.588
13624TIP3    H240830   1.547   1.634   3.454
13625TIP3   OH240831   2.342   6.344   4.356
13625TIP3    H140832   2.297   6.428   4.357
13625TIP3    H240833   2.305   6.297   4.281
13626TIP3   OH240834   3.145   3.417   3.808
13626TIP3    H140835   3.130   3.326   3.785
13626TIP3    H240836   3.070   3.441   3.863
13627TIP3   OH240837   1.758   0.546   6.766
13627TIP3    H140838   1.672   0.581   6.742
13627TIP3    H240839   1.804   0.537   6.683
13628TIP3   OH240840   4.307   0.097   1.919
13628TIP3    H140841   4.251   0.172   1.900
13628TIP3    H240842   4.375   0.099   1.851
13629TIP3   OH240843   7.764   3.125   5.338
13629TIP3    H140844   7.771   3.212   5.299
13629TIP3    H240845   7.821   3.129   5.416
13630TIP3   OH240846   7.323   5.983   6.599
13630TIP3    H140847   7.406   5.957   6.558
13630TIP3    H240848   7.308   5.916   6.666
13631TIP3   OH240849   6.659   2.742   6.499
13631TIP3    H140850   6.602   2.673   6.467
13631TIP3    H240851   6.600   2.804   6.543
13632TIP3   OH240852   6.827   6.317   5.309
13632TIP3    H140853   6.899   6.288   5.253
13632TIP3    H240854   6.837   6.413   5.312
13633TIP3   OH240855   4.846   1.127   3.896
13633TIP3    H140856   4.835   1.139   3.802
13633TIP3    H240857   4.931   1.084   3.906
13634TIP3   OH240858   3.478   6.624   4.744
13634TIP3    H140859   3.511   6.708   4.713
13634TIP3    H240860   3.431   6.644   4.824
13635TIP3   OH240861   0.489   6.086   2.051
13635TIP3    H140862   0.415   6.144   2.035
13635TIP3    H240863   0.565   6.135   2.020
13636TIP3   OH240864   4.675   5.363   6.267
13636TIP3    H140865   4.762   5.373   6.305
13636TIP3    H240866   4.637   5.451   6.269
13637TIP3   OH240867   1.675   1.328   4.334
13637TIP3    H140868   1.644   1.418   4.340
13637TIP3    H240869   1.704   1.318   4.244
13638TIP3   OH240870   2.273   3.236   3.801
13638TIP3    H140871   2.212   3.240   3.874
13638TIP3    H240872   2.317   3.151   3.810
13639TIP3   OH240873   3.316   0.589   2.904
13639TIP3    H140874   3.345   0.649   2.973
13639TIP3    H240875   3.397   0.555   2.866
13640TIP3   OH240876   0.366   0.733   2.288
13640TIP3    H140877   0.325   0.747   2.202
13640TIP3    H240878   0.301   0.765   2.351
13641TIP3   OH240879   0.974   6.971   2.647
13641TIP3    H140880   0.923   6.891   2.662
13641TIP3    H240881   0.909   7.035   2.618
13642TIP3   OH240882   3.519   6.788   2.057
13642TIP3    H140883   3.589   6.751   2.111
13642TIP3    H240884   3.557   6.868   2.020
13643TIP3   OH240885   0.620   0.812   4.411
13643TIP3    H140886   0.610   0.725   4.372
13643TIP3    H240887   0.655   0.866   4.341
13644TIP3   OH240888   1.096   3.524   1.495
13644TIP3    H140889   1.166   3.466   1.524
13644TIP3    H240890   1.071   3.573   1.573
13645TIP3   OH240891   1.070   0.464   5.522
13645TIP3    H140892   1.085   0.371   5.502
13645TIP3    H240893   0.977   0.470   5.541
13646TIP3   OH240894   2.784   2.932   5.875
13646TIP3    H140895   2.832   2.906   5.954
13646TIP3    H240896   2.830   2.887   5.804
13647TIP3   OH240897   5.733   2.210   2.547
13647TIP3    H140898   5.782   2.161   2.480
13647TIP3    H240899   5.743   2.157   2.626
13648TIP3   OH240900   4.031   1.287   5.380
13648TIP3    H140901   4.049   1.204   5.336
13648TIP3    H240902   4.054   1.270   5.472
13649TIP3   OH240903   6.417   7.412   6.278
13649TIP3    H140904   6.487   7.347   6.287
13649TIP3    H240905   6.399   7.414   6.184
13650TIP3   OH240906   0.756   3.422   0.465
13650TIP3    H140907   0.829   3.462   0.418
13650TIP3    H240908   0.725   3.491   0.524
13651TIP3   OH240909   8.182   5.094   1.961
13651TIP3    H140910   8.119   5.065   2.028
13651TIP3    H240911   8.267   5.069   1.996
13652TIP3   OH240912   3.900   4.616   0.011
13652TIP3    H140913   3.813   4.605   0.049
13652TIP3    H240914   3.960   4.592   0.080
13653TIP3   OH240915   2.222   2.228   2.518
13653TIP3    H140916   2.230   2.207   2.424
13653TIP3    H240917   2.194   2.146   2.558
13654TIP3   OH240918   5.673   4.484   0.843
13654TIP3    H140919   5.639   4.530   0.920
13654TIP3    H240920   5.767   4.506   0.842
13655TIP3   OH240921   4.082   1.967   3.829
13655TIP3    H140922   4.045   2.056   3.824
13655TIP3    H240923   4.078   1.934   3.740
13656TIP3   OH240924   1.933   3.021   2.875
13656TIP3    H140925   1.926   3.106   2.919
13656TIP3    H240926   1.912   2.957   2.943
13657TIP3   OH240927   2.312   3.826   1.659
13657TIP3    H140928   2.313   3.882   1.581
13657TIP3    H240929   2.395   3.779   1.655
13658TIP3   OH240930   5.717   6.498   2.303
13658TIP3    H140931   5.629   6.535   2.312
13658TIP3    H240932   5.773   6.573   2.286
13659TIP3   OH240933   2.873   1.974   0.977
13659TIP3    H140934   2.868   2.069   0.987
13659TIP3    H240935   2.795   1.951   0.926
13660TIP3   OH240936   6.329   5.209   6.415
13660TIP3    H140937   6.313   5.237   6.324
13660TIP3    H240938   6.260   5.253   6.465
13661TIP3   OH240939   1.550   1.070   5.707
13661TIP3    H140940   1.472   1.124   5.698
13661TIP3    H240941   1.517   0.980   5.704
13662TIP3   OH240942   8.178   6.250   4.987
13662TIP3    H140943   8.183   6.305   5.065
13662TIP3    H240944   8.200   6.162   5.019
13663TIP3   OH240945   1.360   4.011   2.460
13663TIP3    H140946   1.452   4.005   2.485
13663TIP3    H240947   1.317   4.052   2.535
13664TIP3   OH240948   1.641   5.456   6.378
13664TIP3    H140949   1.581   5.425   6.445
13664TIP3    H240950   1.593   5.445   6.296
13665TIP3   OH240951   7.132   2.591   1.076
13665TIP3    H140952   7.085   2.554   1.002
13665TIP3    H240953   7.179   2.666   1.039
13666TIP3   OH240954   2.106   5.296   1.043
13666TIP3    H140955   2.088   5.239   1.117
13666TIP3    H240956   2.119   5.236   0.969
13667TIP3   OH240957   1.777   0.816   2.781
13667TIP3    H140958   1.826   0.802   2.700
13667TIP3    H240959   1.843   0.846   2.844
13668TIP3   OH240960   0.790   6.144   2.637
13668TIP3    H140961   0.850   6.137   2.711
13668TIP3    H240962   0.706   6.171   2.676
13669TIP3   OH240963   1.654   0.055   1.756
13669TIP3    H140964   1.723   0.102   1.804
13669TIP3    H240965   1.619   0.119   1.695
13670TIP3   OH240966   5.860   2.895   3.117
13670TIP3    H140967   5.768   2.874   3.126
13670TIP3    H240968   5.861   2.978   3.068
13671TIP3   OH240969   5.812   0.209   2.162
13671TIP3    H140970   5.785   0.135   2.216
13671TIP3    H240971   5.736   0.268   2.162
13672TIP3   OH240972   0.097   4.915   6.108
13672TIP3    H140973   0.120   4.998   6.065
13672TIP3    H240974   0.180   4.881   6.141
13673TIP3   OH240975   5.808   7.670   2.885
13673TIP3    H140976   5.864   7.671   2.963
13673TIP3    H240977   5.801   7.577   2.863
13674TIP3   OH240978   5.201   6.838   1.874
13674TIP3    H140979   5.195   6.797   1.960
13674TIP3    H240980   5.199   6.766   1.812
13675TIP3   OH240981   6.723   6.546   1.376
13675TIP3    H140982   6.779   6.537   1.453
13675TIP3    H240983   6.655   6.608   1.403
13676TIP3   OH240984   8.198   2.299   1.270
13676TIP3    H140985   8.191   2.330   1.180
13676TIP3    H240986   8.283   2.332   1.301
13677TIP3   OH240987   0.036   4.612   4.587
13677TIP3    H140988  -0.007   4.692   4.618
13677TIP3    H240989   0.046   4.625   4.492
13678TIP3   OH240990   2.208   4.660   4.980
13678TIP3    H140991   2.295   4.699   4.979
13678TIP3    H240992   2.177   4.671   4.890
13679TIP3   OH240993   2.170   5.737   3.715
13679TIP3    H140994   2.206   5.817   3.755
13679TIP3    H240995   2.076   5.743   3.730
13680TIP3   OH240996   2.608   7.586   0.299
13680TIP3    H140997   2.577   7.506   0.257
13680TIP3    H240998   2.541   7.652   0.277
13681TIP3   OH240999   6.722   0.007   1.234
13681TIP3    H141000   6.743   0.020   1.142
13681TIP3    H241001   6.781   0.066   1.281
13682TIP3   OH241002   1.750   1.928   2.268
13682TIP3    H141003   1.737   1.837   2.240
13682TIP3    H241004   1.782   1.973   2.190
13683TIP3   OH241005   4.864   2.861   6.194
13683TIP3    H141006   4.861   2.956   6.181
13683TIP3    H241007   4.816   2.824   6.120
13684TIP3   OH241008   4.364   5.338   4.752
13684TIP3    H141009   4.312   5.412   4.783
13684TIP3    H241010   4.318   5.261   4.785
13685TIP3   OH241011   3.468   2.696   1.211
13685TIP3    H141012   3.556   2.730   1.195
13685TIP3    H241013   3.472   2.605   1.184
13686TIP3   OH241014   1.642   1.612   5.508
13686TIP3    H141015   1.552   1.587   5.487
13686TIP3    H241016   1.641   1.708   5.507
13687TIP3   OH241017   1.706   1.878   3.095
13687TIP3    H141018   1.674   1.967   3.110
13687TIP3    H241019   1.799   1.889   3.077
13688TIP3   OH241020   4.964   3.922   4.822
13688TIP3    H141021   5.058   3.931   4.835
13688TIP3    H241022   4.955   3.853   4.756
13689TIP3   OH241023   3.381   6.172   5.654
13689TIP3    H141024   3.349   6.155   5.566
13689TIP3    H241025   3.472   6.142   5.653
13690TIP3   OH241026   3.611   5.339   0.087
13690TIP3    H141027   3.534   5.371   0.134
13690TIP3    H241028   3.577   5.315   0.001
13691TIP3   OH241029   4.154   4.950   0.217
13691TIP3    H141030   4.179   4.872   0.267
13691TIP3    H241031   4.066   4.971   0.248
13692TIP3   OH241032   6.647   4.004   0.825
13692TIP3    H141033   6.651   4.095   0.856
13692TIP3    H241034   6.739   3.977   0.817
13693TIP3   OH241035   1.991   6.096   2.856
13693TIP3    H141036   2.035   6.028   2.907
13693TIP3    H241037   1.915   6.119   2.909
13694TIP3   OH241038   3.778   3.078   0.824
13694TIP3    H141039   3.800   3.165   0.855
13694TIP3    H241040   3.699   3.053   0.872
13695TIP3   OH241041   2.883   5.198   5.199
13695TIP3    H141042   2.874   5.153   5.115
13695TIP3    H241043   2.825   5.150   5.258
13696TIP3   OH241044   4.015   7.078   0.141
13696TIP3    H141045   4.066   7.116   0.069
13696TIP3    H241046   3.956   7.149   0.168
13697TIP3   OH241047   5.653   7.774   4.984
13697TIP3    H141048   5.563   7.794   5.006
13697TIP3    H241049   5.653   7.681   4.963
13698TIP3   OH241050   0.278   1.542   1.540
13698TIP3    H141051   0.363   1.513   1.508
13698TIP3    H241052   0.216   1.514   1.472
13699TIP3   OH241053   2.211   2.144   4.696
13699TIP3    H141054   2.241   2.219   4.644
13699TIP3    H241055   2.120   2.131   4.666
13700TIP3   OH241056   3.674   1.004   2.707
13700TIP3    H141057   3.665   1.095   2.734
13700TIP3    H241058   3.586   0.968   2.712
13701TIP3   OH241059   7.366   2.573   0.679
13701TIP3    H141060   7.299   2.520   0.723
13701TIP3    H241061   7.418   2.610   0.750
13702TIP3   OH241062   7.488   5.809   6.176
13702TIP3    H141063   7.428   5.874   6.139
13702TIP3    H241064   7.533   5.771   6.100
13703TIP3   OH241065   5.581   7.324   0.298
13703TIP3    H141066   5.604   7.286   0.214
13703TIP3    H241067   5.663   7.326   0.347
13704TIP3   OH241068   5.083   4.241   3.836
13704TIP3    H141069   5.037   4.304   3.892
13704TIP3    H241070   5.015   4.179   3.809
13705TIP3   OH241071   6.259   1.200   6.684
13705TIP3    H141072   6.288   1.263   6.749
13705TIP3    H241073   6.252   1.117   6.732
13706TIP3   OH241074   7.177   3.218   0.629
13706TIP3    H141075   7.120   3.142   0.619
13706TIP3    H241076   7.264   3.187   0.604
13707TIP3   OH241077   5.427   0.115   3.823
13707TIP3    H141078   5.519   0.132   3.841
13707TIP3    H241079   5.408   0.032   3.868
13708TIP3   OH241080   5.458   6.368   1.117
13708TIP3    H141081   5.443   6.283   1.158
13708TIP3    H241082   5.473   6.349   1.025
13709TIP3   OH241083   2.342   6.300   2.098
13709TIP3    H141084   2.249   6.324   2.099
13709TIP3    H241085   2.370   6.318   2.008
13710TIP3   OH241086   7.788   2.106   1.394
13710TIP3    H141087   7.778   2.063   1.479
13710TIP3    H241088   7.877   2.142   1.396
13711TIP3   OH241089   1.097   7.230   3.823
13711TIP3    H141090   1.001   7.233   3.824
13711TIP3    H241091   1.118   7.157   3.765
13712TIP3   OH241092   1.497   1.184   1.227
13712TIP3    H141093   1.493   1.208   1.319
13712TIP3    H241094   1.407   1.163   1.204
13713TIP3   OH241095   4.582   6.036   0.352
13713TIP3    H141096   4.674   6.021   0.374
13713TIP3    H241097   4.534   6.016   0.432
13714TIP3   OH241098   0.565   6.930   5.207
13714TIP3    H141099   0.638   6.930   5.145
13714TIP3    H241100   0.593   6.869   5.276
13715TIP3   OH241101   2.736   0.809   3.163
13715TIP3    H141102   2.775   0.734   3.116
13715TIP3    H241103   2.750   0.789   3.256
13716TIP3   OH241104   3.600   7.570   5.057
13716TIP3    H141105   3.643   7.616   5.129
13716TIP3    H241106   3.644   7.602   4.978
13717TIP3   OH241107   4.473   2.027   3.464
13717TIP3    H141108   4.419   2.088   3.415
13717TIP3    H241109   4.552   2.078   3.487
13718TIP3   OH241110   6.715   7.397   2.029
13718TIP3    H141111   6.649   7.328   2.025
13718TIP3    H241112   6.685   7.456   2.097
13719TIP3   OH241113   7.364   0.373   1.491
13719TIP3    H141114   7.292   0.345   1.433
13719TIP3    H241115   7.334   0.350   1.579
13720TIP3   OH241116   0.934   7.307   3.403
13720TIP3    H141117   0.886   7.301   3.320
13720TIP3    H241118   1.005   7.243   3.394
13721TIP3   OH241119   4.223   4.750   0.392
13721TIP3    H141120   4.266   4.694   0.327
13721TIP3    H241121   4.282   4.749   0.467
13722TIP3   OH241122   2.873   0.870   1.959
13722TIP3    H141123   2.866   0.921   2.039
13722TIP3    H241124   2.828   0.788   1.978
13723TIP3   OH241125   2.847   5.287   6.078
13723TIP3    H141126   2.893   5.271   6.160
13723TIP3    H241127   2.912   5.274   6.010
13724TIP3   OH241128   5.923   2.664   3.409
13724TIP3    H141129   6.013   2.644   3.436
13724TIP3    H241130   5.922   2.649   3.315
13725TIP3   OH241131   6.812   1.013   6.439
13725TIP3    H141132   6.863   1.062   6.374
13725TIP3    H241133   6.744   1.073   6.467
13726TIP3   OH241134   0.952   2.610   3.028
13726TIP3    H141135   0.971   2.704   3.038
13726TIP3    H241136   0.865   2.608   2.989
13727TIP3   OH241137   1.757   0.933   6.529
13727TIP3    H141138   1.789   0.843   6.538
13727TIP3    H241139   1.753   0.947   6.434
13728TIP3   OH241140   5.615   6.167   3.748
13728TIP3    H141141   5.667   6.246   3.737
13728TIP3    H241142   5.626   6.144   3.841
13729TIP3   OH241143   1.751   6.946   4.081
13729TIP3    H141144   1.828   6.999   4.062
13729TIP3    H241145   1.770   6.860   4.043
13730TIP3   OH241146   1.191   7.270   1.726
13730TIP3    H141147   1.164   7.303   1.812
13730TIP3    H241148   1.165   7.178   1.727
13731TIP3   OH241149   1.501   0.228   2.269
13731TIP3    H141150   1.536   0.179   2.195
13731TIP3    H241151   1.406   0.226   2.257
13732TIP3   OH241152   3.095   6.117   3.933
13732TIP3    H141153   3.182   6.156   3.948
13732TIP3    H241154   3.052   6.120   4.018
13733TIP3   OH241155   1.407   0.912   6.699
13733TIP3    H141156   1.313   0.906   6.683
13733TIP3    H241157   1.413   0.943   6.790
13734TIP3   OH241158   3.964   4.175   1.217
13734TIP3    H141159   3.870   4.192   1.213
13734TIP3    H241160   4.004   4.263   1.218
13735TIP3   OH241161   6.661   0.741   4.127
13735TIP3    H141162   6.648   0.736   4.033
13735TIP3    H241163   6.620   0.824   4.152
13736TIP3   OH241164   4.481   3.267   4.006
13736TIP3    H141165   4.538   3.257   4.082
13736TIP3    H241166   4.428   3.188   4.005
13737TIP3   OH241167   8.234   3.333   3.883
13737TIP3    H141168   8.231   3.291   3.969
13737TIP3    H241169   8.158   3.390   3.882
13738TIP3   OH241170   1.965   6.578   1.168
13738TIP3    H141171   1.994   6.587   1.258
13738TIP3    H241172   1.893   6.516   1.171
13739TIP3   OH241173   1.753   3.543   1.473
13739TIP3    H141174   1.842   3.549   1.510
13739TIP3    H241175   1.736   3.449   1.468
13740TIP3   OH241176   8.008   4.725   4.055
13740TIP3    H141177   7.915   4.724   4.032
13740TIP3    H241178   8.015   4.793   4.122
13741TIP3   OH241179   1.752   5.935   5.742
13741TIP3    H141180   1.803   5.855   5.728
13741TIP3    H241181   1.789   5.975   5.820
13742TIP3   OH241182   0.092   4.617   2.187
13742TIP3    H141183   0.100   4.534   2.234
13742TIP3    H241184   0.056   4.593   2.102
13743TIP3   OH241185   7.685   3.744   4.698
13743TIP3    H141186   7.695   3.765   4.791
13743TIP3    H241187   7.626   3.810   4.664
13744TIP3   OH241188   4.877   1.786   4.139
13744TIP3    H141189   4.961   1.740   4.133
13744TIP3    H241190   4.820   1.724   4.184
13745TIP3   OH241191   6.029   7.211   4.313
13745TIP3    H141192   6.094   7.213   4.384
13745TIP3    H241193   6.047   7.290   4.262
13746TIP3   OH241194   4.317   4.696   0.642
13746TIP3    H141195   4.402   4.711   0.683
13746TIP3    H241196   4.254   4.706   0.713
13747TIP3   OH241197   6.324   3.846   0.432
13747TIP3    H141198   6.381   3.790   0.379
13747TIP3    H241199   6.382   3.912   0.469
13748TIP3   OH241200  -0.009   5.988   0.797
13748TIP3    H141201   0.039   5.962   0.718
13748TIP3    H241202   0.055   6.036   0.849
13749TIP3   OH241203   6.554   3.231   1.848
13749TIP3    H141204   6.633   3.181   1.870
13749TIP3    H241205   6.502   3.172   1.793
13750TIP3   OH241206   5.311   3.148   6.217
13750TIP3    H141207   5.343   3.171   6.304
13750TIP3    H241208   5.390   3.142   6.163
13751TIP3   OH241209   1.166   6.900   0.764
13751TIP3    H141210   1.134   6.962   0.829
13751TIP3    H241211   1.195   6.955   0.691
13752TIP3   OH241212   7.039   5.542   0.176
13752TIP3    H141213   6.959   5.492   0.194
13752TIP3    H241214   7.073   5.563   0.263
13753TIP3   OH241215   6.767   5.980   6.719
13753TIP3    H141216   6.688   5.972   6.772
13753TIP3    H241217   6.766   6.071   6.688
13754TIP3   OH241218   7.287   6.327   1.086
13754TIP3    H141219   7.325   6.278   1.159
13754TIP3    H241220   7.309   6.276   1.008
13755TIP3   OH241221   0.570   2.630   1.160
13755TIP3    H141222   0.535   2.695   1.099
13755TIP3    H241223   0.665   2.639   1.155
13756TIP3   OH241224   4.179   0.468   5.854
13756TIP3    H141225   4.098   0.460   5.905
13756TIP3    H241226   4.191   0.382   5.814
13757TIP3   OH241227   1.679   1.187   5.916
13757TIP3    H141228   1.623   1.168   5.840
13757TIP3    H241229   1.646   1.130   5.985
13758TIP3   OH241230   4.542   2.306   2.170
13758TIP3    H141231   4.547   2.400   2.150
13758TIP3    H241232   4.514   2.266   2.088
13759TIP3   OH241233   5.331   3.524   4.750
13759TIP3    H141234   5.254   3.492   4.703
13759TIP3    H241235   5.297   3.558   4.832
13760TIP3   OH241236   3.520   6.063   1.916
13760TIP3    H141237   3.549   6.037   1.828
13760TIP3    H241238   3.431   6.094   1.904
13761TIP3   OH241239   0.769   4.167   3.612
13761TIP3    H141240   0.821   4.109   3.556
13761TIP3    H241241   0.812   4.252   3.605
13762TIP3   OH241242   2.424   6.816   4.441
13762TIP3    H141243   2.356   6.748   4.435
13762TIP3    H241244   2.506   6.768   4.442
13763TIP3   OH241245   1.523   1.074   0.088
13763TIP3    H141246   1.539   0.981   0.072
13763TIP3    H241247   1.428   1.083   0.086
13764TIP3   OH241248   4.441   3.427   1.101
13764TIP3    H141249   4.358   3.460   1.065
13764TIP3    H241250   4.458   3.347   1.051
13765TIP3   OH241251   2.571   5.799   1.351
13765TIP3    H141252   2.616   5.805   1.267
13765TIP3    H241253   2.503   5.865   1.347
13766TIP3   OH241254   2.546   4.069   2.861
13766TIP3    H141255   2.528   3.994   2.918
13766TIP3    H241256   2.588   4.133   2.919
13767TIP3   OH241257   4.887   3.653   0.048
13767TIP3    H141258   4.864   3.638  -0.044
13767TIP3    H241259   4.850   3.579   0.095
13768TIP3   OH241260   1.155   5.710   0.365
13768TIP3    H141261   1.248   5.689   0.366
13768TIP3    H241262   1.146   5.772   0.292
13769TIP3   OH241263   0.967   3.594   4.251
13769TIP3    H141264   0.939   3.614   4.340
13769TIP3    H241265   0.886   3.578   4.202
13770TIP3   OH241266   0.538   4.098   3.790
13770TIP3    H141267   0.614   4.079   3.845
13770TIP3    H241268   0.568   4.166   3.730
13771TIP3   OH241269   6.772   2.043   4.004
13771TIP3    H141270   6.736   2.129   4.027
13771TIP3    H241271   6.852   2.062   3.956
13772TIP3   OH241272   4.340   5.145   5.643
13772TIP3    H141273   4.251   5.175   5.661
13772TIP3    H241274   4.328   5.064   5.594
13773TIP3   OH241275   6.023   4.617   5.610
13773TIP3    H141276   6.026   4.713   5.612
13773TIP3    H241277   6.009   4.596   5.517
13774TIP3   OH241278   5.064   5.535   6.014
13774TIP3    H141279   5.150   5.574   6.030
13774TIP3    H241280   5.081   5.467   5.949
13775TIP3   OH241281   7.672   5.176   1.108
13775TIP3    H141282   7.743   5.224   1.152
13775TIP3    H241283   7.670   5.213   1.020
13776TIP3   OH241284   2.342   6.698   5.655
13776TIP3    H141285   2.336   6.603   5.661
13776TIP3    H241286   2.300   6.720   5.572
13777TIP3   OH241287   4.809   1.505   6.176
13777TIP3    H141288   4.715   1.526   6.180
13777TIP3    H241289   4.832   1.486   6.267
13778TIP3   OH241290   4.343   3.363   4.322
13778TIP3    H141291   4.354   3.268   4.326
13778TIP3    H241292   4.298   3.380   4.240
13779TIP3   OH241293   4.472   0.429   4.693
13779TIP3    H141294   4.410   0.464   4.758
13779TIP3    H241295   4.501   0.506   4.644
13780TIP3   OH241296   1.791   2.855   3.374
13780TIP3    H141297   1.781   2.914   3.300
13780TIP3    H241298   1.722   2.790   3.362
13781TIP3   OH241299   6.556   2.924   1.285
13781TIP3    H141300   6.641   2.898   1.252
13781TIP3    H241301   6.568   2.934   1.379
13782TIP3   OH241302   2.046   5.311   3.842
13782TIP3    H141303   2.090   5.384   3.884
13782TIP3    H241304   2.113   5.244   3.832
13783TIP3   OH241305   0.317   6.560   6.292
13783TIP3    H141306   0.249   6.587   6.230
13783TIP3    H241307   0.358   6.641   6.321
13784TIP3   OH241308   0.593   4.175   2.979
13784TIP3    H141309   0.589   4.111   3.051
13784TIP3    H241310   0.512   4.160   2.930
13785TIP3   OH241311   2.653   2.896   3.710
13785TIP3    H141312   2.664   2.870   3.618
13785TIP3    H241313   2.559   2.910   3.720
13786TIP3   OH241314   4.237   3.153   1.964
13786TIP3    H141315   4.331   3.142   1.978
13786TIP3    H241316   4.222   3.124   1.874
13787TIP3   OH241317   3.299   1.659   1.683
13787TIP3    H141318   3.387   1.679   1.718
13787TIP3    H241319   3.305   1.679   1.590
13788TIP3   OH241320   6.200   6.823   2.363
13788TIP3    H141321   6.239   6.809   2.449
13788TIP3    H241322   6.192   6.734   2.326
13789TIP3   OH241323   7.458   6.733   1.485
13789TIP3    H141324   7.422   6.644   1.492
13789TIP3    H241325   7.467   6.747   1.390
13790TIP3   OH241326   7.777   6.738   0.908
13790TIP3    H141327   7.867   6.762   0.885
13790TIP3    H241328   7.723   6.790   0.849
13791TIP3   OH241329   1.901   4.722   4.879
13791TIP3    H141330   1.865   4.686   4.960
13791TIP3    H241331   1.850   4.801   4.862
13792TIP3   OH241332   0.509   2.830   0.924
13792TIP3    H141333   0.429   2.882   0.936
13792TIP3    H241334   0.488   2.767   0.855
13793TIP3   OH241335   8.271   0.918   2.376
13793TIP3    H141336   8.197   0.969   2.408
13793TIP3    H241337   8.276   0.938   2.283
13794TIP3   OH241338   2.487   6.078   4.086
13794TIP3    H141339   2.474   6.028   4.166
13794TIP3    H241340   2.524   6.016   4.024
13795TIP3   OH241341   5.765   0.893   3.027
13795TIP3    H141342   5.853   0.925   3.012
13795TIP3    H241343   5.719   0.908   2.944
13796TIP3   OH241344   6.093   5.902   4.791
13796TIP3    H141345   6.165   5.915   4.852
13796TIP3    H241346   6.079   5.988   4.751
13797TIP3   OH241347   5.756   7.141   2.732
13797TIP3    H141348   5.673   7.135   2.686
13797TIP3    H241349   5.747   7.082   2.806
13798TIP3   OH241350   1.962   6.944   3.578
13798TIP3    H141351   2.026   6.966   3.510
13798TIP3    H241352   1.884   6.917   3.530
13799TIP3   OH241353   6.812   7.149   2.383
13799TIP3    H141354   6.854   7.219   2.433
13799TIP3    H241355   6.860   7.147   2.300
13800TIP3   OH241356   6.200   4.322   4.317
13800TIP3    H141357   6.224   4.409   4.285
13800TIP3    H241358   6.230   4.320   4.408
13801TIP3   OH241359   6.015   6.545   6.358
13801TIP3    H141360   6.076   6.578   6.425
13801TIP3    H241361   6.056   6.465   6.326
13802TIP3   OH241362   8.252   1.620   1.657
13802TIP3    H141363   8.186   1.635   1.589
13802TIP3    H241364   8.287   1.533   1.636
13803TIP3   OH241365   3.842   3.774   3.709
13803TIP3    H141366   3.893   3.738   3.781
13803TIP3    H241367   3.840   3.868   3.726
13804TIP3   OH241368   3.772   3.282   0.624
13804TIP3    H141369   3.731   3.328   0.551
13804TIP3    H241370   3.729   3.317   0.702
13805TIP3   OH241371   8.108   5.776   0.430
13805TIP3    H141372   8.038   5.841   0.424
13805TIP3    H241373   8.099   5.740   0.518
13806TIP3   OH241374   6.827   5.813   0.550
13806TIP3    H141375   6.870   5.728   0.549
13806TIP3    H241376   6.734   5.792   0.564
13807TIP3   OH241377   7.489   2.180   3.897
13807TIP3    H141378   7.487   2.270   3.862
13807TIP3    H241379   7.455   2.126   3.826
13808TIP3   OH241380   6.008   7.215   5.836
13808TIP3    H141381   5.992   7.158   5.761
13808TIP3    H241382   6.024   7.301   5.798
13809TIP3   OH241383   4.481   3.106   0.976
13809TIP3    H141384   4.451   3.141   0.893
13809TIP3    H241385   4.507   3.016   0.957
13810TIP3   OH241386   6.654   1.231   0.825
13810TIP3    H141387   6.707   1.216   0.903
13810TIP3    H241388   6.713   1.216   0.751
13811TIP3   OH241389   0.651   4.918   5.367
13811TIP3    H141390   0.600   4.856   5.418
13811TIP3    H241391   0.588   4.959   5.307
13812TIP3   OH241392   5.714   7.529   0.708
13812TIP3    H141393   5.676   7.448   0.743
13812TIP3    H241394   5.639   7.577   0.673
13813TIP3   OH241395   1.413   5.371   5.629
13813TIP3    H141396   1.349   5.361   5.559
13813TIP3    H241397   1.488   5.413   5.587
13814TIP3   OH241398   7.941   1.654   6.755
13814TIP3    H141399   8.013   1.684   6.811
13814TIP3    H241400   7.875   1.723   6.764
13815TIP3   OH241401   3.880   2.856   1.671
13815TIP3    H141402   3.919   2.916   1.735
13815TIP3    H241403   3.848   2.783   1.724
13816TIP3   OH241404   4.212   3.434   3.778
13816TIP3    H141405   4.127   3.455   3.741
13816TIP3    H241406   4.271   3.434   3.703
13817TIP3   OH241407   2.628   2.583   3.116
13817TIP3    H141408   2.693   2.572   3.185
13817TIP3    H241409   2.674   2.563   3.035
13818TIP3   OH241410   7.361   5.736   5.588
13818TIP3    H141411   7.320   5.652   5.564
13818TIP3    H241412   7.311   5.766   5.664
13819TIP3   OH241413   2.353   6.697   1.788
13819TIP3    H141414   2.262   6.709   1.761
13819TIP3    H241415   2.398   6.775   1.757
13820TIP3   OH241416   6.653   4.964   5.405
13820TIP3    H141417   6.592   4.994   5.337
13820TIP3    H241418   6.688   5.045   5.442
13821TIP3   OH241419   3.883   2.345   5.008
13821TIP3    H141420   3.976   2.336   5.029
13821TIP3    H241421   3.848   2.256   5.015
13822TIP3   OH241422   5.006   2.110   1.077
13822TIP3    H141423   4.923   2.097   1.030
13822TIP3    H241424   4.988   2.184   1.136
13823TIP3   OH241425   6.673   5.124   0.370
13823TIP3    H141426   6.603   5.155   0.428
13823TIP3    H241427   6.645   5.150   0.282
13824TIP3   OH241428   5.667   0.786   1.317
13824TIP3    H141429   5.643   0.866   1.365
13824TIP3    H241430   5.712   0.818   1.239
13825TIP3   OH241431   6.999   7.016   4.661
13825TIP3    H141432   7.031   6.931   4.630
13825TIP3    H241433   6.922   6.994   4.714
13826TIP3   OH241434   3.576   6.025   2.195
13826TIP3    H141435   3.526   6.070   2.263
13826TIP3    H241436   3.523   6.032   2.116
13827TIP3   OH241437   0.437   0.128   1.083
13827TIP3    H141438   0.447   0.037   1.057
13827TIP3    H241439   0.343   0.138   1.099
13828TIP3   OH241440   1.516   1.426   5.840
13828TIP3    H141441   1.555   1.339   5.855
13828TIP3    H241442   1.591   1.485   5.836
13829TIP3   OH241443   3.000   0.680   2.266
13829TIP3    H141444   3.050   0.649   2.190
13829TIP3    H241445   3.030   0.770   2.279
13830TIP3   OH241446   4.958   0.282   5.525
13830TIP3    H141447   4.996   0.357   5.571
13830TIP3    H241448   5.027   0.253   5.465
13831TIP3   OH241449   1.244   3.237   6.376
13831TIP3    H141450   1.336   3.222   6.399
13831TIP3    H241451   1.237   3.332   6.367
13832TIP3   OH241452   1.555   6.412   5.347
13832TIP3    H141453   1.558   6.416   5.443
13832TIP3    H241454   1.595   6.327   5.325
13833TIP3   OH241455   1.062   5.705   4.510
13833TIP3    H141456   1.039   5.658   4.429
13833TIP3    H241457   1.158   5.698   4.515
13834TIP3   OH241458   6.106   3.948   1.171
13834TIP3    H141459   6.154   3.994   1.240
13834TIP3    H241460   6.060   3.878   1.217
13835TIP3   OH241461   4.433   1.168   5.165
13835TIP3    H141462   4.463   1.111   5.236
13835TIP3    H241463   4.338   1.156   5.163
13836TIP3   OH241464   5.357   4.216   3.958
13836TIP3    H141465   5.355   4.120   3.954
13836TIP3    H241466   5.270   4.243   3.930
13837TIP3   OH241467   1.170   5.127   4.193
13837TIP3    H141468   1.130   5.117   4.107
13837TIP3    H241469   1.264   5.131   4.176
13838TIP3   OH241470   6.511   0.447   4.689
13838TIP3    H141471   6.538   0.489   4.608
13838TIP3    H241472   6.568   0.484   4.756
13839TIP3   OH241473   4.728   5.701   1.437
13839TIP3    H141474   4.718   5.780   1.383
13839TIP3    H241475   4.818   5.672   1.420
13840TIP3   OH241476   7.185   0.308   3.595
13840TIP3    H141477   7.260   0.304   3.654
13840TIP3    H241478   7.161   0.400   3.593
13841TIP3   OH241479   7.405   1.976   0.173
13841TIP3    H141480   7.464   1.902   0.159
13841TIP3    H241481   7.462   2.048   0.198
13842TIP3   OH241482   3.924   3.809   2.711
13842TIP3    H141483   3.908   3.823   2.617
13842TIP3    H241484   3.948   3.895   2.744
13843TIP3   OH241485   2.416   7.689   6.632
13843TIP3    H141486   2.324   7.710   6.618
13843TIP3    H241487   2.460   7.775   6.633
13844TIP3   OH241488   0.061   6.232   2.558
13844TIP3    H141489   0.014   6.195   2.633
13844TIP3    H241490   0.070   6.158   2.497
13845TIP3   OH241491   2.688   5.107   3.898
13845TIP3    H141492   2.662   5.085   3.987
13845TIP3    H241493   2.768   5.057   3.883
13846TIP3   OH241494   2.797   1.614   0.981
13846TIP3    H141495   2.756   1.548   1.036
13846TIP3    H241496   2.857   1.660   1.040
13847TIP3   OH241497   5.007   1.300   2.121
13847TIP3    H141498   4.971   1.215   2.095
13847TIP3    H241499   4.963   1.322   2.202
13848TIP3   OH241500   1.115   6.913   5.331
13848TIP3    H141501   1.181   6.844   5.324
13848TIP3    H241502   1.166   6.993   5.344
13849TIP3   OH241503   7.796   7.013   5.671
13849TIP3    H141504   7.711   7.057   5.669
13849TIP3    H241505   7.859   7.084   5.659
13850TIP3   OH241506   5.826   1.167   4.822
13850TIP3    H141507   5.890   1.110   4.864
13850TIP3    H241508   5.768   1.194   4.893
13851TIP3   OH241509   1.911   0.157   6.400
13851TIP3    H141510   1.874   0.071   6.418
13851TIP3    H241511   2.003   0.148   6.425
13852TIP3   OH241512   1.245   2.383   3.903
13852TIP3    H141513   1.289   2.453   3.855
13852TIP3    H241514   1.162   2.422   3.932
13853TIP3   OH241515   0.906   5.302   3.068
13853TIP3    H141516   0.933   5.321   2.978
13853TIP3    H241517   0.857   5.379   3.095
13854TIP3   OH241518   5.132   4.883   2.017
13854TIP3    H141519   5.224   4.898   2.040
13854TIP3    H241520   5.084   4.899   2.098
13855TIP3   OH241521   5.959   0.622   2.132
13855TIP3    H141522   6.002   0.707   2.142
13855TIP3    H241523   5.867   0.640   2.153
13856TIP3   OH241524   2.920   1.812   4.304
13856TIP3    H141525   2.871   1.731   4.309
13856TIP3    H241526   2.893   1.863   4.380
13857TIP3   OH241527   2.048   5.163   2.022
13857TIP3    H141528   2.070   5.073   2.048
13857TIP3    H241529   1.990   5.153   1.947
13858TIP3   OH241530   7.702   4.961   0.423
13858TIP3    H141531   7.792   4.932   0.435
13858TIP3    H241532   7.662   4.953   0.509
13859TIP3   OH241533   7.101   2.958   4.800
13859TIP3    H141534   7.164   2.988   4.865
13859TIP3    H241535   7.070   2.874   4.834
13860TIP3   OH241536   2.049   2.047   0.529
13860TIP3    H141537   2.043   1.988   0.604
13860TIP3    H241538   1.959   2.052   0.495
13861TIP3   OH241539   0.432   2.159   0.717
13861TIP3    H141540   0.366   2.108   0.670
13861TIP3    H241541   0.395   2.173   0.804
13862TIP3   OH241542   0.328   4.541   5.456
13862TIP3    H141543   0.400   4.497   5.411
13862TIP3    H241544   0.368   4.622   5.489
13863TIP3   OH241545   6.344   2.404   3.129
13863TIP3    H141546   6.360   2.449   3.046
13863TIP3    H241547   6.250   2.415   3.145
13864TIP3   OH241548   8.168   5.152   3.526
13864TIP3    H141549   8.094   5.180   3.580
13864TIP3    H241550   8.245   5.170   3.580
13865TIP3   OH241551   4.386   4.804   5.204
13865TIP3    H141552   4.312   4.819   5.145
13865TIP3    H241553   4.352   4.744   5.270
13866TIP3   OH241554   3.679   6.465   4.165
13866TIP3    H141555   3.589   6.484   4.139
13866TIP3    H241556   3.671   6.422   4.250
13867TIP3   OH241557   2.490   3.265   2.896
13867TIP3    H141558   2.426   3.258   2.967
13867TIP3    H241559   2.497   3.358   2.878
13868TIP3   OH241560   0.963   7.344   0.575
13868TIP3    H141561   0.880   7.344   0.527
13868TIP3    H241562   0.945   7.396   0.653
13869TIP3   OH241563   6.717   2.025   3.250
13869TIP3    H141564   6.720   1.949   3.308
13869TIP3    H241565   6.795   2.016   3.195
13870TIP3   OH241566   5.525   2.383   4.754
13870TIP3    H141567   5.439   2.343   4.743
13870TIP3    H241568   5.518   2.467   4.708
13871TIP3   OH241569   3.717   2.898   2.819
13871TIP3    H141570   3.722   2.936   2.731
13871TIP3    H241571   3.672   2.964   2.871
13872TIP3   OH241572   0.062   4.824   0.192
13872TIP3    H141573   0.107   4.812   0.108
13872TIP3    H241574  -0.017   4.872   0.170
13873TIP3   OH241575   3.400   5.016   2.567
13873TIP3    H141576   3.311   4.983   2.554
13873TIP3    H241577   3.390   5.110   2.581
13874TIP3   OH241578   4.478   3.937   2.230
13874TIP3    H141579   4.472   3.904   2.319
13874TIP3    H241580   4.388   3.963   2.208
13875TIP3   OH241581   6.306   0.906   3.609
13875TIP3    H141582   6.375   0.952   3.657
13875TIP3    H241583   6.345   0.888   3.523
13876TIP3   OH241584   5.219   4.882   3.974
13876TIP3    H141585   5.301   4.842   4.004
13876TIP3    H241586   5.153   4.815   3.990
13877TIP3   OH241587   5.903   1.218   3.145
13877TIP3    H141588   5.956   1.292   3.174
13877TIP3    H241589   5.911   1.220   3.050
13878TIP3   OH241590   0.869   3.507   1.269
13878TIP3    H141591   0.849   3.582   1.325
13878TIP3    H241592   0.890   3.437   1.330
13879TIP3   OH241593   7.454   6.532   0.359
13879TIP3    H141594   7.385   6.472   0.388
13879TIP3    H241595   7.512   6.540   0.434
13880TIP3   OH241596   2.287   1.456   1.005
13880TIP3    H141597   2.307   1.550   1.012
13880TIP3    H241598   2.279   1.440   0.911
13881TIP3   OH241599   5.315   2.921   4.572
13881TIP3    H141600   5.242   2.942   4.513
13881TIP3    H241601   5.366   2.855   4.525
13882TIP3   OH241602   6.191   5.180   4.504
13882TIP3    H141603   6.154   5.256   4.458
13882TIP3    H241604   6.278   5.170   4.465
13883TIP3   OH241605   6.080   2.332   5.310
13883TIP3    H141606   6.149   2.378   5.358
13883TIP3    H241607   6.127   2.279   5.245
13884TIP3   OH241608   7.720   2.080   1.822
13884TIP3    H141609   7.631   2.092   1.857
13884TIP3    H241610   7.748   2.169   1.799
13885TIP3   OH241611   7.563   2.335   5.802
13885TIP3    H141612   7.595   2.373   5.720
13885TIP3    H241613   7.542   2.411   5.856
13886TIP3   OH241614   2.516   1.240   1.425
13886TIP3    H141615   2.485   1.271   1.339
13886TIP3    H241616   2.523   1.320   1.478
13887TIP3   OH241617   0.475   1.841   1.061
13887TIP3    H141618   0.406   1.847   0.995
13887TIP3    H241619   0.467   1.752   1.096
13888TIP3   OH241620   2.522   3.557   1.479
13888TIP3    H141621   2.529   3.628   1.543
13888TIP3    H241622   2.607   3.555   1.435
13889TIP3   OH241623   6.082   1.445   2.260
13889TIP3    H141624   5.994   1.449   2.222
13889TIP3    H241625   6.069   1.414   2.349
13890TIP3   OH241626   6.091   3.482   4.355
13890TIP3    H141627   6.074   3.488   4.261
13890TIP3    H241628   6.013   3.516   4.397
13891TIP3   OH241629   5.195   2.489   0.813
13891TIP3    H141630   5.226   2.414   0.863
13891TIP3    H241631   5.202   2.563   0.873
13892TIP3   OH241632   1.672   2.612   6.304
13892TIP3    H141633   1.615   2.677   6.263
13892TIP3    H241634   1.758   2.654   6.306
13893TIP3   OH241635   7.230   5.953   3.741
13893TIP3    H141636   7.233   5.988   3.652
13893TIP3    H241637   7.153   5.995   3.780
13894TIP3   OH241638   0.909   1.646   1.046
13894TIP3    H141639   0.872   1.560   1.069
13894TIP3    H241640   0.991   1.650   1.094
13895TIP3   OH241641   0.531   3.620   6.767
13895TIP3    H141642   0.471   3.668   6.710
13895TIP3    H241643   0.574   3.557   6.709
13896TIP3   OH241644   0.779   2.763   6.545
13896TIP3    H141645   0.854   2.704   6.556
13896TIP3    H241646   0.809   2.847   6.579
13897TIP3   OH241647   6.917   6.759   1.519
13897TIP3    H141648   6.874   6.796   1.442
13897TIP3    H241649   7.006   6.737   1.489
13898TIP3   OH241650   1.416   0.888   1.926
13898TIP3    H141651   1.456   0.953   1.984
13898TIP3    H241652   1.441   0.803   1.964
13899TIP3   OH241653   7.116   6.531   3.795
13899TIP3    H141654   7.054   6.602   3.808
13899TIP3    H241655   7.201   6.567   3.821
13900TIP3   OH241656   4.413   6.217   5.927
13900TIP3    H141657   4.440   6.263   6.006
13900TIP3    H241658   4.322   6.191   5.944
13901TIP3   OH241659   2.300   0.597   3.426
13901TIP3    H141660   2.340   0.617   3.341
13901TIP3    H241661   2.235   0.530   3.406
13902TIP3   OH241662   5.363   0.687   3.467
13902TIP3    H141663   5.426   0.701   3.396
13902TIP3    H241664   5.293   0.750   3.449
13903TIP3   OH241665   3.800   4.422   3.679
13903TIP3    H141666   3.820   4.459   3.593
13903TIP3    H241667   3.883   4.426   3.727
13904TIP3   OH241668   4.741   2.629   4.155
13904TIP3    H141669   4.664   2.630   4.212
13904TIP3    H241670   4.730   2.706   4.099
13905TIP3   OH241671   2.015   5.631   0.830
13905TIP3    H141672   2.103   5.613   0.797
13905TIP3    H241673   2.009   5.580   0.911
13906TIP3   OH241674   0.251   0.975   1.351
13906TIP3    H141675   0.166   1.003   1.318
13906TIP3    H241676   0.292   1.055   1.385
13907TIP3   OH241677   3.323   0.971   6.620
13907TIP3    H141678   3.355   0.882   6.631
13907TIP3    H241679   3.347   1.015   6.702
13908TIP3   OH241680   5.248   3.702   5.339
13908TIP3    H141681   5.317   3.665   5.394
13908TIP3    H241682   5.167   3.675   5.382
13909TIP3   OH241683   5.564   5.848   2.725
13909TIP3    H141684   5.620   5.864   2.649
13909TIP3    H241685   5.527   5.934   2.746
13910TIP3   OH241686   0.070   4.265   2.603
13910TIP3    H141687  -0.024   4.250   2.612
13910TIP3    H241688   0.080   4.303   2.516
13911TIP3   OH241689   1.356   4.500   3.778
13911TIP3    H141690   1.371   4.419   3.730
13911TIP3    H241691   1.270   4.488   3.819
13912TIP3   OH241692   2.950   7.188   2.743
13912TIP3    H141693   3.027   7.167   2.690
13912TIP3    H241694   2.885   7.123   2.717
13913TIP3   OH241695   0.347   4.018   1.311
13913TIP3    H141696   0.398   4.097   1.327
13913TIP3    H241697   0.283   4.043   1.246
13914TIP3   OH241698   5.483   4.021   2.761
13914TIP3    H141699   5.533   4.032   2.680
13914TIP3    H241700   5.534   4.066   2.828
13915TIP3   OH241701   2.806   5.305   1.600
13915TIP3    H141702   2.835   5.330   1.688
13915TIP3    H241703   2.860   5.359   1.541
13916TIP3   OH241704   0.588   6.353   1.118
13916TIP3    H141705   0.499   6.389   1.117
13916TIP3    H241706   0.591   6.300   1.198
13917TIP3   OH241707   7.664   0.991   6.704
13917TIP3    H141708   7.710   0.935   6.641
13917TIP3    H241709   7.576   0.954   6.709
13918TIP3   OH241710   3.455   5.065   2.291
13918TIP3    H141711   3.402   5.144   2.275
13918TIP3    H241712   3.477   5.070   2.384
13919TIP3   OH241713   0.146   7.753   4.995
13919TIP3    H141714   0.108   7.756   5.083
13919TIP3    H241715   0.231   7.710   5.007
13920TIP3   OH241716   7.921   4.799   0.592
13920TIP3    H141717   7.985   4.831   0.656
13920TIP3    H241718   7.943   4.706   0.581
13921TIP3   OH241719   0.526   4.723   0.694
13921TIP3    H141720   0.509   4.643   0.644
13921TIP3    H241721   0.479   4.709   0.776
13922TIP3   OH241722   1.264   4.921   2.691
13922TIP3    H141723   1.358   4.914   2.710
13922TIP3    H241724   1.255   5.004   2.644
13923TIP3   OH241725   8.276   7.154   2.547
13923TIP3    H141726   8.181   7.139   2.544
13923TIP3    H241727   8.284   7.245   2.576
13924TIP3   OH241728   4.087   3.837   2.266
13924TIP3    H141729   4.013   3.854   2.208
13924TIP3    H241730   4.050   3.786   2.338
13925TIP3   OH241731   6.346   0.169   2.624
13925TIP3    H141732   6.389   0.246   2.663
13925TIP3    H241733   6.258   0.170   2.662
13926TIP3   OH241734   2.909   3.725   1.863
13926TIP3    H141735   2.881   3.674   1.787
13926TIP3    H241736   2.928   3.659   1.930
13927TIP3   OH241737   0.232   5.160   5.795
13927TIP3    H141738   0.256   5.252   5.800
13927TIP3    H241739   0.216   5.134   5.886
13928TIP3   OH241740   6.829   5.838   4.626
13928TIP3    H141741   6.740   5.804   4.640
13928TIP3    H241742   6.829   5.870   4.536
13929TIP3   OH241743   6.740   2.195   1.470
13929TIP3    H141744   6.675   2.169   1.536
13929TIP3    H241745   6.758   2.287   1.490
13930TIP3   OH241746   7.341   6.897   2.097
13930TIP3    H141747   7.330   6.973   2.154
13930TIP3    H241748   7.435   6.886   2.090
13931TIP3   OH241749   1.469   5.985   3.986
13931TIP3    H141750   1.463   5.907   4.040
13931TIP3    H241751   1.407   6.046   4.025
13932TIP3   OH241752   2.157   2.578   4.841
13932TIP3    H141753   2.106   2.631   4.902
13932TIP3    H241754   2.094   2.516   4.805
13933TIP3   OH241755   1.860   4.332   0.016
13933TIP3    H141756   1.858   4.415   0.063
13933TIP3    H241757   1.771   4.320  -0.016
13934TIP3   OH241758   3.997   7.466   3.106
13934TIP3    H141759   3.906   7.475   3.078
13934TIP3    H241760   4.036   7.552   3.088
13935TIP3   OH241761   0.326   2.543   2.905
13935TIP3    H141762   0.236   2.543   2.936
13935TIP3    H241763   0.378   2.558   2.984
13936TIP3   OH241764   3.203   5.529   0.835
13936TIP3    H141765   3.158   5.571   0.908
13936TIP3    H241766   3.133   5.503   0.775
13937TIP3   OH241767   0.539   0.173   5.693
13937TIP3    H141768   0.619   0.162   5.744
13937TIP3    H241769   0.489   0.240   5.740
13938TIP3   OH241770   4.451   5.896   3.634
13938TIP3    H141771   4.455   5.826   3.570
13938TIP3    H241772   4.543   5.916   3.654
13939TIP3   OH241773   3.565   0.415   4.875
13939TIP3    H141774   3.615   0.496   4.882
13939TIP3    H241775   3.628   0.351   4.843
13940TIP3   OH241776   6.812   0.267   3.718
13940TIP3    H141777   6.854   0.310   3.643
13940TIP3    H241778   6.865   0.189   3.734
13941TIP3   OH241779   3.605   1.371   2.173
13941TIP3    H141780   3.514   1.359   2.201
13941TIP3    H241781   3.615   1.466   2.165
13942TIP3   OH241782   3.668   7.775   4.254
13942TIP3    H141783   3.648   7.854   4.206
13942TIP3    H241784   3.583   7.735   4.272
13943TIP3   OH241785   3.813   5.887   1.140
13943TIP3    H141786   3.742   5.905   1.202
13943TIP3    H241787   3.773   5.829   1.075
13944TIP3   OH241788   3.372   6.460   4.570
13944TIP3    H141789   3.375   6.483   4.663
13944TIP3    H241790   3.459   6.482   4.537
13945TIP3   OH241791   1.495   3.769   4.009
13945TIP3    H141792   1.402   3.748   4.017
13945TIP3    H241793   1.508   3.784   3.915
13946TIP3   OH241794   2.327   7.058   0.324
13946TIP3    H141795   2.243   7.049   0.279
13946TIP3    H241796   2.305   7.060   0.417
13947TIP3   OH241797   6.525   1.806   2.222
13947TIP3    H141798   6.492   1.748   2.154
13947TIP3    H241799   6.459   1.874   2.230
13948TIP3   OH241800   3.731   4.973   3.537
13948TIP3    H141801   3.742   4.900   3.598
13948TIP3    H241802   3.649   5.014   3.563
13949TIP3   OH241803   3.174   1.401   2.693
13949TIP3    H141804   3.131   1.397   2.607
13949TIP3    H241805   3.260   1.441   2.675
13950TIP3   OH241806   5.362   3.781   1.751
13950TIP3    H141807   5.385   3.865   1.710
13950TIP3    H241808   5.406   3.715   1.698
13951TIP3   OH241809   5.041   2.364   5.246
13951TIP3    H141810   4.952   2.382   5.215
13951TIP3    H241811   5.090   2.339   5.168
13952TIP3   OH241812   1.015   4.122   5.394
13952TIP3    H141813   0.995   4.147   5.304
13952TIP3    H241814   1.065   4.041   5.387
13953TIP3   OH241815   0.880   6.332   3.726
13953TIP3    H141816   0.821   6.336   3.651
13953TIP3    H241817   0.934   6.411   3.718
13954TIP3   OH241818   5.654   4.718   5.749
13954TIP3    H141819   5.603   4.674   5.681
13954TIP3    H241820   5.729   4.660   5.764
13955TIP3   OH241821   1.214   0.452   0.037
13955TIP3    H141822   1.147   0.518   0.053
13955TIP3    H241823   1.205   0.391   0.109
13956TIP3   OH241824   6.891   2.608   3.243
13956TIP3    H141825   6.969   2.634   3.195
13956TIP3    H241826   6.876   2.517   3.219
13957TIP3   OH241827   6.135   0.494   1.573
13957TIP3    H141828   6.146   0.429   1.643
13957TIP3    H241829   6.080   0.562   1.611
13958TIP3   OH241830   7.687   2.579   2.064
13958TIP3    H141831   7.661   2.656   2.013
13958TIP3    H241832   7.608   2.554   2.112
13959TIP3   OH241833   2.372   1.712   1.085
13959TIP3    H141834   2.421   1.692   1.164
13959TIP3    H241835   2.438   1.727   1.018
13960TIP3   OH241836   0.627   0.963   1.988
13960TIP3    H141837   0.565   0.966   2.061
13960TIP3    H241838   0.632   1.053   1.957
13961TIP3   OH241839   8.223   0.297   0.731
13961TIP3    H141840   8.183   0.325   0.813
13961TIP3    H241841   8.202   0.367   0.669
13962TIP3   OH241842   7.422   3.350   6.658
13962TIP3    H141843   7.468   3.414   6.604
13962TIP3    H241844   7.331   3.357   6.632
13963TIP3   OH241845   3.619   4.051   3.535
13963TIP3    H141846   3.565   4.123   3.504
13963TIP3    H241847   3.559   3.996   3.586
13964TIP3   OH241848   0.479   0.431   2.962
13964TIP3    H141849   0.405   0.405   2.907
13964TIP3    H241850   0.439   0.468   3.041
13965TIP3   OH241851   2.335   4.160   1.676
13965TIP3    H141852   2.267   4.154   1.744
13965TIP3    H241853   2.322   4.082   1.622
13966TIP3   OH241854   6.907   3.305   4.558
13966TIP3    H141855   6.975   3.276   4.497
13966TIP3    H241856   6.863   3.376   4.513
13967TIP3   OH241857   5.452   0.456   4.336
13967TIP3    H141858   5.462   0.534   4.282
13967TIP3    H241859   5.473   0.383   4.276
13968TIP3   OH241860   6.793   2.712   6.255
13968TIP3    H141861   6.786   2.791   6.201
13968TIP3    H241862   6.743   2.732   6.334
13969TIP3   OH241863   6.078   0.642   0.539
13969TIP3    H141864   6.098   0.571   0.599
13969TIP3    H241865   6.164   0.674   0.510
13970TIP3   OH241866   5.519   5.305   0.166
13970TIP3    H141867   5.595   5.248   0.178
13970TIP3    H241868   5.450   5.265   0.220
13971TIP3   OH241869   6.127   2.039   0.860
13971TIP3    H141870   6.206   2.003   0.901
13971TIP3    H241871   6.154   2.125   0.827
13972TIP3   OH241872   6.937   6.136   3.653
13972TIP3    H141873   7.014   6.175   3.696
13972TIP3    H241874   6.912   6.200   3.587
13973TIP3   OH241875   2.483   0.253   3.154
13973TIP3    H141876   2.482   0.276   3.247
13973TIP3    H241877   2.411   0.191   3.144
13974TIP3   OH241878   3.112   1.901   2.248
13974TIP3    H141879   3.101   1.985   2.292
13974TIP3    H241880   3.124   1.838   2.319
13975TIP3   OH241881   3.500   0.802   5.096
13975TIP3    H141882   3.532   0.878   5.145
13975TIP3    H241883   3.412   0.825   5.069
13976TIP3   OH241884   8.227   7.150   6.416
13976TIP3    H141885   8.286   7.089   6.372
13976TIP3    H241886   8.250   7.143   6.509
13977TIP3   OH241887   3.745   6.204   3.543
13977TIP3    H141888   3.751   6.265   3.470
13977TIP3    H241889   3.832   6.204   3.582
13978TIP3   OH241890   8.304   4.597   6.576
13978TIP3    H141891   8.233   4.658   6.554
13978TIP3    H241892   8.292   4.578   6.669
13979TIP3   OH241893   4.391   3.429   1.624
13979TIP3    H141894   4.368   3.436   1.532
13979TIP3    H241895   4.350   3.347   1.653
13980TIP3   OH241896   0.698   4.712   1.409
13980TIP3    H141897   0.784   4.684   1.379
13980TIP3    H241898   0.656   4.633   1.441
13981TIP3   OH241899   5.341   3.532   2.394
13981TIP3    H141900   5.406   3.594   2.364
13981TIP3    H241901   5.382   3.446   2.384
13982TIP3   OH241902   7.438   1.011   6.394
13982TIP3    H141903   7.522   1.041   6.360
13982TIP3    H241904   7.448   1.015   6.490
13983TIP3   OH241905   2.276   4.736   4.215
13983TIP3    H141906   2.222   4.791   4.272
13983TIP3    H241907   2.215   4.675   4.174
13984TIP3   OH241908   7.481   4.193   2.009
13984TIP3    H141909   7.417   4.219   2.075
13984TIP3    H241910   7.431   4.186   1.928
13985TIP3   OH241911   3.555   2.975   4.128
13985TIP3    H141912   3.578   3.066   4.105
13985TIP3    H241913   3.501   2.945   4.055
13986TIP3   OH241914   0.702   4.181   2.637
13986TIP3    H141915   0.774   4.227   2.679
13986TIP3    H241916   0.738   4.149   2.554
13987TIP3   OH241917   0.002   4.102   0.634
13987TIP3    H141918   0.065   4.145   0.576
13987TIP3    H241919  -0.043   4.173   0.678
13988TIP3   OH241920   4.791   1.389   0.360
13988TIP3    H141921   4.719   1.421   0.415
13988TIP3    H241922   4.835   1.324   0.414
13989TIP3   OH241923   2.268   4.815   6.026
13989TIP3    H141924   2.244   4.901   5.991
13989TIP3    H241925   2.245   4.819   6.118
13990TIP3   OH241926   5.938   0.721   5.156
13990TIP3    H141927   6.007   0.783   5.179
13990TIP3    H241928   5.916   0.741   5.065
13991TIP3   OH241929   3.608   6.501   0.550
13991TIP3    H141930   3.582   6.593   0.548
13991TIP3    H241931   3.701   6.502   0.528
13992TIP3   OH241932   7.858   0.763   3.984
13992TIP3    H141933   7.920   0.782   3.914
13992TIP3    H241934   7.910   0.767   4.064
13993TIP3   OH241935   6.793   4.914   2.553
13993TIP3    H141936   6.881   4.874   2.556
13993TIP3    H241937   6.778   4.933   2.461
13994TIP3   OH241938   0.457   3.490   5.358
13994TIP3    H141939   0.425   3.401   5.344
13994TIP3    H241940   0.498   3.514   5.274
13995TIP3   OH241941   5.266   4.225   3.196
13995TIP3    H141942   5.269   4.289   3.267
13995TIP3    H241943   5.189   4.171   3.215
13996TIP3   OH241944   6.825   4.684   1.217
13996TIP3    H141945   6.788   4.713   1.300
13996TIP3    H241946   6.820   4.760   1.160
13997TIP3   OH241947   7.162   2.779   2.756
13997TIP3    H141948   7.098   2.730   2.808
13997TIP3    H241949   7.236   2.792   2.814
13998TIP3   OH241950   3.617   5.837   3.555
13998TIP3    H141951   3.662   5.896   3.615
13998TIP3    H241952   3.545   5.890   3.519
13999TIP3   OH241953   1.583   3.983   1.375
13999TIP3    H141954   1.499   3.945   1.401
13999TIP3    H241955   1.646   3.912   1.386
14000TIP3   OH241956   4.333   3.743   3.047
14000TIP3    H141957   4.315   3.811   3.112
14000TIP3    H241958   4.403   3.690   3.086
14001TIP3   OH241959   2.595   0.471   0.690
14001TIP3    H141960   2.545   0.438   0.616
14001TIP3    H241961   2.667   0.521   0.650
14002TIP3   OH241962   4.778   2.920   3.429
14002TIP3    H141963   4.863   2.890   3.462
14002TIP3    H241964   4.772   3.011   3.458
14003TIP3   OH241965   1.514   0.370   0.712
14003TIP3    H141966   1.528   0.354   0.619
14003TIP3    H241967   1.425   0.405   0.718
14004TIP3   OH241968   6.487   3.583   5.521
14004TIP3    H141969   6.576   3.548   5.526
14004TIP3    H241970   6.437   3.515   5.475
14005TIP3   OH241971   4.367   3.737   4.042
14005TIP3    H141972   4.343   3.647   4.064
14005TIP3    H241973   4.402   3.731   3.953
14006TIP3   OH241974   4.419   0.126   3.189
14006TIP3    H141975   4.481   0.197   3.204
14006TIP3    H241976   4.473   0.054   3.154
14007TIP3   OH241977   8.269   6.112   1.584
14007TIP3    H141978   8.276   6.191   1.637
14007TIP3    H241979   8.183   6.119   1.542
14008TIP3   OH241980   0.858   0.192   3.009
14008TIP3    H141981   0.920   0.124   2.981
14008TIP3    H241982   0.913   0.258   3.052
14009TIP3   OH241983   0.046   2.106   1.470
14009TIP3    H141984   0.050   2.015   1.498
14009TIP3    H241985   0.019   2.154   1.547
14010TIP3   OH241986   6.020   0.353   2.137
14010TIP3    H141987   5.996   0.445   2.145
14010TIP3    H241988   5.937   0.305   2.145
14011TIP3   OH241989   2.113   6.154   2.485
14011TIP3    H141990   2.163   6.087   2.438
14011TIP3    H241991   2.029   6.158   2.439
14012TIP3   OH241992   7.140   3.427   5.275
14012TIP3    H141993   7.129   3.472   5.191
14012TIP3    H241994   7.225   3.383   5.267
14013TIP3   OH241995   7.228   4.175   0.343
14013TIP3    H141996   7.184   4.148   0.262
14013TIP3    H241997   7.255   4.265   0.326
14014TIP3   OH241998   4.028   1.385   2.462
14014TIP3    H141999   4.055   1.397   2.371
14014TIP3    H242000   4.109   1.394   2.513
14015TIP3   OH242001   5.771   3.351   6.396
14015TIP3    H142002   5.799   3.407   6.323
14015TIP3    H242003   5.749   3.267   6.354
14016TIP3   OH242004   5.456   4.792   6.515
14016TIP3    H142005   5.485   4.701   6.518
14016TIP3    H242006   5.362   4.787   6.536
14017TIP3   OH242007   3.953   0.223   6.664
14017TIP3    H142008   3.973   0.285   6.734
14017TIP3    H242009   4.013   0.150   6.678
14018TIP3   OH242010   6.029   0.487   5.678
14018TIP3    H142011   6.020   0.439   5.760
14018TIP3    H242012   5.966   0.559   5.685
14019TIP3   OH242013   2.639   3.058   1.352
14019TIP3    H142014   2.694   3.023   1.422
14019TIP3    H242015   2.699   3.077   1.280
14020TIP3   OH242016   2.764   7.324   6.599
14020TIP3    H142017   2.827   7.355   6.664
14020TIP3    H242018   2.707   7.399   6.583
14021TIP3   OH242019   4.482   2.242   2.564
14021TIP3    H142020   4.486   2.191   2.645
14021TIP3    H242021   4.389   2.247   2.543
14022TIP3   OH242022   0.106   1.097   1.696
14022TIP3    H142023   0.092   1.014   1.649
14022TIP3    H242024   0.168   1.145   1.641
14023TIP3   OH242025   6.120   1.343   5.649
14023TIP3    H142026   6.030   1.313   5.666
14023TIP3    H242027   6.160   1.350   5.735
14024TIP3   OH242028   2.476   0.578   5.979
14024TIP3    H142029   2.509   0.647   5.921
14024TIP3    H242030   2.477   0.617   6.066
14025TIP3   OH242031   1.306   1.767   5.811
14025TIP3    H142032   1.360   1.758   5.889
14025TIP3    H242033   1.260   1.683   5.804
14026TIP3   OH242034   6.316   3.870   1.018
14026TIP3    H142035   6.294   3.849   0.928
14026TIP3    H242036   6.232   3.888   1.060
14027TIP3   OH242037   5.106   0.846   0.453
14027TIP3    H142038   5.197   0.857   0.481
14027TIP3    H242039   5.073   0.774   0.507
14028TIP3   OH242040   2.418   0.507   3.704
14028TIP3    H142041   2.395   0.426   3.748
14028TIP3    H242042   2.335   0.542   3.672
14029TIP3   OH242043   3.642   5.164   2.965
14029TIP3    H142044   3.705   5.122   3.023
14029TIP3    H242045   3.686   5.168   2.880
14030TIP3   OH242046   3.621   2.550   0.258
14030TIP3    H142047   3.620   2.474   0.201
14030TIP3    H242048   3.576   2.618   0.208
14031TIP3   OH242049   5.219   3.856   1.323
14031TIP3    H142050   5.205   3.765   1.298
14031TIP3    H242051   5.131   3.894   1.325
14032TIP3   OH242052   5.824   4.916   1.895
14032TIP3    H142053   5.772   4.983   1.939
14032TIP3    H242054   5.895   4.964   1.852
14033TIP3   OH242055   5.672   1.003   5.142
14033TIP3    H142056   5.631   0.958   5.216
14033TIP3    H242057   5.731   1.066   5.183
14034TIP3   OH242058   5.877   2.278   0.439
14034TIP3    H142059   5.937   2.317   0.375
14034TIP3    H242060   5.869   2.187   0.411
14035TIP3   OH242061   0.478   7.172   4.163
14035TIP3    H142062   0.487   7.091   4.112
14035TIP3    H242063   0.393   7.164   4.205
14036TIP3   OH242064   2.703   1.753   3.105
14036TIP3    H142065   2.642   1.786   3.040
14036TIP3    H242066   2.682   1.660   3.113
14037TIP3   OH242067   6.266   7.303   3.063
14037TIP3    H142068   6.324   7.241   3.107
14037TIP3    H242069   6.321   7.342   2.995
14038TIP3   OH242070   2.377   0.314   6.328
14038TIP3    H142071   2.311   0.380   6.348
14038TIP3    H242072   2.458   0.364   6.315
14039TIP3   OH242073   4.311   2.260   5.980
14039TIP3    H142074   4.393   2.210   5.974
14039TIP3    H242075   4.245   2.202   5.940
14040TIP3   OH242076   7.386   2.147   5.834
14040TIP3    H142077   7.454   2.210   5.810
14040TIP3    H242078   7.304   2.196   5.828
14041TIP3   OH242079   0.535   4.411   5.353
14041TIP3    H142080   0.574   4.466   5.285
14041TIP3    H242081   0.608   4.361   5.389
14042TIP3   OH242082   5.438   1.901   2.953
14042TIP3    H142083   5.375   1.834   2.927
14042TIP3    H242084   5.397   1.946   3.026
14043TIP3   OH242085   2.096   2.062   2.746
14043TIP3    H142086   2.034   2.081   2.817
14043TIP3    H242087   2.042   2.028   2.675
14044TIP3   OH242088   0.697   3.373   0.188
14044TIP3    H142089   0.774   3.401   0.237
14044TIP3    H242090   0.641   3.451   0.184
14045TIP3   OH242091   3.167   2.391   4.391
14045TIP3    H142092   3.224   2.317   4.371
14045TIP3    H242093   3.140   2.377   4.482
14046TIP3   OH242094   5.415   3.929   6.500
14046TIP3    H142095   5.326   3.961   6.487
14046TIP3    H242096   5.414   3.888   6.586
14047TIP3   OH242097   0.864   1.475   4.178
14047TIP3    H142098   0.818   1.517   4.106
14047TIP3    H242099   0.797   1.424   4.224
14048TIP3   OH242100   4.939   6.025   3.932
14048TIP3    H142101   4.992   5.951   3.904
14048TIP3    H242102   4.903   5.998   4.017
14049TIP3   OH242103   6.426   1.154   2.186
14049TIP3    H142104   6.376   1.106   2.252
14049TIP3    H242105   6.512   1.167   2.226
14050TIP3   OH242106   0.561   4.606   3.893
14050TIP3    H142107   0.499   4.659   3.943
14050TIP3    H242108   0.545   4.629   3.802
14051TIP3   OH242109  -0.014   3.885   3.609
14051TIP3    H142110   0.033   3.831   3.673
14051TIP3    H242111  -0.022   3.971   3.651
14052TIP3   OH242112   7.505   5.930   3.068
14052TIP3    H142113   7.529   5.853   3.121
14052TIP3    H242114   7.579   5.990   3.079
14053TIP3   OH242115   7.738   4.959   3.339
14053TIP3    H142116   7.765   4.960   3.431
14053TIP3    H242117   7.813   4.921   3.293
14054TIP3   OH242118   0.779   3.850   2.497
14054TIP3    H142119   0.868   3.824   2.475
14054TIP3    H242120   0.766   3.932   2.449
14055TIP3   OH242121   2.046   4.314   5.954
14055TIP3    H142122   2.063   4.390   6.010
14055TIP3    H242123   2.072   4.239   6.007
14056TIP3   OH242124   7.476   7.540   5.883
14056TIP3    H142125   7.512   7.452   5.896
14056TIP3    H242126   7.540   7.599   5.924
14057TIP3   OH242127   4.980   5.353   1.030
14057TIP3    H142128   4.918   5.281   1.046
14057TIP3    H242129   4.926   5.423   0.995
14058TIP3   OH242130   6.109   3.664   6.470
14058TIP3    H142131   6.199   3.629   6.469
14058TIP3    H242132   6.067   3.621   6.396
14059TIP3   OH242133   7.981   5.343   1.509
14059TIP3    H142134   7.931   5.307   1.582
14059TIP3    H242135   8.021   5.423   1.543
14060TIP3   OH242136   5.544   4.856   4.226
14060TIP3    H142137   5.453   4.827   4.234
14060TIP3    H242138   5.566   4.889   4.313
14061TIP3   OH242139   2.487   6.972   4.697
14061TIP3    H142140   2.457   6.908   4.632
14061TIP3    H242141   2.500   7.053   4.648
14062TIP3   OH242142   7.104   3.503   5.831
14062TIP3    H142143   7.046   3.579   5.826
14062TIP3    H242144   7.142   3.507   5.919
14063TIP3   OH242145   0.545   3.979   3.169
14063TIP3    H142146   0.563   3.996   3.262
14063TIP3    H242147   0.450   3.969   3.164
14064TIP3   OH242148   7.552   1.384   0.230
14064TIP3    H142149   7.506   1.447   0.286
14064TIP3    H242150   7.620   1.347   0.285
14065TIP3   OH242151   4.173   7.454   6.135
14065TIP3    H142152   4.254   7.410   6.163
14065TIP3    H242153   4.133   7.393   6.073
14066TIP3   OH242154   3.342   2.263   2.245
14066TIP3    H142155   3.394   2.305   2.313
14066TIP3    H242156   3.266   2.228   2.291
14067TIP3   OH242157   6.996   7.345   0.380
14067TIP3    H142158   7.030   7.321   0.294
14067TIP3    H242159   7.070   7.333   0.439
14068TIP3   OH242160   5.748   0.676   5.645
14068TIP3    H142161   5.711   0.747   5.592
14068TIP3    H242162   5.777   0.718   5.725
14069TIP3   OH242163   5.631   6.138   0.616
14069TIP3    H142164   5.717   6.118   0.653
14069TIP3    H242165   5.643   6.220   0.569
14070TIP3   OH242166   1.221   0.427   2.432
14070TIP3    H142167   1.236   0.478   2.512
14070TIP3    H242168   1.283   0.464   2.369
14071TIP3   OH242169   3.769   0.944   4.438
14071TIP3    H142170   3.830   0.970   4.506
14071TIP3    H242171   3.757   0.850   4.450
14072TIP3   OH242172   2.337   0.157   1.969
14072TIP3    H142173   2.383   0.084   1.928
14072TIP3    H242174   2.406   0.215   2.001
14073TIP3   OH242175   3.007   0.067   3.869
14073TIP3    H142176   3.002   0.135   3.937
14073TIP3    H242177   3.019   0.115   3.787
14074TIP3   OH242178   5.432   2.684   4.776
14074TIP3    H142179   5.388   2.608   4.814
14074TIP3    H242180   5.365   2.753   4.775
14075TIP3   OH242181   2.847   2.529   1.136
14075TIP3    H142182   2.794   2.600   1.170
14075TIP3    H242183   2.903   2.502   1.209
14076TIP3   OH242184   1.668   6.000   3.576
14076TIP3    H142185   1.622   6.003   3.660
14076TIP3    H242186   1.736   6.066   3.584
14077TIP3   OH242187   6.829   1.232   0.583
14077TIP3    H142188   6.786   1.286   0.516
14077TIP3    H242189   6.919   1.266   0.587
14078TIP3   OH242190   1.230   7.361   4.754
14078TIP3    H142191   1.278   7.378   4.835
14078TIP3    H242192   1.153   7.417   4.760
14079TIP3   OH242193   3.442   3.618   2.374
14079TIP3    H142194   3.473   3.562   2.303
14079TIP3    H242195   3.350   3.636   2.352
14080TIP3   OH242196   0.034   3.592   0.258
14080TIP3    H142197   0.061   3.656   0.323
14080TIP3    H242198  -0.034   3.637   0.207
14081TIP3   OH242199   3.943   5.181   4.775
14081TIP3    H142200   3.908   5.256   4.822
14081TIP3    H242201   3.895   5.106   4.812
14082TIP3   OH242202   1.172   7.028   4.506
14082TIP3    H142203   1.176   7.034   4.602
14082TIP3    H242204   1.102   7.088   4.482
14083TIP3   OH242205   7.819   5.791   0.968
14083TIP3    H142206   7.877   5.810   0.894
14083TIP3    H242207   7.797   5.877   1.004
14084TIP3   OH242208   5.731   2.609   4.505
14084TIP3    H142209   5.814   2.565   4.522
14084TIP3    H242210   5.685   2.550   4.445
14085TIP3   OH242211   3.955   1.621   2.770
14085TIP3    H142212   3.970   1.703   2.816
14085TIP3    H242213   3.859   1.616   2.762
14086TIP3   OH242214   1.966   7.153   1.996
14086TIP3    H142215   1.880   7.181   2.026
14086TIP3    H242216   1.953   7.127   1.904
14087TIP3   OH242217   2.180   0.847   3.463
14087TIP3    H142218   2.087   0.834   3.476
14087TIP3    H242219   2.216   0.758   3.457
14088TIP3   OH242220   2.083   2.259   6.199
14088TIP3    H142221   2.109   2.223   6.285
14088TIP3    H242222   2.115   2.195   6.136
14089TIP3   OH242223   7.897   7.053   5.279
14089TIP3    H142224   7.963   6.989   5.306
14089TIP3    H242225   7.938   7.138   5.296
14090TIP3   OH242226   8.177   4.612   1.703
14090TIP3    H142227   8.222   4.652   1.628
14090TIP3    H242228   8.146   4.686   1.755
14091TIP3   OH242229   6.653   5.886   0.289
14091TIP3    H142230   6.565   5.849   0.293
14091TIP3    H242231   6.680   5.893   0.381
14092TIP3   OH242232   1.165   3.440   4.926
14092TIP3    H142233   1.211   3.516   4.962
14092TIP3    H242234   1.078   3.444   4.964
14093TIP3   OH242235   7.883   1.150   0.857
14093TIP3    H142236   7.794   1.163   0.890
14093TIP3    H242237   7.925   1.235   0.867
14094TIP3   OH242238   0.477   7.052   6.022
14094TIP3    H142239   0.538   7.027   6.092
14094TIP3    H242240   0.509   7.005   5.945
14095TIP3   OH242241   4.865   6.189   6.699
14095TIP3    H142242   4.830   6.151   6.780
14095TIP3    H242243   4.949   6.145   6.687
14096TIP3   OH242244   0.469   3.686   2.572
14096TIP3    H142245   0.395   3.644   2.529
14096TIP3    H242246   0.545   3.633   2.546
14097TIP3   OH242247   7.994   3.620   3.995
14097TIP3    H142248   8.025   3.668   3.918
14097TIP3    H242249   7.931   3.678   4.036
14098TIP3   OH242250   5.781   2.820   1.740
14098TIP3    H142251   5.820   2.818   1.653
14098TIP3    H242252   5.767   2.913   1.758
14099TIP3   OH242253   1.713   4.016   6.285
14099TIP3    H142254   1.699   4.039   6.193
14099TIP3    H242255   1.799   3.974   6.287
14100TIP3   OH242256   7.666   2.216   4.875
14100TIP3    H142257   7.613   2.229   4.796
14100TIP3    H242258   7.635   2.282   4.936
14101TIP3   OH242259   7.393   5.215   3.504
14101TIP3    H142260   7.435   5.199   3.588
14101TIP3    H242261   7.384   5.310   3.498
14102TIP3   OH242262   1.435   5.331   4.648
14102TIP3    H142263   1.343   5.345   4.624
14102TIP3    H242264   1.453   5.242   4.618
14103TIP3   OH242265   7.265   7.048   5.212
14103TIP3    H142266   7.239   7.131   5.253
14103TIP3    H242267   7.231   6.980   5.271
14104TIP3   OH242268   2.915   6.075   5.564
14104TIP3    H142269   2.868   5.996   5.538
14104TIP3    H242270   2.902   6.081   5.659
14105TIP3   OH242271   2.571   5.248   0.838
14105TIP3    H142272   2.648   5.193   0.826
14105TIP3    H242273   2.552   5.243   0.932
14106TIP3   OH242274   5.116   2.536   3.587
14106TIP3    H142275   5.096   2.615   3.638
14106TIP3    H242276   5.212   2.536   3.581
14107TIP3   OH242277   7.766   1.909   0.976
14107TIP3    H142278   7.804   1.840   1.031
14107TIP3    H242279   7.708   1.862   0.916
14108TIP3   OH242280   4.320   1.793   3.119
14108TIP3    H142281   4.319   1.887   3.105
14108TIP3    H242282   4.332   1.755   3.032
14109TIP3   OH242283   1.575   7.534   4.378
14109TIP3    H142284   1.648   7.533   4.316
14109TIP3    H242285   1.554   7.626   4.390
14110TIP3   OH242286   6.397   7.446   1.206
14110TIP3    H142287   6.475   7.421   1.255
14110TIP3    H242288   6.371   7.531   1.243
14111TIP3   OH242289   6.892   0.680   4.000
14111TIP3    H142290   6.808   0.665   4.043
14111TIP3    H242291   6.933   0.750   4.052
14112TIP3   OH242292   3.845   7.046   3.244
14112TIP3    H142293   3.885   7.082   3.165
14112TIP3    H242294   3.792   7.118   3.279
14113TIP3   OH242295   5.580   0.122   0.413
14113TIP3    H142296   5.606   0.144   0.324
14113TIP3    H242297   5.599   0.028   0.420
14114TIP3   OH242298   3.292   5.877   2.014
14114TIP3    H142299   3.220   5.940   2.020
14114TIP3    H242300   3.310   5.869   1.921
14115TIP3   OH242301   6.748   7.706   5.951
14115TIP3    H142302   6.840   7.730   5.947
14115TIP3    H242303   6.709   7.771   6.010
14116TIP3   OH242304   4.949   7.470   1.111
14116TIP3    H142305   4.902   7.551   1.131
14116TIP3    H242306   4.923   7.409   1.180
14117TIP3   OH242307   0.860   2.341   2.156
14117TIP3    H142308   0.920   2.280   2.198
14117TIP3    H242309   0.864   2.320   2.063
14118TIP3   OH242310   4.141   0.393   3.226
14118TIP3    H142311   4.082   0.374   3.298
14118TIP3    H242312   4.090   0.374   3.147
14119TIP3   OH242313   2.753   1.026   2.481
14119TIP3    H142314   2.672   0.979   2.500
14119TIP3    H242315   2.814   0.995   2.548
14120TIP3   OH242316   7.893   3.133   1.937
14120TIP3    H142317   7.816   3.186   1.956
14120TIP3    H242318   7.943   3.184   1.873
14121TIP3   OH242319   5.425   1.353   6.527
14121TIP3    H142320   5.466   1.273   6.559
14121TIP3    H242321   5.418   1.340   6.433
14122TIP3   OH242322   5.049   6.971   2.899
14122TIP3    H142323   5.015   7.060   2.890
14122TIP3    H242324   4.972   6.917   2.914
14123TIP3   OH242325   6.384   7.550   4.632
14123TIP3    H142326   6.448   7.479   4.632
14123TIP3    H242327   6.341   7.543   4.718
14124TIP3   OH242328   3.937   5.608   0.072
14124TIP3    H142329   3.933   5.587   0.165
14124TIP3    H242330   3.971   5.529   0.031
14125TIP3   OH242331   4.936   0.919   2.442
14125TIP3    H142332   5.015   0.973   2.434
14125TIP3    H242333   4.965   0.840   2.488
14126TIP3   OH242334   2.424   3.472   0.004
14126TIP3    H142335   2.400   3.564   0.000
14126TIP3    H242336   2.341   3.425  -0.005
14127TIP3   OH242337   3.229   7.567   3.324
14127TIP3    H142338   3.242   7.505   3.252
14127TIP3    H242339   3.136   7.559   3.346
14128TIP3   OH242340   2.982   3.317   5.069
14128TIP3    H142341   2.957   3.261   4.996
14128TIP3    H242342   2.956   3.268   5.147
14129TIP3   OH242343   4.883   6.339   5.972
14129TIP3    H142344   4.882   6.280   5.897
14129TIP3    H242345   4.793   6.370   5.979
14130TIP3   OH242346   6.814   2.564   6.645
14130TIP3    H142347   6.868   2.519   6.580
14130TIP3    H242348   6.787   2.645   6.602
14131TIP3   OH242349   0.916   2.113   3.182
14131TIP3    H142350   0.893   2.059   3.258
14131TIP3    H242351   0.950   2.194   3.220
14132TIP3   OH242352   5.434   2.982   2.172
14132TIP3    H142353   5.378   2.956   2.099
14132TIP3    H242354   5.478   3.061   2.142
14133TIP3   OH242355   2.563   3.915   2.625
14133TIP3    H142356   2.468   3.929   2.631
14133TIP3    H242357   2.600   3.977   2.687
14134TIP3   OH242358   5.764   7.349   3.779
14134TIP3    H142359   5.845   7.395   3.758
14134TIP3    H242360   5.734   7.315   3.694
14135TIP3   OH242361   5.752   1.750   3.374
14135TIP3    H142362   5.748   1.730   3.280
14135TIP3    H242363   5.808   1.682   3.411
14136TIP3   OH242364   3.555   6.846   5.574
14136TIP3    H142365   3.616   6.874   5.506
14136TIP3    H242366   3.472   6.888   5.551
14137TIP3   OH242367   3.256   0.898   1.211
14137TIP3    H142368   3.204   0.881   1.290
14137TIP3    H242369   3.344   0.914   1.244
14138TIP3   OH242370   6.215   4.526   6.510
14138TIP3    H142371   6.301   4.566   6.525
14138TIP3    H242372   6.173   4.525   6.596
14139TIP3   OH242373   0.318   4.097   3.516
14139TIP3    H142374   0.274   4.151   3.450
14139TIP3    H242375   0.301   4.142   3.599
14140TIP3   OH242376   2.211   2.886   6.552
14140TIP3    H142377   2.201   2.970   6.507
14140TIP3    H242378   2.299   2.889   6.589
14141TIP3   OH242379   3.251   5.449   4.063
14141TIP3    H142380   3.209   5.484   4.141
14141TIP3    H242381   3.310   5.519   4.034
14142TIP3   OH242382   6.263   0.065   3.370
14142TIP3    H142383   6.210   0.078   3.291
14142TIP3    H242384   6.354   0.076   3.340
14143TIP3   OH242385   2.085   3.941   3.457
14143TIP3    H142386   2.093   3.846   3.446
14143TIP3    H242387   2.026   3.969   3.387
14144TIP3   OH242388   4.047   2.164   6.203
14144TIP3    H142389   4.088   2.120   6.130
14144TIP3    H242390   3.967   2.202   6.167
14145TIP3   OH242391   5.990   0.783   0.316
14145TIP3    H142392   5.986   0.717   0.385
14145TIP3    H242393   5.908   0.771   0.268
14146TIP3   OH242394   0.126   0.798   0.765
14146TIP3    H142395   0.084   0.823   0.683
14146TIP3    H242396   0.074   0.724   0.796
14147TIP3   OH242397   7.134   4.740   3.379
14147TIP3    H142398   7.053   4.704   3.415
14147TIP3    H242399   7.126   4.729   3.284
14148TIP3   OH242400   0.783   5.193   5.589
14148TIP3    H142401   0.848   5.202   5.519
14148TIP3    H242402   0.705   5.236   5.554
14149TIP3   OH242403   2.279   2.595   2.039
14149TIP3    H142404   2.223   2.518   2.041
14149TIP3    H242405   2.235   2.658   2.095
14150TIP3   OH242406   6.728   1.382   3.789
14150TIP3    H142407   6.692   1.451   3.846
14150TIP3    H242408   6.812   1.360   3.829
14151TIP3   OH242409   0.218   3.220   3.423
14151TIP3    H142410   0.239   3.312   3.407
14151TIP3    H242411   0.283   3.172   3.370
14152TIP3   OH242412   1.011   6.133   1.249
14152TIP3    H142413   0.977   6.174   1.170
14152TIP3    H242414   0.949   6.063   1.269
14153TIP3   OH242415   3.482   3.590   3.719
14153TIP3    H142416   3.519   3.667   3.674
14153TIP3    H242417   3.396   3.578   3.679
14154TIP3   OH242418   6.582   5.667   5.527
14154TIP3    H142419   6.618   5.587   5.489
14154TIP3    H242420   6.564   5.724   5.452
14155TIP3   OH242421   6.046   6.170   4.002
14155TIP3    H142422   6.139   6.167   4.022
14155TIP3    H242423   6.041   6.149   3.909
14156TIP3   OH242424   6.079   1.752   0.278
14156TIP3    H142425   5.986   1.767   0.262
14156TIP3    H242426   6.080   1.687   0.349
14157TIP3   OH242427   6.439   3.153   2.469
14157TIP3    H142428   6.444   3.175   2.562
14157TIP3    H242429   6.359   3.100   2.462
14158TIP3   OH242430   2.455   2.003   6.690
14158TIP3    H142431   2.500   1.968   6.613
14158TIP3    H242432   2.525   2.046   6.740
14159TIP3   OH242433   7.727   7.206   6.575
14159TIP3    H142434   7.795   7.186   6.510
14159TIP3    H242435   7.760   7.168   6.656
14160TIP3   OH242436   2.643   0.091   1.640
14160TIP3    H142437   2.669   0.112   1.730
14160TIP3    H242438   2.645   0.175   1.594
14161TIP3   OH242439   1.364   3.657   3.342
14161TIP3    H142440   1.444   3.671   3.393
14161TIP3    H242441   1.395   3.632   3.255
14162TIP3   OH242442   4.097   6.632   5.402
14162TIP3    H142443   4.063   6.565   5.343
14162TIP3    H242444   4.192   6.620   5.400
14163TIP3   OH242445   7.847   1.194   5.612
14163TIP3    H142446   7.849   1.288   5.630
14163TIP3    H242447   7.841   1.153   5.698
14164TIP3   OH242448   5.889   3.101   1.425
14164TIP3    H142449   5.803   3.112   1.464
14164TIP3    H242450   5.880   3.027   1.365
14165TIP3   OH242451   3.887   0.838   2.474
14165TIP3    H142452   3.929   0.924   2.475
14165TIP3    H242453   3.950   0.780   2.432
14166TIP3   OH242454   2.166   3.197   0.130
14166TIP3    H142455   2.141   3.210   0.039
14166TIP3    H242456   2.134   3.275   0.175
14167TIP3   OH242457   5.274   1.802   4.380
14167TIP3    H142458   5.252   1.725   4.432
14167TIP3    H242459   5.307   1.767   4.297
14168TIP3   OH242460   1.012   2.523   5.154
14168TIP3    H142461   1.059   2.604   5.138
14168TIP3    H242462   1.074   2.467   5.201
14169TIP3   OH242463   6.654   6.725   2.497
14169TIP3    H142464   6.628   6.796   2.439
14169TIP3    H242465   6.728   6.760   2.548
14170TIP3   OH242466   4.917   6.792   3.465
14170TIP3    H142467   4.852   6.722   3.465
14170TIP3    H242468   5.001   6.747   3.477
14171TIP3   OH242469   8.262   0.431   2.670
14171TIP3    H142470   8.301   0.510   2.707
14171TIP3    H242471   8.203   0.399   2.738
14172TIP3   OH242472   2.367   7.532   1.655
14172TIP3    H142473   2.354   7.619   1.618
14172TIP3    H242474   2.279   7.496   1.665
14173TIP3   OH242475   5.985   4.382   1.715
14173TIP3    H142476   5.993   4.287   1.729
14173TIP3    H242477   6.075   4.413   1.707
14174TIP3   OH242478   3.333   0.401   5.264
14174TIP3    H142479   3.350   0.310   5.288
14174TIP3    H242480   3.259   0.427   5.319
14175TIP3   OH242481   3.815   2.637   0.552
14175TIP3    H142482   3.797   2.560   0.499
14175TIP3    H242483   3.909   2.632   0.571
14176TIP3   OH242484   3.290   0.324   2.470
14176TIP3    H142485   3.213   0.381   2.465
14176TIP3    H242486   3.355   0.367   2.415
14177TIP3   OH242487   0.832   5.743   4.664
14177TIP3    H142488   0.842   5.724   4.757
14177TIP3    H242489   0.911   5.706   4.624
14178TIP3   OH242490   7.676   0.708   4.253
14178TIP3    H142491   7.646   0.780   4.310
14178TIP3    H242492   7.769   0.725   4.240
14179TIP3   OH242493   6.534   6.412   0.217
14179TIP3    H142494   6.561   6.462   0.140
14179TIP3    H242495   6.547   6.320   0.192
14180TIP3   OH242496   1.321   3.985   3.320
14180TIP3    H142497   1.336   3.956   3.410
14180TIP3    H242498   1.263   3.918   3.282
14181TIP3   OH242499   1.804   4.247   1.169
14181TIP3    H142500   1.790   4.333   1.129
14181TIP3    H242501   1.894   4.250   1.201
14182TIP3   OH242502   3.549   6.377   0.252
14182TIP3    H142503   3.524   6.308   0.313
14182TIP3    H242504   3.487   6.369   0.179
14183TIP3   OH242505   1.354   0.836   4.285
14183TIP3    H142506   1.330   0.875   4.202
14183TIP3    H242507   1.353   0.741   4.268
14184TIP3   OH242508   6.808   2.544   5.444
14184TIP3    H142509   6.854   2.538   5.361
14184TIP3    H242510   6.750   2.468   5.445
14185TIP3   OH242511   7.670   6.772   1.646
14185TIP3    H142512   7.607   6.776   1.575
14185TIP3    H242513   7.618   6.756   1.724
14186TIP3   OH242514   2.991   3.175   0.074
14186TIP3    H142515   2.947   3.190   0.158
14186TIP3    H242516   3.027   3.261   0.050
14187TIP3   OH242517   3.936   6.416   5.910
14187TIP3    H142518   3.854   6.466   5.913
14187TIP3    H242519   3.997   6.473   5.863
14188TIP3   OH242520   5.656   2.068   1.791
14188TIP3    H142521   5.608   2.116   1.724
14188TIP3    H242522   5.597   2.066   1.867
14189TIP3   OH242523   8.116   6.964   4.232
14189TIP3    H142524   8.184   6.949   4.167
14189TIP3    H242525   8.141   7.046   4.275
14190TIP3   OH242526   1.802   1.088   3.654
14190TIP3    H142527   1.712   1.061   3.633
14190TIP3    H242528   1.828   1.028   3.724
14191TIP3   OH242529   1.700   4.565   0.126
14191TIP3    H142530   1.670   4.501   0.191
14191TIP3    H242531   1.713   4.645   0.176
14192TIP3   OH242532   5.988   6.292   2.652
14192TIP3    H142533   6.005   6.240   2.574
14192TIP3    H242534   5.970   6.380   2.619
14193TIP3   OH242535   0.400   7.323   5.955
14193TIP3    H142536   0.460   7.367   6.015
14193TIP3    H242537   0.407   7.230   5.976
14194TIP3   OH242538   5.388   2.312   1.402
14194TIP3    H142539   5.347   2.364   1.332
14194TIP3    H242540   5.330   2.237   1.413
14195TIP3   OH242541   8.195   7.777   0.015
14195TIP3    H142542   8.193   7.865   0.051
14195TIP3    H242543   8.151   7.723   0.081
14196TIP3   OH242544   5.860   7.789   0.465
14196TIP3    H142545   5.829   7.702   0.490
14196TIP3    H242546   5.954   7.779   0.452
14197TIP3   OH242547   6.551   0.777   2.379
14197TIP3    H142548   6.494   0.785   2.303
14197TIP3    H242549   6.542   0.685   2.406
14198TIP3   OH242550   5.158   4.802   3.109
14198TIP3    H142551   5.157   4.881   3.055
14198TIP3    H242552   5.147   4.834   3.198
14199TIP3   OH242553   0.543   0.645   4.657
14199TIP3    H142554   0.561   0.566   4.606
14199TIP3    H242555   0.542   0.716   4.592
14200TIP3   OH242556   4.276   0.483   0.783
14200TIP3    H142557   4.212   0.448   0.721
14200TIP3    H242558   4.338   0.411   0.797
14201TIP3   OH242559   5.127   0.695   1.005
14201TIP3    H142560   5.151   0.760   0.939
14201TIP3    H242561   5.210   0.663   1.039
14202TIP3   OH242562   2.726   3.541   1.224
14202TIP3    H142563   2.648   3.594   1.210
14202TIP3    H242564   2.718   3.470   1.159
14203TIP3   OH242565   8.283   3.540   4.547
14203TIP3    H142566   8.201   3.578   4.515
14203TIP3    H242567   8.350   3.604   4.523
14204TIP3   OH242568   7.534   1.296   5.830
14204TIP3    H142569   7.492   1.301   5.745
14204TIP3    H242570   7.622   1.263   5.812
14205TIP3   OH242571   7.436   0.046   4.790
14205TIP3    H142572   7.507   0.069   4.850
14205TIP3    H242573   7.478   0.034   4.705
14206TIP3   OH242574   6.325   0.206   5.172
14206TIP3    H142575   6.334   0.222   5.078
14206TIP3    H242576   6.257   0.139   5.179
14207TIP3   OH242577   8.154   4.215   1.927
14207TIP3    H142578   8.062   4.240   1.919
14207TIP3    H242579   8.153   4.119   1.917
14208TIP3   OH242580   6.659   5.048   5.728
14208TIP3    H142581   6.612   5.075   5.807
14208TIP3    H242582   6.752   5.061   5.750
14209TIP3   OH242583   3.159   4.763   4.454
14209TIP3    H142584   3.200   4.757   4.368
14209TIP3    H242585   3.232   4.752   4.516
14210TIP3   OH242586   7.408   0.411   5.913
14210TIP3    H142587   7.339   0.392   5.850
14210TIP3    H242588   7.473   0.342   5.899
14211TIP3   OH242589   3.768   1.472   2.479
14211TIP3    H142590   3.721   1.391   2.500
14211TIP3    H242591   3.858   1.443   2.464
14212TIP3   OH242592   4.138   1.036   4.296
14212TIP3    H142593   4.200   1.032   4.223
14212TIP3    H242594   4.163   0.963   4.352
14213TIP3   OH242595   4.583   0.361   4.124
14213TIP3    H142596   4.514   0.428   4.124
14213TIP3    H242597   4.622   0.367   4.210
14214TIP3   OH242598   7.307   6.687   3.229
14214TIP3    H142599   7.246   6.615   3.245
14214TIP3    H242600   7.268   6.736   3.157
14215TIP3   OH242601   0.314   4.936   1.678
14215TIP3    H142602   0.294   4.851   1.718
14215TIP3    H242603   0.247   4.995   1.714
14216TIP3   OH242604   0.049   2.462   5.123
14216TIP3    H142605   0.098   2.536   5.161
14216TIP3    H242606  -0.038   2.498   5.105
14217TIP3   OH242607   0.854   4.700   4.369
14217TIP3    H142608   0.811   4.635   4.313
14217TIP3    H242609   0.948   4.686   4.354
14218TIP3   OH242610   0.482   7.011   5.534
14218TIP3    H142611   0.463   7.047   5.620
14218TIP3    H242612   0.574   7.033   5.518
14219TIP3   OH242613   6.551   6.127   0.488
14219TIP3    H142614   6.504   6.082   0.417
14219TIP3    H242615   6.483   6.156   0.548
14220TIP3   OH242616   3.180   5.416   0.447
14220TIP3    H142617   3.157   5.499   0.406
14220TIP3    H242618   3.106   5.396   0.504
14221TIP3   OH242619   2.993   1.241   3.438
14221TIP3    H142620   2.978   1.325   3.480
14221TIP3    H242621   2.988   1.177   3.510
14222TIP3   OH242622   5.637   4.939   1.138
14222TIP3    H142623   5.712   4.884   1.161
14222TIP3    H242624   5.673   5.028   1.131
14223TIP3   OH242625   5.861   4.957   4.788
14223TIP3    H142626   5.933   4.911   4.745
14223TIP3    H242627   5.899   4.990   4.870
14224TIP3   OH242628   3.995   5.531   0.825
14224TIP3    H142629   3.994   5.626   0.818
14224TIP3    H242630   3.915   5.503   0.781
14225TIP3   OH242631   1.821   4.886   5.288
14225TIP3    H142632   1.910   4.919   5.298
14225TIP3    H242633   1.803   4.839   5.369
14226TIP3   OH242634   5.981   4.865   3.508
14226TIP3    H142635   5.912   4.931   3.497
14226TIP3    H242636   6.045   4.907   3.565
14227TIP3   OH242637   6.518   1.223   1.149
14227TIP3    H142638   6.604   1.261   1.165
14227TIP3    H242639   6.534   1.129   1.141
14228TIP3   OH242640   8.072   1.758   2.271
14228TIP3    H142641   8.072   1.669   2.308
14228TIP3    H242642   7.987   1.766   2.228
14229TIP3   OH242643   5.418   1.848   1.087
14229TIP3    H142644   5.350   1.905   1.052
14229TIP3    H242645   5.496   1.869   1.036
14230TIP3   OH242646   3.150   0.156   6.014
14230TIP3    H142647   3.169   0.241   5.973
14230TIP3    H242648   3.059   0.162   6.041
14231TIP3   OH242649   0.556   2.015   5.723
14231TIP3    H142650   0.637   2.034   5.772
14231TIP3    H242651   0.516   1.943   5.770
14232TIP3   OH242652   0.848   3.349   1.490
14232TIP3    H142653   0.901   3.286   1.538
14232TIP3    H242654   0.818   3.411   1.556
14233TIP3   OH242655   2.743   4.301   6.148
14233TIP3    H142656   2.757   4.386   6.108
14233TIP3    H242657   2.738   4.240   6.075
14234TIP3   OH242658   5.982   2.489   4.296
14234TIP3    H142659   5.949   2.409   4.335
14234TIP3    H242660   6.060   2.511   4.346
14235TIP3   OH242661   1.379   7.386   3.493
14235TIP3    H142662   1.435   7.464   3.492
14235TIP3    H242663   1.437   7.315   3.467
14236TIP3   OH242664   7.078   1.315   4.728
14236TIP3    H142665   7.138   1.334   4.656
14236TIP3    H242666   7.133   1.275   4.796
14237TIP3   OH242667   5.593   0.354   1.431
14237TIP3    H142668   5.590   0.275   1.376
14237TIP3    H242669   5.565   0.324   1.518
14238TIP3   OH242670   6.957   4.356   5.849
14238TIP3    H142671   6.885   4.403   5.805
14238TIP3    H242672   6.913   4.293   5.905
14239TIP3   OH242673   0.052   2.221   4.641
14239TIP3    H142674   0.079   2.282   4.709
14239TIP3    H242675   0.094   2.254   4.561
14240TIP3   OH242676   5.568   0.446   3.339
14240TIP3    H142677   5.647   0.453   3.285
14240TIP3    H242678   5.595   0.392   3.413
14241TIP3   OH242679   1.268   3.389   2.206
14241TIP3    H142680   1.185   3.349   2.229
14241TIP3    H242681   1.300   3.338   2.131
14242TIP3   OH242682   3.124   0.508   5.408
14242TIP3    H142683   3.144   0.594   5.444
14242TIP3    H242684   3.028   0.506   5.402
14243TIP3   OH242685   0.654   3.774   3.511
14243TIP3    H142686   0.643   3.861   3.474
14243TIP3    H242687   0.576   3.761   3.565
14244TIP3   OH242688   4.933   5.665   3.302
14244TIP3    H142689   4.892   5.717   3.233
14244TIP3    H242690   4.936   5.576   3.265
14245TIP3   OH242691   4.876   2.644   4.852
14245TIP3    H142692   4.893   2.673   4.941
14245TIP3    H242693   4.813   2.573   4.862
14246TIP3   OH242694   7.792   3.539   1.006
14246TIP3    H142695   7.718   3.491   1.044
14246TIP3    H242696   7.799   3.619   1.058
14247TIP3   OH242697   4.148   6.845   0.935
14247TIP3    H142698   4.095   6.783   0.985
14247TIP3    H242699   4.230   6.851   0.983
14248TIP3   OH242700   7.144   3.931   2.439
14248TIP3    H142701   7.098   3.896   2.363
14248TIP3    H242702   7.106   3.884   2.514
14249TIP3   OH242703   6.784   2.960   3.755
14249TIP3    H142704   6.838   2.882   3.768
14249TIP3    H242705   6.792   2.980   3.662
14250TIP3   OH242706   8.063   2.842   6.169
14250TIP3    H142707   8.018   2.886   6.241
14250TIP3    H242708   8.115   2.911   6.128
14251TIP3   OH242709   5.689   7.817   3.420
14251TIP3    H142710   5.762   7.875   3.441
14251TIP3    H242711   5.682   7.819   3.324
14252TIP3   OH242712   2.155   3.969   2.808
14252TIP3    H142713   2.216   4.016   2.864
14252TIP3    H242714   2.110   4.038   2.759
14253TIP3   OH242715   6.160   3.014   4.766
14253TIP3    H142716   6.240   2.977   4.806
14253TIP3    H242717   6.181   3.022   4.673
14254TIP3   OH242718   5.819   5.098   1.001
14254TIP3    H142719   5.899   5.056   0.972
14254TIP3    H242720   5.817   5.181   0.954
14255TIP3   OH242721   6.578   0.619   4.379
14255TIP3    H142722   6.645   0.569   4.425
14255TIP3    H242723   6.627   0.678   4.321
14256TIP3   OH242724   6.450   4.349   0.987
14256TIP3    H142725   6.359   4.344   0.957
14256TIP3    H242726   6.472   4.259   1.012
14257TIP3   OH242727   3.494   0.949   6.208
14257TIP3    H142728   3.449   1.017   6.259
14257TIP3    H242729   3.542   0.998   6.140
14258TIP3   OH242730   3.198   2.713   1.517
14258TIP3    H142731   3.284   2.754   1.519
14258TIP3    H242732   3.157   2.740   1.599
14259TIP3   OH242733   5.686   5.839   6.288
14259TIP3    H142734   5.711   5.759   6.242
14259TIP3    H242735   5.765   5.867   6.333
14260TIP3   OH242736   6.605   4.123   1.670
14260TIP3    H142737   6.600   4.218   1.678
14260TIP3    H242738   6.639   4.093   1.754
14261TIP3   OH242739   7.676   5.334   5.855
14261TIP3    H142740   7.762   5.292   5.865
14261TIP3    H242741   7.627   5.306   5.933
14262TIP3   OH242742   2.779   0.775   5.566
14262TIP3    H142743   2.818   0.690   5.586
14262TIP3    H242744   2.691   0.754   5.536
14263TIP3   OH242745   3.611   7.459   2.234
14263TIP3    H142746   3.549   7.530   2.252
14263TIP3    H242747   3.693   7.503   2.214
14264TIP3   OH242748   4.109   6.297   0.325
14264TIP3    H142749   4.144   6.232   0.264
14264TIP3    H242750   4.151   6.277   0.409
14265TIP3   OH242751   0.661   4.559   5.161
14265TIP3    H142752   0.691   4.518   5.080
14265TIP3    H242753   0.621   4.641   5.133
14266TIP3   OH242754   4.303   7.604   4.514
14266TIP3    H142755   4.218   7.586   4.555
14266TIP3    H242756   4.344   7.669   4.572
14267TIP3   OH242757   4.854   0.016   5.635
14267TIP3    H142758   4.784   0.080   5.644
14267TIP3    H242759   4.926   0.065   5.596
14268TIP3   OH242760   4.793   1.305   2.819
14268TIP3    H142761   4.764   1.374   2.879
14268TIP3    H242762   4.776   1.223   2.866
14269TIP3   OH242763   3.452   5.391   6.552
14269TIP3    H142764   3.477   5.349   6.634
14269TIP3    H242765   3.533   5.397   6.502
14270TIP3   OH242766   2.074   7.645   3.818
14270TIP3    H142767   2.060   7.734   3.784
14270TIP3    H242768   2.115   7.598   3.746
14271TIP3   OH242769   3.811   1.829   3.354
14271TIP3    H142770   3.879   1.789   3.300
14271TIP3    H242771   3.812   1.921   3.328
14272TIP3   OH242772   2.808   6.046   1.537
14272TIP3    H142773   2.771   5.963   1.506
14272TIP3    H242774   2.814   6.100   1.459
14273TIP3   OH242775   4.422   4.986   2.639
14273TIP3    H142776   4.511   5.010   2.613
14273TIP3    H242777   4.366   5.052   2.599
14274TIP3   OH242778   2.533   3.015   6.567
14274TIP3    H142779   2.579   2.952   6.623
14274TIP3    H242780   2.546   3.099   6.610
14275TIP3   OH242781   4.641   5.408   3.151
14275TIP3    H142782   4.736   5.396   3.147
14275TIP3    H242783   4.627   5.500   3.130
14276TIP3   OH242784   7.364   6.803   0.130
14276TIP3    H142785   7.368   6.774   0.040
14276TIP3    H242786   7.427   6.749   0.177
14277TIP3   OH242787   0.565   3.731   6.053
14277TIP3    H142788   0.522   3.681   5.984
14277TIP3    H242789   0.495   3.778   6.097
14278TIP3   OH242790   3.975   1.874   3.033
14278TIP3    H142791   3.938   1.878   2.945
14278TIP3    H242792   3.917   1.930   3.085
14279TIP3   OH242793   6.957   2.861   6.698
14279TIP3    H142794   6.901   2.814   6.758
14279TIP3    H242795   6.917   2.948   6.691
14280TIP3   OH242796   8.200   6.224   1.084
14280TIP3    H142797   8.256   6.172   1.025
14280TIP3    H242798   8.260   6.258   1.149
14281TIP3   OH242799   1.919   5.087   6.664
14281TIP3    H142800   1.845   5.076   6.723
14281TIP3    H242801   1.974   5.154   6.705
14282TIP3   OH242802   0.176   5.404   0.212
14282TIP3    H142803   0.179   5.325   0.158
14282TIP3    H242804   0.097   5.394   0.266
14283TIP3   OH242805   6.468   3.825   1.812
14283TIP3    H142806   6.490   3.768   1.739
14283TIP3    H242807   6.454   3.766   1.886
14284TIP3   OH242808   8.109   7.094   1.665
14284TIP3    H142809   8.065   7.009   1.653
14284TIP3    H242810   8.192   7.072   1.707
14285TIP3   OH242811   0.166   1.152   3.202
14285TIP3    H142812   0.240   1.093   3.187
14285TIP3    H242813   0.149   1.146   3.296
14286TIP3   OH242814   6.220   1.130   1.013
14286TIP3    H142815   6.243   1.222   1.022
14286TIP3    H242816   6.276   1.098   0.943
14287TIP3   OH242817   5.075   0.667   6.438
14287TIP3    H142818   5.123   0.585   6.446
14287TIP3    H242819   5.139   0.731   6.407
14288TIP3   OH242820   7.604   0.200   1.355
14288TIP3    H142821   7.536   0.192   1.288
14288TIP3    H242822   7.614   0.294   1.368
14289TIP3   OH242823   4.281   7.773   1.475
14289TIP3    H142824   4.238   7.856   1.452
14289TIP3    H242825   4.209   7.712   1.489
14290TIP3   OH242826   1.412   3.654   5.253
14290TIP3    H142827   1.391   3.561   5.264
14290TIP3    H242828   1.459   3.676   5.334
14291TIP3   OH242829   6.677   3.842   4.374
14291TIP3    H142830   6.735   3.880   4.308
14291TIP3    H242831   6.729   3.840   4.454
14292TIP3   OH242832   1.173   5.339   5.469
14292TIP3    H142833   1.218   5.313   5.388
14292TIP3    H242834   1.081   5.342   5.445
14293TIP3   OH242835   5.016   3.331   0.170
14293TIP3    H142836   4.982   3.371   0.250
14293TIP3    H242837   5.016   3.402   0.106
14294TIP3   OH242838   3.478   3.233   4.393
14294TIP3    H142839   3.417   3.224   4.320
14294TIP3    H242840   3.564   3.237   4.352
14295TIP3   OH242841   5.162   3.468   4.528
14295TIP3    H142842   5.119   3.383   4.540
14295TIP3    H242843   5.156   3.484   4.434
14296TIP3   OH242844   2.977   4.817   3.105
14296TIP3    H142845   2.920   4.824   3.182
14296TIP3    H242846   3.054   4.769   3.137
14297TIP3   OH242847   7.432   2.814   6.163
14297TIP3    H142848   7.438   2.740   6.103
14297TIP3    H242849   7.338   2.834   6.168
14298TIP3   OH242850   8.293   2.353   3.588
14298TIP3    H142851   8.209   2.372   3.544
14298TIP3    H242852   8.280   2.382   3.678
14299TIP3   OH242853   6.324   2.579   0.035
14299TIP3    H142854   6.249   2.617   0.082
14299TIP3    H242855   6.324   2.487   0.061
14300TIP3   OH242856   4.819   7.405   6.196
14300TIP3    H142857   4.850   7.408   6.286
14300TIP3    H242858   4.895   7.377   6.145
14301TIP3   OH242859   0.689   0.421   5.951
14301TIP3    H142860   0.603   0.443   5.987
14301TIP3    H242861   0.729   0.505   5.929
14302TIP3   OH242862   5.252   2.448   0.543
14302TIP3    H142863   5.226   2.460   0.634
14302TIP3    H242864   5.308   2.369   0.545
14303TIP3   OH242865   0.436   2.245   0.275
14303TIP3    H142866   0.474   2.228   0.188
14303TIP3    H242867   0.369   2.177   0.285
14304TIP3   OH242868   2.270   1.212   3.266
14304TIP3    H142869   2.325   1.186   3.193
14304TIP3    H242870   2.223   1.132   3.291
14305TIP3   OH242871   8.188   3.784   5.005
14305TIP3    H142872   8.124   3.745   4.944
14305TIP3    H242873   8.267   3.796   4.952
14306TIP3   OH242874   6.714   2.673   0.718
14306TIP3    H142875   6.689   2.673   0.625
14306TIP3    H242876   6.632   2.688   0.765
14307TIP3   OH242877   1.320   1.641   4.579
14307TIP3    H142878   1.382   1.608   4.645
14307TIP3    H242879   1.265   1.565   4.559
14308TIP3   OH242880   6.804   1.436   1.660
14308TIP3    H142881   6.788   1.519   1.706
14308TIP3    H242882   6.865   1.389   1.717
14309TIP3   OH242883   1.209   2.442   5.344
14309TIP3    H142884   1.175   2.373   5.401
14309TIP3    H242885   1.246   2.507   5.404
14310TIP3   OH242886   1.544   7.301   4.041
14310TIP3    H142887   1.515   7.344   3.960
14310TIP3    H242888   1.463   7.268   4.081
14311TIP3   OH242889   3.610   0.410   4.419
14311TIP3    H142890   3.575   0.348   4.355
14311TIP3    H242891   3.571   0.383   4.502
14312TIP3   OH242892   0.345   1.050   5.862
14312TIP3    H142893   0.289   1.015   5.931
14312TIP3    H242894   0.423   0.995   5.864
14313TIP3   OH242895   1.102   7.188   0.965
14313TIP3    H142896   1.173   7.228   0.916
14313TIP3    H242897   1.126   7.200   1.057
14314TIP3   OH242898   4.865   7.375   0.184
14314TIP3    H142899   4.954   7.338   0.180
14314TIP3    H242900   4.868   7.434   0.259
14315TIP3   OH242901   0.881   0.447   0.394
14315TIP3    H142902   0.858   0.540   0.393
14315TIP3    H242903   0.887   0.423   0.302
14316TIP3   OH242904   0.752   6.383   5.304
14316TIP3    H142905   0.659   6.365   5.318
14316TIP3    H242906   0.755   6.478   5.292
14317TIP3   OH242907   7.127   0.822   6.650
14317TIP3    H142908   7.084   0.795   6.569
14317TIP3    H242909   7.120   0.746   6.708
14318TIP3   OH242910   4.599   1.638   3.741
14318TIP3    H142911   4.673   1.685   3.778
14318TIP3    H242912   4.623   1.546   3.748
14319TIP3   OH242913   0.887   5.780   3.259
14319TIP3    H142914   0.829   5.843   3.215
14319TIP3    H242915   0.871   5.697   3.213
14320TIP3   OH242916   6.007   5.403   5.471
14320TIP3    H142917   6.022   5.494   5.497
14320TIP3    H242918   5.975   5.410   5.381
14321TIP3   OH242919   4.268   7.210   6.363
14321TIP3    H142920   4.194   7.170   6.408
14321TIP3    H242921   4.287   7.289   6.414
14322TIP3   OH242922   7.057   3.946   3.191
14322TIP3    H142923   7.127   3.941   3.256
14322TIP3    H242924   7.102   3.935   3.107
14323TIP3   OH242925   5.125   3.974   6.467
14323TIP3    H142926   5.047   3.937   6.425
14323TIP3    H242927   5.132   3.927   6.550
14324TIP3   OH242928   0.757   4.593   2.803
14324TIP3    H142929   0.768   4.526   2.870
14324TIP3    H242930   0.689   4.651   2.839
14325TIP3   OH242931   0.508   0.300   2.407
14325TIP3    H142932   0.437   0.323   2.468
14325TIP3    H242933   0.472   0.317   2.321
14326TIP3   OH242934   2.788   3.614   2.198
14326TIP3    H142935   2.784   3.558   2.275
14326TIP3    H242936   2.836   3.692   2.228
14327TIP3   OH242937   1.415   7.427   2.677
14327TIP3    H142938   1.324   7.413   2.653
14327TIP3    H242939   1.448   7.339   2.698
14328TIP3   OH242940   5.488   4.178   3.005
14328TIP3    H142941   5.408   4.173   3.058
14328TIP3    H242942   5.541   4.104   3.035
14329TIP3   OH242943   1.339   5.166   5.802
14329TIP3    H142944   1.373   5.236   5.746
14329TIP3    H242945   1.275   5.209   5.858
14330TIP3   OH242946   1.758   7.537   1.512
14330TIP3    H142947   1.692   7.500   1.572
14330TIP3    H242948   1.833   7.478   1.520
14331TIP3   OH242949   3.119   4.850   2.579
14331TIP3    H142950   3.096   4.771   2.531
14331TIP3    H242951   3.131   4.821   2.669
14332TIP3   OH242952   2.414   1.420   0.387
14332TIP3    H142953   2.495   1.422   0.336
14332TIP3    H242954   2.346   1.447   0.325
14333TIP3   OH242955   2.026   7.166   0.846
14333TIP3    H142956   2.091   7.215   0.897
14333TIP3    H242957   1.964   7.133   0.912
14334TIP3   OH242958   4.329   1.900   4.891
14334TIP3    H142959   4.397   1.846   4.851
14334TIP3    H242960   4.293   1.950   4.818
14335TIP3   OH242961   6.579   4.056   5.706
14335TIP3    H142962   6.555   3.999   5.633
14335TIP3    H242963   6.506   4.118   5.714
14336TIP3   OH242964   0.486   3.872   6.445
14336TIP3    H142965   0.448   3.891   6.531
14336TIP3    H242966   0.574   3.908   6.449
14337TIP3   OH242967   1.502   1.378   3.218
14337TIP3    H142968   1.530   1.469   3.212
14337TIP3    H242969   1.407   1.381   3.215
14338TIP3   OH242970   6.063   7.708   5.412
14338TIP3    H142971   6.116   7.721   5.490
14338TIP3    H242972   6.009   7.631   5.432
14339TIP3   OH242973   7.203   7.814   2.514
14339TIP3    H142974   7.118   7.772   2.503
14339TIP3    H242975   7.195   7.898   2.469
14340TIP3   OH242976   4.102   6.629   3.306
14340TIP3    H142977   4.072   6.712   3.345
14340TIP3    H242978   4.197   6.636   3.306
14341TIP3   OH242979   8.210   4.806   2.299
14341TIP3    H142980   8.263   4.734   2.267
14341TIP3    H242981   8.144   4.765   2.355
14342TIP3   OH242982   4.826   5.239   2.213
14342TIP3    H142983   4.891   5.306   2.231
14342TIP3    H242984   4.815   5.240   2.118
14343TIP3   OH242985   7.899   4.031   1.761
14343TIP3    H142986   7.909   4.121   1.790
14343TIP3    H242987   7.955   4.024   1.683
14344TIP3   OH242988   1.269   4.600   4.496
14344TIP3    H142989   1.264   4.682   4.446
14344TIP3    H242990   1.303   4.626   4.582
14345TIP3   OH242991   6.836   7.550   4.066
14345TIP3    H142992   6.841   7.588   4.154
14345TIP3    H242993   6.754   7.501   4.065
14346TIP3   OH242994   7.131   2.180   5.188
14346TIP3    H142995   7.213   2.227   5.173
14346TIP3    H242996   7.129   2.165   5.282
14347TIP3   OH242997   6.040   4.626   3.366
14347TIP3    H142998   6.025   4.709   3.412
14347TIP3    H242999   5.954   4.584   3.362
14348TIP3   OH243000   2.009   3.557   1.560
14348TIP3    H143001   2.082   3.521   1.510
14348TIP3    H243002   2.029   3.651   1.568
14349TIP3   OH243003   3.757   4.984   6.323
14349TIP3    H143004   3.707   5.038   6.384
14349TIP3    H243005   3.734   5.017   6.236
14350TIP3   OH243006   1.602   4.239   5.411
14350TIP3    H143007   1.539   4.311   5.421
14350TIP3    H243008   1.678   4.279   5.369
14351TIP3   OH243009   2.506   1.574   1.914
14351TIP3    H143010   2.527   1.484   1.887
14351TIP3    H243011   2.585   1.606   1.957
14352TIP3   OH243012   3.374   7.818   5.195
14352TIP3    H143013   3.279   7.810   5.208
14352TIP3    H243014   3.412   7.755   5.255
14353TIP3   OH243015   5.066   6.217   6.432
14353TIP3    H143016   5.094   6.158   6.362
14353TIP3    H243017   5.001   6.167   6.482
14354TIP3   OH243018   0.766   5.108   5.144
14354TIP3    H143019   0.808   5.028   5.111
14354TIP3    H243020   0.790   5.176   5.081
14355TIP3   OH243021   4.655   6.685   5.240
14355TIP3    H143022   4.642   6.752   5.307
14355TIP3    H243023   4.727   6.718   5.186
14356TIP3   OH243024   7.142   6.405   5.378
14356TIP3    H143025   7.203   6.431   5.310
14356TIP3    H243026   7.168   6.457   5.455
14357TIP3   OH243027   5.597   6.843   1.165
14357TIP3    H143028   5.584   6.893   1.085
14357TIP3    H243029   5.682   6.800   1.152
14358TIP3   OH243030   4.889   1.467   2.613
14358TIP3    H143031   4.856   1.552   2.585
14358TIP3    H243032   4.835   1.445   2.690
14359TIP3   OH243033   1.273   4.139   6.583
14359TIP3    H143034   1.252   4.232   6.595
14359TIP3    H243035   1.314   4.134   6.497
14360TIP3   OH243036   3.710   1.511   6.382
14360TIP3    H143037   3.676   1.422   6.381
14360TIP3    H243038   3.697   1.542   6.472
14361TIP3   OH243039   2.813   2.711   4.441
14361TIP3    H143040   2.747   2.728   4.374
14361TIP3    H243041   2.888   2.676   4.393
14362TIP3   OH243042   2.196   5.689   5.724
14362TIP3    H143043   2.269   5.680   5.663
14362TIP3    H243044   2.227   5.648   5.805
14363TIP3   OH243045   4.045   3.831   0.049
14363TIP3    H143046   4.114   3.885   0.010
14363TIP3    H243047   4.051   3.748   0.002
14364TIP3   OH243048   1.239   2.898   5.266
14364TIP3    H143049   1.147   2.896   5.240
14364TIP3    H243050   1.277   2.820   5.226
14365TIP3   OH243051   2.384   3.835   6.178
14365TIP3    H143052   2.411   3.830   6.086
14365TIP3    H243053   2.443   3.900   6.217
14366TIP3   OH243054   0.346   2.682   4.117
14366TIP3    H143055   0.391   2.601   4.094
14366TIP3    H243056   0.408   2.752   4.095
14367TIP3   OH243057   3.405   2.226   4.471
14367TIP3    H143058   3.419   2.311   4.513
14367TIP3    H243059   3.401   2.164   4.544
14368TIP3   OH243060   3.587   1.650   5.297
14368TIP3    H143061   3.542   1.652   5.382
14368TIP3    H243062   3.549   1.575   5.251
14369TIP3   OH243063   5.134   5.545   2.680
14369TIP3    H143064   5.070   5.538   2.751
14369TIP3    H243065   5.211   5.584   2.721
14370TIP3   OH243066   2.202   3.369   2.745
14370TIP3    H143067   2.284   3.418   2.754
14370TIP3    H243068   2.181   3.375   2.652
14371TIP3   OH243069   5.794   7.577   3.511
14371TIP3    H143070   5.754   7.663   3.501
14371TIP3    H243071   5.886   7.591   3.489
14372TIP3   OH243072   5.851   5.629   3.838
14372TIP3    H143073   5.875   5.721   3.850
14372TIP3    H243074   5.777   5.631   3.778
14373TIP3   OH243075   4.342   4.246   5.071
14373TIP3    H143076   4.306   4.319   5.021
14373TIP3    H243077   4.436   4.262   5.073
14374TIP3   OH243078   5.356   0.110   1.401
14374TIP3    H143079   5.315   0.077   1.481
14374TIP3    H243080   5.298   0.179   1.370
14375TIP3   OH243081   7.610   3.935   3.055
14375TIP3    H143082   7.540   3.908   3.116
14375TIP3    H243083   7.651   4.009   3.098
14376TIP3   OH243084   6.721   1.448   0.417
14376TIP3    H143085   6.658   1.409   0.357
14376TIP3    H243086   6.673   1.460   0.499
14377TIP3   OH243087   0.692   7.768   5.575
14377TIP3    H143088   0.765   7.824   5.549
14377TIP3    H243089   0.706   7.751   5.668
14378TIP3   OH243090   4.711   3.024   2.527
14378TIP3    H143091   4.735   3.088   2.460
14378TIP3    H243092   4.631   3.059   2.567
14379TIP3   OH243093   6.140   2.396   1.007
14379TIP3    H143094   6.235   2.403   0.996
14379TIP3    H243095   6.108   2.370   0.920
14380TIP3   OH243096   2.541   2.641   0.927
14380TIP3    H143097   2.487   2.578   0.974
14380TIP3    H243098   2.625   2.596   0.915
14381TIP3   OH243099   0.361   4.487   2.118
14381TIP3    H143100   0.446   4.485   2.161
14381TIP3    H243101   0.312   4.416   2.159
14382TIP3   OH243102   4.153   5.574   2.791
14382TIP3    H143103   4.153   5.589   2.886
14382TIP3    H243104   4.061   5.581   2.766
14383TIP3   OH243105   0.127   6.452   5.063
14383TIP3    H143106   0.113   6.510   5.138
14383TIP3    H243107   0.193   6.389   5.093
14384TIP3   OH243108   2.814   0.471   2.256
14384TIP3    H143109   2.875   0.541   2.279
14384TIP3    H243110   2.841   0.397   2.310
14385TIP3   OH243111   3.239   5.156   4.092
14385TIP3    H143112   3.272   5.237   4.056
14385TIP3    H243113   3.154   5.180   4.131
14386TIP3   OH243114   6.171   5.538   3.215
14386TIP3    H143115   6.220   5.519   3.295
14386TIP3    H243116   6.145   5.452   3.182
14387TIP3   OH243117   0.287   4.501   3.705
14387TIP3    H143118   0.331   4.586   3.708
14387TIP3    H243119   0.239   4.501   3.623
14388TIP3   OH243120   1.055   7.792   3.459
14388TIP3    H143121   1.127   7.746   3.502
14388TIP3    H243122   0.998   7.723   3.425
14389TIP3   OH243123   6.119   4.332   2.124
14389TIP3    H143124   6.058   4.321   2.197
14389TIP3    H243125   6.068   4.380   2.058
14390TIP3   OH243126   4.021   0.984   4.599
14390TIP3    H143127   3.982   0.944   4.676
14390TIP3    H243128   4.061   0.912   4.551
14391TIP3   OH243129   5.239   5.042   1.475
14391TIP3    H143130   5.287   4.959   1.468
14391TIP3    H243131   5.245   5.066   1.567
14392TIP3   OH243132   4.144   4.891   1.196
14392TIP3    H143133   4.157   4.895   1.102
14392TIP3    H243134   4.200   4.959   1.232
14393TIP3   OH243135   6.602   0.709   4.764
14393TIP3    H143136   6.581   0.750   4.848
14393TIP3    H243137   6.674   0.649   4.785
14394TIP3   OH243138   3.538   5.498   4.442
14394TIP3    H143139   3.595   5.471   4.515
14394TIP3    H243140   3.599   5.535   4.378
14395TIP3   OH243141   3.983   3.493   5.472
14395TIP3    H143142   3.906   3.548   5.488
14395TIP3    H243143   4.054   3.554   5.456
14396TIP3   OH243144   0.728   2.515   3.332
14396TIP3    H143145   0.647   2.484   3.373
14396TIP3    H243146   0.724   2.482   3.243
14397TIP3   OH243147   4.137   7.374   1.348
14397TIP3    H143148   4.084   7.311   1.397
14397TIP3    H243149   4.109   7.459   1.381
14398TIP3   OH243150   1.569   3.716   1.629
14398TIP3    H143151   1.493   3.759   1.589
14398TIP3    H243152   1.603   3.658   1.561
14399TIP3   OH243153   7.337   6.351   2.256
14399TIP3    H143154   7.335   6.279   2.193
14399TIP3    H243155   7.430   6.371   2.267
14400TIP3   OH243156   2.319   2.192   3.824
14400TIP3    H143157   2.383   2.243   3.774
14400TIP3    H243158   2.280   2.255   3.884
14401TIP3   OH243159   5.389   5.822   5.784
14401TIP3    H143160   5.447   5.750   5.808
14401TIP3    H243161   5.408   5.891   5.847
14402TIP3   OH243162   4.616   6.971   1.445
14402TIP3    H143163   4.636   6.999   1.356
14402TIP3    H243164   4.578   7.048   1.487
14403TIP3   OH243165   5.128   0.835   5.127
14403TIP3    H143166   5.096   0.893   5.196
14403TIP3    H243167   5.191   0.888   5.079
14404TIP3   OH243168   5.572   5.324   4.807
14404TIP3    H143169   5.574   5.238   4.765
14404TIP3    H243170   5.551   5.384   4.736
14405TIP3   OH243171   5.470   7.057   3.119
14405TIP3    H143172   5.395   7.067   3.177
14405TIP3    H243173   5.431   7.034   3.034
14406TIP3   OH243174   5.816   6.255   4.095
14406TIP3    H143175   5.898   6.220   4.060
14406TIP3    H243176   5.749   6.194   4.063
14407TIP3   OH243177   7.537   2.151   6.797
14407TIP3    H143178   7.580   2.195   6.724
14407TIP3    H243179   7.541   2.058   6.776
14408TIP3   OH243180   1.182   2.905   5.793
14408TIP3    H143181   1.269   2.910   5.752
14408TIP3    H243182   1.179   2.981   5.851
14409TIP3   OH243183   3.771   5.397   5.893
14409TIP3    H143184   3.791   5.304   5.884
14409TIP3    H243185   3.809   5.438   5.815
14410TIP3   OH243186   4.331   5.954   3.887
14410TIP3    H143187   4.399   5.930   3.950
14410TIP3    H243188   4.343   5.894   3.814
14411TIP3   OH243189   5.772   2.450   1.304
14411TIP3    H143190   5.782   2.507   1.381
14411TIP3    H243191   5.847   2.473   1.249
14412TIP3   OH243192   5.020   4.794   0.065
14412TIP3    H143193   4.940   4.807   0.015
14412TIP3    H243194   5.017   4.860   0.134
14413TIP3   OH243195   1.093   0.091   2.611
14413TIP3    H143196   1.000   0.077   2.595
14413TIP3    H243197   1.097   0.174   2.659
14414TIP3   OH243198   0.394   1.539   3.256
14414TIP3    H143199   0.340   1.519   3.179
14414TIP3    H243200   0.433   1.455   3.280
14415TIP3   OH243201   5.690   6.770   2.592
14415TIP3    H143202   5.687   6.733   2.504
14415TIP3    H243203   5.669   6.863   2.580
14416TIP3   OH243204   0.870   4.435   2.269
14416TIP3    H143205   0.889   4.434   2.363
14416TIP3    H243206   0.937   4.378   2.231
14417TIP3   OH243207   7.905   6.309   2.601
14417TIP3    H143208   7.954   6.317   2.683
14417TIP3    H243209   7.813   6.306   2.628
14418TIP3   OH243210   3.493   1.732   2.314
14418TIP3    H143211   3.529   1.730   2.403
14418TIP3    H243212   3.570   1.730   2.257
14419TIP3   OH243213   6.590   6.053   4.519
14419TIP3    H143214   6.574   6.018   4.606
14419TIP3    H243215   6.587   5.977   4.461
14420TIP3   OH243216   4.192   4.893   2.446
14420TIP3    H143217   4.269   4.856   2.489
14420TIP3    H243218   4.220   4.979   2.416
14421TIP3   OH243219   6.296   3.615   5.254
14421TIP3    H143220   6.296   3.527   5.293
14421TIP3    H243221   6.250   3.604   5.171
14422TIP3   OH243222   4.429   6.345   5.694
14422TIP3    H143223   4.421   6.426   5.743
14422TIP3    H243224   4.406   6.276   5.757
14423TIP3   OH243225   7.454   2.493   2.738
14423TIP3    H143226   7.520   2.561   2.727
14423TIP3    H243227   7.450   2.451   2.652
14424TIP3   OH243228   6.389   2.159   3.350
14424TIP3    H143229   6.405   2.177   3.257
14424TIP3    H243230   6.331   2.229   3.379
14425TIP3   OH243231   0.161   3.336   1.000
14425TIP3    H143232   0.127   3.399   0.935
14425TIP3    H243233   0.208   3.390   1.063
14426TIP3   OH243234   8.026   4.227   0.039
14426TIP3    H143235   8.109   4.273   0.054
14426TIP3    H243236   7.970   4.255   0.111
14427TIP3   OH243237   1.351   2.639   2.195
14427TIP3    H143238   1.407   2.696   2.142
14427TIP3    H243239   1.274   2.693   2.216
14428TIP3   OH243240   0.072   1.181   0.316
14428TIP3    H143241   0.109   1.170   0.403
14428TIP3    H243242   0.042   1.093   0.291
14429TIP3   OH243243   1.066   6.743   4.940
14429TIP3    H143244   1.158   6.747   4.969
14429TIP3    H243245   1.062   6.667   4.883
14430TIP3   OH243246   1.965   2.030   2.432
14430TIP3    H143247   1.969   2.092   2.359
14430TIP3    H243248   1.888   1.977   2.413
14431TIP3   OH243249   1.439   7.801   0.887
14431TIP3    H143250   1.471   7.713   0.907
14431TIP3    H243251   1.410   7.837   0.971
14432TIP3   OH243252   4.583   3.495   6.572
14432TIP3    H143253   4.558   3.430   6.506
14432TIP3    H243254   4.504   3.546   6.587
14433TIP3   OH243255   4.871   3.185   0.675
14433TIP3    H143256   4.785   3.200   0.635
14433TIP3    H243257   4.854   3.118   0.742
14434TIP3   OH243258   1.041   7.563   3.075
14434TIP3    H143259   1.041   7.542   3.168
14434TIP3    H243260   1.016   7.656   3.071
14435TIP3   OH243261   4.649   2.817   6.403
14435TIP3    H143262   4.601   2.857   6.330
14435TIP3    H243263   4.730   2.868   6.408
14436TIP3   OH243264   4.183   5.539   1.227
14436TIP3    H143265   4.229   5.497   1.154
14436TIP3    H243266   4.176   5.631   1.202
14437TIP3   OH243267   8.009   7.724   4.828
14437TIP3    H143268   7.931   7.777   4.846
14437TIP3    H243269   7.976   7.643   4.789
14438TIP3   OH243270   5.009   0.767   5.673
14438TIP3    H143271   5.064   0.768   5.751
14438TIP3    H243272   5.063   0.726   5.606
14439TIP3   OH243273   5.389   7.153   1.549
14439TIP3    H143274   5.350   7.218   1.490
14439TIP3    H243275   5.316   7.127   1.606
14440TIP3   OH243276   7.637   7.133   6.259
14440TIP3    H143277   7.644   7.213   6.311
14440TIP3    H243278   7.721   7.088   6.274
14441TIP3   OH243279   0.114   5.146   3.747
14441TIP3    H143280   0.038   5.134   3.803
14441TIP3    H243281   0.167   5.211   3.792
14442TIP3   OH243282   2.906   2.357   0.079
14442TIP3    H143283   2.829   2.305   0.099
14442TIP3    H243284   2.978   2.294   0.076
14443TIP3   OH243285   5.965   7.443   5.465
14443TIP3    H143286   6.000   7.369   5.416
14443TIP3    H243287   5.871   7.438   5.452
14444TIP3   OH243288   1.530   0.142   1.523
14444TIP3    H143289   1.477   0.219   1.506
14444TIP3    H243290   1.502   0.078   1.457
14445TIP3   OH243291   2.509   0.751   2.959
14445TIP3    H143292   2.426   0.797   2.949
14445TIP3    H243293   2.564   0.783   2.887
14446TIP3   OH243294   1.575   3.935   5.403
14446TIP3    H143295   1.542   3.853   5.440
14446TIP3    H243296   1.661   3.946   5.443
14447TIP3   OH243297   1.683   5.819   4.935
14447TIP3    H143298   1.765   5.844   4.978
14447TIP3    H243299   1.638   5.766   5.000
14448TIP3   OH243300   5.648   0.861   5.456
14448TIP3    H143301   5.599   0.938   5.486
14448TIP3    H243302   5.740   0.888   5.462
14449TIP3   OH243303   0.985   2.808   5.643
14449TIP3    H143304   0.904   2.831   5.689
14449TIP3    H243305   1.055   2.843   5.698
14450TIP3   OH243306   5.595   3.330   0.165
14450TIP3    H143307   5.526   3.269   0.189
14450TIP3    H243308   5.653   3.333   0.242
14451TIP3   OH243309   2.658   1.352   4.082
14451TIP3    H143310   2.748   1.319   4.080
14451TIP3    H243311   2.623   1.321   4.166
14452TIP3   OH243312   1.893   5.198   5.213
14452TIP3    H143313   1.968   5.234   5.260
14452TIP3    H243314   1.873   5.116   5.259
14453TIP3   OH243315   4.155   3.853   3.675
14453TIP3    H143316   4.082   3.796   3.651
14453TIP3    H243317   4.143   3.869   3.769
14454TIP3   OH243318   0.315   3.769   0.341
14454TIP3    H143319   0.290   3.803   0.427
14454TIP3    H243320   0.269   3.826   0.279
14455TIP3   OH243321   3.798   6.438   2.686
14455TIP3    H143322   3.871   6.390   2.648
14455TIP3    H243323   3.776   6.503   2.620
14456TIP3   OH243324   3.031   6.182   6.709
14456TIP3    H143325   3.091   6.110   6.728
14456TIP3    H243326   2.945   6.150   6.736
14457TIP3   OH243327   3.817   4.404   3.249
14457TIP3    H143328   3.727   4.376   3.230
14457TIP3    H243329   3.869   4.325   3.242
14458TIP3   OH243330   2.758   1.109   3.813
14458TIP3    H143331   2.785   1.195   3.782
14458TIP3    H243332   2.684   1.127   3.871
14459TIP3   OH243333   6.614   7.172   1.683
14459TIP3    H143334   6.567   7.210   1.757
14459TIP3    H243335   6.666   7.101   1.721
14460TIP3   OH243336   4.444   7.735   5.341
14460TIP3    H143337   4.490   7.817   5.326
14460TIP3    H243338   4.409   7.742   5.429
14461TIP3   OH243339   5.147   7.595   1.607
14461TIP3    H143340   5.095   7.515   1.600
14461TIP3    H243341   5.087   7.665   1.581
14462TIP3   OH243342   1.966   3.755   5.812
14462TIP3    H143343   1.881   3.743   5.855
14462TIP3    H243344   1.978   3.850   5.810
14463TIP3   OH243345   4.474   5.702   3.452
14463TIP3    H143346   4.391   5.698   3.405
14463TIP3    H243347   4.536   5.740   3.389
14464TIP3   OH243348   3.040   1.743   6.489
14464TIP3    H143349   3.071   1.797   6.417
14464TIP3    H243350   2.955   1.781   6.513
14465TIP3   OH243351   2.593   6.109   1.767
14465TIP3    H143352   2.563   6.165   1.695
14465TIP3    H243353   2.687   6.102   1.755
14466TIP3   OH243354   2.148   1.129   5.358
14466TIP3    H143355   2.109   1.042   5.353
14466TIP3    H243356   2.170   1.151   5.267
14467TIP3   OH243357   4.596   2.180   1.519
14467TIP3    H143358   4.658   2.141   1.581
14467TIP3    H243359   4.512   2.179   1.564
14468TIP3   OH243360   2.226   0.632   5.865
14468TIP3    H143361   2.203   0.703   5.924
14468TIP3    H243362   2.303   0.592   5.906
14469TIP3   OH243363   2.368   6.541   4.886
14469TIP3    H143364   2.310   6.616   4.896
14469TIP3    H243365   2.331   6.492   4.812
14470TIP3   OH243366   0.118   0.039   2.753
14470TIP3    H143367   0.073   0.086   2.823
14470TIP3    H243368   0.177  -0.021   2.798
14471TIP3   OH243369   1.470   5.906   5.659
14471TIP3    H143370   1.490   5.877   5.570
14471TIP3    H243371   1.555   5.930   5.696
14472TIP3   OH243372   5.606   0.622   4.525
14472TIP3    H143373   5.676   0.657   4.469
14472TIP3    H243374   5.551   0.570   4.466
14473TIP3   OH243375   7.288   2.791   0.972
14473TIP3    H143376   7.356   2.727   0.951
14473TIP3    H243377   7.303   2.814   1.063
14474TIP3   OH243378   3.853   6.307   4.008
14474TIP3    H143379   3.933   6.300   4.060
14474TIP3    H243380   3.805   6.380   4.048
14475TIP3   OH243381   3.095   3.895   3.196
14475TIP3    H143382   3.091   3.986   3.166
14475TIP3    H243383   3.110   3.844   3.117
14476TIP3   OH243384   7.608   0.620   5.677
14476TIP3    H143385   7.548   0.655   5.743
14476TIP3    H243386   7.555   0.616   5.597
14477TIP3   OH243387   7.041   3.483   0.999
14477TIP3    H143388   6.982   3.491   0.925
14477TIP3    H243389   7.084   3.398   0.987
14478TIP3   OH243390   3.050   2.149   0.843
14478TIP3    H143391   2.974   2.131   0.788
14478TIP3    H243392   3.030   2.232   0.886
14479TIP3   OH243393   1.103   4.076   2.964
14479TIP3    H143394   1.091   4.047   3.054
14479TIP3    H243395   1.070   4.003   2.911
14480TIP3   OH243396   1.652   2.184   6.335
14480TIP3    H143397   1.669   2.220   6.248
14480TIP3    H243398   1.561   2.154   6.332
14481TIP3   OH243399   7.693   4.427   6.293
14481TIP3    H143400   7.661   4.484   6.363
14481TIP3    H243401   7.731   4.487   6.230
14482TIP3   OH243402   5.888   1.470   6.286
14482TIP3    H143403   5.967   1.417   6.298
14482TIP3    H243404   5.860   1.491   6.375
14483TIP3   OH243405   1.645   3.978   0.804
14483TIP3    H143406   1.651   4.010   0.894
14483TIP3    H243407   1.734   3.949   0.783
14484TIP3   OH243408   0.130   0.413   6.727
14484TIP3    H143409   0.200   0.363   6.685
14484TIP3    H243410   0.161   0.426   6.817
14485TIP3   OH243411   8.079   4.860   1.350
14485TIP3    H143412   8.116   4.875   1.437
14485TIP3    H243413   8.031   4.940   1.330
14486TIP3   OH243414   2.869   3.816   1.138
14486TIP3    H143415   2.824   3.744   1.183
14486TIP3    H243416   2.861   3.891   1.197
14487TIP3   OH243417   2.369   5.304   3.598
14487TIP3    H143418   2.406   5.390   3.617
14487TIP3    H243419   2.328   5.314   3.512
14488TIP3   OH243420   2.109   5.806   1.217
14488TIP3    H143421   2.068   5.840   1.138
14488TIP3    H243422   2.087   5.713   1.217
14489TIP3   OH243423   3.757   0.662   4.436
14489TIP3    H143424   3.772   0.575   4.475
14489TIP3    H243425   3.662   0.669   4.430
14490TIP3   OH243426   3.148   1.391   5.161
14490TIP3    H143427   3.223   1.395   5.102
14490TIP3    H243428   3.129   1.297   5.171
14491TIP3   OH243429   6.427   0.872   3.361
14491TIP3    H143430   6.443   0.857   3.268
14491TIP3    H243431   6.479   0.950   3.382
14492TIP3   OH243432   3.610   1.738   0.318
14492TIP3    H143433   3.693   1.731   0.364
14492TIP3    H243434   3.606   1.660   0.263
14493TIP3   OH243435   3.331   4.007   3.652
14493TIP3    H143436   3.275   4.057   3.593
14493TIP3    H243437   3.324   4.053   3.736
14494TIP3   OH243438   7.307   6.793   4.474
14494TIP3    H143439   7.231   6.778   4.530
14494TIP3    H243440   7.271   6.829   4.393
14495TIP3   OH243441   8.028   0.234   1.508
14495TIP3    H143442   8.097   0.173   1.536
14495TIP3    H243443   7.965   0.234   1.580
14496TIP3   OH243444   1.644   5.124   3.295
14496TIP3    H143445   1.549   5.131   3.307
14496TIP3    H243446   1.664   5.189   3.227
14497TIP3   OH243447   2.504   6.678   4.189
14497TIP3    H143448   2.499   6.747   4.123
14497TIP3    H243449   2.438   6.702   4.254
14498TIP3   OH243450   1.537   2.128   1.860
14498TIP3    H143451   1.514   2.157   1.948
14498TIP3    H243452   1.570   2.039   1.871
14499TIP3   OH243453   6.904   7.726   2.403
14499TIP3    H143454   6.951   7.666   2.345
14499TIP3    H243455   6.873   7.796   2.346
14500TIP3   OH243456   5.227   2.809   5.118
14500TIP3    H143457   5.258   2.767   5.198
14500TIP3    H243458   5.275   2.766   5.048
14501TIP3   OH243459   3.767   7.740   2.173
14501TIP3    H143460   3.742   7.792   2.250
14501TIP3    H243461   3.684   7.707   2.140
14502TIP3   OH243462   6.904   6.244   3.175
14502TIP3    H143463   6.935   6.204   3.256
14502TIP3    H243464   6.949   6.197   3.105
14503TIP3   OH243465   4.562   0.320   0.621
14503TIP3    H143466   4.553   0.328   0.716
14503TIP3    H243467   4.510   0.243   0.599
14504TIP3   OH243468   5.952   5.900   6.349
14504TIP3    H143469   5.960   5.995   6.362
14504TIP3    H243470   6.027   5.877   6.294
14505TIP3   OH243471   4.815   4.249   4.467
14505TIP3    H143472   4.822   4.160   4.432
14505TIP3    H243473   4.747   4.291   4.414
14506TIP3   OH243474   3.117   3.570   0.812
14506TIP3    H143475   3.148   3.594   0.900
14506TIP3    H243476   3.035   3.523   0.828
14507TIP3   OH243477   0.539   3.822   5.677
14507TIP3    H143478   0.494   3.889   5.728
14507TIP3    H243479   0.470   3.760   5.653
14508TIP3   OH243480   2.610   1.484   3.069
14508TIP3    H143481   2.567   1.401   3.090
14508TIP3    H243482   2.582   1.504   2.980
14509TIP3   OH243483   4.871   4.594   6.325
14509TIP3    H143484   4.811   4.520   6.315
14509TIP3    H243485   4.944   4.560   6.377
14510TIP3   OH243486   5.304   2.345   2.673
14510TIP3    H143487   5.273   2.415   2.615
14510TIP3    H243488   5.399   2.347   2.664
14511TIP3   OH243489   0.743   3.564   4.037
14511TIP3    H143490   0.789   3.483   4.017
14511TIP3    H243491   0.694   3.544   4.117
14512TIP3   OH243492   5.667   1.604   0.153
14512TIP3    H143493   5.635   1.514   0.166
14512TIP3    H243494   5.728   1.597   0.080
14513TIP3   OH243495   3.178   7.055   5.564
14513TIP3    H143496   3.085   7.076   5.559
14513TIP3    H243497   3.189   7.011   5.648
14514TIP3   OH243498   8.114   0.727   0.846
14514TIP3    H143499   8.124   0.669   0.922
14514TIP3    H243500   8.028   0.767   0.858
14515TIP3   OH243501   4.078   4.623   4.286
14515TIP3    H143502   4.160   4.619   4.236
14515TIP3    H243503   4.009   4.621   4.220
14516TIP3   OH243504   0.802   4.228   5.513
14516TIP3    H143505   0.874   4.248   5.572
14516TIP3    H243506   0.843   4.188   5.436
14517TIP3   OH243507   1.806   6.710   5.185
14517TIP3    H143508   1.871   6.771   5.148
14517TIP3    H243509   1.845   6.624   5.174
14518TIP3   OH243510   0.634   0.918   0.897
14518TIP3    H143511   0.675   0.844   0.941
14518TIP3    H243512   0.554   0.881   0.859
14519TIP3   OH243513   3.177   6.337   0.798
14519TIP3    H143514   3.220   6.268   0.848
14519TIP3    H243515   3.230   6.345   0.719
14520TIP3   OH243516   1.915   7.513   2.170
14520TIP3    H143517   1.978   7.444   2.192
14520TIP3    H243518   1.950   7.553   2.091
14521TIP3   OH243519   7.183   2.986   3.684
14521TIP3    H143520   7.105   2.951   3.640
14521TIP3    H243521   7.151   3.022   3.766
14522TIP3   OH243522   3.050   4.048   5.884
14522TIP3    H143523   3.140   4.041   5.850
14522TIP3    H243524   3.029   3.960   5.914
14523TIP3   OH243525   7.146   7.173   4.832
14523TIP3    H143526   7.101   7.203   4.911
14523TIP3    H243527   7.076   7.135   4.778
14524TIP3   OH243528   5.611   1.920   0.900
14524TIP3    H143529   5.603   1.859   0.826
14524TIP3    H243530   5.668   1.990   0.867
14525TIP3   OH243531   8.234  -0.036   1.079
14525TIP3    H143532   8.279   0.044   1.105
14525TIP3    H243533   8.158  -0.006   1.029
14526TIP3   OH243534   3.805   3.137   4.724
14526TIP3    H143535   3.841   3.211   4.674
14526TIP3    H243536   3.713   3.133   4.698
14527TIP3   OH243537   4.203   6.217   1.941
14527TIP3    H143538   4.269   6.169   1.891
14527TIP3    H243539   4.120   6.175   1.916
14528TIP3   OH243540   4.467   7.388   0.692
14528TIP3    H143541   4.385   7.428   0.720
14528TIP3    H243542   4.535   7.445   0.728
14529TIP3   OH243543   4.381   6.815   5.132
14529TIP3    H143544   4.399   6.893   5.185
14529TIP3    H243545   4.386   6.742   5.194
14530TIP3   OH243546   5.755   0.740   2.514
14530TIP3    H143547   5.806   0.660   2.499
14530TIP3    H243548   5.815   0.799   2.560
14531TIP3   OH243549   2.674   4.494   0.141
14531TIP3    H143550   2.756   4.539   0.161
14531TIP3    H243551   2.663   4.430   0.211
14532TIP3   OH243552   4.255   4.708   5.426
14532TIP3    H143553   4.285   4.707   5.517
14532TIP3    H243554   4.169   4.750   5.429
14533TIP3   OH243555   7.631   5.467   2.226
14533TIP3    H143556   7.593   5.443   2.142
14533TIP3    H243557   7.712   5.416   2.232
14534TIP3   OH243558   1.606   4.017   2.881
14534TIP3    H143559   1.634   4.038   2.792
14534TIP3    H243560   1.576   3.926   2.875
14535TIP3   OH243561   3.758   4.995   3.245
14535TIP3    H143562   3.823   4.930   3.217
14535TIP3    H243563   3.772   5.002   3.339
14536TIP3   OH243564   5.236   6.732   0.423
14536TIP3    H143565   5.237   6.636   0.421
14536TIP3    H243566   5.327   6.757   0.436
14537TIP3   OH243567   4.433   7.241   2.524
14537TIP3    H143568   4.357   7.211   2.574
14537TIP3    H243569   4.466   7.316   2.573
14538TIP3   OH243570   0.947   2.085   3.501
14538TIP3    H143571   1.040   2.063   3.498
14538TIP3    H243572   0.944   2.179   3.481
14539TIP3   OH243573   2.205   6.737   0.854
14539TIP3    H143574   2.214   6.656   0.904
14539TIP3    H243575   2.282   6.739   0.797
14540TIP3   OH243576   3.990   6.964   2.324
14540TIP3    H143577   4.013   7.056   2.309
14540TIP3    H243578   3.908   6.968   2.373
14541TIP3   OH243579   7.081   1.457   5.962
14541TIP3    H143580   7.115   1.454   5.873
14541TIP3    H243581   7.003   1.401   5.959
14542TIP3   OH243582   3.353   7.560   0.264
14542TIP3    H143583   3.368   7.555   0.169
14542TIP3    H243584   3.417   7.499   0.301
14543TIP3   OH243585   5.226   1.824   6.132
14543TIP3    H143586   5.292   1.758   6.114
14543TIP3    H243587   5.143   1.780   6.115
14544TIP3   OH243588   4.597   2.856   1.563
14544TIP3    H143589   4.631   2.944   1.547
14544TIP3    H243590   4.675   2.802   1.576
14545TIP3   OH243591   0.675   5.685   1.239
14545TIP3    H143592   0.662   5.627   1.163
14545TIP3    H243593   0.617   5.650   1.306
14546TIP3   OH243594   2.712   6.765   3.337
14546TIP3    H143595   2.761   6.702   3.285
14546TIP3    H243596   2.724   6.735   3.428
14547TIP3   OH243597   3.871   4.741   6.737
14547TIP3    H143598   3.948   4.794   6.716
14547TIP3    H243599   3.809   4.761   6.667
14548TIP3   OH243600   4.434   1.396   6.011
14548TIP3    H143601   4.382   1.451   6.071
14548TIP3    H243602   4.475   1.331   6.068
14549TIP3   OH243603   1.450   5.590   4.756
14549TIP3    H143604   1.540   5.593   4.789
14549TIP3    H243605   1.442   5.502   4.718
14550TIP3   OH243606   7.162   2.137   1.584
14550TIP3    H143607   7.255   2.132   1.609
14550TIP3    H243608   7.150   2.227   1.553
14551TIP3   OH243609   1.486   3.191   3.732
14551TIP3    H143610   1.407   3.231   3.695
14551TIP3    H243611   1.454   3.128   3.796
14552TIP3   OH243612   4.061   7.069   5.056
14552TIP3    H143613   4.100   7.068   5.143
14552TIP3    H243614   4.136   7.073   4.996
14553TIP3   OH243615   5.343   0.175   4.446
14553TIP3    H143616   5.290   0.096   4.437
14553TIP3    H243617   5.299   0.225   4.515
14554TIP3   OH243618   5.295   7.118   0.149
14554TIP3    H143619   5.287   7.061   0.225
14554TIP3    H243620   5.277   7.206   0.183
14555TIP3   OH243621   6.725   1.411   5.534
14555TIP3    H143622   6.643   1.373   5.564
14555TIP3    H243623   6.700   1.469   5.462
14556TIP3   OH243624   8.118   1.682   0.412
14556TIP3    H143625   8.160   1.668   0.327
14556TIP3    H243626   8.030   1.713   0.390
14557TIP3   OH243627   0.978   6.235   5.416
14557TIP3    H143628   0.902   6.280   5.380
14557TIP3    H243629   0.947   6.147   5.436
14558TIP3   OH243630   6.285   5.162   5.654
14558TIP3    H143631   6.251   5.221   5.721
14558TIP3    H243632   6.330   5.219   5.592
14559TIP3   OH243633   2.634   4.850   0.830
14559TIP3    H143634   2.622   4.863   0.736
14559TIP3    H243635   2.683   4.769   0.838
14560TIP3   OH243636   1.774   4.289   6.372
14560TIP3    H143637   1.775   4.196   6.350
14560TIP3    H243638   1.866   4.311   6.386
14561TIP3   OH243639   4.699   6.722   2.359
14561TIP3    H143640   4.756   6.646   2.372
14561TIP3    H243641   4.706   6.772   2.440
14562TIP3   OH243642   8.237   7.450   6.707
14562TIP3    H143643   8.309   7.459   6.644
14562TIP3    H243644   8.254   7.367   6.750
14563TIP3   OH243645   7.391   3.104   6.183
14563TIP3    H143646   7.385   3.131   6.091
14563TIP3    H243647   7.402   3.009   6.179
14564TIP3   OH243648   3.336   5.103   3.062
14564TIP3    H143649   3.314   5.052   2.984
14564TIP3    H243650   3.261   5.091   3.120
14565TIP3   OH243651   6.251   2.396   3.726
14565TIP3    H143652   6.285   2.465   3.670
14565TIP3    H243653   6.224   2.441   3.806
14566TIP3   OH243654   4.971   1.896   2.385
14566TIP3    H143655   4.925   1.868   2.306
14566TIP3    H243656   4.901   1.912   2.449
14567TIP3   OH243657   6.292   4.752   4.607
14567TIP3    H143658   6.369   4.773   4.661
14567TIP3    H243659   6.324   4.755   4.517
14568TIP3   OH243660   1.662   4.136   3.417
14568TIP3    H143661   1.753   4.151   3.445
14568TIP3    H243662   1.611   4.139   3.498
14569TIP3   OH243663   6.359   1.966   0.620
14569TIP3    H143664   6.268   1.980   0.595
14569TIP3    H243665   6.376   2.034   0.686
14570TIP3   OH243666   7.781   7.407   6.094
14570TIP3    H143667   7.778   7.326   6.042
14570TIP3    H243668   7.837   7.385   6.168
14571TIP3   OH243669   0.490   6.047   6.432
14571TIP3    H143670   0.443   6.090   6.504
14571TIP3    H243671   0.482   5.954   6.450
14572TIP3   OH243672   6.926   3.796   1.892
14572TIP3    H143673   6.908   3.887   1.912
14572TIP3    H243674   7.010   3.797   1.847
14573TIP3   OH243675   7.788   7.777   0.825
14573TIP3    H143676   7.863   7.719   0.812
14573TIP3    H243677   7.766   7.768   0.918
14574TIP3   OH243678   5.821   4.411   3.107
14574TIP3    H143679   5.839   4.403   3.201
14574TIP3    H243680   5.727   4.393   3.099
14575TIP3   OH243681   6.834   4.336   1.421
14575TIP3    H143682   6.742   4.332   1.392
14575TIP3    H243683   6.884   4.338   1.340
14576TIP3   OH243684   3.382   4.339   5.590
14576TIP3    H143685   3.306   4.367   5.640
14576TIP3    H243686   3.451   4.329   5.655
14577TIP3   OH243687   1.329   5.863   1.693
14577TIP3    H143688   1.391   5.791   1.703
14577TIP3    H243689   1.247   5.831   1.730
14578TIP3   OH243690   2.622   7.673   3.703
14578TIP3    H143691   2.586   7.619   3.633
14578TIP3    H243692   2.549   7.685   3.764
14579TIP3   OH243693   0.444   7.178   5.211
14579TIP3    H143694   0.495   7.102   5.239
14579TIP3    H243695   0.399   7.149   5.132
14580TIP3   OH243696   4.887   5.595   0.370
14580TIP3    H143697   4.897   5.621   0.278
14580TIP3    H243698   4.845   5.508   0.366
14581TIP3   OH243699   4.328   6.678   5.632
14581TIP3    H143700   4.369   6.726   5.704
14581TIP3    H243701   4.284   6.605   5.674
14582TIP3   OH243702   7.080   5.096   5.997
14582TIP3    H143703   7.093   5.002   5.983
14582TIP3    H243704   7.007   5.102   6.058
14583TIP3   OH243705   5.540   4.647   4.567
14583TIP3    H143706   5.619   4.690   4.534
14583TIP3    H243707   5.539   4.562   4.524
14584TIP3   OH243708   4.941   3.130   3.067
14584TIP3    H143709   4.973   3.048   3.030
14584TIP3    H243710   4.849   3.112   3.089
14585TIP3   OH243711   2.505   2.712   5.415
14585TIP3    H143712   2.535   2.725   5.325
14585TIP3    H243713   2.461   2.794   5.438
14586TIP3   OH243714   4.409   6.097   3.289
14586TIP3    H143715   4.489   6.057   3.323
14586TIP3    H243716   4.440   6.161   3.225
14587TIP3   OH243717   3.452   2.025   6.491
14587TIP3    H143718   3.391   1.969   6.539
14587TIP3    H243719   3.523   1.967   6.465
14588TIP3   OH243720   1.469   3.037   4.786
14588TIP3    H143721   1.493   3.031   4.693
14588TIP3    H243722   1.395   3.098   4.787
14589TIP3   OH243723   3.982   6.836   0.000
14589TIP3    H143724   4.001   6.909   0.058
14589TIP3    H243725   3.936   6.772   0.054
14590TIP3   OH243726   6.060   3.270   2.616
14590TIP3    H143727   6.103   3.257   2.700
14590TIP3    H243728   6.120   3.232   2.552
14591TIP3   OH243729   1.247   3.526   0.298
14591TIP3    H143730   1.221   3.444   0.341
14591TIP3    H243731   1.236   3.507   0.204
14592TIP3   OH243732   3.752   1.340   0.834
14592TIP3    H143733   3.656   1.343   0.838
14592TIP3    H243734   3.780   1.357   0.924
14593TIP3   OH243735   2.658   1.932   1.183
14593TIP3    H143736   2.583   1.991   1.186
14593TIP3    H243737   2.626   1.855   1.135
14594TIP3   OH243738   6.692   0.224   5.969
14594TIP3    H143739   6.640   0.144   5.962
14594TIP3    H243740   6.647   0.288   5.914
14595TIP3   OH243741   6.590   6.249   2.063
14595TIP3    H143742   6.609   6.205   1.980
14595TIP3    H243743   6.596   6.343   2.042
14596TIP3   OH243744   2.116   3.733   6.663
14596TIP3    H143745   2.202   3.740   6.623
14596TIP3    H243746   2.116   3.799   6.733
14597TIP3   OH243747   7.758   7.604   1.241
14597TIP3    H143748   7.679   7.654   1.220
14597TIP3    H243749   7.816   7.667   1.284
14598TIP3   OH243750   7.287   0.853   2.535
14598TIP3    H143751   7.341   0.923   2.499
14598TIP3    H243752   7.349   0.799   2.585
14599TIP3   OH243753   2.520   3.987   1.871
14599TIP3    H143754   2.519   3.902   1.827
14599TIP3    H243755   2.452   3.980   1.938
14600TIP3   OH243756   4.690   4.210   3.218
14600TIP3    H143757   4.735   4.274   3.164
14600TIP3    H243758   4.598   4.235   3.214
14601TIP3   OH243759   4.905   2.168   6.654
14601TIP3    H143760   4.991   2.143   6.621
14601TIP3    H243761   4.843   2.132   6.591
14602TIP3   OH243762   0.985   0.697   6.098
14602TIP3    H143763   0.964   0.692   6.005
14602TIP3    H243764   1.075   0.727   6.101
14603TIP3   OH243765   0.019   3.057   3.309
14603TIP3    H143766   0.095   3.115   3.316
14603TIP3    H243767   0.038   2.987   3.372
14604TIP3   OH243768   8.196   1.265   5.773
14604TIP3    H143769   8.136   1.334   5.803
14604TIP3    H243770   8.143   1.186   5.773
14605TIP3   OH243771   2.411   5.615   4.806
14605TIP3    H143772   2.336   5.599   4.749
14605TIP3    H243773   2.389   5.572   4.888
14606TIP3   OH243774   2.125   4.219   3.472
14606TIP3    H143775   2.143   4.142   3.418
14606TIP3    H243776   2.129   4.186   3.562
14607TIP3   OH243777   3.346   4.464   0.236
14607TIP3    H143778   3.291   4.416   0.297
14607TIP3    H243779   3.405   4.398   0.198
14608TIP3   OH243780   8.252   6.342   0.106
14608TIP3    H143781   8.163   6.375   0.099
14608TIP3    H243782   8.276   6.356   0.197
14609TIP3   OH243783   6.979   4.481   3.987
14609TIP3    H143784   6.941   4.529   4.061
14609TIP3    H243785   6.939   4.394   3.991
14610TIP3   OH243786   7.997   0.333   5.750
14610TIP3    H143787   7.959   0.405   5.801
14610TIP3    H243788   7.947   0.334   5.668
14611TIP3   OH243789   6.991   1.030   4.490
14611TIP3    H143790   7.050   1.048   4.417
14611TIP3    H243791   7.046   0.989   4.556
14612TIP3   OH243792   7.251   6.790   6.010
14612TIP3    H143793   7.331   6.737   6.001
14612TIP3    H243794   7.265   6.842   6.089
14613TIP3   OH243795   1.708   5.346   2.454
14613TIP3    H143796   1.704   5.322   2.361
14613TIP3    H243797   1.784   5.298   2.487
14614TIP3   OH243798   7.703   0.899   5.933
14614TIP3    H143799   7.679   0.810   5.960
14614TIP3    H243800   7.648   0.956   5.986
14615TIP3   OH243801   2.567   1.961   2.492
14615TIP3    H143802   2.519   1.962   2.409
14615TIP3    H243803   2.513   1.907   2.550
14616TIP3   OH243804   6.750   2.706   2.940
14616TIP3    H143805   6.673   2.676   2.891
14616TIP3    H243806   6.775   2.631   2.994
14617TIP3   OH243807   5.183   5.728   4.805
14617TIP3    H143808   5.268   5.750   4.766
14617TIP3    H243809   5.183   5.632   4.810
14618TIP3   OH243810   4.200   4.436   5.629
14618TIP3    H143811   4.178   4.527   5.651
14618TIP3    H243812   4.273   4.414   5.687
14619TIP3   OH243813   1.849   5.795   3.202
14619TIP3    H143814   1.782   5.729   3.187
14619TIP3    H243815   1.897   5.800   3.119
14620TIP3   OH243816   3.901   6.444   2.216
14620TIP3    H143817   3.941   6.424   2.131
14620TIP3    H243818   3.880   6.358   2.253
14621TIP3   OH243819   7.501   6.598   5.972
14621TIP3    H143820   7.500   6.539   5.897
14621TIP3    H243821   7.593   6.619   5.986
14622TIP3   OH243822   0.376   0.097   4.597
14622TIP3    H143823   0.446   0.145   4.553
14622TIP3    H243824   0.347   0.156   4.667
14623TIP3   OH243825   5.639   7.095   0.565
14623TIP3    H143826   5.650   7.065   0.475
14623TIP3    H243827   5.722   7.073   0.608
14624TIP3   OH243828   1.171   2.394   4.664
14624TIP3    H143829   1.145   2.385   4.572
14624TIP3    H243830   1.116   2.464   4.698
14625TIP3   OH243831   8.024   3.549   4.452
14625TIP3    H143832   7.937   3.546   4.492
14625TIP3    H243833   8.007   3.532   4.359
14626TIP3   OH243834   1.480   3.943   0.285
14626TIP3    H143835   1.544   3.964   0.354
14626TIP3    H243836   1.516   3.983   0.206
14627TIP3   OH243837   7.638   1.383   1.240
14627TIP3    H143838   7.655   1.389   1.334
14627TIP3    H243839   7.555   1.431   1.227
14628TIP3   OH243840   6.215   4.065   4.219
14628TIP3    H143841   6.247   4.069   4.129
14628TIP3    H243842   6.193   4.155   4.242
14629TIP3   OH243843   4.527   2.490   6.564
14629TIP3    H143844   4.506   2.523   6.651
14629TIP3    H243845   4.526   2.395   6.573
14630TIP3   OH243846   3.540   7.381   0.364
14630TIP3    H143847   3.533   7.324   0.442
14630TIP3    H243848   3.626   7.421   0.372
14631TIP3   OH243849   5.562   1.045   6.283
14631TIP3    H143850   5.601   1.008   6.204
14631TIP3    H243851   5.482   0.994   6.296
14632TIP3   OH243852   4.741   3.668   5.902
14632TIP3    H143853   4.821   3.619   5.879
14632TIP3    H243854   4.773   3.743   5.953
14633TIP3   OH243855   2.311   4.559   1.329
14633TIP3    H143856   2.388   4.600   1.368
14633TIP3    H243857   2.345   4.506   1.257
14634TIP3   OH243858   6.955   4.490   6.122
14634TIP3    H143859   6.885   4.448   6.172
14634TIP3    H243860   6.911   4.523   6.044
14635TIP3   OH243861   2.498   3.593   0.902
14635TIP3    H143862   2.438   3.518   0.895
14635TIP3    H243863   2.513   3.602   0.997
14636TIP3   OH243864   5.998   2.760   1.559
14636TIP3    H143865   6.027   2.674   1.528
14636TIP3    H243866   6.048   2.775   1.639
14637TIP3   OH243867   4.548   7.093   2.753
14637TIP3    H143868   4.516   7.112   2.665
14637TIP3    H243869   4.469   7.097   2.808
14638TIP3   OH243870   1.930   0.118   4.577
14638TIP3    H143871   1.837   0.141   4.568
14638TIP3    H243872   1.970   0.150   4.496
14639TIP3   OH243873   5.307   3.186   1.147
14639TIP3    H143874   5.273   3.219   1.064
14639TIP3    H243875   5.257   3.232   1.214
14640TIP3   OH243876   3.441   5.808   4.233
14640TIP3    H143877   3.523   5.845   4.265
14640TIP3    H243878   3.464   5.764   4.152
14641TIP3   OH243879   0.211   1.557   1.798
14641TIP3    H143880   0.242   1.561   1.708
14641TIP3    H243881   0.116   1.545   1.790
14642TIP3   OH243882   6.318   4.375   5.956
14642TIP3    H143883   6.268   4.374   5.875
14642TIP3    H243884   6.266   4.427   6.017
14643TIP3   OH243885   2.969   0.198   3.591
14643TIP3    H143886   2.968   0.262   3.662
14643TIP3    H243887   2.893   0.220   3.538
14644TIP3   OH243888   0.804   7.144   3.578
14644TIP3    H143889   0.842   7.215   3.527
14644TIP3    H243890   0.826   7.165   3.669
14645TIP3   OH243891   7.906   2.470   4.371
14645TIP3    H143892   7.815   2.460   4.344
14645TIP3    H243893   7.915   2.563   4.391
14646TIP3   OH243894   7.225   6.665   4.856
14646TIP3    H143895   7.234   6.744   4.911
14646TIP3    H243896   7.315   6.640   4.837
14647TIP3   OH243897   3.303   4.069   5.788
14647TIP3    H143898   3.326   4.067   5.695
14647TIP3    H243899   3.362   4.005   5.829
14648TIP3   OH243900   2.415   0.612   1.753
14648TIP3    H143901   2.388   0.587   1.841
14648TIP3    H243902   2.334   0.635   1.708
14649TIP3   OH243903   0.608   0.999   4.693
14649TIP3    H143904   0.561   1.033   4.617
14649TIP3    H243905   0.541   0.989   4.760
14650TIP3   OH243906   6.076   4.276   0.457
14650TIP3    H143907   5.996   4.260   0.507
14650TIP3    H243908   6.147   4.262   0.519
14651TIP3   OH243909   6.864   2.493   2.443
14651TIP3    H143910   6.815   2.575   2.436
14651TIP3    H243911   6.820   2.445   2.514
14652TIP3   OH243912   4.008   3.265   3.240
14652TIP3    H143913   3.935   3.205   3.257
14652TIP3    H243914   4.066   3.253   3.315
14653TIP3   OH243915   4.014   4.383   4.708
14653TIP3    H143916   3.958   4.460   4.716
14653TIP3    H243917   4.037   4.380   4.615
14654TIP3   OH243918   7.679   3.292   6.251
14654TIP3    H143919   7.640   3.211   6.283
14654TIP3    H243920   7.657   3.294   6.158
14655TIP3   OH243921   4.685   4.107   1.239
14655TIP3    H143922   4.593   4.112   1.215
14655TIP3    H243923   4.702   4.013   1.251
14656TIP3   OH243924   4.801   1.885   0.738
14656TIP3    H143925   4.839   1.803   0.707
14656TIP3    H243926   4.712   1.886   0.701
14657TIP3   OH243927   4.751   0.974   2.236
14657TIP3    H143928   4.673   0.919   2.225
14657TIP3    H243929   4.785   0.950   2.322
14658TIP3   OH243930   8.211   0.304   6.510
14658TIP3    H143931   8.232   0.244   6.439
14658TIP3    H243932   8.295   0.331   6.546
14659TIP3   OH243933   1.646   6.160   1.700
14659TIP3    H143934   1.735   6.136   1.723
14659TIP3    H243935   1.592   6.123   1.770
14660TIP3   OH243936   8.234   7.463   3.669
14660TIP3    H143937   8.147   7.436   3.641
14660TIP3    H243938   8.227   7.558   3.681
14661TIP3   OH243939   0.108   2.482   4.764
14661TIP3    H143940   0.091   2.506   4.855
14661TIP3    H243941   0.191   2.526   4.743
14662TIP3   OH243942   7.623   4.331   1.440
14662TIP3    H143943   7.591   4.369   1.359
14662TIP3    H243944   7.545   4.307   1.489
14663TIP3   OH243945   6.295   0.050   1.407
14663TIP3    H143946   6.249  -0.028   1.438
14663TIP3    H243947   6.261   0.064   1.318
14664TIP3   OH243948   1.882   3.494   3.875
14664TIP3    H143949   1.908   3.521   3.963
14664TIP3    H243950   1.846   3.406   3.886
14665TIP3   OH243951   4.246   3.014   4.576
14665TIP3    H143952   4.156   2.986   4.591
14665TIP3    H243953   4.295   2.976   4.648
14666TIP3   OH243954   5.491   2.586   5.767
14666TIP3    H143955   5.573   2.547   5.799
14666TIP3    H243956   5.476   2.544   5.683
14667TIP3   OH243957   8.132   2.305   5.620
14667TIP3    H143958   8.167   2.393   5.633
14667TIP3    H243959   8.082   2.310   5.539
14668TIP3   OH243960   5.733   3.273   0.535
14668TIP3    H143961   5.715   3.275   0.629
14668TIP3    H243962   5.693   3.191   0.505
14669TIP3   OH243963   5.136   0.265   5.891
14669TIP3    H143964   5.169   0.182   5.926
14669TIP3    H243965   5.167   0.331   5.953
14670TIP3   OH243966   6.834   7.716   3.394
14670TIP3    H143967   6.862   7.799   3.434
14670TIP3    H243968   6.823   7.736   3.302
14671TIP3   OH243969   2.185   0.952   4.047
14671TIP3    H143970   2.158   0.977   4.135
14671TIP3    H243971   2.143   1.015   3.989
14672TIP3   OH243972   0.917   4.405   2.552
14672TIP3    H143973   0.917   4.501   2.558
14672TIP3    H243974   0.969   4.376   2.627
14673TIP3   OH243975   2.035   4.433   4.828
14673TIP3    H143976   1.980   4.511   4.827
14673TIP3    H243977   2.064   4.425   4.919
14674TIP3   OH243978   1.373   4.742   3.640
14674TIP3    H143979   1.366   4.676   3.710
14674TIP3    H243980   1.332   4.700   3.565
14675TIP3   OH243981   3.044   6.718   2.395
14675TIP3    H143982   3.022   6.643   2.341
14675TIP3    H243983   3.048   6.683   2.484
14676TIP3   OH243984   3.953   6.465   1.510
14676TIP3    H143985   3.865   6.455   1.546
14676TIP3    H243986   4.006   6.493   1.584
14677TIP3   OH243987   8.249   4.761   2.961
14677TIP3    H143988   8.331   4.748   3.008
14677TIP3    H243989   8.239   4.856   2.955
14678TIP3   OH243990   5.493   0.515   5.959
14678TIP3    H143991   5.534   0.503   5.873
14678TIP3    H243992   5.482   0.427   5.993
14679TIP3   OH243993   0.923   4.807   5.429
14679TIP3    H143994   0.852   4.847   5.377
14679TIP3    H243995   0.998   4.807   5.371
14680TIP3   OH243996   2.828   7.513   1.187
14680TIP3    H143997   2.789   7.568   1.254
14680TIP3    H243998   2.890   7.457   1.235
14681TIP3   OH243999   3.665   1.035   3.869
14681TIP3    H144000   3.695   1.077   3.788
14681TIP3    H244001   3.616   0.958   3.838
14682TIP3   OH244002   2.819   6.225   1.918
14682TIP3    H144003   2.759   6.173   1.971
14682TIP3    H244004   2.823   6.310   1.962
14683TIP3   OH244005   7.636   6.409   3.809
14683TIP3    H144006   7.696   6.395   3.882
14683TIP3    H244007   7.578   6.480   3.838
14684TIP3   OH244008   0.344   4.992   3.712
14684TIP3    H144009   0.258   5.023   3.738
14684TIP3    H244010   0.386   5.069   3.673
14685TIP3   OH244011   3.614   7.604   2.877
14685TIP3    H144012   3.604   7.589   2.783
14685TIP3    H244013   3.623   7.517   2.915
14686TIP3   OH244014   2.412   1.843   0.347
14686TIP3    H144015   2.496   1.886   0.334
14686TIP3    H244016   2.431   1.773   0.410
14687TIP3   OH244017   1.153   4.491   4.901
14687TIP3    H144018   1.231   4.546   4.904
14687TIP3    H244019   1.175   4.416   4.956
14688TIP3   OH244020   5.628   5.648   5.158
14688TIP3    H144021   5.666   5.736   5.158
14688TIP3    H244022   5.621   5.625   5.250
14689TIP3   OH244023   1.761   4.836   0.221
14689TIP3    H144024   1.727   4.924   0.203
14689TIP3    H244025   1.731   4.817   0.310
14690TIP3   OH244026   5.634   2.972   0.412
14690TIP3    H144027   5.679   2.890   0.430
14690TIP3    H244028   5.548   2.945   0.379
14691TIP3   OH244029   8.156   5.529   1.636
14691TIP3    H144030   8.232   5.492   1.681
14691TIP3    H244031   8.097   5.555   1.707
14692TIP3   OH244032   7.329   6.580   4.123
14692TIP3    H144033   7.265   6.547   4.185
14692TIP3    H244034   7.392   6.508   4.113
14693TIP3   OH244035   4.437   7.528   2.866
14693TIP3    H144036   4.451   7.611   2.911
14693TIP3    H244037   4.499   7.530   2.793
14694TIP3   OH244038   3.630   2.210   4.309
14694TIP3    H144039   3.560   2.225   4.373
14694TIP3    H244040   3.708   2.192   4.362
14695TIP3   OH244041   5.350   5.222   0.967
14695TIP3    H144042   5.310   5.308   0.963
14695TIP3    H244043   5.442   5.237   0.946
14696TIP3   OH244044   1.490   6.838   3.175
14696TIP3    H144045   1.541   6.764   3.142
14696TIP3    H244046   1.441   6.803   3.249
14697TIP3   OH244047   5.747   5.241   3.843
14697TIP3    H144048   5.686   5.229   3.769
14697TIP3    H244049   5.746   5.157   3.889
14698TIP3   OH244050   3.337   2.384   1.416
14698TIP3    H144051   3.395   2.452   1.450
14698TIP3    H244052   3.373   2.302   1.450
14699TIP3   OH244053   3.696   7.756   1.170
14699TIP3    H144054   3.715   7.770   1.078
14699TIP3    H244055   3.749   7.822   1.216
14700TIP3   OH244056   5.344   2.007   3.198
14700TIP3    H144057   5.376   1.964   3.277
14700TIP3    H244058   5.268   2.057   3.227
14701TIP3   OH244059   5.635   0.907   4.178
14701TIP3    H144060   5.699   0.874   4.114
14701TIP3    H244061   5.657   1.000   4.187
14702TIP3   OH244062   7.696   4.920   2.700
14702TIP3    H144063   7.737   4.956   2.778
14702TIP3    H244064   7.716   4.983   2.630
14703TIP3   OH244065   7.086   7.326   4.067
14703TIP3    H144066   7.018   7.269   4.030
14703TIP3    H244067   7.157   7.267   4.090
14704TIP3   OH244068   3.155   1.747   5.053
14704TIP3    H144069   3.184   1.661   5.024
14704TIP3    H244070   3.202   1.808   4.996
14705TIP3   OH244071   7.966   3.668   4.870
14705TIP3    H144072   7.881   3.712   4.871
14705TIP3    H244073   8.005   3.693   4.787
14706TIP3   OH244074   4.705   0.613   2.964
14706TIP3    H144075   4.765   0.604   2.889
14706TIP3    H244076   4.623   0.575   2.932
14707TIP3   OH244077   6.363   6.816   4.137
14707TIP3    H144078   6.295   6.777   4.193
14707TIP3    H244079   6.444   6.772   4.165
14708TIP3   OH244080   1.569   1.113   2.039
14708TIP3    H144081   1.562   1.184   1.975
14708TIP3    H244082   1.566   1.158   2.124
14709TIP3   OH244083   3.236   4.071   3.922
14709TIP3    H144084   3.249   4.063   4.016
14709TIP3    H244085   3.144   4.047   3.908
14710TIP3   OH244086   6.380   7.399   5.251
14710TIP3    H144087   6.397   7.386   5.344
14710TIP3    H244088   6.461   7.436   5.216
14711TIP3   OH244089   5.597   4.503   2.590
14711TIP3    H144090   5.653   4.531   2.661
14711TIP3    H244091   5.513   4.546   2.606
14712TIP3   OH244092   8.072   1.489   2.362
14712TIP3    H144093   8.125   1.409   2.365
14712TIP3    H244094   8.012   1.475   2.289
14713TIP3   OH244095   3.245   4.863   3.726
14713TIP3    H144096   3.233   4.909   3.643
14713TIP3    H244097   3.328   4.816   3.715
14714TIP3   OH244098   4.098   6.372   5.250
14714TIP3    H144099   4.085   6.297   5.308
14714TIP3    H244100   4.192   6.390   5.254
14715TIP3   OH244101   3.725   5.432   3.962
14715TIP3    H144102   3.744   5.393   4.047
14715TIP3    H244103   3.648   5.384   3.930
14716TIP3   OH244104   2.009   3.376   1.802
14716TIP3    H144105   2.002   3.432   1.724
14716TIP3    H244106   2.097   3.393   1.836
14717TIP3   OH244107   0.510   5.426   6.233
14717TIP3    H144108   0.486   5.487   6.163
14717TIP3    H244109   0.600   5.451   6.256
14718TIP3   OH244110   3.719   6.536   5.311
14718TIP3    H144111   3.772   6.521   5.389
14718TIP3    H244112   3.636   6.570   5.343
14719TIP3   OH244113   4.125   6.691   6.612
14719TIP3    H144114   4.122   6.601   6.643
14719TIP3    H244115   4.218   6.710   6.600
14720TIP3   OH244116   5.441   3.295   3.950
14720TIP3    H144117   5.397   3.310   3.867
14720TIP3    H244118   5.522   3.250   3.927
14721TIP3   OH244119   2.124   7.613   5.494
14721TIP3    H144120   2.032   7.595   5.473
14721TIP3    H244121   2.122   7.696   5.541
14722TIP3   OH244122   6.538   1.588   4.368
14722TIP3    H144123   6.453   1.556   4.337
14722TIP3    H244124   6.530   1.684   4.367
14723TIP3   OH244125   3.717   6.862   5.117
14723TIP3    H144126   3.689   6.872   5.208
14723TIP3    H244127   3.685   6.776   5.091
14724TIP3   OH244128   4.080   2.712   1.910
14724TIP3    H144129   4.147   2.765   1.867
14724TIP3    H244130   4.123   2.628   1.928
14725TIP3   OH244131   4.214   7.478   0.759
14725TIP3    H144132   4.217   7.573   0.748
14725TIP3    H244133   4.193   7.465   0.851
14726TIP3   OH244134   1.450   0.078   6.662
14726TIP3    H144135   1.527   0.075   6.719
14726TIP3    H244136   1.486   0.096   6.575
14727TIP3   OH244137   2.104   6.438   2.030
14727TIP3    H144138   2.020   6.400   2.059
14727TIP3    H244139   2.105   6.423   1.935
14728TIP3   OH244140   7.734   0.926   4.701
14728TIP3    H144141   7.813   0.876   4.720
14728TIP3    H244142   7.756   0.976   4.622
14729TIP3   OH244143   3.151   6.497   5.505
14729TIP3    H144144   3.127   6.589   5.516
14729TIP3    H244145   3.211   6.496   5.431
14730TIP3   OH244146   0.276   2.209   1.627
14730TIP3    H144147   0.202   2.269   1.623
14730TIP3    H244148   0.267   2.154   1.549
14731TIP3   OH244149   3.954   3.801   3.054
14731TIP3    H144150   3.961   3.896   3.063
14731TIP3    H244151   3.865   3.782   3.083
14732TIP3   OH244152   4.436   2.416   3.903
14732TIP3    H144153   4.443   2.428   3.809
14732TIP3    H244154   4.526   2.401   3.932
14733TIP3   OH244155   2.871   6.978   1.969
14733TIP3    H144156   2.888   6.966   1.876
14733TIP3    H244157   2.951   6.947   2.012
14734TIP3   OH244158   7.643   2.347   0.941
14734TIP3    H144159   7.655   2.282   1.011
14734TIP3    H244160   7.694   2.312   0.868
14735TIP3   OH244161   6.690   1.446   6.165
14735TIP3    H144162   6.637   1.386   6.217
14735TIP3    H244163   6.713   1.396   6.086
14736TIP3   OH244164   0.541   2.819   3.473
14736TIP3    H144165   0.547   2.905   3.514
14736TIP3    H244166   0.596   2.762   3.528
14737TIP3   OH244167   6.582   4.368   0.189
14737TIP3    H144168   6.497   4.331   0.165
14737TIP3    H244169   6.643   4.295   0.182
14738TIP3   OH244170   2.991   2.513   5.249
14738TIP3    H144171   2.935   2.573   5.299
14738TIP3    H244172   2.998   2.553   5.163
14739TIP3   OH244173   7.599   0.105   0.402
14739TIP3    H144174   7.509   0.129   0.426
14739TIP3    H244175   7.634   0.064   0.481
14740TIP3   OH244176   6.396   0.722   6.682
14740TIP3    H144177   6.386   0.634   6.719
14740TIP3    H244178   6.327   0.773   6.724
14741TIP3   OH244179   1.221   4.882   4.375
14741TIP3    H144180   1.168   4.961   4.390
14741TIP3    H244181   1.200   4.856   4.285
14742TIP3   OH244182   8.019   0.966   2.189
14742TIP3    H144183   8.015   0.987   2.283
14742TIP3    H244184   8.061   0.880   2.186
14743TIP3   OH244185   3.717   2.518   2.975
14743TIP3    H144186   3.730   2.497   3.068
14743TIP3    H244187   3.771   2.597   2.961
14744TIP3   OH244188   4.685   3.684   6.790
14744TIP3    H144189   4.606   3.711   6.836
14744TIP3    H244190   4.681   3.730   6.706
14745TIP3   OH244191   0.722   7.671   0.404
14745TIP3    H144192   0.802   7.628   0.373
14745TIP3    H244193   0.653   7.608   0.386
14746TIP3   OH244194   3.379   5.080   4.590
14746TIP3    H144195   3.407   5.170   4.608
14746TIP3    H244196   3.330   5.085   4.508
14747TIP3   OH244197   2.827   1.880   2.242
14747TIP3    H144198   2.888   1.889   2.168
14747TIP3    H244199   2.858   1.803   2.289
14748TIP3   OH244200   3.362   5.050   3.357
14748TIP3    H144201   3.270   5.067   3.336
14748TIP3    H244202   3.411   5.103   3.294
14749TIP3   OH244203   6.102   2.356   1.781
14749TIP3    H144204   6.113   2.426   1.846
14749TIP3    H244205   6.076   2.280   1.832
14750TIP3   OH244206   2.833   4.835   3.583
14750TIP3    H144207   2.889   4.792   3.519
14750TIP3    H244208   2.750   4.787   3.578
14751TIP3   OH244209   2.545   2.694   1.663
14751TIP3    H144210   2.545   2.617   1.721
14751TIP3    H244211   2.562   2.768   1.722
14752TIP3   OH244212   6.539   7.589   3.824
14752TIP3    H144213   6.617   7.619   3.777
14752TIP3    H244214   6.552   7.494   3.833
14753TIP3   OH244215   2.660   7.144   4.075
14753TIP3    H144216   2.589   7.204   4.096
14753TIP3    H244217   2.705   7.184   4.001
14754TIP3   OH244218   3.242   1.387   4.728
14754TIP3    H144219   3.278   1.388   4.817
14754TIP3    H244220   3.319   1.377   4.671
14755TIP3   OH244221   3.007   7.405   3.527
14755TIP3    H144222   2.923   7.384   3.487
14755TIP3    H244223   3.059   7.326   3.517
14756TIP3   OH244224   7.268   5.787   4.873
14756TIP3    H144225   7.226   5.733   4.940
14756TIP3    H244226   7.358   5.755   4.870
14757TIP3   OH244227   0.922   7.488   1.031
14757TIP3    H144228   0.875   7.408   1.005
14757TIP3    H244229   1.001   7.488   0.976
14758TIP3   OH244230   6.104   6.088   1.838
14758TIP3    H144231   6.182   6.137   1.864
14758TIP3    H244232   6.056   6.148   1.781
14759TIP3   OH244233   5.434   4.986   6.062
14759TIP3    H144234   5.364   4.932   6.098
14759TIP3    H244235   5.411   4.998   5.970
14760TIP3   OH244236   6.614   0.152   3.513
14760TIP3    H144237   6.685   0.212   3.534
14760TIP3    H244238   6.628   0.077   3.571
14761TIP3   OH244239   3.106   4.996   3.503
14761TIP3    H144240   3.032   4.935   3.496
14761TIP3    H244241   3.090   5.061   3.434
14762TIP3   OH244242   6.890   5.495   1.768
14762TIP3    H144243   6.861   5.436   1.837
14762TIP3    H244244   6.919   5.436   1.698
14763TIP3   OH244245   1.555   5.321   4.076
14763TIP3    H144246   1.503   5.260   4.130
14763TIP3    H244247   1.508   5.324   3.993
14764TIP3   OH244248   3.186   1.919   2.612
14764TIP3    H144249   3.243   1.996   2.617
14764TIP3    H244250   3.109   1.942   2.665
14765TIP3   OH244251   4.251   7.157   2.763
14765TIP3    H144252   4.179   7.095   2.753
14765TIP3    H244253   4.221   7.217   2.832
14766TIP3   OH244254   3.266   7.754   5.535
14766TIP3    H144255   3.200   7.804   5.487
14766TIP3    H244256   3.276   7.673   5.484
14767TIP3   OH244257   3.013   5.372   3.547
14767TIP3    H144258   3.039   5.399   3.635
14767TIP3    H244259   2.949   5.302   3.560
14768TIP3   OH244260   4.867   6.124   4.424
14768TIP3    H144261   4.903   6.038   4.445
14768TIP3    H244262   4.799   6.138   4.490
14769TIP3   OH244263   3.607   2.347   5.049
14769TIP3    H144264   3.702   2.354   5.045
14769TIP3    H244265   3.579   2.344   4.958
14770TIP3   OH244266   3.931   5.207   3.371
14770TIP3    H144267   3.878   5.286   3.370
14770TIP3    H244268   3.903   5.161   3.451
14771TIP3   OH244269   4.473   2.536   1.995
14771TIP3    H144270   4.475   2.517   1.901
14771TIP3    H244271   4.382   2.561   2.012
14772TIP3   OH244272   0.223   1.185   0.549
14772TIP3    H144273   0.264   1.099   0.539
14772TIP3    H244274   0.290   1.239   0.592
14773TIP3   OH244275   0.710   6.463   2.170
14773TIP3    H144276   0.712   6.448   2.076
14773TIP3    H244277   0.801   6.457   2.198
14774TIP3   OH244278   7.291   4.079   6.425
14774TIP3    H144279   7.322   3.989   6.421
14774TIP3    H244280   7.199   4.072   6.451
14775TIP3   OH244281   7.062   4.961   0.539
14775TIP3    H144282   6.977   4.925   0.566
14775TIP3    H244283   7.066   5.046   0.583
14776TIP3   OH244284   5.715   5.939   5.471
14776TIP3    H144285   5.625   5.956   5.497
14776TIP3    H244286   5.735   5.853   5.508
14777TIP3   OH244287   0.791   5.859   4.279
14777TIP3    H144288   0.881   5.853   4.247
14777TIP3    H244289   0.753   5.774   4.257
14778TIP3   OH244290   4.840   6.936   3.213
14778TIP3    H144291   4.764   6.994   3.224
14778TIP3    H244292   4.856   6.901   3.300
14779TIP3   OH244293   7.296   4.846   1.565
14779TIP3    H144294   7.360   4.778   1.542
14779TIP3    H244295   7.343   4.928   1.552
14780TIP3   OH244296   2.856   5.479   5.265
14780TIP3    H144297   2.788   5.523   5.213
14780TIP3    H244298   2.851   5.387   5.238
14781TIP3   OH244299   3.234   4.250   5.994
14781TIP3    H144300   3.173   4.206   5.935
14781TIP3    H244301   3.306   4.188   6.005
14782TIP3   OH244302   0.489   4.345   6.349
14782TIP3    H144303   0.502   4.425   6.401
14782TIP3    H244304   0.574   4.301   6.352
14783TIP3   OH244305   4.639   2.966   0.010
14783TIP3    H144306   4.586   2.971   0.090
14783TIP3    H244307   4.677   2.878   0.013
14784TIP3   OH244308   6.074   5.352   6.517
14784TIP3    H144309   6.093   5.264   6.550
14784TIP3    H244310   5.986   5.345   6.480
14785TIP3   OH244311   5.744  -0.023   1.639
14785TIP3    H144312   5.751   0.042   1.569
14785TIP3    H244313   5.807   0.005   1.705
14786TIP3   OH244314   2.109   1.384   1.799
14786TIP3    H144315   2.024   1.414   1.832
14786TIP3    H244316   2.168   1.390   1.874
14787TIP3   OH244317   3.907   4.091   2.741
14787TIP3    H144318   3.930   4.163   2.682
14787TIP3    H244319   3.811   4.094   2.746
14788TIP3   OH244320   5.471   4.439   0.227
14788TIP3    H144321   5.463   4.527   0.192
14788TIP3    H244322   5.529   4.394   0.165
14789TIP3   OH244323   0.572   2.453   0.865
14789TIP3    H144324   0.648   2.396   0.858
14789TIP3    H244325   0.498   2.394   0.878
14790TIP3   OH244326   3.032   4.219   4.878
14790TIP3    H144327   2.997   4.130   4.883
14790TIP3    H244328   3.110   4.211   4.824
14791TIP3   OH244329   4.709   5.387   0.677
14791TIP3    H144330   4.791   5.349   0.647
14791TIP3    H244331   4.734   5.467   0.723
14792TIP3   OH244332   2.235   6.256   5.052
14792TIP3    H144333   2.185   6.337   5.057
14792TIP3    H244334   2.327   6.284   5.057
14793TIP3   OH244335   6.309   2.851   0.364
14793TIP3    H144336   6.381   2.805   0.408
14793TIP3    H244337   6.249   2.781   0.337
14794TIP3   OH244338   4.897   6.692   1.172
14794TIP3    H144339   4.978   6.730   1.205
14794TIP3    H244340   4.909   6.598   1.183
14795TIP3   OH244341   1.371   2.578   3.752
14795TIP3    H144342   1.455   2.622   3.765
14795TIP3    H244343   1.306   2.647   3.763
14796TIP3   OH244344   6.871   0.430   2.253
14796TIP3    H144345   6.889   0.475   2.336
14796TIP3    H244346   6.878   0.337   2.275
14797TIP3   OH244347   3.438   4.042   4.410
14797TIP3    H144348   3.446   3.988   4.332
14797TIP3    H244349   3.426   3.979   4.481
14798TIP3   OH244350   4.960   3.878   0.721
14798TIP3    H144351   4.888   3.867   0.659
14798TIP3    H244352   4.997   3.964   0.700
14799TIP3   OH244353   5.138   3.730   3.993
14799TIP3    H144354   5.168   3.640   4.001
14799TIP3    H244355   5.064   3.737   4.052
14800TIP3   OH244356   2.015   5.691   3.420
14800TIP3    H144357   1.964   5.734   3.351
14800TIP3    H244358   2.066   5.762   3.460
14801TIP3   OH244359   5.104   6.963   5.883
14801TIP3    H144360   5.084   7.022   5.811
14801TIP3    H244361   5.024   6.961   5.935
14802TIP3   OH244362   6.874   0.452   0.882
14802TIP3    H144363   6.960   0.470   0.846
14802TIP3    H244364   6.817   0.517   0.842
14803TIP3   OH244365   1.224   7.677   6.764
14803TIP3    H144366   1.159   7.704   6.700
14803TIP3    H244367   1.237   7.584   6.747
14804TIP3   OH244368   7.127   2.837   1.768
14804TIP3    H144369   7.131   2.929   1.793
14804TIP3    H244370   7.213   2.802   1.790
14805TIP3   OH244371   1.120   5.847   0.602
14805TIP3    H144372   1.118   5.777   0.667
14805TIP3    H244373   1.122   5.802   0.517
14806TIP3   OH244374   1.361   6.949   4.968
14806TIP3    H144375   1.310   6.907   5.037
14806TIP3    H244376   1.400   6.876   4.919
14807TIP3   OH244377   8.188   7.423   6.366
14807TIP3    H144378   8.177   7.404   6.273
14807TIP3    H244379   8.199   7.338   6.407
14808TIP3   OH244380   8.013   2.890   0.821
14808TIP3    H144381   8.107   2.886   0.803
14808TIP3    H244382   8.000   2.975   0.864
14809TIP3   OH244383   5.861   2.024   5.996
14809TIP3    H144384   5.869   2.116   5.973
14809TIP3    H244385   5.767   2.011   6.008
14810TIP3   OH244386   6.297   1.958   2.750
14810TIP3    H144387   6.349   1.880   2.768
14810TIP3    H244388   6.288   1.959   2.655
14811TIP3   OH244389   0.064   6.004   2.822
14811TIP3    H144390  -0.028   5.990   2.800
14811TIP3    H244391   0.077   6.098   2.809
14812TIP3   OH244392   6.788   3.152   3.289
14812TIP3    H144393   6.770   3.083   3.226
14812TIP3    H244394   6.797   3.231   3.236
14813TIP3   OH244395   1.651   5.321   6.741
14813TIP3    H144396   1.705   5.398   6.756
14813TIP3    H244397   1.630   5.288   6.828
14814TIP3   OH244398   1.967   4.102   1.548
14814TIP3    H144399   1.903   4.171   1.532
14814TIP3    H244400   2.044   4.148   1.583
14815TIP3   OH244401   1.956   0.722   4.922
14815TIP3    H144402   2.024   0.785   4.900
14815TIP3    H244403   1.976   0.694   5.011
14816TIP3   OH244404   4.627   0.584   0.107
14816TIP3    H144405   4.672   0.663   0.076
14816TIP3    H244406   4.612   0.533   0.028
14817TIP3   OH244407   7.280   6.428   3.506
14817TIP3    H144408   7.189   6.456   3.515
14817TIP3    H244409   7.277   6.332   3.515
14818TIP3   OH244410   3.674   6.920   6.005
14818TIP3    H144411   3.678   7.012   6.033
14818TIP3    H244412   3.685   6.924   5.910
14819TIP3   OH244413   4.643   2.075   6.504
14819TIP3    H144414   4.636   2.103   6.595
14819TIP3    H244415   4.588   1.997   6.499
14820TIP3   OH244416   8.253   3.610   4.125
14820TIP3    H144417   8.166   3.573   4.109
14820TIP3    H244418   8.237   3.702   4.145
14821TIP3   OH244419   6.596   4.451   3.639
14821TIP3    H144420   6.564   4.530   3.596
14821TIP3    H244421   6.691   4.459   3.636
14822TIP3   OH244422   4.447   7.812   2.040
14822TIP3    H144423   4.495   7.766   1.971
14822TIP3    H244424   4.377   7.859   1.994
14823TIP3   OH244425   0.392   6.042   0.272
14823TIP3    H144426   0.425   5.977   0.334
14823TIP3    H244427   0.433   6.124   0.298
14824TIP3   OH244428   7.766   1.353   4.412
14824TIP3    H144429   7.675   1.367   4.386
14824TIP3    H244430   7.762   1.292   4.485
14825TIP3   OH244431   7.362   2.881   0.333
14825TIP3    H144432   7.319   2.797   0.350
14825TIP3    H244433   7.454   2.858   0.318
14826TIP3   OH244434   5.694   1.854   5.327
14826TIP3    H144435   5.693   1.764   5.295
14826TIP3    H244436   5.683   1.908   5.249
14827TIP3   OH244437   6.284   3.602   0.179
14827TIP3    H144438   6.376   3.604   0.205
14827TIP3    H244439   6.278   3.665   0.107
14828TIP3   OH244440   0.459   1.049   4.423
14828TIP3    H144441   0.541   1.064   4.376
14828TIP3    H244442   0.463   0.957   4.450
14829TIP3   OH244443   0.187   2.035   4.226
14829TIP3    H144444   0.233   2.042   4.310
14829TIP3    H244445   0.219   2.108   4.174
14830TIP3   OH244446   4.355   7.624   0.953
14830TIP3    H144447   4.430   7.580   0.995
14830TIP3    H244448   4.278   7.580   0.990
14831TIP3   OH244449   3.736   0.440   3.745
14831TIP3    H144450   3.717   0.425   3.838
14831TIP3    H244451   3.803   0.375   3.723
14832TIP3   OH244452   3.525   6.123   4.998
14832TIP3    H144453   3.608   6.075   4.996
14832TIP3    H244454   3.480   6.089   5.075
14833TIP3   OH244455   2.994   4.999   2.369
14833TIP3    H144456   3.041   4.961   2.295
14833TIP3    H244457   3.034   4.961   2.447
14834TIP3   OH244458   2.293   5.222   4.155
14834TIP3    H144459   2.223   5.262   4.103
14834TIP3    H244460   2.309   5.138   4.112
14835TIP3   OH244461   4.302   5.543   2.206
14835TIP3    H144462   4.298   5.581   2.118
14835TIP3    H244463   4.396   5.529   2.222
14836TIP3   OH244464   0.554   3.153   5.102
14836TIP3    H144465   0.555   3.185   5.192
14836TIP3    H244466   0.472   3.104   5.095
14837TIP3   OH244467   4.901   6.608   1.581
14837TIP3    H144468   4.990   6.642   1.593
14837TIP3    H244469   4.855   6.676   1.533
   8.29767   7.82311   6.77502   0.00000   0.00000  -2.76589   0.00000  -2.76589  -3.91156
