Title t= 270.00000 step= 135000
19942
    1ASP      N    1   0.420   1.987   3.399
    1ASP    HT1    2   0.405   1.884   3.392
    1ASP    HT2    3   0.437   2.020   3.302
    1ASP    HT3    4   0.343   2.040   3.445
    1ASP     CA    5   0.542   2.008   3.482
    1ASP     HA    6   0.555   2.115   3.482
    1ASP     CB    7   0.505   1.959   3.630
    1ASP    HB1    8   0.483   1.851   3.623
    1ASP    HB2    9   0.417   2.021   3.659
    1ASP     CG   10   0.617   1.980   3.723
    1ASP    OD1   11   0.607   1.936   3.838
    1ASP    OD2   12   0.724   2.034   3.694
    1ASP      C   13   0.662   1.951   3.416
    1ASP      O   14   0.703   1.997   3.311
    2ALA      N   15   0.718   1.837   3.469
    2ALA     HN   16   0.712   1.798   3.561
    2ALA     CA   17   0.809   1.765   3.386
    2ALA     HA   18   0.881   1.840   3.358
    2ALA     CB   19   0.870   1.653   3.479
    2ALA    HB1   20   0.912   1.699   3.571
    2ALA    HB2   21   0.952   1.611   3.416
    2ALA    HB3   22   0.798   1.572   3.505
    2ALA      C   23   0.745   1.698   3.262
    2ALA      O   24   0.631   1.644   3.260
    3ASP      N   25   0.820   1.698   3.151
    3ASP     HN   26   0.909   1.743   3.160
    3ASP     CA   27   0.783   1.659   3.019
    3ASP     HA   28   0.702   1.722   2.986
    3ASP     CB   29   0.906   1.671   2.925
    3ASP    HB1   30   0.890   1.632   2.822
    3ASP    HB2   31   1.001   1.630   2.967
    3ASP     CG   32   0.941   1.813   2.905
    3ASP    OD1   33   1.060   1.853   2.935
    3ASP    OD2   34   0.856   1.895   2.864
    3ASP      C   35   0.724   1.520   2.989
    3ASP      O   36   0.759   1.414   3.047
    4GLY      N   37   0.636   1.519   2.890
    4GLY     HN   38   0.598   1.608   2.863
    4GLY     CA   39   0.578   1.408   2.820
    4GLY    HA1   40   0.528   1.438   2.729
    4GLY    HA2   41   0.503   1.363   2.884
    4GLY      C   42   0.668   1.316   2.766
    4GLY      O   43   0.787   1.348   2.752
    5PRO      N   44   0.629   1.204   2.718
    5PRO     CD   45   0.507   1.126   2.764
    5PRO    HD1   46   0.418   1.178   2.722
    5PRO    HD2   47   0.503   1.115   2.874
    5PRO     CA   48   0.700   1.123   2.619
    5PRO     HA   49   0.780   1.085   2.680
    5PRO     CB   50   0.596   1.020   2.570
    5PRO    HB1   51   0.657   0.933   2.535
    5PRO    HB2   52   0.527   1.046   2.487
    5PRO     CG   53   0.525   0.992   2.704
    5PRO    HG1   54   0.433   0.931   2.714
    5PRO    HG2   55   0.599   0.943   2.771
    5PRO      C   56   0.770   1.196   2.499
    5PRO      O   57   0.706   1.288   2.449
    6GLY      N   58   0.885   1.144   2.458
    6GLY     HN   59   0.916   1.061   2.505
    6GLY     CA   60   0.964   1.190   2.339
    6GLY    HA1   61   1.067   1.158   2.342
    6GLY    HA2   62   0.959   1.298   2.343
    6GLY      C   63   0.904   1.145   2.206
    6GLY      O   64   0.791   1.108   2.186
    7ASP      N   65   0.990   1.145   2.103
    7ASP     HN   66   1.086   1.162   2.125
    7ASP     CA   67   0.965   1.125   1.958
    7ASP     HA   68   0.889   1.197   1.932
    7ASP     CB   69   1.098   1.156   1.885
    7ASP    HB1   70   1.092   1.121   1.780
    7ASP    HB2   71   1.170   1.093   1.942
    7ASP     CG   72   1.130   1.302   1.896
    7ASP    OD1   73   1.243   1.333   1.850
    7ASP    OD2   74   1.052   1.391   1.942
    7ASP      C   75   0.904   0.984   1.931
    7ASP      O   76   0.944   0.888   1.996
    8PRO      N   77   0.827   0.970   1.829
    8PRO     CD   78   0.768   1.076   1.737
    8PRO    HD1   79   0.851   1.131   1.687
    8PRO    HD2   80   0.701   1.149   1.789
    8PRO     CA   81   0.771   0.838   1.799
    8PRO     HA   82   0.751   0.787   1.892
    8PRO     CB   83   0.642   0.874   1.721
    8PRO    HB1   84   0.566   0.909   1.793
    8PRO    HB2   85   0.600   0.783   1.671
    8PRO     CG   86   0.677   0.999   1.644
    8PRO    HG1   87   0.740   0.971   1.557
    8PRO    HG2   88   0.596   1.066   1.607
    8PRO      C   89   0.875   0.745   1.737
    8PRO      O   90   0.877   0.629   1.781
    9ASP      N   91   0.965   0.793   1.648
    9ASP     HN   92   0.958   0.892   1.643
    9ASP     CA   93   1.060   0.726   1.563
    9ASP     HA   94   1.031   0.624   1.542
    9ASP     CB   95   1.093   0.812   1.443
    9ASP    HB1   96   1.146   0.746   1.371
    9ASP    HB2   97   1.155   0.899   1.474
    9ASP     CG   98   0.973   0.869   1.367
    9ASP    OD1   99   0.980   0.996   1.344
    9ASP    OD2  100   0.881   0.791   1.329
    9ASP      C  101   1.194   0.704   1.636
    9ASP      O  102   1.293   0.672   1.574
   10ALA      N  103   1.193   0.726   1.763
   10ALA     HN  104   1.109   0.752   1.809
   10ALA     CA  105   1.311   0.722   1.840
   10ALA     HA  106   1.376   0.795   1.793
   10ALA     CB  107   1.284   0.776   1.979
   10ALA    HB1  108   1.380   0.790   2.033
   10ALA    HB2  109   1.220   0.707   2.038
   10ALA    HB3  110   1.232   0.874   1.968
   10ALA      C  111   1.382   0.584   1.848
   10ALA      O  112   1.317   0.479   1.871
   11GLY      N  113   1.521   0.596   1.845
   11GLY     HN  114   1.562   0.680   1.810
   11GLY     CA  115   1.612   0.483   1.864
   11GLY    HA1  116   1.629   0.444   1.765
   11GLY    HA2  117   1.584   0.412   1.940
   11GLY      C  118   1.752   0.535   1.902
   11GLY    OT1  119   1.835   0.439   1.923
   11GLY    OT2  120   1.787   0.654   1.900
   12LIT    LIT  121   4.565   4.585   5.166
   13LIT    LIT  122   1.252   2.721   1.324
   14LIT    LIT  123   2.398   0.552   4.204
   15LIT    LIT  124   3.870   5.344   4.932
   16LIT    LIT  125   5.728   0.042   3.153
   17LIT    LIT  126   2.131   4.566   3.346
   18LIT    LIT  127   6.331   5.721   2.272
   19LIT    LIT  128   4.761   5.908   1.159
   20LIT    LIT  129   2.659   2.223   5.131
   21LIT    LIT  130   1.519   5.815   2.687
   22LIT    LIT  131   3.589   3.565   0.803
   23LIT    LIT  132   2.350   1.890   2.383
   24LIT    LIT  133   1.798   5.419   4.506
   25LIT    LIT  134   4.207   0.512   0.948
   26LIT    LIT  135   5.260   4.754   0.093
   27LIT    LIT  136   1.193   0.483   2.426
   28LIT    LIT  137   0.779   2.017   3.883
   29LIT    LIT  138   3.077   4.044   4.124
   30LIT    LIT  139   1.643   2.117   1.867
   31LIT    LIT  140   4.145   0.796   4.103
   32LIT    LIT  141   2.540   4.891   2.002
   33LIT    LIT  142   5.833   1.245   2.863
   34CLA    CLA  143   5.644   2.443   1.849
   35CLA    CLA  144   5.526   0.791   3.898
   36CLA    CLA  145   3.366   0.324   4.166
   37CLA    CLA  146   1.779   0.644   3.613
   38CLA    CLA  147   4.193   5.340   0.008
   39CLA    CLA  148   1.857   1.642   0.395
   40CLA    CLA  149   3.717   3.085   0.093
   41CLA    CLA  150   0.846   3.996   1.403
   42CLA    CLA  151   3.014   3.561   1.047
   43CLA    CLA  152   3.149   2.606   2.471
   44CLA    CLA  153   4.712   3.779   4.740
   45CLA    CLA  154   0.846   4.789   1.646
   46CLA    CLA  155   2.991   5.585   3.843
   47CLA    CLA  156   3.215   1.776   5.057
   48CLA    CLA  157   3.565   4.264   4.751
   49CLA    CLA  158   5.515   5.883   1.276
   50CLA    CLA  159   2.899   2.291   3.163
   51CLA    CLA  160   2.778   0.027   0.811
   52TIP3   OH2  161   6.009   0.881   2.200
   52TIP3    H1  162   6.035   0.971   2.221
   52TIP3    H2  163   6.085   0.844   2.155
   53TIP3   OH2  164   5.253   5.706   1.717
   53TIP3    H1  165   5.341   5.699   1.680
   53TIP3    H2  166   5.201   5.748   1.648
   54TIP3   OH2  167   5.989   1.995   3.270
   54TIP3    H1  168   5.939   1.937   3.212
   54TIP3    H2  169   5.927   2.021   3.338
   55TIP3   OH2  170   2.759   4.805   1.173
   55TIP3    H1  171   2.733   4.797   1.081
   55TIP3    H2  172   2.686   4.851   1.214
   56TIP3   OH2  173   4.226   1.419   0.315
   56TIP3    H1  174   4.318   1.434   0.332
   56TIP3    H2  175   4.212   1.454   0.227
   57TIP3   OH2  176   3.954   0.930   5.049
   57TIP3    H1  177   3.860   0.923   5.062
   57TIP3    H2  178   3.983   0.992   5.116
   58TIP3   OH2  179   5.796   3.761   2.204
   58TIP3    H1  180   5.799   3.666   2.204
   58TIP3    H2  181   5.713   3.783   2.163
   59TIP3   OH2  182   0.373   5.654   0.190
   59TIP3    H1  183   0.311   5.583   0.170
   59TIP3    H2  184   0.459   5.617   0.169
   60TIP3   OH2  185   2.376   0.536   2.217
   60TIP3    H1  186   2.441   0.474   2.185
   60TIP3    H2  187   2.385   0.532   2.313
   61TIP3   OH2  188   5.212   2.248   1.368
   61TIP3    H1  189   5.206   2.155   1.388
   61TIP3    H2  190   5.147   2.263   1.300
   62TIP3   OH2  191   3.850   3.561   3.188
   62TIP3    H1  192   3.777   3.576   3.127
   62TIP3    H2  193   3.918   3.521   3.134
   63TIP3   OH2  194   5.080   2.664   1.348
   63TIP3    H1  195   5.149   2.629   1.406
   63TIP3    H2  196   5.017   2.704   1.408
   64TIP3   OH2  197   4.157   4.367   2.549
   64TIP3    H1  198   4.151   4.341   2.641
   64TIP3    H2  199   4.153   4.284   2.501
   65TIP3   OH2  200   4.729   3.257   4.553
   65TIP3    H1  201   4.812   3.269   4.599
   65TIP3    H2  202   4.734   3.317   4.479
   66TIP3   OH2  203   3.832   1.462   3.673
   66TIP3    H1  204   3.743   1.470   3.706
   66TIP3    H2  205   3.841   1.534   3.611
   67TIP3   OH2  206   1.635   5.436   0.640
   67TIP3    H1  207   1.653   5.377   0.713
   67TIP3    H2  208   1.545   5.464   0.653
   68TIP3   OH2  209   2.319   1.931   0.804
   68TIP3    H1  210   2.367   1.850   0.817
   68TIP3    H2  211   2.247   1.926   0.865
   69TIP3   OH2  212   2.071   5.838   5.047
   69TIP3    H1  213   2.044   5.762   5.098
   69TIP3    H2  214   2.074   5.806   4.956
   70TIP3   OH2  215   2.879   5.129   2.605
   70TIP3    H1  216   2.864   5.223   2.592
   70TIP3    H2  217   2.965   5.124   2.647
   71TIP3   OH2  218   5.043   3.907   2.308
   71TIP3    H1  219   5.124   3.873   2.269
   71TIP3    H2  220   4.997   3.830   2.340
   72TIP3   OH2  221   2.927   0.727   4.810
   72TIP3    H1  222   2.911   0.705   4.719
   72TIP3    H2  223   2.945   0.643   4.853
   73TIP3   OH2  224   6.249   4.988   1.763
   73TIP3    H1  225   6.293   4.914   1.722
   73TIP3    H2  226   6.156   4.969   1.753
   74TIP3   OH2  227   4.648   1.789   4.387
   74TIP3    H1  228   4.720   1.750   4.436
   74TIP3    H2  229   4.633   1.873   4.429
   75TIP3   OH2  230   4.665   4.484   2.164
   75TIP3    H1  231   4.577   4.524   2.163
   75TIP3    H2  232   4.652   4.401   2.209
   76TIP3   OH2  233   1.002   0.822   0.607
   76TIP3    H1  234   1.072   0.789   0.663
   76TIP3    H2  235   1.033   0.908   0.578
   77TIP3   OH2  236   6.217   1.366   3.562
   77TIP3    H1  237   6.155   1.294   3.562
   77TIP3    H2  238   6.174   1.436   3.611
   78TIP3   OH2  239   6.213   1.306   2.123
   78TIP3    H1  240   6.248   1.344   2.042
   78TIP3    H2  241   6.164   1.377   2.164
   79TIP3   OH2  242   5.075   0.841   2.260
   79TIP3    H1  243   5.131   0.904   2.215
   79TIP3    H2  244   4.989   0.854   2.221
   80TIP3   OH2  245   3.726   1.450   3.993
   80TIP3    H1  246   3.710   1.543   3.979
   80TIP3    H2  247   3.681   1.430   4.075
   81TIP3   OH2  248   1.149   3.752   3.920
   81TIP3    H1  249   1.146   3.848   3.917
   81TIP3    H2  250   1.079   3.728   3.981
   82TIP3   OH2  251   1.409   0.550   2.876
   82TIP3    H1  252   1.465   0.574   2.950
   82TIP3    H2  253   1.361   0.630   2.855
   83TIP3   OH2  254   6.241   2.493   3.291
   83TIP3    H1  255   6.284   2.508   3.376
   83TIP3    H2  256   6.163   2.550   3.294
   84TIP3   OH2  257   5.562   5.333   4.694
   84TIP3    H1  258   5.648   5.374   4.700
   84TIP3    H2  259   5.532   5.354   4.605
   85TIP3   OH2  260   2.820   3.185   5.009
   85TIP3    H1  261   2.790   3.271   4.981
   85TIP3    H2  262   2.915   3.187   4.998
   86TIP3   OH2  263   5.932   0.863   1.477
   86TIP3    H1  264   5.869   0.795   1.501
   86TIP3    H2  265   5.901   0.942   1.523
   87TIP3   OH2  266   4.314   4.059   1.535
   87TIP3    H1  267   4.222   4.079   1.518
   87TIP3    H2  268   4.313   4.003   1.613
   88TIP3   OH2  269   5.015   1.970   1.760
   88TIP3    H1  270   5.090   1.927   1.800
   88TIP3    H2  271   5.039   2.063   1.756
   89TIP3   OH2  272   0.548   4.003   4.262
   89TIP3    H1  273   0.552   4.001   4.357
   89TIP3    H2  274   0.615   3.942   4.233
   90TIP3   OH2  275   3.746   4.097   1.820
   90TIP3    H1  276   3.691   4.154   1.874
   90TIP3    H2  277   3.827   4.146   1.807
   91TIP3   OH2  278   4.357   5.760   4.176
   91TIP3    H1  279   4.325   5.787   4.262
   91TIP3    H2  280   4.386   5.670   4.188
   92TIP3   OH2  281   5.387   0.966   0.548
   92TIP3    H1  282   5.465   1.012   0.578
   92TIP3    H2  283   5.376   0.895   0.611
   93TIP3   OH2  284   4.000   4.229   1.892
   93TIP3    H1  285   4.002   4.229   1.987
   93TIP3    H2  286   4.039   4.145   1.867
   94TIP3   OH2  287   3.486   5.736   3.537
   94TIP3    H1  288   3.420   5.689   3.486
   94TIP3    H2  289   3.456   5.727   3.628
   95TIP3   OH2  290   3.178   0.051   3.134
   95TIP3    H1  291   3.256   0.001   3.114
   95TIP3    H2  292   3.125  -0.007   3.189
   96TIP3   OH2  293   0.610   4.478   0.631
   96TIP3    H1  294   0.544   4.474   0.700
   96TIP3    H2  295   0.633   4.571   0.625
   97TIP3   OH2  296   5.124   3.691   4.664
   97TIP3    H1  297   5.074   3.676   4.584
   97TIP3    H2  298   5.057   3.699   4.732
   98TIP3   OH2  299   5.427   4.464   0.435
   98TIP3    H1  300   5.434   4.447   0.341
   98TIP3    H2  301   5.335   4.447   0.456
   99TIP3   OH2  302   2.267   1.785   3.382
   99TIP3    H1  303   2.272   1.713   3.320
   99TIP3    H2  304   2.201   1.844   3.345
  100TIP3   OH2  305   4.808   1.471   4.923
  100TIP3    H1  306   4.834   1.448   4.834
  100TIP3    H2  307   4.719   1.506   4.914
  101TIP3   OH2  308   5.742   3.187   2.602
  101TIP3    H1  309   5.833   3.210   2.621
  101TIP3    H2  310   5.745   3.092   2.587
  102TIP3   OH2  311   5.605   2.781   3.962
  102TIP3    H1  312   5.670   2.838   4.004
  102TIP3    H2  313   5.609   2.700   4.012
  103TIP3   OH2  314   3.514   1.723   2.396
  103TIP3    H1  315   3.442   1.775   2.361
  103TIP3    H2  316   3.512   1.738   2.490
  104TIP3   OH2  317   5.012   1.890   2.125
  104TIP3    H1  318   4.982   1.821   2.185
  104TIP3    H2  319   4.981   1.862   2.039
  105TIP3   OH2  320   3.324   5.692   5.056
  105TIP3    H1  321   3.364   5.646   4.982
  105TIP3    H2  322   3.297   5.776   5.020
  106TIP3   OH2  323   0.499   2.985   1.906
  106TIP3    H1  324   0.467   3.070   1.878
  106TIP3    H2  325   0.591   3.001   1.930
  107TIP3   OH2  326   1.905   5.117   4.824
  107TIP3    H1  327   1.905   5.067   4.742
  107TIP3    H2  328   1.998   5.137   4.839
  108TIP3   OH2  329   0.183   3.435   4.177
  108TIP3    H1  330   0.122   3.419   4.249
  108TIP3    H2  331   0.222   3.520   4.198
  109TIP3   OH2  332   0.909   1.965   0.853
  109TIP3    H1  333   0.949   1.883   0.880
  109TIP3    H2  334   0.852   1.942   0.780
  110TIP3   OH2  335   3.893   4.236   4.252
  110TIP3    H1  336   3.826   4.206   4.314
  110TIP3    H2  337   3.963   4.271   4.308
  111TIP3   OH2  338   0.401   4.369   0.838
  111TIP3    H1  339   0.466   4.412   0.893
  111TIP3    H2  340   0.426   4.277   0.838
  112TIP3   OH2  341   0.333   1.758   2.617
  112TIP3    H1  342   0.426   1.766   2.638
  112TIP3    H2  343   0.324   1.802   2.533
  113TIP3   OH2  344   5.617   3.066   0.606
  113TIP3    H1  345   5.647   3.120   0.679
  113TIP3    H2  346   5.526   3.044   0.627
  114TIP3   OH2  347   1.324   3.385   2.300
  114TIP3    H1  348   1.404   3.333   2.308
  114TIP3    H2  349   1.350   3.472   2.330
  115TIP3   OH2  350   0.666   0.975   4.080
  115TIP3    H1  351   0.572   0.958   4.077
  115TIP3    H2  352   0.703   0.913   4.017
  116TIP3   OH2  353   2.501   1.961   1.069
  116TIP3    H1  354   2.552   2.007   1.135
  116TIP3    H2  355   2.554   1.966   0.990
  117TIP3   OH2  356   2.818   4.185   2.198
  117TIP3    H1  357   2.881   4.152   2.262
  117TIP3    H2  358   2.734   4.151   2.226
  118TIP3   OH2  359   3.533   3.956   2.682
  118TIP3    H1  360   3.456   3.899   2.676
  118TIP3    H2  361   3.568   3.940   2.770
  119TIP3   OH2  362   4.463   4.645   2.298
  119TIP3    H1  363   4.515   4.648   2.379
  119TIP3    H2  364   4.441   4.737   2.281
  120TIP3   OH2  365   6.070   2.293   1.332
  120TIP3    H1  366   6.148   2.320   1.284
  120TIP3    H2  367   6.083   2.328   1.421
  121TIP3   OH2  368   1.070   5.504   0.865
  121TIP3    H1  369   1.048   5.529   0.776
  121TIP3    H2  370   1.081   5.409   0.861
  122TIP3   OH2  371   5.321   5.625   2.740
  122TIP3    H1  372   5.391   5.666   2.792
  122TIP3    H2  373   5.253   5.606   2.804
  123TIP3   OH2  374   1.368   5.361   0.682
  123TIP3    H1  375   1.321   5.282   0.653
  123TIP3    H2  376   1.301   5.430   0.681
  124TIP3   OH2  377   2.406   5.988   0.910
  124TIP3    H1  378   2.376   5.924   0.846
  124TIP3    H2  379   2.464   5.939   0.968
  125TIP3   OH2  380   3.130   3.823   0.108
  125TIP3    H1  381   3.148   3.741   0.063
  125TIP3    H2  382   3.217   3.861   0.124
  126TIP3   OH2  383   1.928   4.427   1.531
  126TIP3    H1  384   1.957   4.443   1.621
  126TIP3    H2  385   1.877   4.346   1.537
  127TIP3   OH2  386   1.217   3.412   4.043
  127TIP3    H1  387   1.238   3.319   4.053
  127TIP3    H2  388   1.218   3.426   3.948
  128TIP3   OH2  389   5.816   4.667   0.341
  128TIP3    H1  390   5.872   4.589   0.341
  128TIP3    H2  391   5.739   4.643   0.392
  129TIP3   OH2  392   5.824   1.412   3.386
  129TIP3    H1  393   5.889   1.399   3.317
  129TIP3    H2  394   5.863   1.478   3.443
  130TIP3   OH2  395   0.261   5.114   4.350
  130TIP3    H1  396   0.242   5.046   4.285
  130TIP3    H2  397   0.330   5.077   4.404
  131TIP3   OH2  398   1.478   4.961   1.935
  131TIP3    H1  399   1.489   5.024   1.864
  131TIP3    H2  400   1.428   4.889   1.896
  132TIP3   OH2  401   1.575   5.300   0.882
  132TIP3    H1  402   1.642   5.232   0.893
  132TIP3    H2  403   1.500   5.253   0.844
  133TIP3   OH2  404   5.292   5.417   0.031
  133TIP3    H1  405   5.216   5.443  -0.021
  133TIP3    H2  406   5.348   5.370  -0.030
  134TIP3   OH2  407   4.717   3.215   0.651
  134TIP3    H1  408   4.784   3.276   0.621
  134TIP3    H2  409   4.639   3.239   0.602
  135TIP3   OH2  410   0.159   2.396   3.579
  135TIP3    H1  411   0.156   2.418   3.672
  135TIP3    H2  412   0.070   2.411   3.548
  136TIP3   OH2  413   0.072   2.629   3.080
  136TIP3    H1  414  -0.010   2.595   3.114
  136TIP3    H2  415   0.052   2.657   2.990
  137TIP3   OH2  416   0.558   4.533   5.127
  137TIP3    H1  417   0.549   4.624   5.154
  137TIP3    H2  418   0.522   4.482   5.200
  138TIP3   OH2  419   2.566   2.002   4.183
  138TIP3    H1  420   2.621   1.932   4.149
  138TIP3    H2  421   2.603   2.021   4.269
  139TIP3   OH2  422   0.432   4.814   3.209
  139TIP3    H1  423   0.517   4.852   3.230
  139TIP3    H2  424   0.398   4.868   3.139
  140TIP3   OH2  425   1.815   4.332   5.025
  140TIP3    H1  426   1.867   4.254   5.044
  140TIP3    H2  427   1.737   4.299   4.980
  141TIP3   OH2  428   5.762   2.680   2.925
  141TIP3    H1  429   5.683   2.692   2.871
  141TIP3    H2  430   5.738   2.614   2.989
  142TIP3   OH2  431   3.372   3.073   3.662
  142TIP3    H1  432   3.374   3.164   3.633
  142TIP3    H2  433   3.370   3.078   3.758
  143TIP3   OH2  434   0.190   1.502   2.644
  143TIP3    H1  435   0.125   1.538   2.704
  143TIP3    H2  436   0.247   1.577   2.623
  144TIP3   OH2  437   4.084   4.206   5.103
  144TIP3    H1  438   4.050   4.154   5.176
  144TIP3    H2  439   4.073   4.297   5.130
  145TIP3   OH2  440   1.593  -0.021   2.853
  145TIP3    H1  441   1.587   0.038   2.927
  145TIP3    H2  442   1.593   0.036   2.776
  146TIP3   OH2  443   3.359   0.090   3.440
  146TIP3    H1  444   3.389   0.151   3.373
  146TIP3    H2  445   3.343   0.009   3.393
  147TIP3   OH2  446   1.881   3.230   0.301
  147TIP3    H1  447   1.840   3.167   0.360
  147TIP3    H2  448   1.909   3.302   0.358
  148TIP3   OH2  449   5.019   2.684   3.485
  148TIP3    H1  450   4.961   2.760   3.483
  148TIP3    H2  451   5.094   2.711   3.538
  149TIP3   OH2  452   1.981   0.433   2.977
  149TIP3    H1  453   1.952   0.342   2.986
  149TIP3    H2  454   1.941   0.463   2.895
  150TIP3   OH2  455   0.455   5.550   3.198
  150TIP3    H1  456   0.405   5.577   3.275
  150TIP3    H2  457   0.406   5.475   3.164
  151TIP3   OH2  458   5.588   1.766   1.332
  151TIP3    H1  459   5.555   1.699   1.272
  151TIP3    H2  460   5.607   1.719   1.413
  152TIP3   OH2  461   3.162   0.234   0.516
  152TIP3    H1  462   3.088   0.174   0.526
  152TIP3    H2  463   3.210   0.228   0.599
  153TIP3   OH2  464   6.012   4.133   3.795
  153TIP3    H1  465   6.061   4.146   3.714
  153TIP3    H2  466   6.076   4.147   3.864
  154TIP3   OH2  467   3.666   5.521   0.173
  154TIP3    H1  468   3.678   5.427   0.190
  154TIP3    H2  469   3.738   5.563   0.220
  155TIP3   OH2  470   1.069   3.156   1.603
  155TIP3    H1  471   1.103   3.078   1.648
  155TIP3    H2  472   1.045   3.125   1.516
  156TIP3   OH2  473   1.253   2.882   0.506
  156TIP3    H1  474   1.341   2.900   0.472
  156TIP3    H2  475   1.265   2.872   0.600
  157TIP3   OH2  476   0.857   3.690   4.477
  157TIP3    H1  477   0.897   3.774   4.454
  157TIP3    H2  478   0.931   3.634   4.501
  158TIP3   OH2  479   3.476   5.792   2.289
  158TIP3    H1  480   3.533   5.733   2.337
  158TIP3    H2  481   3.430   5.736   2.227
  159TIP3   OH2  482   2.384   5.649   1.006
  159TIP3    H1  483   2.298   5.615   1.031
  159TIP3    H2  484   2.369   5.697   0.925
  160TIP3   OH2  485   0.122   4.447   0.798
  160TIP3    H1  486   0.213   4.422   0.813
  160TIP3    H2  487   0.112   4.446   0.702
  161TIP3   OH2  488   5.077   0.015   2.111
  161TIP3    H1  489   5.016  -0.059   2.105
  161TIP3    H2  490   5.059   0.054   2.196
  162TIP3   OH2  491   5.813   5.669   0.152
  162TIP3    H1  492   5.720   5.688   0.143
  162TIP3    H2  493   5.819   5.613   0.229
  163TIP3   OH2  494   5.563   0.139   3.707
  163TIP3    H1  495   5.471   0.160   3.726
  163TIP3    H2  496   5.612   0.175   3.781
  164TIP3   OH2  497   3.875   0.203   4.129
  164TIP3    H1  498   3.819   0.168   4.061
  164TIP3    H2  499   3.839   0.167   4.211
  165TIP3   OH2  500   4.189   2.780   2.376
  165TIP3    H1  501   4.262   2.727   2.408
  165TIP3    H2  502   4.111   2.735   2.408
  166TIP3   OH2  503   2.340   5.158   1.245
  166TIP3    H1  504   2.399   5.232   1.262
  166TIP3    H2  505   2.253   5.192   1.265
  167TIP3   OH2  506   5.964   1.926   0.991
  167TIP3    H1  507   5.880   1.944   1.033
  167TIP3    H2  508   6.000   2.013   0.970
  168TIP3   OH2  509   5.764   0.777   0.998
  168TIP3    H1  510   5.725   0.730   0.924
  168TIP3    H2  511   5.757   0.717   1.072
  169TIP3   OH2  512   3.110   5.793   4.395
  169TIP3    H1  513   3.099   5.857   4.325
  169TIP3    H2  514   3.080   5.711   4.356
  170TIP3   OH2  515   4.678   1.136   3.551
  170TIP3    H1  516   4.767   1.104   3.540
  170TIP3    H2  517   4.676   1.172   3.640
  171TIP3   OH2  518   3.256   5.031   0.288
  171TIP3    H1  519   3.212   4.991   0.213
  171TIP3    H2  520   3.239   4.971   0.361
  172TIP3   OH2  521   3.959   2.609   0.358
  172TIP3    H1  522   3.969   2.634   0.266
  172TIP3    H2  523   4.042   2.633   0.399
  173TIP3   OH2  524   2.432   3.816   2.770
  173TIP3    H1  525   2.384   3.754   2.825
  173TIP3    H2  526   2.369   3.845   2.704
  174TIP3   OH2  527   5.627   1.026   4.497
  174TIP3    H1  528   5.719   0.997   4.496
  174TIP3    H2  529   5.587   0.981   4.422
  175TIP3   OH2  530   2.331   3.656   1.132
  175TIP3    H1  531   2.345   3.574   1.178
  175TIP3    H2  532   2.271   3.633   1.061
  176TIP3   OH2  533   1.930   1.989   3.199
  176TIP3    H1  534   1.934   1.900   3.165
  176TIP3    H2  535   1.960   2.044   3.126
  177TIP3   OH2  536   4.613   0.585   4.536
  177TIP3    H1  537   4.665   0.654   4.578
  177TIP3    H2  538   4.659   0.566   4.454
  178TIP3   OH2  539   5.081   1.317   2.003
  178TIP3    H1  540   5.009   1.377   2.022
  178TIP3    H2  541   5.153   1.373   1.975
  179TIP3   OH2  542   1.550   3.431   0.880
  179TIP3    H1  543   1.575   3.523   0.887
  179TIP3    H2  544   1.604   3.386   0.945
  180TIP3   OH2  545   0.440   3.696   0.815
  180TIP3    H1  546   0.491   3.625   0.777
  180TIP3    H2  547   0.505   3.759   0.845
  181TIP3   OH2  548   1.010   5.861   0.166
  181TIP3    H1  549   1.070   5.804   0.118
  181TIP3    H2  550   0.998   5.937   0.109
  182TIP3   OH2  551   3.675   0.180   1.589
  182TIP3    H1  552   3.746   0.243   1.601
  182TIP3    H2  553   3.710   0.097   1.621
  183TIP3   OH2  554   4.344   3.141   0.049
  183TIP3    H1  555   4.321   3.234   0.048
  183TIP3    H2  556   4.308   3.106  -0.033
  184TIP3   OH2  557   1.727   2.583   1.743
  184TIP3    H1  558   1.770   2.661   1.778
  184TIP3    H2  559   1.796   2.517   1.739
  185TIP3   OH2  560   2.531   4.159   2.873
  185TIP3    H1  561   2.532   4.197   2.785
  185TIP3    H2  562   2.443   4.123   2.883
  186TIP3   OH2  563   1.366   5.389   2.581
  186TIP3    H1  564   1.335   5.409   2.493
  186TIP3    H2  565   1.287   5.362   2.628
  187TIP3   OH2  566   0.724   1.845   5.115
  187TIP3    H1  567   0.653   1.825   5.177
  187TIP3    H2  568   0.689   1.817   5.030
  188TIP3   OH2  569   1.960   1.927   2.261
  188TIP3    H1  570   1.881   1.981   2.270
  188TIP3    H2  571   1.947   1.880   2.178
  189TIP3   OH2  572   2.645   5.966   1.620
  189TIP3    H1  573   2.679   5.882   1.652
  189TIP3    H2  574   2.720   6.025   1.621
  190TIP3   OH2  575   0.600   1.818   4.502
  190TIP3    H1  576   0.656   1.871   4.558
  190TIP3    H2  577   0.662   1.765   4.450
  191TIP3   OH2  578   4.665   0.122   2.724
  191TIP3    H1  579   4.722   0.191   2.690
  191TIP3    H2  580   4.684   0.117   2.817
  192TIP3   OH2  581   0.622   0.173   5.087
  192TIP3    H1  582   0.653   0.260   5.061
  192TIP3    H2  583   0.565   0.188   5.162
  193TIP3   OH2  584   5.093   2.999   4.472
  193TIP3    H1  585   5.025   2.937   4.498
  193TIP3    H2  586   5.146   3.011   4.551
  194TIP3   OH2  587   1.444   3.076   5.046
  194TIP3    H1  588   1.365   3.029   5.072
  194TIP3    H2  589   1.433   3.164   5.082
  195TIP3   OH2  590   3.792   0.319   0.484
  195TIP3    H1  591   3.842   0.314   0.565
  195TIP3    H2  592   3.796   0.230   0.447
  196TIP3   OH2  593   5.553   0.060   1.266
  196TIP3    H1  594   5.501   0.125   1.313
  196TIP3    H2  595   5.527  -0.024   1.304
  197TIP3   OH2  596   4.096   2.578   3.835
  197TIP3    H1  597   4.042   2.523   3.778
  197TIP3    H2  598   4.122   2.652   3.780
  198TIP3   OH2  599   3.918   5.701   2.534
  198TIP3    H1  600   3.999   5.651   2.548
  198TIP3    H2  601   3.937   5.756   2.458
  199TIP3   OH2  602   6.135   5.852   4.634
  199TIP3    H1  603   6.160   5.811   4.551
  199TIP3    H2  604   6.102   5.938   4.610
  200TIP3   OH2  605   4.251   0.753   0.260
  200TIP3    H1  606   4.317   0.738   0.328
  200TIP3    H2  607   4.302   0.760   0.179
  201TIP3   OH2  608   5.546   3.015   2.939
  201TIP3    H1  609   5.482   3.033   3.007
  201TIP3    H2  610   5.493   2.997   2.861
  202TIP3   OH2  611   2.712   3.274   3.167
  202TIP3    H1  612   2.751   3.190   3.142
  202TIP3    H2  613   2.772   3.340   3.133
  203TIP3   OH2  614   4.623   2.588   2.489
  203TIP3    H1  615   4.703   2.536   2.477
  203TIP3    H2  616   4.596   2.612   2.400
  204TIP3   OH2  617   4.915   4.111   0.311
  204TIP3    H1  618   4.896   4.186   0.255
  204TIP3    H2  619   5.006   4.122   0.338
  205TIP3   OH2  620   2.235   1.205   3.469
  205TIP3    H1  621   2.173   1.149   3.423
  205TIP3    H2  622   2.283   1.146   3.527
  206TIP3   OH2  623   4.659   0.523   0.426
  206TIP3    H1  624   4.657   0.428   0.425
  206TIP3    H2  625   4.569   0.549   0.407
  207TIP3   OH2  626   4.283   2.906   4.872
  207TIP3    H1  627   4.367   2.945   4.895
  207TIP3    H2  628   4.218   2.958   4.919
  208TIP3   OH2  629   6.209   5.825   5.008
  208TIP3    H1  630   6.121   5.862   4.998
  208TIP3    H2  631   6.240   5.861   5.091
  209TIP3   OH2  632  -0.003   4.529   0.270
  209TIP3    H1  633   0.060   4.459   0.255
  209TIP3    H2  634   0.051   4.606   0.289
  210TIP3   OH2  635   2.479   4.767   0.693
  210TIP3    H1  636   2.484   4.684   0.646
  210TIP3    H2  637   2.443   4.828   0.629
  211TIP3   OH2  638   2.004   4.405   1.803
  211TIP3    H1  639   2.033   4.317   1.780
  211TIP3    H2  640   1.915   4.393   1.837
  212TIP3   OH2  641   3.943   5.454   1.188
  212TIP3    H1  642   3.903   5.424   1.107
  212TIP3    H2  643   3.978   5.375   1.228
  213TIP3   OH2  644   0.294   1.584   4.073
  213TIP3    H1  645   0.199   1.589   4.065
  213TIP3    H2  646   0.325   1.571   3.983
  214TIP3   OH2  647   2.280   3.336   1.651
  214TIP3    H1  648   2.319   3.416   1.685
  214TIP3    H2  649   2.187   3.357   1.642
  215TIP3   OH2  650   3.280   3.696   1.099
  215TIP3    H1  651   3.204   3.651   1.063
  215TIP3    H2  652   3.278   3.675   1.193
  216TIP3   OH2  653   6.349   3.195   4.845
  216TIP3    H1  654   6.260   3.227   4.857
  216TIP3    H2  655   6.381   3.181   4.934
  217TIP3   OH2  656   4.875   1.044   0.091
  217TIP3    H1  657   4.830   0.960   0.082
  217TIP3    H2  658   4.932   1.049   0.014
  218TIP3   OH2  659   4.080   0.438   2.710
  218TIP3    H1  660   4.075   0.437   2.614
  218TIP3    H2  661   4.077   0.531   2.734
  219TIP3   OH2  662   3.552   4.817   0.484
  219TIP3    H1  663   3.505   4.744   0.526
  219TIP3    H2  664   3.484   4.880   0.461
  220TIP3   OH2  665   3.354   1.261   1.507
  220TIP3    H1  666   3.372   1.271   1.600
  220TIP3    H2  667   3.275   1.313   1.492
  221TIP3   OH2  668   5.757   4.757   2.426
  221TIP3    H1  669   5.818   4.791   2.492
  221TIP3    H2  670   5.678   4.735   2.477
  222TIP3   OH2  671   2.028   2.556   2.661
  222TIP3    H1  672   1.966   2.625   2.685
  222TIP3    H2  673   2.107   2.577   2.710
  223TIP3   OH2  674   2.868   5.424   0.661
  223TIP3    H1  675   2.939   5.381   0.613
  223TIP3    H2  676   2.895   5.516   0.665
  224TIP3   OH2  677   3.188   1.678   2.997
  224TIP3    H1  678   3.119   1.686   3.063
  224TIP3    H2  679   3.160   1.737   2.927
  225TIP3   OH2  680   5.727   5.553   2.967
  225TIP3    H1  681   5.809   5.521   2.929
  225TIP3    H2  682   5.666   5.480   2.957
  226TIP3   OH2  683   2.266   1.120   4.812
  226TIP3    H1  684   2.307   1.038   4.840
  226TIP3    H2  685   2.192   1.092   4.758
  227TIP3   OH2  686   5.174   5.467   1.164
  227TIP3    H1  687   5.080   5.477   1.149
  227TIP3    H2  688   5.184   5.376   1.190
  228TIP3   OH2  689   3.568   5.796   0.060
  228TIP3    H1  690   3.603   5.712   0.088
  228TIP3    H2  691   3.606   5.860   0.120
  229TIP3   OH2  692   1.648   1.454   2.134
  229TIP3    H1  693   1.624   1.379   2.079
  229TIP3    H2  694   1.582   1.456   2.203
  230TIP3   OH2  695   5.498   1.118   4.974
  230TIP3    H1  696   5.528   1.117   4.883
  230TIP3    H2  697   5.566   1.071   5.022
  231TIP3   OH2  698   6.319   4.304   2.766
  231TIP3    H1  699   6.307   4.224   2.715
  231TIP3    H2  700   6.405   4.295   2.806
  232TIP3   OH2  701   1.516   2.920   1.885
  232TIP3    H1  702   1.455   2.980   1.927
  232TIP3    H2  703   1.472   2.894   1.803
  233TIP3   OH2  704   4.644   2.959   3.960
  233TIP3    H1  705   4.694   2.975   4.040
  233TIP3    H2  706   4.684   2.882   3.921
  234TIP3   OH2  707   4.642   5.777   4.138
  234TIP3    H1  708   4.566   5.804   4.190
  234TIP3    H2  709   4.613   5.697   4.093
  235TIP3   OH2  710   2.659   4.750   0.902
  235TIP3    H1  711   2.598   4.753   0.828
  235TIP3    H2  712   2.745   4.760   0.862
  236TIP3   OH2  713   0.342   5.867   4.034
  236TIP3    H1  714   0.424   5.915   4.028
  236TIP3    H2  715   0.319   5.846   3.944
  237TIP3   OH2  716   1.769   3.003   1.929
  237TIP3    H1  717   1.729   3.076   1.976
  237TIP3    H2  718   1.696   2.942   1.914
  238TIP3   OH2  719   2.677   0.871   2.665
  238TIP3    H1  720   2.726   0.788   2.666
  238TIP3    H2  721   2.604   0.855   2.606
  239TIP3   OH2  722   3.790   3.749   2.779
  239TIP3    H1  723   3.702   3.731   2.744
  239TIP3    H2  724   3.842   3.673   2.754
  240TIP3   OH2  725   0.405   5.359   2.132
  240TIP3    H1  726   0.478   5.415   2.106
  240TIP3    H2  727   0.420   5.342   2.225
  241TIP3   OH2  728   6.133   1.282   0.531
  241TIP3    H1  729   6.196   1.352   0.550
  241TIP3    H2  730   6.186   1.204   0.520
  242TIP3   OH2  731   4.506   5.104   1.580
  242TIP3    H1  732   4.497   5.009   1.590
  242TIP3    H2  733   4.552   5.133   1.659
  243TIP3   OH2  734   5.355   5.874   3.660
  243TIP3    H1  735   5.433   5.819   3.661
  243TIP3    H2  736   5.289   5.825   3.709
  244TIP3   OH2  737   4.670   0.870   1.493
  244TIP3    H1  738   4.582   0.878   1.531
  244TIP3    H2  739   4.655   0.833   1.406
  245TIP3   OH2  740   1.337   0.639   0.382
  245TIP3    H1  741   1.273   0.622   0.314
  245TIP3    H2  742   1.357   0.732   0.375
  246TIP3   OH2  743   0.574   3.384   4.619
  246TIP3    H1  744   0.656   3.349   4.651
  246TIP3    H2  745   0.516   3.385   4.695
  247TIP3   OH2  746   4.308   3.292   3.279
  247TIP3    H1  747   4.240   3.338   3.328
  247TIP3    H2  748   4.291   3.199   3.297
  248TIP3   OH2  749   3.717   3.501   3.455
  248TIP3    H1  750   3.749   3.566   3.393
  248TIP3    H2  751   3.753   3.418   3.424
  249TIP3   OH2  752   0.876   1.787   1.846
  249TIP3    H1  753   0.929   1.713   1.877
  249TIP3    H2  754   0.925   1.822   1.771
  250TIP3   OH2  755   6.143   4.425   1.779
  250TIP3    H1  756   6.200   4.369   1.832
  250TIP3    H2  757   6.077   4.457   1.840
  251TIP3   OH2  758   3.692   1.712   0.485
  251TIP3    H1  759   3.783   1.733   0.466
  251TIP3    H2  760   3.675   1.631   0.437
  252TIP3   OH2  761   4.094   2.231   2.658
  252TIP3    H1  762   4.136   2.233   2.572
  252TIP3    H2  763   4.132   2.305   2.706
  253TIP3   OH2  764   2.995   4.160   0.319
  253TIP3    H1  765   3.028   4.082   0.363
  253TIP3    H2  766   3.019   4.147   0.227
  254TIP3   OH2  767   1.673   4.188   2.389
  254TIP3    H1  768   1.657   4.249   2.317
  254TIP3    H2  769   1.638   4.233   2.466
  255TIP3   OH2  770   2.874   0.852   3.640
  255TIP3    H1  771   2.936   0.803   3.693
  255TIP3    H2  772   2.818   0.896   3.703
  256TIP3   OH2  773   5.274   5.386   0.758
  256TIP3    H1  774   5.287   5.481   0.766
  256TIP3    H2  775   5.243   5.358   0.844
  257TIP3   OH2  776   0.820   5.490   4.303
  257TIP3    H1  777   0.831   5.574   4.257
  257TIP3    H2  778   0.903   5.478   4.350
  258TIP3   OH2  779   3.412   2.001   5.061
  258TIP3    H1  780   3.486   1.972   5.008
  258TIP3    H2  781   3.356   1.923   5.068
  259TIP3   OH2  782   2.232   3.028   2.857
  259TIP3    H1  783   2.283   3.109   2.853
  259TIP3    H2  784   2.203   3.022   2.948
  260TIP3   OH2  785   2.900   4.745   1.446
  260TIP3    H1  786   2.939   4.785   1.524
  260TIP3    H2  787   2.820   4.795   1.431
  261TIP3   OH2  788   3.052   3.583   2.778
  261TIP3    H1  789   3.076   3.669   2.813
  261TIP3    H2  790   3.004   3.603   2.698
  262TIP3   OH2  791   0.786   3.704   2.907
  262TIP3    H1  792   0.735   3.666   2.836
  262TIP3    H2  793   0.846   3.634   2.935
  263TIP3   OH2  794   2.603   2.855   2.496
  263TIP3    H1  795   2.521   2.865   2.546
  263TIP3    H2  796   2.672   2.869   2.561
  264TIP3   OH2  797   5.102   5.557   2.930
  264TIP3    H1  798   5.008   5.554   2.948
  264TIP3    H2  799   5.139   5.488   2.985
  265TIP3   OH2  800   1.160   4.848   0.645
  265TIP3    H1  801   1.115   4.770   0.676
  265TIP3    H2  802   1.122   4.866   0.559
  266TIP3   OH2  803   1.445   1.873   4.358
  266TIP3    H1  804   1.405   1.960   4.360
  266TIP3    H2  805   1.396   1.826   4.290
  267TIP3   OH2  806   5.927   0.420   1.069
  267TIP3    H1  807   5.987   0.483   1.029
  267TIP3    H2  808   5.954   0.416   1.161
  268TIP3   OH2  809   3.215   3.090   4.178
  268TIP3    H1  810   3.275   3.163   4.168
  268TIP3    H2  811   3.149   3.121   4.240
  269TIP3   OH2  812   1.287   3.749   2.676
  269TIP3    H1  813   1.348   3.814   2.711
  269TIP3    H2  814   1.343   3.676   2.649
  270TIP3   OH2  815   4.517   1.947   1.628
  270TIP3    H1  816   4.476   2.031   1.647
  270TIP3    H2  817   4.495   1.930   1.536
  271TIP3   OH2  818   3.662   5.510   3.336
  271TIP3    H1  819   3.665   5.496   3.242
  271TIP3    H2  820   3.573   5.483   3.361
  272TIP3   OH2  821   4.606   2.633   1.787
  272TIP3    H1  822   4.511   2.635   1.797
  272TIP3    H2  823   4.620   2.594   1.701
  273TIP3   OH2  824   4.204   2.941   1.437
  273TIP3    H1  825   4.110   2.960   1.442
  273TIP3    H2  826   4.224   2.897   1.520
  274TIP3   OH2  827   0.265   5.241   0.825
  274TIP3    H1  828   0.266   5.336   0.813
  274TIP3    H2  829   0.342   5.210   0.778
  275TIP3   OH2  830   5.124   4.662   1.973
  275TIP3    H1  831   5.116   4.572   1.941
  275TIP3    H2  832   5.212   4.665   2.012
  276TIP3   OH2  833   4.505   3.581   2.168
  276TIP3    H1  834   4.593   3.557   2.139
  276TIP3    H2  835   4.520   3.651   2.232
  277TIP3   OH2  836   4.215   3.563   1.167
  277TIP3    H1  837   4.283   3.610   1.216
  277TIP3    H2  838   4.261   3.521   1.095
  278TIP3   OH2  839   5.966   3.814   0.955
  278TIP3    H1  840   5.901   3.753   0.919
  278TIP3    H2  841   6.030   3.825   0.884
  279TIP3   OH2  842   5.692   3.933   0.647
  279TIP3    H1  843   5.722   4.019   0.676
  279TIP3    H2  844   5.612   3.917   0.696
  280TIP3   OH2  845   5.108   0.822   1.370
  280TIP3    H1  846   5.076   0.813   1.459
  280TIP3    H2  847   5.168   0.896   1.373
  281TIP3   OH2  848   1.850   5.455   4.682
  281TIP3    H1  849   1.854   5.404   4.764
  281TIP3    H2  850   1.826   5.543   4.710
  282TIP3   OH2  851   2.992   3.665   0.336
  282TIP3    H1  852   3.086   3.671   0.319
  282TIP3    H2  853   2.982   3.691   0.427
  283TIP3   OH2  854   4.082   3.969   1.812
  283TIP3    H1  855   4.060   3.935   1.899
  283TIP3    H2  856   4.173   3.942   1.797
  284TIP3   OH2  857   0.564   0.647   2.971
  284TIP3    H1  858   0.656   0.674   2.972
  284TIP3    H2  859   0.554   0.593   3.049
  285TIP3   OH2  860   5.532   1.325   4.400
  285TIP3    H1  861   5.532   1.229   4.399
  285TIP3    H2  862   5.598   1.350   4.335
  286TIP3   OH2  863   0.618   5.542   2.072
  286TIP3    H1  864   0.547   5.607   2.072
  286TIP3    H2  865   0.697   5.593   2.054
  287TIP3   OH2  866   3.541   0.174   0.801
  287TIP3    H1  867   3.623   0.220   0.819
  287TIP3    H2  868   3.476   0.244   0.791
  288TIP3   OH2  869   4.141   3.153   3.560
  288TIP3    H1  870   4.070   3.131   3.620
  288TIP3    H2  871   4.119   3.239   3.526
  289TIP3   OH2  872   0.721   2.038   2.544
  289TIP3    H1  873   0.644   1.999   2.503
  289TIP3    H2  874   0.777   2.063   2.471
  290TIP3   OH2  875   1.396   5.136   4.001
  290TIP3    H1  876   1.392   5.225   4.035
  290TIP3    H2  877   1.335   5.135   3.927
  291TIP3   OH2  878   1.106   4.165   2.801
  291TIP3    H1  879   1.058   4.089   2.769
  291TIP3    H2  880   1.045   4.209   2.860
  292TIP3   OH2  881   1.149   1.527   3.220
  292TIP3    H1  882   1.116   1.438   3.232
  292TIP3    H2  883   1.196   1.524   3.137
  293TIP3   OH2  884   3.745   0.645   2.174
  293TIP3    H1  885   3.666   0.655   2.121
  293TIP3    H2  886   3.714   0.636   2.264
  294TIP3   OH2  887   5.960   4.484   1.962
  294TIP3    H1  888   5.875   4.490   1.918
  294TIP3    H2  889   5.944   4.519   2.050
  295TIP3   OH2  890   4.732   0.322   3.651
  295TIP3    H1  891   4.789   0.274   3.712
  295TIP3    H2  892   4.777   0.317   3.567
  296TIP3   OH2  893   6.011   4.142   0.042
  296TIP3    H1  894   6.038   4.231   0.062
  296TIP3    H2  895   5.960   4.114   0.118
  297TIP3   OH2  896   5.533   5.630   0.773
  297TIP3    H1  897   5.601   5.686   0.809
  297TIP3    H2  898   5.490   5.592   0.849
  298TIP3   OH2  899   3.802   5.920   1.722
  298TIP3    H1  900   3.875   5.978   1.700
  298TIP3    H2  901   3.733   5.945   1.660
  299TIP3   OH2  902   5.711   2.308   3.034
  299TIP3    H1  903   5.707   2.388   3.086
  299TIP3    H2  904   5.689   2.336   2.945
  300TIP3   OH2  905   3.751   3.009   1.223
  300TIP3    H1  906   3.685   2.949   1.190
  300TIP3    H2  907   3.774   3.064   1.149
  301TIP3   OH2  908   0.606   3.697   3.144
  301TIP3    H1  909   0.658   3.691   3.064
  301TIP3    H2  910   0.519   3.724   3.115
  302TIP3   OH2  911   3.893   0.359   4.676
  302TIP3    H1  912   3.866   0.281   4.723
  302TIP3    H2  913   3.887   0.429   4.740
  303TIP3   OH2  914   5.055   0.840   1.630
  303TIP3    H1  915   5.039   0.795   1.713
  303TIP3    H2  916   5.150   0.846   1.624
  304TIP3   OH2  917   2.755   2.218   1.176
  304TIP3    H1  918   2.755   2.207   1.081
  304TIP3    H2  919   2.752   2.128   1.210
  305TIP3   OH2  920   3.703   5.089   2.012
  305TIP3    H1  921   3.625   5.082   2.067
  305TIP3    H2  922   3.686   5.030   1.938
  306TIP3   OH2  923   0.858   0.025   3.648
  306TIP3    H1  924   0.946   0.019   3.612
  306TIP3    H2  925   0.811  -0.049   3.611
  307TIP3   OH2  926   5.804   0.422   0.314
  307TIP3    H1  927   5.861   0.373   0.255
  307TIP3    H2  928   5.864   0.464   0.376
  308TIP3   OH2  929   3.925   0.793   3.285
  308TIP3    H1  930   3.975   0.870   3.314
  308TIP3    H2  931   3.958   0.776   3.197
  309TIP3   OH2  932   3.862   4.498   2.553
  309TIP3    H1  933   3.932   4.432   2.551
  309TIP3    H2  934   3.793   4.460   2.499
  310TIP3   OH2  935   2.496   2.525   0.099
  310TIP3    H1  936   2.525   2.563   0.182
  310TIP3    H2  937   2.574   2.523   0.044
  311TIP3   OH2  938   4.427   1.806   0.372
  311TIP3    H1  939   4.381   1.879   0.331
  311TIP3    H2  940   4.377   1.787   0.451
  312TIP3   OH2  941   0.545   5.921   0.253
  312TIP3    H1  942   0.616   5.905   0.192
  312TIP3    H2  943   0.570   5.875   0.333
  313TIP3   OH2  944   5.933   4.273   1.125
  313TIP3    H1  945   5.842   4.302   1.120
  313TIP3    H2  946   5.980   4.350   1.157
  314TIP3   OH2  947   3.831   3.902   1.420
  314TIP3    H1  948   3.755   3.845   1.422
  314TIP3    H2  949   3.821   3.954   1.340
  315TIP3   OH2  950   3.212   3.589   1.684
  315TIP3    H1  951   3.285   3.632   1.729
  315TIP3    H2  952   3.157   3.662   1.655
  316TIP3   OH2  953   5.008   1.557   4.341
  316TIP3    H1  954   4.967   1.595   4.263
  316TIP3    H2  955   5.081   1.616   4.362
  317TIP3   OH2  956   2.004   1.650   3.344
  317TIP3    H1  957   1.992   1.685   3.432
  317TIP3    H2  958   2.006   1.555   3.356
  318TIP3   OH2  959   3.498   1.012   1.098
  318TIP3    H1  960   3.443   1.089   1.112
  318TIP3    H2  961   3.454   0.962   1.030
  319TIP3   OH2  962   3.467   1.844   0.609
  319TIP3    H1  963   3.445   1.816   0.698
  319TIP3    H2  964   3.544   1.792   0.586
  320TIP3   OH2  965   0.261   3.159   0.397
  320TIP3    H1  966   0.333   3.181   0.338
  320TIP3    H2  967   0.216   3.242   0.413
  321TIP3   OH2  968   5.160   1.976   1.433
  321TIP3    H1  969   5.080   2.024   1.451
  321TIP3    H2  970   5.215   1.990   1.510
  322TIP3   OH2  971   3.560  -0.002   4.537
  322TIP3    H1  972   3.488   0.046   4.494
  322TIP3    H2  973   3.600  -0.052   4.466
  323TIP3   OH2  974   4.994   1.224   0.316
  323TIP3    H1  975   4.959   1.177   0.240
  323TIP3    H2  976   5.088   1.231   0.298
  324TIP3   OH2  977   1.520   5.031   4.707
  324TIP3    H1  978   1.565   5.041   4.791
  324TIP3    H2  979   1.579   4.976   4.654
  325TIP3   OH2  980   1.893   0.198   2.011
  325TIP3    H1  981   1.973   0.233   2.050
  325TIP3    H2  982   1.835   0.274   2.005
  326TIP3   OH2  983   0.466   5.662   3.831
  326TIP3    H1  984   0.550   5.624   3.807
  326TIP3    H2  985   0.473   5.754   3.807
  327TIP3   OH2  986   4.622   4.225   2.279
  327TIP3    H1  987   4.688   4.185   2.222
  327TIP3    H2  988   4.654   4.210   2.367
  328TIP3   OH2  989   4.458   2.893   2.356
  328TIP3    H1  990   4.516   2.838   2.303
  328TIP3    H2  991   4.389   2.920   2.296
  329TIP3   OH2  992   4.195   4.310   1.512
  329TIP3    H1  993   4.285   4.281   1.494
  329TIP3    H2  994   4.194   4.327   1.606
  330TIP3   OH2  995   2.652   0.764   1.620
  330TIP3    H1  996   2.731   0.743   1.570
  330TIP3    H2  997   2.587   0.701   1.590
  331TIP3   OH2  998   2.481   1.701   1.184
  331TIP3    H1  999   2.478   1.783   1.136
  331TIP3    H2 1000   2.574   1.677   1.184
  332TIP3   OH2 1001   0.062   5.931   4.656
  332TIP3    H1 1002  -0.033   5.924   4.654
  332TIP3    H2 1003   0.094   5.848   4.620
  333TIP3   OH2 1004   5.215   4.638   1.251
  333TIP3    H1 1005   5.207   4.733   1.264
  333TIP3    H2 1006   5.301   4.627   1.211
  334TIP3   OH2 1007   1.091   2.941   4.208
  334TIP3    H1 1008   1.156   2.938   4.139
  334TIP3    H2 1009   1.104   3.025   4.252
  335TIP3   OH2 1010   2.314   4.365   1.081
  335TIP3    H1 1011   2.406   4.390   1.071
  335TIP3    H2 1012   2.271   4.401   1.003
  336TIP3   OH2 1013   2.451   4.354   2.465
  336TIP3    H1 1014   2.391   4.329   2.396
  336TIP3    H2 1015   2.405   4.423   2.514
  337TIP3   OH2 1016   2.724   2.030   4.410
  337TIP3    H1 1017   2.793   1.970   4.438
  337TIP3    H2 1018   2.704   2.083   4.487
  338TIP3   OH2 1019   4.974   2.478   3.659
  338TIP3    H1 1020   4.919   2.497   3.735
  338TIP3    H2 1021   4.981   2.562   3.613
  339TIP3   OH2 1022   2.345   5.562   0.274
  339TIP3    H1 1023   2.295   5.641   0.253
  339TIP3    H2 1024   2.396   5.545   0.195
  340TIP3   OH2 1025   3.484   2.237   3.697
  340TIP3    H1 1026   3.399   2.201   3.673
  340TIP3    H2 1027   3.547   2.188   3.644
  341TIP3   OH2 1028   4.177   2.488   2.041
  341TIP3    H1 1029   4.094   2.534   2.054
  341TIP3    H2 1030   4.151   2.399   2.017
  342TIP3   OH2 1031   5.951   2.094   1.708
  342TIP3    H1 1032   5.944   2.189   1.704
  342TIP3    H2 1033   5.926   2.072   1.798
  343TIP3   OH2 1034   2.142   4.215   0.494
  343TIP3    H1 1035   2.207   4.261   0.440
  343TIP3    H2 1036   2.124   4.135   0.445
  344TIP3   OH2 1037   5.349   1.160   0.130
  344TIP3    H1 1038   5.437   1.178   0.163
  344TIP3    H2 1039   5.301   1.242   0.143
  345TIP3   OH2 1040   1.244   1.651   1.123
  345TIP3    H1 1041   1.329   1.689   1.100
  345TIP3    H2 1042   1.225   1.685   1.211
  346TIP3   OH2 1043   0.636   1.336   0.860
  346TIP3    H1 1044   0.651   1.429   0.848
  346TIP3    H2 1045   0.544   1.323   0.838
  347TIP3   OH2 1046   1.843   4.556   2.944
  347TIP3    H1 1047   1.751   4.538   2.923
  347TIP3    H2 1048   1.853   4.650   2.928
  348TIP3   OH2 1049   1.962   1.699   1.767
  348TIP3    H1 1050   2.018   1.624   1.784
  348TIP3    H2 1051   1.879   1.661   1.737
  349TIP3   OH2 1052   0.100   1.176   3.053
  349TIP3    H1 1053   0.183   1.222   3.056
  349TIP3    H2 1054   0.108   1.106   3.117
  350TIP3   OH2 1055   2.735   1.973   0.925
  350TIP3    H1 1056   2.725   1.888   0.884
  350TIP3    H2 1057   2.816   2.009   0.888
  351TIP3   OH2 1058   2.546   4.306   1.275
  351TIP3    H1 1059   2.522   4.399   1.276
  351TIP3    H2 1060   2.583   4.292   1.187
  352TIP3   OH2 1061   6.124   2.112   4.253
  352TIP3    H1 1062   6.082   2.041   4.205
  352TIP3    H2 1063   6.212   2.117   4.216
  353TIP3   OH2 1064   0.474   3.366   4.871
  353TIP3    H1 1065   0.461   3.290   4.928
  353TIP3    H2 1066   0.435   3.439   4.918
  354TIP3   OH2 1067   0.626   5.834   0.521
  354TIP3    H1 1068   0.714   5.795   0.528
  354TIP3    H2 1069   0.619   5.893   0.596
  355TIP3   OH2 1070   3.429   3.900   1.926
  355TIP3    H1 1071   3.358   3.884   1.989
  355TIP3    H2 1072   3.508   3.868   1.971
  356TIP3   OH2 1073   4.874   0.533   0.670
  356TIP3    H1 1074   4.897   0.456   0.721
  356TIP3    H2 1075   4.796   0.506   0.620
  357TIP3   OH2 1076   2.190   5.828   3.637
  357TIP3    H1 1077   2.265   5.888   3.645
  357TIP3    H2 1078   2.126   5.861   3.700
  358TIP3   OH2 1079   1.733   3.761   4.927
  358TIP3    H1 1080   1.664   3.812   4.883
  358TIP3    H2 1081   1.767   3.704   4.859
  359TIP3   OH2 1082   4.898   4.936   0.526
  359TIP3    H1 1083   4.830   4.988   0.569
  359TIP3    H2 1084   4.900   4.853   0.574
  360TIP3   OH2 1085   5.131   0.402   1.004
  360TIP3    H1 1086   5.043   0.441   1.002
  360TIP3    H2 1087   5.183   0.458   0.947
  361TIP3   OH2 1088   4.631   3.747   2.621
  361TIP3    H1 1089   4.630   3.688   2.696
  361TIP3    H2 1090   4.579   3.823   2.650
  362TIP3   OH2 1091   3.556   5.310   2.490
  362TIP3    H1 1092   3.500   5.326   2.414
  362TIP3    H2 1093   3.625   5.252   2.457
  363TIP3   OH2 1094   3.356   4.947   4.887
  363TIP3    H1 1095   3.324   4.939   4.797
  363TIP3    H2 1096   3.425   4.882   4.894
  364TIP3   OH2 1097   1.032   2.115   0.086
  364TIP3    H1 1098   0.964   2.051   0.107
  364TIP3    H2 1099   1.087   2.071   0.021
  365TIP3   OH2 1100   2.915   3.007   1.423
  365TIP3    H1 1101   2.969   2.994   1.500
  365TIP3    H2 1102   2.902   2.919   1.386
  366TIP3   OH2 1103   2.307   3.058   1.741
  366TIP3    H1 1104   2.287   3.151   1.732
  366TIP3    H2 1105   2.364   3.039   1.666
  367TIP3   OH2 1106   2.191   0.608   0.204
  367TIP3    H1 1107   2.196   0.701   0.183
  367TIP3    H2 1108   2.269   0.590   0.255
  368TIP3   OH2 1109   4.282   2.995   2.556
  368TIP3    H1 1110   4.367   2.989   2.511
  368TIP3    H2 1111   4.222   2.947   2.499
  369TIP3   OH2 1112   0.664   1.602   4.738
  369TIP3    H1 1113   0.619   1.683   4.765
  369TIP3    H2 1114   0.721   1.629   4.666
  370TIP3   OH2 1115   4.143   1.421   1.715
  370TIP3    H1 1116   4.064   1.377   1.683
  370TIP3    H2 1117   4.203   1.419   1.640
  371TIP3   OH2 1118   2.185   2.461   0.740
  371TIP3    H1 1119   2.183   2.391   0.805
  371TIP3    H2 1120   2.200   2.540   0.792
  372TIP3   OH2 1121   1.120   5.106   4.858
  372TIP3    H1 1122   1.111   5.167   4.786
  372TIP3    H2 1123   1.163   5.156   4.927
  373TIP3   OH2 1124   0.929   4.492   2.296
  373TIP3    H1 1125   0.943   4.426   2.363
  373TIP3    H2 1126   1.016   4.507   2.259
  374TIP3   OH2 1127   2.151   3.876   4.920
  374TIP3    H1 1128   2.100   3.826   4.984
  374TIP3    H2 1129   2.168   3.959   4.963
  375TIP3   OH2 1130   2.906   0.445   1.523
  375TIP3    H1 1131   2.899   0.541   1.521
  375TIP3    H2 1132   2.962   0.423   1.450
  376TIP3   OH2 1133   6.273   0.545   2.745
  376TIP3    H1 1134   6.235   0.556   2.658
  376TIP3    H2 1135   6.367   0.540   2.729
  377TIP3   OH2 1136   3.718   3.303   4.973
  377TIP3    H1 1137   3.803   3.297   4.929
  377TIP3    H2 1138   3.654   3.287   4.904
  378TIP3   OH2 1139   4.644   0.154   0.081
  378TIP3    H1 1140   4.732   0.194   0.081
  378TIP3    H2 1141   4.651   0.082   0.018
  379TIP3   OH2 1142   5.043   4.578   0.789
  379TIP3    H1 1143   5.091   4.602   0.868
  379TIP3    H2 1144   5.108   4.581   0.719
  380TIP3   OH2 1145   4.981   3.930   4.227
  380TIP3    H1 1146   5.028   3.853   4.260
  380TIP3    H2 1147   4.901   3.894   4.189
  381TIP3   OH2 1148   4.795   5.752   1.805
  381TIP3    H1 1149   4.853   5.798   1.867
  381TIP3    H2 1150   4.829   5.663   1.802
  382TIP3   OH2 1151   2.156   2.549   3.387
  382TIP3    H1 1152   2.174   2.625   3.331
  382TIP3    H2 1153   2.139   2.478   3.325
  383TIP3   OH2 1154   6.278   5.873   2.393
  383TIP3    H1 1155   6.271   5.853   2.486
  383TIP3    H2 1156   6.208   5.936   2.376
  384TIP3   OH2 1157   3.563   0.718   3.815
  384TIP3    H1 1158   3.574   0.677   3.900
  384TIP3    H2 1159   3.643   0.696   3.767
  385TIP3   OH2 1160   3.647   5.491   3.029
  385TIP3    H1 1161   3.730   5.530   3.055
  385TIP3    H2 1162   3.669   5.403   3.000
  386TIP3   OH2 1163   3.612   1.955   4.864
  386TIP3    H1 1164   3.599   1.863   4.842
  386TIP3    H2 1165   3.655   1.992   4.786
  387TIP3   OH2 1166   1.585   5.578   2.855
  387TIP3    H1 1167   1.601   5.545   2.767
  387TIP3    H2 1168   1.666   5.557   2.903
  388TIP3   OH2 1169   5.657   1.558   4.766
  388TIP3    H1 1170   5.573   1.603   4.779
  388TIP3    H2 1171   5.632   1.471   4.735
  389TIP3   OH2 1172   3.407   5.412   1.918
  389TIP3    H1 1173   3.416   5.442   2.008
  389TIP3    H2 1174   3.440   5.485   1.865
  390TIP3   OH2 1175   0.685   1.959   0.660
  390TIP3    H1 1176   0.643   1.933   0.742
  390TIP3    H2 1177   0.618   1.946   0.593
  391TIP3   OH2 1178   5.725   5.713   1.141
  391TIP3    H1 1179   5.644   5.757   1.167
  391TIP3    H2 1180   5.789   5.784   1.133
  392TIP3   OH2 1181   3.542   4.780   4.444
  392TIP3    H1 1182   3.638   4.780   4.451
  392TIP3    H2 1183   3.520   4.868   4.414
  393TIP3   OH2 1184   3.824   2.742   3.618
  393TIP3    H1 1185   3.875   2.753   3.699
  393TIP3    H2 1186   3.733   2.753   3.645
  394TIP3   OH2 1187   3.683   1.640   2.054
  394TIP3    H1 1188   3.702   1.570   1.992
  394TIP3    H2 1189   3.770   1.669   2.084
  395TIP3   OH2 1190   5.832   2.188   1.460
  395TIP3    H1 1191   5.906   2.154   1.511
  395TIP3    H2 1192   5.872   2.227   1.383
  396TIP3   OH2 1193   5.299   4.168   3.852
  396TIP3    H1 1194   5.391   4.167   3.880
  396TIP3    H2 1195   5.284   4.081   3.816
  397TIP3   OH2 1196   3.588   2.676   1.759
  397TIP3    H1 1197   3.634   2.755   1.787
  397TIP3    H2 1198   3.506   2.709   1.722
  398TIP3   OH2 1199   4.445   4.145   3.370
  398TIP3    H1 1200   4.405   4.110   3.450
  398TIP3    H2 1201   4.396   4.225   3.351
  399TIP3   OH2 1202   3.416   2.155   1.982
  399TIP3    H1 1203   3.434   2.062   1.988
  399TIP3    H2 1204   3.421   2.175   1.889
  400TIP3   OH2 1205   3.778   4.936   1.785
  400TIP3    H1 1206   3.872   4.921   1.774
  400TIP3    H2 1207   3.743   4.851   1.812
  401TIP3   OH2 1208   0.086   4.338   0.079
  401TIP3    H1 1209   0.159   4.337   0.017
  401TIP3    H2 1210   0.008   4.348   0.024
  402TIP3   OH2 1211   0.904   5.774   0.423
  402TIP3    H1 1212   0.953   5.803   0.346
  402TIP3    H2 1213   0.924   5.840   0.489
  403TIP3   OH2 1214   4.372   2.643   2.530
  403TIP3    H1 1215   4.367   2.575   2.463
  403TIP3    H2 1216   4.460   2.633   2.567
  404TIP3   OH2 1217   1.511   0.272   0.452
  404TIP3    H1 1218   1.479   0.249   0.364
  404TIP3    H2 1219   1.527   0.188   0.494
  405TIP3   OH2 1220   1.774   5.083   0.191
  405TIP3    H1 1221   1.808   4.994   0.189
  405TIP3    H2 1222   1.841   5.134   0.237
  406TIP3   OH2 1223   1.377   1.728   0.226
  406TIP3    H1 1224   1.286   1.744   0.203
  406TIP3    H2 1225   1.425   1.802   0.189
  407TIP3   OH2 1226   1.810   2.907   1.036
  407TIP3    H1 1227   1.723   2.873   1.015
  407TIP3    H2 1228   1.817   2.897   1.131
  408TIP3   OH2 1229   6.003   5.763   2.891
  408TIP3    H1 1230   5.968   5.727   2.810
  408TIP3    H2 1231   5.938   5.828   2.919
  409TIP3   OH2 1232   1.032   3.096   1.345
  409TIP3    H1 1233   1.033   3.027   1.278
  409TIP3    H2 1234   1.063   3.174   1.299
  410TIP3   OH2 1235   4.277   2.337   3.677
  410TIP3    H1 1236   4.235   2.408   3.726
  410TIP3    H2 1237   4.210   2.307   3.615
  411TIP3   OH2 1238   3.824   2.417   5.133
  411TIP3    H1 1239   3.764   2.410   5.208
  411TIP3    H2 1240   3.802   2.501   5.093
  412TIP3   OH2 1241   1.900   3.135   3.583
  412TIP3    H1 1242   1.845   3.057   3.572
  412TIP3    H2 1243   1.902   3.175   3.496
  413TIP3   OH2 1244   1.217   4.145   0.709
  413TIP3    H1 1245   1.288   4.209   0.717
  413TIP3    H2 1246   1.162   4.161   0.787
  414TIP3   OH2 1247   3.149   5.987   4.201
  414TIP3    H1 1248   3.180   5.915   4.146
  414TIP3    H2 1249   3.226   6.043   4.211
  415TIP3   OH2 1250   3.976   4.131   0.183
  415TIP3    H1 1251   3.957   4.194   0.252
  415TIP3    H2 1252   3.940   4.048   0.215
  416TIP3   OH2 1253   4.328   5.570   0.156
  416TIP3    H1 1254   4.280   5.504   0.105
  416TIP3    H2 1255   4.359   5.633   0.091
  417TIP3   OH2 1256   4.247   2.265   4.253
  417TIP3    H1 1257   4.221   2.319   4.179
  417TIP3    H2 1258   4.166   2.220   4.280
  418TIP3   OH2 1259   5.067   2.439   0.227
  418TIP3    H1 1260   5.122   2.393   0.290
  418TIP3    H2 1261   5.126   2.460   0.154
  419TIP3   OH2 1262   1.565   2.412   4.374
  419TIP3    H1 1263   1.648   2.455   4.396
  419TIP3    H2 1264   1.578   2.321   4.401
  420TIP3   OH2 1265   6.065   0.057   2.486
  420TIP3    H1 1266   6.111   0.047   2.403
  420TIP3    H2 1267   5.972   0.063   2.461
  421TIP3   OH2 1268   0.530   5.446   0.508
  421TIP3    H1 1269   0.626   5.453   0.505
  421TIP3    H2 1270   0.502   5.520   0.561
  422TIP3   OH2 1271   5.763   4.236   4.164
  422TIP3    H1 1272   5.832   4.277   4.111
  422TIP3    H2 1273   5.810   4.195   4.236
  423TIP3   OH2 1274   1.197   3.180   4.289
  423TIP3    H1 1275   1.273   3.141   4.332
  423TIP3    H2 1276   1.234   3.252   4.237
  424TIP3   OH2 1277   3.175   2.068   3.837
  424TIP3    H1 1278   3.098   2.121   3.816
  424TIP3    H2 1279   3.245   2.106   3.785
  425TIP3   OH2 1280   6.230   1.909   4.446
  425TIP3    H1 1281   6.282   1.982   4.413
  425TIP3    H2 1282   6.139   1.941   4.441
  426TIP3   OH2 1283   2.728   0.639   2.940
  426TIP3    H1 1284   2.635   0.649   2.919
  426TIP3    H2 1285   2.774   0.683   2.869
  427TIP3   OH2 1286   0.187   3.592   1.329
  427TIP3    H1 1287   0.232   3.545   1.399
  427TIP3    H2 1288   0.243   3.579   1.252
  428TIP3   OH2 1289   0.478   3.653   4.993
  428TIP3    H1 1290   0.501   3.714   5.063
  428TIP3    H2 1291   0.542   3.670   4.924
  429TIP3   OH2 1292   2.617   5.355   3.764
  429TIP3    H1 1293   2.541   5.406   3.736
  429TIP3    H2 1294   2.688   5.386   3.709
  430TIP3   OH2 1295   4.934   5.520   1.633
  430TIP3    H1 1296   4.961   5.506   1.724
  430TIP3    H2 1297   5.016   5.531   1.585
  431TIP3   OH2 1298   0.783   5.260   1.604
  431TIP3    H1 1299   0.751   5.350   1.616
  431TIP3    H2 1300   0.720   5.220   1.545
  432TIP3   OH2 1301   0.366   4.010   2.162
  432TIP3    H1 1302   0.441   3.982   2.215
  432TIP3    H2 1303   0.356   4.103   2.182
  433TIP3   OH2 1304   0.165   4.146   0.297
  433TIP3    H1 1305   0.248   4.105   0.270
  433TIP3    H2 1306   0.164   4.230   0.250
  434TIP3   OH2 1307   2.165   5.756   0.144
  434TIP3    H1 1308   2.158   5.815   0.218
  434TIP3    H2 1309   2.163   5.813   0.067
  435TIP3   OH2 1310   2.042   5.171   1.269
  435TIP3    H1 1311   2.038   5.128   1.183
  435TIP3    H2 1312   2.044   5.265   1.248
  436TIP3   OH2 1313   2.460   4.524   3.680
  436TIP3    H1 1314   2.474   4.571   3.598
  436TIP3    H2 1315   2.540   4.472   3.692
  437TIP3   OH2 1316   0.702   3.138   4.864
  437TIP3    H1 1317   0.735   3.219   4.826
  437TIP3    H2 1318   0.655   3.166   4.943
  438TIP3   OH2 1319   0.773   3.817   3.959
  438TIP3    H1 1320   0.732   3.872   3.892
  438TIP3    H2 1321   0.823   3.753   3.909
  439TIP3   OH2 1322   5.713   3.107   0.047
  439TIP3    H1 1323   5.738   3.126   0.138
  439TIP3    H2 1324   5.730   3.189   0.000
  440TIP3   OH2 1325   5.296   3.891   2.125
  440TIP3    H1 1326   5.219   3.906   2.070
  440TIP3    H2 1327   5.368   3.930   2.077
  441TIP3   OH2 1328   1.603   1.301   4.239
  441TIP3    H1 1329   1.518   1.302   4.283
  441TIP3    H2 1330   1.637   1.213   4.252
  442TIP3   OH2 1331   2.025   4.641   3.844
  442TIP3    H1 1332   2.093   4.587   3.803
  442TIP3    H2 1333   2.071   4.718   3.877
  443TIP3   OH2 1334   5.641   2.263   4.202
  443TIP3    H1 1335   5.578   2.334   4.214
  443TIP3    H2 1336   5.691   2.262   4.283
  444TIP3   OH2 1337   6.057   4.362   2.802
  444TIP3    H1 1338   6.036   4.341   2.711
  444TIP3    H2 1339   6.150   4.338   2.811
  445TIP3   OH2 1340   5.129   1.701   1.019
  445TIP3    H1 1341   5.085   1.785   1.027
  445TIP3    H2 1342   5.112   1.657   1.103
  446TIP3   OH2 1343   5.265   0.514   0.800
  446TIP3    H1 1344   5.206   0.453   0.756
  446TIP3    H2 1345   5.350   0.471   0.798
  447TIP3   OH2 1346   2.218   4.392   3.340
  447TIP3    H1 1347   2.210   4.345   3.423
  447TIP3    H2 1348   2.197   4.326   3.273
  448TIP3   OH2 1349   3.884   3.347   0.037
  448TIP3    H1 1350   3.950   3.309  -0.021
  448TIP3    H2 1351   3.827   3.274   0.061
  449TIP3   OH2 1352   4.283   1.849   4.508
  449TIP3    H1 1353   4.310   1.762   4.481
  449TIP3    H2 1354   4.337   1.909   4.456
  450TIP3   OH2 1355   5.029   0.741   3.158
  450TIP3    H1 1356   4.936   0.734   3.134
  450TIP3    H2 1357   5.031   0.715   3.250
  451TIP3   OH2 1358   3.630   5.012   3.462
  451TIP3    H1 1359   3.712   5.016   3.512
  451TIP3    H2 1360   3.587   5.095   3.479
  452TIP3   OH2 1361   0.962   4.508   0.164
  452TIP3    H1 1362   0.888   4.514   0.223
  452TIP3    H2 1363   0.999   4.421   0.180
  453TIP3   OH2 1364   3.259   2.116   2.702
  453TIP3    H1 1365   3.301   2.199   2.721
  453TIP3    H2 1366   3.173   2.140   2.667
  454TIP3   OH2 1367   1.233   3.572   2.001
  454TIP3    H1 1368   1.309   3.610   1.956
  454TIP3    H2 1369   1.268   3.540   2.084
  455TIP3   OH2 1370   5.804   1.712   5.059
  455TIP3    H1 1371   5.843   1.742   4.977
  455TIP3    H2 1372   5.729   1.769   5.072
  456TIP3   OH2 1373   1.079   4.843   2.790
  456TIP3    H1 1374   1.091   4.799   2.705
  456TIP3    H2 1375   1.154   4.901   2.798
  457TIP3   OH2 1376   1.494   1.761   1.240
  457TIP3    H1 1377   1.550   1.783   1.166
  457TIP3    H2 1378   1.523   1.819   1.310
  458TIP3   OH2 1379   3.378   1.219   4.904
  458TIP3    H1 1380   3.406   1.130   4.884
  458TIP3    H2 1381   3.456   1.262   4.938
  459TIP3   OH2 1382   6.161   3.639   4.235
  459TIP3    H1 1383   6.162   3.551   4.275
  459TIP3    H2 1384   6.249   3.648   4.197
  460TIP3   OH2 1385   1.585   3.106   0.895
  460TIP3    H1 1386   1.498   3.130   0.862
  460TIP3    H2 1387   1.600   3.165   0.969
  461TIP3   OH2 1388   1.178   0.330   3.528
  461TIP3    H1 1389   1.121   0.288   3.593
  461TIP3    H2 1390   1.267   0.312   3.558
  462TIP3   OH2 1391   4.779   3.375   3.985
  462TIP3    H1 1392   4.738   3.383   4.071
  462TIP3    H2 1393   4.864   3.418   3.994
  463TIP3   OH2 1394   2.912   0.742   4.526
  463TIP3    H1 1395   2.897   0.677   4.457
  463TIP3    H2 1396   2.830   0.791   4.531
  464TIP3   OH2 1397   3.663   2.367   3.412
  464TIP3    H1 1398   3.719   2.302   3.454
  464TIP3    H2 1399   3.643   2.430   3.481
  465TIP3   OH2 1400   5.370   0.670   0.348
  465TIP3    H1 1401   5.460   0.662   0.316
  465TIP3    H2 1402   5.374   0.742   0.412
  466TIP3   OH2 1403   4.547   1.101   0.095
  466TIP3    H1 1404   4.466   1.108   0.045
  466TIP3    H2 1405   4.594   1.028   0.054
  467TIP3   OH2 1406   4.529   2.940   3.246
  467TIP3    H1 1407   4.517   3.034   3.234
  467TIP3    H2 1408   4.573   2.932   3.331
  468TIP3   OH2 1409   5.665   4.525   2.815
  468TIP3    H1 1410   5.743   4.573   2.844
  468TIP3    H2 1411   5.593   4.563   2.866
  469TIP3   OH2 1412   6.129   4.977   1.408
  469TIP3    H1 1413   6.089   5.007   1.327
  469TIP3    H2 1414   6.170   5.055   1.445
  470TIP3   OH2 1415   3.392   4.174   2.546
  470TIP3    H1 1416   3.436   4.097   2.582
  470TIP3    H2 1417   3.377   4.231   2.622
  471TIP3   OH2 1418   6.077   1.089   1.074
  471TIP3    H1 1419   6.075   1.105   1.168
  471TIP3    H2 1420   6.146   1.147   1.041
  472TIP3   OH2 1421   3.146   0.274   4.952
  472TIP3    H1 1422   3.197   0.215   4.897
  472TIP3    H2 1423   3.057   0.238   4.948
  473TIP3   OH2 1424   1.540   0.604   2.201
  473TIP3    H1 1425   1.609   0.539   2.188
  473TIP3    H2 1426   1.459   0.554   2.195
  474TIP3   OH2 1427   4.345   4.572   3.859
  474TIP3    H1 1428   4.283   4.545   3.926
  474TIP3    H2 1429   4.431   4.547   3.893
  475TIP3   OH2 1430   3.929   5.211   1.412
  475TIP3    H1 1431   3.906   5.217   1.504
  475TIP3    H2 1432   4.025   5.212   1.411
  476TIP3   OH2 1433   2.999   3.299   0.876
  476TIP3    H1 1434   2.950   3.309   0.795
  476TIP3    H2 1435   3.006   3.388   0.911
  477TIP3   OH2 1436   5.863   5.057   1.995
  477TIP3    H1 1437   5.817   5.004   2.061
  477TIP3    H2 1438   5.805   5.131   1.980
  478TIP3   OH2 1439   1.632   5.805   0.061
  478TIP3    H1 1440   1.566   5.741   0.085
  478TIP3    H2 1441   1.694   5.805   0.134
  479TIP3   OH2 1442   0.133   3.971   1.444
  479TIP3    H1 1443   0.126   4.055   1.489
  479TIP3    H2 1444   0.047   3.958   1.405
  480TIP3   OH2 1445   5.994   0.110   3.539
  480TIP3    H1 1446   5.925   0.047   3.562
  480TIP3    H2 1447   6.063   0.057   3.501
  481TIP3   OH2 1448   1.711   1.420   4.566
  481TIP3    H1 1449   1.645   1.467   4.515
  481TIP3    H2 1450   1.690   1.328   4.553
  482TIP3   OH2 1451   5.976   4.799   0.522
  482TIP3    H1 1452   5.930   4.741   0.461
  482TIP3    H2 1453   6.066   4.767   0.521
  483TIP3   OH2 1454   3.961   0.273   0.684
  483TIP3    H1 1455   3.948   0.236   0.772
  483TIP3    H2 1456   4.023   0.213   0.642
  484TIP3   OH2 1457   5.894   1.558   2.540
  484TIP3    H1 1458   5.873   1.643   2.501
  484TIP3    H2 1459   5.959   1.578   2.608
  485TIP3   OH2 1460   0.696   3.497   0.169
  485TIP3    H1 1461   0.708   3.585   0.134
  485TIP3    H2 1462   0.767   3.446   0.131
  486TIP3   OH2 1463   0.797   3.624   1.611
  486TIP3    H1 1464   0.719   3.587   1.570
  486TIP3    H2 1465   0.856   3.644   1.538
  487TIP3   OH2 1466   5.057   5.872   2.390
  487TIP3    H1 1467   4.989   5.819   2.431
  487TIP3    H2 1468   5.009   5.935   2.336
  488TIP3   OH2 1469   1.141   5.151   1.972
  488TIP3    H1 1470   1.113   5.180   1.886
  488TIP3    H2 1471   1.064   5.161   2.027
  489TIP3   OH2 1472   2.642   2.537   3.806
  489TIP3    H1 1473   2.637   2.491   3.722
  489TIP3    H2 1474   2.571   2.499   3.858
  490TIP3   OH2 1475   4.600   1.853   2.651
  490TIP3    H1 1476   4.517   1.817   2.681
  490TIP3    H2 1477   4.650   1.778   2.620
  491TIP3   OH2 1478   3.408   1.432   2.829
  491TIP3    H1 1479   3.401   1.358   2.889
  491TIP3    H2 1480   3.324   1.433   2.782
  492TIP3   OH2 1481   3.471   1.093   2.438
  492TIP3    H1 1482   3.519   1.174   2.455
  492TIP3    H2 1483   3.387   1.121   2.402
  493TIP3   OH2 1484   5.988   1.781   1.304
  493TIP3    H1 1485   5.912   1.724   1.291
  493TIP3    H2 1486   5.971   1.823   1.389
  494TIP3   OH2 1487   1.052   3.890   2.324
  494TIP3    H1 1488   1.087   3.864   2.239
  494TIP3    H2 1489   0.981   3.828   2.341
  495TIP3   OH2 1490   1.809   4.611   1.349
  495TIP3    H1 1491   1.857   4.531   1.372
  495TIP3    H2 1492   1.780   4.646   1.434
  496TIP3   OH2 1493   0.471   2.243   3.243
  496TIP3    H1 1494   0.386   2.277   3.217
  496TIP3    H2 1495   0.530   2.268   3.171
  497TIP3   OH2 1496   5.256   2.158   4.381
  497TIP3    H1 1497   5.302   2.114   4.310
  497TIP3    H2 1498   5.202   2.225   4.336
  498TIP3   OH2 1499   3.321   5.564   3.717
  498TIP3    H1 1500   3.270   5.637   3.752
  498TIP3    H2 1501   3.309   5.570   3.622
  499TIP3   OH2 1502   4.438   0.183   0.283
  499TIP3    H1 1503   4.504   0.158   0.218
  499TIP3    H2 1504   4.412   0.272   0.259
  500TIP3   OH2 1505   5.594   5.298   0.979
  500TIP3    H1 1506   5.573   5.391   0.992
  500TIP3    H2 1507   5.689   5.295   0.980
  501TIP3   OH2 1508   0.280   1.122   1.248
  501TIP3    H1 1509   0.270   1.130   1.342
  501TIP3    H2 1510   0.267   1.028   1.230
  502TIP3   OH2 1511   3.294   2.447   4.245
  502TIP3    H1 1512   3.224   2.510   4.228
  502TIP3    H2 1513   3.251   2.375   4.292
  503TIP3   OH2 1514   5.354   4.002   0.218
  503TIP3    H1 1515   5.387   3.942   0.150
  503TIP3    H2 1516   5.431   4.023   0.271
  504TIP3   OH2 1517   1.061   4.774   1.179
  504TIP3    H1 1518   1.084   4.840   1.245
  504TIP3    H2 1519   0.966   4.764   1.188
  505TIP3   OH2 1520   0.191   2.104   3.498
  505TIP3    H1 1521   0.135   2.055   3.558
  505TIP3    H2 1522   0.186   2.194   3.529
  506TIP3   OH2 1523   2.610   5.629   3.622
  506TIP3    H1 1524   2.648   5.675   3.697
  506TIP3    H2 1525   2.647   5.674   3.546
  507TIP3   OH2 1526   2.872   1.061   3.839
  507TIP3    H1 1527   2.783   1.057   3.873
  507TIP3    H2 1528   2.864   1.108   3.756
  508TIP3   OH2 1529   0.377   5.433   1.303
  508TIP3    H1 1530   0.383   5.389   1.387
  508TIP3    H2 1531   0.284   5.431   1.281
  509TIP3   OH2 1532   0.989   3.401   4.241
  509TIP3    H1 1533   1.003   3.353   4.159
  509TIP3    H2 1534   0.973   3.333   4.306
  510TIP3   OH2 1535   3.958   0.267   0.994
  510TIP3    H1 1536   3.993   0.332   1.056
  510TIP3    H2 1537   3.983   0.183   1.032
  511TIP3   OH2 1538   3.039   5.649   5.160
  511TIP3    H1 1539   3.119   5.661   5.109
  511TIP3    H2 1540   3.069   5.637   5.250
  512TIP3   OH2 1541   1.108   4.712   2.544
  512TIP3    H1 1542   1.017   4.711   2.516
  512TIP3    H2 1543   1.158   4.719   2.462
  513TIP3   OH2 1544   4.036   4.589   3.666
  513TIP3    H1 1545   4.054   4.540   3.746
  513TIP3    H2 1546   4.077   4.674   3.680
  514TIP3   OH2 1547   3.982   4.937   3.219
  514TIP3    H1 1548   4.010   4.917   3.308
  514TIP3    H2 1549   4.064   4.950   3.171
  515TIP3   OH2 1550   5.962   5.465   2.849
  515TIP3    H1 1551   5.951   5.531   2.780
  515TIP3    H2 1552   6.048   5.485   2.888
  516TIP3   OH2 1553   2.234   1.315   2.088
  516TIP3    H1 1554   2.160   1.256   2.077
  516TIP3    H2 1555   2.310   1.267   2.054
  517TIP3   OH2 1556   3.458   0.655   3.019
  517TIP3    H1 1557   3.492   0.713   2.951
  517TIP3    H2 1558   3.373   0.693   3.043
  518TIP3   OH2 1559   1.261   0.044   4.232
  518TIP3    H1 1560   1.232  -0.001   4.153
  518TIP3    H2 1561   1.327   0.106   4.202
  519TIP3   OH2 1562   0.949   0.931   4.127
  519TIP3    H1 1563   0.985   0.984   4.056
  519TIP3    H2 1564   0.854   0.940   4.118
  520TIP3   OH2 1565   5.136   4.139   4.994
  520TIP3    H1 1566   5.217   4.188   4.980
  520TIP3    H2 1567   5.091   4.143   4.910
  521TIP3   OH2 1568   4.936   4.125   5.186
  521TIP3    H1 1569   4.996   4.117   5.112
  521TIP3    H2 1570   4.851   4.142   5.146
  522TIP3   OH2 1571   1.785   4.687   3.658
  522TIP3    H1 1572   1.790   4.601   3.617
  522TIP3    H2 1573   1.831   4.677   3.741
  523TIP3   OH2 1574   3.795   5.632   0.897
  523TIP3    H1 1575   3.871   5.689   0.892
  523TIP3    H2 1576   3.771   5.632   0.990
  524TIP3   OH2 1577   0.346   2.089   1.086
  524TIP3    H1 1578   0.283   2.153   1.120
  524TIP3    H2 1579   0.334   2.012   1.141
  525TIP3   OH2 1580   0.783   0.825   3.881
  525TIP3    H1 1581   0.725   0.838   3.806
  525TIP3    H2 1582   0.868   0.855   3.850
  526TIP3   OH2 1583   2.069   1.377   3.619
  526TIP3    H1 1584   2.124   1.454   3.636
  526TIP3    H2 1585   2.111   1.334   3.544
  527TIP3   OH2 1586   1.700   0.619   4.670
  527TIP3    H1 1587   1.607   0.596   4.682
  527TIP3    H2 1588   1.743   0.536   4.652
  528TIP3   OH2 1589   0.556   5.836   1.714
  528TIP3    H1 1590   0.547   5.742   1.697
  528TIP3    H2 1591   0.637   5.861   1.670
  529TIP3   OH2 1592   3.630   3.909   3.712
  529TIP3    H1 1593   3.546   3.887   3.671
  529TIP3    H2 1594   3.668   3.825   3.735
  530TIP3   OH2 1595   3.158   3.954   4.910
  530TIP3    H1 1596   3.230   4.016   4.894
  530TIP3    H2 1597   3.181   3.913   4.994
  531TIP3   OH2 1598   1.136   2.197   1.623
  531TIP3    H1 1599   1.117   2.156   1.707
  531TIP3    H2 1600   1.142   2.124   1.561
  532TIP3   OH2 1601   2.931   2.164   0.840
  532TIP3    H1 1602   2.961   2.252   0.864
  532TIP3    H2 1603   2.873   2.177   0.766
  533TIP3   OH2 1604   0.113   3.533   1.785
  533TIP3    H1 1605   0.143   3.597   1.721
  533TIP3    H2 1606   0.063   3.584   1.849
  534TIP3   OH2 1607   5.925   1.981   4.795
  534TIP3    H1 1608   5.908   2.060   4.744
  534TIP3    H2 1609   5.869   1.990   4.872
  535TIP3   OH2 1610   0.090   2.566   4.017
  535TIP3    H1 1611   0.113   2.613   3.937
  535TIP3    H2 1612   0.004   2.600   4.041
  536TIP3   OH2 1613   1.805   5.760   0.625
  536TIP3    H1 1614   1.870   5.747   0.556
  536TIP3    H2 1615   1.809   5.681   0.678
  537TIP3   OH2 1616   0.070   3.110   0.763
  537TIP3    H1 1617   0.017   3.030   0.767
  537TIP3    H2 1618   0.040   3.162   0.838
  538TIP3   OH2 1619   4.385   5.631   2.750
  538TIP3    H1 1620   4.476   5.605   2.764
  538TIP3    H2 1621   4.391   5.708   2.693
  539TIP3   OH2 1622   5.506   4.834   2.695
  539TIP3    H1 1623   5.411   4.830   2.708
  539TIP3    H2 1624   5.526   4.757   2.641
  540TIP3   OH2 1625   0.969   0.564   1.250
  540TIP3    H1 1626   1.021   0.527   1.321
  540TIP3    H2 1627   0.942   0.650   1.282
  541TIP3   OH2 1628   3.316   3.099   5.163
  541TIP3    H1 1629   3.378   3.112   5.236
  541TIP3    H2 1630   3.261   3.177   5.165
  542TIP3   OH2 1631   2.656   1.896   1.918
  542TIP3    H1 1632   2.636   1.903   1.824
  542TIP3    H2 1633   2.614   1.972   1.957
  543TIP3   OH2 1634   1.799   3.516   2.590
  543TIP3    H1 1635   1.885   3.474   2.590
  543TIP3    H2 1636   1.770   3.512   2.499
  544TIP3   OH2 1637   0.531   2.945   0.512
  544TIP3    H1 1638   0.519   2.851   0.502
  544TIP3    H2 1639   0.475   2.984   0.445
  545TIP3   OH2 1640   3.719   2.810   2.808
  545TIP3    H1 1641   3.758   2.762   2.882
  545TIP3    H2 1642   3.792   2.858   2.770
  546TIP3   OH2 1643   0.608   5.242   2.996
  546TIP3    H1 1644   0.542   5.228   3.064
  546TIP3    H2 1645   0.560   5.231   2.914
  547TIP3   OH2 1646   2.412   2.445   3.946
  547TIP3    H1 1647   2.352   2.418   3.876
  547TIP3    H2 1648   2.356   2.454   4.023
  548TIP3   OH2 1649   1.646   2.020   4.253
  548TIP3    H1 1650   1.590   1.942   4.257
  548TIP3    H2 1651   1.705   2.010   4.327
  549TIP3   OH2 1652   0.539   4.969   2.786
  549TIP3    H1 1653   0.525   4.904   2.717
  549TIP3    H2 1654   0.621   4.942   2.827
  550TIP3   OH2 1655   1.661   0.393   3.185
  550TIP3    H1 1656   1.687   0.345   3.264
  550TIP3    H2 1657   1.628   0.326   3.126
  551TIP3   OH2 1658   1.986   2.997   2.066
  551TIP3    H1 1659   1.910   3.011   2.010
  551TIP3    H2 1660   2.059   2.988   2.005
  552TIP3   OH2 1661   0.817   2.878   3.418
  552TIP3    H1 1662   0.746   2.824   3.454
  552TIP3    H2 1663   0.808   2.868   3.323
  553TIP3   OH2 1664   1.146   4.325   4.255
  553TIP3    H1 1665   1.229   4.363   4.281
  553TIP3    H2 1666   1.137   4.247   4.310
  554TIP3   OH2 1667   1.483   3.902   2.817
  554TIP3    H1 1668   1.553   3.942   2.765
  554TIP3    H2 1669   1.464   3.966   2.885
  555TIP3   OH2 1670   4.824   1.943   1.005
  555TIP3    H1 1671   4.907   1.973   1.041
  555TIP3    H2 1672   4.848   1.890   0.929
  556TIP3   OH2 1673   0.465   0.804   0.980
  556TIP3    H1 1674   0.552   0.796   0.942
  556TIP3    H2 1675   0.435   0.891   0.953
  557TIP3   OH2 1676   5.344   2.792   2.069
  557TIP3    H1 1677   5.271   2.751   2.115
  557TIP3    H2 1678   5.388   2.719   2.025
  558TIP3   OH2 1679   1.687   0.887   0.527
  558TIP3    H1 1680   1.623   0.944   0.484
  558TIP3    H2 1681   1.749   0.948   0.567
  559TIP3   OH2 1682   0.840   5.133   3.032
  559TIP3    H1 1683   0.744   5.137   3.026
  559TIP3    H2 1684   0.864   5.212   3.080
  560TIP3   OH2 1685   2.422   0.887   1.722
  560TIP3    H1 1686   2.382   0.805   1.752
  560TIP3    H2 1687   2.517   0.870   1.728
  561TIP3   OH2 1688   3.515   3.185   1.835
  561TIP3    H1 1689   3.512   3.275   1.803
  561TIP3    H2 1690   3.432   3.146   1.807
  562TIP3   OH2 1691   3.112   3.162   1.298
  562TIP3    H1 1692   3.092   3.254   1.281
  562TIP3    H2 1693   3.046   3.133   1.361
  563TIP3   OH2 1694   5.465   5.598   2.077
  563TIP3    H1 1695   5.382   5.552   2.067
  563TIP3    H2 1696   5.528   5.530   2.101
  564TIP3   OH2 1697   4.794   3.996   0.029
  564TIP3    H1 1698   4.778   3.916   0.078
  564TIP3    H2 1699   4.707   4.033   0.014
  565TIP3   OH2 1700   4.120   5.997   2.762
  565TIP3    H1 1701   4.072   6.078   2.784
  565TIP3    H2 1702   4.077   5.965   2.683
  566TIP3   OH2 1703   5.091   5.992   5.093
  566TIP3    H1 1704   5.018   6.053   5.082
  566TIP3    H2 1705   5.053   5.915   5.134
  567TIP3   OH2 1706   4.858   0.038   0.768
  567TIP3    H1 1707   4.806   0.042   0.849
  567TIP3    H2 1708   4.896   0.125   0.759
  568TIP3   OH2 1709   5.056   0.283   0.394
  568TIP3    H1 1710   5.145   0.316   0.409
  568TIP3    H2 1711   5.012   0.353   0.345
  569TIP3   OH2 1712   1.880   1.876   1.580
  569TIP3    H1 1713   1.907   1.845   1.666
  569TIP3    H2 1714   1.896   1.802   1.521
  570TIP3   OH2 1715   5.435   3.063   2.013
  570TIP3    H1 1716   5.383   2.983   2.013
  570TIP3    H2 1717   5.379   3.128   1.972
  571TIP3   OH2 1718   1.240   2.130   4.320
  571TIP3    H1 1719   1.219   2.224   4.319
  571TIP3    H2 1720   1.263   2.110   4.230
  572TIP3   OH2 1721   2.942   5.671   0.585
  572TIP3    H1 1722   2.905   5.677   0.497
  572TIP3    H2 1723   2.995   5.750   0.595
  573TIP3   OH2 1724   4.537   0.903   4.877
  573TIP3    H1 1725   4.566   0.813   4.891
  573TIP3    H2 1726   4.529   0.910   4.782
  574TIP3   OH2 1727   2.876   0.925   3.015
  574TIP3    H1 1728   2.781   0.923   3.025
  574TIP3    H2 1729   2.892   0.892   2.926
  575TIP3   OH2 1730   5.656   4.318   1.125
  575TIP3    H1 1731   5.580   4.268   1.094
  575TIP3    H2 1732   5.630   4.350   1.211
  576TIP3   OH2 1733   1.919   0.192   3.980
  576TIP3    H1 1734   1.845   0.225   3.929
  576TIP3    H2 1735   1.976   0.268   3.990
  577TIP3   OH2 1736   0.827   3.502   1.259
  577TIP3    H1 1737   0.747   3.540   1.222
  577TIP3    H2 1738   0.869   3.574   1.306
  578TIP3   OH2 1739   4.529   4.004   3.132
  578TIP3    H1 1740   4.487   3.929   3.172
  578TIP3    H2 1741   4.492   4.080   3.177
  579TIP3   OH2 1742   5.712   4.604   1.820
  579TIP3    H1 1743   5.644   4.544   1.787
  579TIP3    H2 1744   5.686   4.690   1.787
  580TIP3   OH2 1745   4.715   1.834   0.630
  580TIP3    H1 1746   4.630   1.858   0.668
  580TIP3    H2 1747   4.766   1.915   0.635
  581TIP3   OH2 1748   1.121   3.154   3.626
  581TIP3    H1 1749   1.048   3.187   3.574
  581TIP3    H2 1750   1.082   3.129   3.709
  582TIP3   OH2 1751   0.347   0.958   0.325
  582TIP3    H1 1752   0.395   0.877   0.307
  582TIP3    H2 1753   0.400   1.026   0.285
  583TIP3   OH2 1754   6.345   1.278   0.146
  583TIP3    H1 1755   6.353   1.231   0.229
  583TIP3    H2 1756   6.300   1.360   0.169
  584TIP3   OH2 1757   5.263   1.829   3.872
  584TIP3    H1 1758   5.242   1.799   3.784
  584TIP3    H2 1759   5.271   1.924   3.864
  585TIP3   OH2 1760   4.595   4.300   0.171
  585TIP3    H1 1761   4.605   4.263   0.259
  585TIP3    H2 1762   4.683   4.328   0.146
  586TIP3   OH2 1763   5.691   1.255   2.740
  586TIP3    H1 1764   5.657   1.343   2.725
  586TIP3    H2 1765   5.625   1.197   2.702
  587TIP3   OH2 1766   3.013   5.228   0.963
  587TIP3    H1 1767   2.922   5.227   0.991
  587TIP3    H2 1768   3.034   5.137   0.944
  588TIP3   OH2 1769   5.590   0.387   2.907
  588TIP3    H1 1770   5.499   0.374   2.933
  588TIP3    H2 1771   5.585   0.426   2.819
  589TIP3   OH2 1772   6.227   0.493   5.026
  589TIP3    H1 1773   6.213   0.569   4.969
  589TIP3    H2 1774   6.203   0.523   5.113
  590TIP3   OH2 1775   3.685   5.036   4.984
  590TIP3    H1 1776   3.711   5.006   4.897
  590TIP3    H2 1777   3.740   5.113   5.000
  591TIP3   OH2 1778   0.595   5.243   3.390
  591TIP3    H1 1779   0.592   5.326   3.439
  591TIP3    H2 1780   0.661   5.258   3.322
  592TIP3   OH2 1781   3.973   2.270   1.198
  592TIP3    H1 1782   3.901   2.280   1.135
  592TIP3    H2 1783   3.930   2.269   1.283
  593TIP3   OH2 1784   5.964   2.577   4.398
  593TIP3    H1 1785   5.973   2.638   4.471
  593TIP3    H2 1786   6.044   2.525   4.400
  594TIP3   OH2 1787   0.672   3.178   4.097
  594TIP3    H1 1788   0.729   3.221   4.034
  594TIP3    H2 1789   0.585   3.214   4.079
  595TIP3   OH2 1790   1.448   2.979   3.354
  595TIP3    H1 1791   1.450   2.885   3.337
  595TIP3    H2 1792   1.379   2.991   3.420
  596TIP3   OH2 1793   5.921   5.771   1.763
  596TIP3    H1 1794   5.944   5.845   1.819
  596TIP3    H2 1795   5.897   5.701   1.825
  597TIP3   OH2 1796   1.612   4.944   2.172
  597TIP3    H1 1797   1.580   4.959   2.083
  597TIP3    H2 1798   1.699   4.906   2.161
  598TIP3   OH2 1799   5.060   4.448   1.445
  598TIP3    H1 1800   5.040   4.486   1.530
  598TIP3    H2 1801   5.107   4.518   1.399
  599TIP3   OH2 1802   5.999   0.346   3.288
  599TIP3    H1 1803   6.045   0.296   3.221
  599TIP3    H2 1804   6.062   0.352   3.360
  600TIP3   OH2 1805   0.394   3.111   4.976
  600TIP3    H1 1806   0.377   3.076   4.888
  600TIP3    H2 1807   0.450   3.045   5.017
  601TIP3   OH2 1808   4.983   5.009   4.993
  601TIP3    H1 1809   5.038   4.981   4.920
  601TIP3    H2 1810   4.893   4.991   4.965
  602TIP3   OH2 1811   0.956   4.287   1.351
  602TIP3    H1 1812   0.924   4.196   1.350
  602TIP3    H2 1813   0.940   4.316   1.441
  603TIP3   OH2 1814   3.067   2.494   1.491
  603TIP3    H1 1815   3.113   2.460   1.568
  603TIP3    H2 1816   3.117   2.460   1.416
  604TIP3   OH2 1817   4.771   4.826   3.473
  604TIP3    H1 1818   4.791   4.758   3.538
  604TIP3    H2 1819   4.857   4.851   3.438
  605TIP3   OH2 1820  -0.039   0.549   0.879
  605TIP3    H1 1821  -0.007   0.596   0.802
  605TIP3    H2 1822   0.040   0.535   0.932
  606TIP3   OH2 1823   0.045   0.505   2.128
  606TIP3    H1 1824  -0.013   0.578   2.105
  606TIP3    H2 1825   0.116   0.545   2.178
  607TIP3   OH2 1826   1.402   2.791   4.745
  607TIP3    H1 1827   1.438   2.745   4.669
  607TIP3    H2 1828   1.478   2.806   4.802
  608TIP3   OH2 1829   5.654   1.547   2.025
  608TIP3    H1 1830   5.578   1.511   2.071
  608TIP3    H2 1831   5.729   1.496   2.058
  609TIP3   OH2 1832   4.907   5.596   4.226
  609TIP3    H1 1833   4.883   5.507   4.201
  609TIP3    H2 1834   4.833   5.650   4.199
  610TIP3   OH2 1835   6.220   5.324   3.542
  610TIP3    H1 1836   6.294   5.327   3.603
  610TIP3    H2 1837   6.254   5.279   3.465
  611TIP3   OH2 1838   3.243   5.522   2.851
  611TIP3    H1 1839   3.297   5.563   2.784
  611TIP3    H2 1840   3.286   5.438   2.867
  612TIP3   OH2 1841   3.893   0.602   1.645
  612TIP3    H1 1842   3.830   0.600   1.717
  612TIP3    H2 1843   3.845   0.641   1.572
  613TIP3   OH2 1844   6.134   3.663   0.543
  613TIP3    H1 1845   6.068   3.726   0.515
  613TIP3    H2 1846   6.156   3.615   0.463
  614TIP3   OH2 1847   2.277   1.647   4.832
  614TIP3    H1 1848   2.326   1.635   4.913
  614TIP3    H2 1849   2.246   1.560   4.809
  615TIP3   OH2 1850   3.457   1.772   2.672
  615TIP3    H1 1851   3.444   1.855   2.717
  615TIP3    H2 1852   3.406   1.709   2.722
  616TIP3   OH2 1853   1.255   1.743   2.828
  616TIP3    H1 1854   1.194   1.802   2.873
  616TIP3    H2 1855   1.227   1.746   2.736
  617TIP3   OH2 1856   5.043   1.078   2.125
  617TIP3    H1 1857   4.955   1.069   2.159
  617TIP3    H2 1858   5.040   1.155   2.067
  618TIP3   OH2 1859   3.805   4.210   0.739
  618TIP3    H1 1860   3.798   4.302   0.766
  618TIP3    H2 1861   3.885   4.179   0.782
  619TIP3   OH2 1862   2.633   2.995   2.893
  619TIP3    H1 1863   2.565   2.937   2.928
  619TIP3    H2 1864   2.668   2.949   2.818
  620TIP3   OH2 1865   3.755   1.943   3.284
  620TIP3    H1 1866   3.835   1.961   3.235
  620TIP3    H2 1867   3.737   1.851   3.267
  621TIP3   OH2 1868   0.519   0.536   4.236
  621TIP3    H1 1869   0.570   0.555   4.158
  621TIP3    H2 1870   0.579   0.554   4.309
  622TIP3   OH2 1871   1.198   2.768   0.942
  622TIP3    H1 1872   1.158   2.711   0.877
  622TIP3    H2 1873   1.185   2.857   0.908
  623TIP3   OH2 1874   5.564   0.051   4.485
  623TIP3    H1 1875   5.497   0.109   4.448
  623TIP3    H2 1876   5.641   0.107   4.493
  624TIP3   OH2 1877   3.548   4.343   1.795
  624TIP3    H1 1878   3.510   4.302   1.873
  624TIP3    H2 1879   3.478   4.399   1.761
  625TIP3   OH2 1880   0.181   0.770   2.862
  625TIP3    H1 1881   0.166   0.707   2.791
  625TIP3    H2 1882   0.175   0.718   2.942
  626TIP3   OH2 1883   4.144   3.562   5.158
  626TIP3    H1 1884   4.172   3.541   5.246
  626TIP3    H2 1885   4.197   3.638   5.133
  627TIP3   OH2 1886   1.777   3.945   3.985
  627TIP3    H1 1887   1.816   4.033   3.989
  627TIP3    H2 1888   1.690   3.957   4.022
  628TIP3   OH2 1889   0.713   0.161   0.618
  628TIP3    H1 1890   0.766   0.207   0.684
  628TIP3    H2 1891   0.641   0.221   0.599
  629TIP3   OH2 1892   0.349   1.654   2.872
  629TIP3    H1 1893   0.264   1.610   2.879
  629TIP3    H2 1894   0.330   1.733   2.820
  630TIP3   OH2 1895   2.661   5.361   1.409
  630TIP3    H1 1896   2.716   5.320   1.343
  630TIP3    H2 1897   2.606   5.422   1.359
  631TIP3   OH2 1898   5.482   1.692   0.101
  631TIP3    H1 1899   5.510   1.748   0.028
  631TIP3    H2 1900   5.441   1.617   0.059
  632TIP3   OH2 1901   4.158   5.344   3.238
  632TIP3    H1 1902   4.084   5.374   3.291
  632TIP3    H2 1903   4.233   5.395   3.270
  633TIP3   OH2 1904   2.266   1.994   2.226
  633TIP3    H1 1905   2.276   2.004   2.132
  633TIP3    H2 1906   2.171   1.990   2.240
  634TIP3   OH2 1907   4.141   5.670   4.642
  634TIP3    H1 1908   4.095   5.588   4.622
  634TIP3    H2 1909   4.229   5.658   4.607
  635TIP3   OH2 1910   4.371   3.507   0.820
  635TIP3    H1 1911   4.448   3.533   0.770
  635TIP3    H2 1912   4.404   3.446   0.886
  636TIP3   OH2 1913   0.516   1.519   0.597
  636TIP3    H1 1914   0.474   1.434   0.608
  636TIP3    H2 1915   0.445   1.583   0.607
  637TIP3   OH2 1916   3.211   3.166   2.938
  637TIP3    H1 1917   3.288   3.144   2.886
  637TIP3    H2 1918   3.221   3.260   2.956
  638TIP3   OH2 1919   5.002   1.451   5.117
  638TIP3    H1 1920   4.928   1.457   5.056
  638TIP3    H2 1921   4.963   1.419   5.198
  639TIP3   OH2 1922   3.926   2.107   4.069
  639TIP3    H1 1923   3.961   2.192   4.094
  639TIP3    H2 1924   3.923   2.057   4.150
  640TIP3   OH2 1925   3.385   5.489   0.153
  640TIP3    H1 1926   3.460   5.539   0.183
  640TIP3    H2 1927   3.384   5.502   0.058
  641TIP3   OH2 1928   5.990   3.710   3.109
  641TIP3    H1 1929   5.942   3.646   3.163
  641TIP3    H2 1930   6.002   3.666   3.025
  642TIP3   OH2 1931   3.392   3.808   3.544
  642TIP3    H1 1932   3.421   3.762   3.465
  642TIP3    H2 1933   3.314   3.855   3.516
  643TIP3   OH2 1934   1.084   3.791   2.090
  643TIP3    H1 1935   1.148   3.722   2.079
  643TIP3    H2 1936   1.131   3.872   2.070
  644TIP3   OH2 1937   2.321   5.934   2.649
  644TIP3    H1 1938   2.293   6.004   2.590
  644TIP3    H2 1939   2.415   5.950   2.662
  645TIP3   OH2 1940   4.942   1.358   1.385
  645TIP3    H1 1941   4.897   1.388   1.464
  645TIP3    H2 1942   4.873   1.320   1.331
  646TIP3   OH2 1943   0.732   4.076   1.708
  646TIP3    H1 1944   0.723   3.990   1.750
  646TIP3    H2 1945   0.789   4.060   1.633
  647TIP3   OH2 1946   3.910   3.361   5.179
  647TIP3    H1 1947   3.844   3.341   5.112
  647TIP3    H2 1948   3.893   3.453   5.202
  648TIP3   OH2 1949   0.565   2.737   4.960
  648TIP3    H1 1950   0.553   2.644   4.939
  648TIP3    H2 1951   0.573   2.780   4.875
  649TIP3   OH2 1952   1.007   0.648   3.641
  649TIP3    H1 1953   1.053   0.725   3.672
  649TIP3    H2 1954   1.049   0.626   3.558
  650TIP3   OH2 1955   0.092   3.078   1.920
  650TIP3    H1 1956   0.129   3.166   1.925
  650TIP3    H2 1957   0.164   3.022   1.892
  651TIP3   OH2 1958   3.050   1.104   0.298
  651TIP3    H1 1959   2.994   1.052   0.240
  651TIP3    H2 1960   3.130   1.052   0.308
  652TIP3   OH2 1961   0.335   1.727   3.383
  652TIP3    H1 1962   0.246   1.711   3.414
  652TIP3    H2 1963   0.339   1.683   3.299
  653TIP3   OH2 1964   5.121   2.341   5.075
  653TIP3    H1 1965   5.031   2.310   5.076
  653TIP3    H2 1966   5.163   2.291   5.005
  654TIP3   OH2 1967   4.391   5.915   4.901
  654TIP3    H1 1968   4.371   5.974   4.829
  654TIP3    H2 1969   4.469   5.867   4.872
  655TIP3   OH2 1970   4.171   0.855   1.488
  655TIP3    H1 1971   4.154   0.797   1.414
  655TIP3    H2 1972   4.087   0.897   1.505
  656TIP3   OH2 1973   4.625   0.257   0.484
  656TIP3    H1 1974   4.599   0.260   0.576
  656TIP3    H2 1975   4.553   0.210   0.440
  657TIP3   OH2 1976   4.741   0.043   1.334
  657TIP3    H1 1977   4.762   0.024   1.425
  657TIP3    H2 1978   4.814   0.095   1.302
  658TIP3   OH2 1979   3.597   3.088   2.824
  658TIP3    H1 1980   3.601   2.993   2.827
  658TIP3    H2 1981   3.641   3.111   2.742
  659TIP3   OH2 1982   0.210   0.590   1.039
  659TIP3    H1 1983   0.293   0.581   1.087
  659TIP3    H2 1984   0.237   0.604   0.948
  660TIP3   OH2 1985   3.567   2.933   4.739
  660TIP3    H1 1986   3.481   2.894   4.754
  660TIP3    H2 1987   3.628   2.871   4.778
  661TIP3   OH2 1988   0.891   5.298   3.307
  661TIP3    H1 1989   0.889   5.315   3.401
  661TIP3    H2 1990   0.961   5.234   3.295
  662TIP3   OH2 1991   3.992   0.221   3.803
  662TIP3    H1 1992   4.054   0.224   3.877
  662TIP3    H2 1993   3.964   0.312   3.792
  663TIP3   OH2 1994   2.086   4.515   3.550
  663TIP3    H1 1995   2.012   4.454   3.559
  663TIP3    H2 1996   2.135   4.505   3.631
  664TIP3   OH2 1997   1.835   5.871   3.994
  664TIP3    H1 1998   1.764   5.816   3.960
  664TIP3    H2 1999   1.831   5.857   4.089
  665TIP3   OH2 2000   4.422   0.991   2.275
  665TIP3    H1 2001   4.341   1.040   2.263
  665TIP3    H2 2002   4.485   1.034   2.216
  666TIP3   OH2 2003   5.218   4.364   2.160
  666TIP3    H1 2004   5.274   4.441   2.148
  666TIP3    H2 2005   5.244   4.304   2.089
  667TIP3   OH2 2006   2.000   2.132   1.551
  667TIP3    H1 2007   1.970   2.046   1.578
  667TIP3    H2 2008   2.093   2.120   1.532
  668TIP3   OH2 2009   2.115   4.160   3.159
  668TIP3    H1 2010   2.056   4.089   3.184
  668TIP3    H2 2011   2.057   4.232   3.136
  669TIP3   OH2 2012   1.823   2.189   1.935
  669TIP3    H1 2013   1.824   2.244   2.013
  669TIP3    H2 2014   1.915   2.177   1.912
  670TIP3   OH2 2015   0.036   0.895   4.724
  670TIP3    H1 2016   0.072   0.968   4.672
  670TIP3    H2 2017   0.086   0.897   4.805
  671TIP3   OH2 2018   2.971   5.533   0.127
  671TIP3    H1 2019   2.922   5.456   0.098
  671TIP3    H2 2020   3.045   5.497   0.175
  672TIP3   OH2 2021   0.800   5.022   4.285
  672TIP3    H1 2022   0.857   5.072   4.343
  672TIP3    H2 2023   0.730   4.991   4.343
  673TIP3   OH2 2024   4.515   5.100   3.880
  673TIP3    H1 2025   4.487   5.060   3.962
  673TIP3    H2 2026   4.436   5.103   3.827
  674TIP3   OH2 2027   5.266   2.444   3.333
  674TIP3    H1 2028   5.199   2.482   3.276
  674TIP3    H2 2029   5.334   2.511   3.337
  675TIP3   OH2 2030   5.584   2.455   0.694
  675TIP3    H1 2031   5.533   2.423   0.620
  675TIP3    H2 2032   5.674   2.457   0.662
  676TIP3   OH2 2033   2.440   4.988   2.131
  676TIP3    H1 2034   2.370   4.963   2.191
  676TIP3    H2 2035   2.424   5.081   2.113
  677TIP3   OH2 2036   1.707  -0.022   2.016
  677TIP3    H1 2037   1.775   0.046   2.011
  677TIP3    H2 2038   1.625   0.027   2.023
  678TIP3   OH2 2039   6.108   0.870   4.812
  678TIP3    H1 2040   6.195   0.859   4.774
  678TIP3    H2 2041   6.064   0.787   4.794
  679TIP3   OH2 2042   5.784   2.922   2.546
  679TIP3    H1 2043   5.858   2.890   2.598
  679TIP3    H2 2044   5.725   2.848   2.540
  680TIP3   OH2 2045   4.764   1.274   1.048
  680TIP3    H1 2046   4.820   1.339   1.006
  680TIP3    H2 2047   4.748   1.309   1.135
  681TIP3   OH2 2048   6.165   3.228   0.106
  681TIP3    H1 2049   6.165   3.224   0.010
  681TIP3    H2 2050   6.245   3.181   0.131
  682TIP3   OH2 2051   2.595   0.499   0.531
  682TIP3    H1 2052   2.612   0.405   0.536
  682TIP3    H2 2053   2.572   0.524   0.621
  683TIP3   OH2 2054   5.908   3.575   2.538
  683TIP3    H1 2055   5.853   3.534   2.472
  683TIP3    H2 2056   5.971   3.627   2.488
  684TIP3   OH2 2057   3.096   4.822   3.299
  684TIP3    H1 2058   3.091   4.891   3.233
  684TIP3    H2 2059   3.186   4.791   3.294
  685TIP3   OH2 2060   4.361   2.992   3.931
  685TIP3    H1 2061   4.337   3.036   4.013
  685TIP3    H2 2062   4.452   2.965   3.944
  686TIP3   OH2 2063   0.684   3.940   2.992
  686TIP3    H1 2064   0.716   3.851   2.974
  686TIP3    H2 2065   0.589   3.931   2.993
  687TIP3   OH2 2066   2.672   1.983   1.299
  687TIP3    H1 2067   2.723   1.903   1.298
  687TIP3    H2 2068   2.601   1.965   1.361
  688TIP3   OH2 2069   2.122   5.402   0.323
  688TIP3    H1 2070   2.113   5.331   0.259
  688TIP3    H2 2071   2.206   5.443   0.301
  689TIP3   OH2 2072   6.229   1.678   1.377
  689TIP3    H1 2073   6.216   1.587   1.352
  689TIP3    H2 2074   6.157   1.725   1.334
  690TIP3   OH2 2075   5.993   1.736   0.748
  690TIP3    H1 2076   5.908   1.700   0.774
  690TIP3    H2 2077   5.997   1.821   0.792
  691TIP3   OH2 2078   3.979   2.702   4.403
  691TIP3    H1 2079   4.050   2.665   4.457
  691TIP3    H2 2080   3.913   2.633   4.400
  692TIP3   OH2 2081   3.039   0.627   3.297
  692TIP3    H1 2082   3.078   0.558   3.351
  692TIP3    H2 2083   3.087   0.706   3.320
  693TIP3   OH2 2084   2.105   4.826   0.582
  693TIP3    H1 2085   2.156   4.758   0.626
  693TIP3    H2 2086   2.021   4.826   0.626
  694TIP3   OH2 2087   3.320   3.249   4.652
  694TIP3    H1 2088   3.353   3.239   4.563
  694TIP3    H2 2089   3.237   3.203   4.653
  695TIP3   OH2 2090   2.765   1.227   2.283
  695TIP3    H1 2091   2.754   1.299   2.222
  695TIP3    H2 2092   2.839   1.177   2.248
  696TIP3   OH2 2093   4.874   4.761   1.273
  696TIP3    H1 2094   4.812   4.722   1.335
  696TIP3    H2 2095   4.924   4.823   1.326
  697TIP3   OH2 2096   2.354   4.184   3.911
  697TIP3    H1 2097   2.277   4.199   3.967
  697TIP3    H2 2098   2.428   4.214   3.963
  698TIP3   OH2 2099   2.194   0.571   2.573
  698TIP3    H1 2100   2.261   0.515   2.534
  698TIP3    H2 2101   2.204   0.559   2.667
  699TIP3   OH2 2102   6.034   4.034   2.864
  699TIP3    H1 2103   6.037   4.105   2.929
  699TIP3    H2 2104   6.072   3.959   2.909
  700TIP3   OH2 2105   1.368   0.378   1.160
  700TIP3    H1 2106   1.279   0.359   1.128
  700TIP3    H2 2107   1.402   0.293   1.186
  701TIP3   OH2 2108   2.504   2.868   0.691
  701TIP3    H1 2109   2.414   2.890   0.717
  701TIP3    H2 2110   2.554   2.872   0.772
  702TIP3   OH2 2111   4.390   5.672   3.556
  702TIP3    H1 2112   4.484   5.666   3.572
  702TIP3    H2 2113   4.377   5.760   3.521
  703TIP3   OH2 2114   3.315   0.829   2.497
  703TIP3    H1 2115   3.271   0.907   2.464
  703TIP3    H2 2116   3.255   0.793   2.562
  704TIP3   OH2 2117   3.954   1.340   0.988
  704TIP3    H1 2118   3.900   1.267   0.960
  704TIP3    H2 2119   3.992   1.375   0.908
  705TIP3   OH2 2120   1.750   0.105   0.055
  705TIP3    H1 2121   1.767   0.199   0.052
  705TIP3    H2 2122   1.783   0.076   0.140
  706TIP3   OH2 2123   3.008   2.558   2.123
  706TIP3    H1 2124   2.945   2.500   2.081
  706TIP3    H2 2125   3.093   2.518   2.106
  707TIP3   OH2 2126   4.525   1.712   0.958
  707TIP3    H1 2127   4.548   1.622   0.934
  707TIP3    H2 2128   4.513   1.757   0.875
  708TIP3   OH2 2129   4.551   4.142   0.466
  708TIP3    H1 2130   4.546   4.077   0.397
  708TIP3    H2 2131   4.642   4.140   0.495
  709TIP3   OH2 2132   5.387   0.192   3.258
  709TIP3    H1 2133   5.477   0.174   3.284
  709TIP3    H2 2134   5.394   0.255   3.186
  710TIP3   OH2 2135   5.839   2.692   0.664
  710TIP3    H1 2136   5.844   2.776   0.618
  710TIP3    H2 2137   5.791   2.712   0.745
  711TIP3   OH2 2138   4.216   5.952   0.111
  711TIP3    H1 2139   4.207   6.013   0.038
  711TIP3    H2 2140   4.217   6.008   0.189
  712TIP3   OH2 2141   2.933  -0.021   1.724
  712TIP3    H1 2142   3.006  -0.074   1.692
  712TIP3    H2 2143   2.940   0.062   1.675
  713TIP3   OH2 2144   5.061   3.351   0.114
  713TIP3    H1 2145   4.985   3.391   0.073
  713TIP3    H2 2146   5.062   3.261   0.080
  714TIP3   OH2 2147   1.554   3.669   4.184
  714TIP3    H1 2148   1.555   3.732   4.256
  714TIP3    H2 2149   1.477   3.615   4.201
  715TIP3   OH2 2150   1.441   0.132   3.424
  715TIP3    H1 2151   1.389   0.075   3.367
  715TIP3    H2 2152   1.513   0.162   3.369
  716TIP3   OH2 2153   2.430   5.896   4.649
  716TIP3    H1 2154   2.341   5.862   4.662
  716TIP3    H2 2155   2.487   5.829   4.684
  717TIP3   OH2 2156   4.523   5.501   1.775
  717TIP3    H1 2157   4.451   5.554   1.811
  717TIP3    H2 2158   4.479   5.433   1.723
  718TIP3   OH2 2159   3.588   1.077   5.171
  718TIP3    H1 2160   3.648   1.150   5.156
  718TIP3    H2 2161   3.512   1.117   5.214
  719TIP3   OH2 2162   6.111   2.318   3.692
  719TIP3    H1 2163   6.150   2.403   3.712
  719TIP3    H2 2164   6.066   2.332   3.608
  720TIP3   OH2 2165   5.700   4.021   4.391
  720TIP3    H1 2166   5.670   4.096   4.442
  720TIP3    H2 2167   5.739   3.962   4.456
  721TIP3   OH2 2168   0.816   5.036   3.988
  721TIP3    H1 2169   0.748   4.975   3.960
  721TIP3    H2 2170   0.795   5.055   4.079
  722TIP3   OH2 2171   3.246   4.613   2.262
  722TIP3    H1 2172   3.252   4.598   2.168
  722TIP3    H2 2173   3.243   4.708   2.271
  723TIP3   OH2 2174   3.502   2.891   1.212
  723TIP3    H1 2175   3.464   2.979   1.219
  723TIP3    H2 2176   3.426   2.833   1.216
  724TIP3   OH2 2177   4.748   2.503   5.030
  724TIP3    H1 2178   4.723   2.502   4.938
  724TIP3    H2 2179   4.793   2.586   5.043
  725TIP3   OH2 2180   4.445   4.478   4.702
  725TIP3    H1 2181   4.351   4.468   4.711
  725TIP3    H2 2182   4.468   4.550   4.760
  726TIP3   OH2 2183   4.493   0.807   0.879
  726TIP3    H1 2184   4.487   0.843   0.791
  726TIP3    H2 2185   4.508   0.883   0.935
  727TIP3   OH2 2186   2.588   3.225   3.518
  727TIP3    H1 2187   2.643   3.198   3.591
  727TIP3    H2 2188   2.578   3.319   3.528
  728TIP3   OH2 2189   5.546   4.608   2.543
  728TIP3    H1 2190   5.587   4.523   2.560
  728TIP3    H2 2191   5.452   4.592   2.552
  729TIP3   OH2 2192   4.908   3.909   4.973
  729TIP3    H1 2193   4.874   3.876   4.889
  729TIP3    H2 2194   4.848   3.875   5.038
  730TIP3   OH2 2195   1.181   5.936   5.067
  730TIP3    H1 2196   1.183   5.987   4.987
  730TIP3    H2 2197   1.180   6.000   5.138
  731TIP3   OH2 2198   5.516   0.744   3.586
  731TIP3    H1 2199   5.492   0.831   3.554
  731TIP3    H2 2200   5.505   0.748   3.681
  732TIP3   OH2 2201   2.769   3.660   0.866
  732TIP3    H1 2202   2.703   3.710   0.914
  732TIP3    H2 2203   2.833   3.635   0.933
  733TIP3   OH2 2204   5.872   3.160   3.880
  733TIP3    H1 2205   5.951   3.213   3.870
  733TIP3    H2 2206   5.893   3.077   3.837
  734TIP3   OH2 2207   0.178   0.531   3.443
  734TIP3    H1 2208   0.144   0.444   3.421
  734TIP3    H2 2209   0.249   0.514   3.506
  735TIP3   OH2 2210   6.087   1.548   1.922
  735TIP3    H1 2211   6.162   1.497   1.892
  735TIP3    H2 2212   6.099   1.634   1.881
  736TIP3   OH2 2213   1.733   5.272   4.099
  736TIP3    H1 2214   1.826   5.262   4.119
  736TIP3    H2 2215   1.725   5.362   4.066
  737TIP3   OH2 2216   4.325   0.829   4.028
  737TIP3    H1 2217   4.400   0.787   3.984
  737TIP3    H2 2218   4.363   0.904   4.072
  738TIP3   OH2 2219   5.389   1.207   3.628
  738TIP3    H1 2220   5.394   1.114   3.606
  738TIP3    H2 2221   5.309   1.215   3.680
  739TIP3   OH2 2222   2.607   5.328   3.367
  739TIP3    H1 2223   2.686   5.319   3.313
  739TIP3    H2 2224   2.615   5.258   3.432
  740TIP3   OH2 2225   2.651   2.955   3.800
  740TIP3    H1 2226   2.706   2.876   3.804
  740TIP3    H2 2227   2.563   2.922   3.782
  741TIP3   OH2 2228   3.133   2.965   0.721
  741TIP3    H1 2229   3.212   3.019   0.723
  741TIP3    H2 2230   3.088   2.985   0.803
  742TIP3   OH2 2231   3.087   4.534   3.173
  742TIP3    H1 2232   3.006   4.582   3.191
  742TIP3    H2 2233   3.151   4.572   3.233
  743TIP3   OH2 2234   0.869   1.506   1.391
  743TIP3    H1 2235   0.787   1.457   1.388
  743TIP3    H2 2236   0.846   1.591   1.427
  744TIP3   OH2 2237   0.713   2.804   4.710
  744TIP3    H1 2238   0.769   2.816   4.787
  744TIP3    H2 2239   0.761   2.847   4.639
  745TIP3   OH2 2240   6.104   2.436   4.965
  745TIP3    H1 2241   6.143   2.523   4.969
  745TIP3    H2 2242   6.028   2.441   5.023
  746TIP3   OH2 2243   2.725   2.664   4.857
  746TIP3    H1 2244   2.652   2.715   4.891
  746TIP3    H2 2245   2.760   2.617   4.933
  747TIP3   OH2 2246   1.890   5.762   1.192
  747TIP3    H1 2247   1.881   5.692   1.257
  747TIP3    H2 2248   1.866   5.719   1.109
  748TIP3   OH2 2249   1.388   0.304   0.841
  748TIP3    H1 2250   1.370   0.397   0.848
  748TIP3    H2 2251   1.480   0.295   0.865
  749TIP3   OH2 2252   2.648   0.366   1.599
  749TIP3    H1 2253   2.666   0.293   1.658
  749TIP3    H2 2254   2.732   0.384   1.558
  750TIP3   OH2 2255   0.095   0.399   1.600
  750TIP3    H1 2256   0.009   0.358   1.597
  750TIP3    H2 2257   0.089   0.462   1.671
  751TIP3   OH2 2258   3.070   0.485   2.030
  751TIP3    H1 2259   3.062   0.393   2.007
  751TIP3    H2 2260   2.980   0.518   2.031
  752TIP3   OH2 2261   4.249   2.757   3.677
  752TIP3    H1 2262   4.211   2.711   3.603
  752TIP3    H2 2263   4.311   2.818   3.638
  753TIP3   OH2 2264   3.152   1.797   3.790
  753TIP3    H1 2265   3.164   1.891   3.782
  753TIP3    H2 2266   3.108   1.784   3.874
  754TIP3   OH2 2267   1.216   2.125   2.927
  754TIP3    H1 2268   1.298   2.104   2.971
  754TIP3    H2 2269   1.159   2.051   2.945
  755TIP3   OH2 2270   4.112   0.727   1.253
  755TIP3    H1 2271   4.131   0.759   1.165
  755TIP3    H2 2272   4.026   0.686   1.246
  756TIP3   OH2 2273   1.241   3.925   1.761
  756TIP3    H1 2274   1.289   3.903   1.681
  756TIP3    H2 2275   1.195   4.007   1.739
  757TIP3   OH2 2276   2.283   1.597   4.144
  757TIP3    H1 2277   2.201   1.570   4.104
  757TIP3    H2 2278   2.312   1.672   4.092
  758TIP3   OH2 2279   5.526   0.122   2.304
  758TIP3    H1 2280   5.433   0.102   2.314
  758TIP3    H2 2281   5.536   0.211   2.338
  759TIP3   OH2 2282   5.992   0.429   1.318
  759TIP3    H1 2283   5.952   0.360   1.371
  759TIP3    H2 2284   6.017   0.496   1.381
  760TIP3   OH2 2285   2.497   1.118   2.739
  760TIP3    H1 2286   2.541   1.130   2.655
  760TIP3    H2 2287   2.527   1.033   2.771
  761TIP3   OH2 2288   1.113   1.998   1.441
  761TIP3    H1 2289   1.063   2.068   1.399
  761TIP3    H2 2290   1.199   2.002   1.400
  762TIP3   OH2 2291   3.842   2.644   1.107
  762TIP3    H1 2292   3.932   2.676   1.099
  762TIP3    H2 2293   3.811   2.678   1.191
  763TIP3   OH2 2294   4.575   4.421   5.072
  763TIP3    H1 2295   4.497   4.370   5.052
  763TIP3    H2 2296   4.648   4.364   5.046
  764TIP3   OH2 2297   5.672   5.717   2.544
  764TIP3    H1 2298   5.599   5.698   2.485
  764TIP3    H2 2299   5.631   5.737   2.628
  765TIP3   OH2 2300   1.190   0.912   4.417
  765TIP3    H1 2301   1.190   0.891   4.323
  765TIP3    H2 2302   1.104   0.953   4.432
  766TIP3   OH2 2303   6.214   5.862   2.688
  766TIP3    H1 2304   6.163   5.818   2.756
  766TIP3    H2 2305   6.293   5.893   2.733
  767TIP3   OH2 2306   5.615   0.244   1.943
  767TIP3    H1 2307   5.671   0.251   2.021
  767TIP3    H2 2308   5.676   0.240   1.870
  768TIP3   OH2 2309   5.881   0.523   3.966
  768TIP3    H1 2310   5.941   0.570   3.909
  768TIP3    H2 2311   5.795   0.534   3.926
  769TIP3   OH2 2312   3.819   3.701   3.731
  769TIP3    H1 2313   3.767   3.621   3.724
  769TIP3    H2 2314   3.860   3.695   3.818
  770TIP3   OH2 2315   1.753   5.919   1.545
  770TIP3    H1 2316   1.717   5.856   1.482
  770TIP3    H2 2317   1.806   5.979   1.492
  771TIP3   OH2 2318   5.236   5.462   3.828
  771TIP3    H1 2319   5.321   5.486   3.865
  771TIP3    H2 2320   5.253   5.381   3.779
  772TIP3   OH2 2321   2.606   1.544   2.384
  772TIP3    H1 2322   2.661   1.621   2.374
  772TIP3    H2 2323   2.598   1.509   2.295
  773TIP3   OH2 2324   5.993   2.957   0.835
  773TIP3    H1 2325   5.999   3.053   0.836
  773TIP3    H2 2326   5.943   2.937   0.757
  774TIP3   OH2 2327   5.039   3.874   0.123
  774TIP3    H1 2328   4.968   3.921   0.080
  774TIP3    H2 2329   5.097   3.848   0.052
  775TIP3   OH2 2330   4.387   4.711   1.893
  775TIP3    H1 2331   4.302   4.747   1.869
  775TIP3    H2 2332   4.431   4.782   1.940
  776TIP3   OH2 2333   0.129   5.166   1.470
  776TIP3    H1 2334   0.219   5.134   1.478
  776TIP3    H2 2335   0.133   5.231   1.400
  777TIP3   OH2 2336   0.593   0.999   1.243
  777TIP3    H1 2337   0.610   0.953   1.325
  777TIP3    H2 2338   0.500   1.018   1.245
  778TIP3   OH2 2339   5.754   2.998   4.060
  778TIP3    H1 2340   5.676   3.038   4.099
  778TIP3    H2 2341   5.783   3.061   3.994
  779TIP3   OH2 2342   5.394   4.578   2.082
  779TIP3    H1 2343   5.481   4.588   2.118
  779TIP3    H2 2344   5.408   4.570   1.987
  780TIP3   OH2 2345   4.632   3.443   4.777
  780TIP3    H1 2346   4.640   3.374   4.711
  780TIP3    H2 2347   4.663   3.522   4.733
  781TIP3   OH2 2348   1.216  -0.023   2.122
  781TIP3    H1 2349   1.148   0.013   2.180
  781TIP3    H2 2350   1.168  -0.051   2.044
  782TIP3   OH2 2351   5.162   2.666   0.042
  782TIP3    H1 2352   5.247   2.708   0.027
  782TIP3    H2 2353   5.120   2.720   0.109
  783TIP3   OH2 2354   2.347   1.842   4.082
  783TIP3    H1 2355   2.403   1.839   4.004
  783TIP3    H2 2356   2.405   1.870   4.153
  784TIP3   OH2 2357   3.615   3.446   1.193
  784TIP3    H1 2358   3.684   3.409   1.249
  784TIP3    H2 2359   3.658   3.459   1.108
  785TIP3   OH2 2360   4.034   5.737   4.910
  785TIP3    H1 2361   4.045   5.827   4.942
  785TIP3    H2 2362   4.102   5.728   4.842
  786TIP3   OH2 2363   5.965   3.875   2.398
  786TIP3    H1 2364   5.882   3.913   2.430
  786TIP3    H2 2365   5.946   3.850   2.308
  787TIP3   OH2 2366   2.413   0.724   3.366
  787TIP3    H1 2367   2.422   0.772   3.283
  787TIP3    H2 2368   2.499   0.730   3.406
  788TIP3   OH2 2369   0.948   3.048   0.546
  788TIP3    H1 2370   0.873   3.053   0.605
  788TIP3    H2 2371   0.955   2.955   0.524
  789TIP3   OH2 2372   1.792   5.707   4.797
  789TIP3    H1 2373   1.765   5.784   4.747
  789TIP3    H2 2374   1.716   5.686   4.852
  790TIP3   OH2 2375   0.051   3.614   3.889
  790TIP3    H1 2376   0.119   3.643   3.828
  790TIP3    H2 2377   0.083   3.642   3.975
  791TIP3   OH2 2378   0.741   1.126   4.795
  791TIP3    H1 2379   0.821   1.174   4.774
  791TIP3    H2 2380   0.670   1.185   4.768
  792TIP3   OH2 2381   6.373   4.306   2.355
  792TIP3    H1 2382   6.282   4.296   2.383
  792TIP3    H2 2383   6.369   4.364   2.279
  793TIP3   OH2 2384   1.389   2.305   1.563
  793TIP3    H1 2385   1.305   2.264   1.583
  793TIP3    H2 2386   1.410   2.275   1.475
  794TIP3   OH2 2387   3.355   0.986   0.552
  794TIP3    H1 2388   3.309   1.055   0.600
  794TIP3    H2 2389   3.317   0.905   0.584
  795TIP3   OH2 2390   5.136   5.366   2.524
  795TIP3    H1 2391   5.133   5.450   2.478
  795TIP3    H2 2392   5.084   5.307   2.470
  796TIP3   OH2 2393   2.410   0.770   2.589
  796TIP3    H1 2394   2.399   0.812   2.504
  796TIP3    H2 2395   2.328   0.723   2.603
  797TIP3   OH2 2396   4.607   2.286   2.204
  797TIP3    H1 2397   4.675   2.315   2.265
  797TIP3    H2 2398   4.628   2.330   2.122
  798TIP3   OH2 2399   2.020   0.825   4.863
  798TIP3    H1 2400   2.114   0.814   4.881
  798TIP3    H2 2401   1.982   0.846   4.948
  799TIP3   OH2 2402   6.346   5.701   3.631
  799TIP3    H1 2403   6.272   5.640   3.630
  799TIP3    H2 2404   6.341   5.747   3.548
  800TIP3   OH2 2405   2.578   5.536   0.689
  800TIP3    H1 2406   2.568   5.620   0.733
  800TIP3    H2 2407   2.624   5.481   0.753
  801TIP3   OH2 2408   3.999   3.614   0.481
  801TIP3    H1 2409   3.960   3.643   0.399
  801TIP3    H2 2410   4.088   3.648   0.480
  802TIP3   OH2 2411   5.144   2.927   0.942
  802TIP3    H1 2412   5.098   2.983   1.004
  802TIP3    H2 2413   5.236   2.952   0.949
  803TIP3   OH2 2414   0.376   5.968   3.552
  803TIP3    H1 2415   0.304   5.951   3.491
  803TIP3    H2 2416   0.455   5.965   3.497
  804TIP3   OH2 2417   5.834   1.712   4.549
  804TIP3    H1 2418   5.903   1.672   4.496
  804TIP3    H2 2419   5.775   1.640   4.569
  805TIP3   OH2 2420   1.048   2.565   0.254
  805TIP3    H1 2421   1.088   2.488   0.294
  805TIP3    H2 2422   1.120   2.610   0.210
  806TIP3   OH2 2423   0.305   0.068   0.429
  806TIP3    H1 2424   0.313   0.163   0.440
  806TIP3    H2 2425   0.392   0.034   0.452
  807TIP3   OH2 2426   5.807   2.113   3.447
  807TIP3    H1 2427   5.788   2.064   3.527
  807TIP3    H2 2428   5.819   2.203   3.476
  808TIP3   OH2 2429   5.481   0.766   1.234
  808TIP3    H1 2430   5.506   0.704   1.165
  808TIP3    H2 2431   5.409   0.723   1.279
  809TIP3   OH2 2432   3.064   5.774   2.816
  809TIP3    H1 2433   3.136   5.712   2.829
  809TIP3    H2 2434   3.002   5.727   2.759
  810TIP3   OH2 2435   5.822   1.341   2.163
  810TIP3    H1 2436   5.914   1.368   2.169
  810TIP3    H2 2437   5.791   1.341   2.254
  811TIP3   OH2 2438   1.318   3.606   0.728
  811TIP3    H1 2439   1.356   3.694   0.733
  811TIP3    H2 2440   1.390   3.551   0.698
  812TIP3   OH2 2441  -0.008   3.724   1.152
  812TIP3    H1 2442   0.007   3.699   1.061
  812TIP3    H2 2443   0.078   3.714   1.194
  813TIP3   OH2 2444   1.886   5.767   1.802
  813TIP3    H1 2445   1.883   5.781   1.707
  813TIP3    H2 2446   1.899   5.673   1.812
  814TIP3   OH2 2447   4.896   3.213   2.995
  814TIP3    H1 2448   4.882   3.306   3.015
  814TIP3    H2 2449   4.976   3.191   3.041
  815TIP3   OH2 2450   2.619   2.063   3.097
  815TIP3    H1 2451   2.576   2.061   3.183
  815TIP3    H2 2452   2.699   2.114   3.112
  816TIP3   OH2 2453   4.436   2.748   5.126
  816TIP3    H1 2454   4.481   2.801   5.060
  816TIP3    H2 2455   4.485   2.764   5.207
  817TIP3   OH2 2456   3.311   1.496   2.280
  817TIP3    H1 2457   3.328   1.590   2.290
  817TIP3    H2 2458   3.300   1.484   2.186
  818TIP3   OH2 2459   4.361   4.557   2.577
  818TIP3    H1 2460   4.305   4.486   2.545
  818TIP3    H2 2461   4.444   4.514   2.597
  819TIP3   OH2 2462   4.488   1.099   0.354
  819TIP3    H1 2463   4.574   1.081   0.393
  819TIP3    H2 2464   4.506   1.108   0.260
  820TIP3   OH2 2465   3.252   4.239   1.498
  820TIP3    H1 2466   3.285   4.186   1.570
  820TIP3    H2 2467   3.204   4.178   1.442
  821TIP3   OH2 2468   4.455   5.411   5.066
  821TIP3    H1 2469   4.416   5.487   5.023
  821TIP3    H2 2470   4.522   5.448   5.124
  822TIP3   OH2 2471   0.775   0.033   2.650
  822TIP3    H1 2472   0.841   0.088   2.608
  822TIP3    H2 2473   0.720   0.002   2.578
  823TIP3   OH2 2474   1.788   3.613   0.146
  823TIP3    H1 2475   1.739   3.689   0.116
  823TIP3    H2 2476   1.876   3.647   0.164
  824TIP3   OH2 2477   3.795   1.160   4.674
  824TIP3    H1 2478   3.841   1.164   4.759
  824TIP3    H2 2479   3.785   1.252   4.649
  825TIP3   OH2 2480   4.453   0.193   2.009
  825TIP3    H1 2481   4.431   0.133   2.080
  825TIP3    H2 2482   4.379   0.187   1.948
  826TIP3   OH2 2483   0.330   1.126   3.634
  826TIP3    H1 2484   0.400   1.191   3.626
  826TIP3    H2 2485   0.251   1.178   3.654
  827TIP3   OH2 2486   3.287   1.322   1.791
  827TIP3    H1 2487   3.321   1.370   1.867
  827TIP3    H2 2488   3.234   1.252   1.830
  828TIP3   OH2 2489   4.563   3.508   0.511
  828TIP3    H1 2490   4.589   3.518   0.603
  828TIP3    H2 2491   4.531   3.418   0.505
  829TIP3   OH2 2492   3.457   3.398   1.416
  829TIP3    H1 2493   3.526   3.338   1.445
  829TIP3    H2 2494   3.499   3.453   1.350
  830TIP3   OH2 2495   5.601   4.318   3.468
  830TIP3    H1 2496   5.685   4.272   3.458
  830TIP3    H2 2497   5.542   4.273   3.407
  831TIP3   OH2 2498   0.439   0.071   2.741
  831TIP3    H1 2499   0.387  -0.002   2.774
  831TIP3    H2 2500   0.461   0.122   2.819
  832TIP3   OH2 2501   1.125   0.541   3.095
  832TIP3    H1 2502   1.103   0.556   3.187
  832TIP3    H2 2503   1.200   0.481   3.097
  833TIP3   OH2 2504   4.250   1.207   1.880
  833TIP3    H1 2505   4.323   1.203   1.819
  833TIP3    H2 2506   4.220   1.298   1.876
  834TIP3   OH2 2507   5.594   5.961   3.217
  834TIP3    H1 2508   5.530   5.991   3.152
  834TIP3    H2 2509   5.565   5.872   3.238
  835TIP3   OH2 2510   5.587   1.856   1.825
  835TIP3    H1 2511   5.632   1.922   1.771
  835TIP3    H2 2512   5.634   1.856   1.907
  836TIP3   OH2 2513   2.630   3.259   2.848
  836TIP3    H1 2514   2.674   3.300   2.923
  836TIP3    H2 2515   2.667   3.171   2.843
  837TIP3   OH2 2516   5.724   3.031   4.397
  837TIP3    H1 2517   5.814   3.053   4.374
  837TIP3    H2 2518   5.694   3.105   4.450
  838TIP3   OH2 2519   1.495   5.694   3.146
  838TIP3    H1 2520   1.443   5.756   3.096
  838TIP3    H2 2521   1.583   5.731   3.146
  839TIP3   OH2 2522   1.288   1.488   0.764
  839TIP3    H1 2523   1.234   1.468   0.841
  839TIP3    H2 2524   1.274   1.414   0.705
  840TIP3   OH2 2525   1.010   3.039   2.434
  840TIP3    H1 2526   1.012   3.027   2.529
  840TIP3    H2 2527   1.031   2.953   2.399
  841TIP3   OH2 2528   5.327   1.480   4.527
  841TIP3    H1 2529   5.390   1.455   4.459
  841TIP3    H2 2530   5.262   1.534   4.482
  842TIP3   OH2 2531   2.101   5.347   2.013
  842TIP3    H1 2532   2.109   5.319   2.104
  842TIP3    H2 2533   2.046   5.280   1.972
  843TIP3   OH2 2534   1.430   0.802   4.529
  843TIP3    H1 2535   1.367   0.851   4.476
  843TIP3    H2 2536   1.460   0.731   4.471
  844TIP3   OH2 2537   1.395   5.891   1.215
  844TIP3    H1 2538   1.377   5.970   1.165
  844TIP3    H2 2539   1.334   5.826   1.180
  845TIP3   OH2 2540   4.973   3.303   2.563
  845TIP3    H1 2541   4.889   3.272   2.529
  845TIP3    H2 2542   5.030   3.308   2.486
  846TIP3   OH2 2543   5.577   0.980   4.219
  846TIP3    H1 2544   5.504   0.971   4.158
  846TIP3    H2 2545   5.618   0.893   4.221
  847TIP3   OH2 2546   5.571   5.067   3.316
  847TIP3    H1 2547   5.644   5.006   3.308
  847TIP3    H2 2548   5.610   5.146   3.356
  848TIP3   OH2 2549   2.524   0.176   5.027
  848TIP3    H1 2550   2.455   0.230   4.989
  848TIP3    H2 2551   2.526   0.098   4.973
  849TIP3   OH2 2552   3.692   3.379   2.611
  849TIP3    H1 2553   3.630   3.440   2.652
  849TIP3    H2 2554   3.777   3.420   2.623
  850TIP3   OH2 2555   5.309   2.518   4.924
  850TIP3    H1 2556   5.240   2.580   4.949
  850TIP3    H2 2557   5.263   2.443   4.887
  851TIP3   OH2 2558   4.829   5.515   0.787
  851TIP3    H1 2559   4.760   5.531   0.723
  851TIP3    H2 2560   4.889   5.456   0.742
  852TIP3   OH2 2561   5.282   0.577   3.917
  852TIP3    H1 2562   5.267   0.535   3.833
  852TIP3    H2 2563   5.365   0.624   3.906
  853TIP3   OH2 2564   4.154   1.149   1.077
  853TIP3    H1 2565   4.101   1.216   1.033
  853TIP3    H2 2566   4.239   1.190   1.089
  854TIP3   OH2 2567   4.346   3.514   2.842
  854TIP3    H1 2568   4.335   3.429   2.884
  854TIP3    H2 2569   4.391   3.495   2.760
  855TIP3   OH2 2570   1.461   5.313   4.700
  855TIP3    H1 2571   1.473   5.306   4.606
  855TIP3    H2 2572   1.477   5.224   4.732
  856TIP3   OH2 2573   1.955   5.620   3.383
  856TIP3    H1 2574   2.002   5.694   3.345
  856TIP3    H2 2575   1.881   5.660   3.430
  857TIP3   OH2 2576   4.027   4.457   0.789
  857TIP3    H1 2577   4.107   4.508   0.798
  857TIP3    H2 2578   3.999   4.471   0.699
  858TIP3   OH2 2579   4.536   1.732   2.339
  858TIP3    H1 2580   4.476   1.804   2.361
  858TIP3    H2 2581   4.488   1.680   2.274
  859TIP3   OH2 2582   1.365   1.185   1.668
  859TIP3    H1 2583   1.324   1.241   1.734
  859TIP3    H2 2584   1.291   1.144   1.623
  860TIP3   OH2 2585   0.561   2.774   2.152
  860TIP3    H1 2586   0.518   2.694   2.184
  860TIP3    H2 2587   0.490   2.826   2.116
  861TIP3   OH2 2588   2.457   3.124   0.895
  861TIP3    H1 2589   2.403   3.046   0.884
  861TIP3    H2 2590   2.429   3.182   0.824
  862TIP3   OH2 2591   2.736   4.833   0.257
  862TIP3    H1 2592   2.678   4.816   0.331
  862TIP3    H2 2593   2.805   4.889   0.292
  863TIP3   OH2 2594   3.688   1.051   1.720
  863TIP3    H1 2595   3.748   0.990   1.763
  863TIP3    H2 2596   3.656   1.107   1.792
  864TIP3   OH2 2597   5.902   0.220   1.449
  864TIP3    H1 2598   5.817   0.193   1.484
  864TIP3    H2 2599   5.934   0.144   1.402
  865TIP3   OH2 2600   5.337   2.594   3.851
  865TIP3    H1 2601   5.391   2.631   3.921
  865TIP3    H2 2602   5.247   2.604   3.883
  866TIP3   OH2 2603   6.101   0.286   0.599
  866TIP3    H1 2604   6.064   0.223   0.660
  866TIP3    H2 2605   6.195   0.269   0.601
  867TIP3   OH2 2606   3.047   0.772   5.085
  867TIP3    H1 2607   2.982   0.765   5.015
  867TIP3    H2 2608   3.102   0.846   5.060
  868TIP3   OH2 2609   0.823   3.870   4.844
  868TIP3    H1 2610   0.801   3.963   4.840
  868TIP3    H2 2611   0.872   3.860   4.926
  869TIP3   OH2 2612   4.656   4.528   0.731
  869TIP3    H1 2613   4.580   4.574   0.693
  869TIP3    H2 2614   4.634   4.435   0.723
  870TIP3   OH2 2615   0.095   4.054   2.417
  870TIP3    H1 2616   0.090   4.148   2.399
  870TIP3    H2 2617   0.009   4.020   2.391
  871TIP3   OH2 2618   5.862   2.954   3.719
  871TIP3    H1 2619   5.878   2.860   3.731
  871TIP3    H2 2620   5.890   2.971   3.629
  872TIP3   OH2 2621   3.694   3.177   3.693
  872TIP3    H1 2622   3.705   3.167   3.787
  872TIP3    H2 2623   3.724   3.094   3.656
  873TIP3   OH2 2624   4.911   1.647   3.138
  873TIP3    H1 2625   4.859   1.707   3.191
  873TIP3    H2 2626   4.890   1.670   3.047
  874TIP3   OH2 2627   3.819   4.979   2.683
  874TIP3    H1 2628   3.868   4.901   2.707
  874TIP3    H2 2629   3.843   4.997   2.592
  875TIP3   OH2 2630   2.124   0.382   2.230
  875TIP3    H1 2631   2.077   0.446   2.283
  875TIP3    H2 2632   2.196   0.431   2.190
  876TIP3   OH2 2633   2.111   3.512   2.105
  876TIP3    H1 2634   2.164   3.493   2.183
  876TIP3    H2 2635   2.132   3.440   2.045
  877TIP3   OH2 2636   3.417   3.819   4.310
  877TIP3    H1 2637   3.437   3.819   4.404
  877TIP3    H2 2638   3.503   3.816   4.267
  878TIP3   OH2 2639   5.298   4.909   0.477
  878TIP3    H1 2640   5.300   4.844   0.547
  878TIP3    H2 2641   5.376   4.891   0.424
  879TIP3   OH2 2642   2.524   4.609   1.417
  879TIP3    H1 2643   2.549   4.605   1.325
  879TIP3    H2 2644   2.432   4.582   1.419
  880TIP3   OH2 2645   3.878   0.068   2.545
  880TIP3    H1 2646   3.969   0.041   2.530
  880TIP3    H2 2647   3.870   0.069   2.641
  881TIP3   OH2 2648   5.510   3.611   0.698
  881TIP3    H1 2649   5.485   3.520   0.683
  881TIP3    H2 2650   5.452   3.661   0.641
  882TIP3   OH2 2651   4.317   5.476   4.523
  882TIP3    H1 2652   4.294   5.404   4.582
  882TIP3    H2 2653   4.259   5.464   4.448
  883TIP3   OH2 2654   3.641   1.414   3.280
  883TIP3    H1 2655   3.555   1.393   3.242
  883TIP3    H2 2656   3.642   1.367   3.363
  884TIP3   OH2 2657   3.668   1.690   3.238
  884TIP3    H1 2658   3.650   1.650   3.153
  884TIP3    H2 2659   3.728   1.629   3.281
  885TIP3   OH2 2660   1.379   1.130   4.329
  885TIP3    H1 2661   1.308   1.093   4.382
  885TIP3    H2 2662   1.449   1.065   4.333
  886TIP3   OH2 2663   1.617   1.827   2.469
  886TIP3    H1 2664   1.707   1.799   2.483
  886TIP3    H2 2665   1.567   1.787   2.540
  887TIP3   OH2 2666   3.568   3.849   2.259
  887TIP3    H1 2667   3.621   3.829   2.181
  887TIP3    H2 2668   3.535   3.937   2.243
  888TIP3   OH2 2669   0.689   3.337   3.462
  888TIP3    H1 2670   0.606   3.301   3.492
  888TIP3    H2 2671   0.752   3.265   3.475
  889TIP3   OH2 2672   3.498   0.970   4.925
  889TIP3    H1 2673   3.472   0.883   4.954
  889TIP3    H2 2674   3.560   1.001   4.991
  890TIP3   OH2 2675   6.139   1.417   4.789
  890TIP3    H1 2676   6.087   1.351   4.835
  890TIP3    H2 2677   6.075   1.481   4.758
  891TIP3   OH2 2678   1.070   4.122   4.487
  891TIP3    H1 2679   1.100   4.205   4.525
  891TIP3    H2 2680   1.126   4.056   4.527
  892TIP3   OH2 2681   1.810   1.006   3.952
  892TIP3    H1 2682   1.844   1.043   3.871
  892TIP3    H2 2683   1.747   1.070   3.984
  893TIP3   OH2 2684   2.061   2.097   0.091
  893TIP3    H1 2685   2.091   2.184   0.118
  893TIP3    H2 2686   2.124   2.036   0.132
  894TIP3   OH2 2687   1.882   4.980   3.827
  894TIP3    H1 2688   1.930   5.059   3.850
  894TIP3    H2 2689   1.934   4.940   3.758
  895TIP3   OH2 2690   5.534   5.907   0.566
  895TIP3    H1 2691   5.616   5.942   0.599
  895TIP3    H2 2692   5.467   5.963   0.605
  896TIP3   OH2 2693   2.581   0.149   4.268
  896TIP3    H1 2694   2.632   0.111   4.196
  896TIP3    H2 2695   2.491   0.123   4.250
  897TIP3   OH2 2696   2.081   3.718   0.809
  897TIP3    H1 2697   2.024   3.795   0.820
  897TIP3    H2 2698   2.167   3.749   0.839
  898TIP3   OH2 2699   2.847   1.059   1.245
  898TIP3    H1 2700   2.773   1.011   1.207
  898TIP3    H2 2701   2.859   1.019   1.332
  899TIP3   OH2 2702   0.299   4.365   1.249
  899TIP3    H1 2703   0.379   4.348   1.200
  899TIP3    H2 2704   0.243   4.413   1.188
  900TIP3   OH2 2705   3.960   5.974   1.363
  900TIP3    H1 2706   4.014   6.006   1.291
  900TIP3    H2 2707   3.919   5.895   1.328
  901TIP3   OH2 2708   1.970   2.231   0.460
  901TIP3    H1 2709   2.047   2.280   0.430
  901TIP3    H2 2710   1.897   2.266   0.409
  902TIP3   OH2 2711   4.361   4.236   5.036
  902TIP3    H1 2712   4.385   4.164   4.978
  902TIP3    H2 2713   4.270   4.255   5.014
  903TIP3   OH2 2714   1.928   3.942   0.868
  903TIP3    H1 2715   1.870   3.966   0.941
  903TIP3    H2 2716   1.943   4.025   0.822
  904TIP3   OH2 2717   3.097   1.940   0.921
  904TIP3    H1 2718   3.038   2.015   0.914
  904TIP3    H2 2719   3.070   1.896   1.001
  905TIP3   OH2 2720   6.312   4.070   4.268
  905TIP3    H1 2721   6.242   4.015   4.233
  905TIP3    H2 2722   6.376   4.009   4.305
  906TIP3   OH2 2723   3.456   2.588   3.103
  906TIP3    H1 2724   3.443   2.593   3.197
  906TIP3    H2 2725   3.516   2.515   3.090
  907TIP3   OH2 2726   1.020   3.253   0.942
  907TIP3    H1 2727   1.021   3.266   0.847
  907TIP3    H2 2728   1.079   3.179   0.956
  908TIP3   OH2 2729   2.531   2.756   4.260
  908TIP3    H1 2730   2.512   2.662   4.253
  908TIP3    H2 2731   2.551   2.783   4.171
  909TIP3   OH2 2732   4.441   3.043   2.902
  909TIP3    H1 2733   4.521   3.037   2.954
  909TIP3    H2 2734   4.460   3.109   2.835
  910TIP3   OH2 2735   5.189   2.623   0.751
  910TIP3    H1 2736   5.196   2.715   0.776
  910TIP3    H2 2737   5.275   2.586   0.772
  911TIP3   OH2 2738   1.862   2.755   3.291
  911TIP3    H1 2739   1.821   2.671   3.271
  911TIP3    H2 2740   1.947   2.751   3.248
  912TIP3   OH2 2741   1.592   0.625   3.086
  912TIP3    H1 2742   1.533   0.654   3.155
  912TIP3    H2 2743   1.633   0.546   3.120
  913TIP3   OH2 2744   6.058   2.716   5.081
  913TIP3    H1 2745   5.995   2.783   5.110
  913TIP3    H2 2746   6.093   2.679   5.162
  914TIP3   OH2 2747   4.122   0.544   1.902
  914TIP3    H1 2748   4.081   0.569   1.984
  914TIP3    H2 2749   4.091   0.454   1.886
  915TIP3   OH2 2750   3.900   0.547   4.874
  915TIP3    H1 2751   3.838   0.613   4.903
  915TIP3    H2 2752   3.965   0.596   4.823
  916TIP3   OH2 2753   4.298   5.065   0.413
  916TIP3    H1 2754   4.263   5.030   0.331
  916TIP3    H2 2755   4.331   5.152   0.390
  917TIP3   OH2 2756   5.796   3.559   4.805
  917TIP3    H1 2757   5.721   3.502   4.820
  917TIP3    H2 2758   5.842   3.562   4.889
  918TIP3   OH2 2759   1.470   4.543   4.914
  918TIP3    H1 2760   1.482   4.602   4.988
  918TIP3    H2 2761   1.546   4.560   4.857
  919TIP3   OH2 2762   3.430   3.164   4.412
  919TIP3    H1 2763   3.523   3.166   4.393
  919TIP3    H2 2764   3.390   3.222   4.346
  920TIP3   OH2 2765   4.167   2.768   3.058
  920TIP3    H1 2766   4.258   2.744   3.073
  920TIP3    H2 2767   4.162   2.789   2.964
  921TIP3   OH2 2768   5.170   0.017   2.430
  921TIP3    H1 2769   5.205   0.053   2.512
  921TIP3    H2 2770   5.139   0.094   2.382
  922TIP3   OH2 2771   1.889   3.861   1.514
  922TIP3    H1 2772   1.983   3.856   1.534
  922TIP3    H2 2773   1.856   3.772   1.528
  923TIP3   OH2 2774   1.368   5.220   4.371
  923TIP3    H1 2775   1.341   5.263   4.289
  923TIP3    H2 2776   1.350   5.127   4.356
  924TIP3   OH2 2777   1.757   2.929   4.756
  924TIP3    H1 2778   1.707   2.910   4.836
  924TIP3    H2 2779   1.691   2.954   4.692
  925TIP3   OH2 2780   1.480   1.129   2.460
  925TIP3    H1 2781   1.491   1.204   2.402
  925TIP3    H2 2782   1.517   1.055   2.412
  926TIP3   OH2 2783   3.032   1.622   0.367
  926TIP3    H1 2784   2.975   1.561   0.321
  926TIP3    H2 2785   3.115   1.575   0.375
  927TIP3   OH2 2786   1.857   1.766   2.766
  927TIP3    H1 2787   1.874   1.785   2.674
  927TIP3    H2 2788   1.865   1.670   2.772
  928TIP3   OH2 2789   6.038   1.154   4.850
  928TIP3    H1 2790   6.073   1.065   4.840
  928TIP3    H2 2791   5.962   1.157   4.791
  929TIP3   OH2 2792   2.605   0.920   1.232
  929TIP3    H1 2793   2.576   0.833   1.261
  929TIP3    H2 2794   2.543   0.980   1.272
  930TIP3   OH2 2795   4.154   5.076   0.651
  930TIP3    H1 2796   4.149   5.171   0.648
  930TIP3    H2 2797   4.199   5.051   0.570
  931TIP3   OH2 2798   2.289   2.113   1.111
  931TIP3    H1 2799   2.355   2.059   1.069
  931TIP3    H2 2800   2.335   2.195   1.132
  932TIP3   OH2 2801   0.619   5.901   4.387
  932TIP3    H1 2802   0.630   5.833   4.320
  932TIP3    H2 2803   0.524   5.902   4.403
  933TIP3   OH2 2804   4.115   4.975   1.419
  933TIP3    H1 2805   4.080   4.907   1.362
  933TIP3    H2 2806   4.192   5.008   1.373
  934TIP3   OH2 2807   1.939   2.577   0.622
  934TIP3    H1 2808   2.005   2.516   0.655
  934TIP3    H2 2809   1.856   2.538   0.647
  935TIP3   OH2 2810   3.641   4.348   0.156
  935TIP3    H1 2811   3.587   4.368   0.233
  935TIP3    H2 2812   3.720   4.400   0.169
  936TIP3   OH2 2813   2.811   4.844   3.137
  936TIP3    H1 2814   2.891   4.876   3.178
  936TIP3    H2 2815   2.742   4.864   3.200
  937TIP3   OH2 2816   5.664   1.824   0.579
  937TIP3    H1 2817   5.616   1.783   0.508
  937TIP3    H2 2818   5.606   1.892   0.613
  938TIP3   OH2 2819   2.771   4.504   2.616
  938TIP3    H1 2820   2.841   4.439   2.624
  938TIP3    H2 2821   2.739   4.495   2.527
  939TIP3   OH2 2822   1.186   2.628   4.639
  939TIP3    H1 2823   1.233   2.682   4.702
  939TIP3    H2 2824   1.164   2.688   4.568
  940TIP3   OH2 2825   4.761   0.768   3.148
  940TIP3    H1 2826   4.692   0.741   3.087
  940TIP3    H2 2827   4.716   0.777   3.232
  941TIP3   OH2 2828   4.038   5.816   1.826
  941TIP3    H1 2829   4.070   5.904   1.842
  941TIP3    H2 2830   3.950   5.828   1.791
  942TIP3   OH2 2831   2.063   1.866   4.137
  942TIP3    H1 2832   2.154   1.888   4.119
  942TIP3    H2 2833   2.065   1.820   4.221
  943TIP3   OH2 2834   3.825   2.014   2.985
  943TIP3    H1 2835   3.831   2.033   2.891
  943TIP3    H2 2836   3.799   1.922   2.989
  944TIP3   OH2 2837   4.020   0.032   4.424
  944TIP3    H1 2838   3.986   0.121   4.407
  944TIP3    H2 2839   4.115   0.042   4.421
  945TIP3   OH2 2840   1.962   1.734   4.390
  945TIP3    H1 2841   1.972   1.698   4.478
  945TIP3    H2 2842   1.895   1.802   4.400
  946TIP3   OH2 2843   5.446   5.781   4.887
  946TIP3    H1 2844   5.475   5.690   4.884
  946TIP3    H2 2845   5.525   5.831   4.907
  947TIP3   OH2 2846   2.005   0.772   4.305
  947TIP3    H1 2847   2.072   0.804   4.365
  947TIP3    H2 2848   2.005   0.835   4.233
  948TIP3   OH2 2849   5.789   5.690   5.267
  948TIP3    H1 2850   5.743   5.773   5.270
  948TIP3    H2 2851   5.749   5.643   5.194
  949TIP3   OH2 2852   4.682   2.434   0.949
  949TIP3    H1 2853   4.609   2.438   1.011
  949TIP3    H2 2854   4.680   2.519   0.903
  950TIP3   OH2 2855   3.065   0.260   4.166
  950TIP3    H1 2856   3.037   0.350   4.149
  950TIP3    H2 2857   3.161   0.264   4.164
  951TIP3   OH2 2858   3.852   4.892   1.068
  951TIP3    H1 2859   3.889   4.939   0.993
  951TIP3    H2 2860   3.891   4.805   1.063
  952TIP3   OH2 2861   6.193   5.086   3.830
  952TIP3    H1 2862   6.259   5.124   3.888
  952TIP3    H2 2863   6.123   5.151   3.827
  953TIP3   OH2 2864   2.169   4.581   3.109
  953TIP3    H1 2865   2.207   4.497   3.084
  953TIP3    H2 2866   2.234   4.646   3.083
  954TIP3   OH2 2867   2.953   2.106   4.112
  954TIP3    H1 2868   3.009   2.054   4.170
  954TIP3    H2 2869   2.865   2.073   4.127
  955TIP3   OH2 2870   0.069   3.310   0.552
  955TIP3    H1 2871   0.157   3.339   0.578
  955TIP3    H2 2872   0.028   3.282   0.634
  956TIP3   OH2 2873   2.222   1.391   1.011
  956TIP3    H1 2874   2.299   1.376   0.957
  956TIP3    H2 2875   2.255   1.435   1.089
  957TIP3   OH2 2876   3.060   0.424   3.667
  957TIP3    H1 2877   3.150   0.424   3.700
  957TIP3    H2 2878   3.069   0.445   3.574
  958TIP3   OH2 2879   0.332   1.446   0.141
  958TIP3    H1 2880   0.322   1.401   0.057
  958TIP3    H2 2881   0.420   1.484   0.137
  959TIP3   OH2 2882   5.734   4.393   0.845
  959TIP3    H1 2883   5.823   4.364   0.867
  959TIP3    H2 2884   5.687   4.391   0.928
  960TIP3   OH2 2885   0.442   1.266   1.678
  960TIP3    H1 2886   0.394   1.206   1.621
  960TIP3    H2 2887   0.506   1.308   1.620
  961TIP3   OH2 2888   1.249   4.243   2.470
  961TIP3    H1 2889   1.240   4.156   2.509
  961TIP3    H2 2890   1.267   4.226   2.378
  962TIP3   OH2 2891   3.077   1.644   1.013
  962TIP3    H1 2892   3.105   1.558   0.981
  962TIP3    H2 2893   3.003   1.668   0.957
  963TIP3   OH2 2894   2.407   2.587   0.600
  963TIP3    H1 2895   2.404   2.513   0.661
  963TIP3    H2 2896   2.378   2.662   0.651
  964TIP3   OH2 2897   1.417   0.303   0.181
  964TIP3    H1 2898   1.479   0.375   0.197
  964TIP3    H2 2899   1.424   0.287   0.087
  965TIP3   OH2 2900   3.220   5.226   3.268
  965TIP3    H1 2901   3.172   5.308   3.270
  965TIP3    H2 2902   3.226   5.199   3.360
  966TIP3   OH2 2903   5.964   5.147   0.869
  966TIP3    H1 2904   5.928   5.234   0.849
  966TIP3    H2 2905   5.887   5.090   0.873
  967TIP3   OH2 2906   2.765   3.001   4.804
  967TIP3    H1 2907   2.811   2.928   4.845
  967TIP3    H2 2908   2.756   3.066   4.874
  968TIP3   OH2 2909   5.064   0.628   4.299
  968TIP3    H1 2910   4.983   0.657   4.341
  968TIP3    H2 2911   5.057   0.658   4.209
  969TIP3   OH2 2912   5.080   1.442   3.618
  969TIP3    H1 2913   5.060   1.391   3.540
  969TIP3    H2 2914   5.112   1.377   3.681
  970TIP3   OH2 2915   0.648   4.459   2.247
  970TIP3    H1 2916   0.639   4.515   2.170
  970TIP3    H2 2917   0.741   4.464   2.270
  971TIP3   OH2 2918   5.505   3.469   0.229
  971TIP3    H1 2919   5.559   3.430   0.298
  971TIP3    H2 2920   5.416   3.446   0.253
  972TIP3   OH2 2921   3.717   3.462   0.892
  972TIP3    H1 2922   3.811   3.475   0.901
  972TIP3    H2 2923   3.702   3.372   0.920
  973TIP3   OH2 2924   5.920   4.734   0.850
  973TIP3    H1 2925   5.958   4.670   0.790
  973TIP3    H2 2926   5.924   4.817   0.802
  974TIP3   OH2 2927   2.237   2.965   2.444
  974TIP3    H1 2928   2.203   2.900   2.382
  974TIP3    H2 2929   2.243   2.918   2.527
  975TIP3   OH2 2930   3.357   2.704   0.227
  975TIP3    H1 2931   3.411   2.777   0.195
  975TIP3    H2 2932   3.331   2.657   0.148
  976TIP3   OH2 2933   5.052   3.245   1.028
  976TIP3    H1 2934   5.091   3.331   1.014
  976TIP3    H2 2935   4.965   3.251   0.989
  977TIP3   OH2 2936   3.912  -0.037   4.698
  977TIP3    H1 2937   3.930  -0.020   4.605
  977TIP3    H2 2938   3.947   0.040   4.744
  978TIP3   OH2 2939   5.881   5.063   2.441
  978TIP3    H1 2940   5.927   4.989   2.479
  978TIP3    H2 2941   5.799   5.068   2.490
  979TIP3   OH2 2942   2.326   5.549   0.562
  979TIP3    H1 2943   2.339   5.535   0.468
  979TIP3    H2 2944   2.414   5.545   0.599
  980TIP3   OH2 2945   3.890   2.791   3.876
  980TIP3    H1 2946   3.808   2.814   3.920
  980TIP3    H2 2947   3.918   2.709   3.917
  981TIP3   OH2 2948   1.201   3.171   0.398
  981TIP3    H1 2949   1.151   3.101   0.442
  981TIP3    H2 2950   1.238   3.128   0.321
  982TIP3   OH2 2951   0.753   4.167   0.913
  982TIP3    H1 2952   0.688   4.112   0.958
  982TIP3    H2 2953   0.825   4.108   0.894
  983TIP3   OH2 2954   2.723   0.234   3.154
  983TIP3    H1 2955   2.630   0.228   3.135
  983TIP3    H2 2956   2.742   0.328   3.156
  984TIP3   OH2 2957   0.615   1.787   2.718
  984TIP3    H1 2958   0.571   1.850   2.775
  984TIP3    H2 2959   0.706   1.816   2.715
  985TIP3   OH2 2960   0.088   2.305   1.507
  985TIP3    H1 2961   0.084   2.259   1.423
  985TIP3    H2 2962   0.145   2.380   1.491
  986TIP3   OH2 2963   3.852   5.602   0.367
  986TIP3    H1 2964   3.871   5.667   0.434
  986TIP3    H2 2965   3.906   5.629   0.292
  987TIP3   OH2 2966   1.055   5.810   3.954
  987TIP3    H1 2967   1.108   5.888   3.937
  987TIP3    H2 2968   0.968   5.834   3.922
  988TIP3   OH2 2969   1.133   3.345   2.587
  988TIP3    H1 2970   1.188   3.267   2.579
  988TIP3    H2 2971   1.160   3.385   2.669
  989TIP3   OH2 2972   3.952   5.587   3.643
  989TIP3    H1 2973   3.909   5.639   3.711
  989TIP3    H2 2974   3.918   5.622   3.561
  990TIP3   OH2 2975   1.361   5.516   1.182
  990TIP3    H1 2976   1.338   5.579   1.115
  990TIP3    H2 2977   1.456   5.509   1.178
  991TIP3   OH2 2978   2.627   4.795   3.426
  991TIP3    H1 2979   2.596   4.885   3.416
  991TIP3    H2 2980   2.547   4.743   3.435
  992TIP3   OH2 2981   2.954   5.008   2.381
  992TIP3    H1 2982   2.921   5.039   2.465
  992TIP3    H2 2983   2.931   4.915   2.379
  993TIP3   OH2 2984   4.739   3.423   1.794
  993TIP3    H1 2985   4.823   3.448   1.755
  993TIP3    H2 2986   4.677   3.427   1.721
  994TIP3   OH2 2987   3.787   2.842   5.093
  994TIP3    H1 2988   3.751   2.915   5.143
  994TIP3    H2 2989   3.778   2.767   5.151
  995TIP3   OH2 2990   5.810   2.843   1.206
  995TIP3    H1 2991   5.788   2.882   1.291
  995TIP3    H2 2992   5.906   2.836   1.207
  996TIP3   OH2 2993   4.349   4.917   4.978
  996TIP3    H1 2994   4.411   4.990   4.967
  996TIP3    H2 2995   4.343   4.905   5.072
  997TIP3   OH2 2996   5.333   4.343   1.031
  997TIP3    H1 2997   5.262   4.377   1.084
  997TIP3    H2 2998   5.317   4.380   0.944
  998TIP3   OH2 2999   2.477   1.359   4.681
  998TIP3    H1 3000   2.494   1.323   4.769
  998TIP3    H2 3001   2.394   1.405   4.690
  999TIP3   OH2 3002   2.516   0.223   3.704
  999TIP3    H1 3003   2.520   0.128   3.694
  999TIP3    H2 3004   2.501   0.256   3.616
 1000TIP3   OH2 3005   1.525   2.484   3.221
 1000TIP3    H1 3006   1.467   2.489   3.145
 1000TIP3    H2 3007   1.594   2.423   3.195
 1001TIP3   OH2 3008   2.218   2.455   1.133
 1001TIP3    H1 3009   2.303   2.411   1.124
 1001TIP3    H2 3010   2.154   2.388   1.111
 1002TIP3   OH2 3011   1.625   0.532   0.408
 1002TIP3    H1 3012   1.554   0.595   0.398
 1002TIP3    H2 3013   1.582   0.447   0.409
 1003TIP3   OH2 3014   5.560   5.777   2.789
 1003TIP3    H1 3015   5.553   5.872   2.781
 1003TIP3    H2 3016   5.599   5.763   2.875
 1004TIP3   OH2 3017   5.536   1.857   5.189
 1004TIP3    H1 3018   5.530   1.770   5.229
 1004TIP3    H2 3019   5.517   1.843   5.097
 1005TIP3   OH2 3020   3.922   2.986   1.453
 1005TIP3    H1 3021   3.874   2.991   1.370
 1005TIP3    H2 3022   3.905   2.897   1.485
 1006TIP3   OH2 3023   4.596   2.958   3.528
 1006TIP3    H1 3024   4.515   2.974   3.576
 1006TIP3    H2 3025   4.635   3.045   3.516
 1007TIP3   OH2 3026   2.774   1.382   4.875
 1007TIP3    H1 3027   2.726   1.300   4.864
 1007TIP3    H2 3028   2.758   1.431   4.794
 1008TIP3   OH2 3029   2.032   3.411   2.706
 1008TIP3    H1 3030   2.123   3.385   2.689
 1008TIP3    H2 3031   2.007   3.360   2.783
 1009TIP3   OH2 3032   4.646   5.568   0.135
 1009TIP3    H1 3033   4.553   5.588   0.125
 1009TIP3    H2 3034   4.676   5.629   0.203
 1010TIP3   OH2 3035   3.738   1.551   1.632
 1010TIP3    H1 3036   3.754   1.462   1.662
 1010TIP3    H2 3037   3.809   1.603   1.670
 1011TIP3   OH2 3038   5.748   0.962   4.834
 1011TIP3    H1 3039   5.759   1.034   4.772
 1011TIP3    H2 3040   5.768   1.000   4.920
 1012TIP3   OH2 3041   0.074   2.789   3.553
 1012TIP3    H1 3042   0.051   2.871   3.597
 1012TIP3    H2 3043   0.123   2.816   3.476
 1013TIP3   OH2 3044   0.181   4.761   0.777
 1013TIP3    H1 3045   0.172   4.709   0.697
 1013TIP3    H2 3046   0.129   4.713   0.842
 1014TIP3   OH2 3047   5.088   3.985   4.622
 1014TIP3    H1 3048   5.014   3.944   4.577
 1014TIP3    H2 3049   5.154   3.997   4.554
 1015TIP3   OH2 3050   0.115   0.259   3.406
 1015TIP3    H1 3051   0.146   0.189   3.464
 1015TIP3    H2 3052   0.151   0.237   3.321
 1016TIP3   OH2 3053   0.443   4.618   0.233
 1016TIP3    H1 3054   0.513   4.567   0.192
 1016TIP3    H2 3055   0.487   4.693   0.272
 1017TIP3   OH2 3056   5.459   0.230   2.646
 1017TIP3    H1 3057   5.396   0.158   2.642
 1017TIP3    H2 3058   5.405   0.308   2.661
 1018TIP3   OH2 3059   1.546   0.155   1.772
 1018TIP3    H1 3060   1.626   0.113   1.739
 1018TIP3    H2 3061   1.547   0.138   1.866
 1019TIP3   OH2 3062   3.862   4.655   4.844
 1019TIP3    H1 3063   3.779   4.694   4.817
 1019TIP3    H2 3064   3.842   4.563   4.858
 1020TIP3   OH2 3065   6.148   4.182   3.097
 1020TIP3    H1 3066   6.174   4.271   3.119
 1020TIP3    H2 3067   6.228   4.139   3.068
 1021TIP3   OH2 3068   3.040   5.332   4.912
 1021TIP3    H1 3069   3.133   5.309   4.919
 1021TIP3    H2 3070   2.996   5.270   4.970
 1022TIP3   OH2 3071   1.259   5.247   2.209
 1022TIP3    H1 3072   1.252   5.153   2.228
 1022TIP3    H2 3073   1.214   5.258   2.126
 1023TIP3   OH2 3074   1.138   2.283   2.734
 1023TIP3    H1 3075   1.081   2.214   2.702
 1023TIP3    H2 3076   1.184   2.245   2.809
 1024TIP3   OH2 3077   3.378   5.548   2.181
 1024TIP3    H1 3078   3.397   5.484   2.250
 1024TIP3    H2 3079   3.282   5.555   2.181
 1025TIP3   OH2 3080   1.465   0.731   4.086
 1025TIP3    H1 3081   1.480   0.821   4.057
 1025TIP3    H2 3082   1.533   0.680   4.041
 1026TIP3   OH2 3083   0.005   5.621   0.324
 1026TIP3    H1 3084   0.100   5.618   0.317
 1026TIP3    H2 3085  -0.026   5.579   0.244
 1027TIP3   OH2 3086   4.143   3.953   3.004
 1027TIP3    H1 3087   4.059   3.907   3.006
 1027TIP3    H2 3088   4.159   3.977   3.095
 1028TIP3   OH2 3089   2.469   0.359   4.537
 1028TIP3    H1 3090   2.387   0.409   4.532
 1028TIP3    H2 3091   2.454   0.282   4.483
 1029TIP3   OH2 3092   6.311   3.432   1.291
 1029TIP3    H1 3093   6.251   3.451   1.363
 1029TIP3    H2 3094   6.372   3.506   1.290
 1030TIP3   OH2 3095   3.652   0.818   2.852
 1030TIP3    H1 3096   3.641   0.912   2.869
 1030TIP3    H2 3097   3.740   0.811   2.815
 1031TIP3   OH2 3098   3.496   5.211   1.321
 1031TIP3    H1 3099   3.558   5.147   1.354
 1031TIP3    H2 3100   3.529   5.235   1.234
 1032TIP3   OH2 3101   0.509   4.510   3.251
 1032TIP3    H1 3102   0.471   4.511   3.339
 1032TIP3    H2 3103   0.495   4.598   3.217
 1033TIP3   OH2 3104   0.275   1.736   4.675
 1033TIP3    H1 3105   0.236   1.796   4.612
 1033TIP3    H2 3106   0.333   1.681   4.623
 1034TIP3   OH2 3107   0.153   0.889   1.160
 1034TIP3    H1 3108   0.191   0.809   1.124
 1034TIP3    H2 3109   0.060   0.883   1.141
 1035TIP3   OH2 3110   3.062   4.067   1.404
 1035TIP3    H1 3111   2.984   4.114   1.436
 1035TIP3    H2 3112   3.036   4.034   1.318
 1036TIP3   OH2 3113   3.778   1.491   1.147
 1036TIP3    H1 3114   3.841   1.439   1.098
 1036TIP3    H2 3115   3.737   1.429   1.207
 1037TIP3   OH2 3116   6.050   5.348   2.406
 1037TIP3    H1 3117   6.054   5.283   2.476
 1037TIP3    H2 3118   5.958   5.372   2.400
 1038TIP3   OH2 3119   6.249   4.679   2.377
 1038TIP3    H1 3120   6.309   4.718   2.441
 1038TIP3    H2 3121   6.305   4.624   2.322
 1039TIP3   OH2 3122   2.132   3.308   4.875
 1039TIP3    H1 3123   2.077   3.375   4.835
 1039TIP3    H2 3124   2.210   3.305   4.819
 1040TIP3   OH2 3125   4.841   5.179   1.056
 1040TIP3    H1 3126   4.850   5.186   0.961
 1040TIP3    H2 3127   4.746   5.179   1.071
 1041TIP3   OH2 3128   4.509   2.856   1.228
 1041TIP3    H1 3129   4.521   2.869   1.322
 1041TIP3    H2 3130   4.598   2.857   1.193
 1042TIP3   OH2 3131   3.198   0.513   0.882
 1042TIP3    H1 3132   3.192   0.512   0.978
 1042TIP3    H2 3133   3.131   0.576   0.855
 1043TIP3   OH2 3134   2.268   4.061   2.935
 1043TIP3    H1 3135   2.229   3.976   2.916
 1043TIP3    H2 3136   2.233   4.086   3.020
 1044TIP3   OH2 3137   4.997   3.525   4.077
 1044TIP3    H1 3138   5.036   3.542   4.163
 1044TIP3    H2 3139   5.072   3.505   4.021
 1045TIP3   OH2 3140   0.228   3.815   4.952
 1045TIP3    H1 3141   0.250   3.741   4.895
 1045TIP3    H2 3142   0.287   3.885   4.924
 1046TIP3   OH2 3143   3.373   3.948   0.780
 1046TIP3    H1 3144   3.353   3.873   0.724
 1046TIP3    H2 3145   3.311   3.941   0.852
 1047TIP3   OH2 3146   3.258   0.360   2.873
 1047TIP3    H1 3147   3.275   0.423   2.943
 1047TIP3    H2 3148   3.164   0.344   2.879
 1048TIP3   OH2 3149   3.973   2.929   4.792
 1048TIP3    H1 3150   4.020   2.852   4.761
 1048TIP3    H2 3151   4.024   2.961   4.866
 1049TIP3   OH2 3152   3.788   4.966   4.087
 1049TIP3    H1 3153   3.722   5.017   4.134
 1049TIP3    H2 3154   3.852   5.031   4.056
 1050TIP3   OH2 3155   2.489   0.024   2.976
 1050TIP3    H1 3156   2.485   0.083   3.051
 1050TIP3    H2 3157   2.557  -0.040   2.999
 1051TIP3   OH2 3158   4.784   0.936   0.978
 1051TIP3    H1 3159   4.807   0.877   0.906
 1051TIP3    H2 3160   4.834   0.902   1.053
 1052TIP3   OH2 3161   2.591   1.073   3.453
 1052TIP3    H1 3162   2.662   1.118   3.500
 1052TIP3    H2 3163   2.563   1.136   3.387
 1053TIP3   OH2 3164   3.553   4.397   3.387
 1053TIP3    H1 3165   3.522   4.450   3.460
 1053TIP3    H2 3166   3.538   4.307   3.416
 1054TIP3   OH2 3167   2.344   2.129   0.312
 1054TIP3    H1 3168   2.279   2.066   0.341
 1054TIP3    H2 3169   2.373   2.173   0.392
 1055TIP3   OH2 3170   3.707   5.010   3.163
 1055TIP3    H1 3171   3.714   4.971   3.250
 1055TIP3    H2 3172   3.798   5.024   3.136
 1056TIP3   OH2 3173   1.630   5.469   1.144
 1056TIP3    H1 3174   1.659   5.388   1.186
 1056TIP3    H2 3175   1.595   5.442   1.060
 1057TIP3   OH2 3176   3.667   2.800   3.345
 1057TIP3    H1 3177   3.581   2.762   3.363
 1057TIP3    H2 3178   3.729   2.738   3.383
 1058TIP3   OH2 3179   2.946   4.060   2.401
 1058TIP3    H1 3180   3.001   3.985   2.380
 1058TIP3    H2 3181   2.889   4.030   2.472
 1059TIP3   OH2 3182   5.108   2.169   2.210
 1059TIP3    H1 3183   5.047   2.104   2.175
 1059TIP3    H2 3184   5.109   2.152   2.305
 1060TIP3   OH2 3185   1.048   5.398   4.800
 1060TIP3    H1 3186   0.954   5.417   4.795
 1060TIP3    H2 3187   1.090   5.483   4.795
 1061TIP3   OH2 3188   1.299   5.946   0.699
 1061TIP3    H1 3189   1.350   5.938   0.618
 1061TIP3    H2 3190   1.323   6.032   0.734
 1062TIP3   OH2 3191   0.485   1.566   3.575
 1062TIP3    H1 3192   0.467   1.624   3.501
 1062TIP3    H2 3193   0.548   1.614   3.628
 1063TIP3   OH2 3194   4.662   1.571   2.805
 1063TIP3    H1 3195   4.720   1.647   2.818
 1063TIP3    H2 3196   4.659   1.559   2.710
 1064TIP3   OH2 3197   0.653   3.900   0.665
 1064TIP3    H1 3198   0.667   3.895   0.760
 1064TIP3    H2 3199   0.707   3.830   0.629
 1065TIP3   OH2 3200   3.244   4.356   4.044
 1065TIP3    H1 3201   3.251   4.441   4.088
 1065TIP3    H2 3202   3.167   4.364   3.989
 1066TIP3   OH2 3203   4.105   2.019   4.674
 1066TIP3    H1 3204   4.168   2.080   4.713
 1066TIP3    H2 3205   4.159   1.951   4.635
 1067TIP3   OH2 3206   2.355   0.253   1.056
 1067TIP3    H1 3207   2.364   0.211   1.141
 1067TIP3    H2 3208   2.445   0.262   1.024
 1068TIP3   OH2 3209   3.396   3.012   0.387
 1068TIP3    H1 3210   3.403   2.922   0.421
 1068TIP3    H2 3211   3.482   3.050   0.403
 1069TIP3   OH2 3212   2.912   4.447   2.160
 1069TIP3    H1 3213   2.877   4.360   2.181
 1069TIP3    H2 3214   3.005   4.441   2.181
 1070TIP3   OH2 3215   0.126   2.620   2.516
 1070TIP3    H1 3216   0.045   2.667   2.501
 1070TIP3    H2 3217   0.115   2.579   2.602
 1071TIP3   OH2 3218   5.177   5.515   2.120
 1071TIP3    H1 3219   5.165   5.539   2.212
 1071TIP3    H2 3220   5.141   5.427   2.112
 1072TIP3   OH2 3221   0.898   4.738   3.192
 1072TIP3    H1 3222   0.962   4.778   3.251
 1072TIP3    H2 3223   0.820   4.793   3.200
 1073TIP3   OH2 3224   2.439   0.231   3.170
 1073TIP3    H1 3225   2.430   0.206   3.263
 1073TIP3    H2 3226   2.397   0.317   3.164
 1074TIP3   OH2 3227   6.105   3.202   3.746
 1074TIP3    H1 3228   6.187   3.246   3.721
 1074TIP3    H2 3229   6.131   3.143   3.817
 1075TIP3   OH2 3230   2.751   3.830   3.035
 1075TIP3    H1 3231   2.713   3.916   3.016
 1075TIP3    H2 3232   2.721   3.774   2.964
 1076TIP3   OH2 3233   4.705   3.711   3.138
 1076TIP3    H1 3234   4.714   3.806   3.132
 1076TIP3    H2 3235   4.631   3.697   3.198
 1077TIP3   OH2 3236   3.236   2.051   0.275
 1077TIP3    H1 3237   3.181   1.975   0.257
 1077TIP3    H2 3238   3.206   2.118   0.213
 1078TIP3   OH2 3239   1.809   5.573   3.657
 1078TIP3    H1 3240   1.768   5.638   3.600
 1078TIP3    H2 3241   1.902   5.576   3.634
 1079TIP3   OH2 3242   4.778   1.187   3.208
 1079TIP3    H1 3243   4.708   1.155   3.150
 1079TIP3    H2 3244   4.768   1.135   3.288
 1080TIP3   OH2 3245   1.151   0.430   0.265
 1080TIP3    H1 3246   1.235   0.384   0.268
 1080TIP3    H2 3247   1.103   0.397   0.341
 1081TIP3   OH2 3248   5.865   4.935   3.284
 1081TIP3    H1 3249   5.942   4.986   3.308
 1081TIP3    H2 3250   5.900   4.852   3.252
 1082TIP3   OH2 3251   5.252   1.640   1.970
 1082TIP3    H1 3252   5.287   1.620   1.883
 1082TIP3    H2 3253   5.157   1.639   1.960
 1083TIP3   OH2 3254   5.501   1.015   4.713
 1083TIP3    H1 3255   5.564   1.050   4.649
 1083TIP3    H2 3256   5.554   0.965   4.774
 1084TIP3   OH2 3257   5.229   1.028   4.346
 1084TIP3    H1 3258   5.221   0.939   4.381
 1084TIP3    H2 3259   5.282   1.075   4.412
 1085TIP3   OH2 3260   2.276   5.202   3.021
 1085TIP3    H1 3261   2.192   5.247   3.037
 1085TIP3    H2 3262   2.326   5.217   3.101
 1086TIP3   OH2 3263   3.278   0.469   3.898
 1086TIP3    H1 3264   3.309   0.455   3.987
 1086TIP3    H2 3265   3.183   0.480   3.906
 1087TIP3   OH2 3266   2.716   4.133   3.643
 1087TIP3    H1 3267   2.811   4.128   3.629
 1087TIP3    H2 3268   2.698   4.065   3.707
 1088TIP3   OH2 3269   3.411   0.723   5.033
 1088TIP3    H1 3270   3.327   0.682   5.012
 1088TIP3    H2 3271   3.474   0.651   5.030
 1089TIP3   OH2 3272   3.567   1.057   1.475
 1089TIP3    H1 3273   3.602   1.084   1.560
 1089TIP3    H2 3274   3.644   1.045   1.420
 1090TIP3   OH2 3275   5.198   4.437   1.813
 1090TIP3    H1 3276   5.140   4.423   1.738
 1090TIP3    H2 3277   5.190   4.356   1.864
 1091TIP3   OH2 3278   5.439   0.380   4.125
 1091TIP3    H1 3279   5.440   0.437   4.048
 1091TIP3    H2 3280   5.357   0.401   4.170
 1092TIP3   OH2 3281   0.069   1.800   2.008
 1092TIP3    H1 3282  -0.010   1.756   1.977
 1092TIP3    H2 3283   0.120   1.731   2.051
 1093TIP3   OH2 3284   5.520   0.537   3.332
 1093TIP3    H1 3285   5.555   0.538   3.243
 1093TIP3    H2 3286   5.551   0.618   3.372
 1094TIP3   OH2 3287   2.912   1.374   4.146
 1094TIP3    H1 3288   2.998   1.414   4.142
 1094TIP3    H2 3289   2.874   1.406   4.227
 1095TIP3   OH2 3290   2.995   0.514   3.967
 1095TIP3    H1 3291   2.917   0.537   4.018
 1095TIP3    H2 3292   2.962   0.499   3.878
 1096TIP3   OH2 3293   5.321   0.881   1.583
 1096TIP3    H1 3294   5.377   0.878   1.661
 1096TIP3    H2 3295   5.361   0.947   1.527
 1097TIP3   OH2 3296   3.081   2.105   0.588
 1097TIP3    H1 3297   3.054   2.121   0.679
 1097TIP3    H2 3298   3.171   2.137   0.584
 1098TIP3   OH2 3299   6.244   5.881   3.282
 1098TIP3    H1 3300   6.206   5.820   3.218
 1098TIP3    H2 3301   6.282   5.951   3.228
 1099TIP3   OH2 3302   0.661   1.166   4.446
 1099TIP3    H1 3303   0.652   1.204   4.534
 1099TIP3    H2 3304   0.572   1.139   4.423
 1100TIP3   OH2 3305   1.043   1.802   2.209
 1100TIP3    H1 3306   1.028   1.761   2.124
 1100TIP3    H2 3307   1.042   1.728   2.271
 1101TIP3   OH2 3308   5.058   4.527   2.342
 1101TIP3    H1 3309   4.986   4.547   2.282
 1101TIP3    H2 3310   5.100   4.450   2.304
 1102TIP3   OH2 3311   0.592   3.562   0.647
 1102TIP3    H1 3312   0.676   3.523   0.669
 1102TIP3    H2 3313   0.604   3.595   0.558
 1103TIP3   OH2 3314   3.524   3.057   2.128
 1103TIP3    H1 3315   3.519   3.105   2.045
 1103TIP3    H2 3316   3.545   2.968   2.103
 1104TIP3   OH2 3317   2.374   1.997   2.541
 1104TIP3    H1 3318   2.371   1.968   2.632
 1104TIP3    H2 3319   2.413   2.084   2.545
 1105TIP3   OH2 3320   1.880   2.409   1.062
 1105TIP3    H1 3321   1.934   2.351   1.009
 1105TIP3    H2 3322   1.917   2.496   1.048
 1106TIP3   OH2 3323   1.341   2.432   2.620
 1106TIP3    H1 3324   1.258   2.390   2.643
 1106TIP3    H2 3325   1.398   2.416   2.695
 1107TIP3   OH2 3326   0.715   0.192   1.980
 1107TIP3    H1 3327   0.693   0.283   1.960
 1107TIP3    H2 3328   0.786   0.171   1.920
 1108TIP3   OH2 3329   2.176   3.838   2.672
 1108TIP3    H1 3330   2.122   3.797   2.740
 1108TIP3    H2 3331   2.117   3.847   2.598
 1109TIP3   OH2 3332   3.358   5.887   2.654
 1109TIP3    H1 3333   3.383   5.799   2.680
 1109TIP3    H2 3334   3.294   5.874   2.584
 1110TIP3   OH2 3335   3.790   0.236   1.948
 1110TIP3    H1 3336   3.761   0.158   1.901
 1110TIP3    H2 3337   3.752   0.227   2.035
 1111TIP3   OH2 3338   2.476   4.506   0.203
 1111TIP3    H1 3339   2.571   4.504   0.195
 1111TIP3    H2 3340   2.454   4.600   0.205
 1112TIP3   OH2 3341   5.035   5.886   3.335
 1112TIP3    H1 3342   5.021   5.872   3.242
 1112TIP3    H2 3343   5.122   5.926   3.340
 1113TIP3   OH2 3344   2.371   3.565   0.652
 1113TIP3    H1 3345   2.327   3.590   0.571
 1113TIP3    H2 3346   2.304   3.573   0.720
 1114TIP3   OH2 3347   6.008   5.274   3.279
 1114TIP3    H1 3348   6.081   5.335   3.283
 1114TIP3    H2 3349   6.041   5.193   3.319
 1115TIP3   OH2 3350   5.800   4.828   1.317
 1115TIP3    H1 3351   5.860   4.841   1.244
 1115TIP3    H2 3352   5.851   4.782   1.383
 1116TIP3   OH2 3353   2.615   0.991   3.863
 1116TIP3    H1 3354   2.617   0.902   3.898
 1116TIP3    H2 3355   2.548   0.988   3.795
 1117TIP3   OH2 3356   6.231   0.538   0.546
 1117TIP3    H1 3357   6.182   0.458   0.567
 1117TIP3    H2 3358   6.322   0.509   0.540
 1118TIP3   OH2 3359   0.613   1.409   0.220
 1118TIP3    H1 3360   0.676   1.368   0.161
 1118TIP3    H2 3361   0.626   1.364   0.304
 1119TIP3   OH2 3362   5.917   5.669   2.660
 1119TIP3    H1 3363   5.951   5.693   2.574
 1119TIP3    H2 3364   5.822   5.661   2.648
 1120TIP3   OH2 3365   0.923   2.143   3.861
 1120TIP3    H1 3366   0.919   2.214   3.797
 1120TIP3    H2 3367   0.981   2.175   3.930
 1121TIP3   OH2 3368   3.330   5.843   0.249
 1121TIP3    H1 3369   3.346   5.815   0.159
 1121TIP3    H2 3370   3.402   5.804   0.300
 1122TIP3   OH2 3371   4.276   5.501   1.501
 1122TIP3    H1 3372   4.224   5.493   1.581
 1122TIP3    H2 3373   4.236   5.575   1.454
 1123TIP3   OH2 3374   2.261   0.899   3.511
 1123TIP3    H1 3375   2.302   0.829   3.460
 1123TIP3    H2 3376   2.168   0.878   3.511
 1124TIP3   OH2 3377   3.170   3.555   2.367
 1124TIP3    H1 3378   3.224   3.480   2.341
 1124TIP3    H2 3379   3.080   3.523   2.359
 1125TIP3   OH2 3380   4.023   1.438   1.973
 1125TIP3    H1 3381   4.057   1.462   1.887
 1125TIP3    H2 3382   3.929   1.431   1.960
 1126TIP3   OH2 3383   3.757   3.521   1.879
 1126TIP3    H1 3384   3.761   3.426   1.885
 1126TIP3    H2 3385   3.846   3.548   1.860
 1127TIP3   OH2 3386   4.392   4.750   2.760
 1127TIP3    H1 3387   4.362   4.678   2.705
 1127TIP3    H2 3388   4.312   4.790   2.795
 1128TIP3   OH2 3389   4.065   4.849   2.610
 1128TIP3    H1 3390   4.060   4.759   2.580
 1128TIP3    H2 3391   4.073   4.901   2.530
 1129TIP3   OH2 3392   2.370   3.766   2.273
 1129TIP3    H1 3393   2.275   3.772   2.264
 1129TIP3    H2 3394   2.404   3.824   2.205
 1130TIP3   OH2 3395   3.463   5.170   0.442
 1130TIP3    H1 3396   3.527   5.117   0.396
 1130TIP3    H2 3397   3.389   5.177   0.381
 1131TIP3   OH2 3398   2.673   0.515   4.692
 1131TIP3    H1 3399   2.642   0.533   4.781
 1131TIP3    H2 3400   2.604   0.462   4.653
 1132TIP3   OH2 3401   0.964   0.234   2.692
 1132TIP3    H1 3402   1.017   0.297   2.740
 1132TIP3    H2 3403   0.876   0.245   2.727
 1133TIP3   OH2 3404   6.333   5.512   3.168
 1133TIP3    H1 3405   6.355   5.536   3.258
 1133TIP3    H2 3406   6.250   5.558   3.151
 1134TIP3   OH2 3407   3.533   5.453   0.494
 1134TIP3    H1 3408   3.472   5.419   0.559
 1134TIP3    H2 3409   3.602   5.387   0.490
 1135TIP3   OH2 3410   5.469   0.604   4.433
 1135TIP3    H1 3411   5.481   0.575   4.343
 1135TIP3    H2 3412   5.552   0.646   4.456
 1136TIP3   OH2 3413   4.522   5.579   3.039
 1136TIP3    H1 3414   4.530   5.645   2.970
 1136TIP3    H2 3415   4.475   5.507   2.999
 1137TIP3   OH2 3416   3.405   0.018   0.227
 1137TIP3    H1 3417   3.329   0.057   0.183
 1137TIP3    H2 3418   3.419   0.073   0.304
 1138TIP3   OH2 3419   1.684   3.283   2.051
 1138TIP3    H1 3420   1.637   3.270   2.133
 1138TIP3    H2 3421   1.730   3.366   2.062
 1139TIP3   OH2 3422   3.909   0.965   2.803
 1139TIP3    H1 3423   3.918   0.997   2.893
 1139TIP3    H2 3424   3.955   1.030   2.750
 1140TIP3   OH2 3425   5.070   3.629   1.363
 1140TIP3    H1 3426   5.143   3.568   1.356
 1140TIP3    H2 3427   5.110   3.716   1.351
 1141TIP3   OH2 3428   5.004   0.855   5.180
 1141TIP3    H1 3429   5.058   0.923   5.141
 1141TIP3    H2 3430   5.064   0.782   5.194
 1142TIP3   OH2 3431   4.727   5.409   1.940
 1142TIP3    H1 3432   4.693   5.381   2.025
 1142TIP3    H2 3433   4.655   5.459   1.901
 1143TIP3   OH2 3434   0.022   1.207   1.532
 1143TIP3    H1 3435   0.046   1.211   1.440
 1143TIP3    H2 3436  -0.018   1.120   1.542
 1144TIP3   OH2 3437   4.967   3.564   1.698
 1144TIP3    H1 3438   5.009   3.611   1.770
 1144TIP3    H2 3439   4.959   3.629   1.628
 1145TIP3   OH2 3440   0.927   4.048   3.056
 1145TIP3    H1 3441   0.907   4.134   3.020
 1145TIP3    H2 3442   0.854   3.992   3.030
 1146TIP3   OH2 3443   2.613   4.092   1.630
 1146TIP3    H1 3444   2.558   4.014   1.643
 1146TIP3    H2 3445   2.559   4.165   1.658
 1147TIP3   OH2 3446   4.029   2.403   4.714
 1147TIP3    H1 3447   4.054   2.347   4.642
 1147TIP3    H2 3448   4.010   2.343   4.786
 1148TIP3   OH2 3449   4.425   4.805   1.580
 1148TIP3    H1 3450   4.381   4.743   1.638
 1148TIP3    H2 3451   4.384   4.791   1.494
 1149TIP3   OH2 3452   1.463   0.793   2.390
 1149TIP3    H1 3453   1.477   0.722   2.327
 1149TIP3    H2 3454   1.551   0.816   2.419
 1150TIP3   OH2 3455   2.772   4.912   4.518
 1150TIP3    H1 3456   2.777   4.895   4.612
 1150TIP3    H2 3457   2.852   4.962   4.500
 1151TIP3   OH2 3458   4.550   3.990   4.116
 1151TIP3    H1 3459   4.595   4.007   4.034
 1151TIP3    H2 3460   4.511   3.903   4.104
 1152TIP3   OH2 3461   2.231   5.561   3.062
 1152TIP3    H1 3462   2.220   5.556   3.157
 1152TIP3    H2 3463   2.151   5.523   3.027
 1153TIP3   OH2 3464   1.423   1.435   1.146
 1153TIP3    H1 3465   1.390   1.440   1.236
 1153TIP3    H2 3466   1.356   1.387   1.098
 1154TIP3   OH2 3467   5.715   2.040   5.018
 1154TIP3    H1 3468   5.779   2.065   5.085
 1154TIP3    H2 3469   5.638   2.093   5.038
 1155TIP3   OH2 3470   5.983   0.477   2.091
 1155TIP3    H1 3471   6.055   0.541   2.087
 1155TIP3    H2 3472   5.976   0.455   2.184
 1156TIP3   OH2 3473   5.448   2.723   5.067
 1156TIP3    H1 3474   5.426   2.800   5.015
 1156TIP3    H2 3475   5.388   2.655   5.037
 1157TIP3   OH2 3476   6.223   0.918   2.694
 1157TIP3    H1 3477   6.154   0.946   2.633
 1157TIP3    H2 3478   6.250   0.999   2.738
 1158TIP3   OH2 3479   4.547   3.970   4.921
 1158TIP3    H1 3480   4.489   3.998   4.850
 1158TIP3    H2 3481   4.603   3.904   4.881
 1159TIP3   OH2 3482   3.691   4.254   2.188
 1159TIP3    H1 3483   3.683   4.287   2.278
 1159TIP3    H2 3484   3.729   4.328   2.140
 1160TIP3   OH2 3485   4.675   2.680   0.832
 1160TIP3    H1 3486   4.759   2.706   0.872
 1160TIP3    H2 3487   4.638   2.762   0.801
 1161TIP3   OH2 3488   1.523   5.031   0.280
 1161TIP3    H1 3489   1.472   4.997   0.206
 1161TIP3    H2 3490   1.602   5.066   0.241
 1162TIP3   OH2 3491   2.274   1.980   1.963
 1162TIP3    H1 3492   2.328   1.998   1.887
 1162TIP3    H2 3493   2.191   2.023   1.945
 1163TIP3   OH2 3494   3.073   2.352   3.636
 1163TIP3    H1 3495   3.001   2.363   3.574
 1163TIP3    H2 3496   3.031   2.319   3.716
 1164TIP3   OH2 3497   2.898   1.389   2.044
 1164TIP3    H1 3498   2.933   1.304   2.015
 1164TIP3    H2 3499   2.841   1.417   1.973
 1165TIP3   OH2 3500   1.626   2.117   3.356
 1165TIP3    H1 3501   1.664   2.035   3.387
 1165TIP3    H2 3502   1.656   2.183   3.419
 1166TIP3   OH2 3503   5.389   2.496   2.009
 1166TIP3    H1 3504   5.318   2.437   1.984
 1166TIP3    H2 3505   5.467   2.459   1.967
 1167TIP3   OH2 3506   2.192   0.584   3.394
 1167TIP3    H1 3507   2.266   0.643   3.405
 1167TIP3    H2 3508   2.147   0.615   3.315
 1168TIP3   OH2 3509   2.408   3.571   5.043
 1168TIP3    H1 3510   2.383   3.601   4.956
 1168TIP3    H2 3511   2.370   3.483   5.050
 1169TIP3   OH2 3512   1.100   1.768   0.843
 1169TIP3    H1 3513   1.174   1.721   0.883
 1169TIP3    H2 3514   1.063   1.706   0.780
 1170TIP3   OH2 3515   4.462   1.265   3.927
 1170TIP3    H1 3516   4.557   1.255   3.921
 1170TIP3    H2 3517   4.427   1.199   3.867
 1171TIP3   OH2 3518   2.078   2.246   0.964
 1171TIP3    H1 3519   2.138   2.186   1.009
 1171TIP3    H2 3520   2.053   2.199   0.884
 1172TIP3   OH2 3521   4.894   1.044   1.425
 1172TIP3    H1 3522   4.948   0.974   1.461
 1172TIP3    H2 3523   4.805   1.011   1.429
 1173TIP3   OH2 3524   3.926   2.932   4.239
 1173TIP3    H1 3525   3.937   2.869   4.310
 1173TIP3    H2 3526   4.011   2.935   4.196
 1174TIP3   OH2 3527   6.017   3.313   0.364
 1174TIP3    H1 3528   6.040   3.317   0.271
 1174TIP3    H2 3529   6.041   3.224   0.391
 1175TIP3   OH2 3530   4.042   3.904   2.063
 1175TIP3    H1 3531   4.110   3.901   2.131
 1175TIP3    H2 3532   3.970   3.952   2.104
 1176TIP3   OH2 3533   4.931   5.834   3.096
 1176TIP3    H1 3534   4.925   5.739   3.095
 1176TIP3    H2 3535   4.993   5.855   3.026
 1177TIP3   OH2 3536   3.755   5.766   1.269
 1177TIP3    H1 3537   3.678   5.709   1.264
 1177TIP3    H2 3538   3.746   5.824   1.193
 1178TIP3   OH2 3539   0.589   4.221   3.018
 1178TIP3    H1 3540   0.616   4.270   2.941
 1178TIP3    H2 3541   0.626   4.133   3.005
 1179TIP3   OH2 3542   0.506   2.929   3.293
 1179TIP3    H1 3543   0.424   2.922   3.244
 1179TIP3    H2 3544   0.554   2.999   3.249
 1180TIP3   OH2 3545   5.541   5.562   5.118
 1180TIP3    H1 3546   5.484   5.638   5.108
 1180TIP3    H2 3547   5.500   5.511   5.188
 1181TIP3   OH2 3548   1.468   1.181   0.403
 1181TIP3    H1 3549   1.513   1.193   0.319
 1181TIP3    H2 3550   1.538   1.176   0.468
 1182TIP3   OH2 3551   2.654   5.083   2.299
 1182TIP3    H1 3552   2.569   5.056   2.265
 1182TIP3    H2 3553   2.654   5.055   2.390
 1183TIP3   OH2 3554   3.336   1.399   3.181
 1183TIP3    H1 3555   3.283   1.473   3.152
 1183TIP3    H2 3556   3.328   1.335   3.111
 1184TIP3   OH2 3557   5.852   2.992   3.411
 1184TIP3    H1 3558   5.830   3.055   3.342
 1184TIP3    H2 3559   5.947   2.987   3.410
 1185TIP3   OH2 3560   4.789   4.618   0.312
 1185TIP3    H1 3561   4.695   4.610   0.333
 1185TIP3    H2 3562   4.791   4.673   0.234
 1186TIP3   OH2 3563   0.677   3.749   3.392
 1186TIP3    H1 3564   0.645   3.743   3.302
 1186TIP3    H2 3565   0.634   3.826   3.428
 1187TIP3   OH2 3566   6.019   5.488   2.136
 1187TIP3    H1 3567   6.080   5.558   2.160
 1187TIP3    H2 3568   6.026   5.425   2.208
 1188TIP3   OH2 3569   2.440   0.599   0.333
 1188TIP3    H1 3570   2.487   0.544   0.395
 1188TIP3    H2 3571   2.485   0.585   0.249
 1189TIP3   OH2 3572   1.094   1.802   3.195
 1189TIP3    H1 3573   1.105   1.839   3.108
 1189TIP3    H2 3574   1.113   1.708   3.185
 1190TIP3   OH2 3575   1.600   2.692   0.196
 1190TIP3    H1 3576   1.693   2.675   0.179
 1190TIP3    H2 3577   1.588   2.784   0.175
 1191TIP3   OH2 3578   4.954   2.865   3.714
 1191TIP3    H1 3579   5.032   2.862   3.769
 1191TIP3    H2 3580   4.969   2.938   3.654
 1192TIP3   OH2 3581   6.232   5.536   2.903
 1192TIP3    H1 3582   6.293   5.603   2.870
 1192TIP3    H2 3583   6.280   5.493   2.974
 1193TIP3   OH2 3584   5.056   4.266   3.742
 1193TIP3    H1 3585   5.048   4.358   3.717
 1193TIP3    H2 3586   5.148   4.254   3.763
 1194TIP3   OH2 3587   2.780   1.765   2.322
 1194TIP3    H1 3588   2.814   1.680   2.293
 1194TIP3    H2 3589   2.823   1.829   2.265
 1195TIP3   OH2 3590   5.418   4.245   3.041
 1195TIP3    H1 3591   5.461   4.324   3.074
 1195TIP3    H2 3592   5.429   4.181   3.111
 1196TIP3   OH2 3593   0.841   5.721   4.163
 1196TIP3    H1 3594   0.834   5.740   4.070
 1196TIP3    H2 3595   0.844   5.807   4.205
 1197TIP3   OH2 3596   6.133   3.844   4.711
 1197TIP3    H1 3597   6.180   3.853   4.794
 1197TIP3    H2 3598   6.201   3.848   4.644
 1198TIP3   OH2 3599   1.585   0.043   0.654
 1198TIP3    H1 3600   1.635   0.076   0.729
 1198TIP3    H2 3601   1.651   0.017   0.591
 1199TIP3   OH2 3602   0.063   1.650   2.824
 1199TIP3    H1 3603   0.043   1.740   2.798
 1199TIP3    H2 3604   0.024   1.641   2.910
 1200TIP3   OH2 3605   2.893   5.109   2.944
 1200TIP3    H1 3606   2.967   5.075   2.993
 1200TIP3    H2 3607   2.917   5.199   2.922
 1201TIP3   OH2 3608   5.264   5.765   2.985
 1201TIP3    H1 3609   5.221   5.843   2.948
 1201TIP3    H2 3610   5.208   5.693   2.957
 1202TIP3   OH2 3611   1.074   1.500   0.981
 1202TIP3    H1 3612   1.029   1.426   1.021
 1202TIP3    H2 3613   1.102   1.553   1.056
 1203TIP3   OH2 3614   6.027   2.197   0.985
 1203TIP3    H1 3615   5.957   2.206   0.920
 1203TIP3    H2 3616   6.081   2.275   0.974
 1204TIP3   OH2 3617   5.509   3.502   0.956
 1204TIP3    H1 3618   5.484   3.546   0.875
 1204TIP3    H2 3619   5.466   3.416   0.950
 1205TIP3   OH2 3620   1.698   1.897   3.502
 1205TIP3    H1 3621   1.696   1.838   3.577
 1205TIP3    H2 3622   1.763   1.963   3.525
 1206TIP3   OH2 3623   0.834   1.296   0.067
 1206TIP3    H1 3624   0.814   1.207   0.098
 1206TIP3    H2 3625   0.928   1.306   0.084
 1207TIP3   OH2 3626   1.700   4.253   4.268
 1207TIP3    H1 3627   1.713   4.347   4.274
 1207TIP3    H2 3628   1.658   4.240   4.183
 1208TIP3   OH2 3629   5.484   2.279   3.430
 1208TIP3    H1 3630   5.448   2.194   3.455
 1208TIP3    H2 3631   5.414   2.321   3.381
 1209TIP3   OH2 3632   0.356   5.753   0.461
 1209TIP3    H1 3633   0.334   5.731   0.370
 1209TIP3    H2 3634   0.451   5.768   0.459
 1210TIP3   OH2 3635   2.166   3.002   0.398
 1210TIP3    H1 3636   2.249   3.048   0.404
 1210TIP3    H2 3637   2.121   3.023   0.480
 1211TIP3   OH2 3638   3.734   5.182   1.654
 1211TIP3    H1 3639   3.778   5.116   1.707
 1211TIP3    H2 3640   3.641   5.167   1.670
 1212TIP3   OH2 3641   2.586   5.992   4.176
 1212TIP3    H1 3642   2.589   5.974   4.270
 1212TIP3    H2 3643   2.589   5.905   4.135
 1213TIP3   OH2 3644   0.305   4.028   3.723
 1213TIP3    H1 3645   0.315   4.084   3.800
 1213TIP3    H2 3646   0.392   4.024   3.684
 1214TIP3   OH2 3647   1.209   3.523   3.794
 1214TIP3    H1 3648   1.201   3.611   3.832
 1214TIP3    H2 3649   1.171   3.532   3.707
 1215TIP3   OH2 3650   2.712   5.196   0.377
 1215TIP3    H1 3651   2.690   5.278   0.421
 1215TIP3    H2 3652   2.804   5.181   0.399
 1216TIP3   OH2 3653   5.887   1.204   0.871
 1216TIP3    H1 3654   5.805   1.157   0.882
 1216TIP3    H2 3655   5.949   1.158   0.929
 1217TIP3   OH2 3656   5.863   2.565   2.682
 1217TIP3    H1 3657   5.818   2.606   2.756
 1217TIP3    H2 3658   5.928   2.507   2.722
 1218TIP3   OH2 3659   5.496   3.077   4.216
 1218TIP3    H1 3660   5.486   2.985   4.239
 1218TIP3    H2 3661   5.492   3.124   4.299
 1219TIP3   OH2 3662   2.845   4.468   1.352
 1219TIP3    H1 3663   2.864   4.561   1.366
 1219TIP3    H2 3664   2.788   4.466   1.276
 1220TIP3   OH2 3665   1.179   3.734   0.160
 1220TIP3    H1 3666   1.156   3.794   0.232
 1220TIP3    H2 3667   1.206   3.792   0.089
 1221TIP3   OH2 3668   6.261   3.856   4.959
 1221TIP3    H1 3669   6.351   3.849   4.990
 1221TIP3    H2 3670   6.208   3.851   5.039
 1222TIP3   OH2 3671   5.250   0.890   0.121
 1222TIP3    H1 3672   5.255   0.985   0.109
 1222TIP3    H2 3673   5.331   0.857   0.083
 1223TIP3   OH2 3674   2.206   1.401   4.761
 1223TIP3    H1 3675   2.199   1.311   4.793
 1223TIP3    H2 3676   2.149   1.404   4.685
 1224TIP3   OH2 3677   4.011   0.323   4.422
 1224TIP3    H1 3678   3.929   0.313   4.375
 1224TIP3    H2 3679   3.987   0.326   4.514
 1225TIP3   OH2 3680   5.184   0.368   2.566
 1225TIP3    H1 3681   5.157   0.280   2.593
 1225TIP3    H2 3682   5.233   0.402   2.640
 1226TIP3   OH2 3683   0.940   0.281   3.674
 1226TIP3    H1 3684   0.928   0.332   3.754
 1226TIP3    H2 3685   0.893   0.200   3.690
 1227TIP3   OH2 3686   4.112   3.410   1.584
 1227TIP3    H1 3687   4.061   3.333   1.611
 1227TIP3    H2 3688   4.055   3.484   1.604
 1228TIP3   OH2 3689   3.894   0.602   4.353
 1228TIP3    H1 3690   3.831   0.660   4.396
 1228TIP3    H2 3691   3.980   0.631   4.384
 1229TIP3   OH2 3692   1.271   1.848   4.148
 1229TIP3    H1 3693   1.295   1.782   4.083
 1229TIP3    H2 3694   1.182   1.824   4.175
 1230TIP3   OH2 3695   2.683   2.632   1.833
 1230TIP3    H1 3696   2.591   2.607   1.824
 1230TIP3    H2 3697   2.682   2.703   1.897
 1231TIP3   OH2 3698   1.503   2.758   1.620
 1231TIP3    H1 3699   1.577   2.809   1.653
 1231TIP3    H2 3700   1.541   2.672   1.599
 1232TIP3   OH2 3701   2.152   4.211   4.123
 1232TIP3    H1 3702   2.174   4.158   4.199
 1232TIP3    H2 3703   2.058   4.199   4.111
 1233TIP3   OH2 3704   5.603   2.535   3.126
 1233TIP3    H1 3705   5.620   2.599   3.195
 1233TIP3    H2 3706   5.518   2.561   3.089
 1234TIP3   OH2 3707   4.360   1.135   2.593
 1234TIP3    H1 3708   4.424   1.066   2.607
 1234TIP3    H2 3709   4.356   1.146   2.498
 1235TIP3   OH2 3710   0.568   3.896   1.331
 1235TIP3    H1 3711   0.646   3.917   1.383
 1235TIP3    H2 3712   0.564   3.966   1.266
 1236TIP3   OH2 3713   2.656   3.643   0.332
 1236TIP3    H1 3714   2.742   3.684   0.347
 1236TIP3    H2 3715   2.621   3.629   0.419
 1237TIP3   OH2 3716   0.216   1.537   0.968
 1237TIP3    H1 3717   0.146   1.482   0.934
 1237TIP3    H2 3718   0.175   1.587   1.039
 1238TIP3   OH2 3719   5.092   3.946   1.946
 1238TIP3    H1 3720   5.097   3.857   1.911
 1238TIP3    H2 3721   5.005   3.977   1.921
 1239TIP3   OH2 3722   4.839   1.307   2.691
 1239TIP3    H1 3723   4.880   1.346   2.768
 1239TIP3    H2 3724   4.905   1.315   2.622
 1240TIP3   OH2 3725   3.756   1.402   1.914
 1240TIP3    H1 3726   3.784   1.356   1.835
 1240TIP3    H2 3727   3.698   1.340   1.958
 1241TIP3   OH2 3728   1.825   5.788   4.290
 1241TIP3    H1 3729   1.877   5.855   4.335
 1241TIP3    H2 3730   1.734   5.815   4.304
 1242TIP3   OH2 3731   3.881   2.558   0.643
 1242TIP3    H1 3732   3.794   2.521   0.657
 1242TIP3    H2 3733   3.907   2.527   0.557
 1243TIP3   OH2 3734   0.809   4.285   0.641
 1243TIP3    H1 3735   0.743   4.354   0.645
 1243TIP3    H2 3736   0.799   4.237   0.723
 1244TIP3   OH2 3737   3.101   0.347   2.351
 1244TIP3    H1 3738   3.111   0.275   2.289
 1244TIP3    H2 3739   3.071   0.305   2.432
 1245TIP3   OH2 3740   0.720   3.805   1.816
 1245TIP3    H1 3741   0.626   3.793   1.826
 1245TIP3    H2 3742   0.747   3.737   1.754
 1246TIP3   OH2 3743   2.502   3.923   0.021
 1246TIP3    H1 3744   2.537   3.845  -0.022
 1246TIP3    H2 3745   2.489   3.896   0.112
 1247TIP3   OH2 3746   4.489   4.875   0.058
 1247TIP3    H1 3747   4.496   4.848   0.150
 1247TIP3    H2 3748   4.415   4.936   0.057
 1248TIP3   OH2 3749   3.212   2.329   2.340
 1248TIP3    H1 3750   3.188   2.419   2.361
 1248TIP3    H2 3751   3.172   2.276   2.409
 1249TIP3   OH2 3752   1.837   3.422   0.841
 1249TIP3    H1 3753   1.908   3.408   0.778
 1249TIP3    H2 3754   1.760   3.382   0.801
 1250TIP3   OH2 3755   4.873   4.188   2.767
 1250TIP3    H1 3756   4.922   4.117   2.726
 1250TIP3    H2 3757   4.807   4.143   2.821
 1251TIP3   OH2 3758   5.321   0.786   0.750
 1251TIP3    H1 3759   5.272   0.800   0.831
 1251TIP3    H2 3760   5.288   0.703   0.716
 1252TIP3   OH2 3761   2.788   0.485   0.941
 1252TIP3    H1 3762   2.721   0.552   0.929
 1252TIP3    H2 3763   2.819   0.467   0.852
 1253TIP3   OH2 3764   4.978   4.845   1.755
 1253TIP3    H1 3765   4.894   4.863   1.797
 1253TIP3    H2 3766   5.025   4.929   1.757
 1254TIP3   OH2 3767   6.016   3.470   0.095
 1254TIP3    H1 3768   6.082   3.504   0.155
 1254TIP3    H2 3769   6.056   3.390   0.059
 1255TIP3   OH2 3770   6.069   0.826   4.299
 1255TIP3    H1 3771   6.152   0.786   4.273
 1255TIP3    H2 3772   6.002   0.765   4.268
 1256TIP3   OH2 3773   3.657   1.724   4.046
 1256TIP3    H1 3774   3.617   1.804   4.011
 1256TIP3    H2 3775   3.657   1.736   4.141
 1257TIP3   OH2 3776   1.478   4.593   2.380
 1257TIP3    H1 3777   1.460   4.583   2.474
 1257TIP3    H2 3778   1.396   4.629   2.345
 1258TIP3   OH2 3779   2.464   4.039   4.192
 1258TIP3    H1 3780   2.406   3.964   4.197
 1258TIP3    H2 3781   2.551   4.000   4.178
 1259TIP3   OH2 3782   3.803   3.367   1.391
 1259TIP3    H1 3783   3.879   3.330   1.347
 1259TIP3    H2 3784   3.810   3.336   1.481
 1260TIP3   OH2 3785   5.915   3.488   3.925
 1260TIP3    H1 3786   5.868   3.417   3.967
 1260TIP3    H2 3787   5.874   3.568   3.959
 1261TIP3   OH2 3788   1.710   3.293   3.768
 1261TIP3    H1 3789   1.753   3.279   3.684
 1261TIP3    H2 3790   1.708   3.388   3.778
 1262TIP3   OH2 3791   0.809   2.047   1.611
 1262TIP3    H1 3792   0.882   2.054   1.672
 1262TIP3    H2 3793   0.833   2.105   1.539
 1263TIP3   OH2 3794   2.365   3.265   2.847
 1263TIP3    H1 3795   2.457   3.240   2.853
 1263TIP3    H2 3796   2.360   3.319   2.768
 1264TIP3   OH2 3797   1.081   2.465   2.299
 1264TIP3    H1 3798   1.028   2.495   2.372
 1264TIP3    H2 3799   1.019   2.421   2.240
 1265TIP3   OH2 3800   5.284   3.882   4.827
 1265TIP3    H1 3801   5.247   3.849   4.909
 1265TIP3    H2 3802   5.230   3.841   4.759
 1266TIP3   OH2 3803   3.609   5.581   1.147
 1266TIP3    H1 3804   3.543   5.625   1.094
 1266TIP3    H2 3805   3.609   5.491   1.115
 1267TIP3   OH2 3806   4.990   5.288   2.792
 1267TIP3    H1 3807   4.955   5.227   2.728
 1267TIP3    H2 3808   5.048   5.345   2.742
 1268TIP3   OH2 3809   4.275   2.433   1.376
 1268TIP3    H1 3810   4.261   2.512   1.326
 1268TIP3    H2 3811   4.359   2.447   1.421
 1269TIP3   OH2 3812   3.645   0.497   0.646
 1269TIP3    H1 3813   3.676   0.426   0.591
 1269TIP3    H2 3814   3.676   0.577   0.603
 1270TIP3   OH2 3815   3.836   4.558   0.081
 1270TIP3    H1 3816   3.819   4.653   0.078
 1270TIP3    H2 3817   3.931   4.551   0.078
 1271TIP3   OH2 3818   4.293   1.503   2.605
 1271TIP3    H1 3819   4.311   1.591   2.570
 1271TIP3    H2 3820   4.224   1.517   2.670
 1272TIP3   OH2 3821   3.554   5.420   3.701
 1272TIP3    H1 3822   3.484   5.483   3.688
 1272TIP3    H2 3823   3.587   5.438   3.789
 1273TIP3   OH2 3824   5.608   4.226   1.505
 1273TIP3    H1 3825   5.687   4.278   1.493
 1273TIP3    H2 3826   5.588   4.193   1.418
 1274TIP3   OH2 3827   5.542   2.635   2.746
 1274TIP3    H1 3828   5.457   2.669   2.773
 1274TIP3    H2 3829   5.535   2.540   2.760
 1275TIP3   OH2 3830   3.593   2.767   2.147
 1275TIP3    H1 3831   3.664   2.736   2.203
 1275TIP3    H2 3832   3.515   2.760   2.202
 1276TIP3   OH2 3833   0.705   2.997   3.701
 1276TIP3    H1 3834   0.610   3.007   3.689
 1276TIP3    H2 3835   0.717   2.905   3.723
 1277TIP3   OH2 3836   1.375   5.698   2.651
 1277TIP3    H1 3837   1.352   5.697   2.558
 1277TIP3    H2 3838   1.325   5.626   2.688
 1278TIP3   OH2 3839   5.640   4.921   4.903
 1278TIP3    H1 3840   5.683   4.992   4.952
 1278TIP3    H2 3841   5.627   4.958   4.816
 1279TIP3   OH2 3842   1.190   2.166   2.329
 1279TIP3    H1 3843   1.265   2.205   2.284
 1279TIP3    H2 3844   1.134   2.241   2.351
 1280TIP3   OH2 3845   3.368   2.095   0.640
 1280TIP3    H1 3846   3.424   2.019   0.627
 1280TIP3    H2 3847   3.369   2.111   0.734
 1281TIP3   OH2 3848   5.183   3.794   5.068
 1281TIP3    H1 3849   5.141   3.720   5.110
 1281TIP3    H2 3850   5.111   3.851   5.041
 1282TIP3   OH2 3851   2.857   1.548   2.905
 1282TIP3    H1 3852   2.933   1.579   2.856
 1282TIP3    H2 3853   2.811   1.489   2.844
 1283TIP3   OH2 3854   1.504   0.242   4.982
 1283TIP3    H1 3855   1.541   0.206   5.062
 1283TIP3    H2 3856   1.505   0.336   4.995
 1284TIP3   OH2 3857   3.814   0.533   3.264
 1284TIP3    H1 3858   3.882   0.595   3.290
 1284TIP3    H2 3859   3.799   0.552   3.171
 1285TIP3   OH2 3860   3.349   3.988   0.080
 1285TIP3    H1 3861   3.308   4.016  -0.002
 1285TIP3    H2 3862   3.441   4.012   0.070
 1286TIP3   OH2 3863   0.258   3.600   0.374
 1286TIP3    H1 3864   0.199   3.530   0.347
 1286TIP3    H2 3865   0.200   3.675   0.389
 1287TIP3   OH2 3866   4.450   2.181   3.149
 1287TIP3    H1 3867   4.442   2.173   3.244
 1287TIP3    H2 3868   4.386   2.119   3.114
 1288TIP3   OH2 3869   4.905   0.448   2.247
 1288TIP3    H1 3870   4.916   0.395   2.168
 1288TIP3    H2 3871   4.913   0.539   2.216
 1289TIP3   OH2 3872   4.803   5.886   2.509
 1289TIP3    H1 3873   4.757   5.846   2.434
 1289TIP3    H2 3874   4.765   5.973   2.516
 1290TIP3   OH2 3875   4.130   4.008   4.895
 1290TIP3    H1 3876   4.103   4.073   4.960
 1290TIP3    H2 3877   4.213   4.041   4.861
 1291TIP3   OH2 3878   5.196   1.270   1.639
 1291TIP3    H1 3879   5.235   1.272   1.552
 1291TIP3    H2 3880   5.174   1.361   1.658
 1292TIP3   OH2 3881   2.303   4.445   0.435
 1292TIP3    H1 3882   2.359   4.466   0.509
 1292TIP3    H2 3883   2.361   4.447   0.359
 1293TIP3   OH2 3884   6.332   2.306   3.128
 1293TIP3    H1 3885   6.308   2.372   3.193
 1293TIP3    H2 3886   6.248   2.270   3.098
 1294TIP3   OH2 3887   1.693   0.746   3.907
 1294TIP3    H1 3888   1.711   0.840   3.913
 1294TIP3    H2 3889   1.708   0.724   3.815
 1295TIP3   OH2 3890   1.528   2.059   2.013
 1295TIP3    H1 3891   1.572   2.038   2.095
 1295TIP3    H2 3892   1.443   2.016   2.019
 1296TIP3   OH2 3893   0.176   2.697   2.194
 1296TIP3    H1 3894   0.147   2.739   2.275
 1296TIP3    H2 3895   0.192   2.769   2.134
 1297TIP3   OH2 3896   5.438   1.367   5.069
 1297TIP3    H1 3897   5.469   1.298   5.010
 1297TIP3    H2 3898   5.517   1.416   5.093
 1298TIP3   OH2 3899   6.229   4.540   4.031
 1298TIP3    H1 3900   6.137   4.565   4.046
 1298TIP3    H2 3901   6.249   4.478   4.101
 1299TIP3   OH2 3902   1.946   3.605   4.262
 1299TIP3    H1 3903   1.906   3.597   4.176
 1299TIP3    H2 3904   1.944   3.516   4.298
 1300TIP3   OH2 3905   3.525   0.714   4.713
 1300TIP3    H1 3906   3.558   0.633   4.751
 1300TIP3    H2 3907   3.540   0.705   4.619
 1301TIP3   OH2 3908   6.013   2.195   2.349
 1301TIP3    H1 3909   5.947   2.182   2.416
 1301TIP3    H2 3910   6.034   2.289   2.354
 1302TIP3   OH2 3911   4.509   4.875   0.344
 1302TIP3    H1 3912   4.516   4.817   0.420
 1302TIP3    H2 3913   4.473   4.956   0.379
 1303TIP3   OH2 3914   2.233   0.305   3.951
 1303TIP3    H1 3915   2.268   0.262   4.029
 1303TIP3    H2 3916   2.199   0.233   3.897
 1304TIP3   OH2 3917   2.182   4.240   3.580
 1304TIP3    H1 3918   2.101   4.195   3.559
 1304TIP3    H2 3919   2.239   4.172   3.616
 1305TIP3   OH2 3920   1.107   1.902   3.694
 1305TIP3    H1 3921   1.062   1.986   3.702
 1305TIP3    H2 3922   1.112   1.887   3.599
 1306TIP3   OH2 3923   2.543   5.703   1.373
 1306TIP3    H1 3924   2.478   5.639   1.344
 1306TIP3    H2 3925   2.626   5.671   1.339
 1307TIP3   OH2 3926   6.193   2.650   0.603
 1307TIP3    H1 3927   6.123   2.637   0.538
 1307TIP3    H2 3928   6.221   2.561   0.625
 1308TIP3   OH2 3929   0.475   1.944   0.494
 1308TIP3    H1 3930   0.434   1.881   0.434
 1308TIP3    H2 3931   0.402   1.976   0.548
 1309TIP3   OH2 3932   2.125   1.729   2.833
 1309TIP3    H1 3933   2.169   1.690   2.908
 1309TIP3    H2 3934   2.038   1.751   2.865
 1310TIP3   OH2 3935   1.451   5.656   3.492
 1310TIP3    H1 3936   1.513   5.590   3.463
 1310TIP3    H2 3937   1.387   5.608   3.544
 1311TIP3   OH2 3938   1.832   4.793   2.267
 1311TIP3    H1 3939   1.918   4.753   2.282
 1311TIP3    H2 3940   1.805   4.824   2.354
 1312TIP3   OH2 3941   2.431   2.880   2.092
 1312TIP3    H1 3942   2.506   2.915   2.044
 1312TIP3    H2 3943   2.471   2.827   2.162
 1313TIP3   OH2 3944   6.185   4.884   4.003
 1313TIP3    H1 3945   6.110   4.825   3.994
 1313TIP3    H2 3946   6.162   4.959   3.947
 1314TIP3   OH2 3947   2.622   0.545   1.856
 1314TIP3    H1 3948   2.545   0.597   1.837
 1314TIP3    H2 3949   2.641   0.498   1.775
 1315TIP3   OH2 3950   3.229   5.283   4.066
 1315TIP3    H1 3951   3.194   5.371   4.069
 1315TIP3    H2 3952   3.153   5.226   4.081
 1316TIP3   OH2 3953   0.366   2.909   2.485
 1316TIP3    H1 3954   0.387   2.820   2.457
 1316TIP3    H2 3955   0.388   2.964   2.410
 1317TIP3   OH2 3956   1.132   4.142   0.070
 1317TIP3    H1 3957   1.099   4.054   0.050
 1317TIP3    H2 3958   1.132   4.187  -0.015
 1318TIP3   OH2 3959   4.364   5.883   2.585
 1318TIP3    H1 3960   4.299   5.943   2.621
 1318TIP3    H2 3961   4.358   5.894   2.491
 1319TIP3   OH2 3962   3.150   0.125   0.062
 1319TIP3    H1 3963   3.056   0.140   0.069
 1319TIP3    H2 3964   3.189   0.184   0.127
 1320TIP3   OH2 3965   1.182   2.048   0.826
 1320TIP3    H1 3966   1.107   1.993   0.847
 1320TIP3    H2 3967   1.253   2.016   0.881
 1321TIP3   OH2 3968   3.156   5.607   1.930
 1321TIP3    H1 3969   3.250   5.607   1.948
 1321TIP3    H2 3970   3.117   5.566   2.007
 1322TIP3   OH2 3971   3.816   1.814   5.057
 1322TIP3    H1 3972   3.753   1.779   5.120
 1322TIP3    H2 3973   3.801   1.909   5.058
 1323TIP3   OH2 3974   2.442   5.187   0.405
 1323TIP3    H1 3975   2.417   5.244   0.332
 1323TIP3    H2 3976   2.538   5.183   0.399
 1324TIP3   OH2 3977   5.813   5.015   4.172
 1324TIP3    H1 3978   5.840   5.058   4.091
 1324TIP3    H2 3979   5.728   5.054   4.193
 1325TIP3   OH2 3980   1.449   1.020   1.419
 1325TIP3    H1 3981   1.499   0.943   1.447
 1325TIP3    H2 3982   1.505   1.094   1.442
 1326TIP3   OH2 3983   0.268   2.902   4.414
 1326TIP3    H1 3984   0.286   2.924   4.323
 1326TIP3    H2 3985   0.354   2.891   4.454
 1327TIP3   OH2 3986   3.180   3.057   2.183
 1327TIP3    H1 3987   3.236   3.070   2.259
 1327TIP3    H2 3988   3.102   3.012   2.217
 1328TIP3   OH2 3989   6.054   1.332   2.478
 1328TIP3    H1 3990   6.147   1.355   2.485
 1328TIP3    H2 3991   6.008   1.415   2.491
 1329TIP3   OH2 3992   6.046   4.665   2.601
 1329TIP3    H1 3993   6.018   4.756   2.612
 1329TIP3    H2 3994   6.124   4.670   2.547
 1330TIP3   OH2 3995   3.184   1.486   4.533
 1330TIP3    H1 3996   3.248   1.555   4.549
 1330TIP3    H2 3997   3.202   1.420   4.600
 1331TIP3   OH2 3998   0.896   1.847   3.882
 1331TIP3    H1 3999   0.891   1.755   3.907
 1331TIP3    H2 4000   0.967   1.850   3.818
 1332TIP3   OH2 4001   3.605   5.178   4.186
 1332TIP3    H1 4002   3.556   5.260   4.189
 1332TIP3    H2 4003   3.540   5.113   4.160
 1333TIP3   OH2 4004   4.866   0.174   5.106
 1333TIP3    H1 4005   4.883   0.138   5.193
 1333TIP3    H2 4006   4.902   0.263   5.110
 1334TIP3   OH2 4007   5.420   3.711   0.465
 1334TIP3    H1 4008   5.338   3.761   0.459
 1334TIP3    H2 4009   5.451   3.705   0.375
 1335TIP3   OH2 4010   6.056   2.167   4.606
 1335TIP3    H1 4011   6.116   2.139   4.675
 1335TIP3    H2 4012   6.037   2.259   4.627
 1336TIP3   OH2 4013   5.021   3.847   3.369
 1336TIP3    H1 4014   4.987   3.807   3.449
 1336TIP3    H2 4015   5.035   3.774   3.309
 1337TIP3   OH2 4016   1.251   1.941   0.580
 1337TIP3    H1 4017   1.175   1.884   0.567
 1337TIP3    H2 4018   1.243   1.973   0.669
 1338TIP3   OH2 4019   0.263   2.771   2.819
 1338TIP3    H1 4020   0.337   2.831   2.809
 1338TIP3    H2 4021   0.249   2.734   2.732
 1339TIP3   OH2 4022   1.814   0.504   3.949
 1339TIP3    H1 4023   1.856   0.476   3.867
 1339TIP3    H2 4024   1.767   0.584   3.925
 1340TIP3   OH2 4025   2.286   3.417   3.067
 1340TIP3    H1 4026   2.192   3.416   3.085
 1340TIP3    H2 4027   2.297   3.354   2.995
 1341TIP3   OH2 4028   0.826   2.017   4.411
 1341TIP3    H1 4029   0.921   2.006   4.420
 1341TIP3    H2 4030   0.792   1.999   4.498
 1342TIP3   OH2 4031   5.767   5.479   1.339
 1342TIP3    H1 4032   5.676   5.450   1.341
 1342TIP3    H2 4033   5.766   5.558   1.285
 1343TIP3   OH2 4034   1.171   4.563   1.391
 1343TIP3    H1 4035   1.076   4.573   1.401
 1343TIP3    H2 4036   1.182   4.473   1.360
 1344TIP3   OH2 4037   1.589   1.045   0.119
 1344TIP3    H1 4038   1.497   1.060   0.101
 1344TIP3    H2 4039   1.631   1.046   0.032
 1345TIP3   OH2 4040   0.917   0.883   2.603
 1345TIP3    H1 4041   1.007   0.854   2.621
 1345TIP3    H2 4042   0.863   0.805   2.620
 1346TIP3   OH2 4043   5.735   5.874   0.364
 1346TIP3    H1 4044   5.722   5.812   0.292
 1346TIP3    H2 4045   5.648   5.885   0.402
 1347TIP3   OH2 4046   1.506   1.244   1.979
 1347TIP3    H1 4047   1.427   1.201   1.947
 1347TIP3    H2 4048   1.561   1.254   1.902
 1348TIP3   OH2 4049   1.568   4.088   1.726
 1348TIP3    H1 4050   1.484   4.133   1.720
 1348TIP3    H2 4051   1.545   3.996   1.742
 1349TIP3   OH2 4052   3.478   0.623   2.155
 1349TIP3    H1 4053   3.412   0.596   2.091
 1349TIP3    H2 4054   3.452   0.579   2.236
 1350TIP3   OH2 4055   1.865   4.065   4.304
 1350TIP3    H1 4056   1.935   4.089   4.364
 1350TIP3    H2 4057   1.807   4.141   4.303
 1351TIP3   OH2 4058   1.431   2.323   2.863
 1351TIP3    H1 4059   1.362   2.334   2.928
 1351TIP3    H2 4060   1.445   2.228   2.859
 1352TIP3   OH2 4061   5.276   4.040   1.599
 1352TIP3    H1 4062   5.324   4.111   1.556
 1352TIP3    H2 4063   5.210   4.084   1.652
 1353TIP3   OH2 4064   4.296   1.057   3.358
 1353TIP3    H1 4065   4.356   1.128   3.379
 1353TIP3    H2 4066   4.222   1.100   3.316
 1354TIP3   OH2 4067   4.992   4.837   5.219
 1354TIP3    H1 4068   5.060   4.795   5.166
 1354TIP3    H2 4069   4.976   4.921   5.177
 1355TIP3   OH2 4070   0.174   5.709   2.334
 1355TIP3    H1 4071   0.240   5.641   2.351
 1355TIP3    H2 4072   0.224   5.789   2.323
 1356TIP3   OH2 4073   1.792   2.154   2.667
 1356TIP3    H1 4074   1.797   2.247   2.644
 1356TIP3    H2 4075   1.704   2.127   2.641
 1357TIP3   OH2 4076   2.804   1.831   5.024
 1357TIP3    H1 4077   2.830   1.919   4.994
 1357TIP3    H2 4078   2.883   1.779   5.014
 1358TIP3   OH2 4079   6.220   3.869   3.228
 1358TIP3    H1 4080   6.153   3.810   3.193
 1358TIP3    H2 4081   6.236   3.932   3.158
 1359TIP3   OH2 4082   3.153   5.934   3.294
 1359TIP3    H1 4083   3.065   5.969   3.282
 1359TIP3    H2 4084   3.206   6.010   3.318
 1360TIP3   OH2 4085   4.326   1.778   0.023
 1360TIP3    H1 4086   4.389   1.725   0.072
 1360TIP3    H2 4087   4.258   1.717  -0.004
 1361TIP3   OH2 4088   5.668   4.341   2.010
 1361TIP3    H1 4089   5.741   4.282   2.029
 1361TIP3    H2 4090   5.599   4.283   1.977
 1362TIP3   OH2 4091   4.202   1.142   2.130
 1362TIP3    H1 4092   4.181   1.231   2.159
 1362TIP3    H2 4093   4.243   1.155   2.044
 1363TIP3   OH2 4094   5.549   2.218   2.274
 1363TIP3    H1 4095   5.541   2.309   2.246
 1363TIP3    H2 4096   5.491   2.170   2.215
 1364TIP3   OH2 4097   4.953   2.062   5.051
 1364TIP3    H1 4098   4.979   1.975   5.022
 1364TIP3    H2 4099   5.033   2.115   5.043
 1365TIP3   OH2 4100   4.463   5.666   1.179
 1365TIP3    H1 4101   4.369   5.676   1.191
 1365TIP3    H2 4102   4.485   5.586   1.226
 1366TIP3   OH2 4103   5.336   2.761   1.171
 1366TIP3    H1 4104   5.275   2.705   1.123
 1366TIP3    H2 4105   5.388   2.701   1.223
 1367TIP3   OH2 4106   6.288   1.729   2.573
 1367TIP3    H1 4107   6.318   1.655   2.519
 1367TIP3    H2 4108   6.253   1.792   2.509
 1368TIP3   OH2 4109   5.765   4.524   3.555
 1368TIP3    H1 4110   5.719   4.559   3.631
 1368TIP3    H2 4111   5.710   4.451   3.526
 1369TIP3   OH2 4112   1.784   3.222   5.078
 1369TIP3    H1 4113   1.799   3.268   4.996
 1369TIP3    H2 4114   1.700   3.178   5.067
 1370TIP3   OH2 4115   4.963   3.196   1.554
 1370TIP3    H1 4116   5.059   3.193   1.545
 1370TIP3    H2 4117   4.946   3.151   1.637
 1371TIP3   OH2 4118   4.004   6.000   3.821
 1371TIP3    H1 4119   4.076   5.940   3.841
 1371TIP3    H2 4120   3.938   5.946   3.778
 1372TIP3   OH2 4121   1.862   1.144   0.881
 1372TIP3    H1 4122   1.810   1.222   0.861
 1372TIP3    H2 4123   1.905   1.122   0.799
 1373TIP3   OH2 4124   5.376   5.283   1.949
 1373TIP3    H1 4125   5.348   5.282   1.857
 1373TIP3    H2 4126   5.440   5.212   1.955
 1374TIP3   OH2 4127   2.478   3.235   3.820
 1374TIP3    H1 4128   2.403   3.182   3.792
 1374TIP3    H2 4129   2.516   3.186   3.893
 1375TIP3   OH2 4130   1.589   5.453   3.794
 1375TIP3    H1 4131   1.591   5.357   3.789
 1375TIP3    H2 4132   1.670   5.481   3.751
 1376TIP3   OH2 4133   1.895   2.130   1.144
 1376TIP3    H1 4134   1.965   2.171   1.092
 1376TIP3    H2 4135   1.867   2.199   1.204
 1377TIP3   OH2 4136   3.784   4.204   0.404
 1377TIP3    H1 4137   3.813   4.243   0.486
 1377TIP3    H2 4138   3.698   4.243   0.388
 1378TIP3   OH2 4139   4.301   3.433   4.774
 1378TIP3    H1 4140   4.284   3.410   4.866
 1378TIP3    H2 4141   4.304   3.529   4.775
 1379TIP3   OH2 4142   4.987   3.857   1.634
 1379TIP3    H1 4143   5.000   3.952   1.638
 1379TIP3    H2 4144   5.007   3.834   1.544
 1380TIP3   OH2 4145   3.684   4.461   0.866
 1380TIP3    H1 4146   3.695   4.554   0.848
 1380TIP3    H2 4147   3.721   4.449   0.953
 1381TIP3   OH2 4148   5.493   2.353   4.623
 1381TIP3    H1 4149   5.437   2.329   4.549
 1381TIP3    H2 4150   5.578   2.371   4.583
 1382TIP3   OH2 4151   3.840   2.775   2.312
 1382TIP3    H1 4152   3.871   2.711   2.376
 1382TIP3    H2 4153   3.799   2.844   2.363
 1383TIP3   OH2 4154   1.643   5.984   1.801
 1383TIP3    H1 4155   1.668   5.948   1.886
 1383TIP3    H2 4156   1.714   5.958   1.742
 1384TIP3   OH2 4157   6.243   4.727   0.503
 1384TIP3    H1 4158   6.288   4.804   0.468
 1384TIP3    H2 4159   6.311   4.679   0.551
 1385TIP3   OH2 4160   5.231   5.816   1.137
 1385TIP3    H1 4161   5.213   5.722   1.145
 1385TIP3    H2 4162   5.310   5.830   1.189
 1386TIP3   OH2 4163   1.677   5.858   2.800
 1386TIP3    H1 4164   1.742   5.928   2.806
 1386TIP3    H2 4165   1.698   5.799   2.872
 1387TIP3   OH2 4166   1.675   2.986   1.660
 1387TIP3    H1 4167   1.727   3.012   1.736
 1387TIP3    H2 4168   1.626   3.065   1.637
 1388TIP3   OH2 4169   2.444   3.473   0.213
 1388TIP3    H1 4170   2.496   3.553   0.200
 1388TIP3    H2 4171   2.367   3.503   0.261
 1389TIP3   OH2 4172   2.429   1.045   3.663
 1389TIP3    H1 4173   2.360   0.995   3.619
 1389TIP3    H2 4174   2.503   1.043   3.603
 1390TIP3   OH2 4175   4.075   4.655   2.006
 1390TIP3    H1 4176   4.099   4.576   1.957
 1390TIP3    H2 4177   4.131   4.653   2.083
 1391TIP3   OH2 4178   3.877   2.689   1.500
 1391TIP3    H1 4179   3.786   2.676   1.474
 1391TIP3    H2 4180   3.921   2.608   1.474
 1392TIP3   OH2 4181   0.344   3.877   4.637
 1392TIP3    H1 4182   0.427   3.893   4.592
 1392TIP3    H2 4183   0.352   3.925   4.719
 1393TIP3   OH2 4184   3.427   2.761   0.493
 1393TIP3    H1 4185   3.514   2.727   0.473
 1393TIP3    H2 4186   3.368   2.709   0.437
 1394TIP3   OH2 4187   6.167   0.218   3.088
 1394TIP3    H1 4188   6.136   0.224   2.997
 1394TIP3    H2 4189   6.177   0.124   3.103
 1395TIP3   OH2 4190   3.065   0.859   1.359
 1395TIP3    H1 4191   3.054   0.865   1.265
 1395TIP3    H2 4192   3.147   0.905   1.377
 1396TIP3   OH2 4193   5.485   4.854   1.079
 1396TIP3    H1 4194   5.503   4.921   1.145
 1396TIP3    H2 4195   5.571   4.823   1.052
 1397TIP3   OH2 4196   0.115   1.354   2.264
 1397TIP3    H1 4197   0.109   1.323   2.173
 1397TIP3    H2 4198   0.207   1.340   2.288
 1398TIP3   OH2 4199   5.837   1.241   0.505
 1398TIP3    H1 4200   5.854   1.336   0.502
 1398TIP3    H2 4201   5.906   1.207   0.562
 1399TIP3   OH2 4202   4.981   1.883   4.046
 1399TIP3    H1 4203   5.071   1.850   4.048
 1399TIP3    H2 4204   4.984   1.966   4.093
 1400TIP3   OH2 4205   5.717   3.611   4.407
 1400TIP3    H1 4206   5.793   3.662   4.382
 1400TIP3    H2 4207   5.747   3.556   4.479
 1401TIP3   OH2 4208   0.932   1.038   0.921
 1401TIP3    H1 4209   1.017   1.010   0.956
 1401TIP3    H2 4210   0.893   1.091   0.990
 1402TIP3   OH2 4211   6.045   3.815   1.820
 1402TIP3    H1 4212   6.140   3.806   1.807
 1402TIP3    H2 4213   6.015   3.857   1.739
 1403TIP3   OH2 4214   1.087   5.782   1.361
 1403TIP3    H1 4215   0.996   5.758   1.378
 1403TIP3    H2 4216   1.082   5.853   1.297
 1404TIP3   OH2 4217   2.984   4.461   3.501
 1404TIP3    H1 4218   2.955   4.449   3.411
 1404TIP3    H2 4219   2.939   4.541   3.530
 1405TIP3   OH2 4220   3.945   1.221   3.676
 1405TIP3    H1 4221   3.920   1.309   3.650
 1405TIP3    H2 4222   3.869   1.189   3.726
 1406TIP3   OH2 4223   2.774   2.565   0.706
 1406TIP3    H1 4224   2.865   2.542   0.686
 1406TIP3    H2 4225   2.747   2.622   0.634
 1407TIP3   OH2 4226   1.796   5.554   3.029
 1407TIP3    H1 4227   1.866   5.606   2.989
 1407TIP3    H2 4228   1.786   5.591   3.117
 1408TIP3   OH2 4229   5.535   2.051   1.311
 1408TIP3    H1 4230   5.548   1.957   1.312
 1408TIP3    H2 4231   5.478   2.068   1.386
 1409TIP3   OH2 4232   1.443   0.126   2.041
 1409TIP3    H1 4233   1.408   0.212   2.065
 1409TIP3    H2 4234   1.376   0.064   2.068
 1410TIP3   OH2 4235   5.277   0.866   1.948
 1410TIP3    H1 4236   5.225   0.943   1.926
 1410TIP3    H2 4237   5.357   0.875   1.898
 1411TIP3   OH2 4238   3.410   3.415   1.004
 1411TIP3    H1 4239   3.366   3.345   1.053
 1411TIP3    H2 4240   3.480   3.444   1.062
 1412TIP3   OH2 4241   2.399   2.534   4.548
 1412TIP3    H1 4242   2.326   2.595   4.556
 1412TIP3    H2 4243   2.363   2.458   4.504
 1413TIP3   OH2 4244   0.394   1.892   3.975
 1413TIP3    H1 4245   0.462   1.915   3.912
 1413TIP3    H2 4246   0.336   1.833   3.927
 1414TIP3   OH2 4247   1.541   0.017   4.626
 1414TIP3    H1 4248   1.463  -0.002   4.574
 1414TIP3    H2 4249   1.603   0.055   4.564
 1415TIP3   OH2 4250   0.638   5.047   1.508
 1415TIP3    H1 4251   0.559   4.994   1.509
 1415TIP3    H2 4252   0.706   4.990   1.545
 1416TIP3   OH2 4253   5.225   1.274   2.288
 1416TIP3    H1 4254   5.293   1.317   2.238
 1416TIP3    H2 4255   5.206   1.194   2.239
 1417TIP3   OH2 4256   5.026   5.772   0.331
 1417TIP3    H1 4257   5.099   5.819   0.372
 1417TIP3    H2 4258   5.046   5.771   0.238
 1418TIP3   OH2 4259   1.466   4.370   1.062
 1418TIP3    H1 4260   1.482   4.297   1.121
 1418TIP3    H2 4261   1.522   4.440   1.095
 1419TIP3   OH2 4262   2.427   3.236   4.224
 1419TIP3    H1 4263   2.479   3.208   4.148
 1419TIP3    H2 4264   2.344   3.265   4.186
 1420TIP3   OH2 4265   1.614   2.969   4.524
 1420TIP3    H1 4266   1.584   2.879   4.513
 1420TIP3    H2 4267   1.551   3.022   4.475
 1421TIP3   OH2 4268   1.557   1.283   1.509
 1421TIP3    H1 4269   1.489   1.243   1.563
 1421TIP3    H2 4270   1.618   1.322   1.571
 1422TIP3   OH2 4271   0.047   0.271   2.615
 1422TIP3    H1 4272  -0.016   0.276   2.687
 1422TIP3    H2 4273   0.112   0.339   2.634
 1423TIP3   OH2 4274   5.659   0.981   1.385
 1423TIP3    H1 4275   5.639   0.892   1.356
 1423TIP3    H2 4276   5.689   1.026   1.306
 1424TIP3   OH2 4277   3.836   3.888   3.517
 1424TIP3    H1 4278   3.753   3.912   3.558
 1424TIP3    H2 4279   3.870   3.817   3.572
 1425TIP3   OH2 4280   2.876   5.369   1.972
 1425TIP3    H1 4281   2.961   5.366   1.926
 1425TIP3    H2 4282   2.822   5.306   1.925
 1426TIP3   OH2 4283   2.503   3.117   1.521
 1426TIP3    H1 4284   2.576   3.117   1.459
 1426TIP3    H2 4285   2.430   3.153   1.471
 1427TIP3   OH2 4286   5.039   2.540   3.231
 1427TIP3    H1 4287   4.994   2.582   3.157
 1427TIP3    H2 4288   5.020   2.598   3.306
 1428TIP3   OH2 4289   4.219   5.905   4.380
 1428TIP3    H1 4290   4.124   5.917   4.373
 1428TIP3    H2 4291   4.247   5.968   4.446
 1429TIP3   OH2 4292   1.968   3.053   4.016
 1429TIP3    H1 4293   1.932   2.989   3.955
 1429TIP3    H2 4294   2.022   3.110   3.962
 1430TIP3   OH2 4295   2.894   1.900   3.557
 1430TIP3    H1 4296   2.979   1.863   3.580
 1430TIP3    H2 4297   2.906   1.934   3.468
 1431TIP3   OH2 4298   1.336   2.581   1.742
 1431TIP3    H1 4299   1.406   2.639   1.712
 1431TIP3    H2 4300   1.338   2.589   1.838
 1432TIP3   OH2 4301   1.626   4.638   4.033
 1432TIP3    H1 4302   1.564   4.709   4.024
 1432TIP3    H2 4303   1.598   4.573   3.968
 1433TIP3   OH2 4304   2.133   4.448   2.067
 1433TIP3    H1 4305   2.069   4.425   2.135
 1433TIP3    H2 4306   2.089   4.429   1.985
 1434TIP3   OH2 4307   5.643   1.895   4.623
 1434TIP3    H1 4308   5.703   1.822   4.608
 1434TIP3    H2 4309   5.700   1.971   4.635
 1435TIP3   OH2 4310   3.565   4.234   3.670
 1435TIP3    H1 4311   3.530   4.206   3.755
 1435TIP3    H2 4312   3.530   4.170   3.608
 1436TIP3   OH2 4313   5.849   2.456   5.070
 1436TIP3    H1 4314   5.801   2.462   5.153
 1436TIP3    H2 4315   5.781   2.460   5.003
 1437TIP3   OH2 4316   2.736   2.528   2.951
 1437TIP3    H1 4317   2.781   2.458   2.999
 1437TIP3    H2 4318   2.801   2.598   2.946
 1438TIP3   OH2 4319   3.267   1.704   1.666
 1438TIP3    H1 4320   3.324   1.750   1.728
 1438TIP3    H2 4321   3.303   1.616   1.661
 1439TIP3   OH2 4322   6.083   5.086   4.281
 1439TIP3    H1 4323   6.091   5.171   4.239
 1439TIP3    H2 4324   5.992   5.061   4.269
 1440TIP3   OH2 4325   0.099   4.837   4.512
 1440TIP3    H1 4326   0.014   4.796   4.495
 1440TIP3    H2 4327   0.084   4.930   4.497
 1441TIP3   OH2 4328   0.876   3.406   2.519
 1441TIP3    H1 4329   0.965   3.372   2.514
 1441TIP3    H2 4330   0.833   3.353   2.586
 1442TIP3   OH2 4331   2.422   2.203   0.562
 1442TIP3    H1 4332   2.497   2.145   0.575
 1442TIP3    H2 4333   2.381   2.210   0.648
 1443TIP3   OH2 4334   3.190   4.350   2.354
 1443TIP3    H1 4335   3.266   4.308   2.394
 1443TIP3    H2 4336   3.225   4.431   2.315
 1444TIP3   OH2 4337   6.116   3.052   2.338
 1444TIP3    H1 4338   6.210   3.054   2.319
 1444TIP3    H2 4339   6.079   2.996   2.270
 1445TIP3   OH2 4340   2.033   2.106   3.812
 1445TIP3    H1 4341   2.076   2.103   3.727
 1445TIP3    H2 4342   2.084   2.168   3.864
 1446TIP3   OH2 4343   1.128   0.376   1.403
 1446TIP3    H1 4344   1.083   0.296   1.430
 1446TIP3    H2 4345   1.210   0.374   1.452
 1447TIP3   OH2 4346   2.231   2.981   4.946
 1447TIP3    H1 4347   2.287   2.964   4.870
 1447TIP3    H2 4348   2.228   3.077   4.952
 1448TIP3   OH2 4349   3.156   0.432   4.504
 1448TIP3    H1 4350   3.228   0.370   4.493
 1448TIP3    H2 4351   3.141   0.468   4.417
 1449TIP3   OH2 4352   5.663   4.609   2.102
 1449TIP3    H1 4353   5.666   4.518   2.131
 1449TIP3    H2 4354   5.670   4.604   2.006
 1450TIP3   OH2 4355   2.734   1.297   3.953
 1450TIP3    H1 4356   2.756   1.355   3.880
 1450TIP3    H2 4357   2.813   1.297   4.008
 1451TIP3   OH2 4358   1.177   1.697   1.475
 1451TIP3    H1 4359   1.179   1.646   1.556
 1451TIP3    H2 4360   1.119   1.771   1.494
 1452TIP3   OH2 4361   6.238   4.126   1.678
 1452TIP3    H1 4362   6.262   4.179   1.754
 1452TIP3    H2 4363   6.177   4.182   1.628
 1453TIP3   OH2 4364   2.301   1.717   1.988
 1453TIP3    H1 4365   2.241   1.688   2.058
 1453TIP3    H2 4366   2.285   1.811   1.981
 1454TIP3   OH2 4367   0.270   0.699   1.638
 1454TIP3    H1 4368   0.189   0.681   1.686
 1454TIP3    H2 4369   0.337   0.704   1.706
 1455TIP3   OH2 4370   2.669   2.347   4.987
 1455TIP3    H1 4371   2.750   2.345   4.936
 1455TIP3    H2 4372   2.608   2.397   4.932
 1456TIP3   OH2 4373   0.028   3.172   3.379
 1456TIP3    H1 4374   0.105   3.228   3.390
 1456TIP3    H2 4375  -0.026   3.219   3.315
 1457TIP3   OH2 4376   5.816   4.506   2.583
 1457TIP3    H1 4377   5.871   4.583   2.564
 1457TIP3    H2 4378   5.761   4.534   2.656
 1458TIP3   OH2 4379   1.495   4.066   5.045
 1458TIP3    H1 4380   1.533   4.131   4.986
 1458TIP3    H2 4381   1.570   4.027   5.089
 1459TIP3   OH2 4382   0.060   3.143   0.185
 1459TIP3    H1 4383   0.073   3.126   0.091
 1459TIP3    H2 4384   0.149   3.145   0.221
 1460TIP3   OH2 4385   1.682   1.502   0.905
 1460TIP3    H1 4386   1.730   1.480   0.985
 1460TIP3    H2 4387   1.617   1.567   0.932
 1461TIP3   OH2 4388   1.220   2.418   4.373
 1461TIP3    H1 4389   1.192   2.510   4.368
 1461TIP3    H2 4390   1.221   2.399   4.467
 1462TIP3   OH2 4391   6.164   0.971   3.812
 1462TIP3    H1 4392   6.196   0.980   3.723
 1462TIP3    H2 4393   6.172   1.059   3.850
 1463TIP3   OH2 4394   0.139   4.265   3.787
 1463TIP3    H1 4395   0.139   4.347   3.837
 1463TIP3    H2 4396   0.227   4.260   3.751
 1464TIP3   OH2 4397   3.195   1.293   4.713
 1464TIP3    H1 4398   3.261   1.285   4.781
 1464TIP3    H2 4399   3.160   1.205   4.702
 1465TIP3   OH2 4400   6.115   5.711   1.256
 1465TIP3    H1 4401   6.026   5.743   1.273
 1465TIP3    H2 4402   6.104   5.641   1.192
 1466TIP3   OH2 4403   5.895   0.301   1.903
 1466TIP3    H1 4404   5.920   0.364   1.971
 1466TIP3    H2 4405   5.937   0.219   1.930
 1467TIP3   OH2 4406   5.654   0.148   3.367
 1467TIP3    H1 4407   5.722   0.198   3.412
 1467TIP3    H2 4408   5.648   0.066   3.415
 1468TIP3   OH2 4409   0.447   4.266   2.168
 1468TIP3    H1 4410   0.472   4.248   2.078
 1468TIP3    H2 4411   0.467   4.358   2.182
 1469TIP3   OH2 4412   4.094   3.521   3.654
 1469TIP3    H1 4413   4.093   3.452   3.719
 1469TIP3    H2 4414   4.033   3.587   3.687
 1470TIP3   OH2 4415   2.934   1.292   0.473
 1470TIP3    H1 4416   2.895   1.246   0.547
 1470TIP3    H2 4417   2.963   1.222   0.413
 1471TIP3   OH2 4418   3.367   5.134   4.615
 1471TIP3    H1 4419   3.275   5.136   4.588
 1471TIP3    H2 4420   3.404   5.058   4.569
 1472TIP3   OH2 4421   2.333   3.425   1.333
 1472TIP3    H1 4422   2.297   3.434   1.421
 1472TIP3    H2 4423   2.428   3.418   1.346
 1473TIP3   OH2 4424   0.528   5.783   3.058
 1473TIP3    H1 4425   0.469   5.742   3.122
 1473TIP3    H2 4426   0.553   5.711   3.000
 1474TIP3   OH2 4427   0.223   2.008   0.644
 1474TIP3    H1 4428   0.285   2.058   0.697
 1474TIP3    H2 4429   0.210   1.926   0.693
 1475TIP3   OH2 4430   0.761   2.806   0.229
 1475TIP3    H1 4431   0.795   2.750   0.298
 1475TIP3    H2 4432   0.731   2.745   0.161
 1476TIP3   OH2 4433   2.903   2.478   1.246
 1476TIP3    H1 4434   2.833   2.413   1.250
 1476TIP3    H2 4435   2.903   2.518   1.332
 1477TIP3   OH2 4436   5.229   1.502   4.969
 1477TIP3    H1 4437   5.283   1.458   5.034
 1477TIP3    H2 4438   5.152   1.532   5.018
 1478TIP3   OH2 4439   3.027   4.739   4.142
 1478TIP3    H1 4440   3.076   4.805   4.191
 1478TIP3    H2 4441   3.087   4.709   4.074
 1479TIP3   OH2 4442   1.827   2.022   4.470
 1479TIP3    H1 4443   1.899   2.074   4.504
 1479TIP3    H2 4444   1.776   1.999   4.548
 1480TIP3   OH2 4445   1.442   4.180   3.420
 1480TIP3    H1 4446   1.373   4.130   3.377
 1480TIP3    H2 4447   1.491   4.220   3.348
 1481TIP3   OH2 4448   4.400   1.059   4.158
 1481TIP3    H1 4449   4.385   1.084   4.249
 1481TIP3    H2 4450   4.425   1.140   4.114
 1482TIP3   OH2 4451   5.494   2.891   3.745
 1482TIP3    H1 4452   5.536   2.975   3.762
 1482TIP3    H2 4453   5.526   2.834   3.815
 1483TIP3   OH2 4454   4.818   4.599   2.705
 1483TIP3    H1 4455   4.793   4.535   2.639
 1483TIP3    H2 4456   4.881   4.656   2.661
 1484TIP3   OH2 4457   3.742   1.853   2.697
 1484TIP3    H1 4458   3.648   1.837   2.688
 1484TIP3    H2 4459   3.749   1.946   2.717
 1485TIP3   OH2 4460   4.826   5.729   1.108
 1485TIP3    H1 4461   4.885   5.688   1.172
 1485TIP3    H2 4462   4.831   5.672   1.032
 1486TIP3   OH2 4463   6.221   0.291   1.249
 1486TIP3    H1 4464   6.313   0.313   1.264
 1486TIP3    H2 4465   6.172   0.355   1.301
 1487TIP3   OH2 4466   3.599   1.118   0.476
 1487TIP3    H1 4467   3.513   1.099   0.514
 1487TIP3    H2 4468   3.608   1.056   0.404
 1488TIP3   OH2 4469   1.487   2.539  -0.014
 1488TIP3    H1 4470   1.410   2.493   0.020
 1488TIP3    H2 4471   1.522   2.586   0.061
 1489TIP3   OH2 4472   4.392   0.862   3.158
 1489TIP3    H1 4473   4.352   0.890   3.076
 1489TIP3    H2 4474   4.352   0.918   3.225
 1490TIP3   OH2 4475   4.925   2.112   1.473
 1490TIP3    H1 4476   4.871   2.145   1.546
 1490TIP3    H2 4477   4.865   2.060   1.420
 1491TIP3   OH2 4478   1.028   2.985   1.983
 1491TIP3    H1 4479   1.035   3.070   1.939
 1491TIP3    H2 4480   0.949   2.992   2.036
 1492TIP3   OH2 4481   4.096   2.852   2.018
 1492TIP3    H1 4482   4.079   2.768   2.061
 1492TIP3    H2 4483   4.039   2.853   1.942
 1493TIP3   OH2 4484   5.103   0.256   2.294
 1493TIP3    H1 4485   5.157   0.327   2.260
 1493TIP3    H2 4486   5.019   0.297   2.314
 1494TIP3   OH2 4487   2.037   4.629   5.072
 1494TIP3    H1 4488   2.127   4.637   5.105
 1494TIP3    H2 4489   2.036   4.544   5.027
 1495TIP3   OH2 4490   5.355   4.727   0.686
 1495TIP3    H1 4491   5.321   4.741   0.774
 1495TIP3    H2 4492   5.377   4.634   0.682
 1496TIP3   OH2 4493   3.674   2.337   1.710
 1496TIP3    H1 4494   3.679   2.413   1.768
 1496TIP3    H2 4495   3.643   2.371   1.627
 1497TIP3   OH2 4496   4.755   3.936   3.354
 1497TIP3    H1 4497   4.848   3.939   3.333
 1497TIP3    H2 4498   4.720   4.018   3.318
 1498TIP3   OH2 4499   4.275   0.207   3.625
 1498TIP3    H1 4500   4.316   0.267   3.688
 1498TIP3    H2 4501   4.349   0.163   3.583
 1499TIP3   OH2 4502   2.555   4.576   1.137
 1499TIP3    H1 4503   2.618   4.592   1.067
 1499TIP3    H2 4504   2.489   4.643   1.126
 1500TIP3   OH2 4505   3.151   4.493   0.711
 1500TIP3    H1 4506   3.069   4.528   0.747
 1500TIP3    H2 4507   3.126   4.453   0.628
 1501TIP3   OH2 4508   0.339   5.859   2.576
 1501TIP3    H1 4509   0.271   5.792   2.572
 1501TIP3    H2 4510   0.408   5.827   2.518
 1502TIP3   OH2 4511   4.593   5.282   4.324
 1502TIP3    H1 4512   4.651   5.287   4.400
 1502TIP3    H2 4513   4.570   5.189   4.317
 1503TIP3   OH2 4514   5.676   5.618   1.659
 1503TIP3    H1 4515   5.714   5.545   1.708
 1503TIP3    H2 4516   5.713   5.696   1.701
 1504TIP3   OH2 4517   1.618   5.697   1.340
 1504TIP3    H1 4518   1.667   5.681   1.260
 1504TIP3    H2 4519   1.549   5.758   1.314
 1505TIP3   OH2 4520   1.019   3.686   4.995
 1505TIP3    H1 4521   1.008   3.642   4.910
 1505TIP3    H2 4522   1.114   3.688   5.009
 1506TIP3   OH2 4523   2.617   4.507   2.851
 1506TIP3    H1 4524   2.603   4.506   2.756
 1506TIP3    H2 4525   2.711   4.491   2.862
 1507TIP3   OH2 4526   5.887   5.040   0.311
 1507TIP3    H1 4527   5.851   5.000   0.391
 1507TIP3    H2 4528   5.909   5.129   0.338
 1508TIP3   OH2 4529   5.276   2.779   3.600
 1508TIP3    H1 4530   5.267   2.706   3.662
 1508TIP3    H2 4531   5.358   2.821   3.625
 1509TIP3   OH2 4532   0.388   1.599   3.164
 1509TIP3    H1 4533   0.479   1.620   3.186
 1509TIP3    H2 4534   0.378   1.629   3.074
 1510TIP3   OH2 4535   0.706   3.044   0.692
 1510TIP3    H1 4536   0.639   3.017   0.629
 1510TIP3    H2 4537   0.661   3.106   0.749
 1511TIP3   OH2 4538   4.967   1.695   1.909
 1511TIP3    H1 4539   4.940   1.703   1.817
 1511TIP3    H2 4540   4.933   1.610   1.936
 1512TIP3   OH2 4541   4.304   0.084   5.107
 1512TIP3    H1 4542   4.369   0.078   5.036
 1512TIP3    H2 4543   4.241   0.015   5.088
 1513TIP3   OH2 4544   5.008   5.103   0.256
 1513TIP3    H1 4545   5.051   5.124   0.339
 1513TIP3    H2 4546   4.923   5.067   0.281
 1514TIP3   OH2 4547   3.793   0.903   4.465
 1514TIP3    H1 4548   3.793   0.989   4.507
 1514TIP3    H2 4549   3.821   0.921   4.375
 1515TIP3   OH2 4550   0.900   2.652   2.452
 1515TIP3    H1 4551   0.896   2.605   2.535
 1515TIP3    H2 4552   0.809   2.675   2.434
 1516TIP3   OH2 4553   3.752   4.695   2.727
 1516TIP3    H1 4554   3.823   4.665   2.670
 1516TIP3    H2 4555   3.677   4.707   2.669
 1517TIP3   OH2 4556   6.091   5.776   2.140
 1517TIP3    H1 4557   6.025   5.845   2.130
 1517TIP3    H2 4558   6.166   5.805   2.088
 1518TIP3   OH2 4559   0.811   4.545   1.229
 1518TIP3    H1 4560   0.793   4.523   1.137
 1518TIP3    H2 4561   0.849   4.466   1.266
 1519TIP3   OH2 4562   2.264   1.584   0.045
 1519TIP3    H1 4563   2.230   1.653   0.102
 1519TIP3    H2 4564   2.192   1.523   0.036
 1520TIP3   OH2 4565   0.477   1.033   3.136
 1520TIP3    H1 4566   0.561   1.066   3.105
 1520TIP3    H2 4567   0.420   1.110   3.136
 1521TIP3   OH2 4568   6.378   2.214   0.937
 1521TIP3    H1 4569   6.435   2.266   0.881
 1521TIP3    H2 4570   6.356   2.272   1.010
 1522TIP3   OH2 4571   1.250   1.256   1.019
 1522TIP3    H1 4572   1.195   1.228   1.092
 1522TIP3    H2 4573   1.189   1.296   0.957
 1523TIP3   OH2 4574   4.223   3.285   2.075
 1523TIP3    H1 4575   4.249   3.202   2.115
 1523TIP3    H2 4576   4.128   3.278   2.065
 1524TIP3   OH2 4577   2.813   5.318   0.142
 1524TIP3    H1 4578   2.751   5.295   0.211
 1524TIP3    H2 4579   2.894   5.273   0.167
 1525TIP3   OH2 4580   0.951   3.004   4.830
 1525TIP3    H1 4581   0.857   3.023   4.840
 1525TIP3    H2 4582   0.983   3.074   4.773
 1526TIP3   OH2 4583   4.594   2.697   2.165
 1526TIP3    H1 4584   4.549   2.672   2.085
 1526TIP3    H2 4585   4.667   2.751   2.136
 1527TIP3   OH2 4586   2.593   1.449   2.123
 1527TIP3    H1 4587   2.588   1.542   2.102
 1527TIP3    H2 4588   2.509   1.413   2.093
 1528TIP3   OH2 4589   3.619   4.183   1.570
 1528TIP3    H1 4590   3.608   4.149   1.659
 1528TIP3    H2 4591   3.707   4.220   1.569
 1529TIP3   OH2 4592   1.176   0.846   2.704
 1529TIP3    H1 4593   1.173   0.815   2.794
 1529TIP3    H2 4594   1.229   0.926   2.708
 1530TIP3   OH2 4595   2.684   4.579   5.145
 1530TIP3    H1 4596   2.737   4.571   5.066
 1530TIP3    H2 4597   2.640   4.495   5.154
 1531TIP3   OH2 4598   6.177   3.884   3.505
 1531TIP3    H1 4599   6.265   3.918   3.523
 1531TIP3    H2 4600   6.178   3.860   3.413
 1532TIP3   OH2 4601   3.639   4.035   4.024
 1532TIP3    H1 4602   3.585   4.022   3.946
 1532TIP3    H2 4603   3.645   3.949   4.065
 1533TIP3   OH2 4604   4.549   0.688   3.008
 1533TIP3    H1 4605   4.539   0.742   2.930
 1533TIP3    H2 4606   4.507   0.738   3.078
 1534TIP3   OH2 4607   2.981   3.431   3.639
 1534TIP3    H1 4608   3.054   3.444   3.699
 1534TIP3    H2 4609   2.907   3.409   3.695
 1535TIP3   OH2 4610   6.077   1.597   3.647
 1535TIP3    H1 4611   6.016   1.651   3.698
 1535TIP3    H2 4612   6.056   1.616   3.556
 1536TIP3   OH2 4613   4.356   4.128   1.108
 1536TIP3    H1 4614   4.377   4.077   1.030
 1536TIP3    H2 4615   4.304   4.202   1.076
 1537TIP3   OH2 4616   3.242   1.406   3.443
 1537TIP3    H1 4617   3.163   1.357   3.463
 1537TIP3    H2 4618   3.256   1.392   3.349
 1538TIP3   OH2 4619   1.287   5.091   0.865
 1538TIP3    H1 4620   1.363   5.036   0.850
 1538TIP3    H2 4621   1.215   5.030   0.882
 1539TIP3   OH2 4622   4.405   3.727   3.894
 1539TIP3    H1 4623   4.375   3.808   3.853
 1539TIP3    H2 4624   4.495   3.717   3.865
 1540TIP3   OH2 4625   4.759   0.470   4.099
 1540TIP3    H1 4626   4.827   0.517   4.148
 1540TIP3    H2 4627   4.734   0.397   4.157
 1541TIP3   OH2 4628   2.795   3.930   4.693
 1541TIP3    H1 4629   2.719   3.930   4.634
 1541TIP3    H2 4630   2.762   3.894   4.775
 1542TIP3   OH2 4631   2.385   4.842   2.563
 1542TIP3    H1 4632   2.474   4.819   2.538
 1542TIP3    H2 4633   2.394   4.887   2.647
 1543TIP3   OH2 4634   4.648   4.697   1.431
 1543TIP3    H1 4635   4.598   4.741   1.499
 1543TIP3    H2 4636   4.637   4.751   1.353
 1544TIP3   OH2 4637   4.652   3.702   3.794
 1544TIP3    H1 4638   4.643   3.747   3.710
 1544TIP3    H2 4639   4.703   3.623   3.773
 1545TIP3   OH2 4640   0.105   4.874   3.653
 1545TIP3    H1 4641   0.010   4.866   3.646
 1545TIP3    H2 4642   0.133   4.906   3.568
 1546TIP3   OH2 4643   5.115   4.908   4.765
 1546TIP3    H1 4644   5.197   4.881   4.807
 1546TIP3    H2 4645   5.079   4.828   4.728
 1547TIP3   OH2 4646   3.523   2.544   1.981
 1547TIP3    H1 4647   3.548   2.620   2.034
 1547TIP3    H2 4648   3.523   2.576   1.891
 1548TIP3   OH2 4649   3.128   2.493   3.163
 1548TIP3    H1 4650   3.204   2.505   3.219
 1548TIP3    H2 4651   3.093   2.407   3.187
 1549TIP3   OH2 4652   3.938   5.144   2.147
 1549TIP3    H1 4653   3.935   5.240   2.150
 1549TIP3    H2 4654   3.874   5.120   2.080
 1550TIP3   OH2 4655   1.087   4.660   2.097
 1550TIP3    H1 4656   1.018   4.708   2.052
 1550TIP3    H2 4657   1.164   4.671   2.040
 1551TIP3   OH2 4658   0.183   3.929   4.346
 1551TIP3    H1 4659   0.241   4.004   4.333
 1551TIP3    H2 4660   0.242   3.858   4.374
 1552TIP3   OH2 4661   5.295   0.153   3.861
 1552TIP3    H1 4662   5.254   0.077   3.903
 1552TIP3    H2 4663   5.232   0.224   3.872
 1553TIP3   OH2 4664   2.617   5.578   2.578
 1553TIP3    H1 4665   2.582   5.629   2.505
 1553TIP3    H2 4666   2.626   5.489   2.543
 1554TIP3   OH2 4667   5.311   5.089   0.770
 1554TIP3    H1 4668   5.223   5.108   0.737
 1554TIP3    H2 4669   5.370   5.126   0.704
 1555TIP3   OH2 4670   2.206   5.095   0.224
 1555TIP3    H1 4671   2.240   5.005   0.224
 1555TIP3    H2 4672   2.129   5.092   0.282
 1556TIP3   OH2 4673   0.578   1.687   0.255
 1556TIP3    H1 4674   0.584   1.592   0.262
 1556TIP3    H2 4675   0.653   1.720   0.304
 1557TIP3   OH2 4676   2.976   4.081   1.880
 1557TIP3    H1 4677   2.917   4.015   1.916
 1557TIP3    H2 4678   3.021   4.037   1.808
 1558TIP3   OH2 4679   2.717   0.167   2.661
 1558TIP3    H1 4680   2.648   0.135   2.603
 1558TIP3    H2 4681   2.677   0.241   2.707
 1559TIP3   OH2 4682   6.038   3.038   0.381
 1559TIP3    H1 4683   6.046   2.979   0.306
 1559TIP3    H2 4684   6.127   3.051   0.411
 1560TIP3   OH2 4685   5.485   2.783   4.349
 1560TIP3    H1 4686   5.475   2.819   4.438
 1560TIP3    H2 4687   5.579   2.774   4.338
 1561TIP3   OH2 4688   1.995   3.305   1.687
 1561TIP3    H1 4689   2.015   3.270   1.774
 1561TIP3    H2 4690   1.939   3.381   1.704
 1562TIP3   OH2 4691   2.185   6.018   2.865
 1562TIP3    H1 4692   2.225   6.004   2.779
 1562TIP3    H2 4693   2.248   5.981   2.927
 1563TIP3   OH2 4694   5.537   0.243   1.077
 1563TIP3    H1 4695   5.476   0.303   1.121
 1563TIP3    H2 4696   5.562   0.180   1.145
 1564TIP3   OH2 4697   5.012   5.225   1.255
 1564TIP3    H1 4698   4.962   5.186   1.184
 1564TIP3    H2 4699   4.964   5.199   1.334
 1565TIP3   OH2 4700   2.156   5.017   2.014
 1565TIP3    H1 4701   2.142   4.924   2.032
 1565TIP3    H2 4702   2.086   5.061   2.062
 1566TIP3   OH2 4703   2.375   5.927   1.452
 1566TIP3    H1 4704   2.427   6.001   1.421
 1566TIP3    H2 4705   2.422   5.850   1.422
 1567TIP3   OH2 4706   2.179   0.318   0.153
 1567TIP3    H1 4707   2.139   0.272   0.226
 1567TIP3    H2 4708   2.202   0.404   0.188
 1568TIP3   OH2 4709   4.228   1.657   3.443
 1568TIP3    H1 4710   4.289   1.722   3.479
 1568TIP3    H2 4711   4.220   1.591   3.512
 1569TIP3   OH2 4712   2.549   1.177   4.890
 1569TIP3    H1 4713   2.557   1.095   4.841
 1569TIP3    H2 4714   2.499   1.154   4.968
 1570TIP3   OH2 4715   5.400   3.181   0.007
 1570TIP3    H1 4716   5.476   3.238   0.011
 1570TIP3    H2 4717   5.346   3.218  -0.063
 1571TIP3   OH2 4718   5.733   5.129   5.072
 1571TIP3    H1 4719   5.767   5.165   5.154
 1571TIP3    H2 4720   5.774   5.183   5.003
 1572TIP3   OH2 4721   3.912   3.785   3.021
 1572TIP3    H1 4722   3.839   3.769   3.081
 1572TIP3    H2 4723   3.873   3.780   2.934
 1573TIP3   OH2 4724   4.389   5.088   1.325
 1573TIP3    H1 4725   4.446   5.056   1.255
 1573TIP3    H2 4726   4.442   5.083   1.404
 1574TIP3   OH2 4727   3.071   5.818   4.698
 1574TIP3    H1 4728   3.152   5.866   4.719
 1574TIP3    H2 4729   3.087   5.783   4.610
 1575TIP3   OH2 4730   0.323   3.263   2.572
 1575TIP3    H1 4731   0.356   3.328   2.633
 1575TIP3    H2 4732   0.402   3.222   2.536
 1576TIP3   OH2 4733   4.646   5.291   0.098
 1576TIP3    H1 4734   4.574   5.289   0.034
 1576TIP3    H2 4735   4.643   5.380   0.134
 1577TIP3   OH2 4736   2.993   4.548   1.881
 1577TIP3    H1 4737   2.960   4.523   1.795
 1577TIP3    H2 4738   3.047   4.473   1.908
 1578TIP3   OH2 4739   0.994   5.429   2.989
 1578TIP3    H1 4740   1.019   5.426   3.082
 1578TIP3    H2 4741   0.959   5.517   2.977
 1579TIP3   OH2 4742   6.067   2.724   2.399
 1579TIP3    H1 4743   6.033   2.754   2.315
 1579TIP3    H2 4744   6.062   2.629   2.395
 1580TIP3   OH2 4745   2.369   2.005   4.519
 1580TIP3    H1 4746   2.453   2.019   4.562
 1580TIP3    H2 4747   2.360   1.910   4.512
 1581TIP3   OH2 4748   4.885   1.740   1.655
 1581TIP3    H1 4749   4.916   1.740   1.565
 1581TIP3    H2 4750   4.919   1.822   1.692
 1582TIP3   OH2 4751   0.614   2.407   3.081
 1582TIP3    H1 4752   0.673   2.480   3.098
 1582TIP3    H2 4753   0.581   2.422   2.993
 1583TIP3   OH2 4754   5.936   2.024   0.635
 1583TIP3    H1 4755   5.899   1.942   0.602
 1583TIP3    H2 4756   5.860   2.081   0.649
 1584TIP3   OH2 4757   5.547   1.340   4.656
 1584TIP3    H1 4758   5.542   1.331   4.561
 1584TIP3    H2 4759   5.457   1.360   4.683
 1585TIP3   OH2 4760   0.084   0.814   2.581
 1585TIP3    H1 4761   0.021   0.858   2.637
 1585TIP3    H2 4762   0.032   0.753   2.528
 1586TIP3   OH2 4763   2.413   5.761   5.101
 1586TIP3    H1 4764   2.351   5.772   5.173
 1586TIP3    H2 4765   2.391   5.831   5.040
 1587TIP3   OH2 4766   2.614   4.612   1.693
 1587TIP3    H1 4767   2.546   4.565   1.742
 1587TIP3    H2 4768   2.589   4.600   1.601
 1588TIP3   OH2 4769   5.990   0.360   3.700
 1588TIP3    H1 4770   5.991   0.277   3.652
 1588TIP3    H2 4771   5.949   0.422   3.640
 1589TIP3   OH2 4772   1.831   2.483   5.014
 1589TIP3    H1 4773   1.898   2.471   5.081
 1589TIP3    H2 4774   1.796   2.395   5.000
 1590TIP3   OH2 4775   3.059   5.190   0.179
 1590TIP3    H1 4776   3.147   5.204   0.212
 1590TIP3    H2 4777   3.070   5.134   0.103
 1591TIP3   OH2 4778   2.310   0.902   2.372
 1591TIP3    H1 4779   2.246   0.866   2.311
 1591TIP3    H2 4780   2.260   0.963   2.426
 1592TIP3   OH2 4781   5.822   1.322   3.023
 1592TIP3    H1 4782   5.825   1.271   3.104
 1592TIP3    H2 4783   5.777   1.403   3.047
 1593TIP3   OH2 4784   0.218   1.018   4.367
 1593TIP3    H1 4785   0.299   0.987   4.407
 1593TIP3    H2 4786   0.244   1.094   4.315
 1594TIP3   OH2 4787   4.917   2.976   1.723
 1594TIP3    H1 4788   4.886   2.947   1.638
 1594TIP3    H2 4789   4.960   2.899   1.761
 1595TIP3   OH2 4790   3.128   1.408   2.991
 1595TIP3    H1 4791   3.176   1.389   2.911
 1595TIP3    H2 4792   3.126   1.504   2.996
 1596TIP3   OH2 4793   0.725   2.259   0.093
 1596TIP3    H1 4794   0.705   2.186   0.152
 1596TIP3    H2 4795   0.756   2.217   0.013
 1597TIP3   OH2 4796   2.688   0.333   1.271
 1597TIP3    H1 4797   2.628   0.408   1.273
 1597TIP3    H2 4798   2.669   0.289   1.188
 1598TIP3   OH2 4799   1.316   3.629   1.218
 1598TIP3    H1 4800   1.272   3.627   1.303
 1598TIP3    H2 4801   1.252   3.591   1.157
 1599TIP3   OH2 4802   2.319   0.700   3.867
 1599TIP3    H1 4803   2.355   0.614   3.843
 1599TIP3    H2 4804   2.247   0.713   3.805
 1600TIP3   OH2 4805   4.248   0.096   0.720
 1600TIP3    H1 4806   4.208   0.018   0.759
 1600TIP3    H2 4807   4.207   0.103   0.634
 1601TIP3   OH2 4808   0.723   0.794   1.134
 1601TIP3    H1 4809   0.668   0.869   1.152
 1601TIP3    H2 4810   0.786   0.792   1.206
 1602TIP3   OH2 4811   1.709   3.345   0.102
 1602TIP3    H1 4812   1.758   3.296   0.167
 1602TIP3    H2 4813   1.743   3.435   0.108
 1603TIP3   OH2 4814   3.489   4.974   2.451
 1603TIP3    H1 4815   3.561   5.019   2.406
 1603TIP3    H2 4816   3.491   5.009   2.540
 1604TIP3   OH2 4817   4.523   1.704   3.936
 1604TIP3    H1 4818   4.597   1.643   3.939
 1604TIP3    H2 4819   4.498   1.716   4.028
 1605TIP3   OH2 4820   3.678   4.840   3.840
 1605TIP3    H1 4821   3.733   4.874   3.911
 1605TIP3    H2 4822   3.602   4.899   3.838
 1606TIP3   OH2 4823   4.240   0.611   5.163
 1606TIP3    H1 4824   4.219   0.697   5.127
 1606TIP3    H2 4825   4.325   0.589   5.126
 1607TIP3   OH2 4826   2.686   1.406   0.419
 1607TIP3    H1 4827   2.734   1.434   0.341
 1607TIP3    H2 4828   2.664   1.315   0.401
 1608TIP3   OH2 4829   5.275   1.089   2.785
 1608TIP3    H1 4830   5.215   1.016   2.802
 1608TIP3    H2 4831   5.305   1.115   2.872
 1609TIP3   OH2 4832   5.643   3.247   4.540
 1609TIP3    H1 4833   5.732   3.273   4.563
 1609TIP3    H2 4834   5.588   3.315   4.580
 1610TIP3   OH2 4835   5.756   0.659   1.577
 1610TIP3    H1 4836   5.667   0.632   1.553
 1610TIP3    H2 4837   5.801   0.577   1.600
 1611TIP3   OH2 4838   2.610   5.393   4.902
 1611TIP3    H1 4839   2.667   5.446   4.957
 1611TIP3    H2 4840   2.524   5.397   4.945
 1612TIP3   OH2 4841   5.769   2.236   0.859
 1612TIP3    H1 4842   5.696   2.237   0.798
 1612TIP3    H2 4843   5.792   2.328   0.871
 1613TIP3   OH2 4844   5.450   1.640   1.105
 1613TIP3    H1 4845   5.506   1.691   1.047
 1613TIP3    H2 4846   5.368   1.689   1.107
 1614TIP3   OH2 4847   2.948   0.049   1.416
 1614TIP3    H1 4848   3.030   0.050   1.368
 1614TIP3    H2 4849   2.967   0.093   1.499
 1615TIP3   OH2 4850   5.557   0.835   2.856
 1615TIP3    H1 4851   5.632   0.851   2.799
 1615TIP3    H2 4852   5.543   0.917   2.902
 1616TIP3   OH2 4853   2.170   5.690   2.710
 1616TIP3    H1 4854   2.233   5.761   2.696
 1616TIP3    H2 4855   2.223   5.610   2.710
 1617TIP3   OH2 4856   6.131   2.458   0.918
 1617TIP3    H1 4857   6.151   2.551   0.929
 1617TIP3    H2 4858   6.191   2.428   0.850
 1618TIP3   OH2 4859   5.289   1.807   2.747
 1618TIP3    H1 4860   5.248   1.893   2.743
 1618TIP3    H2 4861   5.287   1.783   2.840
 1619TIP3   OH2 4862   4.561   1.597   3.318
 1619TIP3    H1 4863   4.471   1.566   3.302
 1619TIP3    H2 4864   4.604   1.589   3.233
 1620TIP3   OH2 4865   1.055   2.800   3.885
 1620TIP3    H1 4866   1.056   2.792   3.790
 1620TIP3    H2 4867   0.980   2.749   3.913
 1621TIP3   OH2 4868   3.990   2.235   4.932
 1621TIP3    H1 4869   3.960   2.259   5.020
 1621TIP3    H2 4870   4.011   2.142   4.938
 1622TIP3   OH2 4871   4.488   0.377   3.751
 1622TIP3    H1 4872   4.497   0.319   3.828
 1622TIP3    H2 4873   4.577   0.383   3.716
 1623TIP3   OH2 4874   5.743   5.777   0.853
 1623TIP3    H1 4875   5.780   5.785   0.941
 1623TIP3    H2 4876   5.799   5.833   0.799
 1624TIP3   OH2 4877   1.813   0.595   4.327
 1624TIP3    H1 4878   1.802   0.559   4.415
 1624TIP3    H2 4879   1.878   0.665   4.337
 1625TIP3   OH2 4880   2.292   3.440   3.792
 1625TIP3    H1 4881   2.219   3.404   3.742
 1625TIP3    H2 4882   2.348   3.364   3.810
 1626TIP3   OH2 4883   3.633   5.963   3.590
 1626TIP3    H1 4884   3.588   5.879   3.575
 1626TIP3    H2 4885   3.569   6.016   3.637
 1627TIP3   OH2 4886   5.942   2.519   4.091
 1627TIP3    H1 4887   5.944   2.595   4.032
 1627TIP3    H2 4888   5.926   2.556   4.178
 1628TIP3   OH2 4889   6.160   2.666   1.466
 1628TIP3    H1 4890   6.102   2.628   1.399
 1628TIP3    H2 4891   6.222   2.596   1.487
 1629TIP3   OH2 4892   4.956   4.442   2.878
 1629TIP3    H1 4893   4.934   4.350   2.861
 1629TIP3    H2 4894   4.897   4.491   2.820
 1630TIP3   OH2 4895   1.843   2.384   2.524
 1630TIP3    H1 4896   1.906   2.428   2.580
 1630TIP3    H2 4897   1.821   2.448   2.457
 1631TIP3   OH2 4898   0.034   2.569   5.050
 1631TIP3    H1 4899   0.106   2.580   5.112
 1631TIP3    H2 4900  -0.024   2.504   5.090
 1632TIP3   OH2 4901   1.081   1.007   5.030
 1632TIP3    H1 4902   1.085   0.960   4.947
 1632TIP3    H2 4903   1.111   1.096   5.009
 1633TIP3   OH2 4904   4.083  -0.019   0.299
 1633TIP3    H1 4905   4.051  -0.100   0.339
 1633TIP3    H2 4906   4.032  -0.010   0.218
 1634TIP3   OH2 4907   0.831   1.191   3.666
 1634TIP3    H1 4908   0.856   1.210   3.576
 1634TIP3    H2 4909   0.881   1.112   3.688
 1635TIP3   OH2 4910   1.560   2.679   4.546
 1635TIP3    H1 4911   1.560   2.589   4.578
 1635TIP3    H2 4912   1.621   2.678   4.472
 1636TIP3   OH2 4913   0.200   2.886   0.467
 1636TIP3    H1 4914   0.234   2.894   0.378
 1636TIP3    H2 4915   0.188   2.976   0.496
 1637TIP3   OH2 4916   5.256   2.652   2.318
 1637TIP3    H1 4917   5.194   2.686   2.382
 1637TIP3    H2 4918   5.212   2.576   2.280
 1638TIP3   OH2 4919   4.814   1.919   3.821
 1638TIP3    H1 4920   4.859   1.998   3.789
 1638TIP3    H2 4921   4.852   1.905   3.908
 1639TIP3   OH2 4922   0.797   4.427   4.722
 1639TIP3    H1 4923   0.740   4.351   4.734
 1639TIP3    H2 4924   0.738   4.502   4.722
 1640TIP3   OH2 4925   1.372   2.214   3.779
 1640TIP3    H1 4926   1.354   2.159   3.703
 1640TIP3    H2 4927   1.466   2.229   3.777
 1641TIP3   OH2 4928   4.577   5.647   2.103
 1641TIP3    H1 4929   4.532   5.656   2.187
 1641TIP3    H2 4930   4.555   5.558   2.074
 1642TIP3   OH2 4931   4.091   0.608   4.106
 1642TIP3    H1 4932   4.019   0.565   4.061
 1642TIP3    H2 4933   4.096   0.564   4.191
 1643TIP3   OH2 4934   3.572   1.961   3.939
 1643TIP3    H1 4935   3.612   2.031   3.888
 1643TIP3    H2 4936   3.491   1.999   3.974
 1644TIP3   OH2 4937   2.739   5.773   3.363
 1644TIP3    H1 4938   2.776   5.781   3.275
 1644TIP3    H2 4939   2.811   5.739   3.416
 1645TIP3   OH2 4940   4.308   5.344   2.635
 1645TIP3    H1 4941   4.253   5.313   2.706
 1645TIP3    H2 4942   4.349   5.423   2.669
 1646TIP3   OH2 4943   3.938   2.116   2.055
 1646TIP3    H1 4944   4.016   2.145   2.009
 1646TIP3    H2 4945   3.894   2.197   2.082
 1647TIP3   OH2 4946   0.300   4.413   0.343
 1647TIP3    H1 4947   0.351   4.478   0.294
 1647TIP3    H2 4948   0.364   4.351   0.376
 1648TIP3   OH2 4949   3.323   0.596   0.158
 1648TIP3    H1 4950   3.245   0.633   0.200
 1648TIP3    H2 4951   3.361   0.669   0.110
 1649TIP3   OH2 4952   3.907   2.225   3.161
 1649TIP3    H1 4953   3.944   2.174   3.232
 1649TIP3    H2 4954   3.879   2.160   3.096
 1650TIP3   OH2 4955   5.966   4.698   3.155
 1650TIP3    H1 4956   5.975   4.703   3.060
 1650TIP3    H2 4957   5.879   4.661   3.169
 1651TIP3   OH2 4958   3.157   2.848   2.667
 1651TIP3    H1 4959   3.251   2.845   2.648
 1651TIP3    H2 4960   3.120   2.773   2.619
 1652TIP3   OH2 4961   5.473   1.634   0.782
 1652TIP3    H1 4962   5.408   1.594   0.839
 1652TIP3    H2 4963   5.450   1.602   0.694
 1653TIP3   OH2 4964   0.735   2.683   0.993
 1653TIP3    H1 4965   0.698   2.693   0.906
 1653TIP3    H2 4966   0.708   2.762   1.040
 1654TIP3   OH2 4967   2.131   5.455   1.242
 1654TIP3    H1 4968   2.084   5.491   1.317
 1654TIP3    H2 4969   2.065   5.449   1.173
 1655TIP3   OH2 4970   4.039   3.619   4.888
 1655TIP3    H1 4971   4.119   3.654   4.849
 1655TIP3    H2 4972   4.064   3.595   4.977
 1656TIP3   OH2 4973   2.704   3.630   1.226
 1656TIP3    H1 4974   2.698   3.546   1.180
 1656TIP3    H2 4975   2.772   3.617   1.291
 1657TIP3   OH2 4976   2.385   1.890   2.793
 1657TIP3    H1 4977   2.457   1.869   2.852
 1657TIP3    H2 4978   2.328   1.813   2.796
 1658TIP3   OH2 4979   3.843   0.919   1.898
 1658TIP3    H1 4980   3.880   0.948   1.981
 1658TIP3    H2 4981   3.910   0.862   1.861
 1659TIP3   OH2 4982   2.792   3.680   4.266
 1659TIP3    H1 4983   2.838   3.597   4.273
 1659TIP3    H2 4984   2.720   3.663   4.205
 1660TIP3   OH2 4985   2.689   4.495   2.028
 1660TIP3    H1 4986   2.713   4.435   1.958
 1660TIP3    H2 4987   2.767   4.498   2.084
 1661TIP3   OH2 4988   2.364   2.369   5.081
 1661TIP3    H1 4989   2.273   2.373   5.111
 1661TIP3    H2 4990   2.372   2.442   5.020
 1662TIP3   OH2 4991   0.325   0.499   2.932
 1662TIP3    H1 4992   0.400   0.553   2.955
 1662TIP3    H2 4993   0.322   0.431   2.999
 1663TIP3   OH2 4994   2.606   5.735   4.090
 1663TIP3    H1 4995   2.626   5.647   4.059
 1663TIP3    H2 4996   2.520   5.755   4.052
 1664TIP3   OH2 4997   1.519   4.837   1.249
 1664TIP3    H1 4998   1.447   4.802   1.301
 1664TIP3    H2 4999   1.485   4.918   1.211
 1665TIP3   OH2 5000   3.931   3.068   2.052
 1665TIP3    H1 5001   3.867   3.062   2.123
 1665TIP3    H2 5002   3.994   2.998   2.072
 1666TIP3   OH2 5003   5.002   2.308   3.029
 1666TIP3    H1 5004   4.917   2.350   3.039
 1666TIP3    H2 5005   5.054   2.342   3.102
 1667TIP3   OH2 5006   2.358   3.346   2.004
 1667TIP3    H1 5007   2.397   3.321   1.920
 1667TIP3    H2 5008   2.425   3.325   2.069
 1668TIP3   OH2 5009   1.909   2.119   4.134
 1668TIP3    H1 5010   1.964   2.044   4.112
 1668TIP3    H2 5011   1.828   2.081   4.167
 1669TIP3   OH2 5012   2.196   0.886   1.037
 1669TIP3    H1 5013   2.131   0.940   1.082
 1669TIP3    H2 5014   2.275   0.941   1.034
 1670TIP3   OH2 5015   5.473   4.904   4.441
 1670TIP3    H1 5016   5.532   4.840   4.400
 1670TIP3    H2 5017   5.431   4.948   4.367
 1671TIP3   OH2 5018   0.118   2.923   4.793
 1671TIP3    H1 5019   0.108   2.913   4.888
 1671TIP3    H2 5020   0.184   2.991   4.782
 1672TIP3   OH2 5021   5.989   1.276   5.098
 1672TIP3    H1 5022   6.009   1.369   5.097
 1672TIP3    H2 5023   6.008   1.246   5.009
 1673TIP3   OH2 5024   0.661   2.783   2.452
 1673TIP3    H1 5025   0.603   2.733   2.395
 1673TIP3    H2 5026   0.661   2.871   2.415
 1674TIP3   OH2 5027   0.385   2.388   1.069
 1674TIP3    H1 5028   0.408   2.480   1.081
 1674TIP3    H2 5029   0.406   2.371   0.977
 1675TIP3   OH2 5030   2.858   0.099   3.694
 1675TIP3    H1 5031   2.953   0.102   3.692
 1675TIP3    H2 5032   2.831   0.139   3.611
 1676TIP3   OH2 5033   4.738   4.197   1.068
 1676TIP3    H1 5034   4.708   4.270   1.123
 1676TIP3    H2 5035   4.797   4.237   1.004
 1677TIP3   OH2 5036   3.604   5.784   3.949
 1677TIP3    H1 5037   3.548   5.754   4.021
 1677TIP3    H2 5038   3.621   5.876   3.968
 1678TIP3   OH2 5039   2.444   0.604   0.746
 1678TIP3    H1 5040   2.411   0.666   0.681
 1678TIP3    H2 5041   2.386   0.529   0.741
 1679TIP3   OH2 5042   4.111   1.590   2.779
 1679TIP3    H1 5043   4.111   1.531   2.855
 1679TIP3    H2 5044   4.019   1.594   2.753
 1680TIP3   OH2 5045   6.308   4.668   0.942
 1680TIP3    H1 5046   6.249   4.634   0.875
 1680TIP3    H2 5047   6.252   4.678   1.020
 1681TIP3   OH2 5048   2.055   3.122   1.490
 1681TIP3    H1 5049   2.139   3.163   1.470
 1681TIP3    H2 5050   2.021   3.173   1.564
 1682TIP3   OH2 5051   6.320   1.636   3.760
 1682TIP3    H1 5052   6.298   1.602   3.847
 1682TIP3    H2 5053   6.242   1.620   3.707
 1683TIP3   OH2 5054   5.242   2.206   3.220
 1683TIP3    H1 5055   5.244   2.298   3.249
 1683TIP3    H2 5056   5.323   2.196   3.169
 1684TIP3   OH2 5057   5.752   5.835   2.215
 1684TIP3    H1 5058   5.745   5.828   2.120
 1684TIP3    H2 5059   5.675   5.789   2.248
 1685TIP3   OH2 5060   2.095   0.148   0.338
 1685TIP3    H1 5061   2.090   0.124   0.430
 1685TIP3    H2 5062   2.145   0.076   0.298
 1686TIP3   OH2 5063   0.014   0.402   3.105
 1686TIP3    H1 5064  -0.067   0.352   3.096
 1686TIP3    H2 5065   0.083   0.336   3.102
 1687TIP3   OH2 5066   2.190   5.707   4.154
 1687TIP3    H1 5067   2.130   5.656   4.100
 1687TIP3    H2 5068   2.157   5.797   4.147
 1688TIP3   OH2 5069   3.054   2.190   1.357
 1688TIP3    H1 5070   3.106   2.267   1.333
 1688TIP3    H2 5071   2.978   2.226   1.402
 1689TIP3   OH2 5072   4.820   2.336   3.424
 1689TIP3    H1 5073   4.875   2.414   3.414
 1689TIP3    H2 5074   4.826   2.315   3.517
 1690TIP3   OH2 5075   5.635   3.289   4.951
 1690TIP3    H1 5076   5.646   3.322   5.040
 1690TIP3    H2 5077   5.715   3.240   4.934
 1691TIP3   OH2 5078   4.844   1.444   1.626
 1691TIP3    H1 5079   4.819   1.498   1.701
 1691TIP3    H2 5080   4.849   1.356   1.661
 1692TIP3   OH2 5081   1.499   1.460   0.218
 1692TIP3    H1 5082   1.457   1.546   0.209
 1692TIP3    H2 5083   1.462   1.408   0.147
 1693TIP3   OH2 5084   5.011   0.267   0.706
 1693TIP3    H1 5085   5.093   0.231   0.739
 1693TIP3    H2 5086   5.012   0.249   0.612
 1694TIP3   OH2 5087   4.829   5.947   4.389
 1694TIP3    H1 5088   4.861   5.920   4.303
 1694TIP3    H2 5089   4.750   5.894   4.403
 1695TIP3   OH2 5090   3.328   4.576   2.956
 1695TIP3    H1 5091   3.421   4.597   2.950
 1695TIP3    H2 5092   3.296   4.629   3.029
 1696TIP3   OH2 5093   1.886   0.755   3.295
 1696TIP3    H1 5094   1.849   0.712   3.372
 1696TIP3    H2 5095   1.835   0.836   3.287
 1697TIP3   OH2 5096   4.530   2.301   3.878
 1697TIP3    H1 5097   4.544   2.208   3.897
 1697TIP3    H2 5098   4.451   2.303   3.824
 1698TIP3   OH2 5099   3.666   2.675   1.314
 1698TIP3    H1 5100   3.634   2.741   1.252
 1698TIP3    H2 5101   3.631   2.592   1.280
 1699TIP3   OH2 5102   4.856   5.525   3.897
 1699TIP3    H1 5103   4.857   5.454   3.832
 1699TIP3    H2 5104   4.773   5.569   3.882
 1700TIP3   OH2 5105   0.641   2.658   1.652
 1700TIP3    H1 5106   0.657   2.647   1.746
 1700TIP3    H2 5107   0.726   2.680   1.615
 1701TIP3   OH2 5108   1.427   1.014   3.866
 1701TIP3    H1 5109   1.514   1.047   3.888
 1701TIP3    H2 5110   1.444   0.932   3.820
 1702TIP3   OH2 5111   6.258   2.693   4.838
 1702TIP3    H1 5112   6.233   2.772   4.885
 1702TIP3    H2 5113   6.325   2.652   4.893
 1703TIP3   OH2 5114   6.295   0.008   1.205
 1703TIP3    H1 5115   6.299   0.103   1.214
 1703TIP3    H2 5116   6.363  -0.013   1.140
 1704TIP3   OH2 5117   1.343   2.633   2.032
 1704TIP3    H1 5118   1.267   2.692   2.029
 1704TIP3    H2 5119   1.399   2.668   2.101
 1705TIP3   OH2 5120   4.209   0.777   2.750
 1705TIP3    H1 5121   4.296   0.736   2.744
 1705TIP3    H2 5122   4.179   0.782   2.659
 1706TIP3   OH2 5123   1.113   1.173   3.438
 1706TIP3    H1 5124   1.153   1.129   3.513
 1706TIP3    H2 5125   1.087   1.259   3.471
 1707TIP3   OH2 5126   2.012   2.981   2.677
 1707TIP3    H1 5127   1.954   2.987   2.752
 1707TIP3    H2 5128   2.095   3.016   2.707
 1708TIP3   OH2 5129   0.190   2.438   2.115
 1708TIP3    H1 5130   0.192   2.532   2.133
 1708TIP3    H2 5131   0.126   2.402   2.176
 1709TIP3   OH2 5132   6.299   3.694   1.936
 1709TIP3    H1 5133   6.216   3.648   1.920
 1709TIP3    H2 5134   6.289   3.731   2.024
 1710TIP3   OH2 5135   1.664   1.987   1.734
 1710TIP3    H1 5136   1.738   1.926   1.729
 1710TIP3    H2 5137   1.619   1.978   1.650
 1711TIP3   OH2 5138   3.848   4.716   0.600
 1711TIP3    H1 5139   3.918   4.763   0.646
 1711TIP3    H2 5140   3.792   4.785   0.565
 1712TIP3   OH2 5141   1.133   3.468   2.825
 1712TIP3    H1 5142   1.219   3.487   2.861
 1712TIP3    H2 5143   1.107   3.548   2.780
 1713TIP3   OH2 5144   0.758   5.310   3.920
 1713TIP3    H1 5145   0.756   5.214   3.918
 1713TIP3    H2 5146   0.700   5.334   3.991
 1714TIP3   OH2 5147   2.872   0.155   4.975
 1714TIP3    H1 5148   2.889   0.134   5.067
 1714TIP3    H2 5149   2.815   0.231   4.978
 1715TIP3   OH2 5150   1.981   5.539   1.454
 1715TIP3    H1 5151   1.988   5.632   1.475
 1715TIP3    H2 5152   1.973   5.495   1.539
 1716TIP3   OH2 5153   2.468   0.675   2.836
 1716TIP3    H1 5154   2.462   0.706   2.745
 1716TIP3    H2 5155   2.393   0.617   2.846
 1717TIP3   OH2 5156   6.309   5.860   1.115
 1717TIP3    H1 5157   6.225   5.836   1.155
 1717TIP3    H2 5158   6.302   5.955   1.102
 1718TIP3   OH2 5159   1.005   0.680   5.026
 1718TIP3    H1 5160   1.075   0.737   4.996
 1718TIP3    H2 5161   1.022   0.596   4.983
 1719TIP3   OH2 5162   3.061   1.547   4.286
 1719TIP3    H1 5163   3.126   1.511   4.346
 1719TIP3    H2 5164   3.000   1.595   4.343
 1720TIP3   OH2 5165   4.606   4.378   2.875
 1720TIP3    H1 5166   4.654   4.400   2.955
 1720TIP3    H2 5167   4.520   4.349   2.906
 1721TIP3   OH2 5168   2.618   2.363   3.593
 1721TIP3    H1 5169   2.532   2.332   3.619
 1721TIP3    H2 5170   2.601   2.438   3.536
 1722TIP3   OH2 5171   5.718   5.600   3.431
 1722TIP3    H1 5172   5.631   5.623   3.461
 1722TIP3    H2 5173   5.777   5.638   3.495
 1723TIP3   OH2 5174   1.205   2.964   4.672
 1723TIP3    H1 5175   1.222   3.042   4.724
 1723TIP3    H2 5176   1.259   2.896   4.712
 1724TIP3   OH2 5177   4.149   1.387   2.224
 1724TIP3    H1 5178   4.101   1.421   2.148
 1724TIP3    H2 5179   4.119   1.440   2.297
 1725TIP3   OH2 5180   1.914   4.501   2.587
 1725TIP3    H1 5181   1.890   4.435   2.652
 1725TIP3    H2 5182   1.888   4.463   2.503
 1726TIP3   OH2 5183   5.552   3.794   0.121
 1726TIP3    H1 5184   5.593   3.736   0.185
 1726TIP3    H2 5185   5.541   3.740   0.042
 1727TIP3   OH2 5186   6.182   3.555   4.776
 1727TIP3    H1 5187   6.153   3.645   4.759
 1727TIP3    H2 5188   6.276   3.562   4.789
 1728TIP3   OH2 5189   2.384   1.522   3.668
 1728TIP3    H1 5190   2.401   1.434   3.700
 1728TIP3    H2 5191   2.468   1.551   3.631
 1729TIP3   OH2 5192   5.108   2.697   4.238
 1729TIP3    H1 5193   5.196   2.698   4.201
 1729TIP3    H2 5194   5.087   2.789   4.255
 1730TIP3   OH2 5195   1.841   4.547   0.732
 1730TIP3    H1 5196   1.840   4.643   0.738
 1730TIP3    H2 5197   1.858   4.529   0.639
 1731TIP3   OH2 5198   1.687   3.810   1.153
 1731TIP3    H1 5199   1.778   3.781   1.160
 1731TIP3    H2 5200   1.693   3.897   1.113
 1732TIP3   OH2 5201   3.068   0.135   0.891
 1732TIP3    H1 5202   2.976   0.114   0.875
 1732TIP3    H2 5203   3.068   0.178   0.976
 1733TIP3   OH2 5204   4.467   1.855   0.720
 1733TIP3    H1 5205   4.425   1.791   0.663
 1733TIP3    H2 5206   4.395   1.908   0.755
 1734TIP3   OH2 5207   0.305   0.911   2.194
 1734TIP3    H1 5208   0.326   0.853   2.268
 1734TIP3    H2 5209   0.387   0.955   2.174
 1735TIP3   OH2 5210   0.254   0.609   2.290
 1735TIP3    H1 5211   0.296   0.668   2.352
 1735TIP3    H2 5212   0.278   0.521   2.320
 1736TIP3   OH2 5213   2.420   3.287   0.596
 1736TIP3    H1 5214   2.468   3.323   0.522
 1736TIP3    H2 5215   2.398   3.363   0.650
 1737TIP3   OH2 5216   0.124   1.125   4.611
 1737TIP3    H1 5217   0.087   1.200   4.563
 1737TIP3    H2 5218   0.160   1.069   4.542
 1738TIP3   OH2 5219   6.270   5.616   4.871
 1738TIP3    H1 5220   6.261   5.700   4.915
 1738TIP3    H2 5221   6.254   5.635   4.778
 1739TIP3   OH2 5222   0.787   5.491   4.836
 1739TIP3    H1 5223   0.758   5.531   4.754
 1739TIP3    H2 5224   0.710   5.495   4.893
 1740TIP3   OH2 5225   4.440   2.931   0.170
 1740TIP3    H1 5226   4.424   2.999   0.105
 1740TIP3    H2 5227   4.489   2.864   0.123
 1741TIP3   OH2 5228   5.761   3.807   3.282
 1741TIP3    H1 5229   5.804   3.829   3.200
 1741TIP3    H2 5230   5.829   3.770   3.337
 1742TIP3   OH2 5231   5.416   4.187   0.016
 1742TIP3    H1 5232   5.406   4.171  -0.077
 1742TIP3    H2 5233   5.358   4.124   0.058
 1743TIP3   OH2 5234   3.485   1.963   3.220
 1743TIP3    H1 5235   3.449   2.052   3.229
 1743TIP3    H2 5236   3.574   1.970   3.254
 1744TIP3   OH2 5237   0.903   3.967   2.671
 1744TIP3    H1 5238   0.946   3.962   2.586
 1744TIP3    H2 5239   0.934   3.889   2.718
 1745TIP3   OH2 5240   3.278   1.746   0.858
 1745TIP3    H1 5241   3.217   1.809   0.897
 1745TIP3    H2 5242   3.276   1.671   0.918
 1746TIP3   OH2 5243   1.376   5.763   3.987
 1746TIP3    H1 5244   1.305   5.808   3.943
 1746TIP3    H2 5245   1.361   5.780   4.080
 1747TIP3   OH2 5246   2.015   5.207   4.132
 1747TIP3    H1 5247   2.047   5.272   4.069
 1747TIP3    H2 5248   2.083   5.205   4.200
 1748TIP3   OH2 5249   2.779   3.962   2.027
 1748TIP3    H1 5250   2.715   3.985   2.094
 1748TIP3    H2 5251   2.843   3.907   2.072
 1749TIP3   OH2 5252   2.586   3.559   4.152
 1749TIP3    H1 5253   2.538   3.587   4.075
 1749TIP3    H2 5254   2.519   3.545   4.219
 1750TIP3   OH2 5255   4.736   4.056   0.753
 1750TIP3    H1 5256   4.788   4.087   0.679
 1750TIP3    H2 5257   4.800   4.025   0.816
 1751TIP3   OH2 5258   4.829   1.385   0.457
 1751TIP3    H1 5259   4.880   1.465   0.454
 1751TIP3    H2 5260   4.864   1.332   0.386
 1752TIP3   OH2 5261   5.412   4.157   3.320
 1752TIP3    H1 5262   5.458   4.090   3.370
 1752TIP3    H2 5263   5.337   4.181   3.376
 1753TIP3   OH2 5264   1.794   2.364   0.303
 1753TIP3    H1 5265   1.831   2.442   0.262
 1753TIP3    H2 5266   1.742   2.397   0.376
 1754TIP3   OH2 5267   3.776   5.112   1.210
 1754TIP3    H1 5268   3.838   5.111   1.283
 1754TIP3    H2 5269   3.810   5.047   1.148
 1755TIP3   OH2 5270   1.292   3.927   5.181
 1755TIP3    H1 5271   1.308   3.987   5.254
 1755TIP3    H2 5272   1.302   3.982   5.103
 1756TIP3   OH2 5273   1.196   0.199   0.683
 1756TIP3    H1 5274   1.165   0.154   0.761
 1756TIP3    H2 5275   1.283   0.231   0.706
 1757TIP3   OH2 5276   1.430   4.665   2.911
 1757TIP3    H1 5277   1.353   4.696   2.959
 1757TIP3    H2 5278   1.476   4.745   2.885
 1758TIP3   OH2 5279   5.877   3.429   3.120
 1758TIP3    H1 5280   5.821   3.434   3.043
 1758TIP3    H2 5281   5.963   3.403   3.085
 1759TIP3   OH2 5282   0.567   2.338   1.766
 1759TIP3    H1 5283   0.496   2.330   1.830
 1759TIP3    H2 5284   0.590   2.431   1.768
 1760TIP3   OH2 5285   4.442   3.484   3.432
 1760TIP3    H1 5286   4.432   3.444   3.518
 1760TIP3    H2 5287   4.434   3.411   3.371
 1761TIP3   OH2 5288   0.245   1.245   4.198
 1761TIP3    H1 5289   0.275   1.275   4.112
 1761TIP3    H2 5290   0.187   1.315   4.229
 1762TIP3   OH2 5291   2.628   0.437   2.128
 1762TIP3    H1 5292   2.721   0.417   2.133
 1762TIP3    H2 5293   2.619   0.493   2.051
 1763TIP3   OH2 5294   2.437   4.432   4.263
 1763TIP3    H1 5295   2.499   4.504   4.260
 1763TIP3    H2 5296   2.361   4.464   4.214
 1764TIP3   OH2 5297   2.197   5.101   4.404
 1764TIP3    H1 5298   2.227   5.141   4.322
 1764TIP3    H2 5299   2.265   5.124   4.467
 1765TIP3   OH2 5300   4.169   3.695   0.124
 1765TIP3    H1 5301   4.212   3.610   0.122
 1765TIP3    H2 5302   4.173   3.722   0.216
 1766TIP3   OH2 5303   1.862   1.119   0.158
 1766TIP3    H1 5304   1.778   1.074   0.167
 1766TIP3    H2 5305   1.849   1.203   0.202
 1767TIP3   OH2 5306   5.037   4.151   1.679
 1767TIP3    H1 5307   4.996   4.218   1.624
 1767TIP3    H2 5308   4.979   4.143   1.755
 1768TIP3   OH2 5309   3.343   4.830   1.324
 1768TIP3    H1 5310   3.318   4.920   1.302
 1768TIP3    H2 5311   3.436   4.825   1.303
 1769TIP3   OH2 5312   5.512   3.087   1.419
 1769TIP3    H1 5313   5.513   3.150   1.491
 1769TIP3    H2 5314   5.547   3.006   1.457
 1770TIP3   OH2 5315   5.917   5.909   1.075
 1770TIP3    H1 5316   5.958   5.943   0.996
 1770TIP3    H2 5317   5.911   5.985   1.133
 1771TIP3   OH2 5318   3.056   2.452   1.794
 1771TIP3    H1 5319   3.012   2.373   1.825
 1771TIP3    H2 5320   3.139   2.454   1.842
 1772TIP3   OH2 5321   4.909   3.504   2.743
 1772TIP3    H1 5322   4.930   3.438   2.677
 1772TIP3    H2 5323   4.985   3.561   2.745
 1773TIP3   OH2 5324   1.757   2.240   4.945
 1773TIP3    H1 5325   1.667   2.220   4.920
 1773TIP3    H2 5326   1.770   2.193   5.028
 1774TIP3   OH2 5327   4.670   1.591   2.536
 1774TIP3    H1 5328   4.620   1.608   2.457
 1774TIP3    H2 5329   4.753   1.554   2.505
 1775TIP3   OH2 5330   2.526   0.585   4.063
 1775TIP3    H1 5331   2.520   0.584   3.967
 1775TIP3    H2 5332   2.619   0.572   4.082
 1776TIP3   OH2 5333   4.412   5.280   0.951
 1776TIP3    H1 5334   4.343   5.347   0.951
 1776TIP3    H2 5335   4.364   5.197   0.952
 1777TIP3   OH2 5336   5.400   2.670   4.131
 1777TIP3    H1 5337   5.393   2.587   4.176
 1777TIP3    H2 5338   5.429   2.732   4.198
 1778TIP3   OH2 5339   0.474   3.150   3.470
 1778TIP3    H1 5340   0.487   3.080   3.405
 1778TIP3    H2 5341   0.437   3.105   3.546
 1779TIP3   OH2 5342   3.161   5.663   3.227
 1779TIP3    H1 5343   3.158   5.755   3.252
 1779TIP3    H2 5344   3.235   5.656   3.166
 1780TIP3   OH2 5345   4.215   5.714   1.224
 1780TIP3    H1 5346   4.217   5.809   1.213
 1780TIP3    H2 5347   4.150   5.699   1.293
 1781TIP3   OH2 5348   2.038   4.423   0.043
 1781TIP3    H1 5349   2.062   4.485  -0.026
 1781TIP3    H2 5350   2.121   4.383   0.069
 1782TIP3   OH2 5351   0.959   2.535   4.813
 1782TIP3    H1 5352   0.990   2.472   4.879
 1782TIP3    H2 5353   1.025   2.533   4.744
 1783TIP3   OH2 5354   3.648   2.612   0.401
 1783TIP3    H1 5355   3.740   2.612   0.377
 1783TIP3    H2 5356   3.604   2.568   0.327
 1784TIP3   OH2 5357   4.994   2.424   0.653
 1784TIP3    H1 5358   5.076   2.463   0.683
 1784TIP3    H2 5359   4.970   2.476   0.576
 1785TIP3   OH2 5360   3.417   5.616   3.073
 1785TIP3    H1 5361   3.507   5.590   3.055
 1785TIP3    H2 5362   3.366   5.572   3.005
 1786TIP3   OH2 5363   2.613   2.752   1.465
 1786TIP3    H1 5364   2.696   2.768   1.421
 1786TIP3    H2 5365   2.620   2.800   1.548
 1787TIP3   OH2 5366   5.961   0.280   0.154
 1787TIP3    H1 5367   5.989   0.219   0.222
 1787TIP3    H2 5368   5.992   0.241   0.072
 1788TIP3   OH2 5369   5.886   2.500   3.273
 1788TIP3    H1 5370   5.815   2.563   3.267
 1788TIP3    H2 5371   5.947   2.524   3.203
 1789TIP3   OH2 5372   4.361   3.422   3.665
 1789TIP3    H1 5373   4.281   3.474   3.668
 1789TIP3    H2 5374   4.360   3.373   3.747
 1790TIP3   OH2 5375   6.172   1.370   1.421
 1790TIP3    H1 5376   6.135   1.290   1.384
 1790TIP3    H2 5377   6.187   1.350   1.513
 1791TIP3   OH2 5378   1.571   4.217   3.178
 1791TIP3    H1 5379   1.603   4.305   3.158
 1791TIP3    H2 5380   1.648   4.160   3.167
 1792TIP3   OH2 5381   2.153   0.401   5.146
 1792TIP3    H1 5382   2.120   0.435   5.229
 1792TIP3    H2 5383   2.100   0.444   5.079
 1793TIP3   OH2 5384   5.576   5.959   3.901
 1793TIP3    H1 5385   5.482   5.949   3.891
 1793TIP3    H2 5386   5.609   5.869   3.904
 1794TIP3   OH2 5387   5.727   1.789   3.320
 1794TIP3    H1 5388   5.740   1.827   3.407
 1794TIP3    H2 5389   5.677   1.855   3.273
 1795TIP3   OH2 5390   1.178   5.676   4.837
 1795TIP3    H1 5391   1.090   5.703   4.861
 1795TIP3    H2 5392   1.230   5.757   4.842
 1796TIP3   OH2 5393   5.298   0.400   2.136
 1796TIP3    H1 5394   5.362   0.426   2.070
 1796TIP3    H2 5395   5.273   0.482   2.179
 1797TIP3   OH2 5396   1.821   1.977   0.354
 1797TIP3    H1 5397   1.813   1.902   0.413
 1797TIP3    H2 5398   1.887   2.033   0.394
 1798TIP3   OH2 5399   6.060   4.192   4.968
 1798TIP3    H1 5400   6.105   4.190   4.883
 1798TIP3    H2 5401   5.978   4.239   4.950
 1799TIP3   OH2 5402   5.836   4.530   4.315
 1799TIP3    H1 5403   5.931   4.538   4.318
 1799TIP3    H2 5404   5.818   4.500   4.225
 1800TIP3   OH2 5405   2.763   2.323   2.746
 1800TIP3    H1 5406   2.776   2.363   2.660
 1800TIP3    H2 5407   2.750   2.396   2.806
 1801TIP3   OH2 5408   3.084   0.996   4.306
 1801TIP3    H1 5409   3.023   1.045   4.361
 1801TIP3    H2 5410   3.169   1.007   4.349
 1802TIP3   OH2 5411   3.889   5.184   4.831
 1802TIP3    H1 5412   3.945   5.109   4.854
 1802TIP3    H2 5413   3.894   5.188   4.736
 1803TIP3   OH2 5414   0.534   1.844   4.863
 1803TIP3    H1 5415   0.504   1.923   4.909
 1803TIP3    H2 5416   0.454   1.798   4.841
 1804TIP3   OH2 5417   5.360   3.137   0.280
 1804TIP3    H1 5418   5.376   3.159   0.188
 1804TIP3    H2 5419   5.421   3.066   0.299
 1805TIP3   OH2 5420   4.255   3.738   4.758
 1805TIP3    H1 5421   4.307   3.774   4.686
 1805TIP3    H2 5422   4.276   3.795   4.832
 1806TIP3   OH2 5423   5.245   3.727   2.393
 1806TIP3    H1 5424   5.323   3.678   2.418
 1806TIP3    H2 5425   5.250   3.808   2.443
 1807TIP3   OH2 5426   1.350   2.475   0.676
 1807TIP3    H1 5427   1.281   2.408   0.676
 1807TIP3    H2 5428   1.355   2.503   0.584
 1808TIP3   OH2 5429   1.087   0.341   2.336
 1808TIP3    H1 5430   1.108   0.248   2.326
 1808TIP3    H2 5431   0.992   0.343   2.339
 1809TIP3   OH2 5432   0.363   3.512   5.192
 1809TIP3    H1 5433   0.442   3.532   5.242
 1809TIP3    H2 5434   0.383   3.537   5.102
 1810TIP3   OH2 5435   5.901   3.960   1.535
 1810TIP3    H1 5436   5.962   4.033   1.530
 1810TIP3    H2 5437   5.859   3.957   1.450
 1811TIP3   OH2 5438   0.463   5.591   0.768
 1811TIP3    H1 5439   0.460   5.662   0.832
 1811TIP3    H2 5440   0.375   5.590   0.730
 1812TIP3   OH2 5441   0.381   2.174   0.190
 1812TIP3    H1 5442   0.396   2.160   0.097
 1812TIP3    H2 5443   0.297   2.130   0.207
 1813TIP3   OH2 5444   1.350   3.331   3.677
 1813TIP3    H1 5445   1.288   3.260   3.665
 1813TIP3    H2 5446   1.299   3.401   3.717
 1814TIP3   OH2 5447   3.259   2.424   2.014
 1814TIP3    H1 5448   3.348   2.457   2.025
 1814TIP3    H2 5449   3.247   2.360   2.084
 1815TIP3   OH2 5450   4.661   4.509   3.958
 1815TIP3    H1 5451   4.696   4.576   3.900
 1815TIP3    H2 5452   4.729   4.441   3.959
 1816TIP3   OH2 5453   5.418   4.981   1.660
 1816TIP3    H1 5454   5.394   4.929   1.583
 1816TIP3    H2 5455   5.404   4.923   1.734
 1817TIP3   OH2 5456   4.749   3.502   2.051
 1817TIP3    H1 5457   4.738   3.480   1.959
 1817TIP3    H2 5458   4.835   3.545   2.056
 1818TIP3   OH2 5459   5.826   2.707   1.952
 1818TIP3    H1 5460   5.766   2.652   1.903
 1818TIP3    H2 5461   5.912   2.686   1.916
 1819TIP3   OH2 5462   0.858   5.371   1.295
 1819TIP3    H1 5463   0.763   5.382   1.288
 1819TIP3    H2 5464   0.884   5.334   1.210
 1820TIP3   OH2 5465   3.795   2.458   2.413
 1820TIP3    H1 5466   3.719   2.515   2.418
 1820TIP3    H2 5467   3.763   2.373   2.445
 1821TIP3   OH2 5468   3.238   0.033   4.522
 1821TIP3    H1 5469   3.247   0.128   4.529
 1821TIP3    H2 5470   3.246   0.016   4.428
 1822TIP3   OH2 5471   4.784   5.336   4.142
 1822TIP3    H1 5472   4.761   5.293   4.060
 1822TIP3    H2 5473   4.717   5.306   4.204
 1823TIP3   OH2 5474   2.305   3.818   4.176
 1823TIP3    H1 5475   2.212   3.840   4.166
 1823TIP3    H2 5476   2.307   3.748   4.241
 1824TIP3   OH2 5477   4.256   2.621   4.946
 1824TIP3    H1 5478   4.262   2.705   4.901
 1824TIP3    H2 5479   4.297   2.637   5.031
 1825TIP3   OH2 5480   4.573   1.348   5.137
 1825TIP3    H1 5481   4.574   1.261   5.099
 1825TIP3    H2 5482   4.637   1.398   5.086
 1826TIP3   OH2 5483   5.295   2.057   5.117
 1826TIP3    H1 5484   5.306   1.975   5.069
 1826TIP3    H2 5485   5.348   2.120   5.068
 1827TIP3   OH2 5486   2.244   3.539   4.560
 1827TIP3    H1 5487   2.230   3.600   4.632
 1827TIP3    H2 5488   2.336   3.513   4.569
 1828TIP3   OH2 5489   5.037   1.949   4.401
 1828TIP3    H1 5490   5.064   2.012   4.335
 1828TIP3    H2 5491   5.111   1.888   4.407
 1829TIP3   OH2 5492   2.231   3.639   1.640
 1829TIP3    H1 5493   2.304   3.659   1.581
 1829TIP3    H2 5494   2.164   3.601   1.582
 1830TIP3   OH2 5495   3.953   1.012   3.480
 1830TIP3    H1 5496   3.950   1.093   3.530
 1830TIP3    H2 5497   3.902   0.950   3.531
 1831TIP3   OH2 5498   3.264   4.804   0.707
 1831TIP3    H1 5499   3.354   4.792   0.736
 1831TIP3    H2 5500   3.219   4.725   0.738
 1832TIP3   OH2 5501   3.932   0.292   0.201
 1832TIP3    H1 5502   3.992   0.329   0.265
 1832TIP3    H2 5503   3.982   0.222   0.158
 1833TIP3   OH2 5504   4.625   4.977   3.007
 1833TIP3    H1 5505   4.623   4.882   2.997
 1833TIP3    H2 5506   4.718   4.998   3.016
 1834TIP3   OH2 5507   4.983   2.335   1.190
 1834TIP3    H1 5508   4.905   2.287   1.163
 1834TIP3    H2 5509   4.975   2.420   1.148
 1835TIP3   OH2 5510   2.672   2.987   5.154
 1835TIP3    H1 5511   2.599   3.012   5.210
 1835TIP3    H2 5512   2.711   3.071   5.128
 1836TIP3   OH2 5513   5.423   3.273   3.532
 1836TIP3    H1 5514   5.500   3.329   3.528
 1836TIP3    H2 5515   5.398   3.260   3.440
 1837TIP3   OH2 5516   1.634   5.214   1.220
 1837TIP3    H1 5517   1.677   5.129   1.211
 1837TIP3    H2 5518   1.540   5.195   1.211
 1838TIP3   OH2 5519   1.822   3.710   1.896
 1838TIP3    H1 5520   1.783   3.793   1.924
 1838TIP3    H2 5521   1.914   3.732   1.878
 1839TIP3   OH2 5522   0.427   0.796  -0.015
 1839TIP3    H1 5523   0.440   0.748   0.067
 1839TIP3    H2 5524   0.361   0.746  -0.062
 1840TIP3   OH2 5525   1.244   4.409   4.819
 1840TIP3    H1 5526   1.281   4.496   4.817
 1840TIP3    H2 5527   1.256   4.379   4.909
 1841TIP3   OH2 5528   0.776   1.434   2.054
 1841TIP3    H1 5529   0.788   1.341   2.072
 1841TIP3    H2 5530   0.851   1.458   1.999
 1842TIP3   OH2 5531   6.326   0.908   3.547
 1842TIP3    H1 5532   6.401   0.865   3.589
 1842TIP3    H2 5533   6.303   0.848   3.476
 1843TIP3   OH2 5534   1.477   3.956   2.447
 1843TIP3    H1 5535   1.470   3.984   2.356
 1843TIP3    H2 5536   1.387   3.952   2.478
 1844TIP3   OH2 5537   2.725   4.398   3.677
 1844TIP3    H1 5538   2.765   4.426   3.595
 1844TIP3    H2 5539   2.721   4.302   3.670
 1845TIP3   OH2 5540   1.289   4.676   4.091
 1845TIP3    H1 5541   1.228   4.732   4.140
 1845TIP3    H2 5542   1.355   4.737   4.057
 1846TIP3   OH2 5543   5.762   1.638   0.789
 1846TIP3    H1 5544   5.712   1.582   0.849
 1846TIP3    H2 5545   5.695   1.678   0.733
 1847TIP3   OH2 5546   0.874   0.215   3.032
 1847TIP3    H1 5547   0.828   0.286   3.078
 1847TIP3    H2 5548   0.891   0.250   2.945
 1848TIP3   OH2 5549   3.874   5.621   3.134
 1848TIP3    H1 5550   3.865   5.693   3.072
 1848TIP3    H2 5551   3.948   5.570   3.102
 1849TIP3   OH2 5552   0.824   5.013   1.183
 1849TIP3    H1 5553   0.800   4.946   1.246
 1849TIP3    H2 5554   0.750   5.016   1.122
 1850TIP3   OH2 5555   3.436   1.806   2.997
 1850TIP3    H1 5556   3.355   1.765   3.027
 1850TIP3    H2 5557   3.452   1.876   3.060
 1851TIP3   OH2 5558   6.119   0.626   1.434
 1851TIP3    H1 5559   6.128   0.717   1.464
 1851TIP3    H2 5560   6.177   0.620   1.359
 1852TIP3   OH2 5561   0.529   2.380   3.483
 1852TIP3    H1 5562   0.472   2.457   3.480
 1852TIP3    H2 5563   0.536   2.352   3.391
 1853TIP3   OH2 5564   1.474   4.228   4.084
 1853TIP3    H1 5565   1.477   4.315   4.124
 1853TIP3    H2 5566   1.427   4.241   4.002
 1854TIP3   OH2 5567   2.908   4.746   2.341
 1854TIP3    H1 5568   2.931   4.730   2.250
 1854TIP3    H2 5569   2.989   4.730   2.390
 1855TIP3   OH2 5570   1.590   2.692   1.082
 1855TIP3    H1 5571   1.646   2.642   1.142
 1855TIP3    H2 5572   1.579   2.635   1.006
 1856TIP3   OH2 5573   6.278   0.639   2.446
 1856TIP3    H1 5574   6.189   0.667   2.468
 1856TIP3    H2 5575   6.266   0.558   2.396
 1857TIP3   OH2 5576   5.399   2.327   3.810
 1857TIP3    H1 5577   5.391   2.418   3.838
 1857TIP3    H2 5578   5.356   2.324   3.725
 1858TIP3   OH2 5579   2.898   5.871   3.772
 1858TIP3    H1 5580   2.920   5.905   3.858
 1858TIP3    H2 5581   2.914   5.777   3.778
 1859TIP3   OH2 5582   2.307   3.701   4.793
 1859TIP3    H1 5583   2.360   3.772   4.758
 1859TIP3    H2 5584   2.241   3.744   4.846
 1860TIP3   OH2 5585   1.630   2.762   3.099
 1860TIP3    H1 5586   1.576   2.764   3.178
 1860TIP3    H2 5587   1.715   2.795   3.127
 1861TIP3   OH2 5588   4.338   5.337   2.963
 1861TIP3    H1 5589   4.360   5.252   3.002
 1861TIP3    H2 5590   4.259   5.365   3.011
 1862TIP3   OH2 5591   0.730   0.301   2.796
 1862TIP3    H1 5592   0.664   0.311   2.865
 1862TIP3    H2 5593   0.682   0.320   2.715
 1863TIP3   OH2 5594   3.201   0.519   5.053
 1863TIP3    H1 5595   3.160   0.434   5.037
 1863TIP3    H2 5596   3.128   0.581   5.052
 1864TIP3   OH2 5597   0.687   0.840   4.461
 1864TIP3    H1 5598   0.752   0.839   4.531
 1864TIP3    H2 5599   0.696   0.754   4.419
 1865TIP3   OH2 5600   5.489   3.405   3.210
 1865TIP3    H1 5601   5.567   3.359   3.239
 1865TIP3    H2 5602   5.511   3.435   3.122
 1866TIP3   OH2 5603   1.631   0.823   4.869
 1866TIP3    H1 5604   1.686   0.774   4.809
 1866TIP3    H2 5605   1.686   0.835   4.947
 1867TIP3   OH2 5606   2.141   5.299   0.030
 1867TIP3    H1 5607   2.188   5.228   0.073
 1867TIP3    H2 5608   2.066   5.256  -0.012
 1868TIP3   OH2 5609   4.080   2.997   5.034
 1868TIP3    H1 5610   3.995   3.015   5.075
 1868TIP3    H2 5611   4.143   3.000   5.106
 1869TIP3   OH2 5612   5.164   5.683   4.903
 1869TIP3    H1 5613   5.248   5.657   4.866
 1869TIP3    H2 5614   5.164   5.778   4.900
 1870TIP3   OH2 5615   3.162   3.962   0.434
 1870TIP3    H1 5616   3.192   3.935   0.520
 1870TIP3    H2 5617   3.238   3.952   0.377
 1871TIP3   OH2 5618   5.587   4.118   1.755
 1871TIP3    H1 5619   5.591   4.166   1.672
 1871TIP3    H2 5620   5.638   4.038   1.738
 1872TIP3   OH2 5621   5.071   4.451   4.055
 1872TIP3    H1 5622   5.025   4.376   4.019
 1872TIP3    H2 5623   5.148   4.414   4.098
 1873TIP3   OH2 5624   2.448   4.629   4.606
 1873TIP3    H1 5625   2.530   4.630   4.556
 1873TIP3    H2 5626   2.462   4.691   4.677
 1874TIP3   OH2 5627   3.895   1.903   0.702
 1874TIP3    H1 5628   3.944   1.925   0.623
 1874TIP3    H2 5629   3.814   1.954   0.695
 1875TIP3   OH2 5630   5.321   0.979   4.070
 1875TIP3    H1 5631   5.247   0.949   4.122
 1875TIP3    H2 5632   5.335   0.910   4.005
 1876TIP3   OH2 5633   5.081   1.973   1.139
 1876TIP3    H1 5634   5.090   1.994   1.232
 1876TIP3    H2 5635   5.165   1.997   1.101
 1877TIP3   OH2 5636   4.161   3.964   1.245
 1877TIP3    H1 5637   4.227   3.983   1.178
 1877TIP3    H2 5638   4.211   3.959   1.327
 1878TIP3   OH2 5639   0.204   2.984   3.888
 1878TIP3    H1 5640   0.246   2.988   3.975
 1878TIP3    H2 5641   0.165   2.897   3.884
 1879TIP3   OH2 5642   0.717   4.559   3.676
 1879TIP3    H1 5643   0.786   4.597   3.730
 1879TIP3    H2 5644   0.754   4.555   3.588
 1880TIP3   OH2 5645   0.168   0.556   3.910
 1880TIP3    H1 5646   0.079   0.553   3.947
 1880TIP3    H2 5647   0.223   0.584   3.983
 1881TIP3   OH2 5648   6.210   5.209   1.524
 1881TIP3    H1 5649   6.304   5.213   1.509
 1881TIP3    H2 5650   6.174   5.273   1.463
 1882TIP3   OH2 5651   1.949   0.700   4.635
 1882TIP3    H1 5652   1.861   0.666   4.621
 1882TIP3    H2 5653   1.942   0.757   4.711
 1883TIP3   OH2 5654   5.638   1.662   1.605
 1883TIP3    H1 5655   5.612   1.697   1.690
 1883TIP3    H2 5656   5.715   1.609   1.623
 1884TIP3   OH2 5657   3.490   2.884   0.040
 1884TIP3    H1 5658   3.400   2.913   0.027
 1884TIP3    H2 5659   3.541   2.964   0.045
 1885TIP3   OH2 5660   3.103   2.665   4.252
 1885TIP3    H1 5661   3.033   2.709   4.204
 1885TIP3    H2 5662   3.164   2.734   4.276
 1886TIP3   OH2 5663   2.602   1.023   2.189
 1886TIP3    H1 5664   2.621   1.110   2.224
 1886TIP3    H2 5665   2.687   0.984   2.171
 1887TIP3   OH2 5666   5.475   2.717   0.820
 1887TIP3    H1 5667   5.492   2.632   0.779
 1887TIP3    H2 5668   5.561   2.748   0.846
 1888TIP3   OH2 5669   0.640   4.120   4.974
 1888TIP3    H1 5670   0.732   4.116   4.999
 1888TIP3    H2 5671   0.630   4.204   4.929
 1889TIP3   OH2 5672   0.782   5.220   4.645
 1889TIP3    H1 5673   0.872   5.199   4.620
 1889TIP3    H2 5674   0.774   5.189   4.735
 1890TIP3   OH2 5675   2.063   5.566   3.960
 1890TIP3    H1 5676   2.057   5.572   3.865
 1890TIP3    H2 5677   1.972   5.561   3.989
 1891TIP3   OH2 5678   4.155   2.070   0.078
 1891TIP3    H1 5679   4.094   2.144   0.076
 1891TIP3    H2 5680   4.163   2.043  -0.013
 1892TIP3   OH2 5681   6.115   4.056   1.120
 1892TIP3    H1 5682   6.092   3.999   1.047
 1892TIP3    H2 5683   6.053   4.128   1.115
 1893TIP3   OH2 5684   6.116   4.128   4.704
 1893TIP3    H1 5685   6.022   4.119   4.690
 1893TIP3    H2 5686   6.148   4.038   4.709
 1894TIP3   OH2 5687   0.732   0.130   2.247
 1894TIP3    H1 5688   0.761   0.206   2.297
 1894TIP3    H2 5689   0.713   0.165   2.159
 1895TIP3   OH2 5690   0.739   5.582   3.764
 1895TIP3    H1 5691   0.771   5.575   3.853
 1895TIP3    H2 5692   0.797   5.646   3.722
 1896TIP3   OH2 5693   2.241   3.185   1.284
 1896TIP3    H1 5694   2.241   3.280   1.278
 1896TIP3    H2 5695   2.328   3.159   1.253
 1897TIP3   OH2 5696   2.547   2.509   4.173
 1897TIP3    H1 5697   2.510   2.440   4.229
 1897TIP3    H2 5698   2.494   2.507   4.094
 1898TIP3   OH2 5699   2.223   2.523   1.978
 1898TIP3    H1 5700   2.237   2.441   2.027
 1898TIP3    H2 5701   2.143   2.559   2.015
 1899TIP3   OH2 5702   4.664   3.248   3.783
 1899TIP3    H1 5703   4.707   3.279   3.862
 1899TIP3    H2 5704   4.635   3.159   3.805
 1900TIP3   OH2 5705   6.281   3.444   3.714
 1900TIP3    H1 5706   6.297   3.519   3.771
 1900TIP3    H2 5707   6.333   3.462   3.635
 1901TIP3   OH2 5708   4.457   4.447   0.931
 1901TIP3    H1 5709   4.527   4.498   0.972
 1901TIP3    H2 5710   4.501   4.394   0.865
 1902TIP3   OH2 5711   4.660   5.213   1.764
 1902TIP3    H1 5712   4.695   5.131   1.799
 1902TIP3    H2 5713   4.682   5.279   1.829
 1903TIP3   OH2 5714   6.084   2.793   3.383
 1903TIP3    H1 5715   6.098   2.880   3.421
 1903TIP3    H2 5716   6.094   2.806   3.288
 1904TIP3   OH2 5717   1.069   2.744   1.233
 1904TIP3    H1 5718   1.025   2.664   1.207
 1904TIP3    H2 5719   1.058   2.803   1.158
 1905TIP3   OH2 5720   3.089   2.155   4.551
 1905TIP3    H1 5721   3.151   2.196   4.611
 1905TIP3    H2 5722   3.016   2.218   4.545
 1906TIP3   OH2 5723   3.993   1.787   0.939
 1906TIP3    H1 5724   4.068   1.732   0.916
 1906TIP3    H2 5725   3.956   1.815   0.855
 1907TIP3   OH2 5726   6.245   3.004   3.902
 1907TIP3    H1 5727   6.264   3.018   3.995
 1907TIP3    H2 5728   6.329   2.977   3.865
 1908TIP3   OH2 5729   4.366   2.470   2.293
 1908TIP3    H1 5730   4.333   2.511   2.214
 1908TIP3    H2 5731   4.452   2.435   2.268
 1909TIP3   OH2 5732   2.339   5.244   3.304
 1909TIP3    H1 5733   2.429   5.276   3.297
 1909TIP3    H2 5734   2.285   5.324   3.302
 1910TIP3   OH2 5735   5.495   1.267   0.384
 1910TIP3    H1 5736   5.580   1.223   0.381
 1910TIP3    H2 5737   5.484   1.303   0.296
 1911TIP3   OH2 5738   4.087   0.406   5.047
 1911TIP3    H1 5739   4.016   0.455   5.006
 1911TIP3    H2 5740   4.124   0.467   5.111
 1912TIP3   OH2 5741   4.186   0.470   3.615
 1912TIP3    H1 5742   4.190   0.375   3.607
 1912TIP3    H2 5743   4.211   0.488   3.706
 1913TIP3   OH2 5744   0.115   1.683   1.164
 1913TIP3    H1 5745   0.039   1.676   1.106
 1913TIP3    H2 5746   0.081   1.665   1.251
 1914TIP3   OH2 5747   6.236   0.466   3.828
 1914TIP3    H1 5748   6.286   0.475   3.747
 1914TIP3    H2 5749   6.169   0.401   3.807
 1915TIP3   OH2 5750   6.106   0.335   4.469
 1915TIP3    H1 5751   6.103   0.284   4.388
 1915TIP3    H2 5752   6.199   0.342   4.491
 1916TIP3   OH2 5753   6.203   1.848   5.149
 1916TIP3    H1 5754   6.234   1.938   5.152
 1916TIP3    H2 5755   6.190   1.823   5.240
 1917TIP3   OH2 5756   5.732   1.424   5.056
 1917TIP3    H1 5757   5.824   1.401   5.041
 1917TIP3    H2 5758   5.736   1.510   5.098
 1918TIP3   OH2 5759   5.754   2.010   3.808
 1918TIP3    H1 5760   5.843   2.031   3.834
 1918TIP3    H2 5761   5.711   2.095   3.799
 1919TIP3   OH2 5762   3.189   1.423   1.320
 1919TIP3    H1 5763   3.153   1.432   1.408
 1919TIP3    H2 5764   3.145   1.347   1.283
 1920TIP3   OH2 5765   1.274   2.848   2.548
 1920TIP3    H1 5766   1.288   2.799   2.466
 1920TIP3    H2 5767   1.186   2.823   2.576
 1921TIP3   OH2 5768   4.009   2.040   3.372
 1921TIP3    H1 5769   4.043   2.031   3.461
 1921TIP3    H2 5770   4.025   1.955   3.332
 1922TIP3   OH2 5771   2.013   3.036   0.634
 1922TIP3    H1 5772   1.966   3.052   0.552
 1922TIP3    H2 5773   1.961   3.080   0.701
 1923TIP3   OH2 5774   3.930   4.601   3.131
 1923TIP3    H1 5775   3.957   4.693   3.132
 1923TIP3    H2 5776   3.976   4.564   3.055
 1924TIP3   OH2 5777   2.727   0.951   4.593
 1924TIP3    H1 5778   2.806   1.004   4.587
 1924TIP3    H2 5779   2.680   0.970   4.512
 1925TIP3   OH2 5780   1.354   0.290   4.515
 1925TIP3    H1 5781   1.311   0.250   4.591
 1925TIP3    H2 5782   1.288   0.284   4.445
 1926TIP3   OH2 5783   0.931   3.774   3.486
 1926TIP3    H1 5784   0.958   3.835   3.418
 1926TIP3    H2 5785   0.839   3.755   3.468
 1927TIP3   OH2 5786   3.833   4.017   2.207
 1927TIP3    H1 5787   3.822   3.985   2.297
 1927TIP3    H2 5788   3.807   4.109   2.210
 1928TIP3   OH2 5789   1.896   1.732   3.086
 1928TIP3    H1 5790   1.918   1.699   3.173
 1928TIP3    H2 5791   1.880   1.654   3.033
 1929TIP3   OH2 5792   1.903   1.255   1.387
 1929TIP3    H1 5793   1.897   1.162   1.364
 1929TIP3    H2 5794   1.818   1.291   1.363
 1930TIP3   OH2 5795   0.426   2.115   4.479
 1930TIP3    H1 5796   0.508   2.091   4.523
 1930TIP3    H2 5797   0.372   2.036   4.486
 1931TIP3   OH2 5798   4.061   1.975   5.066
 1931TIP3    H1 5799   3.970   1.949   5.082
 1931TIP3    H2 5800   4.099   1.986   5.153
 1932TIP3   OH2 5801   2.477   1.417   0.645
 1932TIP3    H1 5802   2.449   1.329   0.618
 1932TIP3    H2 5803   2.482   1.466   0.563
 1933TIP3   OH2 5804   1.696   0.187   4.780
 1933TIP3    H1 5805   1.633   0.228   4.840
 1933TIP3    H2 5806   1.645   0.120   4.735
 1934TIP3   OH2 5807   2.763   1.200   3.622
 1934TIP3    H1 5808   2.738   1.289   3.647
 1934TIP3    H2 5809   2.835   1.213   3.560
 1935TIP3   OH2 5810   2.358   5.468   1.600
 1935TIP3    H1 5811   2.313   5.550   1.620
 1935TIP3    H2 5812   2.450   5.485   1.620
 1936TIP3   OH2 5813   1.562   5.882   4.319
 1936TIP3    H1 5814   1.492   5.827   4.284
 1936TIP3    H2 5815   1.559   5.961   4.265
 1937TIP3   OH2 5816   3.945   0.346   1.553
 1937TIP3    H1 5817   3.966   0.435   1.579
 1937TIP3    H2 5818   3.879   0.356   1.483
 1938TIP3   OH2 5819   0.125   3.951   3.944
 1938TIP3    H1 5820   0.204   3.902   3.968
 1938TIP3    H2 5821   0.144   3.983   3.855
 1939TIP3   OH2 5822   3.791   3.033   4.609
 1939TIP3    H1 5823   3.723   2.973   4.640
 1939TIP3    H2 5824   3.863   3.020   4.670
 1940TIP3   OH2 5825   0.381   0.864   3.546
 1940TIP3    H1 5826   0.300   0.821   3.570
 1940TIP3    H2 5827   0.365   0.957   3.564
 1941TIP3   OH2 5828   1.041   5.368   3.854
 1941TIP3    H1 5829   0.947   5.357   3.869
 1941TIP3    H2 5830   1.068   5.432   3.919
 1942TIP3   OH2 5831   1.161   0.049   2.707
 1942TIP3    H1 5832   1.135  -0.013   2.639
 1942TIP3    H2 5833   1.091   0.114   2.707
 1943TIP3   OH2 5834   4.596   5.895   1.252
 1943TIP3    H1 5835   4.536   5.951   1.301
 1943TIP3    H2 5836   4.539   5.828   1.214
 1944TIP3   OH2 5837   0.537   4.955   3.858
 1944TIP3    H1 5838   0.486   5.014   3.913
 1944TIP3    H2 5839   0.532   4.994   3.770
 1945TIP3   OH2 5840   0.758   5.772   0.100
 1945TIP3    H1 5841   0.751   5.677   0.105
 1945TIP3    H2 5842   0.852   5.790   0.101
 1946TIP3   OH2 5843   1.262   1.596   0.483
 1946TIP3    H1 5844   1.339   1.555   0.523
 1946TIP3    H2 5845   1.298   1.647   0.410
 1947TIP3   OH2 5846   0.788   2.472   0.288
 1947TIP3    H1 5847   0.760   2.432   0.206
 1947TIP3    H2 5848   0.880   2.495   0.274
 1948TIP3   OH2 5849   5.866   5.948   3.274
 1948TIP3    H1 5850   5.773   5.964   3.257
 1948TIP3    H2 5851   5.879   5.856   3.252
 1949TIP3   OH2 5852   0.528   5.181   3.655
 1949TIP3    H1 5853   0.573   5.257   3.692
 1949TIP3    H2 5854   0.545   5.187   3.561
 1950TIP3   OH2 5855   1.469   0.609   4.343
 1950TIP3    H1 5856   1.487   0.645   4.256
 1950TIP3    H2 5857   1.389   0.559   4.333
 1951TIP3   OH2 5858   3.309   0.145   2.506
 1951TIP3    H1 5859   3.312   0.228   2.554
 1951TIP3    H2 5860   3.232   0.100   2.540
 1952TIP3   OH2 5861   3.374   4.793   1.020
 1952TIP3    H1 5862   3.329   4.877   1.029
 1952TIP3    H2 5863   3.324   4.733   1.075
 1953TIP3   OH2 5864   0.479   0.014   3.627
 1953TIP3    H1 5865   0.494   0.034   3.719
 1953TIP3    H2 5866   0.553  -0.042   3.602
 1954TIP3   OH2 5867   1.156   5.193   2.667
 1954TIP3    H1 5868   1.077   5.162   2.622
 1954TIP3    H2 5869   1.221   5.124   2.651
 1955TIP3   OH2 5870   4.280   3.147   4.429
 1955TIP3    H1 5871   4.365   3.115   4.461
 1955TIP3    H2 5872   4.218   3.078   4.454
 1956TIP3   OH2 5873   3.205   3.152   2.569
 1956TIP3    H1 5874   3.266   3.131   2.498
 1956TIP3    H2 5875   3.157   3.071   2.584
 1957TIP3   OH2 5876   6.167   3.792   3.797
 1957TIP3    H1 5877   6.191   3.793   3.704
 1957TIP3    H2 5878   6.234   3.738   3.839
 1958TIP3   OH2 5879   0.468   5.139   4.085
 1958TIP3    H1 5880   0.515   5.200   4.142
 1958TIP3    H2 5881   0.459   5.059   4.136
 1959TIP3   OH2 5882   4.485   3.568   4.999
 1959TIP3    H1 5883   4.500   3.555   4.906
 1959TIP3    H2 5884   4.461   3.481   5.031
 1960TIP3   OH2 5885   4.022   4.667   2.396
 1960TIP3    H1 5886   3.997   4.680   2.304
 1960TIP3    H2 5887   3.950   4.617   2.434
 1961TIP3   OH2 5888   2.124   4.765   1.767
 1961TIP3    H1 5889   2.215   4.784   1.743
 1961TIP3    H2 5890   2.074   4.782   1.687
 1962TIP3   OH2 5891   6.358   1.086   0.627
 1962TIP3    H1 5892   6.378   1.041   0.709
 1962TIP3    H2 5893   6.313   1.020   0.573
 1963TIP3   OH2 5894   4.876   1.776   2.850
 1963TIP3    H1 5895   4.915   1.850   2.898
 1963TIP3    H2 5896   4.912   1.784   2.761
 1964TIP3   OH2 5897   3.431   0.407   5.167
 1964TIP3    H1 5898   3.367   0.456   5.115
 1964TIP3    H2 5899   3.431   0.451   5.252
 1965TIP3   OH2 5900   4.577   5.244   1.146
 1965TIP3    H1 5901   4.552   5.305   1.216
 1965TIP3    H2 5902   4.527   5.273   1.070
 1966TIP3   OH2 5903   0.752   4.628   2.762
 1966TIP3    H1 5904   0.801   4.638   2.680
 1966TIP3    H2 5905   0.809   4.667   2.828
 1967TIP3   OH2 5906   5.175   3.331   4.539
 1967TIP3    H1 5907   5.263   3.294   4.531
 1967TIP3    H2 5908   5.170   3.398   4.471
 1968TIP3   OH2 5909   1.972   4.738   4.810
 1968TIP3    H1 5910   2.000   4.691   4.889
 1968TIP3    H2 5911   1.947   4.825   4.841
 1969TIP3   OH2 5912   5.236   1.757   4.395
 1969TIP3    H1 5913   5.229   1.711   4.311
 1969TIP3    H2 5914   5.327   1.789   4.397
 1970TIP3   OH2 5915   0.702   1.624   0.774
 1970TIP3    H1 5916   0.673   1.709   0.807
 1970TIP3    H2 5917   0.632   1.596   0.716
 1971TIP3   OH2 5918   5.183   2.813   0.487
 1971TIP3    H1 5919   5.259   2.812   0.545
 1971TIP3    H2 5920   5.108   2.819   0.547
 1972TIP3   OH2 5921   0.752   0.202   3.905
 1972TIP3    H1 5922   0.791   0.213   3.992
 1972TIP3    H2 5923   0.748   0.107   3.892
 1973TIP3   OH2 5924   1.036   4.385   0.747
 1973TIP3    H1 5925   1.119   4.381   0.700
 1973TIP3    H2 5926   0.973   4.342   0.689
 1974TIP3   OH2 5927   3.619   3.132   0.517
 1974TIP3    H1 5928   3.665   3.049   0.523
 1974TIP3    H2 5929   3.670   3.193   0.571
 1975TIP3   OH2 5930   4.179   4.720   4.349
 1975TIP3    H1 5931   4.269   4.688   4.353
 1975TIP3    H2 5932   4.138   4.692   4.430
 1976TIP3   OH2 5933   1.305   3.499   0.220
 1976TIP3    H1 5934   1.279   3.589   0.199
 1976TIP3    H2 5935   1.229   3.462   0.264
 1977TIP3   OH2 5936   3.856   0.661   3.847
 1977TIP3    H1 5937   3.868   0.608   3.769
 1977TIP3    H2 5938   3.864   0.600   3.920
 1978TIP3   OH2 5939   2.266   4.518   2.612
 1978TIP3    H1 5940   2.222   4.473   2.684
 1978TIP3    H2 5941   2.244   4.610   2.624
 1979TIP3   OH2 5942   0.310   2.659   5.117
 1979TIP3    H1 5943   0.367   2.685   5.044
 1979TIP3    H2 5944   0.364   2.602   5.171
 1980TIP3   OH2 5945   2.589   1.734   0.814
 1980TIP3    H1 5946   2.621   1.697   0.731
 1980TIP3    H2 5947   2.595   1.662   0.876
 1981TIP3   OH2 5948   4.902   5.002   2.987
 1981TIP3    H1 5949   4.897   5.015   2.892
 1981TIP3    H2 5950   4.980   4.948   3.000
 1982TIP3   OH2 5951   0.723   5.559   2.350
 1982TIP3    H1 5952   0.816   5.550   2.329
 1982TIP3    H2 5953   0.679   5.501   2.288
 1983TIP3   OH2 5954   4.405   5.467   4.088
 1983TIP3    H1 5955   4.428   5.377   4.112
 1983TIP3    H2 5956   4.310   5.465   4.076
 1984TIP3   OH2 5957   6.212   1.440   1.145
 1984TIP3    H1 5958   6.149   1.501   1.106
 1984TIP3    H2 5959   6.173   1.417   1.230
 1985TIP3   OH2 5960   3.455   4.904   3.043
 1985TIP3    H1 5961   3.532   4.955   3.068
 1985TIP3    H2 5962   3.491   4.824   3.005
 1986TIP3   OH2 5963   1.574   1.890   3.806
 1986TIP3    H1 5964   1.561   1.896   3.901
 1986TIP3    H2 5965   1.567   1.981   3.776
 1987TIP3   OH2 5966   3.146   4.060   2.156
 1987TIP3    H1 5967   3.093   4.077   2.234
 1987TIP3    H2 5968   3.107   3.981   2.117
 1988TIP3   OH2 5969   0.101   3.026   2.560
 1988TIP3    H1 5970   0.044   2.960   2.519
 1988TIP3    H2 5971   0.189   3.002   2.532
 1989TIP3   OH2 5972   3.375   2.867   2.504
 1989TIP3    H1 5973   3.323   2.808   2.449
 1989TIP3    H2 5974   3.446   2.813   2.538
 1990TIP3   OH2 5975   3.714   5.892   0.291
 1990TIP3    H1 5976   3.759   5.867   0.372
 1990TIP3    H2 5977   3.639   5.943   0.321
 1991TIP3   OH2 5978   0.708   5.715   3.351
 1991TIP3    H1 5979   0.722   5.637   3.404
 1991TIP3    H2 5980   0.796   5.747   3.331
 1992TIP3   OH2 5981   2.804   5.491   5.099
 1992TIP3    H1 5982   2.894   5.523   5.107
 1992TIP3    H2 5983   2.801   5.413   5.154
 1993TIP3   OH2 5984   1.314   3.695   3.418
 1993TIP3    H1 5985   1.253   3.653   3.478
 1993TIP3    H2 5986   1.396   3.648   3.429
 1994TIP3   OH2 5987   5.805   5.534   1.932
 1994TIP3    H1 5988   5.749   5.608   1.953
 1994TIP3    H2 5989   5.878   5.540   1.994
 1995TIP3   OH2 5990   0.514   0.345   3.851
 1995TIP3    H1 5991   0.507   0.397   3.931
 1995TIP3    H2 5992   0.605   0.316   3.850
 1996TIP3   OH2 5993   1.418   0.946   4.772
 1996TIP3    H1 5994   1.496   0.899   4.802
 1996TIP3    H2 5995   1.399   0.907   4.686
 1997TIP3   OH2 5996   2.034   1.030   1.558
 1997TIP3    H1 5997   1.965   0.980   1.515
 1997TIP3    H2 5998   2.108   1.026   1.499
 1998TIP3   OH2 5999   0.213   0.400   4.723
 1998TIP3    H1 6000   0.271   0.421   4.650
 1998TIP3    H2 6001   0.141   0.351   4.684
 1999TIP3   OH2 6002   2.001   2.789   0.762
 1999TIP3    H1 6003   2.001   2.713   0.704
 1999TIP3    H2 6004   1.988   2.864   0.704
 2000TIP3   OH2 6005   6.213   2.900   1.954
 2000TIP3    H1 6006   6.251   2.987   1.942
 2000TIP3    H2 6007   6.268   2.843   1.900
 2001TIP3   OH2 6008   0.081   1.442   4.298
 2001TIP3    H1 6009   0.024   1.405   4.365
 2001TIP3    H2 6010   0.076   1.537   4.311
 2002TIP3   OH2 6011   3.164   5.842   1.634
 2002TIP3    H1 6012   3.162   5.777   1.704
 2002TIP3    H2 6013   3.072   5.856   1.611
 2003TIP3   OH2 6014   3.868   0.613   1.267
 2003TIP3    H1 6015   3.851   0.647   1.355
 2003TIP3    H2 6016   3.829   0.525   1.268
 2004TIP3   OH2 6017   0.439   4.858   1.507
 2004TIP3    H1 6018   0.447   4.791   1.439
 2004TIP3    H2 6019   0.345   4.872   1.515
 2005TIP3   OH2 6020   5.624   1.113   0.621
 2005TIP3    H1 6021   5.691   1.079   0.681
 2005TIP3    H2 6022   5.669   1.181   0.571
 2006TIP3   OH2 6023   0.911   5.075   2.553
 2006TIP3    H1 6024   0.896   5.070   2.459
 2006TIP3    H2 6025   0.825   5.063   2.593
 2007TIP3   OH2 6026   5.366   4.907   4.863
 2007TIP3    H1 6027   5.459   4.889   4.880
 2007TIP3    H2 6028   5.361   5.002   4.855
 2008TIP3   OH2 6029   0.505   1.056   0.877
 2008TIP3    H1 6030   0.507   1.122   0.947
 2008TIP3    H2 6031   0.597   1.042   0.856
 2009TIP3   OH2 6032   4.853   5.564   2.206
 2009TIP3    H1 6033   4.833   5.657   2.213
 2009TIP3    H2 6034   4.768   5.522   2.195
 2010TIP3   OH2 6035   5.316   4.024   5.198
 2010TIP3    H1 6036   5.275   3.938   5.198
 2010TIP3    H2 6037   5.280   4.068   5.121
 2011TIP3   OH2 6038   4.916   1.448   2.182
 2011TIP3    H1 6039   4.941   1.384   2.248
 2011TIP3    H2 6040   4.820   1.446   2.181
 2012TIP3   OH2 6041   1.086   4.348   1.129
 2012TIP3    H1 6042   1.162   4.326   1.183
 2012TIP3    H2 6043   1.011   4.338   1.188
 2013TIP3   OH2 6044   5.455   1.198   2.587
 2013TIP3    H1 6045   5.381   1.190   2.648
 2013TIP3    H2 6046   5.440   1.282   2.543
 2014TIP3   OH2 6047   4.508   3.794   0.481
 2014TIP3    H1 6048   4.522   3.840   0.564
 2014TIP3    H2 6049   4.527   3.702   0.501
 2015TIP3   OH2 6050   0.070   0.169   4.574
 2015TIP3    H1 6051   0.047   0.253   4.536
 2015TIP3    H2 6052   0.006   0.155   4.644
 2016TIP3   OH2 6053   3.118   3.184   4.428
 2016TIP3    H1 6054   3.115   3.090   4.444
 2016TIP3    H2 6055   3.027   3.212   4.433
 2017TIP3   OH2 6056   2.204   2.757   3.149
 2017TIP3    H1 6057   2.257   2.745   3.070
 2017TIP3    H2 6058   2.113   2.750   3.118
 2018TIP3   OH2 6059   4.046   0.128  -0.010
 2018TIP3    H1 6060   4.140   0.112  -0.016
 2018TIP3    H2 6061   4.025   0.179  -0.088
 2019TIP3   OH2 6062   0.989   5.988   2.615
 2019TIP3    H1 6063   0.931   5.983   2.691
 2019TIP3    H2 6064   0.940   5.946   2.544
 2020TIP3   OH2 6065   1.451   0.547   1.346
 2020TIP3    H1 6066   1.422   0.486   1.279
 2020TIP3    H2 6067   1.371   0.568   1.396
 2021TIP3   OH2 6068   0.544   2.470   4.885
 2021TIP3    H1 6069   0.525   2.441   4.796
 2021TIP3    H2 6070   0.494   2.411   4.941
 2022TIP3   OH2 6071   2.104   2.111   4.669
 2022TIP3    H1 6072   2.029   2.171   4.665
 2022TIP3    H2 6073   2.177   2.166   4.699
 2023TIP3   OH2 6074   4.689   1.571   0.655
 2023TIP3    H1 6075   4.659   1.548   0.567
 2023TIP3    H2 6076   4.701   1.666   0.652
 2024TIP3   OH2 6077   3.985   3.061   2.431
 2024TIP3    H1 6078   3.917   3.041   2.367
 2024TIP3    H2 6079   4.026   3.142   2.400
 2025TIP3   OH2 6080   3.274   1.219   3.673
 2025TIP3    H1 6081   3.235   1.185   3.593
 2025TIP3    H2 6082   3.329   1.292   3.644
 2026TIP3   OH2 6083   3.137   4.304   2.012
 2026TIP3    H1 6084   3.175   4.251   2.082
 2026TIP3    H2 6085   3.079   4.244   1.965
 2027TIP3   OH2 6086   4.301   0.166   2.564
 2027TIP3    H1 6087   4.242   0.115   2.508
 2027TIP3    H2 6088   4.273   0.257   2.551
 2028TIP3   OH2 6089   5.517   4.345   4.264
 2028TIP3    H1 6090   5.562   4.283   4.206
 2028TIP3    H2 6091   5.540   4.318   4.352
 2029TIP3   OH2 6092   6.231   1.028   1.711
 2029TIP3    H1 6093   6.279   1.022   1.794
 2029TIP3    H2 6094   6.170   1.101   1.723
 2030TIP3   OH2 6095   3.173   5.550   4.091
 2030TIP3    H1 6096   3.123   5.561   4.010
 2030TIP3    H2 6097   3.249   5.606   4.081
 2031TIP3   OH2 6098   4.312   1.793   2.584
 2031TIP3    H1 6099   4.255   1.777   2.660
 2031TIP3    H2 6100   4.310   1.888   2.572
 2032TIP3   OH2 6101   0.771   4.416   5.003
 2032TIP3    H1 6102   0.762   4.444   4.912
 2032TIP3    H2 6103   0.686   4.433   5.042
 2033TIP3   OH2 6104   0.065   1.407   0.782
 2033TIP3    H1 6105   0.033   1.317   0.782
 2033TIP3    H2 6106   0.008   1.452   0.718
 2034TIP3   OH2 6107   6.268   2.658   4.225
 2034TIP3    H1 6108   6.326   2.637   4.298
 2034TIP3    H2 6109   6.216   2.578   4.212
 2035TIP3   OH2 6110   2.116   5.050   2.753
 2035TIP3    H1 6111   2.076   4.970   2.787
 2035TIP3    H2 6112   2.210   5.032   2.757
 2036TIP3   OH2 6113   4.794   1.632   3.900
 2036TIP3    H1 6114   4.818   1.713   3.856
 2036TIP3    H2 6115   4.795   1.566   3.831
 2037TIP3   OH2 6116   1.559   0.793   1.525
 2037TIP3    H1 6117   1.633   0.753   1.571
 2037TIP3    H2 6118   1.505   0.719   1.497
 2038TIP3   OH2 6119   5.941   2.349   1.827
 2038TIP3    H1 6120   5.937   2.311   1.915
 2038TIP3    H2 6121   5.859   2.397   1.819
 2039TIP3   OH2 6122   2.294   2.523   3.695
 2039TIP3    H1 6123   2.234   2.557   3.628
 2039TIP3    H2 6124   2.310   2.432   3.668
 2040TIP3   OH2 6125   3.497   2.415   4.843
 2040TIP3    H1 6126   3.524   2.492   4.893
 2040TIP3    H2 6127   3.578   2.368   4.825
 2041TIP3   OH2 6128   3.283   4.164   4.815
 2041TIP3    H1 6129   3.214   4.219   4.777
 2041TIP3    H2 6130   3.364   4.194   4.773
 2042TIP3   OH2 6131   3.962   1.196   0.554
 2042TIP3    H1 6132   3.896   1.169   0.490
 2042TIP3    H2 6133   4.043   1.202   0.503
 2043TIP3   OH2 6134   2.368   1.162   1.784
 2043TIP3    H1 6135   2.390   1.084   1.734
 2043TIP3    H2 6136   2.422   1.156   1.863
 2044TIP3   OH2 6137   4.635   1.576   3.064
 2044TIP3    H1 6138   4.541   1.582   3.046
 2044TIP3    H2 6139   4.673   1.545   2.982
 2045TIP3   OH2 6140   2.986   1.253   1.351
 2045TIP3    H1 6141   2.932   1.203   1.290
 2045TIP3    H2 6142   2.926   1.281   1.420
 2046TIP3   OH2 6143   2.592   3.846   3.743
 2046TIP3    H1 6144   2.662   3.780   3.743
 2046TIP3    H2 6145   2.527   3.812   3.805
 2047TIP3   OH2 6146   4.058   2.676   4.709
 2047TIP3    H1 6147   4.120   2.674   4.636
 2047TIP3    H2 6148   4.074   2.593   4.755
 2048TIP3   OH2 6149   1.707   0.337   1.193
 2048TIP3    H1 6150   1.698   0.259   1.248
 2048TIP3    H2 6151   1.682   0.308   1.106
 2049TIP3   OH2 6152   2.557   1.698   2.088
 2049TIP3    H1 6153   2.470   1.686   2.050
 2049TIP3    H2 6154   2.600   1.763   2.033
 2050TIP3   OH2 6155   0.563   5.205   4.927
 2050TIP3    H1 6156   0.540   5.156   5.006
 2050TIP3    H2 6157   0.648   5.169   4.900
 2051TIP3   OH2 6158   6.034   2.212   2.725
 2051TIP3    H1 6159   6.048   2.122   2.757
 2051TIP3    H2 6160   5.950   2.209   2.681
 2052TIP3   OH2 6161   1.291   3.950   3.287
 2052TIP3    H1 6162   1.247   3.939   3.203
 2052TIP3    H2 6163   1.309   3.861   3.317
 2053TIP3   OH2 6164   1.938   4.778   4.547
 2053TIP3    H1 6165   1.927   4.692   4.506
 2053TIP3    H2 6166   1.942   4.759   4.641
 2054TIP3   OH2 6167   3.252   2.979   3.128
 2054TIP3    H1 6168   3.341   2.955   3.105
 2054TIP3    H2 6169   3.217   3.021   3.050
 2055TIP3   OH2 6170   5.881   5.755   4.548
 2055TIP3    H1 6171   5.849   5.833   4.594
 2055TIP3    H2 6172   5.927   5.705   4.616
 2056TIP3   OH2 6173   2.524   2.664   0.973
 2056TIP3    H1 6174   2.567   2.579   0.966
 2056TIP3    H2 6175   2.591   2.722   1.009
 2057TIP3   OH2 6176   1.898   2.499   4.759
 2057TIP3    H1 6177   1.865   2.497   4.848
 2057TIP3    H2 6178   1.914   2.592   4.741
 2058TIP3   OH2 6179   0.286   5.185   4.675
 2058TIP3    H1 6180   0.318   5.149   4.592
 2058TIP3    H2 6181   0.337   5.141   4.742
 2059TIP3   OH2 6182   6.059   2.442   2.506
 2059TIP3    H1 6183   5.988   2.501   2.532
 2059TIP3    H2 6184   6.087   2.401   2.587
 2060TIP3   OH2 6185   3.340   5.308   2.965
 2060TIP3    H1 6186   3.404   5.270   2.904
 2060TIP3    H2 6187   3.384   5.306   3.050
 2061TIP3   OH2 6188   0.906   3.945   0.870
 2061TIP3    H1 6189   0.990   3.990   0.876
 2061TIP3    H2 6190   0.905   3.885   0.944
 2062TIP3   OH2 6191   4.973   2.382   1.893
 2062TIP3    H1 6192   4.943   2.304   1.938
 2062TIP3    H2 6193   5.059   2.358   1.859
 2063TIP3   OH2 6194   4.243   2.303   2.949
 2063TIP3    H1 6195   4.311   2.368   2.932
 2063TIP3    H2 6196   4.290   2.219   2.949
 2064TIP3   OH2 6197   3.489   4.596   0.634
 2064TIP3    H1 6198   3.535   4.647   0.701
 2064TIP3    H2 6199   3.474   4.510   0.675
 2065TIP3   OH2 6200   5.139   0.487   3.019
 2065TIP3    H1 6201   5.054   0.460   3.053
 2065TIP3    H2 6202   5.158   0.568   3.066
 2066TIP3   OH2 6203   6.246   0.753   3.244
 2066TIP3    H1 6204   6.335   0.779   3.269
 2066TIP3    H2 6205   6.253   0.732   3.151
 2067TIP3   OH2 6206   5.453   5.628   3.971
 2067TIP3    H1 6207   5.485   5.544   4.005
 2067TIP3    H2 6208   5.504   5.693   4.018
 2068TIP3   OH2 6209   3.962   2.278   0.001
 2068TIP3    H1 6210   3.874   2.306   0.025
 2068TIP3    H2 6211   3.997   2.351  -0.051
 2069TIP3   OH2 6212   3.809   0.088   3.068
 2069TIP3    H1 6213   3.787   0.139   2.990
 2069TIP3    H2 6214   3.839   0.153   3.132
 2070TIP3   OH2 6215   4.565   2.513   0.512
 2070TIP3    H1 6216   4.641   2.456   0.499
 2070TIP3    H2 6217   4.603   2.600   0.525
 2071TIP3   OH2 6218   3.732   3.384   4.204
 2071TIP3    H1 6219   3.749   3.296   4.237
 2071TIP3    H2 6220   3.789   3.441   4.256
 2072TIP3   OH2 6221   0.917   2.246   1.030
 2072TIP3    H1 6222   0.962   2.218   0.950
 2072TIP3    H2 6223   0.827   2.263   1.001
 2073TIP3   OH2 6224   0.162   2.736   3.814
 2073TIP3    H1 6225   0.244   2.694   3.789
 2073TIP3    H2 6226   0.106   2.729   3.736
 2074TIP3   OH2 6227   3.874   4.351   3.466
 2074TIP3    H1 6228   3.872   4.303   3.549
 2074TIP3    H2 6229   3.867   4.282   3.399
 2075TIP3   OH2 6230   4.808   3.687   0.956
 2075TIP3    H1 6231   4.784   3.758   1.016
 2075TIP3    H2 6232   4.817   3.610   1.012
 2076TIP3   OH2 6233   0.065   1.885   4.830
 2076TIP3    H1 6234   0.117   1.808   4.807
 2076TIP3    H2 6235  -0.024   1.851   4.841
 2077TIP3   OH2 6236   0.085   3.656   0.879
 2077TIP3    H1 6237   0.119   3.567   0.895
 2077TIP3    H2 6238   0.120   3.680   0.793
 2078TIP3   OH2 6239   3.190   1.285   2.724
 2078TIP3    H1 6240   3.252   1.212   2.728
 2078TIP3    H2 6241   3.176   1.299   2.630
 2079TIP3   OH2 6242   3.863   0.140   4.910
 2079TIP3    H1 6243   3.802   0.201   4.952
 2079TIP3    H2 6244   3.807   0.075   4.867
 2080TIP3   OH2 6245   4.086   1.898   2.971
 2080TIP3    H1 6246   4.086   1.859   2.884
 2080TIP3    H2 6247   3.998   1.933   2.982
 2081TIP3   OH2 6248   1.455   3.750   3.944
 2081TIP3    H1 6249   1.472   3.753   4.038
 2081TIP3    H2 6250   1.366   3.715   3.937
 2082TIP3   OH2 6251   2.033   5.022   4.594
 2082TIP3    H1 6252   2.015   4.930   4.579
 2082TIP3    H2 6253   2.084   5.049   4.517
 2083TIP3   OH2 6254   0.512   0.420   3.500
 2083TIP3    H1 6255   0.439   0.428   3.561
 2083TIP3    H2 6256   0.584   0.466   3.543
 2084TIP3   OH2 6257   0.108   2.934   5.070
 2084TIP3    H1 6258   0.128   3.025   5.090
 2084TIP3    H2 6259   0.184   2.885   5.100
 2085TIP3   OH2 6260   1.229   5.483   2.359
 2085TIP3    H1 6261   1.135   5.494   2.346
 2085TIP3    H2 6262   1.251   5.402   2.313
 2086TIP3   OH2 6263   4.781   1.481   1.924
 2086TIP3    H1 6264   4.686   1.467   1.929
 2086TIP3    H2 6265   4.811   1.471   2.014
 2087TIP3   OH2 6266   3.828   5.758   3.421
 2087TIP3    H1 6267   3.847   5.752   3.327
 2087TIP3    H2 6268   3.763   5.689   3.436
 2088TIP3   OH2 6269   4.366   1.329   1.025
 2088TIP3    H1 6270   4.363   1.386   1.101
 2088TIP3    H2 6271   4.422   1.375   0.962
 2089TIP3   OH2 6272   1.408   5.472   1.890
 2089TIP3    H1 6273   1.392   5.538   1.822
 2089TIP3    H2 6274   1.393   5.388   1.846
 2090TIP3   OH2 6275   4.947   4.914   2.293
 2090TIP3    H1 6276   4.969   4.954   2.208
 2090TIP3    H2 6277   4.935   4.821   2.273
 2091TIP3   OH2 6278   0.700   4.892   4.506
 2091TIP3    H1 6279   0.710   4.797   4.499
 2091TIP3    H2 6280   0.786   4.923   4.537
 2092TIP3   OH2 6281   2.897   5.726   4.097
 2092TIP3    H1 6282   2.881   5.663   4.027
 2092TIP3    H2 6283   2.811   5.761   4.119
 2093TIP3   OH2 6284   4.256   0.672   2.238
 2093TIP3    H1 6285   4.176   0.673   2.185
 2093TIP3    H2 6286   4.306   0.747   2.206
 2094TIP3   OH2 6287   2.936   1.882   2.116
 2094TIP3    H1 6288   3.000   1.953   2.113
 2094TIP3    H2 6289   2.885   1.892   2.036
 2095TIP3   OH2 6290   0.865   1.884   1.322
 2095TIP3    H1 6291   0.959   1.867   1.316
 2095TIP3    H2 6292   0.857   1.959   1.381
 2096TIP3   OH2 6293   0.323   1.132   4.844
 2096TIP3    H1 6294   0.378   1.069   4.798
 2096TIP3    H2 6295   0.247   1.143   4.788
 2097TIP3   OH2 6296   4.855   3.391   1.366
 2097TIP3    H1 6297   4.911   3.468   1.350
 2097TIP3    H2 6298   4.904   3.338   1.429
 2098TIP3   OH2 6299   4.944   0.899   0.548
 2098TIP3    H1 6300   4.970   0.836   0.481
 2098TIP3    H2 6301   5.013   0.966   0.546
 2099TIP3   OH2 6302   4.273   3.030   2.205
 2099TIP3    H1 6303   4.292   2.986   2.123
 2099TIP3    H2 6304   4.209   2.972   2.248
 2100TIP3   OH2 6305   6.039   0.156   0.369
 2100TIP3    H1 6306   6.059   0.218   0.439
 2100TIP3    H2 6307   5.989   0.086   0.412
 2101TIP3   OH2 6308   1.993   0.237   0.755
 2101TIP3    H1 6309   2.034   0.175   0.694
 2101TIP3    H2 6310   1.932   0.287   0.701
 2102TIP3   OH2 6311   1.079   4.525   0.438
 2102TIP3    H1 6312   1.080   4.452   0.376
 2102TIP3    H2 6313   1.013   4.585   0.403
 2103TIP3   OH2 6314   5.319   5.187   1.281
 2103TIP3    H1 6315   5.316   5.180   1.185
 2103TIP3    H2 6316   5.229   5.175   1.309
 2104TIP3   OH2 6317   3.421   4.116   2.265
 2104TIP3    H1 6318   3.326   4.102   2.275
 2104TIP3    H2 6319   3.448   4.157   2.347
 2105TIP3   OH2 6320   4.569   1.411   1.652
 2105TIP3    H1 6321   4.568   1.485   1.591
 2105TIP3    H2 6322   4.661   1.384   1.656
 2106TIP3   OH2 6323   2.976   1.258   3.478
 2106TIP3    H1 6324   3.025   1.178   3.459
 2106TIP3    H2 6325   2.958   1.295   3.392
 2107TIP3   OH2 6326   5.679   1.991   1.612
 2107TIP3    H1 6327   5.597   2.026   1.577
 2107TIP3    H2 6328   5.748   2.041   1.568
 2108TIP3   OH2 6329   0.929   0.500   3.888
 2108TIP3    H1 6330   0.923   0.556   3.811
 2108TIP3    H2 6331   1.023   0.493   3.906
 2109TIP3   OH2 6332   4.020   3.878   4.690
 2109TIP3    H1 6333   3.934   3.918   4.707
 2109TIP3    H2 6334   4.069   3.895   4.770
 2110TIP3   OH2 6335   2.357   4.315   2.186
 2110TIP3    H1 6336   2.399   4.291   2.103
 2110TIP3    H2 6337   2.279   4.364   2.160
 2111TIP3   OH2 6338   5.357   4.044   4.194
 2111TIP3    H1 6339   5.303   4.000   4.129
 2111TIP3    H2 6340   5.446   4.011   4.177
 2112TIP3   OH2 6341   6.230   4.835   3.017
 2112TIP3    H1 6342   6.156   4.896   3.013
 2112TIP3    H2 6343   6.202   4.760   2.965
 2113TIP3   OH2 6344   5.444   4.100   2.799
 2113TIP3    H1 6345   5.515   4.135   2.854
 2113TIP3    H2 6346   5.367   4.101   2.857
 2114TIP3   OH2 6347   4.574   5.931   2.318
 2114TIP3    H1 6348   4.536   5.993   2.256
 2114TIP3    H2 6349   4.504   5.867   2.334
 2115TIP3   OH2 6350   3.451   0.801   1.456
 2115TIP3    H1 6351   3.420   0.767   1.371
 2115TIP3    H2 6352   3.457   0.895   1.443
 2116TIP3   OH2 6353   3.507   2.475   4.067
 2116TIP3    H1 6354   3.420   2.451   4.099
 2116TIP3    H2 6355   3.559   2.486   4.147
 2117TIP3   OH2 6356   1.750   3.382   4.433
 2117TIP3    H1 6357   1.690   3.363   4.361
 2117TIP3    H2 6358   1.793   3.299   4.452
 2118TIP3   OH2 6359   4.685   5.640   3.438
 2118TIP3    H1 6360   4.703   5.579   3.509
 2118TIP3    H2 6361   4.746   5.712   3.451
 2119TIP3   OH2 6362   2.171   5.380   4.605
 2119TIP3    H1 6363   2.208   5.457   4.649
 2119TIP3    H2 6364   2.170   5.404   4.512
 2120TIP3   OH2 6365   4.392   0.003   1.706
 2120TIP3    H1 6366   4.411   0.008   1.612
 2120TIP3    H2 6367   4.476  -0.021   1.746
 2121TIP3   OH2 6368   5.207   4.880   3.633
 2121TIP3    H1 6369   5.144   4.813   3.605
 2121TIP3    H2 6370   5.292   4.842   3.611
 2122TIP3   OH2 6371   2.495   4.879   1.544
 2122TIP3    H1 6372   2.487   4.788   1.518
 2122TIP3    H2 6373   2.421   4.923   1.502
 2123TIP3   OH2 6374   4.392   0.955   1.601
 2123TIP3    H1 6375   4.369   0.936   1.692
 2123TIP3    H2 6376   4.317   0.925   1.550
 2124TIP3   OH2 6377   0.527   3.619   0.368
 2124TIP3    H1 6378   0.438   3.640   0.341
 2124TIP3    H2 6379   0.562   3.565   0.298
 2125TIP3   OH2 6380   1.800   3.816   3.444
 2125TIP3    H1 6381   1.765   3.752   3.507
 2125TIP3    H2 6382   1.756   3.795   3.362
 2126TIP3   OH2 6383   3.029   2.513   2.748
 2126TIP3    H1 6384   3.076   2.543   2.670
 2126TIP3    H2 6385   3.066   2.427   2.767
 2127TIP3   OH2 6386   5.711   4.492   4.086
 2127TIP3    H1 6387   5.676   4.426   4.146
 2127TIP3    H2 6388   5.649   4.564   4.091
 2128TIP3   OH2 6389   2.488   3.964   3.511
 2128TIP3    H1 6390   2.417   3.995   3.567
 2128TIP3    H2 6391   2.537   3.904   3.567
 2129TIP3   OH2 6392   0.106   5.535   3.402
 2129TIP3    H1 6393   0.152   5.559   3.482
 2129TIP3    H2 6394   0.073   5.447   3.418
 2130TIP3   OH2 6395   1.767   2.367   2.189
 2130TIP3    H1 6396   1.705   2.369   2.262
 2130TIP3    H2 6397   1.727   2.423   2.122
 2131TIP3   OH2 6398   4.913   3.110   2.750
 2131TIP3    H1 6399   4.908   3.151   2.836
 2131TIP3    H2 6400   4.989   3.152   2.708
 2132TIP3   OH2 6401   2.671   4.061   0.913
 2132TIP3    H1 6402   2.641   4.044   0.824
 2132TIP3    H2 6403   2.630   3.991   0.965
 2133TIP3   OH2 6404   3.512   5.528   1.512
 2133TIP3    H1 6405   3.565   5.497   1.439
 2133TIP3    H2 6406   3.453   5.455   1.531
 2134TIP3   OH2 6407   3.989   2.988   0.833
 2134TIP3    H1 6408   4.027   2.920   0.888
 2134TIP3    H2 6409   3.933   2.941   0.771
 2135TIP3   OH2 6410   1.813   4.430   3.561
 2135TIP3    H1 6411   1.718   4.433   3.547
 2135TIP3    H2 6412   1.829   4.346   3.603
 2136TIP3   OH2 6413   5.525   4.001   1.236
 2136TIP3    H1 6414   5.436   4.034   1.253
 2136TIP3    H2 6415   5.529   3.989   1.141
 2137TIP3   OH2 6416   1.556   5.959   5.000
 2137TIP3    H1 6417   1.642   5.925   5.022
 2137TIP3    H2 6418   1.530   6.011   5.077
 2138TIP3   OH2 6419   0.102   2.678   4.454
 2138TIP3    H1 6420   0.151   2.758   4.438
 2138TIP3    H2 6421   0.158   2.626   4.512
 2139TIP3   OH2 6422   5.705   1.874   3.588
 2139TIP3    H1 6423   5.713   1.904   3.678
 2139TIP3    H2 6424   5.617   1.835   3.583
 2140TIP3   OH2 6425   1.693   1.500   1.220
 2140TIP3    H1 6426   1.639   1.567   1.179
 2140TIP3    H2 6427   1.653   1.417   1.193
 2141TIP3   OH2 6428   4.449   1.796   1.994
 2141TIP3    H1 6429   4.523   1.771   1.938
 2141TIP3    H2 6430   4.394   1.851   1.938
 2142TIP3   OH2 6431   3.993   2.427   1.454
 2142TIP3    H1 6432   3.961   2.341   1.484
 2142TIP3    H2 6433   4.079   2.409   1.418
 2143TIP3   OH2 6434   4.949   2.412   1.493
 2143TIP3    H1 6435   4.989   2.348   1.552
 2143TIP3    H2 6436   4.952   2.370   1.407
 2144TIP3   OH2 6437   1.226   5.341   4.177
 2144TIP3    H1 6438   1.137   5.317   4.152
 2144TIP3    H2 6439   1.261   5.386   4.100
 2145TIP3   OH2 6440   5.244   4.179   1.938
 2145TIP3    H1 6441   5.322   4.125   1.944
 2145TIP3    H2 6442   5.172   4.117   1.931
 2146TIP3   OH2 6443   0.311   1.660   4.935
 2146TIP3    H1 6444   0.339   1.569   4.941
 2146TIP3    H2 6445   0.295   1.675   4.841
 2147TIP3   OH2 6446   1.759   0.092   4.478
 2147TIP3    H1 6447   1.714   0.172   4.451
 2147TIP3    H2 6448   1.770   0.042   4.398
 2148TIP3   OH2 6449   6.081   3.310   4.926
 2148TIP3    H1 6450   5.994   3.271   4.920
 2148TIP3    H2 6451   6.085   3.374   4.855
 2149TIP3   OH2 6452   1.813   2.404   3.932
 2149TIP3    H1 6453   1.879   2.380   3.997
 2149TIP3    H2 6454   1.749   2.456   3.981
 2150TIP3   OH2 6455   3.050   3.780   4.724
 2150TIP3    H1 6456   2.992   3.840   4.676
 2150TIP3    H2 6457   3.105   3.837   4.777
 2151TIP3   OH2 6458   3.464   5.173   1.736
 2151TIP3    H1 6459   3.431   5.209   1.654
 2151TIP3    H2 6460   3.434   5.235   1.803
 2152TIP3   OH2 6461   5.158   4.743   3.878
 2152TIP3    H1 6462   5.192   4.815   3.826
 2152TIP3    H2 6463   5.082   4.780   3.924
 2153TIP3   OH2 6464   1.332   2.554   0.406
 2153TIP3    H1 6465   1.323   2.626   0.344
 2153TIP3    H2 6466   1.282   2.482   0.367
 2154TIP3   OH2 6467   5.283   0.584   1.355
 2154TIP3    H1 6468   5.253   0.494   1.344
 2154TIP3    H2 6469   5.204   0.637   1.347
 2155TIP3   OH2 6470   6.318   0.632   4.582
 2155TIP3    H1 6471   6.246   0.607   4.640
 2155TIP3    H2 6472   6.354   0.712   4.622
 2156TIP3   OH2 6473   4.905   0.247   1.277
 2156TIP3    H1 6474   4.999   0.264   1.275
 2156TIP3    H2 6475   4.877   0.274   1.364
 2157TIP3   OH2 6476   4.540   5.443   1.342
 2157TIP3    H1 6477   4.486   5.482   1.411
 2157TIP3    H2 6478   4.622   5.421   1.386
 2158TIP3   OH2 6479   1.285   5.227   5.097
 2158TIP3    H1 6480   1.193   5.227   5.124
 2158TIP3    H2 6481   1.320   5.310   5.129
 2159TIP3   OH2 6482   5.626   3.162   3.740
 2159TIP3    H1 6483   5.654   3.231   3.680
 2159TIP3    H2 6484   5.700   3.151   3.800
 2160TIP3   OH2 6485   1.207   4.480   2.992
 2160TIP3    H1 6486   1.235   4.556   3.044
 2160TIP3    H2 6487   1.111   4.483   2.995
 2161TIP3   OH2 6488   0.739   2.972   1.690
 2161TIP3    H1 6489   0.775   3.055   1.720
 2161TIP3    H2 6490   0.647   2.991   1.669
 2162TIP3   OH2 6491   3.686   3.684   0.692
 2162TIP3    H1 6492   3.699   3.776   0.716
 2162TIP3    H2 6493   3.735   3.673   0.610
 2163TIP3   OH2 6494   4.860   4.356   1.277
 2163TIP3    H1 6495   4.777   4.364   1.323
 2163TIP3    H2 6496   4.926   4.371   1.345
 2164TIP3   OH2 6497   4.010   3.141   3.139
 2164TIP3    H1 6498   3.977   3.052   3.141
 2164TIP3    H2 6499   4.101   3.134   3.170
 2165TIP3   OH2 6500   2.897   5.837   1.442
 2165TIP3    H1 6501   2.949   5.800   1.371
 2165TIP3    H2 6502   2.887   5.765   1.505
 2166TIP3   OH2 6503   1.146   3.016   0.795
 2166TIP3    H1 6504   1.190   3.099   0.814
 2166TIP3    H2 6505   1.085   3.037   0.724
 2167TIP3   OH2 6506   2.709   5.344   4.594
 2167TIP3    H1 6507   2.788   5.291   4.603
 2167TIP3    H2 6508   2.676   5.353   4.684
 2168TIP3   OH2 6509   0.881   5.225   2.080
 2168TIP3    H1 6510   0.825   5.222   2.158
 2168TIP3    H2 6511   0.821   5.210   2.007
 2169TIP3   OH2 6512   4.035   4.825   1.782
 2169TIP3    H1 6513   4.036   4.778   1.866
 2169TIP3    H2 6514   4.054   4.757   1.717
 2170TIP3   OH2 6515   0.800   0.796   0.390
 2170TIP3    H1 6516   0.805   0.710   0.349
 2170TIP3    H2 6517   0.850   0.786   0.471
 2171TIP3   OH2 6518   0.272   4.197   4.085
 2171TIP3    H1 6519   0.209   4.160   4.024
 2171TIP3    H2 6520   0.357   4.171   4.051
 2172TIP3   OH2 6521   3.500   0.280   3.316
 2172TIP3    H1 6522   3.539   0.319   3.394
 2172TIP3    H2 6523   3.574   0.246   3.266
 2173TIP3   OH2 6524   3.080   5.491   1.086
 2173TIP3    H1 6525   3.133   5.472   1.163
 2173TIP3    H2 6526   3.064   5.405   1.047
 2174TIP3   OH2 6527   3.420   0.518   0.442
 2174TIP3    H1 6528   3.332   0.556   0.445
 2174TIP3    H2 6529   3.406   0.424   0.457
 2175TIP3   OH2 6530   1.638   1.978   4.676
 2175TIP3    H1 6531   1.589   1.898   4.694
 2175TIP3    H2 6532   1.576   2.049   4.693
 2176TIP3   OH2 6533   3.101   3.620   3.492
 2176TIP3    H1 6534   3.146   3.551   3.443
 2176TIP3    H2 6535   3.040   3.573   3.548
 2177TIP3   OH2 6536   2.581   1.713   2.644
 2177TIP3    H1 6537   2.589   1.708   2.739
 2177TIP3    H2 6538   2.538   1.632   2.619
 2178TIP3   OH2 6539   2.823   5.708   3.115
 2178TIP3    H1 6540   2.904   5.674   3.078
 2178TIP3    H2 6541   2.775   5.744   3.040
 2179TIP3   OH2 6542   4.177   2.983   2.808
 2179TIP3    H1 6543   4.252   3.010   2.861
 2179TIP3    H2 6544   4.213   2.968   2.721
 2180TIP3   OH2 6545   1.622   1.644   4.022
 2180TIP3    H1 6546   1.666   1.564   4.049
 2180TIP3    H2 6547   1.691   1.700   3.987
 2181TIP3   OH2 6548   3.272   0.061   4.826
 2181TIP3    H1 6549   3.231   0.004   4.760
 2181TIP3    H2 6550   3.346   0.100   4.780
 2182TIP3   OH2 6551   6.333   2.835   2.433
 2182TIP3    H1 6552   6.324   2.864   2.342
 2182TIP3    H2 6553   6.252   2.787   2.451
 2183TIP3   OH2 6554   2.034   0.440   3.784
 2183TIP3    H1 6555   2.063   0.519   3.738
 2183TIP3    H2 6556   2.099   0.428   3.853
 2184TIP3   OH2 6557   0.702   4.149   3.283
 2184TIP3    H1 6558   0.767   4.081   3.269
 2184TIP3    H2 6559   0.665   4.166   3.196
 2185TIP3   OH2 6560   4.477   4.617   4.127
 2185TIP3    H1 6561   4.557   4.578   4.093
 2185TIP3    H2 6562   4.475   4.591   4.219
 2186TIP3   OH2 6563   0.693   2.378   0.923
 2186TIP3    H1 6564   0.724   2.466   0.946
 2186TIP3    H2 6565   0.664   2.340   1.005
 2187TIP3   OH2 6566   5.060   4.930   1.370
 2187TIP3    H1 6567   5.142   4.897   1.407
 2187TIP3    H2 6568   5.038   5.005   1.425
 2188TIP3   OH2 6569   1.743   0.062   1.308
 2188TIP3    H1 6570   1.741   0.012   1.389
 2188TIP3    H2 6571   1.836   0.070   1.287
 2189TIP3   OH2 6572   2.155   0.058   5.007
 2189TIP3    H1 6573   2.206   0.116   4.950
 2189TIP3    H2 6574   2.150  -0.024   4.957
 2190TIP3   OH2 6575   3.966   0.539   0.071
 2190TIP3    H1 6576   3.930   0.451   0.085
 2190TIP3    H2 6577   4.045   0.524   0.018
 2191TIP3   OH2 6578   4.670   3.257   2.712
 2191TIP3    H1 6579   4.576   3.248   2.698
 2191TIP3    H2 6580   4.710   3.216   2.636
 2192TIP3   OH2 6581   4.124   0.182   0.475
 2192TIP3    H1 6582   4.107   0.118   0.406
 2192TIP3    H2 6583   4.134   0.265   0.429
 2193TIP3   OH2 6584   1.458   1.785   4.610
 2193TIP3    H1 6585   1.466   1.691   4.596
 2193TIP3    H2 6586   1.443   1.821   4.523
 2194TIP3   OH2 6587   0.567   4.619   0.968
 2194TIP3    H1 6588   0.486   4.669   0.957
 2194TIP3    H2 6589   0.635   4.676   0.932
 2195TIP3   OH2 6590   3.277   4.858   3.660
 2195TIP3    H1 6591   3.231   4.926   3.609
 2195TIP3    H2 6592   3.337   4.818   3.597
 2196TIP3   OH2 6593   4.217   4.545   2.231
 2196TIP3    H1 6594   4.303   4.578   2.259
 2196TIP3    H2 6595   4.155   4.586   2.292
 2197TIP3   OH2 6596   4.699   2.213   5.058
 2197TIP3    H1 6597   4.703   2.308   5.059
 2197TIP3    H2 6598   4.781   2.185   5.018
 2198TIP3   OH2 6599   1.308   5.346   3.487
 2198TIP3    H1 6600   1.331   5.345   3.394
 2198TIP3    H2 6601   1.371   5.286   3.527
 2199TIP3   OH2 6602   2.191   0.240   3.345
 2199TIP3    H1 6603   2.195   0.277   3.433
 2199TIP3    H2 6604   2.102   0.260   3.315
 2200TIP3   OH2 6605   0.458  -0.013   4.930
 2200TIP3    H1 6606   0.504   0.014   5.010
 2200TIP3    H2 6607   0.476   0.057   4.868
 2201TIP3   OH2 6608   1.381   2.023   3.572
 2201TIP3    H1 6609   1.451   2.046   3.511
 2201TIP3    H2 6610   1.319   1.972   3.519
 2202TIP3   OH2 6611   4.898   5.059   4.232
 2202TIP3    H1 6612   4.891   5.152   4.211
 2202TIP3    H2 6613   4.991   5.039   4.224
 2203TIP3   OH2 6614   6.411   3.578   3.452
 2203TIP3    H1 6615   6.337   3.576   3.392
 2203TIP3    H2 6616   6.457   3.496   3.436
 2204TIP3   OH2 6617   4.076   4.211   0.902
 2204TIP3    H1 6618   4.038   4.281   0.849
 2204TIP3    H2 6619   4.110   4.255   0.980
 2205TIP3   OH2 6620   0.136   1.103   1.852
 2205TIP3    H1 6621   0.096   1.132   1.934
 2205TIP3    H2 6622   0.211   1.050   1.880
 2206TIP3   OH2 6623   1.297   3.025   0.189
 2206TIP3    H1 6624   1.351   3.097   0.157
 2206TIP3    H2 6625   1.348   2.987   0.260
 2207TIP3   OH2 6626   1.888   5.006   3.035
 2207TIP3    H1 6627   1.922   4.947   2.968
 2207TIP3    H2 6628   1.795   4.984   3.040
 2208TIP3   OH2 6629   1.395   3.739   4.770
 2208TIP3    H1 6630   1.457   3.808   4.748
 2208TIP3    H2 6631   1.360   3.709   4.686
 2209TIP3   OH2 6632   0.938   2.006   2.331
 2209TIP3    H1 6633   0.955   1.938   2.266
 2209TIP3    H2 6634   1.018   2.058   2.334
 2210TIP3   OH2 6635   0.600   0.310   0.924
 2210TIP3    H1 6636   0.554   0.385   0.886
 2210TIP3    H2 6637   0.692   0.338   0.930
 2211TIP3   OH2 6638   3.272   2.609   4.914
 2211TIP3    H1 6639   3.357   2.647   4.937
 2211TIP3    H2 6640   3.261   2.628   4.821
 2212TIP3   OH2 6641   1.276   0.961   0.662
 2212TIP3    H1 6642   1.322   1.003   0.735
 2212TIP3    H2 6643   1.264   0.871   0.690
 2213TIP3   OH2 6644   0.484   5.758   2.390
 2213TIP3    H1 6645   0.511   5.729   2.303
 2213TIP3    H2 6646   0.556   5.813   2.421
 2214TIP3   OH2 6647   3.066   1.452   0.651
 2214TIP3    H1 6648   3.019   1.441   0.568
 2214TIP3    H2 6649   3.083   1.546   0.657
 2215TIP3   OH2 6650   5.497   0.066   0.869
 2215TIP3    H1 6651   5.586   0.060   0.834
 2215TIP3    H2 6652   5.498   0.145   0.924
 2216TIP3   OH2 6653   1.797   3.127   2.399
 2216TIP3    H1 6654   1.827   3.037   2.414
 2216TIP3    H2 6655   1.877   3.180   2.403
 2217TIP3   OH2 6656   1.145   2.118   4.010
 2217TIP3    H1 6657   1.127   2.028   4.036
 2217TIP3    H2 6658   1.221   2.112   3.953
 2218TIP3   OH2 6659   1.985   1.207   0.655
 2218TIP3    H1 6660   2.040   1.136   0.622
 2218TIP3    H2 6661   2.015   1.285   0.607
 2219TIP3   OH2 6662   5.675   3.472   1.180
 2219TIP3    H1 6663   5.601   3.476   1.119
 2219TIP3    H2 6664   5.680   3.559   1.219
 2220TIP3   OH2 6665   4.430   4.434   3.318
 2220TIP3    H1 6666   4.504   4.493   3.307
 2220TIP3    H2 6667   4.361   4.488   3.357
 2221TIP3   OH2 6668   3.247   4.820   2.659
 2221TIP3    H1 6669   3.191   4.758   2.706
 2221TIP3    H2 6670   3.225   4.806   2.567
 2222TIP3   OH2 6671   2.930   1.907   4.522
 2222TIP3    H1 6672   2.948   1.813   4.526
 2222TIP3    H2 6673   3.016   1.949   4.520
 2223TIP3   OH2 6674   2.142   0.876   0.107
 2223TIP3    H1 6675   2.083   0.848   0.177
 2223TIP3    H2 6676   2.154   0.970   0.122
 2224TIP3   OH2 6677   1.340   2.377   2.204
 2224TIP3    H1 6678   1.250   2.396   2.230
 2224TIP3    H2 6679   1.353   2.428   2.124
 2225TIP3   OH2 6680   0.062   4.115   0.948
 2225TIP3    H1 6681  -0.018   4.135   0.998
 2225TIP3    H2 6682   0.128   4.099   1.015
 2226TIP3   OH2 6683   3.036   4.823   1.199
 2226TIP3    H1 6684   3.087   4.804   1.277
 2226TIP3    H2 6685   2.945   4.824   1.230
 2227TIP3   OH2 6686   0.302   0.412   3.698
 2227TIP3    H1 6687   0.374   0.364   3.740
 2227TIP3    H2 6688   0.265   0.466   3.767
 2228TIP3   OH2 6689   0.349   5.261   3.163
 2228TIP3    H1 6690   0.282   5.194   3.167
 2228TIP3    H2 6691   0.405   5.245   3.239
 2229TIP3   OH2 6692   1.080   3.259   2.241
 2229TIP3    H1 6693   1.146   3.318   2.276
 2229TIP3    H2 6694   1.044   3.215   2.318
 2230TIP3   OH2 6695   2.554   1.903   1.671
 2230TIP3    H1 6696   2.478   1.958   1.688
 2230TIP3    H2 6697   2.542   1.873   1.580
 2231TIP3   OH2 6698   3.193   5.901   1.058
 2231TIP3    H1 6699   3.124   5.926   0.997
 2231TIP3    H2 6700   3.274   5.903   1.007
 2232TIP3   OH2 6701   0.319   3.558   2.413
 2232TIP3    H1 6702   0.303   3.651   2.425
 2232TIP3    H2 6703   0.298   3.541   2.321
 2233TIP3   OH2 6704   0.155   0.484   0.489
 2233TIP3    H1 6705   0.171   0.419   0.558
 2233TIP3    H2 6706   0.226   0.472   0.427
 2234TIP3   OH2 6707   0.119   0.993   3.967
 2234TIP3    H1 6708   0.046   0.961   3.914
 2234TIP3    H2 6709   0.092   1.082   3.992
 2235TIP3   OH2 6710   4.434   1.128   3.688
 2235TIP3    H1 6711   4.493   1.134   3.612
 2235TIP3    H2 6712   4.381   1.051   3.671
 2236TIP3   OH2 6713   1.350   2.969   4.434
 2236TIP3    H1 6714   1.359   2.878   4.408
 2236TIP3    H2 6715   1.308   2.965   4.520
 2237TIP3   OH2 6716   5.641   5.625   4.429
 2237TIP3    H1 6717   5.573   5.689   4.449
 2237TIP3    H2 6718   5.721   5.663   4.466
 2238TIP3   OH2 6719   0.302   3.702   3.394
 2238TIP3    H1 6720   0.219   3.698   3.442
 2238TIP3    H2 6721   0.298   3.784   3.345
 2239TIP3   OH2 6722   4.125   0.530   0.775
 2239TIP3    H1 6723   4.105   0.617   0.739
 2239TIP3    H2 6724   4.055   0.474   0.741
 2240TIP3   OH2 6725   6.292   2.531   2.712
 2240TIP3    H1 6726   6.285   2.599   2.779
 2240TIP3    H2 6727   6.294   2.449   2.761
 2241TIP3   OH2 6728   3.484   4.941   4.119
 2241TIP3    H1 6729   3.452   4.959   4.031
 2241TIP3    H2 6730   3.525   4.854   4.112
 2242TIP3   OH2 6731   3.650   1.444   0.396
 2242TIP3    H1 6732   3.701   1.435   0.315
 2242TIP3    H2 6733   3.612   1.357   0.410
 2243TIP3   OH2 6734   2.353   3.547   4.321
 2243TIP3    H1 6735   2.312   3.539   4.407
 2243TIP3    H2 6736   2.307   3.483   4.266
 2244TIP3   OH2 6737   1.123   3.531   3.519
 2244TIP3    H1 6738   1.039   3.560   3.483
 2244TIP3    H2 6739   1.135   3.443   3.483
 2245TIP3   OH2 6740   2.835   3.595   1.484
 2245TIP3    H1 6741   2.785   3.665   1.525
 2245TIP3    H2 6742   2.926   3.612   1.510
 2246TIP3   OH2 6743   6.183   0.088   2.183
 2246TIP3    H1 6744   6.245   0.148   2.141
 2246TIP3    H2 6745   6.100   0.105   2.139
 2247TIP3   OH2 6746   2.869   0.137   0.169
 2247TIP3    H1 6747   2.910   0.125   0.254
 2247TIP3    H2 6748   2.786   0.182   0.188
 2248TIP3   OH2 6749   3.964   5.140   3.722
 2248TIP3    H1 6750   3.890   5.192   3.691
 2248TIP3    H2 6751   3.960   5.059   3.672
 2249TIP3   OH2 6752   1.677   2.661   3.608
 2249TIP3    H1 6753   1.770   2.679   3.620
 2249TIP3    H2 6754   1.669   2.566   3.616
 2250TIP3   OH2 6755   2.637   0.186   0.310
 2250TIP3    H1 6756   2.636   0.091   0.302
 2250TIP3    H2 6757   2.579   0.205   0.383
 2251TIP3   OH2 6758   0.348   3.306   1.337
 2251TIP3    H1 6759   0.391   3.307   1.252
 2251TIP3    H2 6760   0.415   3.273   1.397
 2252TIP3   OH2 6761   1.708   0.600   5.102
 2252TIP3    H1 6762   1.624   0.583   5.057
 2252TIP3    H2 6763   1.738   0.514   5.129
 2253TIP3   OH2 6764   2.478   3.150   3.274
 2253TIP3    H1 6765   2.521   3.219   3.223
 2253TIP3    H2 6766   2.517   3.158   3.361
 2254TIP3   OH2 6767   4.706   1.007   0.469
 2254TIP3    H1 6768   4.670   1.034   0.554
 2254TIP3    H2 6769   4.801   1.004   0.483
 2255TIP3   OH2 6770   2.532   0.620   1.257
 2255TIP3    H1 6771   2.452   0.587   1.215
 2255TIP3    H2 6772   2.499   0.670   1.332
 2256TIP3   OH2 6773   5.739   4.262   2.791
 2256TIP3    H1 6774   5.708   4.350   2.813
 2256TIP3    H2 6775   5.802   4.275   2.721
 2257TIP3   OH2 6776   3.626   4.067   0.130
 2257TIP3    H1 6777   3.688   3.994   0.134
 2257TIP3    H2 6778   3.682   4.145   0.126
 2258TIP3   OH2 6779   2.774   4.265   1.930
 2258TIP3    H1 6780   2.796   4.183   1.885
 2258TIP3    H2 6781   2.833   4.267   2.005
 2259TIP3   OH2 6782   0.294   5.912   1.808
 2259TIP3    H1 6783   0.354   5.875   1.743
 2259TIP3    H2 6784   0.207   5.882   1.781
 2260TIP3   OH2 6785   5.198   1.534   2.387
 2260TIP3    H1 6786   5.192   1.456   2.332
 2260TIP3    H2 6787   5.261   1.511   2.455
 2261TIP3   OH2 6788   5.843   0.761   3.790
 2261TIP3    H1 6789   5.748   0.762   3.800
 2261TIP3    H2 6790   5.864   0.843   3.747
 2262TIP3   OH2 6791   3.924   4.117   1.185
 2262TIP3    H1 6792   3.976   4.101   1.106
 2262TIP3    H2 6793   3.984   4.097   1.257
 2263TIP3   OH2 6794   2.501   1.264   3.271
 2263TIP3    H1 6795   2.508   1.359   3.262
 2263TIP3    H2 6796   2.410   1.248   3.297
 2264TIP3   OH2 6797   3.014   5.353   2.863
 2264TIP3    H1 6798   2.981   5.355   2.774
 2264TIP3    H2 6799   3.102   5.391   2.857
 2265TIP3   OH2 6800   3.619   1.603   2.967
 2265TIP3    H1 6801   3.551   1.668   2.948
 2265TIP3    H2 6802   3.578   1.519   2.943
 2266TIP3   OH2 6803   1.781   4.314   1.157
 2266TIP3    H1 6804   1.839   4.273   1.221
 2266TIP3    H2 6805   1.838   4.331   1.081
 2267TIP3   OH2 6806   0.536   4.539   3.917
 2267TIP3    H1 6807   0.539   4.537   3.821
 2267TIP3    H2 6808   0.625   4.514   3.944
 2268TIP3   OH2 6809   0.327   4.098   2.759
 2268TIP3    H1 6810   0.319   4.122   2.667
 2268TIP3    H2 6811   0.412   4.054   2.766
 2269TIP3   OH2 6812   0.585   3.534   1.487
 2269TIP3    H1 6813   0.569   3.599   1.418
 2269TIP3    H2 6814   0.548   3.453   1.452
 2270TIP3   OH2 6815   6.128   3.375   4.307
 2270TIP3    H1 6816   6.211   3.374   4.355
 2270TIP3    H2 6817   6.145   3.323   4.228
 2271TIP3   OH2 6818   3.472   3.697   3.308
 2271TIP3    H1 6819   3.385   3.704   3.268
 2271TIP3    H2 6820   3.495   3.604   3.302
 2272TIP3   OH2 6821   2.651   5.464   1.052
 2272TIP3    H1 6822   2.561   5.495   1.069
 2272TIP3    H2 6823   2.707   5.527   1.098
 2273TIP3   OH2 6824   6.025   5.999   4.201
 2273TIP3    H1 6825   5.971   6.024   4.126
 2273TIP3    H2 6826   6.000   5.908   4.218
 2274TIP3   OH2 6827   0.274   2.735   4.680
 2274TIP3    H1 6828   0.230   2.803   4.731
 2274TIP3    H2 6829   0.331   2.783   4.620
 2275TIP3   OH2 6830   5.563   2.904   4.578
 2275TIP3    H1 6831   5.617   2.919   4.656
 2275TIP3    H2 6832   5.625   2.904   4.505
 2276TIP3   OH2 6833   3.957   3.487   4.345
 2276TIP3    H1 6834   4.017   3.442   4.404
 2276TIP3    H2 6835   3.949   3.575   4.381
 2277TIP3   OH2 6836   3.134   1.380   0.910
 2277TIP3    H1 6837   3.230   1.386   0.907
 2277TIP3    H2 6838   3.106   1.403   0.821
 2278TIP3   OH2 6839   1.363   2.397   5.010
 2278TIP3    H1 6840   1.301   2.470   5.010
 2278TIP3    H2 6841   1.308   2.320   5.000
 2279TIP3   OH2 6842   4.807   5.898   0.620
 2279TIP3    H1 6843   4.820   5.992   0.611
 2279TIP3    H2 6844   4.895   5.861   0.616
 2280TIP3   OH2 6845   0.991   1.610   3.898
 2280TIP3    H1 6846   0.976   1.525   3.938
 2280TIP3    H2 6847   1.046   1.592   3.822
 2281TIP3   OH2 6848   5.408   3.456   3.749
 2281TIP3    H1 6849   5.498   3.424   3.750
 2281TIP3    H2 6850   5.372   3.423   3.667
 2282TIP3   OH2 6851   5.056   1.525   3.973
 2282TIP3    H1 6852   5.025   1.439   3.999
 2282TIP3    H2 6853   4.978   1.571   3.944
 2283TIP3   OH2 6854   4.046   5.162   2.755
 2283TIP3    H1 6855   3.954   5.138   2.750
 2283TIP3    H2 6856   4.049   5.253   2.725
 2284TIP3   OH2 6857   0.037   1.402   1.948
 2284TIP3    H1 6858   0.117   1.448   1.972
 2284TIP3    H2 6859   0.034   1.407   1.852
 2285TIP3   OH2 6860   0.142   2.723   0.142
 2285TIP3    H1 6861   0.064   2.718   0.197
 2285TIP3    H2 6862   0.202   2.659   0.181
 2286TIP3   OH2 6863   4.352   5.868   0.575
 2286TIP3    H1 6864   4.409   5.917   0.516
 2286TIP3    H2 6865   4.352   5.779   0.540
 2287TIP3   OH2 6866   2.946   3.661   0.635
 2287TIP3    H1 6867   2.941   3.567   0.620
 2287TIP3    H2 6868   2.882   3.678   0.705
 2288TIP3   OH2 6869   2.285   3.439   2.295
 2288TIP3    H1 6870   2.324   3.353   2.306
 2288TIP3    H2 6871   2.299   3.483   2.378
 2289TIP3   OH2 6872   0.361   2.187   3.943
 2289TIP3    H1 6873   0.417   2.217   4.015
 2289TIP3    H2 6874   0.367   2.091   3.946
 2290TIP3   OH2 6875   3.336   2.060   0.917
 2290TIP3    H1 6876   3.253   2.012   0.912
 2290TIP3    H2 6877   3.403   1.992   0.925
 2291TIP3   OH2 6878   0.314   3.006   4.141
 2291TIP3    H1 6879   0.399   2.965   4.156
 2291TIP3    H2 6880   0.334   3.098   4.127
 2292TIP3   OH2 6881   3.402   3.035   3.937
 2292TIP3    H1 6882   3.354   3.062   4.015
 2292TIP3    H2 6883   3.484   3.085   3.941
 2293TIP3   OH2 6884   4.627   1.383   2.152
 2293TIP3    H1 6885   4.647   1.313   2.214
 2293TIP3    H2 6886   4.532   1.396   2.161
 2294TIP3   OH2 6887   0.721   2.748   3.797
 2294TIP3    H1 6888   0.683   2.664   3.773
 2294TIP3    H2 6889   0.726   2.747   3.892
 2295TIP3   OH2 6890   5.473   1.854   2.499
 2295TIP3    H1 6891   5.427   1.835   2.581
 2295TIP3    H2 6892   5.410   1.834   2.431
 2296TIP3   OH2 6893   0.839   5.099   4.902
 2296TIP3    H1 6894   0.932   5.086   4.883
 2296TIP3    H2 6895   0.837   5.138   4.989
 2297TIP3   OH2 6896   5.699   3.643   1.535
 2297TIP3    H1 6897   5.762   3.654   1.464
 2297TIP3    H2 6898   5.622   3.693   1.507
 2298TIP3   OH2 6899   2.739   3.245   2.390
 2298TIP3    H1 6900   2.722   3.156   2.357
 2298TIP3    H2 6901   2.776   3.232   2.477
 2299TIP3   OH2 6902   5.102   0.926   2.925
 2299TIP3    H1 6903   5.077   1.010   2.965
 2299TIP3    H2 6904   5.092   0.862   2.995
 2300TIP3   OH2 6905   4.304   5.641   0.428
 2300TIP3    H1 6906   4.304   5.600   0.342
 2300TIP3    H2 6907   4.344   5.576   0.486
 2301TIP3   OH2 6908   0.401   5.841   0.892
 2301TIP3    H1 6909   0.398   5.868   0.984
 2301TIP3    H2 6910   0.482   5.880   0.858
 2302TIP3   OH2 6911   4.827   5.309   3.436
 2302TIP3    H1 6912   4.767   5.307   3.362
 2302TIP3    H2 6913   4.788   5.372   3.496
 2303TIP3   OH2 6914   2.571   4.779   4.824
 2303TIP3    H1 6915   2.596   4.700   4.873
 2303TIP3    H2 6916   2.654   4.826   4.812
 2304TIP3   OH2 6917   0.162   2.350   3.861
 2304TIP3    H1 6918   0.247   2.328   3.899
 2304TIP3    H2 6919   0.118   2.401   3.928
 2305TIP3   OH2 6920   3.981   5.654   1.359
 2305TIP3    H1 6921   3.962   5.567   1.324
 2305TIP3    H2 6922   3.904   5.706   1.336
 2306TIP3   OH2 6923   0.373   3.984   3.240
 2306TIP3    H1 6924   0.278   3.994   3.240
 2306TIP3    H2 6925   0.405   4.052   3.299
 2307TIP3   OH2 6926   1.086   1.417   3.590
 2307TIP3    H1 6927   1.097   1.509   3.567
 2307TIP3    H2 6928   1.131   1.407   3.674
 2308TIP3   OH2 6929   3.119   1.826   0.212
 2308TIP3    H1 6930   3.092   1.758   0.275
 2308TIP3    H2 6931   3.056   1.818   0.141
 2309TIP3   OH2 6932   2.326   4.099   1.032
 2309TIP3    H1 6933   2.343   4.185   1.072
 2309TIP3    H2 6934   2.301   4.120   0.942
 2310TIP3   OH2 6935   2.380   5.004   2.849
 2310TIP3    H1 6936   2.473   4.994   2.864
 2310TIP3    H2 6937   2.355   5.079   2.903
 2311TIP3   OH2 6938   0.422   5.347   2.763
 2311TIP3    H1 6939   0.332   5.314   2.763
 2311TIP3    H2 6940   0.415   5.435   2.728
 2312TIP3   OH2 6941   4.726   4.194   3.669
 2312TIP3    H1 6942   4.748   4.202   3.576
 2312TIP3    H2 6943   4.795   4.243   3.714
 2313TIP3   OH2 6944   4.363   0.589   1.738
 2313TIP3    H1 6945   4.283   0.552   1.775
 2313TIP3    H2 6946   4.383   0.664   1.795
 2314TIP3   OH2 6947   2.244   5.225   1.558
 2314TIP3    H1 6948   2.270   5.315   1.580
 2314TIP3    H2 6949   2.148   5.226   1.560
 2315TIP3   OH2 6950   5.815   4.240   4.903
 2315TIP3    H1 6951   5.736   4.190   4.882
 2315TIP3    H2 6952   5.815   4.312   4.840
 2316TIP3   OH2 6953   2.236   4.960   2.354
 2316TIP3    H1 6954   2.276   4.941   2.439
 2316TIP3    H2 6955   2.150   4.918   2.358
 2317TIP3   OH2 6956   5.787   0.032   2.352
 2317TIP3    H1 6957   5.702  -0.011   2.366
 2317TIP3    H2 6958   5.765   0.123   2.332
 2318TIP3   OH2 6959   1.246   2.923   3.527
 2318TIP3    H1 6960   1.299   2.884   3.598
 2318TIP3    H2 6961   1.210   3.003   3.566
 2319TIP3   OH2 6962   1.159   3.622   3.106
 2319TIP3    H1 6963   1.145   3.709   3.070
 2319TIP3    H2 6964   1.169   3.636   3.200
 2320TIP3   OH2 6965   4.538   5.226   2.341
 2320TIP3    H1 6966   4.538   5.294   2.408
 2320TIP3    H2 6967   4.573   5.149   2.386
 2321TIP3   OH2 6968   6.135   2.290   0.304
 2321TIP3    H1 6969   6.225   2.262   0.320
 2321TIP3    H2 6970   6.134   2.382   0.331
 2322TIP3   OH2 6971   0.961   4.797   4.602
 2322TIP3    H1 6972   0.928   4.767   4.687
 2322TIP3    H2 6973   1.048   4.759   4.595
 2323TIP3   OH2 6974   4.519   1.144   1.772
 2323TIP3    H1 6975   4.509   1.231   1.732
 2323TIP3    H2 6976   4.496   1.083   1.702
 2324TIP3   OH2 6977   1.172   4.424   5.104
 2324TIP3    H1 6978   1.097   4.368   5.126
 2324TIP3    H2 6979   1.247   4.364   5.105
 2325TIP3   OH2 6980   5.939   4.525   1.588
 2325TIP3    H1 6981   5.925   4.518   1.683
 2325TIP3    H2 6982   5.952   4.618   1.573
 2326TIP3   OH2 6983   2.669   0.064   1.378
 2326TIP3    H1 6984   2.645   0.157   1.370
 2326TIP3    H2 6985   2.764   0.064   1.369
 2327TIP3   OH2 6986   6.149   2.096   3.019
 2327TIP3    H1 6987   6.172   2.011   2.981
 2327TIP3    H2 6988   6.093   2.074   3.094
 2328TIP3   OH2 6989   4.982   4.108   2.501
 2328TIP3    H1 6990   5.065   4.156   2.489
 2328TIP3    H2 6991   5.002   4.018   2.474
 2329TIP3   OH2 6992   3.617   0.869   2.419
 2329TIP3    H1 6993   3.556   0.941   2.433
 2329TIP3    H2 6994   3.562   0.795   2.395
 2330TIP3   OH2 6995   4.459   4.687   0.583
 2330TIP3    H1 6996   4.440   4.752   0.650
 2330TIP3    H2 6997   4.374   4.661   0.549
 2331TIP3   OH2 6998   2.722   4.542   4.870
 2331TIP3    H1 6999   2.717   4.447   4.864
 2331TIP3    H2 7000   2.791   4.566   4.808
 2332TIP3   OH2 7001   1.413   4.845   0.729
 2332TIP3    H1 7002   1.418   4.756   0.763
 2332TIP3    H2 7003   1.323   4.855   0.699
 2333TIP3   OH2 7004   3.182   4.806   1.621
 2333TIP3    H1 7005   3.190   4.720   1.580
 2333TIP3    H2 7006   3.265   4.850   1.601
 2334TIP3   OH2 7007   0.037   5.728   0.866
 2334TIP3    H1 7008   0.119   5.772   0.844
 2334TIP3    H2 7009   0.010   5.769   0.948
 2335TIP3   OH2 7010   4.488   0.482   3.307
 2335TIP3    H1 7011   4.487   0.485   3.212
 2335TIP3    H2 7012   4.415   0.425   3.330
 2336TIP3   OH2 7013   1.192   1.624   3.468
 2336TIP3    H1 7014   1.177   1.594   3.378
 2336TIP3    H2 7015   1.194   1.720   3.460
 2337TIP3   OH2 7016   5.049   4.834   1.077
 2337TIP3    H1 7017   4.978   4.770   1.086
 2337TIP3    H2 7018   5.030   4.901   1.143
 2338TIP3   OH2 7019   4.424   2.827   4.642
 2338TIP3    H1 7020   4.477   2.904   4.620
 2338TIP3    H2 7021   4.372   2.854   4.717
 2339TIP3   OH2 7022   3.169   1.812   4.757
 2339TIP3    H1 7023   3.210   1.833   4.841
 2339TIP3    H2 7024   3.135   1.723   4.768
 2340TIP3   OH2 7025   5.618   1.199   1.196
 2340TIP3    H1 7026   5.608   1.261   1.124
 2340TIP3    H2 7027   5.550   1.134   1.181
 2341TIP3   OH2 7028   5.048   4.182  -0.001
 2341TIP3    H1 7029   5.103   4.141  -0.068
 2341TIP3    H2 7030   4.976   4.121   0.012
 2342TIP3   OH2 7031   1.843   3.032   2.907
 2342TIP3    H1 7032   1.757   3.072   2.920
 2342TIP3    H2 7033   1.844   2.958   2.967
 2343TIP3   OH2 7034   4.985   2.122   4.628
 2343TIP3    H1 7035   5.005   2.062   4.556
 2343TIP3    H2 7036   5.016   2.207   4.597
 2344TIP3   OH2 7037   3.606   4.151   5.036
 2344TIP3    H1 7038   3.590   4.185   4.948
 2344TIP3    H2 7039   3.584   4.059   5.030
 2345TIP3   OH2 7040   1.318   3.147   2.939
 2345TIP3    H1 7041   1.279   3.067   2.974
 2345TIP3    H2 7042   1.308   3.140   2.845
 2346TIP3   OH2 7043   4.906   5.490   4.613
 2346TIP3    H1 7044   4.815   5.468   4.594
 2346TIP3    H2 7045   4.954   5.464   4.535
 2347TIP3   OH2 7046   5.659   4.123   2.223
 2347TIP3    H1 7047   5.742   4.156   2.188
 2347TIP3    H2 7048   5.680   4.096   2.313
 2348TIP3   OH2 7049   3.502   5.068   0.137
 2348TIP3    H1 7050   3.465   4.995   0.087
 2348TIP3    H2 7051   3.428   5.102   0.187
 2349TIP3   OH2 7052   3.706   0.525   1.822
 2349TIP3    H1 7053   3.721   0.465   1.895
 2349TIP3    H2 7054   3.654   0.596   1.860
 2350TIP3   OH2 7055   5.879   2.670   4.836
 2350TIP3    H1 7056   5.801   2.631   4.874
 2350TIP3    H2 7057   5.936   2.688   4.911
 2351TIP3   OH2 7058   5.128   1.206   3.748
 2351TIP3    H1 7059   5.118   1.197   3.843
 2351TIP3    H2 7060   5.066   1.142   3.712
 2352TIP3   OH2 7061   2.801   5.733   1.724
 2352TIP3    H1 7062   2.762   5.732   1.811
 2352TIP3    H2 7063   2.865   5.662   1.725
 2353TIP3   OH2 7064   1.866   0.668   0.434
 2353TIP3    H1 7065   1.831   0.743   0.484
 2353TIP3    H2 7066   1.788   0.620   0.405
 2354TIP3   OH2 7067   2.732   2.579   5.135
 2354TIP3    H1 7068   2.663   2.575   5.201
 2354TIP3    H2 7069   2.787   2.503   5.153
 2355TIP3   OH2 7070   5.578   2.348   1.213
 2355TIP3    H1 7071   5.567   2.260   1.250
 2355TIP3    H2 7072   5.672   2.366   1.220
 2356TIP3   OH2 7073   4.789   1.398   4.436
 2356TIP3    H1 7074   4.817   1.343   4.509
 2356TIP3    H2 7075   4.859   1.461   4.425
 2357TIP3   OH2 7076   0.434   0.086   3.899
 2357TIP3    H1 7077   0.436   0.072   3.994
 2357TIP3    H2 7078   0.476   0.171   3.886
 2358TIP3   OH2 7079   5.812   3.426   1.973
 2358TIP3    H1 7080   5.833   3.480   1.897
 2358TIP3    H2 7081   5.833   3.337   1.946
 2359TIP3   OH2 7082   5.990   0.886   0.866
 2359TIP3    H1 7083   5.920   0.856   0.924
 2359TIP3    H2 7084   6.028   0.961   0.912
 2360TIP3   OH2 7085   2.964   0.286   4.695
 2360TIP3    H1 7086   3.026   0.321   4.632
 2360TIP3    H2 7087   2.903   0.234   4.643
 2361TIP3   OH2 7088   1.581   3.384   2.731
 2361TIP3    H1 7089   1.615   3.319   2.793
 2361TIP3    H2 7090   1.659   3.417   2.686
 2362TIP3   OH2 7091   6.200   5.861   3.907
 2362TIP3    H1 7092   6.117   5.887   3.868
 2362TIP3    H2 7093   6.194   5.765   3.913
 2363TIP3   OH2 7094   3.311   5.778   0.737
 2363TIP3    H1 7095   3.383   5.751   0.680
 2363TIP3    H2 7096   3.274   5.856   0.695
 2364TIP3   OH2 7097   0.206   4.633   3.718
 2364TIP3    H1 7098   0.147   4.704   3.695
 2364TIP3    H2 7099   0.294   4.667   3.700
 2365TIP3   OH2 7100   0.978   1.911   4.181
 2365TIP3    H1 7101   0.898   1.884   4.137
 2365TIP3    H2 7102   0.949   1.955   4.261
 2366TIP3   OH2 7103   4.574   5.816   4.491
 2366TIP3    H1 7104   4.572   5.806   4.586
 2366TIP3    H2 7105   4.533   5.736   4.458
 2367TIP3   OH2 7106   4.771   3.203   0.957
 2367TIP3    H1 7107   4.777   3.144   1.031
 2367TIP3    H2 7108   4.699   3.168   0.903
 2368TIP3   OH2 7109   0.716   1.691   2.177
 2368TIP3    H1 7110   0.690   1.677   2.268
 2368TIP3    H2 7111   0.784   1.625   2.161
 2369TIP3   OH2 7112   2.679   1.183   2.539
 2369TIP3    H1 7113   2.706   1.188   2.447
 2369TIP3    H2 7114   2.758   1.156   2.586
 2370TIP3   OH2 7115   1.036   4.171   1.727
 2370TIP3    H1 7116   0.975   4.236   1.693
 2370TIP3    H2 7117   0.997   4.144   1.811
 2371TIP3   OH2 7118   5.649   1.508   3.168
 2371TIP3    H1 7119   5.700   1.465   3.237
 2371TIP3    H2 7120   5.593   1.569   3.216
 2372TIP3   OH2 7121   5.258   2.232   1.940
 2372TIP3    H1 7122   5.336   2.177   1.933
 2372TIP3    H2 7123   5.220   2.208   2.025
 2373TIP3   OH2 7124   1.617   5.718   3.879
 2373TIP3    H1 7125   1.528   5.729   3.911
 2373TIP3    H2 7126   1.621   5.625   3.854
 2374TIP3   OH2 7127   0.250   1.904   4.449
 2374TIP3    H1 7128   0.161   1.923   4.420
 2374TIP3    H2 7129   0.285   1.845   4.383
 2375TIP3   OH2 7130   1.650   2.402   3.587
 2375TIP3    H1 7131   1.566   2.406   3.543
 2375TIP3    H2 7132   1.638   2.337   3.657
 2376TIP3   OH2 7133   3.317   0.827   0.968
 2376TIP3    H1 7134   3.235   0.877   0.963
 2376TIP3    H2 7135   3.343   0.815   0.877
 2377TIP3   OH2 7136   3.417   5.599   2.663
 2377TIP3    H1 7137   3.451   5.529   2.719
 2377TIP3    H2 7138   3.466   5.589   2.581
 2378TIP3   OH2 7139   3.551   0.952   3.540
 2378TIP3    H1 7140   3.472   0.926   3.587
 2378TIP3    H2 7141   3.600   1.005   3.603
 2379TIP3   OH2 7142   4.792   2.481   3.055
 2379TIP3    H1 7143   4.789   2.520   2.967
 2379TIP3    H2 7144   4.701   2.465   3.078
 2380TIP3   OH2 7145   4.647   2.684   3.474
 2380TIP3    H1 7146   4.558   2.657   3.449
 2380TIP3    H2 7147   4.640   2.778   3.490
 2381TIP3   OH2 7148   1.286   0.071   4.968
 2381TIP3    H1 7149   1.361   0.129   4.985
 2381TIP3    H2 7150   1.256   0.045   5.055
 2382TIP3   OH2 7151   0.075   4.144   5.144
 2382TIP3    H1 7152   0.038   4.224   5.179
 2382TIP3    H2 7153   0.014   4.075   5.172
 2383TIP3   OH2 7154   2.504   4.486   0.620
 2383TIP3    H1 7155   2.594   4.498   0.589
 2383TIP3    H2 7156   2.508   4.405   0.672
 2384TIP3   OH2 7157   5.813   1.122   3.249
 2384TIP3    H1 7158   5.800   1.163   3.334
 2384TIP3    H2 7159   5.875   1.051   3.265
 2385TIP3   OH2 7160   1.231   0.788   3.367
 2385TIP3    H1 7161   1.319   0.761   3.342
 2385TIP3    H2 7162   1.178   0.709   3.357
 2386TIP3   OH2 7163   3.427   0.994   4.644
 2386TIP3    H1 7164   3.417   0.904   4.614
 2386TIP3    H2 7165   3.467   0.986   4.730
 2387TIP3   OH2 7166   4.135   1.574   4.196
 2387TIP3    H1 7167   4.082   1.615   4.127
 2387TIP3    H2 7168   4.185   1.506   4.150
 2388TIP3   OH2 7169   3.967   2.671   5.014
 2388TIP3    H1 7170   3.978   2.664   4.920
 2388TIP3    H2 7171   3.924   2.755   5.027
 2389TIP3   OH2 7172   1.557   1.149   4.578
 2389TIP3    H1 7173   1.644   1.137   4.541
 2389TIP3    H2 7174   1.523   1.059   4.588
 2390TIP3   OH2 7175   3.393   5.836   4.671
 2390TIP3    H1 7176   3.400   5.919   4.623
 2390TIP3    H2 7177   3.482   5.818   4.700
 2391TIP3   OH2 7178   5.106   5.061   4.026
 2391TIP3    H1 7179   5.043   5.023   3.964
 2391TIP3    H2 7180   5.101   5.155   4.011
 2392TIP3   OH2 7181   6.259  -0.013   5.028
 2392TIP3    H1 7182   6.352  -0.033   5.020
 2392TIP3    H2 7183   6.255   0.067   5.080
 2393TIP3   OH2 7184   1.747   4.609   0.136
 2393TIP3    H1 7185   1.738   4.608   0.041
 2393TIP3    H2 7186   1.679   4.550   0.168
 2394TIP3   OH2 7187   5.180   1.033   2.480
 2394TIP3    H1 7188   5.246   0.993   2.537
 2394TIP3    H2 7189   5.174   0.973   2.406
 2395TIP3   OH2 7190   0.044   1.607   3.177
 2395TIP3    H1 7191   0.060   1.645   3.263
 2395TIP3    H2 7192   0.039   1.513   3.193
 2396TIP3   OH2 7193   2.544   2.772   3.171
 2396TIP3    H1 7194   2.622   2.734   3.213
 2396TIP3    H2 7195   2.508   2.831   3.236
 2397TIP3   OH2 7196   1.082   3.597   1.750
 2397TIP3    H1 7197   1.094   3.643   1.833
 2397TIP3    H2 7198   0.987   3.590   1.740
 2398TIP3   OH2 7199   4.695   2.819   4.347
 2398TIP3    H1 7200   4.638   2.772   4.287
 2398TIP3    H2 7201   4.777   2.831   4.298
 2399TIP3   OH2 7202   4.829   0.959   3.735
 2399TIP3    H1 7203   4.775   0.905   3.678
 2399TIP3    H2 7204   4.767   1.006   3.791
 2400TIP3   OH2 7205   0.573   2.716   3.439
 2400TIP3    H1 7206   0.490   2.674   3.461
 2400TIP3    H2 7207   0.548   2.802   3.407
 2401TIP3   OH2 7208   4.018   5.567   0.156
 2401TIP3    H1 7209   3.996   5.642   0.102
 2401TIP3    H2 7210   4.054   5.502   0.095
 2402TIP3   OH2 7211   5.620   0.304   1.551
 2402TIP3    H1 7212   5.547   0.246   1.570
 2402TIP3    H2 7213   5.597   0.387   1.592
 2403TIP3   OH2 7214   3.703   4.903   4.705
 2403TIP3    H1 7215   3.762   4.832   4.679
 2403TIP3    H2 7216   3.621   4.859   4.726
 2404TIP3   OH2 7217   6.246   0.834   0.535
 2404TIP3    H1 7218   6.237   0.750   0.581
 2404TIP3    H2 7219   6.258   0.810   0.443
 2405TIP3   OH2 7220   2.772   3.333   1.110
 2405TIP3    H1 7221   2.845   3.380   1.070
 2405TIP3    H2 7222   2.746   3.269   1.044
 2406TIP3   OH2 7223   1.402   0.913   0.325
 2406TIP3    H1 7224   1.395   0.999   0.282
 2406TIP3    H2 7225   1.405   0.934   0.418
 2407TIP3   OH2 7226   2.095   1.350   0.282
 2407TIP3    H1 7227   2.010   1.381   0.252
 2407TIP3    H2 7228   2.121   1.411   0.350
 2408TIP3   OH2 7229   3.369   1.086   2.715
 2408TIP3    H1 7230   3.439   1.104   2.777
 2408TIP3    H2 7231   3.413   1.061   2.635
 2409TIP3   OH2 7232   3.936   2.716   0.120
 2409TIP3    H1 7233   3.960   2.808   0.112
 2409TIP3    H2 7234   3.843   2.714   0.097
 2410TIP3   OH2 7235   0.172   2.524   0.900
 2410TIP3    H1 7236   0.159   2.598   0.960
 2410TIP3    H2 7237   0.267   2.516   0.892
 2411TIP3   OH2 7238   5.971   2.393   2.921
 2411TIP3    H1 7239   6.013   2.328   2.865
 2411TIP3    H2 7240   5.934   2.342   2.993
 2412TIP3   OH2 7241   1.088   2.370   1.216
 2412TIP3    H1 7242   1.003   2.406   1.191
 2412TIP3    H2 7243   1.081   2.277   1.198
 2413TIP3   OH2 7244   1.271   3.369   3.109
 2413TIP3    H1 7245   1.246   3.443   3.053
 2413TIP3    H2 7246   1.295   3.300   3.047
 2414TIP3   OH2 7247   0.543   5.585   2.847
 2414TIP3    H1 7248   0.593   5.594   2.765
 2414TIP3    H2 7249   0.533   5.491   2.858
 2415TIP3   OH2 7250   2.638   3.619   0.599
 2415TIP3    H1 7251   2.551   3.601   0.633
 2415TIP3    H2 7252   2.695   3.617   0.675
 2416TIP3   OH2 7253   4.389   2.405   4.733
 2416TIP3    H1 7254   4.404   2.399   4.639
 2416TIP3    H2 7255   4.402   2.498   4.753
 2417TIP3   OH2 7256   2.517   5.364   4.387
 2417TIP3    H1 7257   2.583   5.345   4.454
 2417TIP3    H2 7258   2.508   5.460   4.389
 2418TIP3   OH2 7259   1.297   4.807   1.422
 2418TIP3    H1 7260   1.276   4.714   1.414
 2418TIP3    H2 7261   1.212   4.849   1.433
 2419TIP3   OH2 7262   5.110   1.511   1.705
 2419TIP3    H1 7263   5.024   1.480   1.674
 2419TIP3    H2 7264   5.126   1.591   1.655
 2420TIP3   OH2 7265   5.611   5.014   0.123
 2420TIP3    H1 7266   5.599   5.106   0.143
 2420TIP3    H2 7267   5.593   5.007   0.029
 2421TIP3   OH2 7268   4.099   0.759   0.605
 2421TIP3    H1 7269   4.049   0.735   0.527
 2421TIP3    H2 7270   4.065   0.845   0.630
 2422TIP3   OH2 7271   4.757   2.452   3.901
 2422TIP3    H1 7272   4.748   2.531   3.848
 2422TIP3    H2 7273   4.675   2.404   3.887
 2423TIP3   OH2 7274   2.682   2.063   2.817
 2423TIP3    H1 7275   2.671   2.074   2.911
 2423TIP3    H2 7276   2.707   2.150   2.786
 2424TIP3   OH2 7277   3.295   2.192   2.979
 2424TIP3    H1 7278   3.330   2.268   2.932
 2424TIP3    H2 7279   3.203   2.189   2.955
 2425TIP3   OH2 7280   3.765   0.355   1.337
 2425TIP3    H1 7281   3.764   0.261   1.323
 2425TIP3    H2 7282   3.674   0.378   1.357
 2426TIP3   OH2 7283   1.819   3.679   4.001
 2426TIP3    H1 7284   1.831   3.774   4.003
 2426TIP3    H2 7285   1.730   3.666   4.031
 2427TIP3   OH2 7286   5.328   5.158   2.611
 2427TIP3    H1 7287   5.337   5.101   2.535
 2427TIP3    H2 7288   5.268   5.226   2.584
 2428TIP3   OH2 7289   4.982   4.069   1.209
 2428TIP3    H1 7290   4.895   4.100   1.184
 2428TIP3    H2 7291   4.966   4.008   1.281
 2429TIP3   OH2 7292   2.542   3.501   3.641
 2429TIP3    H1 7293   2.608   3.519   3.708
 2429TIP3    H2 7294   2.458   3.508   3.687
 2430TIP3   OH2 7295   5.351   3.270   4.914
 2430TIP3    H1 7296   5.351   3.343   4.976
 2430TIP3    H2 7297   5.443   3.258   4.891
 2431TIP3   OH2 7298   1.698   4.540   4.329
 2431TIP3    H1 7299   1.720   4.623   4.287
 2431TIP3    H2 7300   1.772   4.521   4.386
 2432TIP3   OH2 7301   4.920   5.459   1.049
 2432TIP3    H1 7302   4.891   5.474   0.959
 2432TIP3    H2 7303   4.882   5.375   1.072
 2433TIP3   OH2 7304   1.754   4.769   1.609
 2433TIP3    H1 7305   1.767   4.722   1.691
 2433TIP3    H2 7306   1.683   4.831   1.628
 2434TIP3   OH2 7307   3.025   1.741   4.072
 2434TIP3    H1 7308   3.028   1.688   4.152
 2434TIP3    H2 7309   3.115   1.771   4.061
 2435TIP3   OH2 7310   0.170   2.279   1.202
 2435TIP3    H1 7311   0.089   2.324   1.179
 2435TIP3    H2 7312   0.239   2.337   1.170
 2436TIP3   OH2 7313   6.320   1.454   4.033
 2436TIP3    H1 7314   6.353   1.445   4.122
 2436TIP3    H2 7315   6.393   1.427   3.977
 2437TIP3   OH2 7316   4.774   0.560   4.973
 2437TIP3    H1 7317   4.727   0.493   5.021
 2437TIP3    H2 7318   4.810   0.515   4.897
 2438TIP3   OH2 7319   5.755   1.947   0.175
 2438TIP3    H1 7320   5.832   1.892   0.190
 2438TIP3    H2 7321   5.755   2.010   0.247
 2439TIP3   OH2 7322   2.978   3.459   4.219
 2439TIP3    H1 7323   3.071   3.459   4.198
 2439TIP3    H2 7324   2.968   3.389   4.283
 2440TIP3   OH2 7325   5.125   0.073   4.496
 2440TIP3    H1 7326   5.151  -0.014   4.467
 2440TIP3    H2 7327   5.078   0.058   4.578
 2441TIP3   OH2 7328   1.169   3.894   3.040
 2441TIP3    H1 7329   1.087   3.944   3.044
 2441TIP3    H2 7330   1.237   3.961   3.029
 2442TIP3   OH2 7331   1.989   2.592   2.120
 2442TIP3    H1 7332   1.931   2.640   2.060
 2442TIP3    H2 7333   1.929   2.542   2.176
 2443TIP3   OH2 7334   0.549   1.895   1.305
 2443TIP3    H1 7335   0.457   1.895   1.280
 2443TIP3    H2 7336   0.596   1.922   1.226
 2444TIP3   OH2 7337   4.605   2.277   2.935
 2444TIP3    H1 7338   4.566   2.242   3.015
 2444TIP3    H2 7339   4.642   2.201   2.891
 2445TIP3   OH2 7340   0.178   1.129   0.859
 2445TIP3    H1 7341   0.138   1.042   0.857
 2445TIP3    H2 7342   0.226   1.131   0.941
 2446TIP3   OH2 7343   3.635   2.329   2.141
 2446TIP3    H1 7344   3.575   2.264   2.179
 2446TIP3    H2 7345   3.581   2.380   2.081
 2447TIP3   OH2 7346   0.243   0.117   5.113
 2447TIP3    H1 7347   0.250   0.078   5.026
 2447TIP3    H2 7348   0.283   0.052   5.171
 2448TIP3   OH2 7349   2.234   5.214   0.559
 2448TIP3    H1 7350   2.314   5.209   0.506
 2448TIP3    H2 7351   2.163   5.204   0.496
 2449TIP3   OH2 7352   0.425   4.986   0.500
 2449TIP3    H1 7353   0.491   4.916   0.503
 2449TIP3    H2 7354   0.413   5.004   0.407
 2450TIP3   OH2 7355   5.177   0.391   4.223
 2450TIP3    H1 7356   5.120   0.333   4.273
 2450TIP3    H2 7357   5.146   0.479   4.244
 2451TIP3   OH2 7358   2.723   4.886   5.104
 2451TIP3    H1 7359   2.696   4.806   5.148
 2451TIP3    H2 7360   2.641   4.932   5.085
 2452TIP3   OH2 7361   2.972   0.824   3.917
 2452TIP3    H1 7362   2.936   0.912   3.910
 2452TIP3    H2 7363   2.964   0.802   4.009
 2453TIP3   OH2 7364   2.131   5.195   3.797
 2453TIP3    H1 7365   2.193   5.156   3.735
 2453TIP3    H2 7366   2.170   5.279   3.821
 2454TIP3   OH2 7367   2.994   3.692   5.166
 2454TIP3    H1 7368   3.019   3.702   5.074
 2454TIP3    H2 7369   2.954   3.776   5.189
 2455TIP3   OH2 7370   2.813   4.123   2.963
 2455TIP3    H1 7371   2.826   4.154   3.052
 2455TIP3    H2 7372   2.725   4.154   2.940
 2456TIP3   OH2 7373   5.075   2.621   3.949
 2456TIP3    H1 7374   5.064   2.618   4.044
 2456TIP3    H2 7375   5.043   2.708   3.924
 2457TIP3   OH2 7376   6.307   5.105   2.887
 2457TIP3    H1 7377   6.311   5.066   2.799
 2457TIP3    H2 7378   6.219   5.142   2.893
 2458TIP3   OH2 7379   3.186   0.769   4.125
 2458TIP3    H1 7380   3.125   0.812   4.185
 2458TIP3    H2 7381   3.147   0.783   4.038
 2459TIP3   OH2 7382   3.407   1.233   0.735
 2459TIP3    H1 7383   3.311   1.224   0.732
 2459TIP3    H2 7384   3.422   1.327   0.747
 2460TIP3   OH2 7385   3.303   3.092   1.701
 2460TIP3    H1 7386   3.214   3.060   1.712
 2460TIP3    H2 7387   3.294   3.168   1.643
 2461TIP3   OH2 7388   5.503   0.114   4.161
 2461TIP3    H1 7389   5.574   0.067   4.117
 2461TIP3    H2 7390   5.510   0.204   4.131
 2462TIP3   OH2 7391   1.828   1.403   3.776
 2462TIP3    H1 7392   1.914   1.401   3.735
 2462TIP3    H2 7393   1.845   1.416   3.869
 2463TIP3   OH2 7394   2.416   1.151   5.144
 2463TIP3    H1 7395   2.350   1.098   5.189
 2463TIP3    H2 7396   2.432   1.224   5.202
 2464TIP3   OH2 7397   1.247   3.103   1.072
 2464TIP3    H1 7398   1.295   3.109   1.155
 2464TIP3    H2 7399   1.284   3.174   1.019
 2465TIP3   OH2 7400   0.584   1.338   4.688
 2465TIP3    H1 7401   0.489   1.347   4.692
 2465TIP3    H2 7402   0.618   1.422   4.719
 2466TIP3   OH2 7403   5.200   1.375   4.218
 2466TIP3    H1 7404   5.290   1.345   4.208
 2466TIP3    H2 7405   5.207   1.470   4.226
 2467TIP3   OH2 7406   6.189   4.020   3.987
 2467TIP3    H1 7407   6.281   4.029   3.963
 2467TIP3    H2 7408   6.155   3.953   3.928
 2468TIP3   OH2 7409   1.878   4.471   4.009
 2468TIP3    H1 7410   1.839   4.542   4.061
 2468TIP3    H2 7411   1.949   4.512   3.960
 2469TIP3   OH2 7412   1.837   4.901   3.371
 2469TIP3    H1 7413   1.920   4.902   3.417
 2469TIP3    H2 7414   1.772   4.923   3.438
 2470TIP3   OH2 7415   0.241   2.521   1.473
 2470TIP3    H1 7416   0.268   2.590   1.534
 2470TIP3    H2 7417   0.324   2.486   1.439
 2471TIP3   OH2 7418   2.946   1.206   2.889
 2471TIP3    H1 7419   3.010   1.195   2.819
 2471TIP3    H2 7420   2.977   1.282   2.937
 2472TIP3   OH2 7421   3.835   1.269   2.905
 2472TIP3    H1 7422   3.857   1.344   2.959
 2472TIP3    H2 7423   3.885   1.196   2.941
 2473TIP3   OH2 7424   2.378   3.989   2.093
 2473TIP3    H1 7425   2.297   4.013   2.046
 2473TIP3    H2 7426   2.442   4.053   2.063
 2474TIP3   OH2 7427   3.286   2.065   3.591
 2474TIP3    H1 7428   3.221   2.087   3.524
 2474TIP3    H2 7429   3.327   1.984   3.559
 2475TIP3   OH2 7430   5.894   2.634   2.197
 2475TIP3    H1 7431   5.976   2.592   2.172
 2475TIP3    H2 7432   5.856   2.664   2.114
 2476TIP3   OH2 7433   1.490   5.274   2.866
 2476TIP3    H1 7434   1.444   5.258   2.784
 2476TIP3    H2 7435   1.452   5.356   2.899
 2477TIP3   OH2 7436   4.772   2.102   3.280
 2477TIP3    H1 7437   4.739   2.120   3.192
 2477TIP3    H2 7438   4.800   2.188   3.313
 2478TIP3   OH2 7439   2.069   2.845   1.507
 2478TIP3    H1 7440   2.064   2.932   1.546
 2478TIP3    H2 7441   2.113   2.858   1.423
 2479TIP3   OH2 7442   5.512   0.612   2.427
 2479TIP3    H1 7443   5.503   0.641   2.336
 2479TIP3    H2 7444   5.476   0.684   2.478
 2480TIP3   OH2 7445   5.888   2.379   3.513
 2480TIP3    H1 7446   5.892   2.427   3.430
 2480TIP3    H2 7447   5.848   2.441   3.574
 2481TIP3   OH2 7448   0.759   0.796   0.863
 2481TIP3    H1 7449   0.747   0.788   0.957
 2481TIP3    H2 7450   0.813   0.875   0.853
 2482TIP3   OH2 7451   5.351   1.978   2.984
 2482TIP3    H1 7452   5.401   2.056   3.006
 2482TIP3    H2 7453   5.278   2.010   2.931
 2483TIP3   OH2 7454   0.823   4.926   5.191
 2483TIP3    H1 7455   0.898   4.899   5.139
 2483TIP3    H2 7456   0.813   5.019   5.174
 2484TIP3   OH2 7457   2.066   3.211   5.143
 2484TIP3    H1 7458   2.103   3.238   5.059
 2484TIP3    H2 7459   1.972   3.218   5.130
 2485TIP3   OH2 7460   0.998   2.816   3.628
 2485TIP3    H1 7461   1.060   2.819   3.555
 2485TIP3    H2 7462   0.912   2.808   3.586
 2486TIP3   OH2 7463   2.087   2.646   1.704
 2486TIP3    H1 7464   2.058   2.560   1.673
 2486TIP3    H2 7465   2.088   2.700   1.625
 2487TIP3   OH2 7466   3.739   0.155   3.838
 2487TIP3    H1 7467   3.715   0.248   3.837
 2487TIP3    H2 7468   3.834   0.155   3.828
 2488TIP3   OH2 7469   3.508   5.237   3.183
 2488TIP3    H1 7470   3.465   5.259   3.265
 2488TIP3    H2 7471   3.563   5.162   3.204
 2489TIP3   OH2 7472   4.387   1.816   3.196
 2489TIP3    H1 7473   4.314   1.756   3.181
 2489TIP3    H2 7474   4.380   1.840   3.288
 2490TIP3   OH2 7475   0.335   3.096   4.706
 2490TIP3    H1 7476   0.293   3.168   4.660
 2490TIP3    H2 7477   0.421   3.087   4.665
 2491TIP3   OH2 7478   1.061   2.372   3.710
 2491TIP3    H1 7479   0.979   2.345   3.670
 2491TIP3    H2 7480   1.127   2.314   3.672
 2492TIP3   OH2 7481   4.601   1.063   2.031
 2492TIP3    H1 7482   4.587   0.997   1.962
 2492TIP3    H2 7483   4.588   1.147   1.987
 2493TIP3   OH2 7484   2.757   3.049   4.266
 2493TIP3    H1 7485   2.777   2.962   4.303
 2493TIP3    H2 7486   2.807   3.110   4.321
 2494TIP3   OH2 7487   1.708   4.298   1.858
 2494TIP3    H1 7488   1.660   4.232   1.809
 2494TIP3    H2 7489   1.660   4.380   1.843
 2495TIP3   OH2 7490   1.197   1.073   3.995
 2495TIP3    H1 7491   1.198   1.154   4.045
 2495TIP3    H2 7492   1.280   1.072   3.948
 2496TIP3   OH2 7493   1.056   2.982   0.084
 2496TIP3    H1 7494   1.150   2.985   0.103
 2496TIP3    H2 7495   1.015   2.961   0.167
 2497TIP3   OH2 7496   2.759   3.372   4.041
 2497TIP3    H1 7497   2.826   3.426   4.083
 2497TIP3    H2 7498   2.679   3.389   4.091
 2498TIP3   OH2 7499   0.557   2.081   1.666
 2498TIP3    H1 7500   0.555   2.173   1.693
 2498TIP3    H2 7501   0.647   2.067   1.637
 2499TIP3   OH2 7502   0.284   0.089   4.419
 2499TIP3    H1 7503   0.224   0.126   4.484
 2499TIP3    H2 7504   0.297  -0.001   4.449
 2500TIP3   OH2 7505   1.890   5.082   2.096
 2500TIP3    H1 7506   1.879   5.052   2.187
 2500TIP3    H2 7507   1.850   5.169   2.095
 2501TIP3   OH2 7508   3.770   0.883   4.768
 2501TIP3    H1 7509   3.678   0.858   4.769
 2501TIP3    H2 7510   3.771   0.973   4.737
 2502TIP3   OH2 7511   2.218   2.758   5.138
 2502TIP3    H1 7512   2.221   2.786   5.046
 2502TIP3    H2 7513   2.170   2.828   5.182
 2503TIP3   OH2 7514   3.304   4.526   1.993
 2503TIP3    H1 7515   3.249   4.448   1.988
 2503TIP3    H2 7516   3.329   4.544   1.902
 2504TIP3   OH2 7517   5.115   0.635   1.903
 2504TIP3    H1 7518   5.140   0.721   1.936
 2504TIP3    H2 7519   5.021   0.631   1.916
 2505TIP3   OH2 7520   2.840   3.271   4.385
 2505TIP3    H1 7521   2.750   3.277   4.351
 2505TIP3    H2 7522   2.838   3.319   4.467
 2506TIP3   OH2 7523   1.399   5.112   3.592
 2506TIP3    H1 7524   1.315   5.122   3.637
 2506TIP3    H2 7525   1.463   5.107   3.662
 2507TIP3   OH2 7526   1.724   0.254   3.814
 2507TIP3    H1 7527   1.714   0.315   3.740
 2507TIP3    H2 7528   1.636   0.222   3.831
 2508TIP3   OH2 7529   4.654   3.862   2.080
 2508TIP3    H1 7530   4.742   3.851   2.043
 2508TIP3    H2 7531   4.669   3.901   2.166
 2509TIP3   OH2 7532   2.901   0.851   4.179
 2509TIP3    H1 7533   2.814   0.885   4.159
 2509TIP3    H2 7534   2.942   0.921   4.231
 2510TIP3   OH2 7535   3.581   4.079   0.905
 2510TIP3    H1 7536   3.511   4.044   0.851
 2510TIP3    H2 7537   3.625   4.143   0.849
 2511TIP3   OH2 7538   5.342   3.977   2.577
 2511TIP3    H1 7539   5.388   4.021   2.649
 2511TIP3    H2 7540   5.412   3.950   2.517
 2512TIP3   OH2 7541   2.692   5.246   4.204
 2512TIP3    H1 7542   2.639   5.283   4.274
 2512TIP3    H2 7543   2.643   5.169   4.175
 2513TIP3   OH2 7544   1.533   2.667   2.232
 2513TIP3    H1 7545   1.545   2.762   2.228
 2513TIP3    H2 7546   1.444   2.655   2.265
 2514TIP3   OH2 7547   1.660   2.940   0.164
 2514TIP3    H1 7548   1.754   2.954   0.149
 2514TIP3    H2 7549   1.619   2.965   0.081
 2515TIP3   OH2 7550   2.687   4.112   0.313
 2515TIP3    H1 7551   2.690   4.167   0.234
 2515TIP3    H2 7552   2.779   4.090   0.330
 2516TIP3   OH2 7553   5.971   5.191   3.669
 2516TIP3    H1 7554   5.899   5.154   3.619
 2516TIP3    H2 7555   6.035   5.216   3.603
 2517TIP3   OH2 7556   5.732   3.888   1.728
 2517TIP3    H1 7557   5.761   3.818   1.787
 2517TIP3    H2 7558   5.803   3.897   1.665
 2518TIP3   OH2 7559   5.865   1.508   0.561
 2518TIP3    H1 7560   5.850   1.564   0.637
 2518TIP3    H2 7561   5.890   1.569   0.491
 2519TIP3   OH2 7562   4.143   2.784   4.073
 2519TIP3    H1 7563   4.177   2.696   4.058
 2519TIP3    H2 7564   4.219   2.841   4.066
 2520TIP3   OH2 7565   2.326   2.499   1.539
 2520TIP3    H1 7566   2.264   2.534   1.603
 2520TIP3    H2 7567   2.342   2.572   1.479
 2521TIP3   OH2 7568   3.012   2.271   2.880
 2521TIP3    H1 7569   2.936   2.265   2.823
 2521TIP3    H2 7570   2.975   2.278   2.968
 2522TIP3   OH2 7571   2.474   1.123   1.381
 2522TIP3    H1 7572   2.389   1.079   1.387
 2522TIP3    H2 7573   2.457   1.213   1.411
 2523TIP3   OH2 7574   2.976   3.402   0.284
 2523TIP3    H1 7575   3.066   3.391   0.314
 2523TIP3    H2 7576   2.959   3.496   0.293
 2524TIP3   OH2 7577   6.053   2.942   2.583
 2524TIP3    H1 7578   6.058   2.879   2.511
 2524TIP3    H2 7579   6.087   3.023   2.547
 2525TIP3   OH2 7580   3.421   5.433   0.843
 2525TIP3    H1 7581   3.413   5.393   0.929
 2525TIP3    H2 7582   3.335   5.422   0.803
 2526TIP3   OH2 7583   6.008   3.337   2.676
 2526TIP3    H1 7584   5.991   3.417   2.627
 2526TIP3    H2 7585   6.097   3.312   2.653
 2527TIP3   OH2 7586   0.198   2.010   1.922
 2527TIP3    H1 7587   0.160   1.922   1.931
 2527TIP3    H2 7588   0.144   2.053   1.856
 2528TIP3   OH2 7589   3.755   5.986   3.275
 2528TIP3    H1 7590   3.772   5.926   3.348
 2528TIP3    H2 7591   3.827   6.048   3.277
 2529TIP3   OH2 7592   5.670   3.656   3.543
 2529TIP3    H1 7593   5.685   3.722   3.610
 2529TIP3    H2 7594   5.654   3.706   3.463
 2530TIP3   OH2 7595   2.527   1.414   2.600
 2530TIP3    H1 7596   2.556   1.455   2.518
 2530TIP3    H2 7597   2.570   1.329   2.601
 2531TIP3   OH2 7598   3.828   5.808   2.244
 2531TIP3    H1 7599   3.779   5.885   2.273
 2531TIP3    H2 7600   3.791   5.787   2.159
 2532TIP3   OH2 7601   1.381   0.596   0.960
 2532TIP3    H1 7602   1.401   0.529   1.025
 2532TIP3    H2 7603   1.290   0.620   0.976
 2533TIP3   OH2 7604   1.891   0.036   1.612
 2533TIP3    H1 7605   1.879   0.125   1.646
 2533TIP3    H2 7606   1.984   0.018   1.625
 2534TIP3   OH2 7607   1.488   1.968   0.179
 2534TIP3    H1 7608   1.556   2.027   0.147
 2534TIP3    H2 7609   1.451   2.012   0.255
 2535TIP3   OH2 7610   2.778   4.561   0.524
 2535TIP3    H1 7611   2.807   4.497   0.459
 2535TIP3    H2 7612   2.836   4.636   0.510
 2536TIP3   OH2 7613   1.256   5.118   0.513
 2536TIP3    H1 7614   1.259   5.064   0.434
 2536TIP3    H2 7615   1.223   5.060   0.581
 2537TIP3   OH2 7616   4.352   0.297   4.594
 2537TIP3    H1 7617   4.427   0.301   4.655
 2537TIP3    H2 7618   4.346   0.386   4.559
 2538TIP3   OH2 7619   5.271   5.670   0.693
 2538TIP3    H1 7620   5.241   5.748   0.739
 2538TIP3    H2 7621   5.364   5.685   0.679
 2539TIP3   OH2 7622   1.006   5.950   0.668
 2539TIP3    H1 7623   1.013   6.018   0.735
 2539TIP3    H2 7624   1.093   5.911   0.664
 2540TIP3   OH2 7625   5.915   3.781   0.454
 2540TIP3    H1 7626   5.899   3.847   0.387
 2540TIP3    H2 7627   5.846   3.794   0.518
 2541TIP3   OH2 7628   0.635   4.827   2.368
 2541TIP3    H1 7629   0.565   4.889   2.387
 2541TIP3    H2 7630   0.654   4.841   2.275
 2542TIP3   OH2 7631   5.896   5.343   4.968
 2542TIP3    H1 7632   5.856   5.425   4.941
 2542TIP3    H2 7633   5.958   5.322   4.897
 2543TIP3   OH2 7634   4.574   0.437   1.963
 2543TIP3    H1 7635   4.525   0.359   1.989
 2543TIP3    H2 7636   4.509   0.507   1.957
 2544TIP3   OH2 7637   5.014   2.722   3.006
 2544TIP3    H1 7638   4.982   2.726   2.916
 2544TIP3    H2 7639   4.954   2.777   3.056
 2545TIP3   OH2 7640   1.375   4.937   5.062
 2545TIP3    H1 7641   1.383   5.033   5.068
 2545TIP3    H2 7642   1.429   4.904   5.134
 2546TIP3   OH2 7643   2.416   0.197   0.775
 2546TIP3    H1 7644   2.337   0.247   0.756
 2546TIP3    H2 7645   2.395   0.149   0.855
 2547TIP3   OH2 7646   0.624   2.903   1.413
 2547TIP3    H1 7647   0.681   2.860   1.477
 2547TIP3    H2 7648   0.537   2.901   1.452
 2548TIP3   OH2 7649   1.507   2.078   2.836
 2548TIP3    H1 7650   1.576   2.014   2.853
 2548TIP3    H2 7651   1.457   2.041   2.763
 2549TIP3   OH2 7652   0.164   5.327   1.971
 2549TIP3    H1 7653   0.223   5.330   2.046
 2549TIP3    H2 7654   0.178   5.409   1.925
 2550TIP3   OH2 7655   2.137   0.740   1.366
 2550TIP3    H1 7656   2.092   0.661   1.336
 2550TIP3    H2 7657   2.105   0.754   1.455
 2551TIP3   OH2 7658   3.141   0.532   4.266
 2551TIP3    H1 7659   3.203   0.467   4.232
 2551TIP3    H2 7660   3.173   0.616   4.231
 2552TIP3   OH2 7661   2.367   1.280   2.915
 2552TIP3    H1 7662   2.317   1.239   2.985
 2552TIP3    H2 7663   2.399   1.207   2.862
 2553TIP3   OH2 7664   1.064   0.172   3.239
 2553TIP3    H1 7665   0.997   0.192   3.174
 2553TIP3    H2 7666   1.143   0.213   3.205
 2554TIP3   OH2 7667   5.028   2.391   4.592
 2554TIP3    H1 7668   5.047   2.472   4.639
 2554TIP3    H2 7669   4.950   2.411   4.540
 2555TIP3   OH2 7670   3.740   3.871   1.691
 2555TIP3    H1 7671   3.766   3.922   1.614
 2555TIP3    H2 7672   3.739   3.934   1.762
 2556TIP3   OH2 7673   4.124   0.745   2.495
 2556TIP3    H1 7674   4.043   0.777   2.455
 2556TIP3    H2 7675   4.180   0.722   2.420
 2557TIP3   OH2 7676   5.585   4.238   4.503
 2557TIP3    H1 7677   5.506   4.218   4.553
 2557TIP3    H2 7678   5.633   4.300   4.558
 2558TIP3   OH2 7679   2.883   2.431   3.432
 2558TIP3    H1 7680   2.900   2.432   3.338
 2558TIP3    H2 7681   2.788   2.430   3.440
 2559TIP3   OH2 7682   5.908   3.554   1.354
 2559TIP3    H1 7683   5.958   3.593   1.282
 2559TIP3    H2 7684   5.868   3.476   1.315
 2560TIP3   OH2 7685   2.813   0.658   1.177
 2560TIP3    H1 7686   2.779   0.585   1.125
 2560TIP3    H2 7687   2.738   0.714   1.193
 2561TIP3   OH2 7688   4.167   2.656   3.434
 2561TIP3    H1 7689   4.156   2.606   3.353
 2561TIP3    H2 7690   4.146   2.746   3.409
 2562TIP3   OH2 7691   1.357   3.345   0.569
 2562TIP3    H1 7692   1.296   3.288   0.522
 2562TIP3    H2 7693   1.396   3.400   0.500
 2563TIP3   OH2 7694   3.629   4.201   4.442
 2563TIP3    H1 7695   3.554   4.216   4.385
 2563TIP3    H2 7696   3.600   4.231   4.528
 2564TIP3   OH2 7697   5.415   2.325   2.565
 2564TIP3    H1 7698   5.360   2.391   2.607
 2564TIP3    H2 7699   5.418   2.350   2.473
 2565TIP3   OH2 7700   4.481   0.861   5.201
 2565TIP3    H1 7701   4.422   0.850   5.126
 2565TIP3    H2 7702   4.563   0.821   5.172
 2566TIP3   OH2 7703   5.823   2.940   2.254
 2566TIP3    H1 7704   5.773   2.861   2.233
 2566TIP3    H2 7705   5.832   2.939   2.349
 2567TIP3   OH2 7706   4.629   4.720   2.903
 2567TIP3    H1 7707   4.554   4.750   2.852
 2567TIP3    H2 7708   4.679   4.665   2.841
 2568TIP3   OH2 7709   3.341   4.023   3.237
 2568TIP3    H1 7710   3.275   3.969   3.281
 2568TIP3    H2 7711   3.348   3.986   3.149
 2569TIP3   OH2 7712   0.547   1.013   2.166
 2569TIP3    H1 7713   0.633   1.045   2.191
 2569TIP3    H2 7714   0.515   1.077   2.102
 2570TIP3   OH2 7715   0.107   0.049   4.106
 2570TIP3    H1 7716   0.175   0.078   4.167
 2570TIP3    H2 7717   0.100  -0.045   4.121
 2571TIP3   OH2 7718   3.157   2.301   4.812
 2571TIP3    H1 7719   3.217   2.280   4.884
 2571TIP3    H2 7720   3.196   2.378   4.771
 2572TIP3   OH2 7721   3.864   1.613   2.683
 2572TIP3    H1 7722   3.823   1.699   2.690
 2572TIP3    H2 7723   3.792   1.555   2.659
 2573TIP3   OH2 7724   0.277   5.544   3.639
 2573TIP3    H1 7725   0.312   5.552   3.727
 2573TIP3    H2 7726   0.329   5.605   3.587
 2574TIP3   OH2 7727   3.973   5.820   0.818
 2574TIP3    H1 7728   4.066   5.840   0.831
 2574TIP3    H2 7729   3.926   5.891   0.861
 2575TIP3   OH2 7730   2.928   4.619   4.712
 2575TIP3    H1 7731   2.977   4.670   4.777
 2575TIP3    H2 7732   2.987   4.614   4.637
 2576TIP3   OH2 7733   4.040   1.427   0.747
 2576TIP3    H1 7734   4.004   1.513   0.724
 2576TIP3    H2 7735   4.003   1.367   0.682
 2577TIP3   OH2 7736   6.286   4.315   1.144
 2577TIP3    H1 7737   6.299   4.367   1.224
 2577TIP3    H2 7738   6.246   4.234   1.174
 2578TIP3   OH2 7739   2.199   5.744   3.375
 2578TIP3    H1 7740   2.177   5.795   3.453
 2578TIP3    H2 7741   2.251   5.671   3.408
 2579TIP3   OH2 7742   5.600   3.437   4.197
 2579TIP3    H1 7743   5.680   3.384   4.199
 2579TIP3    H2 7744   5.596   3.478   4.284
 2580TIP3   OH2 7745   1.035   5.084   4.552
 2580TIP3    H1 7746   1.128   5.068   4.564
 2580TIP3    H2 7747   0.995   4.997   4.561
 2581TIP3   OH2 7748   4.186   1.922   0.563
 2581TIP3    H1 7749   4.223   1.993   0.616
 2581TIP3    H2 7750   4.216   1.941   0.474
 2582TIP3   OH2 7751   4.934   2.650   1.696
 2582TIP3    H1 7752   4.933   2.555   1.711
 2582TIP3    H2 7753   5.012   2.680   1.743
 2583TIP3   OH2 7754   3.295   1.754   4.071
 2583TIP3    H1 7755   3.290   1.845   4.043
 2583TIP3    H2 7756   3.338   1.757   4.156
 2584TIP3   OH2 7757   4.409   0.607   2.704
 2584TIP3    H1 7758   4.449   0.586   2.789
 2584TIP3    H2 7759   4.368   0.525   2.676
 2585TIP3   OH2 7760   0.893   3.975   4.309
 2585TIP3    H1 7761   0.956   4.035   4.348
 2585TIP3    H2 7762   0.904   3.986   4.214
 2586TIP3   OH2 7763   3.631   1.109   2.875
 2586TIP3    H1 7764   3.602   1.076   2.960
 2586TIP3    H2 7765   3.692   1.179   2.896
 2587TIP3   OH2 7766   0.703   1.723   4.129
 2587TIP3    H1 7767   0.616   1.738   4.166
 2587TIP3    H2 7768   0.692   1.646   4.073
 2588TIP3   OH2 7769   3.094   2.817   3.742
 2588TIP3    H1 7770   3.021   2.801   3.801
 2588TIP3    H2 7771   3.089   2.747   3.678
 2589TIP3   OH2 7772   0.313   1.580   3.799
 2589TIP3    H1 7773   0.366   1.595   3.721
 2589TIP3    H2 7774   0.253   1.655   3.801
 2590TIP3   OH2 7775   6.261   2.385   1.170
 2590TIP3    H1 7776   6.195   2.407   1.105
 2590TIP3    H2 7777   6.303   2.468   1.192
 2591TIP3   OH2 7778   6.217   4.006   2.657
 2591TIP3    H1 7779   6.149   4.040   2.715
 2591TIP3    H2 7780   6.203   3.911   2.658
 2592TIP3   OH2 7781   5.229   4.226   2.421
 2592TIP3    H1 7782   5.297   4.164   2.447
 2592TIP3    H2 7783   5.238   4.232   2.326
 2593TIP3   OH2 7784   4.775   5.804   1.513
 2593TIP3    H1 7785   4.752   5.794   1.605
 2593TIP3    H2 7786   4.722   5.878   1.483
 2594TIP3   OH2 7787   0.293   5.339   0.401
 2594TIP3    H1 7788   0.365   5.385   0.444
 2594TIP3    H2 7789   0.335   5.285   0.335
 2595TIP3   OH2 7790   4.882   0.496   0.968
 2595TIP3    H1 7791   4.824   0.433   0.925
 2595TIP3    H2 7792   4.866   0.579   0.922
 2596TIP3   OH2 7793   4.132   5.647   2.912
 2596TIP3    H1 7794   4.172   5.682   2.992
 2596TIP3    H2 7795   4.204   5.635   2.851
 2597TIP3   OH2 7796   4.223   5.406   3.869
 2597TIP3    H1 7797   4.211   5.488   3.918
 2597TIP3    H2 7798   4.209   5.431   3.778
 2598TIP3   OH2 7799   5.017   0.417   4.617
 2598TIP3    H1 7800   5.094   0.474   4.608
 2598TIP3    H2 7801   4.983   0.410   4.528
 2599TIP3   OH2 7802   2.721   2.821   4.621
 2599TIP3    H1 7803   2.747   2.893   4.678
 2599TIP3    H2 7804   2.707   2.747   4.681
 2600TIP3   OH2 7805   4.063   5.971   3.233
 2600TIP3    H1 7806   4.095   5.988   3.321
 2600TIP3    H2 7807   4.062   5.875   3.225
 2601TIP3   OH2 7808   2.452   3.050   0.468
 2601TIP3    H1 7809   2.414   3.123   0.518
 2601TIP3    H2 7810   2.481   2.988   0.534
 2602TIP3   OH2 7811   0.648   2.496   3.732
 2602TIP3    H1 7812   0.634   2.436   3.659
 2602TIP3    H2 7813   0.694   2.443   3.798
 2603TIP3   OH2 7814   1.014   5.366   5.110
 2603TIP3    H1 7815   0.990   5.390   5.021
 2603TIP3    H2 7816   1.050   5.446   5.147
 2604TIP3   OH2 7817   1.109   5.127   3.284
 2604TIP3    H1 7818   1.108   5.059   3.217
 2604TIP3    H2 7819   1.192   5.116   3.330
 2605TIP3   OH2 7820   0.984   4.631   2.946
 2605TIP3    H1 7821   1.030   4.679   2.877
 2605TIP3    H2 7822   0.980   4.692   3.019
 2606TIP3   OH2 7823   1.852   5.279   2.551
 2606TIP3    H1 7824   1.774   5.329   2.578
 2606TIP3    H2 7825   1.921   5.309   2.609
 2607TIP3   OH2 7826   3.701   0.006   0.941
 2607TIP3    H1 7827   3.682   0.023   1.033
 2607TIP3    H2 7828   3.627   0.044   0.894
 2608TIP3   OH2 7829   5.394   2.899   3.263
 2608TIP3    H1 7830   5.328   2.961   3.234
 2608TIP3    H2 7831   5.477   2.947   3.257
 2609TIP3   OH2 7832   3.304   0.509   2.353
 2609TIP3    H1 7833   3.218   0.467   2.349
 2609TIP3    H2 7834   3.339   0.484   2.438
 2610TIP3   OH2 7835   4.469   4.975   2.002
 2610TIP3    H1 7836   4.496   5.002   2.089
 2610TIP3    H2 7837   4.383   5.014   1.990
 2611TIP3   OH2 7838   2.409   0.418   2.484
 2611TIP3    H1 7839   2.492   0.457   2.458
 2611TIP3    H2 7840   2.432   0.331   2.517
 2612TIP3   OH2 7841   3.592   3.209   4.035
 2612TIP3    H1 7842   3.625   3.282   4.088
 2612TIP3    H2 7843   3.668   3.181   3.983
 2613TIP3   OH2 7844   3.233   3.707   3.103
 2613TIP3    H1 7845   3.229   3.765   3.026
 2613TIP3    H2 7846   3.141   3.685   3.121
 2614TIP3   OH2 7847   4.912   5.811   3.568
 2614TIP3    H1 7848   4.959   5.815   3.484
 2614TIP3    H2 7849   4.973   5.768   3.628
 2615TIP3   OH2 7850   2.843   4.772   1.744
 2615TIP3    H1 7851   2.895   4.723   1.808
 2615TIP3    H2 7852   2.756   4.731   1.749
 2616TIP3   OH2 7853   0.003   3.967   3.005
 2616TIP3    H1 7854   0.072   3.903   2.987
 2616TIP3    H2 7855   0.036   4.049   2.966
 2617TIP3   OH2 7856   4.250   1.365   1.459
 2617TIP3    H1 7857   4.301   1.285   1.444
 2617TIP3    H2 7858   4.287   1.429   1.399
 2618TIP3   OH2 7859   0.400   5.087   2.159
 2618TIP3    H1 7860   0.305   5.092   2.151
 2618TIP3    H2 7861   0.432   5.165   2.115
 2619TIP3   OH2 7862   1.998   5.949   2.163
 2619TIP3    H1 7863   2.016   5.999   2.083
 2619TIP3    H2 7864   2.053   5.871   2.156
 2620TIP3   OH2 7865   1.230   5.573   2.071
 2620TIP3    H1 7866   1.306   5.523   2.042
 2620TIP3    H2 7867   1.257   5.664   2.063
 2621TIP3   OH2 7868   2.320   4.728   1.060
 2621TIP3    H1 7869   2.282   4.806   1.020
 2621TIP3    H2 7870   2.288   4.655   1.006
 2622TIP3   OH2 7871   6.306   2.686   1.749
 2622TIP3    H1 7872   6.273   2.660   1.662
 2622TIP3    H2 7873   6.269   2.621   1.809
 2623TIP3   OH2 7874   2.660   3.098   0.317
 2623TIP3    H1 7875   2.678   3.190   0.337
 2623TIP3    H2 7876   2.593   3.072   0.380
 2624TIP3   OH2 7877   2.719  -0.035   3.392
 2624TIP3    H1 7878   2.791  -0.097   3.384
 2624TIP3    H2 7879   2.755   0.048   3.361
 2625TIP3   OH2 7880   1.049   2.787   4.954
 2625TIP3    H1 7881   1.004   2.716   4.908
 2625TIP3    H2 7882   1.026   2.865   4.905
 2626TIP3   OH2 7883   1.352   5.473   5.174
 2626TIP3    H1 7884   1.301   5.552   5.189
 2626TIP3    H2 7885   1.385   5.483   5.085
 2627TIP3   OH2 7886   0.020   0.214   0.632
 2627TIP3    H1 7887   0.033   0.123   0.659
 2627TIP3    H2 7888   0.084   0.264   0.682
 2628TIP3   OH2 7889   1.786   0.375   4.609
 2628TIP3    H1 7890   1.766   0.315   4.681
 2628TIP3    H2 7891   1.717   0.360   4.545
 2629TIP3   OH2 7892   4.706   2.888   2.504
 2629TIP3    H1 7893   4.623   2.899   2.457
 2629TIP3    H2 7894   4.681   2.860   2.591
 2630TIP3   OH2 7895   1.207   4.610   0.050
 2630TIP3    H1 7896   1.177   4.545  -0.013
 2630TIP3    H2 7897   1.126   4.640   0.093
 2631TIP3   OH2 7898   2.148   5.415   0.721
 2631TIP3    H1 7899   2.213   5.468   0.674
 2631TIP3    H2 7900   2.147   5.331   0.675
 2632TIP3   OH2 7901   2.434   3.908   4.651
 2632TIP3    H1 7902   2.397   3.996   4.658
 2632TIP3    H2 7903   2.522   3.922   4.614
 2633TIP3   OH2 7904   0.353   5.755   5.186
 2633TIP3    H1 7905   0.338   5.748   5.092
 2633TIP3    H2 7906   0.315   5.676   5.223
 2634TIP3   OH2 7907   5.858   0.554   0.730
 2634TIP3    H1 7908   5.909   0.584   0.804
 2634TIP3    H2 7909   5.895   0.468   0.707
 2635TIP3   OH2 7910   5.643   5.414   3.257
 2635TIP3    H1 7911   5.657   5.495   3.304
 2635TIP3    H2 7912   5.697   5.349   3.303
 2636TIP3   OH2 7913   0.777   1.217   4.112
 2636TIP3    H1 7914   0.726   1.263   4.179
 2636TIP3    H2 7915   0.729   1.135   4.098
 2637TIP3   OH2 7916   1.899   4.167   0.680
 2637TIP3    H1 7917   1.965   4.203   0.620
 2637TIP3    H2 7918   1.842   4.115   0.624
 2638TIP3   OH2 7919   3.299   3.916   3.841
 2638TIP3    H1 7920   3.341   3.847   3.893
 2638TIP3    H2 7921   3.295   3.880   3.753
 2639TIP3   OH2 7922   6.000   0.418   2.353
 2639TIP3    H1 7923   6.005   0.486   2.420
 2639TIP3    H2 7924   6.079   0.366   2.365
 2640TIP3   OH2 7925   3.198   3.442   2.955
 2640TIP3    H1 7926   3.145   3.488   2.891
 2640TIP3    H2 7927   3.232   3.511   3.013
 2641TIP3   OH2 7928   0.879   5.866   2.407
 2641TIP3    H1 7929   0.932   5.833   2.334
 2641TIP3    H2 7930   0.814   5.797   2.422
 2642TIP3   OH2 7931   3.563   1.039   3.131
 2642TIP3    H1 7932   3.584   0.950   3.159
 2642TIP3    H2 7933   3.612   1.095   3.191
 2643TIP3   OH2 7934   2.160   3.253   0.842
 2643TIP3    H1 7935   2.188   3.208   0.921
 2643TIP3    H2 7936   2.067   3.233   0.835
 2644TIP3   OH2 7937   4.215   4.365   4.646
 2644TIP3    H1 7938   4.245   4.337   4.559
 2644TIP3    H2 7939   4.122   4.342   4.647
 2645TIP3   OH2 7940   2.599   5.538   0.145
 2645TIP3    H1 7941   2.604   5.559   0.238
 2645TIP3    H2 7942   2.684   5.500   0.124
 2646TIP3   OH2 7943   4.571   2.176   0.407
 2646TIP3    H1 7944   4.649   2.225   0.432
 2646TIP3    H2 7945   4.534   2.146   0.489
 2647TIP3   OH2 7946   3.846   4.171   3.673
 2647TIP3    H1 7947   3.858   4.090   3.722
 2647TIP3    H2 7948   3.753   4.191   3.681
 2648TIP3   OH2 7949   0.862   2.362   2.127
 2648TIP3    H1 7950   0.852   2.290   2.065
 2648TIP3    H2 7951   0.822   2.329   2.208
 2649TIP3   OH2 7952   0.112   5.083   3.123
 2649TIP3    H1 7953   0.090   4.991   3.142
 2649TIP3    H2 7954   0.074   5.099   3.037
 2650TIP3   OH2 7955   1.916   5.604   0.125
 2650TIP3    H1 7956   2.007   5.621   0.148
 2650TIP3    H2 7957   1.892   5.528   0.177
 2651TIP3   OH2 7958   2.089   3.610   3.408
 2651TIP3    H1 7959   2.098   3.705   3.396
 2651TIP3    H2 7960   2.170   3.584   3.452
 2652TIP3   OH2 7961   1.820   1.959   0.849
 2652TIP3    H1 7962   1.866   2.024   0.796
 2652TIP3    H2 7963   1.760   1.916   0.787
 2653TIP3   OH2 7964   4.043   1.185   3.275
 2653TIP3    H1 7965   4.022   1.275   3.298
 2653TIP3    H2 7966   3.985   1.132   3.330
 2654TIP3   OH2 7967   4.746   2.201   1.122
 2654TIP3    H1 7968   4.714   2.267   1.059
 2654TIP3    H2 7969   4.757   2.122   1.070
 2655TIP3   OH2 7970   6.096   5.497   1.083
 2655TIP3    H1 7971   6.006   5.471   1.103
 2655TIP3    H2 7972   6.129   5.428   1.026
 2656TIP3   OH2 7973   5.628   0.733   4.194
 2656TIP3    H1 7974   5.721   0.718   4.175
 2656TIP3    H2 7975   5.590   0.757   4.110
 2657TIP3   OH2 7976   5.852   5.172   3.941
 2657TIP3    H1 7977   5.861   5.121   3.861
 2657TIP3    H2 7978   5.826   5.259   3.912
 2658TIP3   OH2 7979   4.998   3.541   3.255
 2658TIP3    H1 7980   4.969   3.484   3.326
 2658TIP3    H2 7981   4.939   3.521   3.183
 2659TIP3   OH2 7982   3.681   1.809   3.734
 2659TIP3    H1 7983   3.644   1.796   3.822
 2659TIP3    H2 7984   3.711   1.899   3.735
 2660TIP3   OH2 7985   0.418   2.948   1.578
 2660TIP3    H1 7986   0.338   2.985   1.541
 2660TIP3    H2 7987   0.390   2.908   1.661
 2661TIP3   OH2 7988   1.053   4.923   1.427
 2661TIP3    H1 7989   0.986   4.890   1.487
 2661TIP3    H2 7990   1.053   5.018   1.440
 2662TIP3   OH2 7991   4.126   3.301   2.458
 2662TIP3    H1 7992   4.124   3.316   2.553
 2662TIP3    H2 7993   4.210   3.336   2.430
 2663TIP3   OH2 7994   1.750   4.947   1.163
 2663TIP3    H1 7995   1.687   4.906   1.221
 2663TIP3    H2 7996   1.835   4.918   1.196
 2664TIP3   OH2 7997   0.923   3.643   0.079
 2664TIP3    H1 7998   1.005   3.646   0.128
 2664TIP3    H2 7999   0.948   3.616  -0.009
 2665TIP3   OH2 8000   2.708   5.362   2.862
 2665TIP3    H1 8001   2.749   5.358   2.776
 2665TIP3    H2 8002   2.697   5.271   2.888
 2666TIP3   OH2 8003   2.879   3.718   2.577
 2666TIP3    H1 8004   2.825   3.786   2.617
 2666TIP3    H2 8005   2.958   3.764   2.549
 2667TIP3   OH2 8006   1.689   1.642   1.774
 2667TIP3    H1 8007   1.621   1.685   1.722
 2667TIP3    H2 8008   1.698   1.697   1.852
 2668TIP3   OH2 8009   0.361   4.683   4.064
 2668TIP3    H1 8010   0.298   4.732   4.011
 2668TIP3    H2 8011   0.430   4.659   4.003
 2669TIP3   OH2 8012   2.365   2.076   1.728
 2669TIP3    H1 8013   2.372   2.170   1.746
 2669TIP3    H2 8014   2.337   2.071   1.637
 2670TIP3   OH2 8015   1.550   3.870   4.392
 2670TIP3    H1 8016   1.581   3.797   4.444
 2670TIP3    H2 8017   1.584   3.948   4.437
 2671TIP3   OH2 8018   1.811   2.605   2.347
 2671TIP3    H1 8019   1.733   2.603   2.291
 2671TIP3    H2 8020   1.822   2.697   2.370
 2672TIP3   OH2 8021   5.492   5.035   1.958
 2672TIP3    H1 8022   5.413   4.985   1.934
 2672TIP3    H2 8023   5.527   5.065   1.875
 2673TIP3   OH2 8024   3.979   2.520   3.604
 2673TIP3    H1 8025   4.044   2.541   3.536
 2673TIP3    H2 8026   3.910   2.585   3.591
 2674TIP3   OH2 8027   5.110   3.612   1.055
 2674TIP3    H1 8028   5.126   3.699   1.092
 2674TIP3    H2 8029   5.101   3.555   1.132
 2675TIP3   OH2 8030   4.930   5.230   5.140
 2675TIP3    H1 8031   4.974   5.162   5.089
 2675TIP3    H2 8032   4.842   5.196   5.155
 2676TIP3   OH2 8033   2.063   4.337   4.622
 2676TIP3    H1 8034   2.049   4.249   4.586
 2676TIP3    H2 8035   2.134   4.373   4.569
 2677TIP3   OH2 8036   5.157   1.366   0.052
 2677TIP3    H1 8037   5.092   1.382  -0.017
 2677TIP3    H2 8038   5.130   1.424   0.123
 2678TIP3   OH2 8039   6.206   5.009   1.132
 2678TIP3    H1 8040   6.214   5.100   1.105
 2678TIP3    H2 8041   6.293   4.986   1.165
 2679TIP3   OH2 8042   5.400   4.592   1.822
 2679TIP3    H1 8043   5.438   4.580   1.735
 2679TIP3    H2 8044   5.315   4.548   1.817
 2680TIP3   OH2 8045   2.204   4.757   3.394
 2680TIP3    H1 8046   2.229   4.766   3.486
 2680TIP3    H2 8047   2.205   4.847   3.360
 2681TIP3   OH2 8048   5.370   2.969   2.339
 2681TIP3    H1 8049   5.354   3.016   2.257
 2681TIP3    H2 8050   5.328   2.884   2.325
 2682TIP3   OH2 8051   2.286   1.219   4.043
 2682TIP3    H1 8052   2.352   1.226   3.974
 2682TIP3    H2 8053   2.255   1.128   4.036
 2683TIP3   OH2 8054   2.243   2.287   0.121
 2683TIP3    H1 8055   2.309   2.355   0.110
 2683TIP3    H2 8056   2.290   2.214   0.162
 2684TIP3   OH2 8057   2.010   1.909   3.479
 2684TIP3    H1 8058   1.965   1.924   3.396
 2684TIP3    H2 8059   2.030   1.996   3.511
 2685TIP3   OH2 8060   1.076   3.514   4.489
 2685TIP3    H1 8061   1.063   3.492   4.397
 2685TIP3    H2 8062   1.157   3.469   4.513
 2686TIP3   OH2 8063   0.346   1.281   3.150
 2686TIP3    H1 8064   0.309   1.367   3.131
 2686TIP3    H2 8065   0.433   1.299   3.185
 2687TIP3   OH2 8066   4.907   2.937   4.841
 2687TIP3    H1 8067   4.977   3.002   4.835
 2687TIP3    H2 8068   4.861   2.958   4.922
 2688TIP3   OH2 8069   6.058   4.296   1.527
 2688TIP3    H1 8070   6.117   4.333   1.461
 2688TIP3    H2 8071   6.002   4.370   1.552
 2689TIP3   OH2 8072   6.015   4.464   0.033
 2689TIP3    H1 8073   5.989   4.512  -0.045
 2689TIP3    H2 8074   6.034   4.531   0.098
 2690TIP3   OH2 8075   2.268   5.416   3.888
 2690TIP3    H1 8076   2.333   5.365   3.937
 2690TIP3    H2 8077   2.220   5.464   3.955
 2691TIP3   OH2 8078   1.645   3.301   0.590
 2691TIP3    H1 8079   1.587   3.376   0.574
 2691TIP3    H2 8080   1.586   3.225   0.586
 2692TIP3   OH2 8081   2.743   5.215   0.970
 2692TIP3    H1 8082   2.723   5.307   0.989
 2692TIP3    H2 8083   2.706   5.167   1.045
 2693TIP3   OH2 8084   3.223   5.372   0.344
 2693TIP3    H1 8085   3.291   5.405   0.285
 2693TIP3    H2 8086   3.212   5.440   0.410
 2694TIP3   OH2 8087   5.264   4.728   0.941
 2694TIP3    H1 8088   5.342   4.747   0.993
 2694TIP3    H2 8089   5.192   4.767   0.990
 2695TIP3   OH2 8090   4.963   0.776   1.153
 2695TIP3    H1 8091   5.030   0.771   1.222
 2695TIP3    H2 8092   4.908   0.699   1.168
 2696TIP3   OH2 8093   0.257   1.559   2.030
 2696TIP3    H1 8094   0.291   1.619   1.963
 2696TIP3    H2 8095   0.333   1.507   2.055
 2697TIP3   OH2 8096   1.352   5.506   2.998
 2697TIP3    H1 8097   1.425   5.540   2.947
 2697TIP3    H2 8098   1.336   5.573   3.065
 2698TIP3   OH2 8099   4.498   4.049   1.993
 2698TIP3    H1 8100   4.562   3.990   2.032
 2698TIP3    H2 8101   4.518   4.048   1.899
 2699TIP3   OH2 8102   5.217   2.316   0.412
 2699TIP3    H1 8103   5.176   2.254   0.472
 2699TIP3    H2 8104   5.306   2.327   0.445
 2700TIP3   OH2 8105   1.451   4.489   0.585
 2700TIP3    H1 8106   1.429   4.498   0.678
 2700TIP3    H2 8107   1.542   4.460   0.585
 2701TIP3   OH2 8108   0.339   3.074   0.071
 2701TIP3    H1 8109   0.408   3.082   0.137
 2701TIP3    H2 8110   0.311   2.982   0.076
 2702TIP3   OH2 8111   5.270   4.880   1.890
 2702TIP3    H1 8112   5.178   4.866   1.911
 2702TIP3    H2 8113   5.312   4.795   1.903
 2703TIP3   OH2 8114   2.545   2.286   4.336
 2703TIP3    H1 8115   2.514   2.242   4.257
 2703TIP3    H2 8116   2.470   2.282   4.396
 2704TIP3   OH2 8117   0.070   0.808   2.013
 2704TIP3    H1 8118   0.135   0.809   2.083
 2704TIP3    H2 8119   0.045   0.900   2.003
 2705TIP3   OH2 8120   5.993   1.637   3.397
 2705TIP3    H1 8121   5.917   1.692   3.375
 2705TIP3    H2 8122   6.031   1.615   3.312
 2706TIP3   OH2 8123   3.346   2.406   0.668
 2706TIP3    H1 8124   3.316   2.452   0.589
 2706TIP3    H2 8125   3.360   2.316   0.639
 2707TIP3   OH2 8126   3.782   3.719   4.921
 2707TIP3    H1 8127   3.874   3.691   4.923
 2707TIP3    H2 8128   3.758   3.726   5.013
 2708TIP3   OH2 8129   3.540   4.622   3.794
 2708TIP3    H1 8130   3.572   4.709   3.818
 2708TIP3    H2 8131   3.618   4.568   3.791
 2709TIP3   OH2 8132   5.391   1.334   1.834
 2709TIP3    H1 8133   5.361   1.250   1.800
 2709TIP3    H2 8134   5.399   1.390   1.757
 2710TIP3   OH2 8135   4.139   4.905   3.452
 2710TIP3    H1 8136   4.209   4.959   3.418
 2710TIP3    H2 8137   4.159   4.895   3.545
 2711TIP3   OH2 8138   4.062   4.457   5.190
 2711TIP3    H1 8139   3.973   4.477   5.219
 2711TIP3    H2 8140   4.082   4.526   5.125
 2712TIP3   OH2 8141   2.151   3.909   1.627
 2712TIP3    H1 8142   2.223   3.971   1.644
 2712TIP3    H2 8143   2.186   3.824   1.656
 2713TIP3   OH2 8144   4.821   1.397   3.718
 2713TIP3    H1 8145   4.777   1.443   3.647
 2713TIP3    H2 8146   4.909   1.380   3.684
 2714TIP3   OH2 8147   2.594   0.382   2.811
 2714TIP3    H1 8148   2.621   0.439   2.883
 2714TIP3    H2 8149   2.511   0.343   2.841
 2715TIP3   OH2 8150  -0.023   5.477   3.942
 2715TIP3    H1 8151   0.006   5.439   3.859
 2715TIP3    H2 8152   0.033   5.554   3.954
 2716TIP3   OH2 8153   0.611   0.722   2.166
 2716TIP3    H1 8154   0.588   0.810   2.139
 2716TIP3    H2 8155   0.568   0.710   2.251
 2717TIP3   OH2 8156   4.651   1.730   1.792
 2717TIP3    H1 8157   4.739   1.748   1.759
 2717TIP3    H2 8158   4.593   1.780   1.734
 2718TIP3   OH2 8159   2.702   1.141   0.967
 2718TIP3    H1 8160   2.737   1.222   1.003
 2718TIP3    H2 8161   2.750   1.071   1.012
 2719TIP3   OH2 8162   5.328   2.483   1.115
 2719TIP3    H1 8163   5.374   2.459   1.034
 2719TIP3    H2 8164   5.361   2.421   1.180
 2720TIP3   OH2 8165   5.830   5.467   1.055
 2720TIP3    H1 8166   5.858   5.472   0.963
 2720TIP3    H2 8167   5.788   5.551   1.072
 2721TIP3   OH2 8168   3.317   4.095   1.735
 2721TIP3    H1 8169   3.353   4.169   1.785
 2721TIP3    H2 8170   3.382   4.026   1.745
 2722TIP3   OH2 8171   5.583   4.688   1.381
 2722TIP3    H1 8172   5.553   4.641   1.303
 2722TIP3    H2 8173   5.643   4.755   1.347
 2723TIP3   OH2 8174   5.216   3.190   0.753
 2723TIP3    H1 8175   5.208   3.164   0.661
 2723TIP3    H2 8176   5.133   3.231   0.775
 2724TIP3   OH2 8177   6.203   4.428   0.483
 2724TIP3    H1 8178   6.243   4.468   0.406
 2724TIP3    H2 8179   6.266   4.362   0.511
 2725TIP3   OH2 8180   4.562   1.885   3.013
 2725TIP3    H1 8181   4.620   1.811   2.994
 2725TIP3    H2 8182   4.502   1.851   3.079
 2726TIP3   OH2 8183   1.682   1.189   0.563
 2726TIP3    H1 8184   1.777   1.192   0.572
 2726TIP3    H2 8185   1.648   1.229   0.642
 2727TIP3   OH2 8186   4.182   3.668   2.546
 2727TIP3    H1 8187   4.269   3.696   2.521
 2727TIP3    H2 8188   4.179   3.680   2.641
 2728TIP3   OH2 8189   5.337   1.453   3.830
 2728TIP3    H1 8190   5.358   1.362   3.850
 2728TIP3    H2 8191   5.264   1.474   3.887
 2729TIP3   OH2 8192   0.217   5.668   4.943
 2729TIP3    H1 8193   0.127   5.635   4.934
 2729TIP3    H2 8194   0.272   5.601   4.903
 2730TIP3   OH2 8195   4.030   4.997   4.430
 2730TIP3    H1 8196   4.101   5.009   4.366
 2730TIP3    H2 8197   4.073   5.003   4.515
 2731TIP3   OH2 8198   4.933   0.501   0.325
 2731TIP3    H1 8199   4.859   0.517   0.383
 2731TIP3    H2 8200   4.989   0.578   0.336
 2732TIP3   OH2 8201   4.880   0.085   3.451
 2732TIP3    H1 8202   4.817   0.036   3.504
 2732TIP3    H2 8203   4.965   0.047   3.474
 2733TIP3   OH2 8204   5.902   3.402   4.539
 2733TIP3    H1 8205   5.921   3.403   4.633
 2733TIP3    H2 8206   5.987   3.388   4.497
 2734TIP3   OH2 8207   4.320   1.582   4.433
 2734TIP3    H1 8208   4.269   1.545   4.362
 2734TIP3    H2 8209   4.314   1.518   4.504
 2735TIP3   OH2 8210   6.011   0.671   2.471
 2735TIP3    H1 8211   5.928   0.674   2.518
 2735TIP3    H2 8212   6.011   0.750   2.417
 2736TIP3   OH2 8213   4.886   5.471   0.383
 2736TIP3    H1 8214   4.967   5.435   0.419
 2736TIP3    H2 8215   4.914   5.540   0.323
 2737TIP3   OH2 8216   3.186   3.325   0.526
 2737TIP3    H1 8217   3.217   3.245   0.570
 2737TIP3    H2 8218   3.091   3.319   0.530
 2738TIP3   OH2 8219   5.749   5.370   4.372
 2738TIP3    H1 8220   5.666   5.415   4.385
 2738TIP3    H2 8221   5.798   5.388   4.452
 2739TIP3   OH2 8222   2.157   5.947   4.698
 2739TIP3    H1 8223   2.111   5.880   4.749
 2739TIP3    H2 8224   2.104   6.026   4.710
 2740TIP3   OH2 8225   1.438   5.111   2.585
 2740TIP3    H1 8226   1.439   5.201   2.553
 2740TIP3    H2 8227   1.507   5.067   2.536
 2741TIP3   OH2 8228   4.247   4.604   0.854
 2741TIP3    H1 8229   4.309   4.535   0.878
 2741TIP3    H2 8230   4.302   4.677   0.825
 2742TIP3   OH2 8231   5.393   1.416   2.095
 2742TIP3    H1 8232   5.404   1.383   2.006
 2742TIP3    H2 8233   5.350   1.501   2.084
 2743TIP3   OH2 8234   3.326   1.962   2.445
 2743TIP3    H1 8235   3.331   1.999   2.532
 2743TIP3    H2 8236   3.245   1.911   2.445
 2744TIP3   OH2 8237   3.609   5.286   4.664
 2744TIP3    H1 8238   3.662   5.214   4.629
 2744TIP3    H2 8239   3.519   5.256   4.654
 2745TIP3   OH2 8240   5.258   0.063   1.291
 2745TIP3    H1 8241   5.282   0.002   1.222
 2745TIP3    H2 8242   5.191   0.017   1.342
 2746TIP3   OH2 8243   3.528   3.455   3.188
 2746TIP3    H1 8244   3.607   3.402   3.187
 2746TIP3    H2 8245   3.545   3.527   3.128
 2747TIP3   OH2 8246   5.538   5.101   2.212
 2747TIP3    H1 8247   5.623   5.060   2.229
 2747TIP3    H2 8248   5.515   5.072   2.123
 2748TIP3   OH2 8249   1.897   0.799   5.101
 2748TIP3    H1 8250   1.840   0.722   5.098
 2748TIP3    H2 8251   1.926   0.804   5.192
 2749TIP3   OH2 8252   1.838   4.284   0.242
 2749TIP3    H1 8253   1.893   4.206   0.237
 2749TIP3    H2 8254   1.880   4.347   0.184
 2750TIP3   OH2 8255   5.414   2.670   3.383
 2750TIP3    H1 8256   5.468   2.742   3.350
 2750TIP3    H2 8257   5.370   2.707   3.460
 2751TIP3   OH2 8258   3.805   5.109   4.519
 2751TIP3    H1 8259   3.887   5.092   4.473
 2751TIP3    H2 8260   3.782   5.024   4.557
 2752TIP3   OH2 8261   1.474   3.431   3.287
 2752TIP3    H1 8262   1.394   3.436   3.234
 2752TIP3    H2 8263   1.514   3.347   3.262
 2753TIP3   OH2 8264   2.999   5.796   0.028
 2753TIP3    H1 8265   3.021   5.801  -0.065
 2753TIP3    H2 8266   3.017   5.704   0.052
 2754TIP3   OH2 8267   6.339   2.798   2.884
 2754TIP3    H1 8268   6.429   2.827   2.899
 2754TIP3    H2 8269   6.303   2.862   2.822
 2755TIP3   OH2 8270   5.555   5.355   4.037
 2755TIP3    H1 8271   5.600   5.295   4.097
 2755TIP3    H2 8272   5.510   5.297   3.975
 2756TIP3   OH2 8273   0.545   4.304   4.084
 2756TIP3    H1 8274   0.491   4.383   4.096
 2756TIP3    H2 8275   0.551   4.266   4.171
 2757TIP3   OH2 8276  -0.016   1.425   2.508
 2757TIP3    H1 8277   0.022   1.400   2.423
 2757TIP3    H2 8278   0.056   1.465   2.556
 2758TIP3   OH2 8279   5.553   2.047   0.708
 2758TIP3    H1 8280   5.476   2.101   0.723
 2758TIP3    H2 8281   5.610   2.102   0.655
 2759TIP3   OH2 8282   1.978   0.530   2.391
 2759TIP3    H1 8283   1.980   0.462   2.459
 2759TIP3    H2 8284   2.026   0.604   2.430
 2760TIP3   OH2 8285   5.488   2.141   1.839
 2760TIP3    H1 8286   5.544   2.217   1.857
 2760TIP3    H2 8287   5.540   2.066   1.867
 2761TIP3   OH2 8288   5.250   1.830   0.488
 2761TIP3    H1 8289   5.329   1.868   0.448
 2761TIP3    H2 8290   5.200   1.797   0.413
 2762TIP3   OH2 8291   6.033   1.633   1.043
 2762TIP3    H1 8292   5.983   1.619   1.124
 2762TIP3    H2 8293   5.970   1.675   0.984
 2763TIP3   OH2 8294   2.681   2.737   0.511
 2763TIP3    H1 8295   2.616   2.777   0.568
 2763TIP3    H2 8296   2.631   2.703   0.437
 2764TIP3   OH2 8297   1.484   5.541   4.241
 2764TIP3    H1 8298   1.447   5.629   4.250
 2764TIP3    H2 8299   1.436   5.503   4.168
 2765TIP3   OH2 8300   2.637   5.164   3.575
 2765TIP3    H1 8301   2.641   5.234   3.641
 2765TIP3    H2 8302   2.647   5.083   3.624
 2766TIP3   OH2 8303   2.112   0.712   1.672
 2766TIP3    H1 8304   2.176   0.650   1.706
 2766TIP3    H2 8305   2.106   0.781   1.739
 2767TIP3   OH2 8306   2.177   3.091   4.273
 2767TIP3    H1 8307   2.190   2.997   4.258
 2767TIP3    H2 8308   2.257   3.131   4.240
 2768TIP3   OH2 8309   3.455   2.175   2.292
 2768TIP3    H1 8310   3.418   2.117   2.358
 2768TIP3    H2 8311   3.388   2.241   2.277
 2769TIP3   OH2 8312   3.663   5.971   5.111
 2769TIP3    H1 8313   3.613   5.892   5.088
 2769TIP3    H2 8314   3.648   6.031   5.038
 2770TIP3   OH2 8315   2.943   0.290   2.578
 2770TIP3    H1 8316   2.867   0.246   2.616
 2770TIP3    H2 8317   2.951   0.371   2.630
 2771TIP3   OH2 8318   1.435   1.480   3.713
 2771TIP3    H1 8319   1.360   1.434   3.753
 2771TIP3    H2 8320   1.415   1.573   3.725
 2772TIP3   OH2 8321   0.950   1.041   4.398
 2772TIP3    H1 8322   0.933   1.015   4.307
 2772TIP3    H2 8323   0.867   1.080   4.427
 2773TIP3   OH2 8324   0.175   0.820   4.179
 2773TIP3    H1 8325   0.175   0.886   4.247
 2773TIP3    H2 8326   0.178   0.870   4.097
 2774TIP3   OH2 8327   2.361   5.188   1.847
 2774TIP3    H1 8328   2.279   5.152   1.881
 2774TIP3    H2 8329   2.335   5.237   1.769
 2775TIP3   OH2 8330   2.865   0.563   0.398
 2775TIP3    H1 8331   2.813   0.543   0.475
 2775TIP3    H2 8332   2.805   0.610   0.340
 2776TIP3   OH2 8333   2.460   3.701   1.504
 2776TIP3    H1 8334   2.474   3.768   1.436
 2776TIP3    H2 8335   2.514   3.627   1.476
 2777TIP3   OH2 8336   3.354   0.121   3.896
 2777TIP3    H1 8337   3.393   0.155   3.816
 2777TIP3    H2 8338   3.350   0.197   3.955
 2778TIP3   OH2 8339   4.169   4.875   1.004
 2778TIP3    H1 8340   4.150   4.821   1.080
 2778TIP3    H2 8341   4.143   4.963   1.030
 2779TIP3   OH2 8342   4.992   5.805  -0.024
 2779TIP3    H1 8343   4.924   5.870  -0.042
 2779TIP3    H2 8344   4.946   5.722  -0.020
 2780TIP3   OH2 8345   6.222   4.667   3.758
 2780TIP3    H1 8346   6.228   4.650   3.852
 2780TIP3    H2 8347   6.231   4.581   3.717
 2781TIP3   OH2 8348   4.041   1.387   3.909
 2781TIP3    H1 8349   3.974   1.455   3.916
 2781TIP3    H2 8350   4.019   1.339   3.829
 2782TIP3   OH2 8351   5.278   4.995   4.227
 2782TIP3    H1 8352   5.244   4.915   4.267
 2782TIP3    H2 8353   5.212   5.020   4.163
 2783TIP3   OH2 8354   4.532   5.156   2.665
 2783TIP3    H1 8355   4.449   5.204   2.667
 2783TIP3    H2 8356   4.576   5.181   2.746
 2784TIP3   OH2 8357   4.890   4.571   5.069
 2784TIP3    H1 8358   4.814   4.628   5.063
 2784TIP3    H2 8359   4.964   4.631   5.081
 2785TIP3   OH2 8360   3.499   3.362   0.434
 2785TIP3    H1 8361   3.528   3.275   0.460
 2785TIP3    H2 8362   3.572   3.397   0.383
 2786TIP3   OH2 8363   2.708   0.090   2.346
 2786TIP3    H1 8364   2.714   0.175   2.302
 2786TIP3    H2 8365   2.776   0.092   2.413
 2787TIP3   OH2 8366   5.353   4.868   1.395
 2787TIP3    H1 8367   5.359   4.924   1.317
 2787TIP3    H2 8368   5.435   4.819   1.395
 2788TIP3   OH2 8369   4.583   3.819   2.353
 2788TIP3    H1 8370   4.533   3.893   2.388
 2788TIP3    H2 8371   4.624   3.779   2.429
 2789TIP3   OH2 8372   4.111   4.549   1.409
 2789TIP3    H1 8373   4.017   4.540   1.420
 2789TIP3    H2 8374   4.146   4.463   1.431
 2790TIP3   OH2 8375   5.435   0.901   2.556
 2790TIP3    H1 8376   5.448   0.994   2.537
 2790TIP3    H2 8377   5.524   0.866   2.562
 2791TIP3   OH2 8378   3.120   5.387   4.562
 2791TIP3    H1 8379   3.199   5.423   4.604
 2791TIP3    H2 8380   3.107   5.442   4.485
 2792TIP3   OH2 8381   4.842   5.139   0.763
 2792TIP3    H1 8382   4.907   5.198   0.725
 2792TIP3    H2 8383   4.894   5.072   0.807
 2793TIP3   OH2 8384   0.897   0.997   2.865
 2793TIP3    H1 8385   0.929   0.935   2.799
 2793TIP3    H2 8386   0.953   1.074   2.854
 2794TIP3   OH2 8387   5.233   4.819   2.786
 2794TIP3    H1 8388   5.197   4.891   2.838
 2794TIP3    H2 8389   5.156   4.769   2.758
 2795TIP3   OH2 8390   2.729   4.269   4.860
 2795TIP3    H1 8391   2.793   4.203   4.887
 2795TIP3    H2 8392   2.716   4.253   4.766
 2796TIP3   OH2 8393   0.473   4.728   3.699
 2796TIP3    H1 8394   0.558   4.688   3.682
 2796TIP3    H2 8395   0.483   4.773   3.783
 2797TIP3   OH2 8396   5.894   1.797   3.093
 2797TIP3    H1 8397   5.807   1.770   3.123
 2797TIP3    H2 8398   5.889   1.788   2.997
 2798TIP3   OH2 8399   5.864   3.315   4.202
 2798TIP3    H1 8400   5.916   3.238   4.178
 2798TIP3    H2 8401   5.924   3.370   4.252
 2799TIP3   OH2 8402   1.892   5.063   2.406
 2799TIP3    H1 8403   1.911   5.000   2.475
 2799TIP3    H2 8404   1.879   5.146   2.452
 2800TIP3   OH2 8405   3.748   1.911   0.268
 2800TIP3    H1 8406   3.756   1.817   0.280
 2800TIP3    H2 8407   3.656   1.930   0.287
 2801TIP3   OH2 8408   2.255   5.453   2.630
 2801TIP3    H1 8409   2.195   5.402   2.684
 2801TIP3    H2 8410   2.331   5.396   2.617
 2802TIP3   OH2 8411   4.572   5.850   1.881
 2802TIP3    H1 8412   4.641   5.789   1.857
 2802TIP3    H2 8413   4.547   5.826   1.970
 2803TIP3   OH2 8414   0.419   5.690   1.389
 2803TIP3    H1 8415   0.394   5.670   1.479
 2803TIP3    H2 8416   0.404   5.609   1.340
 2804TIP3   OH2 8417   0.014   5.758   1.391
 2804TIP3    H1 8418   0.074   5.716   1.329
 2804TIP3    H2 8419  -0.067   5.771   1.341
 2805TIP3   OH2 8420   1.072   4.372   4.615
 2805TIP3    H1 8421   0.993   4.425   4.624
 2805TIP3    H2 8422   1.115   4.378   4.700
 2806TIP3   OH2 8423   4.117   5.722   2.094
 2806TIP3    H1 8424   4.035   5.727   2.142
 2806TIP3    H2 8425   4.094   5.748   2.004
 2807TIP3   OH2 8426   1.713   4.300   2.140
 2807TIP3    H1 8427   1.725   4.394   2.145
 2807TIP3    H2 8428   1.679   4.285   2.052
 2808TIP3   OH2 8429   2.658   3.642   0.029
 2808TIP3    H1 8430   2.679   3.644   0.122
 2808TIP3    H2 8431   2.728   3.694  -0.012
 2809TIP3   OH2 8432   2.598   2.103   3.396
 2809TIP3    H1 8433   2.543   2.057   3.459
 2809TIP3    H2 8434   2.579   2.196   3.412
 2810TIP3   OH2 8435   3.390   4.516   4.655
 2810TIP3    H1 8436   3.395   4.475   4.569
 2810TIP3    H2 8437   3.441   4.459   4.712
 2811TIP3   OH2 8438   1.738   5.326   2.139
 2811TIP3    H1 8439   1.760   5.418   2.147
 2811TIP3    H2 8440   1.682   5.308   2.214
 2812TIP3   OH2 8441   0.343   4.330   3.117
 2812TIP3    H1 8442   0.398   4.380   3.177
 2812TIP3    H2 8443   0.403   4.274   3.069
 2813TIP3   OH2 8444   5.076   2.609   2.031
 2813TIP3    H1 8445   5.019   2.684   2.049
 2813TIP3    H2 8446   5.043   2.572   1.949
 2814TIP3   OH2 8447   1.352   5.078   1.139
 2814TIP3    H1 8448   1.332   5.129   1.218
 2814TIP3    H2 8449   1.271   5.083   1.087
 2815TIP3   OH2 8450   0.441   5.730   2.034
 2815TIP3    H1 8451   0.478   5.755   1.949
 2815TIP3    H2 8452   0.386   5.805   2.058
 2816TIP3   OH2 8453   1.374   5.475   3.980
 2816TIP3    H1 8454   1.356   5.569   3.979
 2816TIP3    H2 8455   1.441   5.462   3.913
 2817TIP3   OH2 8456   4.916   1.738   3.634
 2817TIP3    H1 8457   4.868   1.674   3.581
 2817TIP3    H2 8458   4.855   1.810   3.645
 2818TIP3   OH2 8459   3.397   3.684   3.962
 2818TIP3    H1 8460   3.486   3.649   3.963
 2818TIP3    H2 8461   3.343   3.612   3.996
 2819TIP3   OH2 8462   4.788   0.748   4.713
 2819TIP3    H1 8463   4.874   0.788   4.701
 2819TIP3    H2 8464   4.726   0.819   4.694
 2820TIP3   OH2 8465   0.567   2.827   2.984
 2820TIP3    H1 8466   0.556   2.891   3.054
 2820TIP3    H2 8467   0.511   2.859   2.913
 2821TIP3   OH2 8468   6.250   0.616   4.047
 2821TIP3    H1 8469   6.186   0.686   4.057
 2821TIP3    H2 8470   6.236   0.583   3.958
 2822TIP3   OH2 8471   4.104   5.805   0.397
 2822TIP3    H1 8472   4.184   5.754   0.406
 2822TIP3    H2 8473   4.118   5.858   0.318
 2823TIP3   OH2 8474   4.124   2.800   0.952
 2823TIP3    H1 8475   4.195   2.770   0.896
 2823TIP3    H2 8476   4.165   2.816   1.037
 2824TIP3   OH2 8477   4.146   0.398   2.457
 2824TIP3    H1 8478   4.086   0.402   2.383
 2824TIP3    H2 8479   4.233   0.396   2.418
 2825TIP3   OH2 8480   2.575   3.252   1.763
 2825TIP3    H1 8481   2.552   3.191   1.693
 2825TIP3    H2 8482   2.549   3.338   1.730
 2826TIP3   OH2 8483   4.299   3.939   2.185
 2826TIP3    H1 8484   4.358   3.943   2.110
 2826TIP3    H2 8485   4.354   3.964   2.260
 2827TIP3   OH2 8486   4.625   3.857   1.403
 2827TIP3    H1 8487   4.647   3.950   1.405
 2827TIP3    H2 8488   4.637   3.827   1.493
 2828TIP3   OH2 8489   5.316   4.372   2.754
 2828TIP3    H1 8490   5.381   4.301   2.751
 2828TIP3    H2 8491   5.245   4.337   2.807
 2829TIP3   OH2 8492   5.126   3.987   2.777
 2829TIP3    H1 8493   5.196   3.985   2.711
 2829TIP3    H2 8494   5.105   4.079   2.788
 2830TIP3   OH2 8495   4.371   0.654   3.501
 2830TIP3    H1 8496   4.431   0.599   3.450
 2830TIP3    H2 8497   4.302   0.594   3.528
 2831TIP3   OH2 8498   5.210   3.034   3.116
 2831TIP3    H1 8499   5.222   3.127   3.132
 2831TIP3    H2 8500   5.212   3.025   3.021
 2832TIP3   OH2 8501   2.133   5.123   5.106
 2832TIP3    H1 8502   2.092   5.048   5.064
 2832TIP3    H2 8503   2.176   5.171   5.034
 2833TIP3   OH2 8504   5.409   1.220   3.971
 2833TIP3    H1 8505   5.375   1.142   4.015
 2833TIP3    H2 8506   5.502   1.200   3.955
 2834TIP3   OH2 8507   0.737   0.575   0.215
 2834TIP3    H1 8508   0.756   0.595   0.123
 2834TIP3    H2 8509   0.776   0.489   0.229
 2835TIP3   OH2 8510   6.035   3.183   1.345
 2835TIP3    H1 8511   6.057   3.107   1.399
 2835TIP3    H2 8512   5.940   3.193   1.354
 2836TIP3   OH2 8513   5.038   4.960   0.848
 2836TIP3    H1 8514   5.126   4.943   0.815
 2836TIP3    H2 8515   5.034   4.916   0.933
 2837TIP3   OH2 8516   5.033   1.144   5.107
 2837TIP3    H1 8517   5.068   1.232   5.095
 2837TIP3    H2 8518   4.968   1.153   5.177
 2838TIP3   OH2 8519   1.699   1.911   2.969
 2838TIP3    H1 8520   1.752   1.842   2.930
 2838TIP3    H2 8521   1.633   1.864   3.022
 2839TIP3   OH2 8522   5.763   5.493   3.889
 2839TIP3    H1 8523   5.758   5.441   3.809
 2839TIP3    H2 8524   5.712   5.444   3.953
 2840TIP3   OH2 8525   1.562   1.931   5.027
 2840TIP3    H1 8526   1.624   1.868   4.990
 2840TIP3    H2 8527   1.544   1.898   5.115
 2841TIP3   OH2 8528   1.256   3.668   2.346
 2841TIP3    H1 8529   1.298   3.635   2.425
 2841TIP3    H2 8530   1.162   3.659   2.363
 2842TIP3   OH2 8531   4.008   1.804   0.111
 2842TIP3    H1 8532   3.954   1.822   0.034
 2842TIP3    H2 8533   4.071   1.876   0.114
 2843TIP3   OH2 8534   1.440   4.513   0.185
 2843TIP3    H1 8535   1.370   4.556   0.136
 2843TIP3    H2 8536   1.432   4.549   0.274
 2844TIP3   OH2 8537  -0.008   4.448   3.620
 2844TIP3    H1 8538  -0.009   4.369   3.674
 2844TIP3    H2 8539   0.085   4.465   3.604
 2845TIP3   OH2 8540   1.050   1.789   0.429
 2845TIP3    H1 8541   1.086   1.808   0.342
 2845TIP3    H2 8542   1.115   1.731   0.469
 2846TIP3   OH2 8543   0.169   5.446   2.452
 2846TIP3    H1 8544   0.121   5.388   2.393
 2846TIP3    H2 8545   0.102   5.507   2.485
 2847TIP3   OH2 8546   6.112   4.631   4.340
 2847TIP3    H1 8547   6.168   4.700   4.305
 2847TIP3    H2 8548   6.146   4.614   4.428
 2848TIP3   OH2 8549   5.379   3.305   4.106
 2848TIP3    H1 8550   5.399   3.212   4.099
 2848TIP3    H2 8551   5.458   3.344   4.143
 2849TIP3   OH2 8552   3.659   2.039   0.753
 2849TIP3    H1 8553   3.614   1.979   0.813
 2849TIP3    H2 8554   3.641   2.126   0.789
 2850TIP3   OH2 8555   5.291   0.665   3.425
 2850TIP3    H1 8556   5.353   0.687   3.496
 2850TIP3    H2 8557   5.343   0.614   3.363
 2851TIP3   OH2 8558   4.575   4.049   1.712
 2851TIP3    H1 8559   4.660   4.079   1.682
 2851TIP3    H2 8560   4.516   4.062   1.638
 2852TIP3   OH2 8561   5.816   2.242   2.558
 2852TIP3    H1 8562   5.754   2.170   2.544
 2852TIP3    H2 8563   5.772   2.319   2.520
 2853TIP3   OH2 8564   2.762   3.500   1.846
 2853TIP3    H1 8565   2.722   3.414   1.831
 2853TIP3    H2 8566   2.817   3.515   1.770
 2854TIP3   OH2 8567   2.383   0.189   1.620
 2854TIP3    H1 8568   2.399   0.097   1.599
 2854TIP3    H2 8569   2.468   0.221   1.650
 2855TIP3   OH2 8570   5.582   1.866   0.950
 2855TIP3    H1 8571   5.653   1.924   0.976
 2855TIP3    H2 8572   5.579   1.872   0.855
 2856TIP3   OH2 8573   0.691   0.656   2.421
 2856TIP3    H1 8574   0.752   0.684   2.352
 2856TIP3    H2 8575   0.732   0.686   2.502
 2857TIP3   OH2 8576   2.350   1.179   0.592
 2857TIP3    H1 8577   2.276   1.153   0.537
 2857TIP3    H2 8578   2.349   1.115   0.664
 2858TIP3   OH2 8579   5.146   4.207   2.950
 2858TIP3    H1 8580   5.236   4.222   2.979
 2858TIP3    H2 8581   5.093   4.221   3.028
 2859TIP3   OH2 8582   4.730   3.716   5.091
 2859TIP3    H1 8583   4.707   3.658   5.019
 2859TIP3    H2 8584   4.651   3.721   5.145
 2860TIP3   OH2 8585   3.326   5.309   1.497
 2860TIP3    H1 8586   3.389   5.297   1.426
 2860TIP3    H2 8587   3.248   5.344   1.455
 2861TIP3   OH2 8588   4.424   2.372   4.457
 2861TIP3    H1 8589   4.385   2.318   4.389
 2861TIP3    H2 8590   4.405   2.462   4.430
 2862TIP3   OH2 8591   5.881   0.898   3.094
 2862TIP3    H1 8592   5.964   0.918   3.137
 2862TIP3    H2 8593   5.822   0.874   3.165
 2863TIP3   OH2 8594   4.700   3.593   0.010
 2863TIP3    H1 8595   4.741   3.673   0.043
 2863TIP3    H2 8596   4.620   3.584   0.062
 2864TIP3   OH2 8597   3.133   1.854   2.788
 2864TIP3    H1 8598   3.166   1.944   2.781
 2864TIP3    H2 8599   3.083   1.840   2.708
 2865TIP3   OH2 8600   4.585   5.745   4.769
 2865TIP3    H1 8601   4.647   5.673   4.756
 2865TIP3    H2 8602   4.636   5.812   4.816
 2866TIP3   OH2 8603   0.473   1.954   2.865
 2866TIP3    H1 8604   0.379   1.967   2.868
 2866TIP3    H2 8605   0.510   2.041   2.854
 2867TIP3   OH2 8606   6.241   3.927   1.321
 2867TIP3    H1 8607   6.260   3.861   1.255
 2867TIP3    H2 8608   6.174   3.982   1.282
 2868TIP3   OH2 8609   1.956   5.636   2.173
 2868TIP3    H1 8610   2.005   5.653   2.092
 2868TIP3    H2 8611   2.015   5.582   2.226
 2869TIP3   OH2 8612   6.333   6.035   0.596
 2869TIP3    H1 8613   6.419   6.005   0.625
 2869TIP3    H2 8614   6.285   5.955   0.576
 2870TIP3   OH2 8615   0.902   2.551   1.164
 2870TIP3    H1 8616   0.818   2.537   1.208
 2870TIP3    H2 8617   0.880   2.600   1.085
 2871TIP3   OH2 8618   2.379   5.865   4.354
 2871TIP3    H1 8619   2.354   5.926   4.284
 2871TIP3    H2 8620   2.323   5.889   4.428
 2872TIP3   OH2 8621   1.573   5.037   3.016
 2872TIP3    H1 8622   1.557   5.080   3.099
 2872TIP3    H2 8623   1.563   5.106   2.950
 2873TIP3   OH2 8624   4.541   0.482   1.285
 2873TIP3    H1 8625   4.626   0.526   1.279
 2873TIP3    H2 8626   4.487   0.539   1.339
 2874TIP3   OH2 8627   5.644   5.470   0.589
 2874TIP3    H1 8628   5.574   5.416   0.551
 2874TIP3    H2 8629   5.597   5.532   0.645
 2875TIP3   OH2 8630   5.986   5.978   3.727
 2875TIP3    H1 8631   6.002   5.966   3.633
 2875TIP3    H2 8632   6.035   6.057   3.749
 2876TIP3   OH2 8633   2.806   5.536   4.414
 2876TIP3    H1 8634   2.787   5.454   4.459
 2876TIP3    H2 8635   2.758   5.602   4.464
 2877TIP3   OH2 8636   5.005   4.850   3.340
 2877TIP3    H1 8637   5.063   4.780   3.369
 2877TIP3    H2 8638   5.015   4.853   3.245
 2878TIP3   OH2 8639   3.343   0.942   3.709
 2878TIP3    H1 8640   3.274   1.001   3.678
 2878TIP3    H2 8641   3.371   0.979   3.793
 2879TIP3   OH2 8642   1.401   0.376   2.114
 2879TIP3    H1 8643   1.378   0.412   2.029
 2879TIP3    H2 8644   1.325   0.395   2.169
 2880TIP3   OH2 8645   0.298   4.098   1.815
 2880TIP3    H1 8646   0.260   4.108   1.728
 2880TIP3    H2 8647   0.251   4.024   1.853
 2881TIP3   OH2 8648   3.140   3.597   4.909
 2881TIP3    H1 8649   3.111   3.671   4.856
 2881TIP3    H2 8650   3.212   3.558   4.859
 2882TIP3   OH2 8651   2.786   0.522   4.162
 2882TIP3    H1 8652   2.807   0.430   4.179
 2882TIP3    H2 8653   2.768   0.559   4.248
 2883TIP3   OH2 8654   6.135   4.356   2.190
 2883TIP3    H1 8655   6.069   4.421   2.212
 2883TIP3    H2 8656   6.205   4.405   2.149
 2884TIP3   OH2 8657   2.138   1.242   5.034
 2884TIP3    H1 8658   2.133   1.200   5.120
 2884TIP3    H2 8659   2.206   1.192   4.987
 2885TIP3   OH2 8660   0.159   5.026   0.644
 2885TIP3    H1 8661   0.158   4.968   0.720
 2885TIP3    H2 8662   0.236   4.999   0.594
 2886TIP3   OH2 8663   0.730   0.451   3.139
 2886TIP3    H1 8664   0.776   0.521   3.186
 2886TIP3    H2 8665   0.638   0.462   3.165
 2887TIP3   OH2 8666   5.276   1.325   0.552
 2887TIP3    H1 8667   5.295   1.418   0.563
 2887TIP3    H2 8668   5.358   1.288   0.520
 2888TIP3   OH2 8669   5.531   1.045   3.035
 2888TIP3    H1 8670   5.575   1.119   3.077
 2888TIP3    H2 8671   5.438   1.057   3.056
 2889TIP3   OH2 8672   5.031   2.823   0.237
 2889TIP3    H1 8673   5.081   2.822   0.319
 2889TIP3    H2 8674   4.940   2.828   0.266
 2890TIP3   OH2 8675   4.711   4.093   2.501
 2890TIP3    H1 8676   4.805   4.073   2.493
 2890TIP3    H2 8677   4.688   4.062   2.588
 2891TIP3   OH2 8678   0.549   1.928   2.349
 2891TIP3    H1 8679   0.503   1.911   2.267
 2891TIP3    H2 8680   0.595   1.845   2.367
 2892TIP3   OH2 8681   1.579   3.676   2.969
 2892TIP3    H1 8682   1.551   3.760   2.932
 2892TIP3    H2 8683   1.566   3.686   3.064
 2893TIP3   OH2 8684   5.212   2.952   4.228
 2893TIP3    H1 8685   5.179   2.981   4.313
 2893TIP3    H2 8686   5.293   3.001   4.215
 2894TIP3   OH2 8687   3.410   5.223   3.847
 2894TIP3    H1 8688   3.456   5.298   3.807
 2894TIP3    H2 8689   3.366   5.260   3.923
 2895TIP3   OH2 8690   1.676   1.026   3.705
 2895TIP3    H1 8691   1.661   1.119   3.726
 2895TIP3    H2 8692   1.644   1.016   3.615
 2896TIP3   OH2 8693   3.966   3.475   1.018
 2896TIP3    H1 8694   3.931   3.557   1.053
 2896TIP3    H2 8695   3.999   3.428   1.095
 2897TIP3   OH2 8696   5.030   5.219   2.265
 2897TIP3    H1 8697   5.122   5.243   2.271
 2897TIP3    H2 8698   5.026   5.155   2.193
 2898TIP3   OH2 8699   1.826   5.224   4.474
 2898TIP3    H1 8700   1.898   5.167   4.502
 2898TIP3    H2 8701   1.753   5.164   4.456
 2899TIP3   OH2 8702   1.534   3.965   4.122
 2899TIP3    H1 8703   1.533   3.939   4.214
 2899TIP3    H2 8704   1.499   4.054   4.122
 2900TIP3   OH2 8705   5.319   0.266   0.085
 2900TIP3    H1 8706   5.266   0.328   0.134
 2900TIP3    H2 8707   5.400   0.258   0.135
 2901TIP3   OH2 8708   2.382   0.233   2.854
 2901TIP3    H1 8709   2.445   0.176   2.899
 2901TIP3    H2 8710   2.323   0.172   2.809
 2902TIP3   OH2 8711   3.804   3.464   2.248
 2902TIP3    H1 8712   3.890   3.434   2.278
 2902TIP3    H2 8713   3.823   3.520   2.173
 2903TIP3   OH2 8714   4.859   2.214   2.676
 2903TIP3    H1 8715   4.805   2.160   2.619
 2903TIP3    H2 8716   4.833   2.190   2.764
 2904TIP3   OH2 8717   2.792   2.708   2.218
 2904TIP3    H1 8718   2.869   2.655   2.193
 2904TIP3    H2 8719   2.740   2.650   2.273
 2905TIP3   OH2 8720   0.580   4.081   0.054
 2905TIP3    H1 8721   0.513   4.102  -0.012
 2905TIP3    H2 8722   0.624   4.003   0.020
 2906TIP3   OH2 8723   1.830   4.818   0.649
 2906TIP3    H1 8724   1.786   4.794   0.567
 2906TIP3    H2 8725   1.763   4.867   0.698
 2907TIP3   OH2 8726   5.814   2.240   0.220
 2907TIP3    H1 8727   5.806   2.335   0.209
 2907TIP3    H2 8728   5.906   2.226   0.243
 2908TIP3   OH2 8729   2.350   3.828   0.858
 2908TIP3    H1 8730   2.405   3.806   0.782
 2908TIP3    H2 8731   2.362   3.922   0.870
 2909TIP3   OH2 8732   3.253   2.383   1.316
 2909TIP3    H1 8733   3.307   2.311   1.348
 2909TIP3    H2 8734   3.310   2.430   1.255
 2910TIP3   OH2 8735   4.478   0.080   3.462
 2910TIP3    H1 8736   4.509   0.001   3.418
 2910TIP3    H2 8737   4.531   0.087   3.541
 2911TIP3   OH2 8738   1.472   4.670   4.485
 2911TIP3    H1 8739   1.492   4.706   4.571
 2911TIP3    H2 8740   1.558   4.660   4.443
 2912TIP3   OH2 8741   2.178   0.141   2.433
 2912TIP3    H1 8742   2.179   0.209   2.366
 2912TIP3    H2 8743   2.159   0.061   2.385
 2913TIP3   OH2 8744   3.547   0.007   2.678
 2913TIP3    H1 8745   3.471   0.009   2.620
 2913TIP3    H2 8746   3.544   0.091   2.723
 2914TIP3   OH2 8747   2.390   0.158   1.957
 2914TIP3    H1 8748   2.411   0.101   1.883
 2914TIP3    H2 8749   2.476   0.185   1.991
 2915TIP3   OH2 8750   3.322   4.322   5.067
 2915TIP3    H1 8751   3.369   4.405   5.066
 2915TIP3    H2 8752   3.328   4.290   4.977
 2916TIP3   OH2 8753   1.959   2.917   0.180
 2916TIP3    H1 8754   2.006   2.991   0.142
 2916TIP3    H2 8755   2.006   2.896   0.261
 2917TIP3   OH2 8756   1.509   0.824   2.731
 2917TIP3    H1 8757   1.458   0.904   2.746
 2917TIP3    H2 8758   1.574   0.824   2.801
 2918TIP3   OH2 8759   5.810   0.531   2.699
 2918TIP3    H1 8760   5.844   0.443   2.690
 2918TIP3    H2 8761   5.833   0.556   2.789
 2919TIP3   OH2 8762   0.777   0.776   5.142
 2919TIP3    H1 8763   0.799   0.799   5.232
 2919TIP3    H2 8764   0.862   0.759   5.100
 2920TIP3   OH2 8765   5.284   2.711   3.092
 2920TIP3    H1 8766   5.191   2.735   3.094
 2920TIP3    H2 8767   5.323   2.762   3.163
 2921TIP3   OH2 8768   0.671   3.313   0.795
 2921TIP3    H1 8769   0.584   3.304   0.833
 2921TIP3    H2 8770   0.731   3.307   0.869
 2922TIP3   OH2 8771   3.396   1.910   1.769
 2922TIP3    H1 8772   3.470   1.877   1.819
 2922TIP3    H2 8773   3.422   1.999   1.743
 2923TIP3   OH2 8774   0.319   0.692   4.431
 2923TIP3    H1 8775   0.340   0.668   4.340
 2923TIP3    H2 8776   0.246   0.753   4.423
 2924TIP3   OH2 8777   1.631   1.061   2.175
 2924TIP3    H1 8778   1.581   1.105   2.107
 2924TIP3    H2 8779   1.647   0.973   2.141
 2925TIP3   OH2 8780   1.636   2.596   2.570
 2925TIP3    H1 8781   1.702   2.591   2.501
 2925TIP3    H2 8782   1.559   2.553   2.532
 2926TIP3   OH2 8783   5.843   5.383   0.754
 2926TIP3    H1 8784   5.914   5.386   0.690
 2926TIP3    H2 8785   5.765   5.409   0.704
 2927TIP3   OH2 8786   2.292   0.936   4.041
 2927TIP3    H1 8787   2.364   0.938   4.104
 2927TIP3    H2 8788   2.323   0.879   3.971
 2928TIP3   OH2 8789   2.804   4.366   4.098
 2928TIP3    H1 8790   2.804   4.435   4.031
 2928TIP3    H2 8791   2.726   4.314   4.079
 2929TIP3   OH2 8792   5.215   5.567   1.433
 2929TIP3    H1 8793   5.284   5.623   1.470
 2929TIP3    H2 8794   5.259   5.517   1.364
 2930TIP3   OH2 8795   3.598   0.875   0.816
 2930TIP3    H1 8796   3.584   0.966   0.789
 2930TIP3    H2 8797   3.642   0.882   0.901
 2931TIP3   OH2 8798   4.577   0.248   4.785
 2931TIP3    H1 8799   4.531   0.254   4.869
 2931TIP3    H2 8800   4.668   0.267   4.806
 2932TIP3   OH2 8801   1.522   2.155   4.872
 2932TIP3    H1 8802   1.428   2.152   4.892
 2932TIP3    H2 8803   1.560   2.084   4.925
 2933TIP3   OH2 8804   1.334   2.571   3.638
 2933TIP3    H1 8805   1.335   2.546   3.545
 2933TIP3    H2 8806   1.258   2.524   3.674
 2934TIP3   OH2 8807   0.054   1.086   5.021
 2934TIP3    H1 8808   0.044   1.173   4.983
 2934TIP3    H2 8809   0.083   1.102   5.111
 2935TIP3   OH2 8810   1.075   1.996   4.515
 2935TIP3    H1 8811   1.125   2.043   4.448
 2935TIP3    H2 8812   1.109   2.029   4.598
 2936TIP3   OH2 8813   1.675   5.162   3.488
 2936TIP3    H1 8814   1.739   5.189   3.554
 2936TIP3    H2 8815   1.609   5.113   3.538
 2937TIP3   OH2 8816   3.689   2.430   4.310
 2937TIP3    H1 8817   3.717   2.479   4.387
 2937TIP3    H2 8818   3.673   2.341   4.341
 2938TIP3   OH2 8819   5.109   1.079   0.839
 2938TIP3    H1 8820   5.016   1.104   0.846
 2938TIP3    H2 8821   5.130   1.094   0.747
 2939TIP3   OH2 8822   1.773   1.080   5.110
 2939TIP3    H1 8823   1.798   1.116   5.196
 2939TIP3    H2 8824   1.815   0.994   5.108
 2940TIP3   OH2 8825   1.238   1.313   4.126
 2940TIP3    H1 8826   1.296   1.275   4.192
 2940TIP3    H2 8827   1.159   1.336   4.174
 2941TIP3   OH2 8828   5.853   0.749   4.672
 2941TIP3    H1 8829   5.820   0.824   4.722
 2941TIP3    H2 8830   5.858   0.781   4.582
 2942TIP3   OH2 8831   0.659   3.221   5.122
 2942TIP3    H1 8832   0.725   3.169   5.167
 2942TIP3    H2 8833   0.660   3.305   5.167
 2943TIP3   OH2 8834   3.368   2.680   2.253
 2943TIP3    H1 8835   3.328   2.724   2.178
 2943TIP3    H2 8836   3.295   2.637   2.297
 2944TIP3   OH2 8837   5.864   3.500   0.475
 2944TIP3    H1 8838   5.923   3.438   0.431
 2944TIP3    H2 8839   5.893   3.586   0.444
 2945TIP3   OH2 8840   4.219   5.380   2.023
 2945TIP3    H1 8841   4.187   5.330   1.948
 2945TIP3    H2 8842   4.236   5.468   1.988
 2946TIP3   OH2 8843   5.166   0.649   4.967
 2946TIP3    H1 8844   5.080   0.633   4.929
 2946TIP3    H2 8845   5.216   0.569   4.947
 2947TIP3   OH2 8846   2.111   0.109   0.974
 2947TIP3    H1 8847   2.089   0.175   0.908
 2947TIP3    H2 8848   2.192   0.140   1.013
 2948TIP3   OH2 8849   2.776   5.762   4.631
 2948TIP3    H1 8850   2.840   5.697   4.659
 2948TIP3    H2 8851   2.813   5.846   4.659
 2949TIP3   OH2 8852   2.386   1.496   1.809
 2949TIP3    H1 8853   2.357   1.565   1.869
 2949TIP3    H2 8854   2.304   1.458   1.775
 2950TIP3   OH2 8855   4.008   1.578   2.423
 2950TIP3    H1 8856   3.979   1.636   2.353
 2950TIP3    H2 8857   4.016   1.635   2.500
 2951TIP3   OH2 8858   3.583   3.512   0.190
 2951TIP3    H1 8859   3.551   3.511   0.100
 2951TIP3    H2 8860   3.572   3.602   0.218
 2952TIP3   OH2 8861   0.403   4.798   1.788
 2952TIP3    H1 8862   0.364   4.717   1.819
 2952TIP3    H2 8863   0.407   4.788   1.693
 2953TIP3   OH2 8864   5.840   2.935   0.542
 2953TIP3    H1 8865   5.774   3.005   0.550
 2953TIP3    H2 8866   5.908   2.973   0.486
 2954TIP3   OH2 8867   5.150   5.556   0.470
 2954TIP3    H1 8868   5.104   5.638   0.452
 2954TIP3    H2 8869   5.195   5.572   0.553
 2955TIP3   OH2 8870   1.427   2.712   4.251
 2955TIP3    H1 8871   1.505   2.684   4.299
 2955TIP3    H2 8872   1.462   2.749   4.170
 2956TIP3   OH2 8873   0.579   3.404   3.759
 2956TIP3    H1 8874   0.529   3.446   3.689
 2956TIP3    H2 8875   0.513   3.370   3.819
 2957TIP3   OH2 8876   4.421   4.943   2.550
 2957TIP3    H1 8877   4.365   4.908   2.619
 2957TIP3    H2 8878   4.463   5.019   2.590
 2958TIP3   OH2 8879   3.912   5.171   0.037
 2958TIP3    H1 8880   3.964   5.094   0.056
 2958TIP3    H2 8881   3.975   5.241   0.022
 2959TIP3   OH2 8882   5.312   1.831   1.792
 2959TIP3    H1 8883   5.406   1.851   1.793
 2959TIP3    H2 8884   5.288   1.822   1.884
 2960TIP3   OH2 8885   6.301   5.310   2.267
 2960TIP3    H1 8886   6.363   5.257   2.218
 2960TIP3    H2 8887   6.226   5.252   2.282
 2961TIP3   OH2 8888   0.106   4.987   1.932
 2961TIP3    H1 8889   0.025   5.004   1.883
 2961TIP3    H2 8890   0.175   5.023   1.876
 2962TIP3   OH2 8891   1.000   2.820   2.232
 2962TIP3    H1 8892   0.972   2.766   2.306
 2962TIP3    H2 8893   0.980   2.767   2.154
 2963TIP3   OH2 8894   4.371   3.137   0.765
 2963TIP3    H1 8895   4.301   3.188   0.805
 2963TIP3    H2 8896   4.410   3.196   0.701
 2964TIP3   OH2 8897   1.784   4.206   1.579
 2964TIP3    H1 8898   1.791   4.143   1.507
 2964TIP3    H2 8899   1.710   4.175   1.631
 2965TIP3   OH2 8900   2.717   2.860   2.012
 2965TIP3    H1 8901   2.743   2.809   2.089
 2965TIP3    H2 8902   2.799   2.885   1.971
 2966TIP3   OH2 8903   5.772   2.942   4.735
 2966TIP3    H1 8904   5.832   2.981   4.672
 2966TIP3    H2 8905   5.809   2.855   4.752
 2967TIP3   OH2 8906   4.404   4.845   0.812
 2967TIP3    H1 8907   4.467   4.917   0.823
 2967TIP3    H2 8908   4.322   4.879   0.848
 2968TIP3   OH2 8909   0.177   5.279   5.015
 2968TIP3    H1 8910   0.182   5.184   5.027
 2968TIP3    H2 8911   0.252   5.300   4.959
 2969TIP3   OH2 8912   0.936   1.325   3.912
 2969TIP3    H1 8913   0.896   1.272   3.843
 2969TIP3    H2 8914   0.897   1.293   3.993
 2970TIP3   OH2 8915   0.829   0.392   2.368
 2970TIP3    H1 8916   0.753   0.393   2.427
 2970TIP3    H2 8917   0.792   0.403   2.281
 2971TIP3   OH2 8918   0.610   0.371   2.560
 2971TIP3    H1 8919   0.550   0.443   2.580
 2971TIP3    H2 8920   0.554   0.300   2.528
 2972TIP3   OH2 8921   4.055   2.012   2.346
 2972TIP3    H1 8922   4.012   2.078   2.291
 2972TIP3    H2 8923   3.988   1.944   2.359
 2973TIP3   OH2 8924   0.467   0.672   0.230
 2973TIP3    H1 8925   0.430   0.585   0.214
 2973TIP3    H2 8926   0.561   0.657   0.240
 2974TIP3   OH2 8927   0.707   0.627   3.613
 2974TIP3    H1 8928   0.655   0.707   3.610
 2974TIP3    H2 8929   0.788   0.653   3.657
 2975TIP3   OH2 8930   0.642   4.929   1.035
 2975TIP3    H1 8931   0.554   4.899   1.012
 2975TIP3    H2 8932   0.701   4.866   0.993
 2976TIP3   OH2 8933   0.128   5.358   1.287
 2976TIP3    H1 8934   0.073   5.430   1.256
 2976TIP3    H2 8935   0.137   5.300   1.211
 2977TIP3   OH2 8936   2.330   4.311   1.467
 2977TIP3    H1 8937   2.358   4.252   1.397
 2977TIP3    H2 8938   2.246   4.345   1.438
 2978TIP3   OH2 8939   3.507   5.626   1.770
 2978TIP3    H1 8940   3.499   5.597   1.679
 2978TIP3    H2 8941   3.504   5.722   1.764
 2979TIP3   OH2 8942   6.187   5.577   1.542
 2979TIP3    H1 8943   6.257   5.634   1.511
 2979TIP3    H2 8944   6.132   5.561   1.465
 2980TIP3   OH2 8945   2.019   0.937   4.101
 2980TIP3    H1 8946   2.096   0.958   4.048
 2980TIP3    H2 8947   1.950   0.917   4.037
 2981TIP3   OH2 8948   3.360   2.256   5.050
 2981TIP3    H1 8949   3.381   2.163   5.057
 2981TIP3    H2 8950   3.424   2.291   4.987
 2982TIP3   OH2 8951   3.633   5.721   4.463
 2982TIP3    H1 8952   3.640   5.753   4.553
 2982TIP3    H2 8953   3.548   5.754   4.434
 2983TIP3   OH2 8954   4.201   4.753   0.479
 2983TIP3    H1 8955   4.153   4.686   0.431
 2983TIP3    H2 8956   4.143   4.829   0.480
 2984TIP3   OH2 8957   0.622   2.618   1.911
 2984TIP3    H1 8958   0.693   2.680   1.928
 2984TIP3    H2 8959   0.586   2.598   1.998
 2985TIP3   OH2 8960   4.129   5.621   4.014
 2985TIP3    H1 8961   4.166   5.681   4.079
 2985TIP3    H2 8962   4.034   5.625   4.030
 2986TIP3   OH2 8963   2.066   1.726   0.202
 2986TIP3    H1 8964   2.016   1.796   0.161
 2986TIP3    H2 8965   2.005   1.687   0.265
 2987TIP3   OH2 8966   3.014   3.866   4.141
 2987TIP3    H1 8967   3.053   3.813   4.210
 2987TIP3    H2 8968   3.012   3.809   4.064
 2988TIP3   OH2 8969   0.972   3.242   2.935
 2988TIP3    H1 8970   1.059   3.253   2.897
 2988TIP3    H2 8971   0.953   3.328   2.974
 2989TIP3   OH2 8972   2.231   1.922   3.081
 2989TIP3    H1 8973   2.213   1.961   2.996
 2989TIP3    H2 8974   2.278   1.842   3.062
 2990TIP3   OH2 8975   0.527   2.721   0.039
 2990TIP3    H1 8976   0.569   2.644   0.000
 2990TIP3    H2 8977   0.448   2.734  -0.014
 2991TIP3   OH2 8978   0.498   3.259   0.253
 2991TIP3    H1 8979   0.541   3.256   0.339
 2991TIP3    H2 8980   0.537   3.334   0.209
 2992TIP3   OH2 8981   4.742   2.153   1.684
 2992TIP3    H1 8982   4.674   2.085   1.678
 2992TIP3    H2 8983   4.769   2.151   1.776
 2993TIP3   OH2 8984   1.213   0.924   3.593
 2993TIP3    H1 8985   1.284   0.880   3.640
 2993TIP3    H2 8986   1.225   0.899   3.502
 2994TIP3   OH2 8987   1.229   2.370   4.704
 2994TIP3    H1 8988   1.325   2.375   4.713
 2994TIP3    H2 8989   1.205   2.457   4.671
 2995TIP3   OH2 8990   1.676   0.630   0.039
 2995TIP3    H1 8991   1.666   0.686   0.116
 2995TIP3    H2 8992   1.586   0.616   0.008
 2996TIP3   OH2 8993   5.555   2.936   0.234
 2996TIP3    H1 8994   5.629   2.926   0.294
 2996TIP3    H2 8995   5.592   2.982   0.158
 2997TIP3   OH2 8996   1.719   2.419   2.791
 2997TIP3    H1 8997   1.661   2.354   2.829
 2997TIP3    H2 8998   1.662   2.476   2.740
 2998TIP3   OH2 8999   3.036   0.884   1.078
 2998TIP3    H1 9000   2.948   0.872   1.042
 2998TIP3    H2 9001   3.061   0.972   1.051
 2999TIP3   OH2 9002   4.661   1.088   0.746
 2999TIP3    H1 9003   4.642   1.064   0.837
 2999TIP3    H2 9004   4.718   1.165   0.753
 3000TIP3   OH2 9005   5.451   4.727   3.653
 3000TIP3    H1 9006   5.450   4.650   3.709
 3000TIP3    H2 9007   5.511   4.787   3.697
 3001TIP3   OH2 9008   0.149   4.194   2.938
 3001TIP3    H1 9009   0.216   4.170   2.873
 3001TIP3    H2 9010   0.198   4.237   3.008
 3002TIP3   OH2 9011   1.502   3.532   3.553
 3002TIP3    H1 9012   1.480   3.456   3.607
 3002TIP3    H2 9013   1.503   3.498   3.464
 3003TIP3   OH2 9014   3.178   1.089   0.950
 3003TIP3    H1 9015   3.209   1.109   0.862
 3003TIP3    H2 9016   3.153   1.174   0.986
 3004TIP3   OH2 9017   5.226   1.496   0.881
 3004TIP3    H1 9018   5.206   1.427   0.944
 3004TIP3    H2 9019   5.183   1.574   0.916
 3005TIP3   OH2 9020   5.510   4.498   3.116
 3005TIP3    H1 9021   5.504   4.583   3.073
 3005TIP3    H2 9022   5.568   4.513   3.191
 3006TIP3   OH2 9023   1.484   2.942   0.380
 3006TIP3    H1 9024   1.536   2.926   0.459
 3006TIP3    H2 9025   1.549   2.954   0.311
 3007TIP3   OH2 9026   4.271   1.159   0.732
 3007TIP3    H1 9027   4.283   1.160   0.637
 3007TIP3    H2 9028   4.214   1.234   0.750
 3008TIP3   OH2 9029   1.896   4.430   0.488
 3008TIP3    H1 9030   1.863   4.428   0.399
 3008TIP3    H2 9031   1.834   4.377   0.538
 3009TIP3   OH2 9032   2.048   0.248   4.520
 3009TIP3    H1 9033   1.979   0.278   4.580
 3009TIP3    H2 9034   2.002   0.233   4.437
 3010TIP3   OH2 9035   1.750   3.992   5.094
 3010TIP3    H1 9036   1.836   3.963   5.125
 3010TIP3    H2 9037   1.724   3.925   5.031
 3011TIP3   OH2 9038   4.878   1.755   4.507
 3011TIP3    H1 9039   4.920   1.820   4.451
 3011TIP3    H2 9040   4.924   1.674   4.488
 3012TIP3   OH2 9041   0.849   2.241   3.601
 3012TIP3    H1 9042   0.788   2.261   3.530
 3012TIP3    H2 9043   0.814   2.161   3.640
 3013TIP3   OH2 9044   3.157   0.995   3.060
 3013TIP3    H1 9045   3.130   1.013   3.150
 3013TIP3    H2 9046   3.081   1.021   3.008
 3014TIP3   OH2 9047   5.907   2.184   5.142
 3014TIP3    H1 9048   5.935   2.176   5.234
 3014TIP3    H2 9049   5.894   2.278   5.130
 3015TIP3   OH2 9050   2.883   1.012   3.304
 3015TIP3    H1 9051   2.829   0.986   3.378
 3015TIP3    H2 9052   2.830   0.991   3.227
 3016TIP3   OH2 9053   1.752   5.130   1.643
 3016TIP3    H1 9054   1.721   5.180   1.718
 3016TIP3    H2 9055   1.685   5.064   1.629
 3017TIP3   OH2 9056   1.556   5.862   3.642
 3017TIP3    H1 9057   1.497   5.809   3.586
 3017TIP3    H2 9058   1.573   5.806   3.718
 3018TIP3   OH2 9059   0.608   3.980   3.488
 3018TIP3    H1 9060   0.602   4.063   3.441
 3018TIP3    H2 9061   0.603   4.003   3.580
 3019TIP3   OH2 9062   6.238   0.298   2.392
 3019TIP3    H1 9063   6.291   0.282   2.470
 3019TIP3    H2 9064   6.269   0.233   2.328
 3020TIP3   OH2 9065   4.867   3.420   0.564
 3020TIP3    H1 9066   4.837   3.510   0.574
 3020TIP3    H2 9067   4.903   3.417   0.476
 3021TIP3   OH2 9068   1.783   1.370   0.256
 3021TIP3    H1 9069   1.814   1.444   0.308
 3021TIP3    H2 9070   1.709   1.406   0.206
 3022TIP3   OH2 9071   3.922   2.835   1.752
 3022TIP3    H1 9072   3.892   2.779   1.681
 3022TIP3    H2 9073   3.842   2.873   1.789
 3023TIP3   OH2 9074   4.259   2.833   1.169
 3023TIP3    H1 9075   4.348   2.807   1.193
 3023TIP3    H2 9076   4.216   2.852   1.253
 3024TIP3   OH2 9077   1.670   1.348   1.773
 3024TIP3    H1 9078   1.679   1.444   1.773
 3024TIP3    H2 9079   1.758   1.316   1.756
 3025TIP3   OH2 9080   0.301   2.514   4.199
 3025TIP3    H1 9081   0.225   2.550   4.152
 3025TIP3    H2 9082   0.374   2.569   4.172
 3026TIP3   OH2 9083   3.681   1.797   4.309
 3026TIP3    H1 9084   3.699   1.853   4.384
 3026TIP3    H2 9085   3.596   1.758   4.327
 3027TIP3   OH2 9086   2.119   4.080   0.129
 3027TIP3    H1 9087   2.098   4.038   0.213
 3027TIP3    H2 9088   2.187   4.144   0.151
 3028TIP3   OH2 9089   2.835   0.097   4.540
 3028TIP3    H1 9090   2.794   0.034   4.481
 3028TIP3    H2 9091   2.878   0.043   4.607
 3029TIP3   OH2 9092   0.798   5.866   3.906
 3029TIP3    H1 9093   0.841   5.951   3.910
 3029TIP3    H2 9094   0.761   5.862   3.818
 3030TIP3   OH2 9095   5.535   3.424   1.834
 3030TIP3    H1 9096   5.513   3.482   1.761
 3030TIP3    H2 9097   5.585   3.478   1.894
 3031TIP3   OH2 9098   4.178   1.617   3.098
 3031TIP3    H1 9099   4.109   1.653   3.043
 3031TIP3    H2 9100   4.254   1.611   3.040
 3032TIP3   OH2 9101   2.058   3.645   2.867
 3032TIP3    H1 9102   1.972   3.672   2.835
 3032TIP3    H2 9103   2.063   3.552   2.847
 3033TIP3   OH2 9104   5.679   2.043   3.215
 3033TIP3    H1 9105   5.716   2.080   3.295
 3033TIP3    H2 9106   5.715   2.097   3.145
 3034TIP3   OH2 9107   1.492   4.900   4.096
 3034TIP3    H1 9108   1.504   4.923   4.188
 3034TIP3    H2 9109   1.489   4.984   4.050
 3035TIP3   OH2 9110   5.919   1.619   4.801
 3035TIP3    H1 9111   5.927   1.686   4.733
 3035TIP3    H2 9112   5.825   1.602   4.807
 3036TIP3   OH2 9113   1.905   3.526   3.579
 3036TIP3    H1 9114   1.836   3.493   3.521
 3036TIP3    H2 9115   1.979   3.541   3.520
 3037TIP3   OH2 9116   0.307   3.827   2.438
 3037TIP3    H1 9117   0.257   3.831   2.520
 3037TIP3    H2 9118   0.289   3.910   2.394
 3038TIP3   OH2 9119   2.345   0.754   4.589
 3038TIP3    H1 9120   2.279   0.814   4.555
 3038TIP3    H2 9121   2.307   0.718   4.669
 3039TIP3   OH2 9122   2.998   4.696   4.975
 3039TIP3    H1 9123   3.014   4.611   4.935
 3039TIP3    H2 9124   2.955   4.677   5.058
 3040TIP3   OH2 9125   5.581   3.180   2.341
 3040TIP3    H1 9126   5.524   3.106   2.325
 3040TIP3    H2 9127   5.641   3.150   2.410
 3041TIP3   OH2 9128   6.161   1.926   2.436
 3041TIP3    H1 9129   6.146   1.975   2.516
 3041TIP3    H2 9130   6.209   1.986   2.379
 3042TIP3   OH2 9131   0.975   5.616   1.110
 3042TIP3    H1 9132   0.989   5.571   1.026
 3042TIP3    H2 9133   1.039   5.575   1.169
 3043TIP3   OH2 9134   1.228   4.033   2.008
 3043TIP3    H1 9135   1.139   4.067   2.001
 3043TIP3    H2 9136   1.250   4.003   1.920
 3044TIP3   OH2 9137   1.743   3.463   3.048
 3044TIP3    H1 9138   1.682   3.527   3.012
 3044TIP3    H2 9139   1.757   3.400   2.978
 3045TIP3   OH2 9140   4.449   0.468   4.156
 3045TIP3    H1 9141   4.490   0.406   4.216
 3045TIP3    H2 9142   4.372   0.500   4.203
 3046TIP3   OH2 9143   2.154   1.945   0.381
 3046TIP3    H1 9144   2.102   1.868   0.360
 3046TIP3    H2 9145   2.132   1.965   0.472
 3047TIP3   OH2 9146   2.217   0.048   2.695
 3047TIP3    H1 9147   2.301   0.011   2.668
 3047TIP3    H2 9148   2.189   0.101   2.620
 3048TIP3   OH2 9149   3.616   1.640   1.397
 3048TIP3    H1 9150   3.612   1.573   1.329
 3048TIP3    H2 9151   3.653   1.596   1.473
 3049TIP3   OH2 9152   1.223   3.626   1.485
 3049TIP3    H1 9153   1.236   3.533   1.467
 3049TIP3    H2 9154   1.187   3.629   1.574
 3050TIP3   OH2 9155   1.086   1.146   1.540
 3050TIP3    H1 9156   1.033   1.089   1.485
 3050TIP3    H2 9157   1.097   1.226   1.489
 3051TIP3   OH2 9158   0.390   3.206   1.785
 3051TIP3    H1 9159   0.473   3.244   1.755
 3051TIP3    H2 9160   0.377   3.243   1.872
 3052TIP3   OH2 9161   3.684   0.209   0.167
 3052TIP3    H1 9162   3.774   0.236   0.186
 3052TIP3    H2 9163   3.693   0.141   0.100
 3053TIP3   OH2 9164   0.434   0.986   4.502
 3053TIP3    H1 9165   0.433   0.954   4.592
 3053TIP3    H2 9166   0.513   0.949   4.464
 3054TIP3   OH2 9167   6.299   3.359   0.877
 3054TIP3    H1 9168   6.209   3.370   0.846
 3054TIP3    H2 9169   6.292   3.362   0.972
 3055TIP3   OH2 9170   3.004   5.678   3.525
 3055TIP3    H1 9171   3.079   5.723   3.489
 3055TIP3    H2 9172   3.034   5.642   3.608
 3056TIP3   OH2 9173   0.289   1.100   1.538
 3056TIP3    H1 9174   0.317   1.010   1.555
 3056TIP3    H2 9175   0.206   1.109   1.584
 3057TIP3   OH2 9176   0.738   1.159   1.055
 3057TIP3    H1 9177   0.681   1.229   1.024
 3057TIP3    H2 9178   0.695   1.126   1.134
 3058TIP3   OH2 9179   1.239   4.739   2.295
 3058TIP3    H1 9180   1.176   4.702   2.233
 3058TIP3    H2 9181   1.259   4.826   2.261
 3059TIP3   OH2 9182   1.912   0.374   0.248
 3059TIP3    H1 9183   1.923   0.354   0.155
 3059TIP3    H2 9184   1.835   0.430   0.252
 3060TIP3   OH2 9185   2.595   2.527   1.304
 3060TIP3    H1 9186   2.597   2.578   1.384
 3060TIP3    H2 9187   2.553   2.584   1.239
 3061TIP3   OH2 9188   4.433   2.499   1.079
 3061TIP3    H1 9189   4.409   2.589   1.103
 3061TIP3    H2 9190   4.350   2.454   1.067
 3062TIP3   OH2 9191   2.652   5.935   4.965
 3062TIP3    H1 9192   2.680   6.016   5.008
 3062TIP3    H2 9193   2.724   5.874   4.979
 3063TIP3   OH2 9194   4.190   4.377   1.804
 3063TIP3    H1 9195   4.242   4.357   1.882
 3063TIP3    H2 9196   4.105   4.338   1.821
 3064TIP3   OH2 9197   1.998   4.909   5.042
 3064TIP3    H1 9198   2.026   4.827   5.081
 3064TIP3    H2 9199   1.932   4.943   5.103
 3065TIP3   OH2 9200   5.933   0.636   3.221
 3065TIP3    H1 9201   5.940   0.540   3.219
 3065TIP3    H2 9202   6.021   0.667   3.197
 3066TIP3   OH2 9203   4.177   3.202   0.403
 3066TIP3    H1 9204   4.095   3.216   0.450
 3066TIP3    H2 9205   4.189   3.107   0.404
 3067TIP3   OH2 9206   6.196   1.501   0.248
 3067TIP3    H1 9207   6.112   1.455   0.252
 3067TIP3    H2 9208   6.216   1.523   0.339
 3068TIP3   OH2 9209   6.282   4.458   1.380
 3068TIP3    H1 9210   6.346   4.451   1.450
 3068TIP3    H2 9211   6.288   4.550   1.352
 3069TIP3   OH2 9212   5.873   2.543   1.421
 3069TIP3    H1 9213   5.793   2.495   1.446
 3069TIP3    H2 9214   5.869   2.547   1.326
 3070TIP3   OH2 9215   5.252   0.767   4.440
 3070TIP3    H1 9216   5.195   0.712   4.385
 3070TIP3    H2 9217   5.330   0.714   4.454
 3071TIP3   OH2 9218   0.029   0.231   2.052
 3071TIP3    H1 9219   0.022   0.325   2.072
 3071TIP3    H2 9220   0.117   0.207   2.081
 3072TIP3   OH2 9221   0.153   5.004   5.012
 3072TIP3    H1 9222   0.126   4.929   5.065
 3072TIP3    H2 9223   0.176   4.966   4.927
 3073TIP3   OH2 9224   4.888   1.886   2.557
 3073TIP3    H1 9225   4.794   1.904   2.550
 3073TIP3    H2 9226   4.901   1.807   2.505
 3074TIP3   OH2 9227   0.984   1.511   0.249
 3074TIP3    H1 9228   0.964   1.476   0.336
 3074TIP3    H2 9229   1.044   1.447   0.211
 3075TIP3   OH2 9230   3.528   1.844   1.209
 3075TIP3    H1 9231   3.593   1.826   1.277
 3075TIP3    H2 9232   3.460   1.778   1.223
 3076TIP3   OH2 9233   1.060   0.466   1.994
 3076TIP3    H1 9234   1.003   0.519   1.938
 3076TIP3    H2 9235   1.030   0.376   1.980
 3077TIP3   OH2 9236   1.278   4.636   3.398
 3077TIP3    H1 9237   1.207   4.644   3.461
 3077TIP3    H2 9238   1.235   4.619   3.314
 3078TIP3   OH2 9239   5.207   3.782   4.273
 3078TIP3    H1 9240   5.214   3.862   4.222
 3078TIP3    H2 9241   5.284   3.731   4.248
 3079TIP3   OH2 9242   2.312   4.313   0.125
 3079TIP3    H1 9243   2.370   4.259   0.071
 3079TIP3    H2 9244   2.356   4.397   0.130
 3080TIP3   OH2 9245   1.387   5.505   4.902
 3080TIP3    H1 9246   1.316   5.567   4.884
 3080TIP3    H2 9247   1.370   5.432   4.843
 3081TIP3   OH2 9248   1.984   5.239   1.547
 3081TIP3    H1 9249   2.004   5.228   1.454
 3081TIP3    H2 9250   1.895   5.205   1.556
 3082TIP3   OH2 9251   2.523   3.002   4.503
 3082TIP3    H1 9252   2.511   2.968   4.414
 3082TIP3    H2 9253   2.589   2.944   4.542
 3083TIP3   OH2 9254   0.348   3.770   3.984
 3083TIP3    H1 9255   0.321   3.747   3.896
 3083TIP3    H2 9256   0.407   3.699   4.011
 3084TIP3   OH2 9257   1.361   1.722   3.783
 3084TIP3    H1 9258   1.418   1.792   3.751
 3084TIP3    H2 9259   1.273   1.761   3.783
 3085TIP3   OH2 9260   3.662   2.265   2.576
 3085TIP3    H1 9261   3.596   2.275   2.508
 3085TIP3    H2 9262   3.627   2.312   2.651
 3086TIP3   OH2 9263   2.618   4.278   3.429
 3086TIP3    H1 9264   2.638   4.203   3.485
 3086TIP3    H2 9265   2.591   4.240   3.346
 3087TIP3   OH2 9266   1.594   3.238   4.265
 3087TIP3    H1 9267   1.670   3.232   4.208
 3087TIP3    H2 9268   1.524   3.191   4.219
 3088TIP3   OH2 9269   2.838   2.239   5.199
 3088TIP3    H1 9270   2.852   2.187   5.278
 3088TIP3    H2 9271   2.923   2.238   5.154
 3089TIP3   OH2 9272   1.647   1.304   3.561
 3089TIP3    H1 9273   1.593   1.368   3.607
 3089TIP3    H2 9274   1.734   1.343   3.556
 3090TIP3   OH2 9275   0.298   2.451   4.466
 3090TIP3    H1 9276   0.285   2.482   4.376
 3090TIP3    H2 9277   0.210   2.435   4.499
 3091TIP3   OH2 9278   0.389   5.401   4.847
 3091TIP3    H1 9279   0.410   5.406   4.754
 3091TIP3    H2 9280   0.459   5.346   4.884
 3092TIP3   OH2 9281   4.630   4.724   5.032
 3092TIP3    H1 9282   4.688   4.798   5.016
 3092TIP3    H2 9283   4.592   4.704   4.946
 3093TIP3   OH2 9284   3.972   1.327   2.550
 3093TIP3    H1 9285   3.895   1.348   2.602
 3093TIP3    H2 9286   4.000   1.411   2.514
 3094TIP3   OH2 9287   2.811   0.861   0.915
 3094TIP3    H1 9288   2.825   0.880   0.822
 3094TIP3    H2 9289   2.736   0.801   0.916
 3095TIP3   OH2 9290   0.983   2.647   0.762
 3095TIP3    H1 9291   0.948   2.558   0.757
 3095TIP3    H2 9292   0.967   2.684   0.675
 3096TIP3   OH2 9293   2.252   2.664   0.964
 3096TIP3    H1 9294   2.226   2.600   1.029
 3096TIP3    H2 9295   2.347   2.671   0.974
 3097TIP3   OH2 9296   0.129   4.491   3.937
 3097TIP3    H1 9297   0.141   4.551   3.864
 3097TIP3    H2 9298   0.034   4.491   3.953
 3098TIP3   OH2 9299   2.871   5.148   3.248
 3098TIP3    H1 9300   2.935   5.206   3.206
 3098TIP3    H2 9301   2.792   5.158   3.195
 3099TIP3   OH2 9302   1.886   4.002   2.245
 3099TIP3    H1 9303   1.858   4.046   2.325
 3099TIP3    H2 9304   1.959   4.055   2.213
 3100TIP3   OH2 9305   3.317   1.660   1.261
 3100TIP3    H1 9306   3.298   1.568   1.280
 3100TIP3    H2 9307   3.281   1.708   1.336
 3101TIP3   OH2 9308   1.275   3.463   4.712
 3101TIP3    H1 9309   1.332   3.523   4.759
 3101TIP3    H2 9310   1.334   3.405   4.664
 3102TIP3   OH2 9311   3.312   1.278   0.390
 3102TIP3    H1 9312   3.266   1.199   0.419
 3102TIP3    H2 9313   3.321   1.268   0.295
 3103TIP3   OH2 9314   0.998   4.851   3.425
 3103TIP3    H1 9315   1.033   4.827   3.510
 3103TIP3    H2 9316   0.970   4.942   3.435
 3104TIP3   OH2 9317   4.687   2.532   1.497
 3104TIP3    H1 9318   4.642   2.470   1.439
 3104TIP3    H2 9319   4.770   2.490   1.518
 3105TIP3   OH2 9320   6.002   5.611   3.919
 3105TIP3    H1 9321   5.918   5.566   3.912
 3105TIP3    H2 9322   6.038   5.583   4.003
 3106TIP3   OH2 9323   4.696   4.491   3.526
 3106TIP3    H1 9324   4.667   4.414   3.477
 3106TIP3    H2 9325   4.631   4.558   3.506
 3107TIP3   OH2 9326   4.005   4.182   4.675
 3107TIP3    H1 9327   4.036   4.143   4.757
 3107TIP3    H2 9328   3.946   4.117   4.638
 3108TIP3   OH2 9329   2.383   2.623   2.475
 3108TIP3    H1 9330   2.393   2.686   2.547
 3108TIP3    H2 9331   2.311   2.566   2.503
 3109TIP3   OH2 9332   2.152   0.464   0.965
 3109TIP3    H1 9333   2.070   0.470   1.014
 3109TIP3    H2 9334   2.191   0.381   0.995
 3110TIP3   OH2 9335   4.077   5.004   4.888
 3110TIP3    H1 9336   4.171   5.014   4.905
 3110TIP3    H2 9337   4.041   4.970   4.970
 3111TIP3   OH2 9338   4.390   2.039   2.467
 3111TIP3    H1 9339   4.374   2.000   2.380
 3111TIP3    H2 9340   4.332   2.114   2.470
 3112TIP3   OH2 9341   0.386   3.969   0.228
 3112TIP3    H1 9342   0.468   4.005   0.194
 3112TIP3    H2 9343   0.344   3.927   0.153
 3113TIP3   OH2 9344   1.399   4.014   0.948
 3113TIP3    H1 9345   1.396   3.960   1.027
 3113TIP3    H2 9346   1.311   4.050   0.940
 3114TIP3   OH2 9347   2.968   3.729   3.890
 3114TIP3    H1 9348   3.031   3.657   3.884
 3114TIP3    H2 9349   2.958   3.759   3.800
 3115TIP3   OH2 9350   1.006   1.267   4.265
 3115TIP3    H1 9351   0.978   1.190   4.315
 3115TIP3    H2 9352   0.937   1.278   4.199
 3116TIP3   OH2 9353   4.056   4.016   1.540
 3116TIP3    H1 9354   3.978   3.979   1.499
 3116TIP3    H2 9355   4.049   3.989   1.632
 3117TIP3   OH2 9356   3.943   0.872   0.029
 3117TIP3    H1 9357   3.948   0.915   0.114
 3117TIP3    H2 9358   3.895   0.790   0.046
 3118TIP3   OH2 9359   0.214   3.324   3.501
 3118TIP3    H1 9360   0.244   3.363   3.582
 3118TIP3    H2 9361   0.293   3.289   3.461
 3119TIP3   OH2 9362   1.150   0.852   4.796
 3119TIP3    H1 9363   1.235   0.884   4.825
 3119TIP3    H2 9364   1.160   0.757   4.794
 3120TIP3   OH2 9365   4.438   3.697   1.234
 3120TIP3    H1 9366   4.488   3.758   1.287
 3120TIP3    H2 9367   4.481   3.612   1.248
 3121TIP3   OH2 9368   2.834   5.575   1.484
 3121TIP3    H1 9369   2.888   5.548   1.558
 3121TIP3    H2 9370   2.782   5.497   1.463
 3122TIP3   OH2 9371   5.134   1.092   0.544
 3122TIP3    H1 9372   5.225   1.065   0.538
 3122TIP3    H2 9373   5.130   1.175   0.496
 3123TIP3   OH2 9374   6.098   0.590   4.743
 3123TIP3    H1 9375   6.065   0.501   4.760
 3123TIP3    H2 9376   6.025   0.635   4.701
 3124TIP3   OH2 9377   2.665   3.673   4.529
 3124TIP3    H1 9378   2.578   3.685   4.490
 3124TIP3    H2 9379   2.725   3.703   4.461
 3125TIP3   OH2 9380   3.519   0.449   4.805
 3125TIP3    H1 9381   3.426   0.470   4.802
 3125TIP3    H2 9382   3.522   0.358   4.835
 3126TIP3   OH2 9383   5.866   2.403   1.181
 3126TIP3    H1 9384   5.896   2.402   1.090
 3126TIP3    H2 9385   5.936   2.360   1.230
 3127TIP3   OH2 9386   6.211   3.565   0.240
 3127TIP3    H1 9387   6.260   3.502   0.292
 3127TIP3    H2 9388   6.271   3.590   0.169
 3128TIP3   OH2 9389   1.628   0.311   4.404
 3128TIP3    H1 9390   1.656   0.338   4.316
 3128TIP3    H2 9391   1.533   0.322   4.403
 3129TIP3   OH2 9392   1.623   4.975   2.451
 3129TIP3    H1 9393   1.614   4.950   2.359
 3129TIP3    H2 9394   1.704   5.025   2.454
 3130TIP3   OH2 9395   2.833   3.146   1.767
 3130TIP3    H1 9396   2.739   3.167   1.772
 3130TIP3    H2 9397   2.863   3.194   1.689
 3131TIP3   OH2 9398   1.116   1.570   4.144
 3131TIP3    H1 9399   1.053   1.588   4.073
 3131TIP3    H2 9400   1.196   1.546   4.099
 3132TIP3   OH2 9401   2.752   1.449   3.724
 3132TIP3    H1 9402   2.834   1.497   3.738
 3132TIP3    H2 9403   2.702   1.505   3.664
 3133TIP3   OH2 9404   4.284   2.032   0.326
 3133TIP3    H1 9405   4.300   2.126   0.335
 3133TIP3    H2 9406   4.252   2.021   0.237
 3134TIP3   OH2 9407   5.595   2.860   3.492
 3134TIP3    H1 9408   5.567   2.846   3.582
 3134TIP3    H2 9409   5.672   2.917   3.500
 3135TIP3   OH2 9410   3.732   5.427   1.383
 3135TIP3    H1 9411   3.808   5.369   1.374
 3135TIP3    H2 9412   3.734   5.482   1.304
 3136TIP3   OH2 9413   6.182   4.891   3.597
 3136TIP3    H1 9414   6.160   4.825   3.664
 3136TIP3    H2 9415   6.169   4.975   3.641
 3137TIP3   OH2 9416   3.583   2.895   3.637
 3137TIP3    H1 9417   3.566   2.872   3.545
 3137TIP3    H2 9418   3.521   2.965   3.656
 3138TIP3   OH2 9419   5.502   2.225   5.001
 3138TIP3    H1 9420   5.450   2.266   5.070
 3138TIP3    H2 9421   5.531   2.298   4.946
 3139TIP3   OH2 9422   1.239   1.236   4.931
 3139TIP3    H1 9423   1.251   1.331   4.925
 3139TIP3    H2 9424   1.283   1.201   4.854
 3140TIP3   OH2 9425   5.648   4.787   4.062
 3140TIP3    H1 9426   5.568   4.756   4.103
 3140TIP3    H2 9427   5.696   4.830   4.133
 3141TIP3   OH2 9428   4.805   0.336   2.650
 3141TIP3    H1 9429   4.771   0.426   2.652
 3141TIP3    H2 9430   4.900   0.346   2.658
 3142TIP3   OH2 9431   2.252   3.078   3.812
 3142TIP3    H1 9432   2.184   3.145   3.810
 3142TIP3    H2 9433   2.211   3.000   3.774
 3143TIP3   OH2 9434   5.654   1.029   0.927
 3143TIP3    H1 9435   5.588   1.035   0.996
 3143TIP3    H2 9436   5.701   0.948   0.944
 3144TIP3   OH2 9437   1.068   0.534   3.360
 3144TIP3    H1 9438   1.100   0.454   3.402
 3144TIP3    H2 9439   0.974   0.520   3.350
 3145TIP3   OH2 9440   2.684   5.582   1.949
 3145TIP3    H1 9441   2.732   5.500   1.960
 3145TIP3    H2 9442   2.713   5.637   2.021
 3146TIP3   OH2 9443   3.073   1.404   0.191
 3146TIP3    H1 9444   2.980   1.428   0.197
 3146TIP3    H2 9445   3.081   1.325   0.244
 3147TIP3   OH2 9446   6.001   4.282   4.037
 3147TIP3    H1 9447   6.075   4.340   4.050
 3147TIP3    H2 9448   6.035   4.194   4.056
 3148TIP3   OH2 9449   4.915   0.594   1.598
 3148TIP3    H1 9450   4.876   0.680   1.584
 3148TIP3    H2 9451   4.968   0.604   1.677
 3149TIP3   OH2 9452   6.036   1.600   4.419
 3149TIP3    H1 9453   6.098   1.604   4.492
 3149TIP3    H2 9454   6.090   1.612   4.341
 3150TIP3   OH2 9455   0.991   3.301   1.989
 3150TIP3    H1 9456   0.990   3.396   1.996
 3150TIP3    H2 9457   1.034   3.271   2.070
 3151TIP3   OH2 9458   2.190   1.586   2.617
 3151TIP3    H1 9459   2.197   1.496   2.648
 3151TIP3    H2 9460   2.140   1.631   2.684
 3152TIP3   OH2 9461   5.850   3.099   1.682
 3152TIP3    H1 9462   5.782   3.058   1.628
 3152TIP3    H2 9463   5.914   3.029   1.696
 3153TIP3   OH2 9464   4.267   5.829   0.822
 3153TIP3    H1 9465   4.300   5.847   0.734
 3153TIP3    H2 9466   4.324   5.879   0.880
 3154TIP3   OH2 9467   3.487   5.118   0.730
 3154TIP3    H1 9468   3.496   5.151   0.641
 3154TIP3    H2 9469   3.571   5.077   0.749
 3155TIP3   OH2 9470   1.012   4.115   0.510
 3155TIP3    H1 9471   1.075   4.101   0.582
 3155TIP3    H2 9472   0.929   4.133   0.554
 3156TIP3   OH2 9473   4.126   3.345   4.106
 3156TIP3    H1 9474   4.193   3.413   4.112
 3156TIP3    H2 9475   4.071   3.358   4.184
 3157TIP3   OH2 9476   4.411   3.214   2.669
 3157TIP3    H1 9477   4.371   3.150   2.609
 3157TIP3    H2 9478   4.366   3.296   2.649
 3158TIP3   OH2 9479   2.797   1.606   1.863
 3158TIP3    H1 9480   2.891   1.625   1.865
 3158TIP3    H2 9481   2.755   1.690   1.879
 3159TIP3   OH2 9482   3.911   5.403   2.106
 3159TIP3    H1 9483   3.858   5.475   2.072
 3159TIP3    H2 9484   3.965   5.375   2.032
 3160TIP3   OH2 9485   0.521   2.457   1.491
 3160TIP3    H1 9486   0.496   2.410   1.571
 3160TIP3    H2 9487   0.578   2.527   1.522
 3161TIP3   OH2 9488   6.312   5.971   4.139
 3161TIP3    H1 9489   6.246   6.038   4.157
 3161TIP3    H2 9490   6.270   5.911   4.078
 3162TIP3   OH2 9491   1.047   4.918   5.070
 3162TIP3    H1 9492   1.062   4.946   4.980
 3162TIP3    H2 9493   1.134   4.913   5.109
 3163TIP3   OH2 9494   4.053   0.891   1.046
 3163TIP3    H1 9495   3.972   0.901   0.996
 3163TIP3    H2 9496   4.084   0.981   1.058
 3164TIP3   OH2 9497   2.981   1.283   1.793
 3164TIP3    H1 9498   2.890   1.266   1.768
 3164TIP3    H2 9499   3.030   1.208   1.759
 3165TIP3   OH2 9500   4.329   3.422   1.861
 3165TIP3    H1 9501   4.282   3.362   1.919
 3165TIP3    H2 9502   4.264   3.489   1.839
 3166TIP3   OH2 9503   5.138   2.394   4.282
 3166TIP3    H1 9504   5.106   2.393   4.372
 3166TIP3    H2 9505   5.064   2.430   4.232
 3167TIP3   OH2 9506   5.252   5.355   1.702
 3167TIP3    H1 9507   5.284   5.367   1.613
 3167TIP3    H2 9508   5.235   5.443   1.735
 3168TIP3   OH2 9509   1.187   4.053   4.177
 3168TIP3    H1 9510   1.151   4.142   4.177
 3168TIP3    H2 9511   1.182   4.025   4.085
 3169TIP3   OH2 9512   0.714   5.500   3.106
 3169TIP3    H1 9513   0.626   5.533   3.126
 3169TIP3    H2 9514   0.698   5.425   3.049
 3170TIP3   OH2 9515   3.092   3.905   0.943
 3170TIP3    H1 9516   3.046   3.942   1.019
 3170TIP3    H2 9517   3.105   3.813   0.966
 3171TIP3   OH2 9518   1.005   2.328   3.002
 3171TIP3    H1 9519   1.033   2.287   2.920
 3171TIP3    H2 9520   0.960   2.258   3.050
 3172TIP3   OH2 9521   2.599   4.164   2.582
 3172TIP3    H1 9522   2.578   4.243   2.533
 3172TIP3    H2 9523   2.517   4.114   2.584
 3173TIP3   OH2 9524   0.822   4.694   2.500
 3173TIP3    H1 9525   0.756   4.743   2.450
 3173TIP3    H2 9526   0.844   4.620   2.443
 3174TIP3   OH2 9527   3.189   1.346   2.449
 3174TIP3    H1 9528   3.239   1.407   2.396
 3174TIP3    H2 9529   3.100   1.383   2.451
 3175TIP3   OH2 9530   2.812   3.605   4.759
 3175TIP3    H1 9531   2.830   3.691   4.796
 3175TIP3    H2 9532   2.743   3.621   4.694
 3176TIP3   OH2 9533   4.787   4.220   3.105
 3176TIP3    H1 9534   4.880   4.200   3.119
 3176TIP3    H2 9535   4.760   4.161   3.034
 3177TIP3   OH2 9536   1.046   3.938   0.317
 3177TIP3    H1 9537   1.048   3.990   0.397
 3177TIP3    H2 9538   0.953   3.919   0.303
 3178TIP3   OH2 9539   5.059   1.186   4.011
 3178TIP3    H1 9540   5.134   1.233   4.047
 3178TIP3    H2 9541   5.019   1.143   4.086
 3179TIP3   OH2 9542   6.290   0.070   1.843
 3179TIP3    H1 9543   6.311   0.150   1.891
 3179TIP3    H2 9544   6.250   0.101   1.762
 3180TIP3   OH2 9545   3.528   3.733   0.333
 3180TIP3    H1 9546   3.476   3.814   0.329
 3180TIP3    H2 9547   3.618   3.762   0.339
 3181TIP3   OH2 9548   3.895   4.782   2.158
 3181TIP3    H1 9549   3.827   4.838   2.120
 3181TIP3    H2 9550   3.929   4.731   2.084
 3182TIP3   OH2 9551   4.553   1.993   3.929
 3182TIP3    H1 9552   4.544   1.898   3.922
 3182TIP3    H2 9553   4.552   2.011   4.023
 3183TIP3   OH2 9554   0.961   3.131   4.470
 3183TIP3    H1 9555   1.036   3.125   4.411
 3183TIP3    H2 9556   0.997   3.161   4.553
 3184TIP3   OH2 9557   1.743   2.142   0.147
 3184TIP3    H1 9558   1.768   2.075   0.211
 3184TIP3    H2 9559   1.773   2.224   0.187
 3185TIP3   OH2 9560   0.358   0.717   4.944
 3185TIP3    H1 9561   0.436   0.670   4.975
 3185TIP3    H2 9562   0.296   0.647   4.922
 3186TIP3   OH2 9563   4.195   1.604   0.901
 3186TIP3    H1 9564   4.157   1.523   0.867
 3186TIP3    H2 9565   4.276   1.615   0.851
 3187TIP3   OH2 9566   2.424   1.063   1.022
 3187TIP3    H1 9567   2.514   1.030   1.018
 3187TIP3    H2 9568   2.433   1.154   1.051
 3188TIP3   OH2 9569   5.942   2.118  -0.031
 3188TIP3    H1 9570   6.014   2.096   0.028
 3188TIP3    H2 9571   5.871   2.145   0.026
 3189TIP3   OH2 9572   1.603   2.133   0.884
 3189TIP3    H1 9573   1.587   2.168   0.796
 3189TIP3    H2 9574   1.691   2.094   0.878
 3190TIP3   OH2 9575   2.394   5.988   4.922
 3190TIP3    H1 9576   2.373   5.979   4.829
 3190TIP3    H2 9577   2.488   5.970   4.928
 3191TIP3   OH2 9578   3.393   0.272   3.651
 3191TIP3    H1 9579   3.428   0.201   3.597
 3191TIP3    H2 9580   3.338   0.323   3.591
 3192TIP3   OH2 9581   3.009   4.770   3.807
 3192TIP3    H1 9582   3.031   4.819   3.728
 3192TIP3    H2 9583   3.093   4.751   3.848
 3193TIP3   OH2 9584   1.919   3.431   1.128
 3193TIP3    H1 9585   1.905   3.430   1.034
 3193TIP3    H2 9586   1.849   3.376   1.163
 3194TIP3   OH2 9587   3.144   1.006   4.705
 3194TIP3    H1 9588   3.075   0.943   4.685
 3194TIP3    H2 9589   3.205   0.998   4.632
 3195TIP3   OH2 9590   0.826   4.406   1.007
 3195TIP3    H1 9591   0.779   4.326   0.982
 3195TIP3    H2 9592   0.916   4.377   1.020
 3196TIP3   OH2 9593   4.552   2.484   3.206
 3196TIP3    H1 9594   4.523   2.484   3.297
 3196TIP3    H2 9595   4.532   2.396   3.174
 3197TIP3   OH2 9596   5.973   5.952   5.027
 3197TIP3    H1 9597   5.911   5.975   5.097
 3197TIP3    H2 9598   6.002   6.037   4.993
 3198TIP3   OH2 9599   1.662   2.122   1.424
 3198TIP3    H1 9600   1.734   2.182   1.402
 3198TIP3    H2 9601   1.585   2.162   1.384
 3199TIP3   OH2 9602   2.329   0.653   1.081
 3199TIP3    H1 9603   2.259   0.718   1.087
 3199TIP3    H2 9604   2.295   0.586   1.022
 3200TIP3   OH2 9605   3.095   5.490   2.165
 3200TIP3    H1 9606   3.005   5.458   2.155
 3200TIP3    H2 9607   3.109   5.493   2.260
 3201TIP3   OH2 9608   0.105   4.933   1.206
 3201TIP3    H1 9609   0.154   4.907   1.284
 3201TIP3    H2 9610   0.171   4.972   1.148
 3202TIP3   OH2 9611   2.333   4.784   3.635
 3202TIP3    H1 9612   2.385   4.842   3.689
 3202TIP3    H2 9613   2.353   4.696   3.668
 3203TIP3   OH2 9614   5.851   1.943   4.392
 3203TIP3    H1 9615   5.866   1.859   4.436
 3203TIP3    H2 9616   5.827   2.003   4.463
 3204TIP3   OH2 9617   4.176   2.513   3.197
 3204TIP3    H1 9618   4.200   2.443   3.135
 3204TIP3    H2 9619   4.137   2.581   3.141
 3205TIP3   OH2 9620   4.540   1.480   0.407
 3205TIP3    H1 9621   4.562   1.509   0.318
 3205TIP3    H2 9622   4.588   1.398   0.417
 3206TIP3   OH2 9623  -0.014   2.172   2.505
 3206TIP3    H1 9624   0.011   2.145   2.416
 3206TIP3    H2 9625   0.069   2.190   2.549
 3207TIP3   OH2 9626   2.966   3.294   1.556
 3207TIP3    H1 9627   2.975   3.357   1.484
 3207TIP3    H2 9628   3.056   3.270   1.579
 3208TIP3   OH2 9629   1.465   1.523   4.504
 3208TIP3    H1 9630   1.382   1.529   4.457
 3208TIP3    H2 9631   1.448   1.462   4.575
 3209TIP3   OH2 9632   4.281   1.259   2.998
 3209TIP3    H1 9633   4.289   1.163   2.999
 3209TIP3    H2 9634   4.203   1.276   2.945
 3210TIP3   OH2 9635   3.253   1.765   2.246
 3210TIP3    H1 9636   3.228   1.710   2.172
 3210TIP3    H2 9637   3.257   1.854   2.209
 3211TIP3   OH2 9638   0.620   3.674   4.773
 3211TIP3    H1 9639   0.670   3.596   4.747
 3211TIP3    H2 9640   0.686   3.743   4.782
 3212TIP3   OH2 9641   4.526   3.427   1.283
 3212TIP3    H1 9642   4.458   3.389   1.227
 3212TIP3    H2 9643   4.607   3.389   1.252
 3213TIP3   OH2 9644   4.780   5.185   3.915
 3213TIP3    H1 9645   4.695   5.146   3.895
 3213TIP3    H2 9646   4.826   5.187   3.831
 3214TIP3   OH2 9647   5.151   3.691   1.854
 3214TIP3    H1 9648   5.236   3.725   1.825
 3214TIP3    H2 9649   5.172   3.634   1.928
 3215TIP3   OH2 9650   1.442   3.927   1.221
 3215TIP3    H1 9651   1.515   3.866   1.225
 3215TIP3    H2 9652   1.483   4.012   1.207
 3216TIP3   OH2 9653   1.954   4.826   1.301
 3216TIP3    H1 9654   1.956   4.863   1.389
 3216TIP3    H2 9655   1.913   4.740   1.311
 3217TIP3   OH2 9656   0.645   4.232   1.318
 3217TIP3    H1 9657   0.724   4.180   1.332
 3217TIP3    H2 9658   0.595   4.221   1.399
 3218TIP3   OH2 9659   3.618   4.834   1.270
 3218TIP3    H1 9660   3.679   4.863   1.337
 3218TIP3    H2 9661   3.675   4.800   1.200
 3219TIP3   OH2 9662   1.685   4.909   0.863
 3219TIP3    H1 9663   1.721   4.923   0.951
 3219TIP3    H2 9664   1.598   4.872   0.878
 3220TIP3   OH2 9665   1.354   1.181   3.640
 3220TIP3    H1 9666   1.372   1.116   3.708
 3220TIP3    H2 9667   1.372   1.265   3.682
 3221TIP3   OH2 9668   0.108   5.905   0.274
 3221TIP3    H1 9669   0.132   5.836   0.336
 3221TIP3    H2 9670   0.180   5.908   0.212
 3222TIP3   OH2 9671   1.974   0.932   3.587
 3222TIP3    H1 9672   2.003   0.984   3.661
 3222TIP3    H2 9673   1.883   0.912   3.605
 3223TIP3   OH2 9674   4.498   5.742   3.255
 3223TIP3    H1 9675   4.558   5.715   3.325
 3223TIP3    H2 9676   4.513   5.678   3.186
 3224TIP3   OH2 9677   4.473   0.728   0.482
 3224TIP3    H1 9678   4.460   0.809   0.532
 3224TIP3    H2 9679   4.452   0.658   0.543
 3225TIP3   OH2 9680   6.245   4.580   2.866
 3225TIP3    H1 9681   6.209   4.527   2.795
 3225TIP3    H2 9682   6.225   4.531   2.945
 3226TIP3   OH2 9683   1.562   1.570   3.072
 3226TIP3    H1 9684   1.472   1.563   3.040
 3226TIP3    H2 9685   1.553   1.587   3.165
 3227TIP3   OH2 9686   5.761   2.447   4.589
 3227TIP3    H1 9687   5.842   2.434   4.639
 3227TIP3    H2 9688   5.788   2.500   4.514
 3228TIP3   OH2 9689   4.217   5.100   3.835
 3228TIP3    H1 9690   4.252   5.182   3.870
 3228TIP3    H2 9691   4.124   5.118   3.822
 3229TIP3   OH2 9692   0.367   2.229   2.552
 3229TIP3    H1 9693   0.323   2.223   2.637
 3229TIP3    H2 9694   0.449   2.181   2.564
 3230TIP3   OH2 9695   1.404   3.175   4.062
 3230TIP3    H1 9696   1.472   3.174   3.995
 3230TIP3    H2 9697   1.358   3.092   4.051
 3231TIP3   OH2 9698   3.280   0.491   3.490
 3231TIP3    H1 9699   3.326   0.529   3.415
 3231TIP3    H2 9700   3.292   0.555   3.560
 3232TIP3   OH2 9701   2.619   2.417   3.246
 3232TIP3    H1 9702   2.651   2.507   3.239
 3232TIP3    H2 9703   2.697   2.363   3.233
 3233TIP3   OH2 9704   6.229   4.334   0.872
 3233TIP3    H1 9705   6.254   4.324   0.964
 3233TIP3    H2 9706   6.312   4.344   0.826
 3234TIP3   OH2 9707   4.729   4.830   0.975
 3234TIP3    H1 9708   4.790   4.809   0.904
 3234TIP3    H2 9709   4.695   4.917   0.951
 3235TIP3   OH2 9710   1.313   4.412   0.845
 3235TIP3    H1 9711   1.366   4.396   0.923
 3235TIP3    H2 9712   1.247   4.476   0.873
 3236TIP3   OH2 9713   1.059   2.713   1.988
 3236TIP3    H1 9714   0.975   2.702   1.944
 3236TIP3    H2 9715   1.059   2.803   2.020
 3237TIP3   OH2 9716   0.566   5.459   0.212
 3237TIP3    H1 9717   0.545   5.396   0.143
 3237TIP3    H2 9718   0.529   5.420   0.291
 3238TIP3   OH2 9719   5.399   0.123   1.656
 3238TIP3    H1 9720   5.365   0.035   1.645
 3238TIP3    H2 9721   5.321   0.178   1.670
 3239TIP3   OH2 9722   2.929   3.432   4.588
 3239TIP3    H1 9723   2.894   3.503   4.641
 3239TIP3    H2 9724   2.977   3.377   4.650
 3240TIP3   OH2 9725   1.108   4.476   3.984
 3240TIP3    H1 9726   1.161   4.556   3.993
 3240TIP3    H2 9727   1.102   4.442   4.074
 3241TIP3   OH2 9728   2.472   2.278   1.381
 3241TIP3    H1 9729   2.424   2.359   1.401
 3241TIP3    H2 9730   2.564   2.303   1.385
 3242TIP3   OH2 9731   0.237   0.530   1.355
 3242TIP3    H1 9732   0.319   0.551   1.311
 3242TIP3    H2 9733   0.244   0.572   1.441
 3243TIP3   OH2 9734   2.085   4.173   2.155
 3243TIP3    H1 9735   2.162   4.172   2.211
 3243TIP3    H2 9736   2.105   4.111   2.085
 3244TIP3   OH2 9737   2.934   3.228   2.619
 3244TIP3    H1 9738   2.946   3.198   2.709
 3244TIP3    H2 9739   3.014   3.277   2.599
 3245TIP3   OH2 9740   2.414   2.778   3.743
 3245TIP3    H1 9741   2.319   2.763   3.744
 3245TIP3    H2 9742   2.451   2.693   3.768
 3246TIP3   OH2 9743   2.772   4.772   4.052
 3246TIP3    H1 9744   2.767   4.700   3.989
 3246TIP3    H2 9745   2.862   4.769   4.085
 3247TIP3   OH2 9746   4.448   0.402   3.039
 3247TIP3    H1 9747   4.475   0.475   2.983
 3247TIP3    H2 9748   4.370   0.367   2.998
 3248TIP3   OH2 9749   2.594   1.725   4.900
 3248TIP3    H1 9750   2.680   1.755   4.931
 3248TIP3    H2 9751   2.584   1.767   4.814
 3249TIP3   OH2 9752   4.660   2.355   4.604
 3249TIP3    H1 9753   4.567   2.334   4.597
 3249TIP3    H2 9754   4.668   2.444   4.571
 3250TIP3   OH2 9755   6.160   3.952   0.396
 3250TIP3    H1 9756   6.113   3.910   0.324
 3250TIP3    H2 9757   6.210   4.023   0.355
 3251TIP3   OH2 9758   5.296   4.588   4.826
 3251TIP3    H1 9759   5.306   4.624   4.737
 3251TIP3    H2 9760   5.241   4.510   4.814
 3252TIP3   OH2 9761   0.564   3.611   4.441
 3252TIP3    H1 9762   0.590   3.544   4.504
 3252TIP3    H2 9763   0.646   3.644   4.406
 3253TIP3   OH2 9764   0.957   1.537   0.736
 3253TIP3    H1 9765   0.992   1.522   0.824
 3253TIP3    H2 9766   0.864   1.556   0.750
 3254TIP3   OH2 9767   5.781   3.289   1.362
 3254TIP3    H1 9768   5.722   3.293   1.437
 3254TIP3    H2 9769   5.734   3.334   1.292
 3255TIP3   OH2 9770   3.129   1.454   1.582
 3255TIP3    H1 9771   3.036   1.433   1.575
 3255TIP3    H2 9772   3.148   1.446   1.676
 3256TIP3   OH2 9773   6.063   4.744   4.672
 3256TIP3    H1 9774   6.052   4.809   4.741
 3256TIP3    H2 9775   6.024   4.784   4.594
 3257TIP3   OH2 9776   3.813   3.830   0.141
 3257TIP3    H1 9777   3.851   3.852   0.226
 3257TIP3    H2 9778   3.827   3.736   0.132
 3258TIP3   OH2 9779   4.106   3.288   3.819
 3258TIP3    H1 9780   4.117   3.193   3.814
 3258TIP3    H2 9781   4.092   3.306   3.912
 3259TIP3   OH2 9782   2.722   1.101   4.348
 3259TIP3    H1 9783   2.652   1.114   4.284
 3259TIP3    H2 9784   2.774   1.181   4.343
 3260TIP3   OH2 9785   3.009   1.797   1.556
 3260TIP3    H1 9786   3.035   1.705   1.561
 3260TIP3    H2 9787   3.042   1.827   1.472
 3261TIP3   OH2 9788   4.256   1.353   4.602
 3261TIP3    H1 9789   4.249   1.266   4.563
 3261TIP3    H2 9790   4.340   1.351   4.650
 3262TIP3   OH2 9791   2.917   0.515   0.708
 3262TIP3    H1 9792   2.948   0.600   0.676
 3262TIP3    H2 9793   2.993   0.457   0.698
 3263TIP3   OH2 9794   2.583   3.256   4.463
 3263TIP3    H1 9795   2.518   3.258   4.392
 3263TIP3    H2 9796   2.570   3.171   4.505
 3264TIP3   OH2 9797   5.991   4.451   5.112
 3264TIP3    H1 9798   5.923   4.501   5.067
 3264TIP3    H2 9799   6.040   4.408   5.042
 3265TIP3   OH2 9800   6.116   4.662   0.188
 3265TIP3    H1 9801   6.135   4.755   0.198
 3265TIP3    H2 9802   6.197   4.617   0.212
 3266TIP3   OH2 9803   1.724   4.950   4.937
 3266TIP3    H1 9804   1.704   4.997   5.018
 3266TIP3    H2 9805   1.786   5.006   4.891
 3267TIP3   OH2 9806   3.792   0.861   3.667
 3267TIP3    H1 9807   3.698   0.841   3.660
 3267TIP3    H2 9808   3.822   0.810   3.741
 3268TIP3   OH2 9809   0.274   5.147   3.748
 3268TIP3    H1 9810   0.360   5.183   3.726
 3268TIP3    H2 9811   0.262   5.168   3.840
 3269TIP3   OH2 9812   3.746   5.548   1.944
 3269TIP3    H1 9813   3.682   5.611   1.909
 3269TIP3    H2 9814   3.791   5.515   1.866
 3270TIP3   OH2 9815   0.971   2.955   1.055
 3270TIP3    H1 9816   1.048   3.012   1.046
 3270TIP3    H2 9817   0.962   2.915   0.969
 3271TIP3   OH2 9818   4.267   0.513   4.788
 3271TIP3    H1 9819   4.308   0.445   4.842
 3271TIP3    H2 9820   4.201   0.552   4.845
 3272TIP3   OH2 9821   4.987   3.074   0.057
 3272TIP3    H1 9822   5.008   2.986   0.086
 3272TIP3    H2 9823   4.892   3.077   0.055
 3273TIP3   OH2 9824   3.449   2.095   1.187
 3273TIP3    H1 9825   3.456   2.000   1.191
 3273TIP3    H2 9826   3.411   2.112   1.101
 3274TIP3   OH2 9827   5.687   4.631   3.285
 3274TIP3    H1 9828   5.603   4.671   3.308
 3274TIP3    H2 9829   5.726   4.607   3.369
 3275TIP3   OH2 9830   1.306   5.847   2.081
 3275TIP3    H1 9831   1.338   5.924   2.129
 3275TIP3    H2 9832   1.313   5.872   1.989
 3276TIP3   OH2 9833   1.470   3.755   1.851
 3276TIP3    H1 9834   1.386   3.797   1.831
 3276TIP3    H2 9835   1.479   3.765   1.946
 3277TIP3   OH2 9836   5.903   4.893   5.112
 3277TIP3    H1 9837   5.820   4.935   5.092
 3277TIP3    H2 9838   5.883   4.832   5.184
 3278TIP3   OH2 9839   6.149   1.838   4.850
 3278TIP3    H1 9840   6.069   1.873   4.813
 3278TIP3    H2 9841   6.148   1.867   4.942
 3279TIP3   OH2 9842   5.193   1.285   1.078
 3279TIP3    H1 9843   5.217   1.223   1.010
 3279TIP3    H2 9844   5.118   1.246   1.122
 3280TIP3   OH2 9845   0.969   4.448   3.650
 3280TIP3    H1 9846   1.037   4.382   3.652
 3280TIP3    H2 9847   0.924   4.434   3.567
 3281TIP3   OH2 9848   5.484   1.602   3.364
 3281TIP3    H1 9849   5.490   1.569   3.454
 3281TIP3    H2 9850   5.474   1.697   3.374
 3282TIP3   OH2 9851   2.793   2.420   4.240
 3282TIP3    H1 9852   2.767   2.354   4.303
 3282TIP3    H2 9853   2.713   2.467   4.218
 3283TIP3   OH2 9854   4.381   0.628   1.461
 3283TIP3    H1 9855   4.378   0.601   1.552
 3283TIP3    H2 9856   4.357   0.720   1.462
 3284TIP3   OH2 9857   0.178   2.502   4.804
 3284TIP3    H1 9858   0.208   2.584   4.764
 3284TIP3    H2 9859   0.131   2.530   4.883
 3285TIP3   OH2 9860   4.843   2.781   1.477
 3285TIP3    H1 9861   4.867   2.750   1.564
 3285TIP3    H2 9862   4.785   2.714   1.442
 3286TIP3   OH2 9863   3.292   0.187   1.329
 3286TIP3    H1 9864   3.236   0.132   1.275
 3286TIP3    H2 9865   3.238   0.263   1.350
 3287TIP3   OH2 9866   1.374   4.788   4.814
 3287TIP3    H1 9867   1.377   4.826   4.902
 3287TIP3    H2 9868   1.350   4.697   4.829
 3288TIP3   OH2 9869   2.186   1.934   4.874
 3288TIP3    H1 9870   2.172   1.971   4.786
 3288TIP3    H2 9871   2.187   1.840   4.861
 3289TIP3   OH2 9872   4.602   1.910   1.177
 3289TIP3    H1 9873   4.537   1.849   1.142
 3289TIP3    H2 9874   4.667   1.920   1.107
 3290TIP3   OH2 9875   4.995   1.157   3.019
 3290TIP3    H1 9876   4.916   1.136   3.069
 3290TIP3    H2 9877   4.983   1.247   2.991
 3291TIP3   OH2 9878   1.224   5.297   1.268
 3291TIP3    H1 9879   1.144   5.296   1.215
 3291TIP3    H2 9880   1.265   5.382   1.248
 3292TIP3   OH2 9881   1.828   2.766   0.439
 3292TIP3    H1 9882   1.825   2.707   0.363
 3292TIP3    H2 9883   1.868   2.713   0.508
 3293TIP3   OH2 9884   2.917   1.481   2.443
 3293TIP3    H1 9885   2.836   1.430   2.439
 3293TIP3    H2 9886   2.938   1.500   2.351
 3294TIP3   OH2 9887   6.158   3.275   3.181
 3294TIP3    H1 9888   6.081   3.218   3.176
 3294TIP3    H2 9889   6.205   3.259   3.099
 3295TIP3   OH2 9890  -0.025   1.210   1.065
 3295TIP3    H1 9891   0.071   1.211   1.072
 3295TIP3    H2 9892  -0.051   1.302   1.069
 3296TIP3   OH2 9893   5.178   3.096   0.493
 3296TIP3    H1 9894   5.240   3.124   0.426
 3296TIP3    H2 9895   5.181   3.000   0.490
 3297TIP3   OH2 9896   1.403   0.248   2.897
 3297TIP3    H1 9897   1.435   0.338   2.907
 3297TIP3    H2 9898   1.430   0.222   2.809
 3298TIP3   OH2 9899   5.192   3.528   0.553
 3298TIP3    H1 9900   5.135   3.466   0.507
 3298TIP3    H2 9901   5.272   3.530   0.500
 3299TIP3   OH2 9902   3.135  -0.009   1.192
 3299TIP3    H1 9903   3.170  -0.038   1.108
 3299TIP3    H2 9904   3.041  -0.022   1.185
 3300TIP3   OH2 9905   0.154   3.880   1.844
 3300TIP3    H1 9906   0.082   3.843   1.794
 3300TIP3    H2 9907   0.130   3.862   1.936
 3301TIP3   OH2 9908   3.178   1.065   1.781
 3301TIP3    H1 9909   3.258   1.034   1.738
 3301TIP3    H2 9910   3.110   1.054   1.715
 3302TIP3   OH2 9911   5.797   3.978   1.278
 3302TIP3    H1 9912   5.704   3.991   1.259
 3302TIP3    H2 9913   5.843   4.036   1.217
 3303TIP3   OH2 9914   3.028   2.533   0.180
 3303TIP3    H1 9915   3.072   2.565   0.101
 3303TIP3    H2 9916   2.969   2.604   0.206
 3304TIP3   OH2 9917   0.355   4.192   3.455
 3304TIP3    H1 9918   0.352   4.287   3.444
 3304TIP3    H2 9919   0.274   4.171   3.501
 3305TIP3   OH2 9920   1.972   0.464   4.154
 3305TIP3    H1 9921   1.923   0.520   4.215
 3305TIP3    H2 9922   1.918   0.461   4.075
 3306TIP3   OH2 9923   5.331   5.405   0.325
 3306TIP3    H1 9924   5.288   5.471   0.379
 3306TIP3    H2 9925   5.305   5.426   0.236
 3307TIP3   OH2 9926   4.502   4.487   1.804
 3307TIP3    H1 9927   4.465   4.571   1.834
 3307TIP3    H2 9928   4.442   4.421   1.841
 3308TIP3   OH2 9929   4.421   3.249   0.519
 3308TIP3    H1 9930   4.482   3.219   0.451
 3308TIP3    H2 9931   4.334   3.241   0.479
 3309TIP3   OH2 9932   3.819   1.021   4.192
 3309TIP3    H1 9933   3.848   1.100   4.236
 3309TIP3    H2 9934   3.732   1.043   4.157
 3310TIP3   OH2 9935   2.351   0.747   0.539
 3310TIP3    H1 9936   2.273   0.780   0.495
 3310TIP3    H2 9937   2.384   0.678   0.481
 3311TIP3   OH2 9938   0.261   2.390   3.112
 3311TIP3    H1 9939   0.180   2.341   3.098
 3311TIP3    H2 9940   0.234   2.482   3.112
 3312TIP3   OH2 9941   5.776   4.974   0.543
 3312TIP3    H1 9942   5.839   4.902   0.538
 3312TIP3    H2 9943   5.714   4.948   0.610
 3313TIP3   OH2 9944   5.473   2.381   0.474
 3313TIP3    H1 9945   5.481   2.459   0.420
 3313TIP3    H2 9946   5.504   2.310   0.417
 3314TIP3   OH2 9947   4.701   5.348   2.935
 3314TIP3    H1 9948   4.669   5.302   3.013
 3314TIP3    H2 9949   4.786   5.309   2.917
 3315TIP3   OH2 9950   2.946   2.205   1.868
 3315TIP3    H1 9951   3.001   2.155   1.928
 3315TIP3    H2 9952   2.935   2.148   1.792
 3316TIP3   OH2 9953   3.836   1.843   2.372
 3316TIP3    H1 9954   3.762   1.829   2.431
 3316TIP3    H2 9955   3.800   1.895   2.300
 3317TIP3   OH2 9956   1.463   1.694   0.865
 3317TIP3    H1 9957   1.400   1.627   0.838
 3317TIP3    H2 9958   1.516   1.710   0.787
 3318TIP3   OH2 9959   0.978   4.679   4.856
 3318TIP3    H1 9960   0.960   4.607   4.916
 3318TIP3    H2 9961   1.073   4.690   4.860
 3319TIP3   OH2 9962   3.060   1.563   4.828
 3319TIP3    H1 9963   2.971   1.529   4.844
 3319TIP3    H2 9964   3.089   1.594   4.914
 3320TIP3   OH2 9965   4.527   1.305   2.760
 3320TIP3    H1 9966   4.456   1.257   2.718
 3320TIP3    H2 9967   4.580   1.339   2.688
 3321TIP3   OH2 9968   3.715   2.235   4.504
 3321TIP3    H1 9969   3.645   2.232   4.568
 3321TIP3    H2 9970   3.749   2.145   4.500
 3322TIP3   OH2 9971   2.036   1.122   1.134
 3322TIP3    H1 9972   2.040   1.148   1.042
 3322TIP3    H2 9973   2.013   1.203   1.180
 3323TIP3   OH2 9974   2.554   5.193   1.601
 3323TIP3    H1 9975   2.462   5.208   1.622
 3323TIP3    H2 9976   2.572   5.254   1.529
 3324TIP3   OH2 9977   5.725   1.493   3.771
 3324TIP3    H1 9978   5.773   1.567   3.734
 3324TIP3    H2 9979   5.655   1.475   3.708
 3325TIP3   OH2 9980   2.974   5.169   3.502
 3325TIP3    H1 9981   2.915   5.136   3.434
 3325TIP3    H2 9982   2.941   5.256   3.522
 3326TIP3   OH2 9983   4.321   2.618   1.700
 3326TIP3    H1 9984   4.236   2.573   1.695
 3326TIP3    H2 9985   4.357   2.609   1.612
 3327TIP3   OH2 9986   3.516   0.677   2.654
 3327TIP3    H1 9987   3.564   0.716   2.726
 3327TIP3    H2 9988   3.478   0.752   2.607
 3328TIP3   OH2 9989   4.497   3.288   4.257
 3328TIP3    H1 9990   4.467   3.286   4.348
 3328TIP3    H2 9991   4.452   3.362   4.218
 3329TIP3   OH2 9992   1.115   4.120   0.989
 3329TIP3    H1 9993   1.131   4.068   1.068
 3329TIP3    H2 9994   1.097   4.208   1.021
 3330TIP3   OH2 9995   3.361   3.128   0.700
 3330TIP3    H1 9996   3.407   3.091   0.775
 3330TIP3    H2 9997   3.430   3.146   0.636
 3331TIP3   OH2 9998   3.130   0.502   0.467
 3331TIP3    H1 9999   3.113   0.411   0.494
 3331TIP3    H210000   3.044   0.535   0.440
 3332TIP3   OH210001   1.976   2.183   0.734
 3332TIP3    H110002   1.998   2.169   0.642
 3332TIP3    H210003   1.891   2.227   0.732
 3333TIP3   OH210004   3.247   1.852   4.495
 3333TIP3    H110005   3.302   1.930   4.504
 3333TIP3    H210006   3.214   1.835   4.584
 3334TIP3   OH210007   6.327   5.065   2.598
 3334TIP3    H110008   6.291   5.085   2.512
 3334TIP3    H210009   6.319   4.970   2.606
 3335TIP3   OH210010   1.582   4.741   5.082
 3335TIP3    H110011   1.652   4.711   5.140
 3335TIP3    H210012   1.625   4.801   5.021
 3336TIP3   OH210013   3.567   2.492   3.637
 3336TIP3    H110014   3.538   2.413   3.683
 3336TIP3    H210015   3.491   2.550   3.641
 3337TIP3   OH210016   5.259   5.666   5.164
 3337TIP3    H110017   5.208   5.640   5.088
 3337TIP3    H210018   5.242   5.759   5.174
 3338TIP3   OH210019   3.039   1.677   1.297
 3338TIP3    H110020   3.063   1.585   1.306
 3338TIP3    H210021   3.072   1.702   1.210
 3339TIP3   OH210022   2.338   0.158   1.333
 3339TIP3    H110023   2.367   0.188   1.419
 3339TIP3    H210024   2.373   0.069   1.324
 3340TIP3   OH210025   3.803   4.609   3.531
 3340TIP3    H110026   3.829   4.529   3.484
 3340TIP3    H210027   3.876   4.627   3.590
 3341TIP3   OH210028   1.925   2.481   2.926
 3341TIP3    H110029   1.993   2.437   2.875
 3341TIP3    H210030   1.843   2.458   2.881
 3342TIP3   OH210031   2.584   5.870   1.107
 3342TIP3    H110032   2.597   5.913   1.191
 3342TIP3    H210033   2.532   5.792   1.127
 3343TIP3   OH210034   4.539   3.884   0.736
 3343TIP3    H110035   4.495   3.891   0.820
 3343TIP3    H210036   4.609   3.950   0.740
 3344TIP3   OH210037   5.548   3.885   2.383
 3344TIP3    H110038   5.548   3.792   2.402
 3344TIP3    H210039   5.484   3.896   2.313
 3345TIP3   OH210040   4.715   2.936   0.706
 3345TIP3    H110041   4.679   2.947   0.794
 3345TIP3    H210042   4.717   3.024   0.670
 3346TIP3   OH210043   6.110   5.076   4.547
 3346TIP3    H110044   6.101   5.087   4.452
 3346TIP3    H210045   6.204   5.073   4.561
 3347TIP3   OH210046   2.811   5.698   0.318
 3347TIP3    H110047   2.761   5.773   0.288
 3347TIP3    H210048   2.867   5.675   0.244
 3348TIP3   OH210049   1.926   1.513   2.322
 3348TIP3    H110050   1.855   1.475   2.270
 3348TIP3    H210051   1.953   1.443   2.381
 3349TIP3   OH210052   5.009   4.670   4.652
 3349TIP3    H110053   5.091   4.686   4.605
 3349TIP3    H210054   5.022   4.587   4.697
 3350TIP3   OH210055   5.568   0.843   3.220
 3350TIP3    H110056   5.570   0.899   3.144
 3350TIP3    H210057   5.568   0.754   3.185
 3351TIP3   OH210058   3.691   3.798   4.143
 3351TIP3    H110059   3.750   3.758   4.208
 3351TIP3    H210060   3.676   3.729   4.079
 3352TIP3   OH210061   4.731   2.031   4.674
 3352TIP3    H110062   4.785   1.959   4.706
 3352TIP3    H210063   4.787   2.108   4.681
 3353TIP3   OH210064   0.788   4.222   3.686
 3353TIP3    H110065   0.819   4.310   3.666
 3353TIP3    H210066   0.834   4.165   3.624
 3354TIP3   OH210067   4.657   5.306   0.444
 3354TIP3    H110068   4.738   5.357   0.435
 3354TIP3    H210069   4.629   5.290   0.354
 3355TIP3   OH210070   1.868   1.105   2.305
 3355TIP3    H110071   1.795   1.086   2.246
 3355TIP3    H210072   1.917   1.023   2.309
 3356TIP3   OH210073   2.965   4.336   0.536
 3356TIP3    H110074   2.931   4.316   0.449
 3356TIP3    H210075   2.988   4.251   0.573
 3357TIP3   OH210076   2.239   2.138   3.287
 3357TIP3    H110077   2.205   2.088   3.213
 3357TIP3    H210078   2.273   2.219   3.248
 3358TIP3   OH210079   3.330   1.207   2.997
 3358TIP3    H110080   3.251   1.161   2.969
 3358TIP3    H210081   3.381   1.141   3.045
 3359TIP3   OH210082   2.346   2.715   1.368
 3359TIP3    H110083   2.287   2.781   1.332
 3359TIP3    H210084   2.426   2.762   1.387
 3360TIP3   OH210085   5.166   5.691   3.696
 3360TIP3    H110086   5.152   5.657   3.608
 3360TIP3    H210087   5.194   5.614   3.747
 3361TIP3   OH210088   5.205   0.042   2.969
 3361TIP3    H110089   5.236  -0.031   2.916
 3361TIP3    H210090   5.145   0.002   3.033
 3362TIP3   OH210091   4.531   1.659   0.148
 3362TIP3    H110092   4.605   1.714   0.122
 3362TIP3    H210093   4.510   1.688   0.237
 3363TIP3   OH210094   4.340   2.146   4.731
 3363TIP3    H110095   4.377   2.091   4.801
 3363TIP3    H210096   4.370   2.234   4.751
 3364TIP3   OH210097   2.541   1.145   4.137
 3364TIP3    H110098   2.588   1.177   4.060
 3364TIP3    H210099   2.452   1.178   4.127
 3365TIP3   OH210100   4.970   1.160   1.184
 3365TIP3    H110101   4.900   1.159   1.119
 3365TIP3    H210102   4.932   1.115   1.260
 3366TIP3   OH210103   3.189   0.024   3.690
 3366TIP3    H110104   3.243   0.073   3.628
 3366TIP3    H210105   3.216   0.056   3.776
 3367TIP3   OH210106   5.764   3.983   2.817
 3367TIP3    H110107   5.855   3.965   2.839
 3367TIP3    H210108   5.759   4.079   2.812
 3368TIP3   OH210109   2.449   2.706   2.914
 3368TIP3    H110110   2.483   2.711   3.003
 3368TIP3    H210111   2.450   2.613   2.893
 3369TIP3   OH210112   5.554   3.123   3.294
 3369TIP3    H110113   5.569   3.067   3.370
 3369TIP3    H210114   5.634   3.176   3.288
 3370TIP3   OH210115   3.723   4.417   3.819
 3370TIP3    H110116   3.675   4.366   3.754
 3370TIP3    H210117   3.779   4.353   3.863
 3371TIP3   OH210118   1.528   2.802   4.025
 3371TIP3    H110119   1.578   2.726   3.995
 3371TIP3    H210120   1.543   2.868   3.957
 3372TIP3   OH210121   4.581   4.271   0.720
 3372TIP3    H110122   4.554   4.225   0.641
 3372TIP3    H210123   4.620   4.203   0.775
 3373TIP3   OH210124   5.770   2.928   3.078
 3373TIP3    H110125   5.691   2.968   3.043
 3373TIP3    H210126   5.780   2.847   3.029
 3374TIP3   OH210127   3.333   3.409   2.142
 3374TIP3    H110128   3.387   3.438   2.216
 3374TIP3    H210129   3.314   3.490   2.094
 3375TIP3   OH210130   0.701   4.924   3.154
 3375TIP3    H110131   0.762   4.998   3.147
 3375TIP3    H210132   0.717   4.873   3.074
 3376TIP3   OH210133   1.036   0.410   0.527
 3376TIP3    H110134   1.019   0.473   0.597
 3376TIP3    H210135   1.086   0.340   0.568
 3377TIP3   OH210136   3.659   2.970   4.216
 3377TIP3    H110137   3.632   2.923   4.138
 3377TIP3    H210138   3.751   2.946   4.228
 3378TIP3   OH210139   6.057   3.468   0.724
 3378TIP3    H110140   6.120   3.534   0.696
 3378TIP3    H210141   5.995   3.461   0.651
 3379TIP3   OH210142   2.024   3.175   0.084
 3379TIP3    H110143   1.974   3.201   0.162
 3379TIP3    H210144   2.073   3.253   0.060
 3380TIP3   OH210145   2.467   1.891   3.553
 3380TIP3    H110146   2.441   1.842   3.631
 3380TIP3    H210147   2.416   1.851   3.482
 3381TIP3   OH210148   5.675   3.393   3.627
 3381TIP3    H110149   5.676   3.489   3.623
 3381TIP3    H210150   5.753   3.366   3.579
 3382TIP3   OH210151   1.660   4.289   0.564
 3382TIP3    H110152   1.618   4.248   0.488
 3382TIP3    H210153   1.655   4.224   0.633
 3383TIP3   OH210154   1.721   2.413   0.720
 3383TIP3    H110155   1.678   2.471   0.782
 3383TIP3    H210156   1.655   2.397   0.652
 3384TIP3   OH210157   1.192   1.898   3.419
 3384TIP3    H110158   1.161   1.987   3.433
 3384TIP3    H210159   1.173   1.880   3.326
 3385TIP3   OH210160   3.663   4.786   5.118
 3385TIP3    H110161   3.662   4.880   5.101
 3385TIP3    H210162   3.699   4.777   5.206
 3386TIP3   OH210163   3.106   0.623   1.130
 3386TIP3    H110164   3.112   0.717   1.116
 3386TIP3    H210165   3.013   0.606   1.142
 3387TIP3   OH210166   2.429   0.821   0.122
 3387TIP3    H110167   2.335   0.828   0.137
 3387TIP3    H210168   2.459   0.911   0.109
 3388TIP3   OH210169   5.811   2.779   0.066
 3388TIP3    H110170   5.894   2.825   0.070
 3388TIP3    H210171   5.778   2.780   0.156
 3389TIP3   OH210172   3.680   1.166   3.777
 3389TIP3    H110173   3.682   1.244   3.834
 3389TIP3    H210174   3.626   1.103   3.824
 3390TIP3   OH210175   1.198   0.724   0.759
 3390TIP3    H110176   1.245   0.647   0.728
 3390TIP3    H210177   1.177   0.705   0.850
 3391TIP3   OH210178   4.854   0.080   2.976
 3391TIP3    H110179   4.814   0.002   2.937
 3391TIP3    H210180   4.781   0.129   3.013
 3392TIP3   OH210181   2.161   4.900   4.223
 3392TIP3    H110182   2.155   4.979   4.276
 3392TIP3    H210183   2.074   4.888   4.186
 3393TIP3   OH210184   2.572   0.709   0.948
 3393TIP3    H110185   2.525   0.668   0.876
 3393TIP3    H210186   2.513   0.701   1.023
 3394TIP3   OH210187   4.899   2.556   4.397
 3394TIP3    H110188   4.850   2.509   4.330
 3394TIP3    H210189   4.961   2.611   4.349
 3395TIP3   OH210190   3.544   4.767   0.822
 3395TIP3    H110191   3.613   4.832   0.810
 3395TIP3    H210192   3.515   4.779   0.912
 3396TIP3   OH210193   0.579   4.411   2.516
 3396TIP3    H110194   0.580   4.426   2.422
 3396TIP3    H210195   0.487   4.395   2.537
 3397TIP3   OH210196   1.748   4.002   0.472
 3397TIP3    H110197   1.727   3.924   0.523
 3397TIP3    H210198   1.663   4.034   0.440
 3398TIP3   OH210199   3.596   2.265   3.048
 3398TIP3    H110200   3.538   2.228   3.114
 3398TIP3    H210201   3.684   2.242   3.076
 3399TIP3   OH210202   0.307   1.620   0.721
 3399TIP3    H110203   0.306   1.607   0.816
 3399TIP3    H210204   0.216   1.642   0.699
 3400TIP3   OH210205   3.379   1.200   2.105
 3400TIP3    H110206   3.357   1.261   2.175
 3400TIP3    H210207   3.330   1.120   2.125
 3401TIP3   OH210208   1.868   3.882   3.728
 3401TIP3    H110209   1.814   3.901   3.805
 3401TIP3    H210210   1.817   3.817   3.680
 3402TIP3   OH210211   2.381   0.391   3.473
 3402TIP3    H110212   2.318   0.458   3.450
 3402TIP3    H210213   2.464   0.423   3.438
 3403TIP3   OH210214   5.078   5.958   2.913
 3403TIP3    H110215   5.085   6.025   2.981
 3403TIP3    H210216   5.018   5.996   2.848
 3404TIP3   OH210217   3.328   5.275   4.907
 3404TIP3    H110218   3.357   5.191   4.942
 3404TIP3    H210219   3.321   5.260   4.812
 3405TIP3   OH210220   2.977   3.074   3.720
 3405TIP3    H110221   2.956   3.097   3.629
 3405TIP3    H210222   3.041   3.003   3.713
 3406TIP3   OH210223   2.635   2.114   4.633
 3406TIP3    H110224   2.604   2.078   4.715
 3406TIP3    H210225   2.627   2.209   4.643
 3407TIP3   OH210226   2.870   5.424   3.625
 3407TIP3    H110227   2.882   5.483   3.550
 3407TIP3    H210228   2.894   5.477   3.701
 3408TIP3   OH210229   3.597   0.717   4.448
 3408TIP3    H110230   3.649   0.796   4.463
 3408TIP3    H210231   3.519   0.748   4.404
 3409TIP3   OH210232   4.275   0.295   2.861
 3409TIP3    H110233   4.280   0.202   2.837
 3409TIP3    H210234   4.208   0.331   2.803
 3410TIP3   OH210235   1.451   0.497   4.685
 3410TIP3    H110236   1.356   0.501   4.692
 3410TIP3    H210237   1.467   0.465   4.596
 3411TIP3   OH210238   5.671   2.861   1.514
 3411TIP3    H110239   5.645   2.837   1.603
 3411TIP3    H210240   5.676   2.778   1.467
 3412TIP3   OH210241   3.335   5.530   3.432
 3412TIP3    H110242   3.281   5.563   3.361
 3412TIP3    H210243   3.310   5.438   3.441
 3413TIP3   OH210244   4.031   0.757   4.796
 3413TIP3    H110245   4.076   0.816   4.857
 3413TIP3    H210246   3.946   0.798   4.780
 3414TIP3   OH210247   3.702   2.320   0.096
 3414TIP3    H110248   3.653   2.337   0.176
 3414TIP3    H210249   3.677   2.391   0.037
 3415TIP3   OH210250   3.027   5.246   0.483
 3415TIP3    H110251   3.076   5.186   0.539
 3415TIP3    H210252   3.093   5.290   0.430
 3416TIP3   OH210253   2.910   4.768   2.054
 3416TIP3    H110254   2.922   4.684   2.010
 3416TIP3    H210255   2.971   4.828   2.010
 3417TIP3   OH210256   2.181   2.428   0.438
 3417TIP3    H110257   2.222   2.412   0.524
 3417TIP3    H210258   2.149   2.518   0.443
 3418TIP3   OH210259   0.172   2.867   1.741
 3418TIP3    H110260   0.102   2.803   1.729
 3418TIP3    H210261   0.146   2.941   1.686
 3419TIP3   OH210262   1.498   2.719   3.347
 3419TIP3    H110263   1.490   2.629   3.317
 3419TIP3    H210264   1.550   2.713   3.427
 3420TIP3   OH210265   6.285   2.242   2.815
 3420TIP3    H110266   6.261   2.202   2.898
 3420TIP3    H210267   6.217   2.214   2.754
 3421TIP3   OH210268   4.560   1.451   4.572
 3421TIP3    H110269   4.649   1.445   4.539
 3421TIP3    H210270   4.542   1.545   4.578
 3422TIP3   OH210271   4.007   0.896   4.040
 3422TIP3    H110272   4.007   0.943   3.957
 3422TIP3    H210273   3.926   0.923   4.083
 3423TIP3   OH210274   1.902   1.449   4.336
 3423TIP3    H110275   1.831   1.442   4.400
 3423TIP3    H210276   1.911   1.543   4.320
 3424TIP3   OH210277   0.352   5.581   2.610
 3424TIP3    H110278   0.419   5.620   2.554
 3424TIP3    H210279   0.312   5.513   2.556
 3425TIP3   OH210280   1.967   0.221   4.276
 3425TIP3    H110281   1.988   0.297   4.223
 3425TIP3    H210282   1.896   0.177   4.229
 3426TIP3   OH210283   4.403   1.909   1.376
 3426TIP3    H110284   4.463   1.926   1.303
 3426TIP3    H210285   4.329   1.968   1.360
 3427TIP3   OH210286   4.683   4.519   1.068
 3427TIP3    H110287   4.711   4.609   1.050
 3427TIP3    H210288   4.748   4.486   1.130
 3428TIP3   OH210289   3.954   3.650   1.649
 3428TIP3    H110290   3.964   3.653   1.554
 3428TIP3    H210291   3.906   3.730   1.671
 3429TIP3   OH210292   3.074   0.570   2.603
 3429TIP3    H110293   3.040   0.519   2.676
 3429TIP3    H210294   3.168   0.576   2.619
 3430TIP3   OH210295   3.659   0.826   3.288
 3430TIP3    H110296   3.751   0.801   3.297
 3430TIP3    H210297   3.634   0.855   3.376
 3431TIP3   OH210298   1.322   0.372   2.514
 3431TIP3    H110299   1.409   0.409   2.500
 3431TIP3    H210300   1.339   0.288   2.558
 3432TIP3   OH210301   0.657   4.944   1.838
 3432TIP3    H110302   0.582   4.894   1.804
 3432TIP3    H210303   0.730   4.919   1.781
 3433TIP3   OH210304   5.741   1.241   4.218
 3433TIP3    H110305   5.681   1.168   4.201
 3433TIP3    H210306   5.775   1.263   4.131
 3434TIP3   OH210307   0.462   2.924   2.743
 3434TIP3    H110308   0.490   3.009   2.778
 3434TIP3    H210309   0.441   2.942   2.651
 3435TIP3   OH210310   1.043   5.883   1.610
 3435TIP3    H110311   1.062   5.801   1.565
 3435TIP3    H210312   1.120   5.938   1.594
 3436TIP3   OH210313   4.019   5.068   1.672
 3436TIP3    H110314   4.023   4.985   1.719
 3436TIP3    H210315   4.039   5.045   1.581
 3437TIP3   OH210316   4.547   3.023   0.930
 3437TIP3    H110317   4.516   2.946   0.977
 3437TIP3    H210318   4.480   3.042   0.865
 3438TIP3   OH210319   2.074   0.633   3.146
 3438TIP3    H110320   1.999   0.673   3.189
 3438TIP3    H210321   2.037   0.559   3.098
 3439TIP3   OH210322   0.426   2.459   0.785
 3439TIP3    H110323   0.417   2.521   0.713
 3439TIP3    H210324   0.520   2.439   0.788
 3440TIP3   OH210325   1.823   4.936   1.887
 3440TIP3    H110326   1.736   4.961   1.855
 3440TIP3    H210327   1.840   4.994   1.961
 3441TIP3   OH210328   6.316   4.771   4.948
 3441TIP3    H110329   6.324   4.676   4.937
 3441TIP3    H210330   6.290   4.782   5.040
 3442TIP3   OH210331   4.443   2.526   2.920
 3442TIP3    H110332   4.446   2.570   3.005
 3442TIP3    H210333   4.500   2.450   2.931
 3443TIP3   OH210334   4.234   0.859   5.041
 3443TIP3    H110335   4.278   0.900   4.966
 3443TIP3    H210336   4.151   0.906   5.049
 3444TIP3   OH210337   1.700   4.569   4.764
 3444TIP3    H110338   1.781   4.540   4.807
 3444TIP3    H210339   1.724   4.651   4.722
 3445TIP3   OH210340   2.186   2.052   5.108
 3445TIP3    H110341   2.150   2.141   5.101
 3445TIP3    H210342   2.212   2.030   5.018
 3446TIP3   OH210343   0.432   0.904   4.757
 3446TIP3    H110344   0.515   0.857   4.761
 3446TIP3    H210345   0.378   0.864   4.826
 3447TIP3   OH210346   5.358   2.012   1.052
 3447TIP3    H110347   5.412   2.049   1.121
 3447TIP3    H210348   5.407   1.936   1.020
 3448TIP3   OH210349   5.376   4.030   4.464
 3448TIP3    H110350   5.399   3.937   4.454
 3448TIP3    H210351   5.363   4.061   4.374
 3449TIP3   OH210352   4.037   0.732   2.092
 3449TIP3    H110353   3.947   0.698   2.092
 3449TIP3    H210354   4.027   0.826   2.101
 3450TIP3   OH210355   5.365   1.230   0.836
 3450TIP3    H110356   5.438   1.192   0.789
 3450TIP3    H210357   5.297   1.242   0.770
 3451TIP3   OH210358   0.123   2.268   4.568
 3451TIP3    H110359   0.056   2.271   4.636
 3451TIP3    H210360   0.203   2.242   4.614
 3452TIP3   OH210361   4.453   0.744   1.963
 3452TIP3    H110362   4.543   0.758   1.992
 3452TIP3    H210363   4.422   0.832   1.939
 3453TIP3   OH210364   1.645   3.273   1.101
 3453TIP3    H110365   1.686   3.221   1.170
 3453TIP3    H210366   1.606   3.348   1.146
 3454TIP3   OH210367   1.966   5.742   2.885
 3454TIP3    H110368   1.941   5.834   2.874
 3454TIP3    H210369   2.043   5.731   2.829
 3455TIP3   OH210370   5.473   4.076   2.002
 3455TIP3    H110371   5.527   4.087   1.923
 3455TIP3    H210372   5.536   4.076   2.074
 3456TIP3   OH210373   4.994   4.471   3.308
 3456TIP3    H110374   4.950   4.400   3.355
 3456TIP3    H210375   4.949   4.476   3.224
 3457TIP3   OH210376   1.860   3.115   4.441
 3457TIP3    H110377   1.782   3.080   4.485
 3457TIP3    H210378   1.888   3.045   4.382
 3458TIP3   OH210379   0.103   1.872   0.421
 3458TIP3    H110380   0.170   1.808   0.395
 3458TIP3    H210381   0.131   1.902   0.507
 3459TIP3   OH210382   5.028   1.290   2.460
 3459TIP3    H110383   5.109   1.288   2.409
 3459TIP3    H210384   5.019   1.201   2.494
 3460TIP3   OH210385   0.277   2.863   2.001
 3460TIP3    H110386   0.240   2.844   1.915
 3460TIP3    H210387   0.345   2.928   1.984
 3461TIP3   OH210388   6.137   5.315   0.179
 3461TIP3    H110389   6.042   5.321   0.166
 3461TIP3    H210390   6.171   5.396   0.140
 3462TIP3   OH210391   3.697   0.589   5.101
 3462TIP3    H110392   3.713   0.678   5.133
 3462TIP3    H210393   3.753   0.533   5.155
 3463TIP3   OH210394   3.980   1.062   3.058
 3463TIP3    H110395   4.052   1.000   3.060
 3463TIP3    H210396   3.985   1.107   3.142
 3464TIP3   OH210397   1.337   1.349   2.773
 3464TIP3    H110398   1.346   1.375   2.681
 3464TIP3    H210399   1.427   1.330   2.802
 3465TIP3   OH210400   1.846   5.380   0.278
 3465TIP3    H110401   1.813   5.324   0.348
 3465TIP3    H210402   1.939   5.394   0.299
 3466TIP3   OH210403   2.885   3.346   0.619
 3466TIP3    H110404   2.896   3.251   0.624
 3466TIP3    H210405   2.815   3.359   0.554
 3467TIP3   OH210406   5.868   5.727   3.645
 3467TIP3    H110407   5.940   5.664   3.640
 3467TIP3    H210408   5.906   5.805   3.684
 3468TIP3   OH210409   3.060   5.530   4.340
 3468TIP3    H110410   3.072   5.528   4.245
 3468TIP3    H210411   2.966   5.541   4.352
 3469TIP3   OH210412   3.242   4.651   3.956
 3469TIP3    H110413   3.310   4.616   4.013
 3469TIP3    H210414   3.257   4.609   3.872
 3470TIP3   OH210415   3.481   4.205   2.002
 3470TIP3    H110416   3.408   4.151   2.031
 3470TIP3    H210417   3.549   4.190   2.067
 3471TIP3   OH210418   1.657   0.886   1.027
 3471TIP3    H110419   1.718   0.949   0.988
 3471TIP3    H210420   1.577   0.894   0.975
 3472TIP3   OH210421   0.509   3.064   0.972
 3472TIP3    H110422   0.457   3.004   0.918
 3472TIP3    H210423   0.568   3.007   1.021
 3473TIP3   OH210424   5.630   0.382   0.520
 3473TIP3    H110425   5.575   0.305   0.508
 3473TIP3    H210426   5.677   0.391   0.437
 3474TIP3   OH210427   3.491   0.482   1.307
 3474TIP3    H110428   3.481   0.443   1.220
 3474TIP3    H210429   3.448   0.567   1.300
 3475TIP3   OH210430   2.867   1.361   0.997
 3475TIP3    H110431   2.957   1.379   0.971
 3475TIP3    H210432   2.815   1.424   0.947
 3476TIP3   OH210433   1.899   1.222   1.720
 3476TIP3    H110434   1.939   1.174   1.647
 3476TIP3    H210435   1.861   1.153   1.775
 3477TIP3   OH210436   2.441   5.265   2.579
 3477TIP3    H110437   2.469   5.174   2.573
 3477TIP3    H210438   2.485   5.309   2.506
 3478TIP3   OH210439   3.926   3.970   2.675
 3478TIP3    H110440   3.893   3.892   2.720
 3478TIP3    H210441   3.985   3.936   2.608
 3479TIP3   OH210442   6.217   5.316   1.908
 3479TIP3    H110443   6.178   5.241   1.952
 3479TIP3    H210444   6.305   5.324   1.946
 3480TIP3   OH210445   3.916   0.942   0.675
 3480TIP3    H110446   3.844   0.899   0.630
 3480TIP3    H210447   3.902   1.036   0.661
 3481TIP3   OH210448   4.481   0.589   5.024
 3481TIP3    H110449   4.567   0.617   4.995
 3481TIP3    H210450   4.484   0.494   5.024
 3482TIP3   OH210451   4.849   4.697   1.977
 3482TIP3    H110452   4.941   4.674   1.965
 3482TIP3    H210453   4.841   4.719   2.070
 3483TIP3   OH210454   5.748   1.423   0.016
 3483TIP3    H110455   5.792   1.476   0.083
 3483TIP3    H210456   5.812   1.415  -0.054
 3484TIP3   OH210457   4.755   2.663   3.740
 3484TIP3    H110458   4.700   2.654   3.663
 3484TIP3    H210459   4.806   2.743   3.724
 3485TIP3   OH210460   2.956   0.010   4.219
 3485TIP3    H110461   2.876   0.024   4.269
 3485TIP3    H210462   2.999   0.096   4.218
 3486TIP3   OH210463   0.286   3.346   4.540
 3486TIP3    H110464   0.276   3.438   4.566
 3486TIP3    H210465   0.365   3.345   4.486
 3487TIP3   OH210466   1.421   2.250   1.287
 3487TIP3    H110467   1.359   2.317   1.258
 3487TIP3    H210468   1.491   2.253   1.222
 3488TIP3   OH210469   0.272   5.612   1.609
 3488TIP3    H110470   0.181   5.583   1.609
 3488TIP3    H210471   0.304   5.589   1.697
 3489TIP3   OH210472   2.649   0.457   0.193
 3489TIP3    H110473   2.644   0.396   0.120
 3489TIP3    H210474   2.655   0.401   0.270
 3490TIP3   OH210475   0.750   2.249   0.538
 3490TIP3    H110476   0.766   2.163   0.577
 3490TIP3    H210477   0.817   2.258   0.471
 3491TIP3   OH210478   5.865   0.300   5.019
 3491TIP3    H110479   5.900   0.303   5.108
 3491TIP3    H210480   5.908   0.225   4.978
 3492TIP3   OH210481   2.103   5.566   0.952
 3492TIP3    H110482   2.143   5.510   0.886
 3492TIP3    H210483   2.040   5.509   0.997
 3493TIP3   OH210484   2.471   3.464   3.253
 3493TIP3    H110485   2.411   3.425   3.189
 3493TIP3    H210486   2.558   3.446   3.218
 3494TIP3   OH210487   0.557   5.898   3.748
 3494TIP3    H110488   0.492   5.915   3.680
 3494TIP3    H210489   0.608   5.979   3.753
 3495TIP3   OH210490   1.581   3.183   3.229
 3495TIP3    H110491   1.508   3.129   3.258
 3495TIP3    H210492   1.656   3.124   3.227
 3496TIP3   OH210493   0.500   1.867   2.071
 3496TIP3    H110494   0.522   1.778   2.046
 3496TIP3    H210495   0.495   1.915   1.988
 3497TIP3   OH210496   2.550   1.544   3.971
 3497TIP3    H110497   2.607   1.481   4.015
 3497TIP3    H210498   2.462   1.509   3.983
 3498TIP3   OH210499   3.392   3.125   2.364
 3498TIP3    H110500   3.425   3.042   2.400
 3498TIP3    H210501   3.446   3.142   2.287
 3499TIP3   OH210502   3.522   3.672   0.962
 3499TIP3    H110503   3.434   3.669   1.001
 3499TIP3    H210504   3.569   3.737   1.014
 3500TIP3   OH210505   4.246   2.648   2.774
 3500TIP3    H110506   4.312   2.610   2.832
 3500TIP3    H210507   4.291   2.657   2.690
 3501TIP3   OH210508   3.705   3.212   3.117
 3501TIP3    H110509   3.797   3.185   3.123
 3501TIP3    H210510   3.672   3.168   3.039
 3502TIP3   OH210511   5.422   3.700   2.923
 3502TIP3    H110512   5.357   3.692   2.993
 3502TIP3    H210513   5.477   3.623   2.933
 3503TIP3   OH210514   3.208   5.564   0.598
 3503TIP3    H110515   3.115   5.578   0.583
 3503TIP3    H210516   3.238   5.642   0.645
 3504TIP3   OH210517   3.199   5.948   4.985
 3504TIP3    H110518   3.141   6.012   4.944
 3504TIP3    H210519   3.160   5.933   5.071
 3505TIP3   OH210520   4.140   3.337   0.830
 3505TIP3    H110521   4.087   3.364   0.906
 3505TIP3    H210522   4.197   3.411   0.813
 3506TIP3   OH210523   1.509   1.816   0.512
 3506TIP3    H110524   1.528   1.754   0.442
 3506TIP3    H210525   1.418   1.841   0.498
 3507TIP3   OH210526   0.075   2.412   0.081
 3507TIP3    H110527   0.039   2.331   0.046
 3507TIP3    H210528   0.101   2.390   0.171
 3508TIP3   OH210529  -0.012   0.981   1.353
 3508TIP3    H110530  -0.016   0.904   1.409
 3508TIP3    H210531   0.072   0.973   1.308
 3509TIP3   OH210532   4.249   5.075   3.283
 3509TIP3    H110533   4.305   5.063   3.207
 3509TIP3    H210534   4.190   5.147   3.259
 3510TIP3   OH210535   5.512   0.442   1.271
 3510TIP3    H110536   5.440   0.488   1.314
 3510TIP3    H210537   5.557   0.397   1.342
 3511TIP3   OH210538   1.653   2.228   3.808
 3511TIP3    H110539   1.718   2.293   3.835
 3511TIP3    H210540   1.623   2.188   3.890
 3512TIP3   OH210541   3.271   3.570   4.258
 3512TIP3    H110542   3.259   3.582   4.352
 3512TIP3    H210543   3.334   3.638   4.233
 3513TIP3   OH210544   1.349   5.717   2.383
 3513TIP3    H110545   1.416   5.727   2.315
 3513TIP3    H210546   1.298   5.642   2.355
 3514TIP3   OH210547   2.047   1.492   1.439
 3514TIP3    H110548   2.118   1.449   1.487
 3514TIP3    H210549   1.979   1.426   1.433
 3515TIP3   OH210550   0.879   3.539   2.084
 3515TIP3    H110551   0.909   3.610   2.141
 3515TIP3    H210552   0.795   3.569   2.051
 3516TIP3   OH210553   2.815   0.235   3.480
 3516TIP3    H110554   2.884   0.258   3.417
 3516TIP3    H210555   2.753   0.309   3.475
 3517TIP3   OH210556   4.497   5.854   3.802
 3517TIP3    H110557   4.559   5.893   3.863
 3517TIP3    H210558   4.492   5.917   3.729
 3518TIP3   OH210559   3.648   5.600   2.453
 3518TIP3    H110560   3.669   5.509   2.429
 3518TIP3    H210561   3.731   5.636   2.485
 3519TIP3   OH210562   5.034   2.264   0.871
 3519TIP3    H110563   4.993   2.304   0.948
 3519TIP3    H210564   5.003   2.318   0.798
 3520TIP3   OH210565   2.205   1.014   2.058
 3520TIP3    H110566   2.165   0.985   1.976
 3520TIP3    H210567   2.286   0.964   2.065
 3521TIP3   OH210568   5.088   5.464   4.416
 3521TIP3    H110569   5.079   5.456   4.322
 3521TIP3    H210570   5.123   5.552   4.429
 3522TIP3   OH210571   2.954   5.279   1.576
 3522TIP3    H110572   3.012   5.207   1.603
 3522TIP3    H210573   2.869   5.237   1.565
 3523TIP3   OH210574   5.780   2.789   0.935
 3523TIP3    H110575   5.754   2.790   1.027
 3523TIP3    H210576   5.865   2.834   0.934
 3524TIP3   OH210577   5.364   2.096   4.143
 3524TIP3    H110578   5.455   2.068   4.132
 3524TIP3    H210579   5.326   2.085   4.056
 3525TIP3   OH210580   4.422   2.721   3.109
 3525TIP3    H110581   4.476   2.673   3.172
 3525TIP3    H210582   4.447   2.812   3.120
 3526TIP3   OH210583   2.990   4.185   0.761
 3526TIP3    H110584   3.073   4.139   0.749
 3526TIP3    H210585   2.924   4.116   0.756
 3527TIP3   OH210586   0.431   2.093   0.803
 3527TIP3    H110587   0.422   2.098   0.898
 3527TIP3    H210588   0.510   2.144   0.784
 3528TIP3   OH210589   4.295   0.951   1.857
 3528TIP3    H110590   4.211   0.906   1.867
 3528TIP3    H210591   4.274   1.043   1.870
 3529TIP3   OH210592   4.359   2.061   2.890
 3529TIP3    H110593   4.305   1.999   2.841
 3529TIP3    H210594   4.440   2.014   2.908
 3530TIP3   OH210595   1.211   0.510  -0.004
 3530TIP3    H110596   1.186   0.503   0.089
 3530TIP3    H210597   1.131   0.489  -0.051
 3531TIP3   OH210598   5.604   0.056   2.842
 3531TIP3    H110599   5.537   0.123   2.858
 3531TIP3    H210600   5.559  -0.011   2.791
 3532TIP3   OH210601   1.651   3.635   4.500
 3532TIP3    H110602   1.739   3.666   4.479
 3532TIP3    H210603   1.660   3.540   4.505
 3533TIP3   OH210604   5.534   5.707   2.312
 3533TIP3    H110605   5.463   5.726   2.250
 3533TIP3    H210606   5.528   5.612   2.326
 3534TIP3   OH210607   0.586   3.143   2.520
 3534TIP3    H110608   0.661   3.154   2.579
 3534TIP3    H210609   0.624   3.105   2.441
 3535TIP3   OH210610   2.390   2.662   1.828
 3535TIP3    H110611   2.333   2.738   1.816
 3535TIP3    H210612   2.342   2.606   1.890
 3536TIP3   OH210613   0.891   1.272   5.048
 3536TIP3    H110614   0.829   1.343   5.031
 3536TIP3    H210615   0.907   1.233   4.962
 3537TIP3   OH210616   0.937   4.320   2.544
 3537TIP3    H110617   0.929   4.227   2.523
 3537TIP3    H210618   1.021   4.328   2.589
 3538TIP3   OH210619   0.010   1.642   5.062
 3538TIP3    H110620   0.103   1.664   5.074
 3538TIP3    H210621  -0.037   1.720   5.091
 3539TIP3   OH210622   1.876   1.705   5.014
 3539TIP3    H110623   1.826   1.646   4.957
 3539TIP3    H210624   1.871   1.790   4.970
 3540TIP3   OH210625   3.331   4.492   1.708
 3540TIP3    H110626   3.356   4.572   1.662
 3540TIP3    H210627   3.292   4.436   1.641
 3541TIP3   OH210628   1.991   3.219   3.353
 3541TIP3    H110629   1.995   3.306   3.313
 3541TIP3    H210630   2.063   3.218   3.416
 3542TIP3   OH210631   5.587   0.159   4.969
 3542TIP3    H110632   5.517   0.093   4.963
 3542TIP3    H210633   5.545   0.236   5.008
 3543TIP3   OH210634   5.304   2.770   2.822
 3543TIP3    H110635   5.307   2.736   2.911
 3543TIP3    H210636   5.296   2.865   2.832
 3544TIP3   OH210637   3.119   4.400   1.328
 3544TIP3    H110638   3.145   4.341   1.398
 3544TIP3    H210639   3.024   4.401   1.332
 3545TIP3   OH210640   1.211   0.454   4.314
 3545TIP3    H110641   1.210   0.487   4.404
 3545TIP3    H210642   1.150   0.511   4.266
 3546TIP3   OH210643   2.369   0.513   3.114
 3546TIP3    H110644   2.275   0.513   3.134
 3546TIP3    H210645   2.389   0.604   3.095
 3547TIP3   OH210646   5.800   4.984   3.591
 3547TIP3    H110647   5.741   4.942   3.653
 3547TIP3    H210648   5.801   4.926   3.515
 3548TIP3   OH210649   4.035   1.957   3.640
 3548TIP3    H110650   4.038   1.862   3.650
 3548TIP3    H210651   4.044   1.991   3.729
 3549TIP3   OH210652   5.307   5.215   3.689
 3549TIP3    H110653   5.232   5.174   3.646
 3549TIP3    H210654   5.360   5.250   3.618
 3550TIP3   OH210655   5.189   0.294   1.701
 3550TIP3    H110656   5.140   0.281   1.782
 3550TIP3    H210657   5.262   0.350   1.726
 3551TIP3   OH210658   5.046   3.420   0.816
 3551TIP3    H110659   4.994   3.427   0.736
 3551TIP3    H210660   5.098   3.501   0.818
 3552TIP3   OH210661   4.310   1.539   5.020
 3552TIP3    H110662   4.278   1.625   4.994
 3552TIP3    H210663   4.230   1.486   5.029
 3553TIP3   OH210664   5.411   1.987   2.107
 3553TIP3    H110665   5.369   1.932   2.174
 3553TIP3    H210666   5.502   1.956   2.106
 3554TIP3   OH210667   1.780   1.426   4.062
 3554TIP3    H110668   1.861   1.396   4.102
 3554TIP3    H210669   1.711   1.395   4.121
 3555TIP3   OH210670   2.045   4.597   0.303
 3555TIP3    H110671   2.064   4.528   0.240
 3555TIP3    H210672   2.053   4.555   0.389
 3556TIP3   OH210673   1.279   1.256   0.617
 3556TIP3    H110674   1.200   1.282   0.569
 3556TIP3    H210675   1.343   1.237   0.549
 3557TIP3   OH210676   6.320   5.565   2.093
 3557TIP3    H110677   6.292   5.581   2.003
 3557TIP3    H210678   6.329   5.470   2.100
 3558TIP3   OH210679   2.069   4.433   4.887
 3558TIP3    H110680   2.071   4.405   4.796
 3558TIP3    H210681   1.995   4.387   4.925
 3559TIP3   OH210682   6.052   2.593   3.096
 3559TIP3    H110683   6.078   2.682   3.073
 3559TIP3    H210684   6.032   2.552   3.013
 3560TIP3   OH210685   4.897   2.929   4.144
 3560TIP3    H110686   4.979   2.962   4.108
 3560TIP3    H210687   4.853   3.007   4.179
 3561TIP3   OH210688   4.337   3.730   3.509
 3561TIP3    H110689   4.242   3.734   3.496
 3561TIP3    H210690   4.361   3.641   3.482
 3562TIP3   OH210691   6.042   1.706   0.062
 3562TIP3    H110692   6.102   1.743   0.128
 3562TIP3    H210693   6.100   1.672  -0.006
 3563TIP3   OH210694   0.664   1.485   1.645
 3563TIP3    H110695   0.753   1.453   1.656
 3563TIP3    H210696   0.670   1.552   1.577
 3564TIP3   OH210697   3.657   2.819   0.868
 3564TIP3    H110698   3.700   2.840   0.784
 3564TIP3    H210699   3.706   2.744   0.901
 3565TIP3   OH210700   2.188   5.760   1.248
 3565TIP3    H110701   2.107   5.744   1.199
 3565TIP3    H210702   2.223   5.840   1.211
 3566TIP3   OH210703   6.178   2.409   1.569
 3566TIP3    H110704   6.188   2.424   1.663
 3566TIP3    H210705   6.250   2.351   1.546
 3567TIP3   OH210706   1.573   4.641   0.866
 3567TIP3    H110707   1.652   4.612   0.821
 3567TIP3    H210708   1.593   4.630   0.959
 3568TIP3   OH210709   0.496   4.499   1.641
 3568TIP3    H110710   0.504   4.405   1.629
 3568TIP3    H210711   0.444   4.529   1.566
 3569TIP3   OH210712   1.714   1.207   1.162
 3569TIP3    H110713   1.795   1.195   1.113
 3569TIP3    H210714   1.681   1.118   1.175
 3570TIP3   OH210715   0.820   4.909   2.845
 3570TIP3    H110716   0.831   5.003   2.834
 3570TIP3    H210717   0.905   4.872   2.821
 3571TIP3   OH210718   1.824   5.347   4.964
 3571TIP3    H110719   1.795   5.292   5.037
 3571TIP3    H210720   1.868   5.286   4.905
 3572TIP3   OH210721   3.537   2.035   2.857
 3572TIP3    H110722   3.507   2.122   2.884
 3572TIP3    H210723   3.504   1.977   2.925
 3573TIP3   OH210724   5.385   5.451   3.111
 3573TIP3    H110725   5.470   5.438   3.152
 3573TIP3    H210726   5.356   5.537   3.141
 3574TIP3   OH210727   2.896   4.460   0.787
 3574TIP3    H110728   2.930   4.372   0.770
 3574TIP3    H210729   2.847   4.482   0.708
 3575TIP3   OH210730   2.101   3.236   1.948
 3575TIP3    H110731   2.188   3.245   1.987
 3575TIP3    H210732   2.048   3.199   2.019
 3576TIP3   OH210733   1.657   0.236   2.248
 3576TIP3    H110734   1.702   0.319   2.230
 3576TIP3    H210735   1.569   0.249   2.212
 3577TIP3   OH210736   2.261   2.939   0.821
 3577TIP3    H110737   2.240   2.854   0.862
 3577TIP3    H210738   2.177   2.968   0.784
 3578TIP3   OH210739   3.555   0.161   4.813
 3578TIP3    H110740   3.572   0.128   4.725
 3578TIP3    H210741   3.576   0.087   4.870
 3579TIP3   OH210742   5.577   4.408   4.772
 3579TIP3    H110743   5.556   4.339   4.835
 3579TIP3    H210744   5.516   4.479   4.793
 3580TIP3   OH210745   2.104   2.289   4.071
 3580TIP3    H110746   2.055   2.224   4.121
 3580TIP3    H210747   2.194   2.257   4.072
 3581TIP3   OH210748   6.238   1.197   2.846
 3581TIP3    H110749   6.322   1.211   2.803
 3581TIP3    H210750   6.260   1.183   2.938
 3582TIP3   OH210751   3.547   3.583   5.075
 3582TIP3    H110752   3.466   3.546   5.110
 3582TIP3    H210753   3.554   3.545   4.987
 3583TIP3   OH210754   3.525   3.439   1.732
 3583TIP3    H110755   3.559   3.508   1.789
 3583TIP3    H210756   3.478   3.487   1.663
 3584TIP3   OH210757   4.600   3.674   2.879
 3584TIP3    H110758   4.509   3.643   2.877
 3584TIP3    H210759   4.613   3.703   2.970
 3585TIP3   OH210760   1.425   2.724   2.938
 3585TIP3    H110761   1.503   2.722   2.994
 3585TIP3    H210762   1.459   2.744   2.851
 3586TIP3   OH210763   2.067   0.856   0.390
 3586TIP3    H110764   2.051   0.908   0.469
 3586TIP3    H210765   2.026   0.772   0.407
 3587TIP3   OH210766   0.788   3.182   2.725
 3587TIP3    H110767   0.843   3.214   2.796
 3587TIP3    H210768   0.806   3.089   2.720
 3588TIP3   OH210769   6.336   3.316   1.659
 3588TIP3    H110770   6.385   3.380   1.712
 3588TIP3    H210771   6.263   3.367   1.622
 3589TIP3   OH210772   4.056   1.764   1.446
 3589TIP3    H110773   3.985   1.825   1.424
 3589TIP3    H210774   4.063   1.708   1.369
 3590TIP3   OH210775   4.766   1.922   1.414
 3590TIP3    H110776   4.735   1.864   1.484
 3590TIP3    H210777   4.693   1.926   1.352
 3591TIP3   OH210778   0.806   5.530   0.362
 3591TIP3    H110779   0.846   5.617   0.365
 3591TIP3    H210780   0.725   5.542   0.312
 3592TIP3   OH210781   5.009   5.339   0.668
 3592TIP3    H110782   5.015   5.263   0.610
 3592TIP3    H210783   5.099   5.357   0.694
 3593TIP3   OH210784   5.575   4.528   1.595
 3593TIP3    H110785   5.552   4.442   1.560
 3593TIP3    H210786   5.591   4.583   1.518
 3594TIP3   OH210787   3.317   2.614   3.644
 3594TIP3    H110788   3.258   2.565   3.702
 3594TIP3    H210789   3.324   2.700   3.685
 3595TIP3   OH210790   4.720   0.793   5.082
 3595TIP3    H110791   4.754   0.711   5.046
 3595TIP3    H210792   4.797   0.837   5.119
 3596TIP3   OH210793   4.144   3.643   1.863
 3596TIP3    H110794   4.074   3.645   1.797
 3596TIP3    H210795   4.189   3.727   1.853
 3597TIP3   OH210796   5.658   4.529   3.787
 3597TIP3    H110797   5.714   4.560   3.857
 3597TIP3    H210798   5.687   4.440   3.770
 3598TIP3   OH210799   4.630   0.402   0.871
 3598TIP3    H110800   4.680   0.326   0.901
 3598TIP3    H210801   4.568   0.366   0.807
 3599TIP3   OH210802   0.076   5.219   1.026
 3599TIP3    H110803   0.009   5.281   0.997
 3599TIP3    H210804   0.133   5.209   0.950
 3600TIP3   OH210805   5.978   4.791   1.536
 3600TIP3    H110806   5.935   4.851   1.596
 3600TIP3    H210807   6.038   4.846   1.485
 3601TIP3   OH210808   0.450   3.778   1.869
 3601TIP3    H110809   0.411   3.823   1.944
 3601TIP3    H210810   0.388   3.790   1.798
 3602TIP3   OH210811   0.213   4.249   1.531
 3602TIP3    H110812   0.171   4.312   1.589
 3602TIP3    H210813   0.213   4.292   1.445
 3603TIP3   OH210814   3.193   1.509  -0.025
 3603TIP3    H110815   3.179   1.477   0.064
 3603TIP3    H210816   3.274   1.560  -0.019
 3604TIP3   OH210817   1.539   3.064   2.506
 3604TIP3    H110818   1.519   2.986   2.454
 3604TIP3    H210819   1.632   3.056   2.527
 3605TIP3   OH210820   1.406   5.188   1.487
 3605TIP3    H110821   1.331   5.203   1.430
 3605TIP3    H210822   1.464   5.262   1.470
 3606TIP3   OH210823   0.416   0.372   2.317
 3606TIP3    H110824   0.394   0.303   2.380
 3606TIP3    H210825   0.509   0.388   2.331
 3607TIP3   OH210826   2.169   3.921   1.228
 3607TIP3    H110827   2.202   3.979   1.160
 3607TIP3    H210828   2.076   3.909   1.207
 3608TIP3   OH210829   5.807   1.574   1.226
 3608TIP3    H110830   5.793   1.542   1.137
 3608TIP3    H210831   5.736   1.534   1.277
 3609TIP3   OH210832   2.022   0.144   1.285
 3609TIP3    H110833   2.023   0.212   1.353
 3609TIP3    H210834   2.089   0.172   1.222
 3610TIP3   OH210835   3.421   5.700   0.985
 3610TIP3    H110836   3.340   5.665   1.022
 3610TIP3    H210837   3.396   5.729   0.897
 3611TIP3   OH210838   1.981   1.841   1.207
 3611TIP3    H110839   1.941   1.768   1.253
 3611TIP3    H210840   1.910   1.906   1.199
 3612TIP3   OH210841   2.615   4.994   4.111
 3612TIP3    H110842   2.667   4.914   4.113
 3612TIP3    H210843   2.536   4.972   4.162
 3613TIP3   OH210844   5.370   3.265   0.966
 3613TIP3    H110845   5.382   3.228   1.054
 3613TIP3    H210846   5.301   3.211   0.927
 3614TIP3   OH210847   4.824   0.276   3.916
 3614TIP3    H110848   4.795   0.343   3.978
 3614TIP3    H210849   4.920   0.283   3.917
 3615TIP3   OH210850   5.281   5.901   0.856
 3615TIP3    H110851   5.367   5.926   0.888
 3615TIP3    H210852   5.236   5.865   0.932
 3616TIP3   OH210853   2.702   0.016   4.017
 3616TIP3    H110854   2.742   0.093   3.978
 3616TIP3    H210855   2.765  -0.055   4.000
 3617TIP3   OH210856   4.189   4.937   2.832
 3617TIP3    H110857   4.168   5.030   2.842
 3617TIP3    H210858   4.126   4.905   2.768
 3618TIP3   OH210859   4.245   3.257   1.356
 3618TIP3    H110860   4.216   3.166   1.367
 3618TIP3    H210861   4.225   3.299   1.439
 3619TIP3   OH210862   3.230   4.883   2.378
 3619TIP3    H110863   3.314   4.923   2.401
 3619TIP3    H210864   3.166   4.953   2.389
 3620TIP3   OH210865   1.031   5.127   0.187
 3620TIP3    H110866   1.103   5.190   0.187
 3620TIP3    H210867   1.022   5.101   0.095
 3621TIP3   OH210868   0.778   5.902   1.079
 3621TIP3    H110869   0.735   5.951   1.009
 3621TIP3    H210870   0.728   5.821   1.087
 3622TIP3   OH210871   2.804   3.199   2.063
 3622TIP3    H110872   2.862   3.236   1.996
 3622TIP3    H210873   2.817   3.104   2.055
 3623TIP3   OH210874   4.035   4.314   2.164
 3623TIP3    H110875   3.956   4.363   2.184
 3623TIP3    H210876   4.107   4.376   2.178
 3624TIP3   OH210877   6.315   3.487   5.071
 3624TIP3    H110878   6.249   3.480   5.003
 3624TIP3    H210879   6.398   3.467   5.027
 3625TIP3   OH210880   5.573   5.287   2.663
 3625TIP3    H110881   5.484   5.261   2.639
 3625TIP3    H210882   5.564   5.321   2.752
 3626TIP3   OH210883   2.646   5.923   0.242
 3626TIP3    H110884   2.669   5.974   0.319
 3626TIP3    H210885   2.586   5.979   0.193
 3627TIP3   OH210886   4.476  -0.001   3.756
 3627TIP3    H110887   4.433   0.065   3.809
 3627TIP3    H210888   4.568   0.024   3.756
 3628TIP3   OH210889   1.825   1.517   4.812
 3628TIP3    H110890   1.834   1.441   4.870
 3628TIP3    H210891   1.803   1.479   4.727
 3629TIP3   OH210892   1.629   1.861   1.455
 3629TIP3    H110893   1.715   1.819   1.447
 3629TIP3    H210894   1.647   1.955   1.450
 3630TIP3   OH210895   0.308   1.419   4.703
 3630TIP3    H110896   0.216   1.414   4.730
 3630TIP3    H210897   0.308   1.386   4.613
 3631TIP3   OH210898   1.935   2.336   3.484
 3631TIP3    H110899   1.913   2.395   3.412
 3631TIP3    H210900   1.858   2.339   3.541
 3632TIP3   OH210901   2.697   5.480   4.019
 3632TIP3    H110902   2.732   5.491   3.931
 3632TIP3    H210903   2.724   5.392   4.045
 3633TIP3   OH210904   1.211   3.804   4.287
 3633TIP3    H110905   1.239   3.878   4.233
 3633TIP3    H210906   1.116   3.798   4.271
 3634TIP3   OH210907   5.546   1.146   1.641
 3634TIP3    H110908   5.554   1.109   1.553
 3634TIP3    H210909   5.505   1.232   1.627
 3635TIP3   OH210910   0.141   0.653   3.109
 3635TIP3    H110911   0.081   0.579   3.095
 3635TIP3    H210912   0.214   0.615   3.158
 3636TIP3   OH210913   4.243   4.610   1.662
 3636TIP3    H110914   4.209   4.601   1.573
 3636TIP3    H210915   4.229   4.524   1.702
 3637TIP3   OH210916   2.749   1.622   0.595
 3637TIP3    H110917   2.806   1.668   0.534
 3637TIP3    H210918   2.717   1.547   0.545
 3638TIP3   OH210919   6.170   4.086   2.407
 3638TIP3    H110920   6.076   4.101   2.418
 3638TIP3    H210921   6.200   4.062   2.494
 3639TIP3   OH210922   4.841   0.736   2.836
 3639TIP3    H110923   4.916   0.742   2.776
 3639TIP3    H210924   4.852   0.810   2.895
 3640TIP3   OH210925   5.009   0.047   3.199
 3640TIP3    H110926   4.948   0.043   3.272
 3640TIP3    H210927   4.958   0.082   3.126
 3641TIP3   OH210928   1.774   2.573   1.292
 3641TIP3    H110929   1.728   2.516   1.354
 3641TIP3    H210930   1.838   2.515   1.250
 3642TIP3   OH210931   1.365   4.229   0.151
 3642TIP3    H110932   1.288   4.198   0.103
 3642TIP3    H210933   1.359   4.324   0.148
 3643TIP3   OH210934   5.116   4.786   4.303
 3643TIP3    H110935   5.093   4.730   4.377
 3643TIP3    H210936   5.045   4.772   4.240
 3644TIP3   OH210937   1.042   3.761   2.791
 3644TIP3    H110938   1.124   3.787   2.749
 3644TIP3    H210939   1.044   3.806   2.876
 3645TIP3   OH210940   0.342   1.180   5.132
 3645TIP3    H110941   0.381   1.095   5.153
 3645TIP3    H210942   0.300   1.168   5.047
 3646TIP3   OH210943   1.638   2.508   4.098
 3646TIP3    H110944   1.582   2.477   4.170
 3646TIP3    H210945   1.601   2.468   4.020
 3647TIP3   OH210946   1.548   5.585   0.399
 3647TIP3    H110947   1.516   5.500   0.370
 3647TIP3    H210948   1.604   5.567   0.474
 3648TIP3   OH210949   3.393   2.586   4.463
 3648TIP3    H110950   3.382   2.544   4.378
 3648TIP3    H210951   3.445   2.664   4.445
 3649TIP3   OH210952   4.534   2.083   4.182
 3649TIP3    H110953   4.561   2.095   4.273
 3649TIP3    H210954   4.438   2.082   4.186
 3650TIP3   OH210955   4.779   4.305   1.612
 3650TIP3    H110956   4.805   4.352   1.691
 3650TIP3    H210957   4.696   4.345   1.586
 3651TIP3   OH210958   5.400   2.630   0.438
 3651TIP3    H110959   5.310   2.638   0.470
 3651TIP3    H210960   5.404   2.687   0.361
 3652TIP3   OH210961   1.397   2.364   4.138
 3652TIP3    H110962   1.412   2.376   4.232
 3652TIP3    H210963   1.330   2.429   4.116
 3653TIP3   OH210964   5.529   4.364   0.212
 3653TIP3    H110965   5.493   4.293   0.159
 3653TIP3    H210966   5.612   4.387   0.169
 3654TIP3   OH210967   2.396   2.280   4.796
 3654TIP3    H110968   2.335   2.313   4.861
 3654TIP3    H210969   2.398   2.348   4.729
 3655TIP3   OH210970   2.120   4.207   2.502
 3655TIP3    H110971   2.215   4.199   2.490
 3655TIP3    H210972   2.111   4.271   2.573
 3656TIP3   OH210973   5.924   1.861   1.588
 3656TIP3    H110974   5.971   1.929   1.636
 3656TIP3    H210975   5.831   1.880   1.604
 3657TIP3   OH210976   4.574   3.214   3.204
 3657TIP3    H110977   4.580   3.249   3.115
 3657TIP3    H210978   4.495   3.255   3.240
 3658TIP3   OH210979   2.541   2.816   4.969
 3658TIP3    H110980   2.523   2.882   4.901
 3658TIP3    H210981   2.554   2.867   5.049
 3659TIP3   OH210982   5.533   0.975   0.276
 3659TIP3    H110983   5.609   0.959   0.332
 3659TIP3    H210984   5.459   0.975   0.336
 3660TIP3   OH210985   5.818   3.999   0.292
 3660TIP3    H110986   5.821   4.084   0.337
 3660TIP3    H210987   5.725   3.984   0.276
 3661TIP3   OH210988   5.768   4.285   3.817
 3661TIP3    H110989   5.806   4.217   3.763
 3661TIP3    H210990   5.824   4.288   3.895
 3662TIP3   OH210991   6.024   1.430   4.090
 3662TIP3    H110992   6.115   1.401   4.100
 3662TIP3    H210993   5.990   1.378   4.018
 3663TIP3   OH210994   5.043   1.995   3.240
 3663TIP3    H110995   5.092   2.076   3.254
 3663TIP3    H210996   4.959   2.010   3.283
 3664TIP3   OH210997   4.752   3.179   2.458
 3664TIP3    H110998   4.766   3.085   2.465
 3664TIP3    H210999   4.679   3.189   2.397
 3665TIP3   OH211000   4.446   2.667   1.453
 3665TIP3    H111001   4.531   2.634   1.480
 3665TIP3    H211002   4.443   2.756   1.486
 3666TIP3   OH211003   2.514   5.866   0.585
 3666TIP3    H111004   2.582   5.918   0.540
 3666TIP3    H211005   2.556   5.838   0.666
 3667TIP3   OH211006   2.283   0.965   0.778
 3667TIP3    H111007   2.309   0.969   0.870
 3667TIP3    H211008   2.332   0.891   0.742
 3668TIP3   OH211009   4.312   2.086   0.776
 3668TIP3    H111010   4.348   2.169   0.745
 3668TIP3    H211011   4.337   2.082   0.868
 3669TIP3   OH211012   4.277   3.725   0.713
 3669TIP3    H111013   4.308   3.647   0.758
 3669TIP3    H211014   4.357   3.772   0.689
 3670TIP3   OH211015   4.420   4.051   2.416
 3670TIP3    H111016   4.336   4.096   2.405
 3670TIP3    H211017   4.485   4.112   2.381
 3671TIP3   OH211018   4.444   1.737   4.207
 3671TIP3    H111019   4.396   1.664   4.247
 3671TIP3    H211020   4.523   1.747   4.260
 3672TIP3   OH211021   1.419   2.822   3.709
 3672TIP3    H111022   1.510   2.802   3.686
 3672TIP3    H211023   1.376   2.736   3.711
 3673TIP3   OH211024   0.801   5.186   5.173
 3673TIP3    H111025   0.737   5.241   5.217
 3673TIP3    H211026   0.876   5.244   5.158
 3674TIP3   OH211027   4.327   4.112   2.867
 3674TIP3    H111028   4.338   4.192   2.917
 3674TIP3    H211029   4.300   4.046   2.931
 3675TIP3   OH211030   5.763   3.641   4.081
 3675TIP3    H111031   5.827   3.673   4.145
 3675TIP3    H211032   5.691   3.608   4.134
 3676TIP3   OH211033   6.125   3.055   2.840
 3676TIP3    H111034   6.084   2.979   2.797
 3676TIP3    H211035   6.167   3.102   2.768
 3677TIP3   OH211036   5.339   3.504   5.076
 3677TIP3    H111037   5.384   3.510   5.160
 3677TIP3    H211038   5.377   3.574   5.023
 3678TIP3   OH211039   5.708   4.576   5.035
 3678TIP3    H111040   5.621   4.613   5.023
 3678TIP3    H211041   5.754   4.596   4.953
 3679TIP3   OH211042   5.154   2.777   1.800
 3679TIP3    H111043   5.227   2.719   1.777
 3679TIP3    H211044   5.159   2.786   1.895
 3680TIP3   OH211045   2.850   5.758   4.944
 3680TIP3    H111046   2.862   5.701   5.020
 3680TIP3    H211047   2.884   5.707   4.870
 3681TIP3   OH211048   1.677   2.952   3.535
 3681TIP3    H111049   1.667   2.858   3.520
 3681TIP3    H211050   1.628   2.994   3.465
 3682TIP3   OH211051   1.635   1.334   2.755
 3682TIP3    H111052   1.693   1.258   2.750
 3682TIP3    H211053   1.694   1.409   2.750
 3683TIP3   OH211054   1.418   0.140   2.650
 3683TIP3    H111055   1.341   0.083   2.643
 3683TIP3    H211056   1.471   0.118   2.574
 3684TIP3   OH211057   1.054   1.599   2.385
 3684TIP3    H111058   0.981   1.560   2.432
 3684TIP3    H211059   1.080   1.533   2.321
 3685TIP3   OH211060   5.323   0.435   4.909
 3685TIP3    H111061   5.369   0.416   4.990
 3685TIP3    H211062   5.350   0.365   4.849
 3686TIP3   OH211063   3.587   2.073   4.243
 3686TIP3    H111064   3.626   1.995   4.204
 3686TIP3    H211065   3.567   2.129   4.167
 3687TIP3   OH211066   6.215   2.569   3.834
 3687TIP3    H111067   6.142   2.626   3.858
 3687TIP3    H211068   6.253   2.612   3.756
 3688TIP3   OH211069   0.649   5.397   0.911
 3688TIP3    H111070   0.662   5.468   0.847
 3688TIP3    H211071   0.656   5.317   0.860
 3689TIP3   OH211072   5.148   2.738   4.970
 3689TIP3    H111073   5.112   2.686   4.899
 3689TIP3    H211074   5.105   2.823   4.961
 3690TIP3   OH211075   3.667   2.950   1.749
 3690TIP3    H111076   3.631   3.001   1.821
 3690TIP3    H211077   3.611   2.971   1.674
 3691TIP3   OH211078   4.158   4.233   3.154
 3691TIP3    H111079   4.152   4.173   3.228
 3691TIP3    H211080   4.120   4.315   3.187
 3692TIP3   OH211081   5.014   3.252   3.703
 3692TIP3    H111082   4.943   3.202   3.743
 3692TIP3    H211083   5.093   3.203   3.727
 3693TIP3   OH211084   5.032   2.321   3.927
 3693TIP3    H111085   4.951   2.364   3.902
 3693TIP3    H211086   5.101   2.382   3.901
 3694TIP3   OH211087   2.119   2.312   4.876
 3694TIP3    H111088   2.090   2.329   4.966
 3694TIP3    H211089   2.046   2.341   4.822
 3695TIP3   OH211090   0.558   1.302   3.677
 3695TIP3    H111091   0.651   1.285   3.692
 3695TIP3    H211092   0.555   1.392   3.645
 3696TIP3   OH211093   5.631   5.172   1.755
 3696TIP3    H111094   5.678   5.236   1.702
 3696TIP3    H211095   5.661   5.188   1.845
 3697TIP3   OH211096   3.083   3.846   2.430
 3697TIP3    H111097   3.176   3.840   2.449
 3697TIP3    H211098   3.068   3.781   2.361
 3698TIP3   OH211099   1.945   1.683   0.794
 3698TIP3    H111100   1.865   1.702   0.842
 3698TIP3    H211101   1.960   1.589   0.807
 3699TIP3   OH211102   3.807   3.003   3.445
 3699TIP3    H111103   3.800   2.923   3.497
 3699TIP3    H211104   3.764   2.982   3.362
 3700TIP3   OH211105   0.799   2.133   5.100
 3700TIP3    H111106   0.745   2.194   5.150
 3700TIP3    H211107   0.754   2.049   5.109
 3701TIP3   OH211108   2.514   4.870   3.816
 3701TIP3    H111109   2.604   4.895   3.795
 3701TIP3    H211110   2.521   4.817   3.895
 3702TIP3   OH211111   1.404   2.383   3.452
 3702TIP3    H111112   1.439   2.426   3.374
 3702TIP3    H211113   1.321   2.344   3.423
 3703TIP3   OH211114   4.525   3.052   4.489
 3703TIP3    H111115   4.590   3.121   4.500
 3703TIP3    H211116   4.570   2.984   4.439
 3704TIP3   OH211117   0.811   4.316   2.002
 3704TIP3    H111118   0.724   4.276   1.997
 3704TIP3    H211119   0.799   4.404   1.967
 3705TIP3   OH211120   4.122   1.133   2.720
 3705TIP3    H111121   4.205   1.113   2.677
 3705TIP3    H211122   4.075   1.189   2.658
 3706TIP3   OH211123   1.811   3.191   1.337
 3706TIP3    H111124   1.890   3.160   1.382
 3706TIP3    H211125   1.795   3.278   1.373
 3707TIP3   OH211126   3.804   3.716   4.432
 3707TIP3    H111127   3.840   3.673   4.509
 3707TIP3    H211128   3.731   3.768   4.465
 3708TIP3   OH211129   4.596   4.001   4.394
 3708TIP3    H111130   4.679   4.041   4.423
 3708TIP3    H211131   4.597   4.009   4.299
 3709TIP3   OH211132   3.492   1.399   4.217
 3709TIP3    H111133   3.479   1.463   4.146
 3709TIP3    H211134   3.415   1.342   4.212
 3710TIP3   OH211135   4.062   4.480   4.050
 3710TIP3    H111136   3.973   4.496   4.017
 3710TIP3    H211137   4.111   4.449   3.973
 3711TIP3   OH211138   3.769   2.088   1.783
 3711TIP3    H111139   3.757   2.177   1.748
 3711TIP3    H211140   3.817   2.100   1.865
 3712TIP3   OH211141   3.638   2.287   3.932
 3712TIP3    H111142   3.593   2.264   3.851
 3712TIP3    H211143   3.586   2.360   3.968
 3713TIP3   OH211144   5.492   3.786   4.424
 3713TIP3    H111145   5.564   3.737   4.463
 3713TIP3    H211146   5.488   3.756   4.333
 3714TIP3   OH211147   4.218   0.462   4.311
 3714TIP3    H111148   4.156   0.399   4.347
 3714TIP3    H211149   4.259   0.502   4.388
 3715TIP3   OH211150   0.251   3.529   3.181
 3715TIP3    H111151   0.253   3.601   3.245
 3715TIP3    H211152   0.158   3.513   3.166
 3716TIP3   OH211153   6.222   2.985   4.653
 3716TIP3    H111154   6.251   3.072   4.679
 3716TIP3    H211155   6.301   2.930   4.658
 3717TIP3   OH211156   3.721   5.440   4.876
 3717TIP3    H111157   3.660   5.411   4.808
 3717TIP3    H211158   3.730   5.534   4.861
 3718TIP3   OH211159   4.068   4.698   5.070
 3718TIP3    H111160   4.059   4.783   5.112
 3718TIP3    H211161   4.003   4.699   4.999
 3719TIP3   OH211162   1.261   1.530   1.651
 3719TIP3    H111163   1.271   1.455   1.710
 3719TIP3    H211164   1.330   1.519   1.586
 3720TIP3   OH211165   2.549   2.570   3.458
 3720TIP3    H111166   2.517   2.526   3.379
 3720TIP3    H211167   2.524   2.662   3.446
 3721TIP3   OH211168   0.363   2.604   2.409
 3721TIP3    H111169   0.342   2.586   2.317
 3721TIP3    H211170   0.278   2.609   2.452
 3722TIP3   OH211171   6.308   5.834   1.847
 3722TIP3    H111172   6.289   5.861   1.757
 3722TIP3    H211173   6.256   5.754   1.859
 3723TIP3   OH211174   2.950   2.392   0.977
 3723TIP3    H111175   3.044   2.399   0.958
 3723TIP3    H211176   2.944   2.400   1.072
 3724TIP3   OH211177   0.715   0.875   4.890
 3724TIP3    H111178   0.716   0.871   4.986
 3724TIP3    H211179   0.704   0.968   4.870
 3725TIP3   OH211180   2.197   3.128   3.163
 3725TIP3    H111181   2.286   3.095   3.160
 3725TIP3    H211182   2.193   3.181   3.242
 3726TIP3   OH211183   4.660   4.854   4.601
 3726TIP3    H111184   4.703   4.769   4.590
 3726TIP3    H211185   4.650   4.888   4.512
 3727TIP3   OH211186   2.506   2.311   1.096
 3727TIP3    H111187   2.550   2.320   1.181
 3727TIP3    H211188   2.575   2.329   1.032
 3728TIP3   OH211189   4.095   5.309   0.895
 3728TIP3    H111190   4.080   5.322   0.802
 3728TIP3    H211191   4.135   5.391   0.925
 3729TIP3   OH211192   1.571   2.131   0.630
 3729TIP3    H111193   1.548   2.134   0.537
 3729TIP3    H211194   1.524   2.055   0.664
 3730TIP3   OH211195   4.160   0.410   0.343
 3730TIP3    H111196   4.121   0.497   0.349
 3730TIP3    H211197   4.238   0.423   0.288
 3731TIP3   OH211198   2.664   5.942   4.438
 3731TIP3    H111199   2.588   5.918   4.491
 3731TIP3    H211200   2.738   5.899   4.481
 3732TIP3   OH211201   1.002   2.768   0.513
 3732TIP3    H111202   1.087   2.809   0.504
 3732TIP3    H211203   1.002   2.697   0.448
 3733TIP3   OH211204   2.097   1.864   0.943
 3733TIP3    H111205   2.039   1.794   0.915
 3733TIP3    H211206   2.075   1.880   1.034
 3734TIP3   OH211207   4.782   3.726   4.035
 3734TIP3    H111208   4.738   3.730   3.951
 3734TIP3    H211209   4.848   3.658   4.024
 3735TIP3   OH211210   5.889   0.746   0.529
 3735TIP3    H111211   5.859   0.695   0.604
 3735TIP3    H211212   5.929   0.824   0.568
 3736TIP3   OH211213   3.513   0.485   1.600
 3736TIP3    H111214   3.587   0.493   1.660
 3736TIP3    H211215   3.547   0.516   1.516
 3737TIP3   OH211216   6.246   0.219   4.232
 3737TIP3    H111217   6.292   0.302   4.220
 3737TIP3    H211218   6.307   0.152   4.202
 3738TIP3   OH211219   6.243   2.733   0.951
 3738TIP3    H111220   6.217   2.794   0.882
 3738TIP3    H211221   6.318   2.775   0.993
 3739TIP3   OH211222   2.496   4.525   3.379
 3739TIP3    H111223   2.425   4.497   3.322
 3739TIP3    H211224   2.541   4.443   3.403
 3740TIP3   OH211225   4.004   0.671   0.342
 3740TIP3    H111226   4.088   0.701   0.307
 3740TIP3    H211227   3.960   0.630   0.268
 3741TIP3   OH211228   5.048   0.661   4.029
 3741TIP3    H111229   5.038   0.753   4.006
 3741TIP3    H211230   5.138   0.639   4.004
 3742TIP3   OH211231   0.541   4.734   2.636
 3742TIP3    H111232   0.592   4.708   2.713
 3742TIP3    H211233   0.601   4.721   2.562
 3743TIP3   OH211234   3.623   5.964   0.599
 3743TIP3    H111235   3.602   5.871   0.603
 3743TIP3    H211236   3.717   5.968   0.613
 3744TIP3   OH211237   6.233   2.906   0.693
 3744TIP3    H111238   6.239   2.824   0.644
 3744TIP3    H211239   6.143   2.908   0.726
 3745TIP3   OH211240   4.541   2.374   4.145
 3745TIP3    H111241   4.494   2.307   4.194
 3745TIP3    H211242   4.533   2.347   4.053
 3746TIP3   OH211243   2.008   5.715   0.461
 3746TIP3    H111244   2.097   5.747   0.443
 3746TIP3    H211245   2.018   5.620   0.470
 3747TIP3   OH211246   5.818   4.324   0.160
 3747TIP3    H111247   5.880   4.372   0.106
 3747TIP3    H211248   5.852   4.333   0.249
 3748TIP3   OH211249   0.097   3.200   1.225
 3748TIP3    H111250   0.180   3.239   1.250
 3748TIP3    H211251   0.034   3.272   1.232
 3749TIP3   OH211252   1.365   3.351   4.457
 3749TIP3    H111253   1.352   3.389   4.370
 3749TIP3    H211254   1.457   3.323   4.457
 3750TIP3   OH211255   2.520   5.634   4.388
 3750TIP3    H111256   2.581   5.660   4.319
 3750TIP3    H211257   2.462   5.709   4.398
 3751TIP3   OH211258   1.141   2.250   0.643
 3751TIP3    H111259   1.142   2.189   0.716
 3751TIP3    H211260   1.054   2.290   0.646
 3752TIP3   OH211261   0.830   2.634   4.443
 3752TIP3    H111262   0.860   2.704   4.501
 3752TIP3    H211263   0.795   2.567   4.502
 3753TIP3   OH211264   0.731   2.980   2.070
 3753TIP3    H111265   0.747   3.014   2.158
 3753TIP3    H211266   0.684   2.898   2.084
 3754TIP3   OH211267   3.204   2.676   4.647
 3754TIP3    H111268   3.287   2.636   4.621
 3754TIP3    H211269   3.146   2.662   4.572
 3755TIP3   OH211270   5.725   0.501   4.698
 3755TIP3    H111271   5.799   0.450   4.730
 3755TIP3    H211272   5.755   0.592   4.701
 3756TIP3   OH211273   1.944   0.792   2.785
 3756TIP3    H111274   1.995   0.849   2.728
 3756TIP3    H211275   1.933   0.711   2.735
 3757TIP3   OH211276   3.810   1.374   0.200
 3757TIP3    H111277   3.825   1.284   0.230
 3757TIP3    H211278   3.856   1.380   0.117
 3758TIP3   OH211279   0.214   5.166   1.753
 3758TIP3    H111280   0.122   5.157   1.728
 3758TIP3    H211281   0.211   5.212   1.837
 3759TIP3   OH211282   2.213   5.883   0.397
 3759TIP3    H111283   2.198   5.976   0.376
 3759TIP3    H211284   2.295   5.884   0.448
 3760TIP3   OH211285   5.218   3.513   2.059
 3760TIP3    H111286   5.300   3.484   2.098
 3760TIP3    H211287   5.164   3.540   2.134
 3761TIP3   OH211288   3.770   4.040   4.615
 3761TIP3    H111289   3.729   4.069   4.697
 3761TIP3    H211290   3.731   4.095   4.548
 3762TIP3   OH211291   4.688   0.748   3.637
 3762TIP3    H111292   4.718   0.724   3.549
 3762TIP3    H211293   4.614   0.690   3.654
 3763TIP3   OH211294   3.271   5.319   2.630
 3763TIP3    H111295   3.214   5.247   2.659
 3763TIP3    H211296   3.357   5.279   2.622
 3764TIP3   OH211297   0.621   4.592   4.810
 3764TIP3    H111298   0.658   4.674   4.845
 3764TIP3    H211299   0.539   4.580   4.858
 3765TIP3   OH211300   5.739   0.277   3.878
 3765TIP3    H111301   5.802   0.290   3.806
 3765TIP3    H211302   5.709   0.365   3.900
 3766TIP3   OH211303   0.016   2.991   2.213
 3766TIP3    H111304   0.045   3.071   2.258
 3766TIP3    H211305   0.027   3.010   2.120
 3767TIP3   OH211306   4.886   1.528   1.093
 3767TIP3    H111307   4.881   1.592   1.022
 3767TIP3    H211308   4.980   1.522   1.112
 3768TIP3   OH211309   2.015   0.478   4.916
 3768TIP3    H111310   1.969   0.561   4.927
 3768TIP3    H211311   1.946   0.412   4.920
 3769TIP3   OH211312   0.440   0.305   0.434
 3769TIP3    H111313   0.519   0.357   0.448
 3769TIP3    H211314   0.443   0.281   0.342
 3770TIP3   OH211315   6.161   5.751   0.724
 3770TIP3    H111316   6.224   5.749   0.796
 3770TIP3    H211317   6.183   5.676   0.670
 3771TIP3   OH211318   1.744   5.750   0.319
 3771TIP3    H111319   1.814   5.686   0.306
 3771TIP3    H211320   1.666   5.697   0.335
 3772TIP3   OH211321   3.785   2.057   5.195
 3772TIP3    H111322   3.829   2.142   5.188
 3772TIP3    H211323   3.739   2.061   5.279
 3773TIP3   OH211324   4.592   1.868   5.081
 3773TIP3    H111325   4.508   1.906   5.105
 3773TIP3    H211326   4.587   1.777   5.110
 3774TIP3   OH211327   3.259   4.010   4.530
 3774TIP3    H111328   3.348   4.002   4.564
 3774TIP3    H211329   3.241   4.104   4.532
 3775TIP3   OH211330   2.484   1.776   3.810
 3775TIP3    H111331   2.513   1.694   3.850
 3775TIP3    H211332   2.565   1.821   3.785
 3776TIP3   OH211333   1.004   5.487   1.491
 3776TIP3    H111334   1.095   5.479   1.464
 3776TIP3    H211335   0.955   5.436   1.425
 3777TIP3   OH211336   3.204   4.303   3.558
 3777TIP3    H111337   3.275   4.365   3.539
 3777TIP3    H211338   3.126   4.344   3.520
 3778TIP3   OH211339   5.248   3.623   3.107
 3778TIP3    H111340   5.306   3.608   3.182
 3778TIP3    H211341   5.161   3.601   3.140
 3779TIP3   OH211342   1.930   5.474   1.838
 3779TIP3    H111343   1.892   5.391   1.811
 3779TIP3    H211344   2.017   5.452   1.872
 3780TIP3   OH211345   1.194   3.542   0.997
 3780TIP3    H111346   1.239   3.589   0.927
 3780TIP3    H211347   1.158   3.464   0.955
 3781TIP3   OH211348   2.092   0.538   0.527
 3781TIP3    H111349   2.006   0.580   0.534
 3781TIP3    H211350   2.096   0.508   0.436
 3782TIP3   OH211351   5.980   4.794   1.113
 3782TIP3    H111352   5.963   4.796   1.019
 3782TIP3    H211353   6.062   4.842   1.124
 3783TIP3   OH211354   1.485   1.061   0.880
 3783TIP3    H111355   1.426   1.100   0.945
 3783TIP3    H211356   1.521   1.136   0.833
 3784TIP3   OH211357   5.441   5.288   0.560
 3784TIP3    H111358   5.385   5.309   0.635
 3784TIP3    H211359   5.384   5.298   0.484
 3785TIP3   OH211360   2.233   3.378   4.112
 3785TIP3    H111361   2.148   3.359   4.152
 3785TIP3    H211362   2.211   3.428   4.033
 3786TIP3   OH211363   4.298   2.352   4.999
 3786TIP3    H111364   4.264   2.430   5.042
 3786TIP3    H211365   4.328   2.383   4.914
 3787TIP3   OH211366   1.788   3.633   0.428
 3787TIP3    H111367   1.761   3.613   0.338
 3787TIP3    H211368   1.716   3.684   0.464
 3788TIP3   OH211369   3.927   4.621   1.056
 3788TIP3    H111370   3.877   4.543   1.082
 3788TIP3    H211371   3.968   4.596   0.973
 3789TIP3   OH211372   1.460   2.464   3.893
 3789TIP3    H111373   1.442   2.371   3.880
 3789TIP3    H211374   1.416   2.507   3.820
 3790TIP3   OH211375   1.814   3.034   0.464
 3790TIP3    H111376   1.806   2.951   0.416
 3790TIP3    H211377   1.755   3.025   0.538
 3791TIP3   OH211378   2.469   1.824   1.424
 3791TIP3    H111379   2.509   1.748   1.382
 3791TIP3    H211380   2.380   1.827   1.388
 3792TIP3   OH211381   3.331   2.396   0.143
 3792TIP3    H111382   3.255   2.349   0.109
 3792TIP3    H211383   3.401   2.331   0.145
 3793TIP3   OH211384   4.366   5.907   1.716
 3793TIP3    H111385   4.435   5.878   1.776
 3793TIP3    H211386   4.313   5.967   1.768
 3794TIP3   OH211387   0.612   3.597   2.233
 3794TIP3    H111388   0.551   3.543   2.282
 3794TIP3    H211389   0.574   3.604   2.145
 3795TIP3   OH211390   3.986   3.216   0.642
 3795TIP3    H111391   4.026   3.281   0.699
 3795TIP3    H211392   3.985   3.136   0.695
 3796TIP3   OH211393   3.020   3.029   2.826
 3796TIP3    H111394   3.086   3.080   2.874
 3796TIP3    H211395   3.069   2.953   2.793
 3797TIP3   OH211396   2.235   4.927   1.442
 3797TIP3    H111397   2.167   4.936   1.508
 3797TIP3    H211398   2.242   5.014   1.403
 3798TIP3   OH211399   1.314   4.640   0.400
 3798TIP3    H111400   1.221   4.621   0.399
 3798TIP3    H211401   1.352   4.574   0.458
 3799TIP3   OH211402   6.239   1.863   4.089
 3799TIP3    H111403   6.299   1.934   4.115
 3799TIP3    H211404   6.153   1.895   4.114
 3800TIP3   OH211405   4.777   2.715   3.230
 3800TIP3    H111406   4.778   2.629   3.187
 3800TIP3    H211407   4.729   2.700   3.311
 3801TIP3   OH211408   4.304   0.072   4.454
 3801TIP3    H111409   4.292   0.158   4.494
 3801TIP3    H211410   4.302   0.011   4.528
 3802TIP3   OH211411   3.766   0.185   4.452
 3802TIP3    H111412   3.716   0.267   4.458
 3802TIP3    H211413   3.717   0.122   4.505
 3803TIP3   OH211414   3.546  -0.028   3.022
 3803TIP3    H111415   3.624   0.017   3.057
 3803TIP3    H211416   3.500   0.040   2.973
 3804TIP3   OH211417   2.710   1.889   3.748
 3804TIP3    H111418   2.776   1.877   3.679
 3804TIP3    H211419   2.724   1.979   3.778
 3805TIP3   OH211420   2.856   2.027   3.309
 3805TIP3    H111421   2.767   2.028   3.343
 3805TIP3    H211422   2.864   2.109   3.259
 3806TIP3   OH211423   3.608   3.124   1.442
 3806TIP3    H111424   3.661   3.094   1.368
 3806TIP3    H211425   3.518   3.107   1.415
 3807TIP3   OH211426   2.763   3.268   3.738
 3807TIP3    H111427   2.805   3.186   3.763
 3807TIP3    H211428   2.677   3.265   3.781
 3808TIP3   OH211429   2.426   3.594   2.480
 3808TIP3    H111430   2.521   3.585   2.492
 3808TIP3    H211431   2.417   3.635   2.394
 3809TIP3   OH211432   1.855   3.622   4.733
 3809TIP3    H111433   1.892   3.543   4.695
 3809TIP3    H211434   1.921   3.690   4.717
 3810TIP3   OH211435   6.058   0.126   4.885
 3810TIP3    H111436   6.108   0.065   4.939
 3810TIP3    H211437   6.035   0.075   4.807
 3811TIP3   OH211438   0.307   2.313   4.967
 3811TIP3    H111439   0.282   2.370   4.894
 3811TIP3    H211440   0.224   2.284   5.004
 3812TIP3   OH211441   2.637   1.461   1.703
 3812TIP3    H111442   2.687   1.530   1.746
 3812TIP3    H211443   2.559   1.450   1.757
 3813TIP3   OH211444   4.867   1.856   0.370
 3813TIP3    H111445   4.806   1.865   0.297
 3813TIP3    H211446   4.811   1.854   0.448
 3814TIP3   OH211447   3.047   2.975   1.707
 3814TIP3    H111448   3.005   2.890   1.697
 3814TIP3    H211449   2.981   3.030   1.750
 3815TIP3   OH211450   0.316   0.814   2.450
 3815TIP3    H111451   0.239   0.799   2.505
 3815TIP3    H211452   0.372   0.872   2.501
 3816TIP3   OH211453   0.415   2.637   3.135
 3816TIP3    H111454   0.429   2.547   3.105
 3816TIP3    H211455   0.467   2.690   3.075
 3817TIP3   OH211456   5.382   5.315   3.438
 3817TIP3    H111457   5.296   5.345   3.408
 3817TIP3    H211458   5.410   5.253   3.371
 3818TIP3   OH211459   5.466   4.701   5.061
 3818TIP3    H111460   5.380   4.697   5.018
 3818TIP3    H211461   5.474   4.793   5.088
 3819TIP3   OH211462   3.394   4.525   3.549
 3819TIP3    H111463   3.426   4.613   3.533
 3819TIP3    H211464   3.418   4.505   3.639
 3820TIP3   OH211465   1.756   3.477   1.792
 3820TIP3    H111466   1.769   3.562   1.835
 3820TIP3    H211467   1.665   3.455   1.812
 3821TIP3   OH211468   4.524   2.274   0.683
 3821TIP3    H111469   4.584   2.288   0.756
 3821TIP3    H211470   4.529   2.355   0.632
 3822TIP3   OH211471   3.611   1.347   5.009
 3822TIP3    H111472   3.705   1.355   4.991
 3822TIP3    H211473   3.582   1.437   5.026
 3823TIP3   OH211474   4.044   4.219   2.778
 3823TIP3    H111475   4.131   4.181   2.787
 3823TIP3    H211476   3.984   4.146   2.792
 3824TIP3   OH211477   5.751   4.012   2.496
 3824TIP3    H111478   5.748   3.988   2.588
 3824TIP3    H211479   5.686   3.957   2.454
 3825TIP3   OH211480   2.515   4.701   2.049
 3825TIP3    H111481   2.451   4.665   2.109
 3825TIP3    H211482   2.573   4.627   2.028
 3826TIP3   OH211483   5.562   5.074   1.201
 3826TIP3    H111484   5.518   5.092   1.284
 3826TIP3    H211485   5.585   5.161   1.167
 3827TIP3   OH211486   5.536   1.373   0.993
 3827TIP3    H111487   5.488   1.328   0.924
 3827TIP3    H211488   5.477   1.442   1.022
 3828TIP3   OH211489   5.783   0.958   0.407
 3828TIP3    H111490   5.790   0.875   0.453
 3828TIP3    H211491   5.845   1.016   0.452
 3829TIP3   OH211492   4.375   0.370   2.313
 3829TIP3    H111493   4.464   0.405   2.319
 3829TIP3    H211494   4.349   0.388   2.222
 3830TIP3   OH211495   1.823   1.257   3.122
 3830TIP3    H111496   1.855   1.223   3.039
 3830TIP3    H211497   1.731   1.231   3.124
 3831TIP3   OH211498   5.770   0.089   4.740
 3831TIP3    H111499   5.760   0.131   4.654
 3831TIP3    H211500   5.716   0.142   4.798
 3832TIP3   OH211501   4.142   5.385   4.301
 3832TIP3    H111502   4.066   5.389   4.243
 3832TIP3    H211503   4.183   5.300   4.282
 3833TIP3   OH211504   3.065   5.886   0.282
 3833TIP3    H111505   3.018   5.848   0.207
 3833TIP3    H211506   3.157   5.867   0.265
 3834TIP3   OH211507   5.512   0.482   3.609
 3834TIP3    H111508   5.580   0.460   3.545
 3834TIP3    H211509   5.489   0.573   3.589
 3835TIP3   OH211510   3.613   1.841   4.577
 3835TIP3    H111511   3.554   1.916   4.569
 3835TIP3    H211512   3.571   1.783   4.640
 3836TIP3   OH211513   0.404   1.620   2.322
 3836TIP3    H111514   0.411   1.534   2.280
 3836TIP3    H211515   0.477   1.622   2.384
 3837TIP3   OH211516   3.328   1.634   3.630
 3837TIP3    H111517   3.273   1.674   3.698
 3837TIP3    H211518   3.270   1.571   3.587
 3838TIP3   OH211519   4.085   1.706   3.773
 3838TIP3    H111520   4.131   1.622   3.769
 3838TIP3    H211521   4.154   1.771   3.776
 3839TIP3   OH211522   2.205   5.520   4.348
 3839TIP3    H111523   2.294   5.488   4.332
 3839TIP3    H211524   2.201   5.602   4.298
 3840TIP3   OH211525   2.542   4.271   4.087
 3840TIP3    H111526   2.531   4.335   4.158
 3840TIP3    H211527   2.513   4.188   4.124
 3841TIP3   OH211528   5.233   3.419   1.296
 3841TIP3    H111529   5.256   3.357   1.227
 3841TIP3    H211530   5.238   3.368   1.377
 3842TIP3   OH211531   5.412   4.492   3.909
 3842TIP3    H111532   5.482   4.496   3.843
 3842TIP3    H211533   5.415   4.402   3.940
 3843TIP3   OH211534   4.193   3.085   1.008
 3843TIP3    H111535   4.145   3.049   0.934
 3843TIP3    H211536   4.246   3.012   1.041
 3844TIP3   OH211537   3.285   1.209   4.139
 3844TIP3    H111538   3.199   1.172   4.158
 3844TIP3    H211539   3.279   1.238   4.048
 3845TIP3   OH211540   0.986   5.461   1.809
 3845TIP3    H111541   0.997   5.367   1.817
 3845TIP3    H211542   0.987   5.477   1.714
 3846TIP3   OH211543   2.408   5.555   2.025
 3846TIP3    H111544   2.490   5.588   1.988
 3846TIP3    H211545   2.431   5.469   2.061
 3847TIP3   OH211546   4.832   0.735   4.391
 3847TIP3    H111547   4.757   0.713   4.336
 3847TIP3    H211548   4.812   0.823   4.425
 3848TIP3   OH211549   1.050   1.735   4.531
 3848TIP3    H111550   1.084   1.824   4.530
 3848TIP3    H211551   1.060   1.706   4.622
 3849TIP3   OH211552   4.854   2.106   0.648
 3849TIP3    H111553   4.940   2.077   0.618
 3849TIP3    H211554   4.870   2.145   0.734
 3850TIP3   OH211555   1.931   0.140   2.994
 3850TIP3    H111556   1.950   0.104   2.907
 3850TIP3    H211557   2.012   0.126   3.043
 3851TIP3   OH211558   5.447   1.926   0.331
 3851TIP3    H111559   5.396   1.893   0.257
 3851TIP3    H211560   5.529   1.877   0.328
 3852TIP3   OH211561   6.251   0.876   1.070
 3852TIP3    H111562   6.169   0.837   1.101
 3852TIP3    H211563   6.235   0.970   1.071
 3853TIP3   OH211564   3.833   4.237   3.968
 3853TIP3    H111565   3.897   4.238   4.040
 3853TIP3    H211566   3.765   4.177   3.998
 3854TIP3   OH211567   0.391   1.787   4.214
 3854TIP3    H111568   0.392   1.849   4.141
 3854TIP3    H211569   0.376   1.702   4.173
 3855TIP3   OH211570   4.074   2.459   0.800
 3855TIP3    H111571   4.000   2.506   0.761
 3855TIP3    H211572   4.149   2.482   0.745
 3856TIP3   OH211573   3.705   1.680   0.083
 3856TIP3    H111574   3.774   1.614   0.088
 3856TIP3    H211575   3.654   1.656   0.005
 3857TIP3   OH211576   4.741   4.916   4.872
 3857TIP3    H111577   4.665   4.963   4.905
 3857TIP3    H211578   4.717   4.891   4.783
 3858TIP3   OH211579   2.886   5.310   2.280
 3858TIP3    H111580   2.882   5.231   2.333
 3858TIP3    H211581   2.957   5.294   2.218
 3859TIP3   OH211582   6.077   2.784   1.172
 3859TIP3    H111583   6.116   2.766   1.086
 3859TIP3    H211584   6.135   2.849   1.211
 3860TIP3   OH211585   4.319   3.436   2.285
 3860TIP3    H111586   4.377   3.496   2.237
 3860TIP3    H211587   4.278   3.383   2.217
 3861TIP3   OH211588   2.407   2.599   4.920
 3861TIP3    H111589   2.467   2.663   4.957
 3861TIP3    H211590   2.364   2.644   4.848
 3862TIP3   OH211591   5.507   1.808   4.384
 3862TIP3    H111592   5.551   1.825   4.467
 3862TIP3    H211593   5.552   1.865   4.322
 3863TIP3   OH211594   5.601   0.341   2.427
 3863TIP3    H111595   5.577   0.433   2.432
 3863TIP3    H211596   5.575   0.306   2.513
 3864TIP3   OH211597   5.447   4.705   2.955
 3864TIP3    H111598   5.489   4.777   2.908
 3864TIP3    H211599   5.360   4.699   2.917
 3865TIP3   OH211600   0.121   0.322   0.134
 3865TIP3    H111601   0.099   0.298   0.224
 3865TIP3    H211602   0.049   0.287   0.082
 3866TIP3   OH211603   0.628   4.881   0.294
 3866TIP3    H111604   0.590   4.933   0.223
 3866TIP3    H211605   0.703   4.932   0.324
 3867TIP3   OH211606   0.202   5.888   0.634
 3867TIP3    H111607   0.253   5.871   0.555
 3867TIP3    H211608   0.266   5.922   0.696
 3868TIP3   OH211609   2.363   2.246   3.643
 3868TIP3    H111610   2.378   2.197   3.723
 3868TIP3    H211611   2.289   2.203   3.601
 3869TIP3   OH211612   1.983   4.925   1.592
 3869TIP3    H111613   1.959   5.017   1.601
 3869TIP3    H211614   1.916   4.878   1.643
 3870TIP3   OH211615   5.553   4.135   3.933
 3870TIP3    H111616   5.572   4.058   3.987
 3870TIP3    H211617   5.636   4.184   3.932
 3871TIP3   OH211618   1.587   5.143   3.809
 3871TIP3    H111619   1.674   5.118   3.840
 3871TIP3    H211620   1.527   5.104   3.872
 3872TIP3   OH211621   4.125   3.686   4.145
 3872TIP3    H111622   4.097   3.653   4.230
 3872TIP3    H211623   4.123   3.782   4.155
 3873TIP3   OH211624   4.134   2.454   4.092
 3873TIP3    H111625   4.041   2.463   4.112
 3873TIP3    H211626   4.142   2.483   4.001
 3874TIP3   OH211627   0.550   3.210   1.496
 3874TIP3    H111628   0.540   3.125   1.538
 3874TIP3    H211629   0.644   3.215   1.475
 3875TIP3   OH211630   3.026   2.824   1.110
 3875TIP3    H111631   3.012   2.769   1.033
 3875TIP3    H211632   3.032   2.913   1.076
 3876TIP3   OH211633   4.465   5.239   0.645
 3876TIP3    H111634   4.543   5.233   0.589
 3876TIP3    H211635   4.458   5.333   0.665
 3877TIP3   OH211636   2.586   1.468   0.886
 3877TIP3    H111637   2.544   1.448   0.802
 3877TIP3    H211638   2.550   1.404   0.947
 3878TIP3   OH211639   5.257   3.476   2.649
 3878TIP3    H111640   5.161   3.476   2.653
 3878TIP3    H211641   5.279   3.566   2.624
 3879TIP3   OH211642   0.746   1.954   1.081
 3879TIP3    H111643   0.805   1.933   1.154
 3879TIP3    H211644   0.805   1.972   1.007
 3880TIP3   OH211645   3.366   1.718   3.297
 3880TIP3    H111646   3.433   1.649   3.297
 3880TIP3    H211647   3.415   1.799   3.305
 3881TIP3   OH211648   4.920   3.392   3.466
 3881TIP3    H111649   4.840   3.426   3.506
 3881TIP3    H211650   4.979   3.377   3.540
 3882TIP3   OH211651   5.691   0.365   4.280
 3882TIP3    H111652   5.759   0.309   4.244
 3882TIP3    H211653   5.620   0.361   4.216
 3883TIP3   OH211654   5.103   1.845   0.261
 3883TIP3    H111655   5.108   1.904   0.186
 3883TIP3    H211656   5.011   1.846   0.286
 3884TIP3   OH211657   0.982   2.541   3.488
 3884TIP3    H111658   0.961   2.522   3.579
 3884TIP3    H211659   0.900   2.526   3.441
 3885TIP3   OH211660   2.622   2.422   4.668
 3885TIP3    H111661   2.579   2.494   4.621
 3885TIP3    H211662   2.690   2.464   4.719
 3886TIP3   OH211663   1.595   3.574   1.215
 3886TIP3    H111664   1.639   3.656   1.192
 3886TIP3    H211665   1.502   3.591   1.201
 3887TIP3   OH211666   3.931   1.681   1.760
 3887TIP3    H111667   3.989   1.703   1.688
 3887TIP3    H211668   3.958   1.740   1.831
 3888TIP3   OH211669   3.225   3.647   1.359
 3888TIP3    H111670   3.242   3.686   1.444
 3888TIP3    H211671   3.159   3.704   1.319
 3889TIP3   OH211672   4.741   0.242   1.741
 3889TIP3    H111673   4.706   0.153   1.743
 3889TIP3    H211674   4.663   0.298   1.734
 3890TIP3   OH211675   0.391   1.038   3.910
 3890TIP3    H111676   0.395   1.052   3.815
 3890TIP3    H211677   0.302   1.004   3.925
 3891TIP3   OH211678   4.717   2.645   4.804
 3891TIP3    H111679   4.670   2.721   4.838
 3891TIP3    H211680   4.685   2.636   4.714
 3892TIP3   OH211681   0.754   0.582   4.418
 3892TIP3    H111682   0.761   0.561   4.512
 3892TIP3    H211683   0.827   0.535   4.378
 3893TIP3   OH211684   4.781   1.795   0.045
 3893TIP3    H111685   4.743   1.879   0.070
 3893TIP3    H211686   4.872   1.815   0.021
 3894TIP3   OH211687   5.624   3.113   1.132
 3894TIP3    H111688   5.559   3.131   1.199
 3894TIP3    H211689   5.706   3.146   1.169
 3895TIP3   OH211690   5.586   0.110   0.207
 3895TIP3    H111691   5.527   0.058   0.153
 3895TIP3    H211692   5.620   0.177   0.148
 3896TIP3   OH211693   3.101   4.969   4.499
 3896TIP3    H111694   3.116   4.980   4.405
 3896TIP3    H211695   3.144   4.887   4.520
 3897TIP3   OH211696   5.828   5.325   0.180
 3897TIP3    H111697   5.834   5.373   0.263
 3897TIP3    H211698   5.739   5.290   0.178
 3898TIP3   OH211699   1.294   1.824   1.816
 3898TIP3    H111700   1.377   1.781   1.795
 3898TIP3    H211701   1.303   1.851   1.908
 3899TIP3   OH211702   0.176   1.935   2.967
 3899TIP3    H111703   0.110   1.960   3.032
 3899TIP3    H211704   0.134   1.951   2.883
 3900TIP3   OH211705   0.155   2.392   0.360
 3900TIP3    H111706   0.122   2.476   0.391
 3900TIP3    H211707   0.137   2.331   0.432
 3901TIP3   OH211708   1.677   1.775   0.711
 3901TIP3    H111709   1.625   1.798   0.634
 3901TIP3    H211710   1.744   1.714   0.677
 3902TIP3   OH211711   3.427   2.095   1.450
 3902TIP3    H111712   3.412   2.103   1.355
 3902TIP3    H211713   3.493   2.026   1.457
 3903TIP3   OH211714   0.250   5.136   2.574
 3903TIP3    H111715   0.186   5.065   2.567
 3903TIP3    H211716   0.204   5.206   2.620
 3904TIP3   OH211717   0.672   0.676   1.443
 3904TIP3    H111718   0.747   0.732   1.422
 3904TIP3    H211719   0.673   0.609   1.375
 3905TIP3   OH211720   3.040   5.414   3.239
 3905TIP3    H111721   2.952   5.428   3.203
 3905TIP3    H211722   3.077   5.502   3.249
 3906TIP3   OH211723   5.629   4.835   0.704
 3906TIP3    H111724   5.650   4.750   0.664
 3906TIP3    H211725   5.536   4.831   0.722
 3907TIP3   OH211726   6.274   1.926   3.506
 3907TIP3    H111727   6.260   1.947   3.598
 3907TIP3    H211728   6.188   1.938   3.465
 3908TIP3   OH211729   0.355   5.909   4.464
 3908TIP3    H111730   0.303   5.961   4.525
 3908TIP3    H211731   0.303   5.908   4.384
 3909TIP3   OH211732   1.523   1.387   4.969
 3909TIP3    H111733   1.505   1.296   4.989
 3909TIP3    H211734   1.606   1.406   5.013
 3910TIP3   OH211735   3.855   1.661   3.462
 3910TIP3    H111736   3.890   1.725   3.399
 3910TIP3    H211737   3.808   1.714   3.527
 3911TIP3   OH211738   1.600   4.237   3.646
 3911TIP3    H111739   1.575   4.177   3.716
 3911TIP3    H211740   1.553   4.204   3.569
 3912TIP3   OH211741   1.289   1.507   2.978
 3912TIP3    H111742   1.258   1.579   2.921
 3912TIP3    H211743   1.304   1.434   2.918
 3913TIP3   OH211744   4.762   2.097  -0.016
 3913TIP3    H111745   4.780   2.169   0.045
 3913TIP3    H211746   4.680   2.059   0.015
 3914TIP3   OH211747   1.369   1.571   4.021
 3914TIP3    H111748   1.385   1.606   3.933
 3914TIP3    H211749   1.450   1.589   4.069
 3915TIP3   OH211750   5.091   5.016   2.514
 3915TIP3    H111751   5.184   5.004   2.492
 3915TIP3    H211752   5.045   5.000   2.431
 3916TIP3   OH211753   2.086   5.567   3.687
 3916TIP3    H111754   2.171   5.525   3.671
 3916TIP3    H211755   2.103   5.661   3.674
 3917TIP3   OH211756   2.217   0.400   1.645
 3917TIP3    H111757   2.158   0.403   1.569
 3917TIP3    H211758   2.266   0.319   1.633
 3918TIP3   OH211759   0.835   0.077   1.613
 3918TIP3    H111760   0.921   0.077   1.570
 3918TIP3    H211761   0.808  -0.015   1.612
 3919TIP3   OH211762   5.991   0.307   4.139
 3919TIP3    H111763   5.962   0.353   4.060
 3919TIP3    H211764   6.056   0.365   4.179
 3920TIP3   OH211765   1.634   5.449   2.590
 3920TIP3    H111766   1.654   5.464   2.498
 3920TIP3    H211767   1.540   5.431   2.591
 3921TIP3   OH211768   0.428   2.631   3.805
 3921TIP3    H111769   0.462   2.592   3.885
 3921TIP3    H211770   0.482   2.594   3.735
 3922TIP3   OH211771   2.900   3.471   4.973
 3922TIP3    H111772   2.986   3.513   4.975
 3922TIP3    H211773   2.849   3.523   4.911
 3923TIP3   OH211774   2.210   2.398   2.546
 3923TIP3    H111775   2.129   2.432   2.585
 3923TIP3    H211776   2.194   2.304   2.536
 3924TIP3   OH211777   3.311   3.389   2.701
 3924TIP3    H111778   3.276   3.416   2.786
 3924TIP3    H211779   3.271   3.303   2.686
 3925TIP3   OH211780   5.489   3.629   2.517
 3925TIP3    H111781   5.528   3.543   2.526
 3925TIP3    H211782   5.534   3.684   2.581
 3926TIP3   OH211783   2.447   5.135   4.789
 3926TIP3    H111784   2.532   5.177   4.777
 3926TIP3    H211785   2.436   5.080   4.712
 3927TIP3   OH211786   6.057   5.953   3.464
 3927TIP3    H111787   5.982   5.958   3.405
 3927TIP3    H211788   6.134   5.952   3.406
 3928TIP3   OH211789   3.385   0.274   4.457
 3928TIP3    H111790   3.384   0.287   4.363
 3928TIP3    H211791   3.465   0.318   4.487
 3929TIP3   OH211792   5.678   1.385   1.402
 3929TIP3    H111793   5.771   1.370   1.418
 3929TIP3    H211794   5.649   1.308   1.353
 3930TIP3   OH211795   2.243   1.749   2.395
 3930TIP3    H111796   2.226   1.687   2.324
 3930TIP3    H211797   2.211   1.704   2.474
 3931TIP3   OH211798   0.433   4.925   4.775
 3931TIP3    H111799   0.377   4.848   4.789
 3931TIP3    H211800   0.485   4.931   4.855
 3932TIP3   OH211801   6.217   0.702   2.973
 3932TIP3    H111802   6.218   0.634   2.905
 3932TIP3    H211803   6.255   0.779   2.931
 3933TIP3   OH211804   6.217   5.579   1.831
 3933TIP3    H111805   6.180   5.590   1.744
 3933TIP3    H211806   6.197   5.488   1.855
 3934TIP3   OH211807   0.216   3.103   2.814
 3934TIP3    H111808   0.305   3.135   2.799
 3934TIP3    H211809   0.187   3.072   2.728
 3935TIP3   OH211810   3.835   5.636   4.000
 3935TIP3    H111811   3.771   5.685   4.053
 3935TIP3    H211812   3.857   5.696   3.929
 3936TIP3   OH211813   1.558   2.363   2.366
 3936TIP3    H111814   1.530   2.284   2.412
 3936TIP3    H211815   1.483   2.387   2.312
 3937TIP3   OH211816   2.799   0.482   3.729
 3937TIP3    H111817   2.882   0.462   3.686
 3937TIP3    H211818   2.733   0.437   3.676
 3938TIP3   OH211819   5.029   3.557   0.333
 3938TIP3    H111820   5.119   3.533   0.310
 3938TIP3    H211821   4.980   3.548   0.252
 3939TIP3   OH211822   4.635   0.205   3.062
 3939TIP3    H111823   4.578   0.129   3.075
 3939TIP3    H211824   4.575   0.277   3.041
 3940TIP3   OH211825   1.098   0.088   1.516
 3940TIP3    H111826   1.131   0.140   1.590
 3940TIP3    H211827   1.164   0.021   1.502
 3941TIP3   OH211828   1.284   0.294   3.157
 3941TIP3    H111829   1.359   0.287   3.098
 3941TIP3    H211830   1.312   0.250   3.237
 3942TIP3   OH211831   3.060   2.275   0.119
 3942TIP3    H111832   2.983   2.267   0.062
 3942TIP3    H211833   3.054   2.363   0.156
 3943TIP3   OH211834   5.633   3.979   3.451
 3943TIP3    H111835   5.728   3.978   3.442
 3943TIP3    H211836   5.601   3.962   3.363
 3944TIP3   OH211837   1.923   2.393   1.721
 3944TIP3    H111838   1.903   2.336   1.647
 3944TIP3    H211839   1.948   2.333   1.792
 3945TIP3   OH211840   5.661   2.401   1.546
 3945TIP3    H111841   5.670   2.415   1.640
 3945TIP3    H211842   5.689   2.310   1.532
 3946TIP3   OH211843   1.254   4.779   3.112
 3946TIP3    H111844   1.279   4.809   3.200
 3946TIP3    H211845   1.188   4.843   3.083
 3947TIP3   OH211846   2.235   2.773   4.594
 3947TIP3    H111847   2.278   2.844   4.641
 3947TIP3    H211848   2.245   2.797   4.502
 3948TIP3   OH211849   2.973   3.366   2.278
 3948TIP3    H111850   2.915   3.307   2.324
 3948TIP3    H211851   3.000   3.317   2.200
 3949TIP3   OH211852   0.267   3.516   2.860
 3949TIP3    H111853   0.301   3.478   2.941
 3949TIP3    H211854   0.335   3.499   2.795
 3950TIP3   OH211855   2.240   1.127   0.130
 3950TIP3    H111856   2.201   1.199   0.179
 3950TIP3    H211857   2.254   1.163   0.042
 3951TIP3   OH211858   3.430   3.984   0.378
 3951TIP3    H111859   3.502   4.000   0.439
 3951TIP3    H211860   3.446   4.044   0.305
 3952TIP3   OH211861   4.940   2.807   0.601
 3952TIP3    H111862   4.972   2.767   0.682
 3952TIP3    H211863   4.846   2.820   0.616
 3953TIP3   OH211864   4.670   4.155   5.070
 3953TIP3    H111865   4.636   4.082   5.019
 3953TIP3    H211866   4.647   4.134   5.161
 3954TIP3   OH211867   0.147   4.527   1.078
 3954TIP3    H111868   0.090   4.598   1.048
 3954TIP3    H211869   0.136   4.458   1.012
 3955TIP3   OH211870   4.346   5.215   4.717
 3955TIP3    H111871   4.352   5.170   4.801
 3955TIP3    H211872   4.321   5.146   4.655
 3956TIP3   OH211873   4.855   3.033   5.089
 3956TIP3    H111874   4.839   3.111   5.036
 3956TIP3    H211875   4.911   3.064   5.161
 3957TIP3   OH211876   0.030   1.743   0.712
 3957TIP3    H111877  -0.020   1.824   0.705
 3957TIP3    H211878   0.017   1.714   0.803
 3958TIP3   OH211879   4.780   4.572   4.535
 3958TIP3    H111880   4.771   4.490   4.582
 3958TIP3    H211881   4.858   4.613   4.572
 3959TIP3   OH211882   0.997   5.179   1.444
 3959TIP3    H111883   0.920   5.225   1.477
 3959TIP3    H211884   1.014   5.217   1.358
 3960TIP3   OH211885   5.266   0.227   5.110
 3960TIP3    H111886   5.332   0.281   5.154
 3960TIP3    H211887   5.253   0.153   5.169
 3961TIP3   OH211888   0.075   5.296   0.567
 3961TIP3    H111889   0.135   5.313   0.494
 3961TIP3    H211890   0.121   5.232   0.621
 3962TIP3   OH211891   3.546   5.349   2.763
 3962TIP3    H111892   3.581   5.275   2.811
 3962TIP3    H211893   3.587   5.343   2.676
 3963TIP3   OH211894   0.734   2.329   4.364
 3963TIP3    H111895   0.790   2.254   4.386
 3963TIP3    H211896   0.728   2.380   4.445
 3964TIP3   OH211897   1.188   4.627   4.534
 3964TIP3    H111898   1.282   4.647   4.528
 3964TIP3    H211899   1.184   4.532   4.525
 3965TIP3   OH211900   0.041   0.949   0.277
 3965TIP3    H111901   0.128   0.916   0.299
 3965TIP3    H211902   0.041   1.039   0.309
 3966TIP3   OH211903   5.688   0.316   0.066
 3966TIP3    H111904   5.772   0.329   0.110
 3966TIP3    H211905   5.650   0.404   0.059
 3967TIP3   OH211906   0.784   0.668   2.692
 3967TIP3    H111907   0.803   0.685   2.784
 3967TIP3    H211908   0.792   0.573   2.684
 3968TIP3   OH211909   2.204   3.902   3.395
 3968TIP3    H111910   2.232   3.936   3.480
 3968TIP3    H211911   2.283   3.866   3.356
 3969TIP3   OH211912   4.042   3.399   3.075
 3969TIP3    H111913   3.982   3.328   3.097
 3969TIP3    H211914   4.127   3.356   3.067
 3970TIP3   OH211915   3.384   5.824   4.344
 3970TIP3    H111916   3.420   5.901   4.388
 3970TIP3    H211917   3.290   5.828   4.364
 3971TIP3   OH211918   1.178   0.549   4.744
 3971TIP3    H111919   1.105   0.510   4.792
 3971TIP3    H211920   1.143   0.565   4.656
 3972TIP3   OH211921   5.881   3.868   3.806
 3972TIP3    H111922   5.968   3.828   3.807
 3972TIP3    H211923   5.898   3.962   3.805
 3973TIP3   OH211924   0.450   0.761   3.295
 3973TIP3    H111925   0.490   0.836   3.252
 3973TIP3    H211926   0.411   0.796   3.375
 3974TIP3   OH211927   4.860   4.095   4.416
 3974TIP3    H111928   4.923   4.159   4.448
 3974TIP3    H211929   4.908   4.043   4.351
 3975TIP3   OH211930   1.271   2.934   4.001
 3975TIP3    H111931   1.199   2.902   3.946
 3975TIP3    H211932   1.337   2.864   3.997
 3976TIP3   OH211933   5.796   0.815   3.393
 3976TIP3    H111934   5.714   0.828   3.346
 3976TIP3    H211935   5.833   0.734   3.356
 3977TIP3   OH211936   5.296   4.491   2.516
 3977TIP3    H111937   5.243   4.429   2.465
 3977TIP3    H211938   5.277   4.469   2.607
 3978TIP3   OH211939   1.722   4.950   4.518
 3978TIP3    H111940   1.799   4.894   4.515
 3978TIP3    H211941   1.683   4.943   4.431
 3979TIP3   OH211942   1.798   1.507   2.980
 3979TIP3    H111943   1.815   1.435   3.041
 3979TIP3    H211944   1.712   1.540   3.005
 3980TIP3   OH211945   2.078   4.712   2.338
 3980TIP3    H111946   2.054   4.629   2.378
 3980TIP3    H211947   2.111   4.688   2.251
 3981TIP3   OH211948   4.874   0.464   0.065
 3981TIP3    H111949   4.902   0.538   0.011
 3981TIP3    H211950   4.926   0.472   0.145
 3982TIP3   OH211951   5.824   4.421   4.634
 3982TIP3    H111952   5.760   4.475   4.679
 3982TIP3    H211953   5.816   4.446   4.542
 3983TIP3   OH211954   1.194   2.726   4.356
 3983TIP3    H111955   1.277   2.693   4.322
 3983TIP3    H211956   1.166   2.790   4.291
 3984TIP3   OH211957   5.390   2.029   1.586
 3984TIP3    H111958   5.399   1.939   1.620
 3984TIP3    H211959   5.411   2.085   1.661
 3985TIP3   OH211960   0.986   0.296   4.671
 3985TIP3    H111961   0.974   0.324   4.762
 3985TIP3    H211962   1.070   0.251   4.671
 3986TIP3   OH211963   0.124   3.261   2.289
 3986TIP3    H111964   0.079   3.339   2.257
 3986TIP3    H211965   0.161   3.288   2.374
 3987TIP3   OH211966   4.611   4.894   1.219
 3987TIP3    H111967   4.660   4.897   1.136
 3987TIP3    H211968   4.667   4.941   1.281
 3988TIP3   OH211969   5.361   1.742   2.251
 3988TIP3    H111970   5.330   1.659   2.288
 3988TIP3    H211971   5.328   1.741   2.161
 3989TIP3   OH211972   3.622   0.040  -0.031
 3989TIP3    H111973   3.552   0.041   0.035
 3989TIP3    H211974   3.666  -0.043  -0.017
 3990TIP3   OH211975   3.220   1.999   3.168
 3990TIP3    H111976   3.253   2.085   3.142
 3990TIP3    H211977   3.299   1.947   3.183
 3991TIP3   OH211978   4.211   5.070   2.017
 3991TIP3    H111979   4.121   5.082   1.986
 3991TIP3    H211980   4.212   5.110   2.104
 3992TIP3   OH211981   0.697   0.587   4.008
 3992TIP3    H111982   0.770   0.535   3.974
 3992TIP3    H211983   0.709   0.673   3.968
 3993TIP3   OH211984   5.747   0.790   2.611
 3993TIP3    H111985   5.760   0.697   2.630
 3993TIP3    H211986   5.740   0.793   2.515
 3994TIP3   OH211987   5.346   3.176   1.230
 3994TIP3    H111988   5.398   3.182   1.310
 3994TIP3    H211989   5.293   3.097   1.241
 3995TIP3   OH211990   5.633   2.509   3.475
 3995TIP3    H111991   5.563   2.564   3.439
 3995TIP3    H211992   5.608   2.420   3.450
 3996TIP3   OH211993   6.104   0.177   0.998
 3996TIP3    H111994   6.178   0.172   1.059
 3996TIP3    H211995   6.049   0.248   1.032
 3997TIP3   OH211996   2.458   2.961   0.158
 3997TIP3    H111997   2.535   2.985   0.210
 3997TIP3    H211998   2.384   2.983   0.213
 3998TIP3   OH211999   1.858   2.890   3.843
 3998TIP3    H112000   1.775   2.937   3.850
 3998TIP3    H212001   1.891   2.913   3.756
 3999TIP3   OH212002   2.665   0.619   2.404
 3999TIP3    H112003   2.751   0.660   2.391
 3999TIP3    H212004   2.635   0.599   2.316
 4000TIP3   OH212005   4.613   5.438   2.505
 4000TIP3    H112006   4.698   5.393   2.511
 4000TIP3    H212007   4.611   5.495   2.582
 4001TIP3   OH212008   1.822   5.987   0.792
 4001TIP3    H112009   1.741   5.991   0.842
 4001TIP3    H212010   1.811   5.911   0.734
 4002TIP3   OH212011   5.235   2.137   3.912
 4002TIP3    H112012   5.304   2.202   3.898
 4002TIP3    H212013   5.155   2.189   3.922
 4003TIP3   OH212014   4.400   3.843   0.047
 4003TIP3    H112015   4.429   3.889   0.125
 4003TIP3    H212016   4.311   3.816   0.067
 4004TIP3   OH212017   5.896   1.676   4.050
 4004TIP3    H112018   5.935   1.593   4.078
 4004TIP3    H212019   5.802   1.665   4.065
 4005TIP3   OH212020   4.343   1.616   2.177
 4005TIP3    H112021   4.284   1.547   2.148
 4005TIP3    H212022   4.374   1.656   2.096
 4006TIP3   OH212023   0.451   0.587   1.150
 4006TIP3    H112024   0.539   0.560   1.177
 4006TIP3    H212025   0.464   0.670   1.105
 4007TIP3   OH212026   6.353   3.466   3.137
 4007TIP3    H112027   6.352   3.423   3.051
 4007TIP3    H212028   6.266   3.450   3.173
 4008TIP3   OH212029   1.178   4.005   1.212
 4008TIP3    H112030   1.259   3.966   1.247
 4008TIP3    H212031   1.147   4.063   1.281
 4009TIP3   OH212032   4.250   3.298   5.039
 4009TIP3    H112033   4.217   3.351   5.111
 4009TIP3    H212034   4.220   3.209   5.059
 4010TIP3   OH212035   3.297   0.706   4.529
 4010TIP3    H112036   3.212   0.666   4.509
 4010TIP3    H212037   3.330   0.655   4.603
 4011TIP3   OH212038   4.204   5.216   2.252
 4011TIP3    H112039   4.268   5.258   2.309
 4011TIP3    H212040   4.189   5.279   2.181
 4012TIP3   OH212041   5.012   0.924   3.937
 4012TIP3    H112042   5.021   1.012   3.972
 4012TIP3    H212043   4.949   0.933   3.866
 4013TIP3   OH212044   0.641   1.672   3.777
 4013TIP3    H112045   0.661   1.618   3.853
 4013TIP3    H212046   0.648   1.762   3.808
 4014TIP3   OH212047   5.140   1.656   3.264
 4014TIP3    H112048   5.056   1.655   3.217
 4014TIP3    H212049   5.163   1.748   3.269
 4015TIP3   OH212050   2.631   5.362   2.394
 4015TIP3    H112051   2.724   5.350   2.378
 4015TIP3    H212052   2.589   5.346   2.310
 4016TIP3   OH212053   0.408   1.901   1.540
 4016TIP3    H112054   0.436   1.973   1.596
 4016TIP3    H212055   0.475   1.895   1.472
 4017TIP3   OH212056   2.504   3.457   4.599
 4017TIP3    H112057   2.569   3.527   4.593
 4017TIP3    H212058   2.541   3.386   4.547
 4018TIP3   OH212059   5.982   4.249   0.797
 4018TIP3    H112060   6.007   4.186   0.730
 4018TIP3    H212061   6.065   4.285   0.829
 4019TIP3   OH212062   5.306   3.297   1.833
 4019TIP3    H112063   5.391   3.339   1.849
 4019TIP3    H212064   5.244   3.370   1.830
 4020TIP3   OH212065   5.728   3.558   2.749
 4020TIP3    H112066   5.689   3.643   2.728
 4020TIP3    H212067   5.799   3.547   2.686
 4021TIP3   OH212068   3.930   2.027   0.422
 4021TIP3    H112069   3.860   2.003   0.362
 4021TIP3    H212070   3.983   2.090   0.374
 4022TIP3   OH212071   0.489   3.179   2.824
 4022TIP3    H112072   0.584   3.187   2.815
 4022TIP3    H212073   0.467   3.232   2.900
 4023TIP3   OH212074   4.732   1.067   2.832
 4023TIP3    H112075   4.750   1.138   2.771
 4023TIP3    H212076   4.714   1.111   2.915
 4024TIP3   OH212077   0.184   1.325   3.915
 4024TIP3    H112078   0.277   1.334   3.894
 4024TIP3    H212079   0.141   1.315   3.830
 4025TIP3   OH212080   4.092   5.573   1.703
 4025TIP3    H112081   4.004   5.537   1.690
 4025TIP3    H212082   4.077   5.663   1.733
 4026TIP3   OH212083   0.942   0.280   1.082
 4026TIP3    H112084   0.968   0.337   1.155
 4026TIP3    H212085   0.950   0.191   1.118
 4027TIP3   OH212086   4.024   5.462   4.942
 4027TIP3    H112087   4.105   5.412   4.951
 4027TIP3    H212088   4.051   5.553   4.944
 4028TIP3   OH212089   0.430   2.913   3.710
 4028TIP3    H112090   0.457   2.827   3.743
 4028TIP3    H212091   0.338   2.921   3.735
 4029TIP3   OH212092   5.808   4.043   0.946
 4029TIP3    H112093   5.863   3.967   0.962
 4029TIP3    H212094   5.867   4.107   0.906
 4030TIP3   OH212095   1.617   4.604   1.150
 4030TIP3    H112096   1.575   4.683   1.184
 4030TIP3    H212097   1.690   4.589   1.210
 4031TIP3   OH212098   1.655   0.811   2.058
 4031TIP3    H112099   1.690   0.754   1.989
 4031TIP3    H212100   1.632   0.751   2.129
 4032TIP3   OH212101   4.022   0.033   2.867
 4032TIP3    H112102   4.116   0.038   2.850
 4032TIP3    H212103   4.007   0.097   2.937
 4033TIP3   OH212104   3.335   0.326   0.719
 4033TIP3    H112105   3.258   0.345   0.774
 4033TIP3    H212106   3.364   0.412   0.689
 4034TIP3   OH212107   5.763   0.232   4.506
 4034TIP3    H112108   5.725   0.302   4.454
 4034TIP3    H212109   5.821   0.276   4.568
 4035TIP3   OH212110   3.046   0.216   1.617
 4035TIP3    H112111   3.126   0.245   1.660
 4035TIP3    H212112   3.006   0.296   1.583
 4036TIP3   OH212113   4.845   5.214   4.461
 4036TIP3    H112114   4.839   5.128   4.419
 4036TIP3    H212115   4.874   5.196   4.550
 4037TIP3   OH212116   4.828   4.664   2.286
 4037TIP3    H112117   4.804   4.661   2.378
 4037TIP3    H212118   4.761   4.612   2.242
 4038TIP3   OH212119   0.618   1.208   0.516
 4038TIP3    H112120   0.678   1.245   0.581
 4038TIP3    H212121   0.531   1.232   0.548
 4039TIP3   OH212122   3.192   3.576   4.509
 4039TIP3    H112123   3.233   3.569   4.595
 4039TIP3    H212124   3.120   3.513   4.512
 4040TIP3   OH212125   1.879   1.508   2.693
 4040TIP3    H112126   1.912   1.471   2.775
 4040TIP3    H212127   1.942   1.480   2.627
 4041TIP3   OH212128   2.766   4.811   2.656
 4041TIP3    H112129   2.765   4.716   2.649
 4041TIP3    H212130   2.855   4.836   2.631
 4042TIP3   OH212131   1.956   1.241   2.023
 4042TIP3    H112132   1.911   1.162   1.992
 4042TIP3    H212133   1.898   1.277   2.090
 4043TIP3   OH212134   0.324   4.469   3.485
 4043TIP3    H112135   0.277   4.552   3.482
 4043TIP3    H212136   0.327   4.446   3.578
 4044TIP3   OH212137   5.494   2.520   2.270
 4044TIP3    H112138   5.461   2.518   2.180
 4044TIP3    H212139   5.428   2.570   2.319
 4045TIP3   OH212140   4.631   3.445   1.533
 4045TIP3    H112141   4.713   3.436   1.486
 4045TIP3    H212142   4.563   3.442   1.465
 4046TIP3   OH212143   1.225   0.395   3.978
 4046TIP3    H112144   1.290   0.330   4.006
 4046TIP3    H212145   1.152   0.383   4.038
 4047TIP3   OH212146   2.471   5.227   3.984
 4047TIP3    H112147   2.527   5.152   4.005
 4047TIP3    H212148   2.512   5.268   3.908
 4048TIP3   OH212149   2.027   1.062   3.349
 4048TIP3    H112150   2.026   1.009   3.429
 4048TIP3    H212151   1.935   1.071   3.325
 4049TIP3   OH212152   0.931   1.976   4.900
 4049TIP3    H112153   0.916   2.016   4.986
 4049TIP3    H212154   0.946   1.883   4.919
 4050TIP3   OH212155   3.667   0.439   4.420
 4050TIP3    H112156   3.624   0.525   4.422
 4050TIP3    H212157   3.761   0.460   4.414
 4051TIP3   OH212158   5.146   4.704   5.047
 4051TIP3    H112159   5.196   4.731   4.970
 4051TIP3    H212160   5.181   4.617   5.069
 4052TIP3   OH212161   6.175   0.702   1.974
 4052TIP3    H112162   6.122   0.740   1.905
 4052TIP3    H212163   6.241   0.769   1.994
 4053TIP3   OH212164   2.395   5.928   3.075
 4053TIP3    H112165   2.374   5.841   3.040
 4053TIP3    H212166   2.427   5.911   3.164
 4054TIP3   OH212167   1.089   4.863   4.179
 4054TIP3    H112168   1.084   4.953   4.145
 4054TIP3    H212169   1.004   4.848   4.221
 4055TIP3   OH212170   6.091   1.104   1.354
 4055TIP3    H112171   6.039   1.032   1.389
 4055TIP3    H212172   6.181   1.069   1.351
 4056TIP3   OH212173   4.129   5.018   0.140
 4056TIP3    H112174   4.186   5.092   0.116
 4056TIP3    H212175   4.162   4.945   0.088
 4057TIP3   OH212176   5.648   2.499   4.859
 4057TIP3    H112177   5.668   2.480   4.767
 4057TIP3    H212178   5.552   2.505   4.862
 4058TIP3   OH212179   3.703   2.203   1.215
 4058TIP3    H112180   3.769   2.137   1.192
 4058TIP3    H212181   3.622   2.153   1.224
 4059TIP3   OH212182   0.824   2.774   4.070
 4059TIP3    H112183   0.888   2.837   4.102
 4059TIP3    H212184   0.849   2.691   4.109
 4060TIP3   OH212185   2.877   4.513   2.924
 4060TIP3    H112186   2.857   4.544   3.013
 4060TIP3    H212187   2.941   4.443   2.937
 4061TIP3   OH212188   0.121   3.909   3.321
 4061TIP3    H112189   0.036   3.882   3.287
 4061TIP3    H212190   0.101   3.970   3.392
 4062TIP3   OH212191   3.597   0.098   4.121
 4062TIP3    H112192   3.568   0.072   4.034
 4062TIP3    H212193   3.542   0.173   4.143
 4063TIP3   OH212194   4.142   2.229   1.941
 4063TIP3    H112195   4.217   2.225   2.001
 4063TIP3    H212196   4.173   2.282   1.868
 4064TIP3   OH212197   5.152   4.191   4.399
 4064TIP3    H112198   5.192   4.265   4.445
 4064TIP3    H212199   5.159   4.214   4.306
 4065TIP3   OH212200   0.088   2.222   0.555
 4065TIP3    H112201   0.047   2.181   0.479
 4065TIP3    H212202   0.127   2.148   0.603
 4066TIP3   OH212203   1.516   2.405   4.702
 4066TIP3    H112204   1.541   2.449   4.784
 4066TIP3    H212205   1.578   2.333   4.693
 4067TIP3   OH212206   1.923   4.897   4.097
 4067TIP3    H112207   1.923   4.904   4.002
 4067TIP3    H212208   1.902   4.986   4.127
 4068TIP3   OH212209   0.815   2.183   1.914
 4068TIP3    H112210   0.797   2.092   1.940
 4068TIP3    H212211   0.737   2.210   1.866
 4069TIP3   OH212212   3.926   3.622   2.079
 4069TIP3    H112213   3.970   3.676   2.013
 4069TIP3    H212214   3.995   3.599   2.141
 4070TIP3   OH212215   2.669   3.014   2.280
 4070TIP3    H112216   2.644   2.941   2.336
 4070TIP3    H212217   2.709   2.972   2.203
 4071TIP3   OH212218   4.040   3.969   3.797
 4071TIP3    H112219   3.990   3.939   3.873
 4071TIP3    H212220   4.130   3.942   3.816
 4072TIP3   OH212221   6.116   4.286   4.456
 4072TIP3    H112222   6.156   4.235   4.526
 4072TIP3    H212223   6.060   4.349   4.502
 4073TIP3   OH212224   4.899   3.807   2.543
 4073TIP3    H112225   4.809   3.778   2.553
 4073TIP3    H212226   4.943   3.780   2.624
 4074TIP3   OH212227   5.783   0.052   2.655
 4074TIP3    H112228   5.698   0.043   2.699
 4074TIP3    H212229   5.769   0.015   2.568
 4075TIP3   OH212230   3.871   3.570   0.212
 4075TIP3    H112231   3.781   3.540   0.225
 4075TIP3    H212232   3.907   3.512   0.146
 4076TIP3   OH212233   0.504   5.185   0.672
 4076TIP3    H112234   0.474   5.130   0.600
 4076TIP3    H212235   0.518   5.271   0.632
 4077TIP3   OH212236   2.780   4.998   1.603
 4077TIP3    H112237   2.693   5.025   1.572
 4077TIP3    H212238   2.764   4.913   1.645
 4078TIP3   OH212239   4.649   1.220   2.381
 4078TIP3    H112240   4.573   1.275   2.402
 4078TIP3    H212241   4.643   1.146   2.442
 4079TIP3   OH212242   3.254   0.324   0.234
 4079TIP3    H112243   3.312   0.400   0.227
 4079TIP3    H212244   3.226   0.323   0.325
 4080TIP3   OH212245   3.149   4.514   2.749
 4080TIP3    H112246   3.218   4.544   2.809
 4080TIP3    H212247   3.172   4.553   2.665
 4081TIP3   OH212248   0.687   5.639   1.165
 4081TIP3    H112249   0.654   5.549   1.163
 4081TIP3    H212250   0.780   5.631   1.144
 4082TIP3   OH212251   2.769   2.842   3.498
 4082TIP3    H112252   2.814   2.920   3.465
 4082TIP3    H212253   2.839   2.778   3.510
 4083TIP3   OH212254   1.606   2.503   1.492
 4083TIP3    H112255   1.560   2.440   1.547
 4083TIP3    H212256   1.686   2.523   1.540
 4084TIP3   OH212257   3.502   2.863   4.411
 4084TIP3    H112258   3.576   2.874   4.350
 4084TIP3    H212259   3.511   2.937   4.471
 4085TIP3   OH212260   6.230   2.607   0.143
 4085TIP3    H112261   6.306   2.549   0.137
 4085TIP3    H212262   6.185   2.596   0.059
 4086TIP3   OH212263   0.428   0.411   4.883
 4086TIP3    H112264   0.335   0.412   4.864
 4086TIP3    H212265   0.459   0.327   4.848
 4087TIP3   OH212266   3.584   3.730   1.418
 4087TIP3    H112267   3.541   3.805   1.459
 4087TIP3    H212268   3.558   3.656   1.473
 4088TIP3   OH212269   1.643   2.524   2.025
 4088TIP3    H112270   1.592   2.592   2.069
 4088TIP3    H212271   1.698   2.571   1.963
 4089TIP3   OH212272   4.884   3.749   3.627
 4089TIP3    H112273   4.906   3.665   3.667
 4089TIP3    H212274   4.808   3.729   3.572
 4090TIP3   OH212275   5.954   1.389   1.602
 4090TIP3    H112276   6.025   1.409   1.541
 4090TIP3    H212277   5.935   1.472   1.644
 4091TIP3   OH212278   3.709   5.856   1.972
 4091TIP3    H112279   3.614   5.847   1.982
 4091TIP3    H212280   3.721   5.890   1.883
 4092TIP3   OH212281   5.022   2.134   4.178
 4092TIP3    H112282   4.956   2.202   4.190
 4092TIP3    H212283   5.098   2.180   4.142
 4093TIP3   OH212284   3.074   0.778   0.208
 4093TIP3    H112285   2.999   0.833   0.186
 4093TIP3    H212286   3.137   0.838   0.249
 4094TIP3   OH212287   2.765   1.864   4.065
 4094TIP3    H112288   2.700   1.828   4.004
 4094TIP3    H212289   2.845   1.815   4.046
 4095TIP3   OH212290   0.461   2.340   4.659
 4095TIP3    H112291   0.389   2.396   4.631
 4095TIP3    H212292   0.462   2.269   4.594
 4096TIP3   OH212293   5.994   3.097   3.065
 4096TIP3    H112294   5.912   3.047   3.069
 4096TIP3    H212295   6.013   3.103   2.972
 4097TIP3   OH212296   1.820   2.089   3.643
 4097TIP3    H112297   1.897   2.089   3.700
 4097TIP3    H212298   1.751   2.129   3.695
 4098TIP3   OH212299   0.671   3.273   0.490
 4098TIP3    H112300   0.739   3.341   0.490
 4098TIP3    H212301   0.656   3.253   0.582
 4099TIP3   OH212302   5.540   5.203   1.473
 4099TIP3    H112303   5.622   5.230   1.515
 4099TIP3    H212304   5.501   5.143   1.536
 4100TIP3   OH212305   2.343   3.866   0.534
 4100TIP3    H112306   2.400   3.896   0.464
 4100TIP3    H212307   2.269   3.825   0.489
 4101TIP3   OH212308   1.971   2.663   1.041
 4101TIP3    H112309   2.035   2.700   0.980
 4101TIP3    H212310   1.936   2.740   1.087
 4102TIP3   OH212311   0.396   1.492   1.228
 4102TIP3    H112312   0.354   1.537   1.155
 4102TIP3    H212313   0.345   1.517   1.304
 4103TIP3   OH212314   6.183   3.814   0.763
 4103TIP3    H112315   6.275   3.805   0.788
 4103TIP3    H212316   6.174   3.763   0.683
 4104TIP3   OH212317   4.587   4.461   2.625
 4104TIP3    H112318   4.643   4.394   2.585
 4104TIP3    H212319   4.594   4.445   2.719
 4105TIP3   OH212320   1.382   4.026   0.460
 4105TIP3    H112321   1.431   4.091   0.410
 4105TIP3    H212322   1.292   4.059   0.460
 4106TIP3   OH212323   5.617   1.681   0.357
 4106TIP3    H112324   5.574   1.668   0.272
 4106TIP3    H212325   5.709   1.663   0.340
 4107TIP3   OH212326   1.324   1.160   3.048
 4107TIP3    H112327   1.354   1.171   3.138
 4107TIP3    H212328   1.251   1.098   3.054
 4108TIP3   OH212329   0.569   3.409   3.210
 4108TIP3    H112330   0.614   3.386   3.291
 4108TIP3    H212331   0.574   3.505   3.206
 4109TIP3   OH212332   2.356   0.663   1.886
 4109TIP3    H112333   2.296   0.597   1.920
 4109TIP3    H212334   2.371   0.722   1.960
 4110TIP3   OH212335   2.218   1.408   4.351
 4110TIP3    H112336   2.133   1.388   4.313
 4110TIP3    H212337   2.239   1.496   4.320
 4111TIP3   OH212338   6.033   0.784   3.976
 4111TIP3    H112339   5.949   0.765   3.934
 4111TIP3    H212340   6.080   0.839   3.913
 4112TIP3   OH212341   5.364   3.625   4.626
 4112TIP3    H112342   5.384   3.692   4.560
 4112TIP3    H212343   5.269   3.632   4.639
 4113TIP3   OH212344   0.335   0.256   1.625
 4113TIP3    H112345   0.275   0.323   1.592
 4113TIP3    H212346   0.421   0.297   1.623
 4114TIP3   OH212347   4.281   5.182   3.569
 4114TIP3    H112348   4.234   5.262   3.595
 4114TIP3    H212349   4.266   5.122   3.642
 4115TIP3   OH212350   3.431   5.093   5.147
 4115TIP3    H112351   3.479   5.049   5.076
 4115TIP3    H212352   3.444   5.037   5.223
 4116TIP3   OH212353   1.745   4.037   3.091
 4116TIP3    H112354   1.825   4.032   3.143
 4116TIP3    H212355   1.775   4.047   3.001
 4117TIP3   OH212356   4.453   2.439   3.488
 4117TIP3    H112357   4.497   2.357   3.468
 4117TIP3    H212358   4.386   2.416   3.552
 4118TIP3   OH212359   1.921   1.769   2.485
 4118TIP3    H112360   1.924   1.687   2.435
 4118TIP3    H212361   1.943   1.837   2.421
 4119TIP3   OH212362   2.488   0.582   4.884
 4119TIP3    H112363   2.408   0.605   4.836
 4119TIP3    H212364   2.464   0.505   4.936
 4120TIP3   OH212365   3.723   0.376   0.901
 4120TIP3    H112366   3.760   0.409   0.819
 4120TIP3    H212367   3.796   0.333   0.945
 4121TIP3   OH212368   4.806   1.083   4.386
 4121TIP3    H112369   4.888   1.127   4.404
 4121TIP3    H212370   4.807   1.068   4.291
 4122TIP3   OH212371   4.369   3.014   3.655
 4122TIP3    H112372   4.307   3.081   3.627
 4122TIP3    H212373   4.362   3.013   3.750
 4123TIP3   OH212374   4.587   2.649   4.563
 4123TIP3    H112375   4.514   2.706   4.587
 4123TIP3    H212376   4.612   2.678   4.475
 4124TIP3   OH212377   0.919   1.700   4.892
 4124TIP3    H112378   0.882   1.634   4.949
 4124TIP3    H212379   0.980   1.652   4.835
 4125TIP3   OH212380   4.881   3.696   4.482
 4125TIP3    H112381   4.837   3.728   4.561
 4125TIP3    H212382   4.810   3.679   4.420
 4126TIP3   OH212383   5.162   3.878   1.127
 4126TIP3    H112384   5.101   3.949   1.145
 4126TIP3    H212385   5.150   3.858   1.034
 4127TIP3   OH212386   3.418   5.673   4.141
 4127TIP3    H112387   3.394   5.729   4.215
 4127TIP3    H212388   3.449   5.592   4.181
 4128TIP3   OH212389   4.842   3.495   3.020
 4128TIP3    H112390   4.798   3.574   3.050
 4128TIP3    H212391   4.852   3.507   2.926
 4129TIP3   OH212392   3.449   5.522   4.898
 4129TIP3    H112393   3.502   5.530   4.977
 4129TIP3    H212394   3.419   5.432   4.898
 4130TIP3   OH212395   0.299   4.328   2.528
 4130TIP3    H112396   0.324   4.244   2.489
 4130TIP3    H212397   0.203   4.327   2.527
 4131TIP3   OH212398   5.705   4.027   5.145
 4131TIP3    H112399   5.773   3.990   5.088
 4131TIP3    H212400   5.687   4.113   5.108
 4132TIP3   OH212401   1.360   1.531   1.975
 4132TIP3    H112402   1.450   1.510   1.952
 4132TIP3    H212403   1.308   1.467   1.927
 4133TIP3   OH212404   3.026   5.744   1.197
 4133TIP3    H112405   3.066   5.806   1.136
 4133TIP3    H212406   3.045   5.658   1.160
 4134TIP3   OH212407   5.337   4.213   1.315
 4134TIP3    H112408   5.268   4.249   1.371
 4134TIP3    H212409   5.316   4.246   1.228
 4135TIP3   OH212410   6.020   1.548   5.035
 4135TIP3    H112411   6.107   1.576   5.006
 4135TIP3    H212412   5.961   1.583   4.968
 4136TIP3   OH212413   5.458   0.974   3.433
 4136TIP3    H112414   5.516   0.941   3.364
 4136TIP3    H212415   5.381   1.006   3.386
 4137TIP3   OH212416   3.273   3.466   3.347
 4137TIP3    H112417   3.352   3.444   3.298
 4137TIP3    H212418   3.283   3.419   3.430
 4138TIP3   OH212419   4.940   5.299   3.701
 4138TIP3    H112420   4.961   5.382   3.658
 4138TIP3    H212421   4.969   5.232   3.638
 4139TIP3   OH212422   4.296   3.275   2.989
 4139TIP3    H112423   4.364   3.222   2.947
 4139TIP3    H212424   4.334   3.301   3.072
 4140TIP3   OH212425   5.616   2.874   1.787
 4140TIP3    H112426   5.605   2.969   1.774
 4140TIP3    H212427   5.691   2.867   1.846
 4141TIP3   OH212428   2.816   1.426   5.128
 4141TIP3    H112429   2.875   1.352   5.141
 4141TIP3    H212430   2.798   1.426   5.034
 4142TIP3   OH212431   4.111   0.973   0.364
 4142TIP3    H112432   4.168   1.021   0.424
 4142TIP3    H212433   4.169   0.908   0.324
 4143TIP3   OH212434   3.064   1.699   1.854
 4143TIP3    H112435   3.113   1.689   1.772
 4143TIP3    H212436   3.097   1.781   1.892
 4144TIP3   OH212437   4.448   3.468   2.578
 4144TIP3    H112438   4.541   3.488   2.587
 4144TIP3    H212439   4.439   3.435   2.489
 4145TIP3   OH212440   4.442   2.141   5.134
 4145TIP3    H112441   4.531   2.167   5.108
 4145TIP3    H212442   4.385   2.199   5.084
 4146TIP3   OH212443   4.429   1.303   4.793
 4146TIP3    H112444   4.520   1.273   4.792
 4146TIP3    H212445   4.423   1.359   4.870
 4147TIP3   OH212446   5.857   1.985   2.281
 4147TIP3    H112447   5.925   2.052   2.290
 4147TIP3    H212448   5.789   2.011   2.343
 4148TIP3   OH212449   5.993   1.286   2.760
 4148TIP3    H112450   5.998   1.319   2.670
 4148TIP3    H212451   6.082   1.257   2.780
 4149TIP3   OH212452   1.513   1.486   2.571
 4149TIP3    H112453   1.577   1.429   2.615
 4149TIP3    H212454   1.525   1.571   2.613
 4150TIP3   OH212455   2.713   1.014   1.512
 4150TIP3    H112456   2.686   0.923   1.523
 4150TIP3    H212457   2.644   1.053   1.458
 4151TIP3   OH212458   1.269   0.027   2.976
 4151TIP3    H112459   1.319   0.109   2.969
 4151TIP3    H212460   1.218   0.023   2.896
 4152TIP3   OH212461   4.981   4.743   2.541
 4152TIP3    H112462   5.030   4.690   2.477
 4152TIP3    H212463   4.972   4.829   2.499
 4153TIP3   OH212464   2.868   3.569   2.091
 4153TIP3    H112465   2.895   3.484   2.124
 4153TIP3    H212466   2.824   3.549   2.008
 4154TIP3   OH212467   3.235   2.397   3.422
 4154TIP3    H112468   3.235   2.485   3.459
 4154TIP3    H212469   3.183   2.345   3.483
 4155TIP3   OH212470   4.884   4.376   0.198
 4155TIP3    H112471   4.874   4.385   0.103
 4155TIP3    H212472   4.872   4.465   0.232
 4156TIP3   OH212473   3.748   2.089   3.745
 4156TIP3    H112474   3.759   2.145   3.668
 4156TIP3    H212475   3.787   2.139   3.816
 4157TIP3   OH212476   0.798   0.673   3.302
 4157TIP3    H112477   0.733   0.697   3.368
 4157TIP3    H212478   0.846   0.754   3.286
 4158TIP3   OH212479   5.355   4.124   4.716
 4158TIP3    H112480   5.328   4.046   4.764
 4158TIP3    H212481   5.340   4.103   4.624
 4159TIP3   OH212482   2.762   0.554   4.426
 4159TIP3    H112483   2.745   0.560   4.520
 4159TIP3    H212484   2.810   0.472   4.415
 4160TIP3   OH212485   1.297   4.963   4.349
 4160TIP3    H112486   1.290   4.943   4.442
 4160TIP3    H212487   1.267   4.883   4.305
 4161TIP3   OH212488   4.232   2.662   4.503
 4161TIP3    H112489   4.259   2.643   4.413
 4161TIP3    H212490   4.292   2.731   4.531
 4162TIP3   OH212491   2.275   0.780   4.969
 4162TIP3    H112492   2.360   0.749   4.938
 4162TIP3    H212493   2.283   0.778   5.065
 4163TIP3   OH212494   6.313   3.533   2.803
 4163TIP3    H112495   6.396   3.506   2.765
 4163TIP3    H212496   6.259   3.557   2.727
 4164TIP3   OH212497   2.838   4.223   1.496
 4164TIP3    H112498   2.760   4.174   1.524
 4164TIP3    H212499   2.805   4.286   1.432
 4165TIP3   OH212500   6.246   5.565   2.372
 4165TIP3    H112501   6.245   5.473   2.348
 4165TIP3    H212502   6.156   5.585   2.398
 4166TIP3   OH212503   2.247   4.455   4.061
 4166TIP3    H112504   2.229   4.466   3.967
 4166TIP3    H212505   2.209   4.369   4.082
 4167TIP3   OH212506   3.487   3.727   1.698
 4167TIP3    H112507   3.578   3.755   1.691
 4167TIP3    H212508   3.458   3.760   1.782
 4168TIP3   OH212509   5.832   2.501   0.882
 4168TIP3    H112510   5.923   2.508   0.853
 4168TIP3    H212511   5.803   2.592   0.892
 4169TIP3   OH212512   0.856   4.287   4.187
 4169TIP3    H112513   0.920   4.340   4.235
 4169TIP3    H212514   0.799   4.351   4.144
 4170TIP3   OH212515   0.101   1.640   2.334
 4170TIP3    H112516   0.051   1.599   2.263
 4170TIP3    H212517   0.184   1.594   2.335
 4171TIP3   OH212518   2.788   4.497   3.212
 4171TIP3    H112519   2.733   4.566   3.249
 4171TIP3    H212520   2.727   4.438   3.168
 4172TIP3   OH212521   4.020   2.514   2.867
 4172TIP3    H112522   4.098   2.550   2.824
 4172TIP3    H212523   4.052   2.434   2.909
 4173TIP3   OH212524   5.215   1.339   1.372
 4173TIP3    H112525   5.236   1.331   1.279
 4173TIP3    H212526   5.121   1.326   1.377
 4174TIP3   OH212527   3.643   0.254   2.486
 4174TIP3    H112528   3.559   0.253   2.531
 4174TIP3    H212529   3.687   0.174   2.515
 4175TIP3   OH212530   2.047   0.918   0.651
 4175TIP3    H112531   1.993   0.879   0.720
 4175TIP3    H212532   2.132   0.932   0.693
 4176TIP3   OH212533   3.826   5.008   0.487
 4176TIP3    H112534   3.866   5.091   0.459
 4176TIP3    H212535   3.859   4.944   0.424
 4177TIP3   OH212536   0.506   4.249   0.441
 4177TIP3    H112537   0.510   4.276   0.532
 4177TIP3    H212538   0.545   4.161   0.441
 4178TIP3   OH212539   3.543   1.906   2.048
 4178TIP3    H112540   3.506   1.902   2.136
 4178TIP3    H212541   3.588   1.822   2.036
 4179TIP3   OH212542   5.663   1.835   2.100
 4179TIP3    H112543   5.715   1.847   2.179
 4179TIP3    H212544   5.654   1.740   2.092
 4180TIP3   OH212545   1.528   4.971   1.583
 4180TIP3    H112546   1.494   5.031   1.516
 4180TIP3    H212547   1.473   4.893   1.576
 4181TIP3   OH212548   1.080   2.155   1.984
 4181TIP3    H112549   1.098   2.248   1.994
 4181TIP3    H212550   0.987   2.151   1.959
 4182TIP3   OH212551   1.375   5.214   1.775
 4182TIP3    H112552   1.307   5.157   1.811
 4182TIP3    H212553   1.377   5.193   1.682
 4183TIP3   OH212554   4.801   2.405   2.350
 4183TIP3    H112555   4.887   2.445   2.336
 4183TIP3    H212556   4.812   2.352   2.429
 4184TIP3   OH212557   6.264   0.218   3.675
 4184TIP3    H112558   6.230   0.143   3.724
 4184TIP3    H212559   6.349   0.237   3.715
 4185TIP3   OH212560   3.714   5.960   2.981
 4185TIP3    H112561   3.764   5.896   2.930
 4185TIP3    H212562   3.644   5.988   2.922
 4186TIP3   OH212563   5.271   3.028   2.838
 4186TIP3    H112564   5.246   3.021   2.746
 4186TIP3    H212565   5.283   3.122   2.853
 4187TIP3   OH212566   2.374   3.227   4.735
 4187TIP3    H112567   2.405   3.312   4.766
 4187TIP3    H212568   2.340   3.244   4.647
 4188TIP3   OH212569   6.124   4.846   2.166
 4188TIP3    H112570   6.189   4.826   2.233
 4188TIP3    H212571   6.150   4.794   2.090
 4189TIP3   OH212572   1.546   2.158   4.050
 4189TIP3    H112573   1.588   2.121   4.127
 4189TIP3    H212574   1.489   2.227   4.084
 4190TIP3   OH212575   4.938   3.586   4.817
 4190TIP3    H112576   4.857   3.637   4.812
 4190TIP3    H212577   4.946   3.564   4.910
 4191TIP3   OH212578   5.343   5.846   2.528
 4191TIP3    H112579   5.345   5.793   2.608
 4191TIP3    H212580   5.324   5.784   2.458
 4192TIP3   OH212581   3.538   1.369   2.424
 4192TIP3    H112582   3.479   1.443   2.415
 4192TIP3    H212583   3.615   1.393   2.373
 4193TIP3   OH212584   1.551   5.704   0.951
 4193TIP3    H112585   1.559   5.797   0.933
 4193TIP3    H212586   1.456   5.689   0.956
 4194TIP3   OH212587   3.273   0.793   3.407
 4194TIP3    H112588   3.350   0.754   3.365
 4194TIP3    H212589   3.283   0.773   3.500
 4195TIP3   OH212590   4.869   4.643   3.677
 4195TIP3    H112591   4.833   4.588   3.607
 4195TIP3    H212592   4.963   4.624   3.677
 4196TIP3   OH212593   0.877   1.919   0.184
 4196TIP3    H112594   0.821   1.905   0.261
 4196TIP3    H212595   0.832   1.873   0.114
 4197TIP3   OH212596   0.453   1.390   4.964
 4197TIP3    H112597   0.406   1.369   4.884
 4197TIP3    H212598   0.443   1.311   5.018
 4198TIP3   OH212599   5.775   5.367   1.618
 4198TIP3    H112600   5.808   5.429   1.552
 4198TIP3    H212601   5.848   5.357   1.679
 4199TIP3   OH212602   0.490   4.231   1.568
 4199TIP3    H112603   0.494   4.141   1.599
 4199TIP3    H212604   0.397   4.251   1.565
 4200TIP3   OH212605   5.067   2.451   2.275
 4200TIP3    H112606   5.071   2.492   2.189
 4200TIP3    H212607   5.061   2.357   2.257
 4201TIP3   OH212608   4.773   0.024   2.225
 4201TIP3    H112609   4.801   0.112   2.200
 4201TIP3    H212610   4.698   0.039   2.283
 4202TIP3   OH212611   1.308   3.268   0.827
 4202TIP3    H112612   1.369   3.334   0.859
 4202TIP3    H212613   1.292   3.292   0.736
 4203TIP3   OH212614   6.176   1.669   3.010
 4203TIP3    H112615   6.114   1.724   3.058
 4203TIP3    H212616   6.245   1.648   3.074
 4204TIP3   OH212617   3.729   3.813   2.055
 4204TIP3    H112618   3.779   3.891   2.081
 4204TIP3    H212619   3.795   3.746   2.040
 4205TIP3   OH212620   5.426   4.681   0.162
 4205TIP3    H112621   5.460   4.593   0.174
 4205TIP3    H212622   5.484   4.737   0.215
 4206TIP3   OH212623   0.177   4.353   1.930
 4206TIP3    H112624   0.239   4.425   1.922
 4206TIP3    H212625   0.228   4.275   1.906
 4207TIP3   OH212626   3.877   0.798   2.368
 4207TIP3    H112627   3.789   0.827   2.391
 4207TIP3    H212628   3.865   0.734   2.299
 4208TIP3   OH212629   1.920   0.221   4.965
 4208TIP3    H112630   1.995   0.163   4.976
 4208TIP3    H212631   1.882   0.196   4.880
 4209TIP3   OH212632   3.626   2.633   4.914
 4209TIP3    H112633   3.693   2.672   4.859
 4209TIP3    H212634   3.624   2.687   4.993
 4210TIP3   OH212635   2.703   0.364   5.108
 4210TIP3    H112636   2.651   0.436   5.143
 4210TIP3    H212637   2.640   0.294   5.091
 4211TIP3   OH212638   1.201   5.947   0.951
 4211TIP3    H112639   1.198   5.946   0.855
 4211TIP3    H212640   1.276   6.003   0.971
 4212TIP3   OH212641   0.055   1.024  -0.026
 4212TIP3    H112642   0.025   0.955   0.032
 4212TIP3    H212643   0.049   1.104   0.026
 4213TIP3   OH212644   2.900   0.484   4.899
 4213TIP3    H112645   2.816   0.464   4.941
 4213TIP3    H212646   2.908   0.418   4.830
 4214TIP3   OH212647   4.405   1.152   1.379
 4214TIP3    H112648   4.462   1.126   1.306
 4214TIP3    H212649   4.418   1.083   1.444
 4215TIP3   OH212650   4.427   3.686   3.210
 4215TIP3    H112651   4.357   3.633   3.172
 4215TIP3    H212652   4.432   3.657   3.301
 4216TIP3   OH212653   1.129   1.743   0.154
 4216TIP3    H112654   1.085   1.665   0.188
 4216TIP3    H212655   1.062   1.788   0.103
 4217TIP3   OH212656   1.510   2.072   2.426
 4217TIP3    H112657   1.550   1.985   2.424
 4217TIP3    H212658   1.438   2.065   2.489
 4218TIP3   OH212659   0.969   2.848   4.564
 4218TIP3    H112660   1.044   2.889   4.606
 4218TIP3    H212661   0.996   2.835   4.473
 4219TIP3   OH212662   0.214   2.724   3.300
 4219TIP3    H112663   0.129   2.725   3.256
 4219TIP3    H212664   0.275   2.694   3.232
 4220TIP3   OH212665   6.212   4.864   0.759
 4220TIP3    H112666   6.248   4.796   0.816
 4220TIP3    H212667   6.192   4.820   0.677
 4221TIP3   OH212668   6.206   1.042   1.993
 4221TIP3    H112669   6.255   1.081   2.066
 4221TIP3    H212670   6.170   1.116   1.945
 4222TIP3   OH212671   5.183   2.966   1.306
 4222TIP3    H112672   5.213   2.969   1.397
 4222TIP3    H212673   5.244   2.905   1.263
 4223TIP3   OH212674   0.663   0.438   2.156
 4223TIP3    H112675   0.619   0.400   2.080
 4223TIP3    H212676   0.633   0.529   2.158
 4224TIP3   OH212677   2.210   4.824   0.314
 4224TIP3    H112678   2.170   4.845   0.399
 4224TIP3    H212679   2.158   4.751   0.280
 4225TIP3   OH212680   0.417   0.840   0.695
 4225TIP3    H112681   0.398   0.924   0.738
 4225TIP3    H212682   0.473   0.863   0.621
 4226TIP3   OH212683   3.039   0.255   3.030
 4226TIP3    H112684   2.970   0.194   3.003
 4226TIP3    H212685   3.106   0.199   3.071
 4227TIP3   OH212686   5.280   5.264   4.243
 4227TIP3    H112687   5.207   5.291   4.187
 4227TIP3    H212688   5.262   5.172   4.262
 4228TIP3   OH212689   4.583   5.063   0.835
 4228TIP3    H112690   4.525   5.110   0.775
 4228TIP3    H212691   4.668   5.106   0.826
 4229TIP3   OH212692   3.370   5.309   4.369
 4229TIP3    H112693   3.304   5.375   4.349
 4229TIP3    H212694   3.371   5.305   4.465
 4230TIP3   OH212695   5.260   4.375   0.747
 4230TIP3    H112696   5.272   4.280   0.752
 4230TIP3    H212697   5.233   4.391   0.657
 4231TIP3   OH212698   5.450   1.563   4.262
 4231TIP3    H112699   5.494   1.631   4.313
 4231TIP3    H212700   5.511   1.542   4.192
 4232TIP3   OH212701   6.326   3.225   2.962
 4232TIP3    H112702   6.413   3.188   2.943
 4232TIP3    H212703   6.267   3.179   2.902
 4233TIP3   OH212704   6.049   0.606   0.909
 4233TIP3    H112705   6.140   0.576   0.911
 4233TIP3    H212706   6.055   0.701   0.904
 4234TIP3   OH212707   0.763   5.989   1.986
 4234TIP3    H112708   0.780   5.900   2.017
 4234TIP3    H212709   0.801   5.991   1.898
 4235TIP3   OH212710   1.916   0.491   1.114
 4235TIP3    H112711   1.854   0.433   1.157
 4235TIP3    H212712   1.862   0.565   1.083
 4236TIP3   OH212713   5.187   0.505   3.648
 4236TIP3    H112714   5.233   0.537   3.570
 4236TIP3    H212715   5.201   0.410   3.645
 4237TIP3   OH212716   1.341   3.678   4.518
 4237TIP3    H112717   1.295   3.683   4.434
 4237TIP3    H212718   1.420   3.628   4.500
 4238TIP3   OH212719   1.161   5.741   3.066
 4238TIP3    H112720   1.075   5.704   3.048
 4238TIP3    H212721   1.190   5.776   2.982
 4239TIP3   OH212722   3.156   5.484   2.431
 4239TIP3    H112723   3.179   5.577   2.427
 4239TIP3    H212724   3.224   5.444   2.485
 4240TIP3   OH212725   3.629   1.488   2.658
 4240TIP3    H112726   3.556   1.491   2.719
 4240TIP3    H212727   3.593   1.445   2.580
 4241TIP3   OH212728   4.685   5.230   3.181
 4241TIP3    H112729   4.669   5.140   3.151
 4241TIP3    H212730   4.599   5.262   3.207
 4242TIP3   OH212731   0.023   2.118   0.322
 4242TIP3    H112732   0.092   2.129   0.257
 4242TIP3    H212733   0.023   2.024   0.342
 4243TIP3   OH212734   1.179   4.600   1.009
 4243TIP3    H112735   1.176   4.667   1.078
 4243TIP3    H212736   1.147   4.521   1.052
 4244TIP3   OH212737   5.384   3.947   3.643
 4244TIP3    H112738   5.334   3.931   3.563
 4244TIP3    H212739   5.472   3.969   3.612
 4245TIP3   OH212740   3.562   4.189   1.168
 4245TIP3    H112741   3.580   4.145   1.085
 4245TIP3    H212742   3.486   4.245   1.150
 4246TIP3   OH212743   2.967   1.601   3.653
 4246TIP3    H112744   3.034   1.625   3.589
 4246TIP3    H212745   3.002   1.632   3.737
 4247TIP3   OH212746   5.209   3.881   3.990
 4247TIP3    H112747   5.206   3.819   3.918
 4247TIP3    H212748   5.119   3.912   4.000
 4248TIP3   OH212749   0.730   4.789   1.349
 4248TIP3    H112750   0.751   4.699   1.323
 4248TIP3    H212751   0.747   4.791   1.443
 4249TIP3   OH212752   0.005   4.746   2.653
 4249TIP3    H112753  -0.015   4.723   2.743
 4249TIP3    H212754   0.099   4.732   2.644
 4250TIP3   OH212755   1.606   3.195   2.951
 4250TIP3    H112756   1.621   3.216   3.044
 4250TIP3    H212757   1.517   3.160   2.949
 4251TIP3   OH212758   0.066   3.800   0.394
 4251TIP3    H112759   0.021   3.835   0.317
 4251TIP3    H212760   0.027   3.848   0.468
 4252TIP3   OH212761   5.056   5.087   3.548
 4252TIP3    H112762   5.024   5.060   3.462
 4252TIP3    H212763   5.132   5.032   3.564
 4253TIP3   OH212764   6.124   1.769   2.215
 4253TIP3    H112765   6.171   1.812   2.144
 4253TIP3    H212766   6.158   1.812   2.294
 4254TIP3   OH212767   5.447   5.569   3.482
 4254TIP3    H112768   5.424   5.482   3.451
 4254TIP3    H212769   5.370   5.623   3.463
 4255TIP3   OH212770   4.061   3.757   1.080
 4255TIP3    H112771   4.114   3.680   1.104
 4255TIP3    H212772   4.085   3.824   1.144
 4256TIP3   OH212773   1.303   4.066   4.832
 4256TIP3    H112774   1.356   4.126   4.781
 4256TIP3    H212775   1.364   4.025   4.893
 4257TIP3   OH212776   4.313   6.013   2.970
 4257TIP3    H112777   4.295   5.925   3.003
 4257TIP3    H212778   4.271   6.016   2.885
 4258TIP3   OH212779   2.125   2.150   3.539
 4258TIP3    H112780   2.064   2.220   3.514
 4258TIP3    H212781   2.170   2.127   3.457
 4259TIP3   OH212782   6.416   1.682   3.444
 4259TIP3    H112783   6.404   1.652   3.535
 4259TIP3    H212784   6.366   1.764   3.439
 4260TIP3   OH212785   5.998   0.809   1.193
 4260TIP3    H112786   5.976   0.835   1.282
 4260TIP3    H212787   5.923   0.758   1.164
 4261TIP3   OH212788   1.877   2.341   1.415
 4261TIP3    H112789   1.919   2.428   1.419
 4261TIP3    H212790   1.938   2.284   1.461
 4262TIP3   OH212791   4.744   0.390   1.450
 4262TIP3    H112792   4.659   0.403   1.493
 4262TIP3    H212793   4.808   0.409   1.518
 4263TIP3   OH212794   4.291   1.965   4.150
 4263TIP3    H112795   4.216   1.947   4.206
 4263TIP3    H212796   4.350   1.892   4.165
 4264TIP3   OH212797   4.565   3.149   1.195
 4264TIP3    H112798   4.609   3.082   1.143
 4264TIP3    H212799   4.597   3.136   1.284
 4265TIP3   OH212800   1.415   1.533   1.407
 4265TIP3    H112801   1.488   1.476   1.384
 4265TIP3    H212802   1.431   1.613   1.358
 4266TIP3   OH212803   3.623   3.548   4.011
 4266TIP3    H112804   3.644   3.487   4.083
 4266TIP3    H212805   3.636   3.497   3.932
 4267TIP3   OH212806   6.327   2.148   4.065
 4267TIP3    H112807   6.407   2.195   4.089
 4267TIP3    H212808   6.269   2.215   4.030
 4268TIP3   OH212809   0.699   2.520   0.558
 4268TIP3    H112810   0.612   2.483   0.546
 4268TIP3    H212811   0.750   2.490   0.483
 4269TIP3   OH212812   0.047   2.125   4.360
 4269TIP3    H112813   0.110   2.131   4.288
 4269TIP3    H212814   0.078   2.187   4.425
 4270TIP3   OH212815   4.739   1.225   3.923
 4270TIP3    H112816   4.749   1.292   3.990
 4270TIP3    H212817   4.775   1.264   3.843
 4271TIP3   OH212818   3.395   4.158   3.896
 4271TIP3    H112819   3.327   4.199   3.949
 4271TIP3    H212820   3.363   4.070   3.880
 4272TIP3   OH212821   3.022   4.966   0.976
 4272TIP3    H112822   3.036   4.914   1.054
 4272TIP3    H212823   3.001   4.902   0.908
 4273TIP3   OH212824   0.831   5.698   2.004
 4273TIP3    H112825   0.868   5.624   1.957
 4273TIP3    H212826   0.893   5.716   2.075
 4274TIP3   OH212827   3.912   5.414   4.167
 4274TIP3    H112828   3.871   5.485   4.117
 4274TIP3    H212829   3.898   5.336   4.115
 4275TIP3   OH212830   1.385   4.736   3.649
 4275TIP3    H112831   1.315   4.690   3.603
 4275TIP3    H212832   1.408   4.678   3.722
 4276TIP3   OH212833   2.531   2.122   0.047
 4276TIP3    H112834   2.526   2.159   0.136
 4276TIP3    H212835   2.529   2.028   0.060
 4277TIP3   OH212836   0.251   4.653   0.014
 4277TIP3    H112837   0.197   4.591  -0.036
 4277TIP3    H212838   0.295   4.600   0.080
 4278TIP3   OH212839   6.123   2.532   2.192
 4278TIP3    H112840   6.126   2.456   2.134
 4278TIP3    H212841   6.195   2.518   2.254
 4279TIP3   OH212842   3.079   3.835   4.425
 4279TIP3    H112843   3.149   3.895   4.452
 4279TIP3    H212844   3.101   3.753   4.468
 4280TIP3   OH212845   2.701   5.189   1.872
 4280TIP3    H112846   2.653   5.197   1.789
 4280TIP3    H212847   2.718   5.095   1.881
 4281TIP3   OH212848   4.240   0.293   1.327
 4281TIP3    H112849   4.238   0.259   1.416
 4281TIP3    H212850   4.328   0.271   1.296
 4282TIP3   OH212851   5.160   1.581   0.243
 4282TIP3    H112852   5.147   1.675   0.229
 4282TIP3    H212853   5.122   1.565   0.329
 4283TIP3   OH212854   4.704   2.558   2.789
 4283TIP3    H112855   4.611   2.535   2.783
 4283TIP3    H212856   4.710   2.644   2.747
 4284TIP3   OH212857   2.671   0.287   3.938
 4284TIP3    H112858   2.722   0.358   3.900
 4284TIP3    H212859   2.614   0.257   3.867
 4285TIP3   OH212860   3.665   5.124   2.856
 4285TIP3    H112861   3.713   5.064   2.800
 4285TIP3    H212862   3.677   5.089   2.945
 4286TIP3   OH212863   1.391   1.250   3.357
 4286TIP3    H112864   1.432   1.330   3.389
 4286TIP3    H212865   1.341   1.217   3.432
 4287TIP3   OH212866   5.603   2.367   2.792
 4287TIP3    H112867   5.562   2.301   2.736
 4287TIP3    H212868   5.671   2.406   2.736
 4288TIP3   OH212869   3.410   1.439   0.950
 4288TIP3    H112870   3.488   1.492   0.932
 4288TIP3    H212871   3.429   1.397   1.034
 4289TIP3   OH212872   2.486   3.921   0.327
 4289TIP3    H112873   2.558   3.982   0.314
 4289TIP3    H212874   2.527   3.835   0.334
 4290TIP3   OH212875   2.207   2.804   4.278
 4290TIP3    H112876   2.207   2.709   4.274
 4290TIP3    H212877   2.276   2.831   4.218
 4291TIP3   OH212878   0.706   4.711   0.528
 4291TIP3    H112879   0.746   4.648   0.466
 4291TIP3    H212880   0.683   4.786   0.473
 4292TIP3   OH212881   1.814   2.728   2.758
 4292TIP3    H112882   1.778   2.689   2.678
 4292TIP3    H212883   1.738   2.759   2.806
 4293TIP3   OH212884   0.449   2.505   2.143
 4293TIP3    H112885   0.480   2.426   2.188
 4293TIP3    H212886   0.363   2.480   2.109
 4294TIP3   OH212887   4.802   1.720   2.231
 4294TIP3    H112888   4.849   1.656   2.286
 4294TIP3    H212889   4.715   1.724   2.270
 4295TIP3   OH212890   5.164   1.341   2.685
 4295TIP3    H112891   5.104   1.325   2.612
 4295TIP3    H212892   5.197   1.255   2.708
 4296TIP3   OH212893   1.783   1.054   4.486
 4296TIP3    H112894   1.841   1.105   4.430
 4296TIP3    H212895   1.830   0.971   4.498
 4297TIP3   OH212896   3.730   4.958   0.732
 4297TIP3    H112897   3.758   4.996   0.649
 4297TIP3    H212898   3.808   4.916   0.767
 4298TIP3   OH212899   2.975   4.729   0.469
 4298TIP3    H112900   3.039   4.674   0.425
 4298TIP3    H212901   2.991   4.817   0.433
 4299TIP3   OH212902   0.478   0.036   3.208
 4299TIP3    H112903   0.544  -0.027   3.178
 4299TIP3    H212904   0.527   0.096   3.264
 4300TIP3   OH212905   4.939   1.425   2.943
 4300TIP3    H112906   4.985   1.473   3.012
 4300TIP3    H212907   4.973   1.462   2.861
 4301TIP3   OH212908   0.124   5.671   4.624
 4301TIP3    H112909   0.217   5.648   4.634
 4301TIP3    H212910   0.082   5.589   4.599
 4302TIP3   OH212911   2.025   5.265   3.084
 4302TIP3    H112912   1.969   5.203   3.038
 4302TIP3    H212913   1.967   5.304   3.150
 4303TIP3   OH212914   2.016   0.362   1.470
 4303TIP3    H112915   1.975   0.444   1.440
 4303TIP3    H212916   1.958   0.332   1.540
 4304TIP3   OH212917   1.210   3.961   2.518
 4304TIP3    H112918   1.234   3.882   2.566
 4304TIP3    H212919   1.147   3.932   2.452
 4305TIP3   OH212920   0.882   3.617   3.764
 4305TIP3    H112921   0.897   3.650   3.675
 4305TIP3    H212922   0.887   3.522   3.756
 4306TIP3   OH212923   0.495   3.546   3.996
 4306TIP3    H112924   0.548   3.506   3.927
 4306TIP3    H212925   0.541   3.524   4.077
 4307TIP3   OH212926   0.821   0.043   4.480
 4307TIP3    H112927   0.784   0.130   4.462
 4307TIP3    H212928   0.750  -0.018   4.458
 4308TIP3   OH212929   2.631   0.867   0.468
 4308TIP3    H112930   2.641   0.820   0.386
 4308TIP3    H212931   2.547   0.836   0.503
 4309TIP3   OH212932   0.339   3.600   1.056
 4309TIP3    H112933   0.350   3.523   1.000
 4309TIP3    H212934   0.335   3.674   0.996
 4310TIP3   OH212935   0.377   4.711   4.461
 4310TIP3    H112936   0.300   4.768   4.459
 4310TIP3    H212937   0.379   4.676   4.550
 4311TIP3   OH212938   4.111   4.559   0.299
 4311TIP3    H112939   4.113   4.468   0.267
 4311TIP3    H212940   4.138   4.611   0.223
 4312TIP3   OH212941   3.739   0.767   1.480
 4312TIP3    H112942   3.647   0.787   1.463
 4312TIP3    H212943   3.781   0.853   1.489
 4313TIP3   OH212944   5.172   1.068   1.824
 4313TIP3    H112945   5.205   1.120   1.751
 4313TIP3    H212946   5.118   1.129   1.875
 4314TIP3   OH212947   4.980   1.628   0.458
 4314TIP3    H112948   4.952   1.714   0.424
 4314TIP3    H212949   5.007   1.646   0.548
 4315TIP3   OH212950   5.229   5.965   4.848
 4315TIP3    H112951   5.300   5.914   4.887
 4315TIP3    H212952   5.180   5.999   4.923
 4316TIP3   OH212953   3.673   0.539   0.329
 4316TIP3    H112954   3.719   0.470   0.376
 4316TIP3    H212955   3.581   0.526   0.352
 4317TIP3   OH212956   2.717   4.966   2.049
 4317TIP3    H112957   2.733   5.008   2.134
 4317TIP3    H212958   2.787   4.902   2.041
 4318TIP3   OH212959   4.123   4.444   3.330
 4318TIP3    H112960   4.067   4.391   3.387
 4318TIP3    H212961   4.074   4.526   3.320
 4319TIP3   OH212962   6.020   2.437   4.686
 4319TIP3    H112963   6.043   2.440   4.778
 4319TIP3    H212964   6.052   2.520   4.650
 4320TIP3   OH212965   2.997   2.509   4.049
 4320TIP3    H112966   3.045   2.558   4.115
 4320TIP3    H212967   2.925   2.468   4.097
 4321TIP3   OH212968   1.035   5.182   1.719
 4321TIP3    H112969   0.940   5.172   1.712
 4321TIP3    H212970   1.067   5.169   1.629
 4322TIP3   OH212971   0.115   3.454   2.558
 4322TIP3    H112972   0.158   3.376   2.595
 4322TIP3    H212973   0.185   3.502   2.514
 4323TIP3   OH212974   2.659   3.667   2.812
 4323TIP3    H112975   2.583   3.723   2.797
 4323TIP3    H212976   2.693   3.648   2.725
 4324TIP3   OH212977   1.603   5.820   2.501
 4324TIP3    H112978   1.666   5.765   2.454
 4324TIP3    H212979   1.631   5.910   2.481
 4325TIP3   OH212980   2.346   3.596   3.443
 4325TIP3    H112981   2.381   3.556   3.364
 4325TIP3    H212982   2.418   3.593   3.506
 4326TIP3   OH212983   4.246   2.605   0.352
 4326TIP3    H112984   4.324   2.656   0.330
 4326TIP3    H212985   4.280   2.523   0.388
 4327TIP3   OH212986   2.101   2.802   2.255
 4327TIP3    H112987   2.093   2.716   2.215
 4327TIP3    H212988   2.061   2.862   2.191
 4328TIP3   OH212989   2.304   1.206   2.352
 4328TIP3    H112990   2.362   1.133   2.333
 4328TIP3    H212991   2.286   1.245   2.266
 4329TIP3   OH212992   0.189   1.809   3.763
 4329TIP3    H112993   0.105   1.783   3.725
 4329TIP3    H212994   0.183   1.904   3.773
 4330TIP3   OH212995   3.894   3.646   3.972
 4330TIP3    H112996   3.841   3.587   4.025
 4330TIP3    H212997   3.978   3.650   4.017
 4331TIP3   OH212998   1.034   1.419   0.501
 4331TIP3    H112999   1.013   1.431   0.593
 4331TIP3    H213000   1.113   1.472   0.487
 4332TIP3   OH213001   5.634   1.510   4.058
 4332TIP3    H113002   5.637   1.434   4.000
 4332TIP3    H213003   5.599   1.580   4.003
 4333TIP3   OH213004   4.767   0.772   3.994
 4333TIP3    H113005   4.710   0.738   3.925
 4333TIP3    H213006   4.855   0.760   3.960
 4334TIP3   OH213007   3.985   5.256   1.862
 4334TIP3    H113008   3.908   5.305   1.834
 4334TIP3    H213009   4.004   5.196   1.790
 4335TIP3   OH213010   4.422   3.028   1.815
 4335TIP3    H113011   4.330   3.036   1.789
 4335TIP3    H213012   4.458   3.116   1.800
 4336TIP3   OH213013   3.374   3.390   2.442
 4336TIP3    H113014   3.340   3.393   2.532
 4336TIP3    H213015   3.385   3.297   2.424
 4337TIP3   OH213016   4.956   4.309   2.116
 4337TIP3    H113017   5.044   4.346   2.117
 4337TIP3    H213018   4.905   4.370   2.062
 4338TIP3   OH213019   4.993   4.209   4.738
 4338TIP3    H113020   4.903   4.178   4.753
 4338TIP3    H213021   5.038   4.132   4.703
 4339TIP3   OH213022   5.582   2.722   2.482
 4339TIP3    H113023   5.584   2.635   2.442
 4339TIP3    H213024   5.573   2.704   2.576
 4340TIP3   OH213025   4.365   0.024   1.137
 4340TIP3    H113026   4.416   0.021   1.056
 4340TIP3    H213027   4.406   0.094   1.188
 4341TIP3   OH213028   5.075   1.243   4.425
 4341TIP3    H113029   5.099   1.314   4.365
 4341TIP3    H213030   5.111   1.165   4.383
 4342TIP3   OH213031   1.688   0.832   2.939
 4342TIP3    H113032   1.780   0.831   2.912
 4342TIP3    H213033   1.676   0.752   2.989
 4343TIP3   OH213034   2.455   1.844   0.571
 4343TIP3    H113035   2.384   1.891   0.614
 4343TIP3    H213036   2.535   1.886   0.605
 4344TIP3   OH213037   4.384   3.490   4.105
 4344TIP3    H113038   4.399   3.531   4.019
 4344TIP3    H213039   4.379   3.563   4.166
 4345TIP3   OH213040   4.816   5.848   2.225
 4345TIP3    H113041   4.723   5.864   2.205
 4345TIP3    H213042   4.862   5.916   2.176
 4346TIP3   OH213043   5.891   5.115   1.185
 4346TIP3    H113044   5.917   5.115   1.093
 4346TIP3    H213045   5.821   5.051   1.190
 4347TIP3   OH213046   1.592   4.496   3.173
 4347TIP3    H113047   1.546   4.505   3.257
 4347TIP3    H213048   1.642   4.577   3.165
 4348TIP3   OH213049   5.901   1.743   3.774
 4348TIP3    H113050   5.865   1.712   3.857
 4348TIP3    H213051   5.852   1.823   3.755
 4349TIP3   OH213052   6.201   1.813   0.267
 4349TIP3    H113053   6.135   1.779   0.327
 4349TIP3    H213054   6.284   1.807   0.315
 4350TIP3   OH213055   0.853   0.276   0.822
 4350TIP3    H113056   0.906   0.246   0.895
 4350TIP3    H213057   0.888   0.362   0.800
 4351TIP3   OH213058   2.004   1.131   3.753
 4351TIP3    H113059   2.049   1.182   3.820
 4351TIP3    H213060   1.983   1.194   3.685
 4352TIP3   OH213061   2.120   4.526   0.626
 4352TIP3    H113062   2.033   4.492   0.607
 4352TIP3    H213063   2.178   4.477   0.568
 4353TIP3   OH213064   1.279   1.512   4.963
 4353TIP3    H113065   1.354   1.469   5.004
 4353TIP3    H213066   1.307   1.602   4.950
 4354TIP3   OH213067   1.744   5.862   2.032
 4354TIP3    H113068   1.797   5.840   1.955
 4354TIP3    H213069   1.807   5.891   2.098
 4355TIP3   OH213070   3.298   2.643   2.869
 4355TIP3    H113071   3.329   2.623   2.957
 4355TIP3    H213072   3.202   2.642   2.876
 4356TIP3   OH213073   0.451   1.239   1.060
 4356TIP3    H113074   0.396   1.213   1.134
 4356TIP3    H213075   0.458   1.334   1.068
 4357TIP3   OH213076   6.353   1.949   1.032
 4357TIP3    H113077   6.282   1.966   1.094
 4357TIP3    H213078   6.366   2.032   0.987
 4358TIP3   OH213079   1.281   4.289   3.900
 4358TIP3    H113080   1.230   4.369   3.910
 4358TIP3    H213081   1.215   4.221   3.884
 4359TIP3   OH213082   5.476   1.654   3.920
 4359TIP3    H113083   5.413   1.592   3.884
 4359TIP3    H213084   5.437   1.740   3.904
 4360TIP3   OH213085   0.376   4.981   3.002
 4360TIP3    H113086   0.420   4.997   2.919
 4360TIP3    H213087   0.287   4.955   2.978
 4361TIP3   OH213088   1.799   0.462   2.211
 4361TIP3    H113089   1.846   0.503   2.138
 4361TIP3    H213090   1.850   0.484   2.289
 4362TIP3   OH213091   1.991   0.893   2.527
 4362TIP3    H113092   2.044   0.969   2.553
 4362TIP3    H213093   2.007   0.885   2.433
 4363TIP3   OH213094   3.628   2.776   3.989
 4363TIP3    H113095   3.560   2.797   3.925
 4363TIP3    H213096   3.620   2.681   4.002
 4364TIP3   OH213097   3.499   1.582   1.796
 4364TIP3    H113098   3.553   1.660   1.809
 4364TIP3    H213099   3.561   1.515   1.768
 4365TIP3   OH213100   5.411   5.493   2.450
 4365TIP3    H113101   5.409   5.544   2.531
 4365TIP3    H213102   5.367   5.411   2.472
 4366TIP3   OH213103   1.637   3.723   3.697
 4366TIP3    H113104   1.576   3.670   3.645
 4366TIP3    H213105   1.591   3.738   3.780
 4367TIP3   OH213106   1.885   1.188   2.771
 4367TIP3    H113107   1.888   1.126   2.844
 4367TIP3    H213108   1.969   1.234   2.776
 4368TIP3   OH213109   4.255   1.927   1.829
 4368TIP3    H113110   4.265   1.854   1.768
 4368TIP3    H213111   4.266   2.006   1.776
 4369TIP3   OH213112   4.541   5.115   4.920
 4369TIP3    H113113   4.537   5.184   4.986
 4369TIP3    H213114   4.553   5.161   4.837
 4370TIP3   OH213115   1.358   5.324   3.220
 4370TIP3    H113116   1.359   5.373   3.138
 4370TIP3    H213117   1.412   5.246   3.203
 4371TIP3   OH213118   4.344   0.569   4.538
 4371TIP3    H113119   4.323   0.558   4.630
 4371TIP3    H213120   4.438   0.587   4.537
 4372TIP3   OH213121   3.461   0.785   4.158
 4372TIP3    H113122   3.466   0.872   4.198
 4372TIP3    H213123   3.367   0.769   4.146
 4373TIP3   OH213124   6.189   5.316   4.147
 4373TIP3    H113125   6.236   5.233   4.134
 4373TIP3    H213126   6.235   5.378   4.090
 4374TIP3   OH213127   5.965   3.087   4.567
 4374TIP3    H113128   5.992   3.138   4.491
 4374TIP3    H213129   6.040   3.029   4.584
 4375TIP3   OH213130   4.635   3.701   1.637
 4375TIP3    H113131   4.540   3.706   1.624
 4375TIP3    H213132   4.659   3.614   1.605
 4376TIP3   OH213133   4.842   5.576   3.077
 4376TIP3    H113134   4.797   5.594   3.160
 4376TIP3    H213135   4.791   5.504   3.038
 4377TIP3   OH213136   0.495   3.254   2.136
 4377TIP3    H113137   0.486   3.341   2.098
 4377TIP3    H213138   0.589   3.242   2.147
 4378TIP3   OH213139   6.355   3.047   1.647
 4378TIP3    H113140   6.389   3.126   1.689
 4378TIP3    H213141   6.275   3.075   1.604
 4379TIP3   OH213142   5.501   0.556   1.536
 4379TIP3    H113143   5.442   0.548   1.611
 4379TIP3    H213144   5.445   0.583   1.464
 4380TIP3   OH213145   0.573   0.217   3.008
 4380TIP3    H113146   0.638   0.277   3.045
 4380TIP3    H213147   0.543   0.165   3.083
 4381TIP3   OH213148   4.348   0.450   0.114
 4381TIP3    H113149   4.289   0.497   0.054
 4381TIP3    H213150   4.434   0.456   0.073
 4382TIP3   OH213151   3.735   3.174   4.386
 4382TIP3    H113152   3.721   3.096   4.333
 4382TIP3    H213153   3.781   3.142   4.464
 4383TIP3   OH213154   3.038   0.762   0.685
 4383TIP3    H113155   2.991   0.844   0.668
 4383TIP3    H213156   3.128   0.779   0.657
 4384TIP3   OH213157   3.617   0.213   2.158
 4384TIP3    H113158   3.620   0.136   2.215
 4384TIP3    H213159   3.573   0.280   2.210
 4385TIP3   OH213160   4.480   1.252   3.410
 4385TIP3    H113161   4.501   1.316   3.342
 4385TIP3    H213162   4.565   1.223   3.443
 4386TIP3   OH213163   1.886   5.276   3.683
 4386TIP3    H113164   1.967   5.230   3.701
 4386TIP3    H213165   1.912   5.368   3.676
 4387TIP3   OH213166   0.430   0.149   2.476
 4387TIP3    H113167   0.405   0.081   2.414
 4387TIP3    H213168   0.407   0.114   2.562
 4388TIP3   OH213169   4.743   4.094   1.411
 4388TIP3    H113170   4.768   4.155   1.480
 4388TIP3    H213171   4.676   4.141   1.361
 4389TIP3   OH213172   1.013   4.680   0.814
 4389TIP3    H113173   1.068   4.676   0.892
 4389TIP3    H213174   1.008   4.590   0.782
 4390TIP3   OH213175   2.591   3.430   1.428
 4390TIP3    H113176   2.656   3.498   1.410
 4390TIP3    H213177   2.636   3.348   1.407
 4391TIP3   OH213178   4.102   2.451   1.711
 4391TIP3    H113179   4.054   2.445   1.628
 4391TIP3    H213180   4.034   2.457   1.778
 4392TIP3   OH213181   2.164   1.583   3.828
 4392TIP3    H113182   2.240   1.571   3.772
 4392TIP3    H213183   2.109   1.645   3.781
 4393TIP3   OH213184   1.104   3.617   0.516
 4393TIP3    H113185   1.176   3.601   0.577
 4393TIP3    H213186   1.104   3.542   0.458
 4394TIP3   OH213187   2.838   0.962   0.641
 4394TIP3    H113188   2.782   0.925   0.573
 4394TIP3    H213189   2.812   1.054   0.646
 4395TIP3   OH213190   0.366   4.535   1.866
 4395TIP3    H113191   0.435   4.578   1.917
 4395TIP3    H213192   0.406   4.517   1.781
 4396TIP3   OH213193   4.851   5.288   2.466
 4396TIP3    H113194   4.911   5.263   2.395
 4396TIP3    H213195   4.788   5.216   2.469
 4397TIP3   OH213196   6.101   1.639   1.609
 4397TIP3    H113197   6.151   1.648   1.528
 4397TIP3    H213198   6.026   1.696   1.597
 4398TIP3   OH213199   6.183   2.372   4.017
 4398TIP3    H113200   6.089   2.391   4.017
 4398TIP3    H213201   6.220   2.435   3.955
 4399TIP3   OH213202   0.529   5.376   4.611
 4399TIP3    H113203   0.561   5.296   4.569
 4399TIP3    H213204   0.607   5.416   4.650
 4400TIP3   OH213205   0.176   4.889   1.533
 4400TIP3    H113206   0.142   4.975   1.507
 4400TIP3    H213207   0.115   4.858   1.600
 4401TIP3   OH213208   0.359   2.619   1.709
 4401TIP3    H113209   0.336   2.579   1.793
 4401TIP3    H213210   0.451   2.643   1.719
 4402TIP3   OH213211   2.826   5.904   2.565
 4402TIP3    H113212   2.742   5.949   2.557
 4402TIP3    H213213   2.889   5.962   2.524
 4403TIP3   OH213214   2.744   3.074   0.996
 4403TIP3    H113215   2.679   3.080   0.926
 4403TIP3    H213216   2.793   2.995   0.977
 4404TIP3   OH213217   0.627   0.251   4.416
 4404TIP3    H113218   0.570   0.325   4.440
 4404TIP3    H213219   0.579   0.206   4.346
 4405TIP3   OH213220   4.140   5.354   0.639
 4405TIP3    H113221   4.122   5.382   0.549
 4405TIP3    H213222   4.230   5.381   0.655
 4406TIP3   OH213223   0.824   1.237   3.352
 4406TIP3    H113224   0.887   1.228   3.280
 4406TIP3    H213225   0.745   1.273   3.310
 4407TIP3   OH213226   1.254   1.942   2.049
 4407TIP3    H113227   1.220   2.028   2.026
 4407TIP3    H213228   1.183   1.900   2.097
 4408TIP3   OH213229   0.196   0.017   1.000
 4408TIP3    H113230   0.223   0.108   1.009
 4408TIP3    H213231   0.252  -0.019   0.932
 4409TIP3   OH213232   4.986   5.548   1.908
 4409TIP3    H113233   5.006   5.593   1.990
 4409TIP3    H213234   4.902   5.505   1.923
 4410TIP3   OH213235   3.155   5.021   2.007
 4410TIP3    H113236   3.168   4.930   1.978
 4410TIP3    H213237   3.088   5.055   1.948
 4411TIP3   OH213238   2.373   2.314   3.125
 4411TIP3    H113239   2.380   2.246   3.057
 4411TIP3    H213240   2.464   2.342   3.139
 4412TIP3   OH213241   6.126   4.560   0.743
 4412TIP3    H113242   6.137   4.543   0.649
 4412TIP3    H213243   6.148   4.477   0.785
 4413TIP3   OH213244   0.607   5.477   3.554
 4413TIP3    H113245   0.646   5.511   3.635
 4413TIP3    H213246   0.537   5.538   3.533
 4414TIP3   OH213247   1.412   1.936   0.990
 4414TIP3    H113248   1.423   1.857   0.936
 4414TIP3    H213249   1.498   1.977   0.989
 4415TIP3   OH213250   5.287   4.735   4.588
 4415TIP3    H113251   5.294   4.830   4.590
 4415TIP3    H213252   5.360   4.706   4.533
 4416TIP3   OH213253   2.841   0.718   1.439
 4416TIP3    H113254   2.915   0.774   1.417
 4416TIP3    H213255   2.815   0.678   1.356
 4417TIP3   OH213256   5.447   0.708   2.180
 4417TIP3    H113257   5.455   0.644   2.109
 4417TIP3    H213258   5.391   0.777   2.144
 4418TIP3   OH213259   2.890   3.939   5.126
 4418TIP3    H113260   2.886   4.004   5.055
 4418TIP3    H213261   2.835   3.977   5.196
 4419TIP3   OH213262   4.579   1.159   4.491
 4419TIP3    H113263   4.652   1.139   4.431
 4419TIP3    H213264   4.582   1.254   4.502
 4420TIP3   OH213265   5.631   5.050   4.646
 4420TIP3    H113266   5.581   5.131   4.655
 4420TIP3    H213267   5.581   4.998   4.583
 4421TIP3   OH213268   5.580   5.732   3.718
 4421TIP3    H113269   5.675   5.720   3.708
 4421TIP3    H213270   5.556   5.671   3.788
 4422TIP3   OH213271   0.949   1.413   1.687
 4422TIP3    H113272   1.013   1.414   1.617
 4422TIP3    H213273   0.998   1.434   1.766
 4423TIP3   OH213274   0.256   3.730   3.721
 4423TIP3    H113275   0.292   3.664   3.663
 4423TIP3    H213276   0.275   3.813   3.677
 4424TIP3   OH213277   3.888   4.155   3.027
 4424TIP3    H113278   3.966   4.209   3.015
 4424TIP3    H213279   3.899   4.115   3.113
 4425TIP3   OH213280   2.083   1.371   3.979
 4425TIP3    H113281   2.159   1.318   4.004
 4425TIP3    H213282   2.121   1.452   3.945
 4426TIP3   OH213283   4.181   2.009   1.145
 4426TIP3    H113284   4.119   2.038   1.078
 4426TIP3    H213285   4.157   1.918   1.161
 4427TIP3   OH213286   4.529   5.273   3.461
 4427TIP3    H113287   4.448   5.235   3.496
 4427TIP3    H213288   4.577   5.198   3.427
 4428TIP3   OH213289   4.137   5.407   0.361
 4428TIP3    H113290   4.060   5.350   0.354
 4428TIP3    H213291   4.127   5.470   0.290
 4429TIP3   OH213292   0.305   4.174   4.354
 4429TIP3    H113293   0.390   4.216   4.365
 4429TIP3    H213294   0.285   4.183   4.261
 4430TIP3   OH213295   3.795   5.384   4.408
 4430TIP3    H113296   3.830   5.383   4.319
 4430TIP3    H213297   3.750   5.301   4.417
 4431TIP3   OH213298   2.809   1.417   0.145
 4431TIP3    H113299   2.790   1.463   0.064
 4431TIP3    H213300   2.814   1.325   0.121
 4432TIP3   OH213301   2.166   2.327   2.860
 4432TIP3    H113302   2.159   2.310   2.954
 4432TIP3    H213303   2.254   2.299   2.836
 4433TIP3   OH213304   6.182   2.019   1.236
 4433TIP3    H113305   6.153   2.110   1.240
 4433TIP3    H213306   6.106   1.971   1.202
 4434TIP3   OH213307   3.968   1.176   4.884
 4434TIP3    H113308   4.057   1.147   4.862
 4434TIP3    H213309   3.933   1.107   4.940
 4435TIP3   OH213310   1.338   5.840   1.789
 4435TIP3    H113311   1.418   5.892   1.783
 4435TIP3    H213312   1.342   5.781   1.713
 4436TIP3   OH213313   6.127   3.838   0.147
 4436TIP3    H113314   6.149   3.752   0.184
 4436TIP3    H213315   6.211   3.883   0.141
 4437TIP3   OH213316   1.485   3.995   3.773
 4437TIP3    H113317   1.492   3.947   3.856
 4437TIP3    H213318   1.530   3.940   3.710
 4438TIP3   OH213319   1.284   4.973   2.138
 4438TIP3    H113320   1.374   4.983   2.106
 4438TIP3    H213321   1.230   5.020   2.074
 4439TIP3   OH213322   0.346   3.407   0.563
 4439TIP3    H113323   0.306   3.491   0.541
 4439TIP3    H213324   0.439   3.421   0.548
 4440TIP3   OH213325   1.850   4.302   2.783
 4440TIP3    H113326   1.767   4.262   2.759
 4440TIP3    H213327   1.833   4.348   2.865
 4441TIP3   OH213328   2.679   3.778   1.820
 4441TIP3    H113329   2.697   3.855   1.874
 4441TIP3    H213330   2.679   3.705   1.882
 4442TIP3   OH213331   3.231   0.624   1.481
 4442TIP3    H113332   3.278   0.649   1.561
 4442TIP3    H213333   3.192   0.705   1.449
 4443TIP3   OH213334   0.589   4.044   3.755
 4443TIP3    H113335   0.660   4.108   3.752
 4443TIP3    H213336   0.556   4.049   3.845
 4444TIP3   OH213337   3.850   3.144   3.924
 4444TIP3    H113338   3.913   3.208   3.957
 4444TIP3    H213339   3.886   3.059   3.950
 4445TIP3   OH213340   2.556   5.702   4.804
 4445TIP3    H113341   2.590   5.751   4.880
 4445TIP3    H213342   2.635   5.669   4.760
 4446TIP3   OH213343   0.068   3.409   0.303
 4446TIP3    H113344   0.052   3.336   0.244
 4446TIP3    H213345   0.045   3.375   0.390
 4447TIP3   OH213346   4.282   0.240   1.593
 4447TIP3    H113347   4.321   0.169   1.643
 4447TIP3    H213348   4.194   0.249   1.630
 4448TIP3   OH213349   1.580   3.270   2.307
 4448TIP3    H113350   1.614   3.355   2.334
 4448TIP3    H213351   1.647   3.208   2.336
 4449TIP3   OH213352   3.139   5.316   3.767
 4449TIP3    H113353   3.100   5.403   3.772
 4449TIP3    H213354   3.204   5.315   3.837
 4450TIP3   OH213355   6.175   2.193   5.035
 4450TIP3    H113356   6.161   2.288   5.028
 4450TIP3    H213357   6.087   2.157   5.045
 4451TIP3   OH213358   0.801   4.469   3.154
 4451TIP3    H113359   0.718   4.467   3.202
 4451TIP3    H213360   0.822   4.562   3.147
 4452TIP3   OH213361   1.080   3.237   4.735
 4452TIP3    H113362   1.173   3.244   4.715
 4452TIP3    H213363   1.069   3.288   4.815
 4453TIP3   OH213364   3.174   4.557   0.366
 4453TIP3    H113365   3.135   4.545   0.279
 4453TIP3    H213366   3.204   4.470   0.391
 4454TIP3   OH213367   5.083   5.598   2.366
 4454TIP3    H113368   5.002   5.585   2.317
 4454TIP3    H213369   5.113   5.685   2.338
 4455TIP3   OH213370   5.679   1.062   3.834
 4455TIP3    H113371   5.711   1.049   3.744
 4455TIP3    H213372   5.619   0.989   3.848
 4456TIP3   OH213373   1.470   0.141   1.303
 4456TIP3    H113374   1.560   0.109   1.305
 4456TIP3    H213375   1.416   0.062   1.306
 4457TIP3   OH213376   5.738   0.603   1.215
 4457TIP3    H113377   5.654   0.558   1.226
 4457TIP3    H213378   5.797   0.558   1.275
 4458TIP3   OH213379   0.696   5.150   2.294
 4458TIP3    H113380   0.640   5.078   2.265
 4458TIP3    H213381   0.666   5.171   2.382
 4459TIP3   OH213382   3.536   4.745   3.413
 4459TIP3    H113383   3.622   4.711   3.439
 4459TIP3    H213384   3.548   4.840   3.411
 4460TIP3   OH213385   2.500   5.892   1.887
 4460TIP3    H113386   2.482   5.940   1.968
 4460TIP3    H213387   2.582   5.929   1.854
 4461TIP3   OH213388   2.631   4.305   4.546
 4461TIP3    H113389   2.726   4.292   4.543
 4461TIP3    H213390   2.619   4.400   4.543
 4462TIP3   OH213391   4.784   1.778   4.787
 4462TIP3    H113392   4.842   1.767   4.711
 4462TIP3    H213393   4.841   1.810   4.856
 4463TIP3   OH213394   1.093   5.008   3.052
 4463TIP3    H113395   1.145   5.062   2.992
 4463TIP3    H213396   1.009   5.053   3.058
 4464TIP3   OH213397   4.353   4.172   4.471
 4464TIP3    H113398   4.342   4.089   4.423
 4464TIP3    H213399   4.395   4.230   4.408
 4465TIP3   OH213400   1.654   3.855   0.086
 4465TIP3    H113401   1.593   3.846   0.012
 4465TIP3    H213402   1.725   3.909   0.052
 4466TIP3   OH213403   4.140   0.266   4.098
 4466TIP3    H113404   4.082   0.214   4.154
 4466TIP3    H213405   4.168   0.339   4.153
 4467TIP3   OH213406   3.374   4.368   0.774
 4467TIP3    H113407   3.303   4.431   0.762
 4467TIP3    H213408   3.404   4.382   0.863
 4468TIP3   OH213409   4.030   2.060   0.911
 4468TIP3    H113410   4.021   1.972   0.876
 4468TIP3    H213411   4.020   2.117   0.834
 4469TIP3   OH213412   2.172   0.049   3.798
 4469TIP3    H113413   2.130  -0.031   3.830
 4469TIP3    H213414   2.104   0.095   3.750
 4470TIP3   OH213415   0.829   5.939   4.823
 4470TIP3    H113416   0.814   6.024   4.863
 4470TIP3    H213417   0.773   5.879   4.873
 4471TIP3   OH213418   1.966   3.963   3.280
 4471TIP3    H113419   1.912   3.902   3.331
 4471TIP3    H213420   2.055   3.951   3.315
 4472TIP3   OH213421   0.853   3.224   1.747
 4472TIP3    H113422   0.921   3.233   1.680
 4472TIP3    H213423   0.898   3.245   1.829
 4473TIP3   OH213424   1.566   4.167   0.316
 4473TIP3    H113425   1.499   4.201   0.257
 4473TIP3    H213426   1.647   4.207   0.286
 4474TIP3   OH213427   2.837   4.671   3.560
 4474TIP3    H113428   2.885   4.754   3.568
 4474TIP3    H213429   2.750   4.696   3.529
 4475TIP3   OH213430   4.230   1.325   4.107
 4475TIP3    H113431   4.164   1.356   4.045
 4475TIP3    H213432   4.299   1.288   4.052
 4476TIP3   OH213433   4.887   3.360   2.280
 4476TIP3    H113434   4.825   3.357   2.352
 4476TIP3    H213435   4.834   3.383   2.203
 4477TIP3   OH213436   0.893   3.847   1.120
 4477TIP3    H113437   0.855   3.913   1.178
 4477TIP3    H213438   0.983   3.837   1.152
 4478TIP3   OH213439   2.770   1.734   1.366
 4478TIP3    H113440   2.847   1.713   1.314
 4478TIP3    H213441   2.798   1.805   1.423
 4479TIP3   OH213442   2.943   5.196   4.622
 4479TIP3    H113443   2.987   5.144   4.555
 4479TIP3    H213444   2.993   5.278   4.625
 4480TIP3   OH213445   1.216   2.101   4.732
 4480TIP3    H113446   1.232   2.192   4.707
 4480TIP3    H213447   1.200   2.104   4.826
 4481TIP3   OH213448   2.619   1.072   3.081
 4481TIP3    H113449   2.672   1.129   3.024
 4481TIP3    H213450   2.581   1.130   3.146
 4482TIP3   OH213451   4.057   2.240   0.315
 4482TIP3    H113452   4.150   2.258   0.314
 4482TIP3    H213453   4.021   2.292   0.244
 4483TIP3   OH213454   4.142   3.045   1.724
 4483TIP3    H113455   4.088   3.109   1.678
 4483TIP3    H213456   4.089   2.965   1.726
 4484TIP3   OH213457   4.740   3.147   4.230
 4484TIP3    H113458   4.800   3.208   4.272
 4484TIP3    H213459   4.655   3.191   4.232
 4485TIP3   OH213460   5.752   4.880   2.192
 4485TIP3    H113461   5.758   4.838   2.277
 4485TIP3    H213462   5.728   4.810   2.131
 4486TIP3   OH213463   5.438   3.671   4.185
 4486TIP3    H113464   5.450   3.576   4.192
 4486TIP3    H213465   5.474   3.693   4.098
 4487TIP3   OH213466   4.353   2.177   2.113
 4487TIP3    H113467   4.371   2.084   2.123
 4487TIP3    H213468   4.437   2.219   2.131
 4488TIP3   OH213469   5.389   4.347   3.634
 4488TIP3    H113470   5.372   4.278   3.698
 4488TIP3    H213471   5.480   4.332   3.607
 4489TIP3   OH213472   0.168   4.744   0.289
 4489TIP3    H113473   0.172   4.833   0.253
 4489TIP3    H213474   0.206   4.689   0.221
 4490TIP3   OH213475   3.143   4.922   0.054
 4490TIP3    H113476   3.209   4.918  -0.015
 4490TIP3    H213477   3.070   4.871   0.020
 4491TIP3   OH213478   2.009   3.972   0.393
 4491TIP3    H113479   2.008   3.892   0.446
 4491TIP3    H213480   1.919   4.006   0.400
 4492TIP3   OH213481   2.148   1.108   0.427
 4492TIP3    H113482   2.110   1.041   0.371
 4492TIP3    H213483   2.150   1.187   0.373
 4493TIP3   OH213484   2.447   1.541   2.858
 4493TIP3    H113485   2.414   1.455   2.882
 4493TIP3    H213486   2.439   1.544   2.763
 4494TIP3   OH213487   2.949   1.997   4.821
 4494TIP3    H113488   3.013   1.937   4.783
 4494TIP3    H213489   2.890   2.019   4.749
 4495TIP3   OH213490   2.946   0.008   2.822
 4495TIP3    H113491   2.863   0.055   2.820
 4495TIP3    H213492   2.964  -0.006   2.915
 4496TIP3   OH213493   4.102   0.461   1.118
 4496TIP3    H113494   4.044   0.506   1.179
 4496TIP3    H213495   4.159   0.407   1.174
 4497TIP3   OH213496   2.381   4.651   2.297
 4497TIP3    H113497   2.289   4.663   2.320
 4497TIP3    H213498   2.427   4.720   2.345
 4498TIP3   OH213499   0.678   4.357   2.786
 4498TIP3    H113500   0.650   4.341   2.695
 4498TIP3    H213501   0.693   4.451   2.790
 4499TIP3   OH213502   0.828   4.147   4.608
 4499TIP3    H113503   0.850   4.239   4.625
 4499TIP3    H213504   0.894   4.119   4.544
 4500TIP3   OH213505   0.542   1.813   0.881
 4500TIP3    H113506   0.575   1.818   0.971
 4500TIP3    H213507   0.450   1.839   0.888
 4501TIP3   OH213508   1.903   2.734   1.882
 4501TIP3    H113509   1.906   2.829   1.889
 4501TIP3    H213510   1.987   2.709   1.844
 4502TIP3   OH213511   3.124   4.334   4.717
 4502TIP3    H113512   3.112   4.378   4.801
 4502TIP3    H213513   3.175   4.397   4.665
 4503TIP3   OH213514   5.994   0.992   0.603
 4503TIP3    H113515   6.081   0.957   0.583
 4503TIP3    H213516   5.987   0.986   0.698
 4504TIP3   OH213517   4.675   0.770   0.303
 4504TIP3    H113518   4.693   0.842   0.363
 4504TIP3    H213519   4.596   0.729   0.337
 4505TIP3   OH213520   0.914   5.662   2.737
 4505TIP3    H113521   1.009   5.676   2.730
 4505TIP3    H213522   0.893   5.687   2.827
 4506TIP3   OH213523   5.732   4.765   0.065
 4506TIP3    H113524   5.765   4.769   0.155
 4506TIP3    H213525   5.696   4.852   0.048
 4507TIP3   OH213526   0.915   4.294   2.947
 4507TIP3    H113527   0.851   4.302   2.876
 4507TIP3    H213528   0.902   4.373   3.000
 4508TIP3   OH213529   3.958   1.765   4.807
 4508TIP3    H113530   4.052   1.772   4.828
 4508TIP3    H213531   3.914   1.798   4.885
 4509TIP3   OH213532   3.958   1.132   1.274
 4509TIP3    H113533   4.021   1.117   1.203
 4509TIP3    H213534   3.874   1.100   1.239
 4510TIP3   OH213535   2.620   3.959   2.262
 4510TIP3    H113536   2.537   3.944   2.308
 4510TIP3    H213537   2.672   3.880   2.281
 4511TIP3   OH213538   2.454   4.841   0.145
 4511TIP3    H113539   2.371   4.834   0.193
 4511TIP3    H213540   2.428   4.848   0.054
 4512TIP3   OH213541   5.964   4.651   4.043
 4512TIP3    H113542   5.919   4.725   4.083
 4512TIP3    H213543   5.900   4.580   4.045
 4513TIP3   OH213544   2.190   2.899   1.247
 4513TIP3    H113545   2.175   2.992   1.235
 4513TIP3    H213546   2.202   2.864   1.159
 4514TIP3   OH213547   0.198   0.159   3.172
 4514TIP3    H113548   0.288   0.125   3.177
 4514TIP3    H213549   0.160   0.117   3.095
 4515TIP3   OH213550   0.787   1.939   2.050
 4515TIP3    H113551   0.768   1.875   2.118
 4515TIP3    H213552   0.809   1.887   1.973
 4516TIP3   OH213553   4.091   3.325   2.741
 4516TIP3    H113554   4.056   3.237   2.758
 4516TIP3    H213555   4.133   3.351   2.822
 4517TIP3   OH213556   5.735   2.724   3.265
 4517TIP3    H113557   5.691   2.783   3.326
 4517TIP3    H213558   5.817   2.769   3.243
 4518TIP3   OH213559   4.960   5.119   4.691
 4518TIP3    H113560   5.027   5.186   4.701
 4518TIP3    H213561   4.998   5.040   4.729
 4519TIP3   OH213562   4.681   4.357   4.682
 4519TIP3    H113563   4.685   4.264   4.705
 4519TIP3    H213564   4.589   4.380   4.687
 4520TIP3   OH213565   3.659   5.320   1.084
 4520TIP3    H113566   3.704   5.249   1.129
 4520TIP3    H213567   3.686   5.312   0.993
 4521TIP3   OH213568   4.404   0.476   1.023
 4521TIP3    H113569   4.427   0.456   1.113
 4521TIP3    H213570   4.474   0.437   0.971
 4522TIP3   OH213571   4.111   0.501   3.124
 4522TIP3    H113572   4.199   0.480   3.155
 4522TIP3    H213573   4.069   0.416   3.111
 4523TIP3   OH213574   4.876   1.191   1.699
 4523TIP3    H113575   4.946   1.171   1.636
 4523TIP3    H213576   4.824   1.111   1.704
 4524TIP3   OH213577   3.215   3.756   0.646
 4524TIP3    H113578   3.122   3.734   0.648
 4524TIP3    H213579   3.259   3.679   0.684
 4525TIP3   OH213580   0.804   5.751   0.738
 4525TIP3    H113581   0.752   5.811   0.793
 4525TIP3    H213582   0.876   5.805   0.706
 4526TIP3   OH213583   2.070   5.720   4.809
 4526TIP3    H113584   1.978   5.700   4.790
 4526TIP3    H213585   2.116   5.638   4.790
 4527TIP3   OH213586   3.019   2.518   5.012
 4527TIP3    H113587   2.992   2.472   4.932
 4527TIP3    H213588   3.094   2.570   4.985
 4528TIP3   OH213589   5.438   3.364   4.665
 4528TIP3    H113590   5.425   3.459   4.653
 4528TIP3    H213591   5.367   3.338   4.724
 4529TIP3   OH213592   1.879   5.519   0.740
 4529TIP3    H113593   1.826   5.453   0.694
 4529TIP3    H213594   1.965   5.478   0.749
 4530TIP3   OH213595   2.502   1.998   4.858
 4530TIP3    H113596   2.435   1.931   4.875
 4530TIP3    H213597   2.452   2.073   4.824
 4531TIP3   OH213598   5.542   4.046   0.429
 4531TIP3    H113599   5.568   3.972   0.483
 4531TIP3    H213600   5.573   4.123   0.478
 4532TIP3   OH213601   5.679   4.158   3.164
 4532TIP3    H113602   5.599   4.110   3.181
 4532TIP3    H213603   5.694   4.148   3.070
 4533TIP3   OH213604   3.175   3.121   0.271
 4533TIP3    H113605   3.194   3.213   0.288
 4533TIP3    H213606   3.250   3.074   0.307
 4534TIP3   OH213607   2.719   0.711   3.867
 4534TIP3    H113608   2.809   0.733   3.888
 4534TIP3    H213609   2.724   0.632   3.814
 4535TIP3   OH213610   2.583   3.087   4.044
 4535TIP3    H113611   2.643   3.094   4.119
 4535TIP3    H213612   2.639   3.058   3.972
 4536TIP3   OH213613   1.873   0.579   1.395
 4536TIP3    H113614   1.829   0.583   1.480
 4536TIP3    H213615   1.812   0.622   1.334
 4537TIP3   OH213616   5.449   5.658   1.524
 4537TIP3    H113617   5.489   5.723   1.466
 4537TIP3    H213618   5.518   5.639   1.589
 4538TIP3   OH213619   2.271   4.659   1.349
 4538TIP3    H113620   2.234   4.741   1.381
 4538TIP3    H213621   2.307   4.681   1.263
 4539TIP3   OH213622   4.041   1.659   1.180
 4539TIP3    H113623   4.007   1.696   1.098
 4539TIP3    H213624   3.978   1.590   1.203
 4540TIP3   OH213625   3.280   0.322   1.682
 4540TIP3    H113626   3.317   0.242   1.645
 4540TIP3    H213627   3.335   0.393   1.650
 4541TIP3   OH213628   0.386   4.012   4.867
 4541TIP3    H113629   0.469   4.039   4.907
 4541TIP3    H213630   0.337   4.094   4.858
 4542TIP3   OH213631   0.514   5.665   4.198
 4542TIP3    H113632   0.468   5.702   4.123
 4542TIP3    H213633   0.478   5.577   4.207
 4543TIP3   OH213634   2.973   4.365   2.501
 4543TIP3    H113635   3.050   4.361   2.444
 4543TIP3    H213636   2.914   4.297   2.468
 4544TIP3   OH213637   2.494   5.760   2.402
 4544TIP3    H113638   2.455   5.821   2.465
 4544TIP3    H213639   2.420   5.724   2.354
 4545TIP3   OH213640   4.443   3.753   1.957
 4545TIP3    H113641   4.428   3.663   1.987
 4545TIP3    H213642   4.520   3.782   2.006
 4546TIP3   OH213643   5.731   5.846   4.923
 4546TIP3    H113644   5.721   5.920   4.863
 4546TIP3    H213645   5.822   5.851   4.952
 4547TIP3   OH213646   2.492   1.538   3.302
 4547TIP3    H113647   2.493   1.583   3.386
 4547TIP3    H213648   2.577   1.559   3.263
 4548TIP3   OH213649   3.514   0.215   2.832
 4548TIP3    H113650   3.432   0.234   2.877
 4548TIP3    H213651   3.577   0.277   2.868
 4549TIP3   OH213652   3.076   3.814   1.578
 4549TIP3    H113653   2.985   3.835   1.554
 4549TIP3    H213654   3.124   3.895   1.563
 4550TIP3   OH213655   3.838   1.520   4.934
 4550TIP3    H113656   3.818   1.604   4.894
 4550TIP3    H213657   3.911   1.486   4.882
 4551TIP3   OH213658   6.125   0.126   1.604
 4551TIP3    H113659   6.088   0.212   1.619
 4551TIP3    H213660   6.102   0.105   1.513
 4552TIP3   OH213661   6.121   0.552   0.108
 4552TIP3    H113662   6.134   0.462   0.139
 4552TIP3    H213663   6.080   0.597   0.182
 4553TIP3   OH213664   5.028   0.287   2.840
 4553TIP3    H113665   5.024   0.362   2.900
 4553TIP3    H213666   4.974   0.220   2.882
 4554TIP3   OH213667   5.698   4.917   1.772
 4554TIP3    H113668   5.669   4.988   1.715
 4554TIP3    H213669   5.786   4.944   1.800
 4555TIP3   OH213670   4.425   2.146   1.035
 4555TIP3    H113671   4.380   2.208   1.092
 4555TIP3    H213672   4.425   2.064   1.083
 4556TIP3   OH213673   5.538   4.893   0.353
 4556TIP3    H113674   5.610   4.900   0.416
 4556TIP3    H213675   5.571   4.939   0.275
 4557TIP3   OH213676   4.757   5.782   0.281
 4557TIP3    H113677   4.839   5.809   0.321
 4557TIP3    H213678   4.735   5.854   0.221
 4558TIP3   OH213679   4.976   3.099   2.245
 4558TIP3    H113680   4.909   3.165   2.232
 4558TIP3    H213681   5.055   3.148   2.269
 4559TIP3   OH213682   2.115   5.212   2.283
 4559TIP3    H113683   2.194   5.158   2.295
 4559TIP3    H213684   2.043   5.150   2.294
 4560TIP3   OH213685   2.975   0.446   2.818
 4560TIP3    H113686   2.911   0.514   2.840
 4560TIP3    H213687   2.985   0.396   2.899
 4561TIP3   OH213688   6.057   1.157   4.551
 4561TIP3    H113689   6.036   1.212   4.476
 4561TIP3    H213690   6.153   1.156   4.554
 4562TIP3   OH213691   3.991   0.983   2.125
 4562TIP3    H113692   4.055   1.036   2.172
 4562TIP3    H213693   3.907   1.008   2.163
 4563TIP3   OH213694   1.631   4.897   3.588
 4563TIP3    H113695   1.705   4.842   3.614
 4563TIP3    H213696   1.555   4.858   3.631
 4564TIP3   OH213697   3.917   3.518   2.651
 4564TIP3    H113698   3.946   3.540   2.562
 4564TIP3    H213699   3.979   3.451   2.680
 4565TIP3   OH213700   4.581   1.435   0.901
 4565TIP3    H113701   4.614   1.443   0.812
 4565TIP3    H213702   4.643   1.376   0.944
 4566TIP3   OH213703   0.569   1.354   3.292
 4566TIP3    H113704   0.582   1.441   3.252
 4566TIP3    H213705   0.534   1.373   3.378
 4567TIP3   OH213706   3.367   2.830   1.683
 4567TIP3    H113707   3.344   2.803   1.594
 4567TIP3    H213708   3.351   2.925   1.684
 4568TIP3   OH213709   0.366   1.695   1.806
 4568TIP3    H113710   0.403   1.618   1.762
 4568TIP3    H213711   0.442   1.748   1.831
 4569TIP3   OH213712   3.247   3.543   0.835
 4569TIP3    H113713   3.323   3.498   0.872
 4569TIP3    H213714   3.180   3.538   0.903
 4570TIP3   OH213715   4.271   4.107   0.106
 4570TIP3    H113716   4.311   4.102   0.193
 4570TIP3    H213717   4.177   4.101   0.122
 4571TIP3   OH213718   3.605   0.786   1.880
 4571TIP3    H113719   3.547   0.835   1.938
 4571TIP3    H213720   3.684   0.838   1.874
 4572TIP3   OH213721   4.479   5.664   2.409
 4572TIP3    H113722   4.512   5.591   2.461
 4572TIP3    H213723   4.395   5.632   2.375
 4573TIP3   OH213724   0.574   2.259   4.153
 4573TIP3    H113725   0.498   2.221   4.198
 4573TIP3    H213726   0.622   2.304   4.222
 4574TIP3   OH213727   5.184   3.447   1.568
 4574TIP3    H113728   5.186   3.361   1.610
 4574TIP3    H213729   5.119   3.497   1.618
 4575TIP3   OH213730   4.513   0.405   1.626
 4575TIP3    H113731   4.469   0.481   1.663
 4575TIP3    H213732   4.443   0.346   1.599
 4576TIP3   OH213733   3.826   5.448   1.698
 4576TIP3    H113734   3.790   5.493   1.622
 4576TIP3    H213735   3.788   5.360   1.693
 4577TIP3   OH213736   3.825   2.021   4.687
 4577TIP3    H113737   3.919   2.006   4.695
 4577TIP3    H213738   3.789   1.935   4.664
 4578TIP3   OH213739   0.657   3.096   3.174
 4578TIP3    H113740   0.637   3.186   3.148
 4578TIP3    H213741   0.753   3.093   3.174
 4579TIP3   OH213742   2.069   4.943   3.628
 4579TIP3    H113743   2.120   5.017   3.596
 4579TIP3    H213744   2.135   4.881   3.660
 4580TIP3   OH213745   3.936   1.675   4.035
 4580TIP3    H113746   3.841   1.676   4.040
 4580TIP3    H213747   3.955   1.677   3.941
 4581TIP3   OH213748   0.426   1.363   4.412
 4581TIP3    H113749   0.465   1.448   4.432
 4581TIP3    H213750   0.396   1.370   4.322
 4582TIP3   OH213751   0.401   5.315   1.562
 4582TIP3    H113752   0.347   5.261   1.620
 4582TIP3    H213753   0.448   5.374   1.621
 4583TIP3   OH213754   1.012   3.989   3.331
 4583TIP3    H113755   1.108   4.000   3.332
 4583TIP3    H213756   0.979   4.067   3.288
 4584TIP3   OH213757   0.591   1.851   1.808
 4584TIP3    H113758   0.570   1.933   1.764
 4584TIP3    H213759   0.686   1.841   1.795
 4585TIP3   OH213760   3.431   2.189   1.706
 4585TIP3    H113761   3.503   2.252   1.697
 4585TIP3    H213762   3.398   2.178   1.617
 4586TIP3   OH213763   0.979   3.691   4.181
 4586TIP3    H113764   0.965   3.601   4.211
 4586TIP3    H213765   0.910   3.741   4.225
 4587TIP3   OH213766   5.748   2.063   1.068
 4587TIP3    H113767   5.759   2.136   1.007
 4587TIP3    H213768   5.672   2.088   1.122
 4588TIP3   OH213769   4.834   4.792   0.109
 4588TIP3    H113770   4.800   4.881   0.124
 4588TIP3    H213771   4.846   4.787   0.014
 4589TIP3   OH213772   4.035   1.867   1.981
 4589TIP3    H113773   3.989   1.946   2.009
 4589TIP3    H213774   4.121   1.898   1.954
 4590TIP3   OH213775   5.655   2.051   2.468
 4590TIP3    H113776   5.594   1.980   2.486
 4590TIP3    H213777   5.603   2.116   2.421
 4591TIP3   OH213778   4.301   4.500   0.015
 4591TIP3    H113779   4.387   4.529  -0.017
 4591TIP3    H213780   4.298   4.407  -0.006
 4592TIP3   OH213781   0.404   5.670   4.611
 4592TIP3    H113782   0.496   5.647   4.603
 4592TIP3    H213783   0.387   5.733   4.541
 4593TIP3   OH213784   3.801   0.113   3.554
 4593TIP3    H113785   3.749   0.189   3.579
 4593TIP3    H213786   3.749   0.038   3.584
 4594TIP3   OH213787   3.157   5.160   2.242
 4594TIP3    H113788   3.079   5.118   2.278
 4594TIP3    H213789   3.157   5.137   2.149
 4595TIP3   OH213790   1.933   1.031   3.003
 4595TIP3    H113791   1.994   0.958   2.992
 4595TIP3    H213792   1.906   1.027   3.095
 4596TIP3   OH213793   0.032   4.509   2.134
 4596TIP3    H113794   0.085   4.465   2.068
 4596TIP3    H213795   0.025   4.599   2.104
 4597TIP3   OH213796   4.219   2.271   2.390
 4597TIP3    H113797   4.232   2.199   2.328
 4597TIP3    H213798   4.264   2.345   2.351
 4598TIP3   OH213799   5.465   3.382   2.177
 4598TIP3    H113800   5.504   3.317   2.237
 4598TIP3    H213801   5.500   3.359   2.091
 4599TIP3   OH213802   2.002   5.818   1.490
 4599TIP3    H113803   1.980   5.908   1.464
 4599TIP3    H213804   2.093   5.808   1.464
 4600TIP3   OH213805   3.552   1.865   0.935
 4600TIP3    H113806   3.561   1.860   1.030
 4600TIP3    H213807   3.589   1.783   0.903
 4601TIP3   OH213808   0.418   3.864   0.489
 4601TIP3    H113809   0.384   3.868   0.399
 4601TIP3    H213810   0.508   3.834   0.478
 4602TIP3   OH213811   5.368   5.514   4.844
 4602TIP3    H113812   5.337   5.437   4.892
 4602TIP3    H213813   5.436   5.480   4.786
 4603TIP3   OH213814   1.501   4.305   2.558
 4603TIP3    H113815   1.452   4.348   2.628
 4603TIP3    H213816   1.435   4.282   2.493
 4604TIP3   OH213817   1.138   4.689   1.654
 4604TIP3    H113818   1.147   4.647   1.568
 4604TIP3    H213819   1.050   4.726   1.653
 4605TIP3   OH213820   4.317   5.017   4.521
 4605TIP3    H113821   4.379   5.026   4.448
 4605TIP3    H213822   4.284   4.927   4.514
 4606TIP3   OH213823   0.567   0.427   1.589
 4606TIP3    H113824   0.654   0.425   1.629
 4606TIP3    H213825   0.564   0.510   1.542
 4607TIP3   OH213826   0.182   3.586   2.128
 4607TIP3    H113827   0.183   3.682   2.129
 4607TIP3    H213828   0.091   3.563   2.144
 4608TIP3   OH213829   2.026   1.662   4.663
 4608TIP3    H113830   2.088   1.681   4.734
 4608TIP3    H213831   1.949   1.628   4.707
 4609TIP3   OH213832   1.211   0.153   4.723
 4609TIP3    H113833   1.151   0.081   4.745
 4609TIP3    H213834   1.267   0.162   4.799
 4610TIP3   OH213835   2.952   2.265   0.391
 4610TIP3    H113836   2.998   2.191   0.432
 4610TIP3    H213837   2.987   2.268   0.302
 4611TIP3   OH213838   1.369   1.982   2.634
 4611TIP3    H113839   1.338   1.898   2.602
 4611TIP3    H213840   1.290   2.025   2.669
 4612TIP3   OH213841   0.610   2.565   4.247
 4612TIP3    H113842   0.590   2.510   4.323
 4612TIP3    H213843   0.696   2.602   4.266
 4613TIP3   OH213844   0.086   4.006   0.667
 4613TIP3    H113845   0.132   3.928   0.637
 4613TIP3    H213846   0.104   4.010   0.761
 4614TIP3   OH213847   2.584   4.651   4.267
 4614TIP3    H113848   2.529   4.724   4.293
 4614TIP3    H213849   2.653   4.690   4.212
 4615TIP3   OH213850   1.565   3.239   1.789
 4615TIP3    H113851   1.491   3.294   1.815
 4615TIP3    H213852   1.631   3.255   1.856
 4616TIP3   OH213853   3.528   3.897   5.001
 4616TIP3    H113854   3.577   3.818   4.977
 4616TIP3    H213855   3.457   3.865   5.056
 4617TIP3   OH213856   4.611   0.922   4.619
 4617TIP3    H113857   4.566   0.894   4.539
 4617TIP3    H213858   4.609   1.017   4.616
 4618TIP3   OH213859   3.041   2.125   5.041
 4618TIP3    H113860   3.131   2.106   5.067
 4618TIP3    H213861   3.024   2.064   4.969
 4619TIP3   OH213862   1.494   1.858   2.238
 4619TIP3    H113863   1.477   1.943   2.278
 4619TIP3    H213864   1.569   1.824   2.286
 4620TIP3   OH213865   4.270   1.198   0.470
 4620TIP3    H113866   4.237   1.258   0.403
 4620TIP3    H213867   4.340   1.150   0.426
 4621TIP3   OH213868   3.931   5.239   0.362
 4621TIP3    H113869   3.884   5.265   0.441
 4621TIP3    H213870   3.871   5.258   0.291
 4622TIP3   OH213871   4.827   2.339   0.112
 4622TIP3    H113872   4.846   2.362   0.203
 4622TIP3    H213873   4.809   2.422   0.069
 4623TIP3   OH213874   3.804   5.336   3.642
 4623TIP3    H113875   3.715   5.367   3.659
 4623TIP3    H213876   3.855   5.415   3.625
 4624TIP3   OH213877   0.045   4.447   1.665
 4624TIP3    H113878   0.058   4.532   1.705
 4624TIP3    H213879  -0.047   4.425   1.682
 4625TIP3   OH213880   2.621   5.027   2.560
 4625TIP3    H113881   2.701   5.077   2.576
 4625TIP3    H213882   2.646   4.936   2.578
 4626TIP3   OH213883   1.012   4.873   1.933
 4626TIP3    H113884   0.981   4.943   1.992
 4626TIP3    H213885   0.954   4.877   1.858
 4627TIP3   OH213886   5.872   1.980   1.965
 4627TIP3    H113887   5.839   1.913   2.024
 4627TIP3    H213888   5.831   2.061   1.997
 4628TIP3   OH213889   4.519   0.191   1.290
 4628TIP3    H113890   4.594   0.133   1.303
 4628TIP3    H213891   4.555   0.279   1.296
 4629TIP3   OH213892   2.247   4.115   0.749
 4629TIP3    H113893   2.282   4.061   0.679
 4629TIP3    H213894   2.173   4.162   0.709
 4630TIP3   OH213895   6.111   2.953   1.488
 4630TIP3    H113896   6.069   2.964   1.573
 4630TIP3    H213897   6.101   2.860   1.467
 4631TIP3   OH213898   4.644   3.505   0.777
 4631TIP3    H113899   4.701   3.573   0.813
 4631TIP3    H213900   4.667   3.427   0.827
 4632TIP3   OH213901   1.880   3.801   4.489
 4632TIP3    H113902   1.952   3.772   4.432
 4632TIP3    H213903   1.866   3.892   4.465
 4633TIP3   OH213904   3.605   3.565   4.754
 4633TIP3    H113905   3.646   3.492   4.708
 4633TIP3    H213906   3.678   3.614   4.791
 4634TIP3   OH213907   2.513   4.959   1.818
 4634TIP3    H113908   2.509   4.932   1.726
 4634TIP3    H213909   2.462   5.040   1.822
 4635TIP3   OH213910   0.862   5.827   4.588
 4635TIP3    H113911   0.935   5.889   4.588
 4635TIP3    H213912   0.813   5.847   4.668
 4636TIP3   OH213913   5.841   5.675   3.199
 4636TIP3    H113914   5.802   5.647   3.282
 4636TIP3    H213915   5.782   5.641   3.132
 4637TIP3   OH213916   1.987   0.408   3.458
 4637TIP3    H113917   1.916   0.462   3.490
 4637TIP3    H213918   2.062   0.467   3.452
 4638TIP3   OH213919   1.610   5.200   3.229
 4638TIP3    H113920   1.681   5.258   3.203
 4638TIP3    H213921   1.624   5.185   3.322
 4639TIP3   OH213922   2.551   3.972   0.660
 4639TIP3    H113923   2.468   3.930   0.637
 4639TIP3    H213924   2.616   3.929   0.604
 4640TIP3   OH213925   6.164   2.022   1.997
 4640TIP3    H113926   6.117   2.100   1.966
 4640TIP3    H213927   6.115   1.948   1.960
 4641TIP3   OH213928   1.080   1.647   1.970
 4641TIP3    H113929   1.068   1.554   1.955
 4641TIP3    H213930   1.149   1.673   1.909
 4642TIP3   OH213931   6.000   3.536   3.661
 4642TIP3    H113932   6.093   3.522   3.682
 4642TIP3    H213933   5.955   3.525   3.744
 4643TIP3   OH213934   5.762   2.234   2.092
 4643TIP3    H113935   5.727   2.216   2.180
 4643TIP3    H213936   5.695   2.288   2.050
 4644TIP3   OH213937   3.262   0.027   4.245
 4644TIP3    H113938   3.172   0.020   4.214
 4644TIP3    H213939   3.300   0.097   4.192
 4645TIP3   OH213940   2.051   3.148   2.324
 4645TIP3    H113941   2.130   3.107   2.358
 4645TIP3    H213942   2.028   3.096   2.247
 4646TIP3   OH213943   3.610   2.381   1.452
 4646TIP3    H113944   3.614   2.311   1.387
 4646TIP3    H213945   3.601   2.461   1.401
 4647TIP3   OH213946   2.897   3.929   0.733
 4647TIP3    H113947   2.979   3.885   0.756
 4647TIP3    H213948   2.832   3.892   0.793
 4648TIP3   OH213949   0.836   3.512   3.333
 4648TIP3    H113950   0.790   3.446   3.385
 4648TIP3    H213951   0.816   3.595   3.377
 4649TIP3   OH213952   5.202   0.783   2.687
 4649TIP3    H113953   5.294   0.788   2.660
 4649TIP3    H213954   5.196   0.840   2.763
 4650TIP3   OH213955   4.107   1.348   5.086
 4650TIP3    H113956   4.044   1.389   5.146
 4650TIP3    H213957   4.053   1.299   5.024
 4651TIP3   OH213958   2.652   0.456   3.449
 4651TIP3    H113959   2.695   0.487   3.369
 4651TIP3    H213960   2.624   0.536   3.493
 4652TIP3   OH213961   0.345   3.025   0.723
 4652TIP3    H113962   0.356   2.970   0.645
 4652TIP3    H213963   0.256   3.060   0.716
 4653TIP3   OH213964   0.719   3.075   0.169
 4653TIP3    H113965   0.737   2.985   0.197
 4653TIP3    H213966   0.644   3.102   0.221
 4654TIP3   OH213967   3.338   1.492   3.994
 4654TIP3    H113968   3.311   1.581   4.019
 4654TIP3    H213969   3.258   1.451   3.962
 4655TIP3   OH213970   0.628   2.062   0.284
 4655TIP3    H113971   0.591   2.012   0.357
 4655TIP3    H213972   0.554   2.108   0.246
 4656TIP3   OH213973   2.086   1.473   3.109
 4656TIP3    H113974   2.149   1.543   3.127
 4656TIP3    H213975   2.090   1.417   3.187
 4657TIP3   OH213976   3.806   0.613   3.002
 4657TIP3    H113977   3.729   0.660   2.970
 4657TIP3    H213978   3.868   0.616   2.929
 4658TIP3   OH213979   4.668   3.011   3.024
 4658TIP3    H113980   4.689   2.966   3.106
 4658TIP3    H213981   4.717   3.093   3.028
 4659TIP3   OH213982   0.963   4.092   1.980
 4659TIP3    H113983   0.919   4.174   2.004
 4659TIP3    H213984   0.911   4.024   2.024
 4660TIP3   OH213985   3.365   0.414   2.636
 4660TIP3    H113986   3.333   0.392   2.723
 4660TIP3    H213987   3.412   0.497   2.647
 4661TIP3   OH213988   0.858   0.297   3.398
 4661TIP3    H113989   0.922   0.231   3.370
 4661TIP3    H213990   0.863   0.296   3.493
 4662TIP3   OH213991   0.941   4.622   4.315
 4662TIP3    H113992   0.879   4.645   4.384
 4662TIP3    H213993   1.022   4.666   4.341
 4663TIP3   OH213994   1.152   5.513   0.587
 4663TIP3    H113995   1.166   5.476   0.500
 4663TIP3    H213996   1.091   5.585   0.573
 4664TIP3   OH213997   1.072   5.391   4.412
 4664TIP3    H113998   1.140   5.375   4.348
 4664TIP3    H213999   1.065   5.308   4.461
 4665TIP3   OH214000   4.873   1.683   0.872
 4665TIP3    H114001   4.937   1.701   0.804
 4665TIP3    H214002   4.789   1.683   0.827
 4666TIP3   OH214003   4.314   0.518   0.576
 4666TIP3    H114004   4.293   0.510   0.483
 4666TIP3    H214005   4.229   0.527   0.619
 4667TIP3   OH214006   1.592   4.393   2.934
 4667TIP3    H114007   1.520   4.352   2.886
 4667TIP3    H214008   1.554   4.414   3.020
 4668TIP3   OH214009   6.033   0.930   3.311
 4668TIP3    H114010   5.977   0.883   3.373
 4668TIP3    H214011   6.109   0.873   3.299
 4669TIP3   OH214012   5.597   5.406   2.247
 4669TIP3    H114013   5.663   5.386   2.313
 4669TIP3    H214014   5.515   5.415   2.297
 4670TIP3   OH214015   0.595   0.919   0.482
 4670TIP3    H114016   0.672   0.874   0.447
 4670TIP3    H214017   0.627   1.004   0.510
 4671TIP3   OH214018   4.156   3.384   4.510
 4671TIP3    H114019   4.201   3.303   4.486
 4671TIP3    H214020   4.199   3.413   4.591
 4672TIP3   OH214021   2.835   2.769   0.005
 4672TIP3    H114022   2.813   2.784   0.097
 4672TIP3    H214023   2.822   2.675  -0.007
 4673TIP3   OH214024   3.436   5.052   2.114
 4673TIP3    H114025   3.428   5.078   2.022
 4673TIP3    H214026   3.348   5.024   2.138
 4674TIP3   OH214027   4.627   5.834   2.944
 4674TIP3    H114028   4.706   5.787   2.915
 4674TIP3    H214029   4.641   5.847   3.038
 4675TIP3   OH214030   0.802   2.370   2.505
 4675TIP3    H114031   0.809   2.302   2.439
 4675TIP3    H214032   0.713   2.403   2.496
 4676TIP3   OH214033   2.549   2.162   2.058
 4676TIP3    H114034   2.481   2.183   2.123
 4676TIP3    H214035   2.583   2.247   2.031
 4677TIP3   OH214036   0.964   4.932   3.777
 4677TIP3    H114037   0.908   4.993   3.824
 4677TIP3    H214038   0.948   4.847   3.819
 4678TIP3   OH214039   5.528   0.367   0.778
 4678TIP3    H114040   5.614   0.385   0.816
 4678TIP3    H214041   5.547   0.351   0.685
 4679TIP3   OH214042   3.448   2.256   3.293
 4679TIP3    H114043   3.525   2.296   3.333
 4679TIP3    H214044   3.375   2.282   3.349
 4680TIP3   OH214045   1.081   0.647   4.504
 4680TIP3    H114046   1.015   0.699   4.549
 4680TIP3    H214047   1.139   0.711   4.463
 4681TIP3   OH214048   4.962   1.335   4.657
 4681TIP3    H114049   4.989   1.253   4.699
 4681TIP3    H214050   5.022   1.343   4.582
 4682TIP3   OH214051   3.360   1.189   0.145
 4682TIP3    H114052   3.308   1.125   0.097
 4682TIP3    H214053   3.370   1.262   0.084
 4683TIP3   OH214054   3.992   2.637   2.522
 4683TIP3    H114055   3.926   2.567   2.522
 4683TIP3    H214056   4.037   2.627   2.606
 4684TIP3   OH214057   2.467   1.363   1.514
 4684TIP3    H114058   2.381   1.373   1.554
 4684TIP3    H214059   2.527   1.403   1.578
 4685TIP3   OH214060   2.941   5.386   2.581
 4685TIP3    H114061   2.891   5.467   2.591
 4685TIP3    H214062   3.017   5.411   2.528
 4686TIP3   OH214063   6.207   4.066   2.119
 4686TIP3    H114064   6.190   4.114   2.200
 4686TIP3    H214065   6.123   4.025   2.098
 4687TIP3   OH214066   2.870   2.335   4.520
 4687TIP3    H114067   2.900   2.418   4.482
 4687TIP3    H214068   2.776   2.347   4.531
 4688TIP3   OH214069   0.673   3.484   4.193
 4688TIP3    H114070   0.759   3.442   4.197
 4688TIP3    H214071   0.619   3.436   4.256
 4689TIP3   OH214072   5.165   2.291   1.655
 4689TIP3    H114073   5.247   2.274   1.702
 4689TIP3    H214074   5.193   2.309   1.565
 4690TIP3   OH214075   0.664   1.702   2.457
 4690TIP3    H114076   0.644   1.756   2.533
 4690TIP3    H214077   0.704   1.623   2.494
 4691TIP3   OH214078   1.759   3.965   2.002
 4691TIP3    H114079   1.740   4.050   1.963
 4691TIP3    H214080   1.819   3.985   2.074
 4692TIP3   OH214081   0.247   5.757   2.843
 4692TIP3    H114082   0.291   5.675   2.823
 4692TIP3    H214083   0.316   5.823   2.837
 4693TIP3   OH214084   6.231   5.058   4.975
 4693TIP3    H114085   6.217   5.152   4.974
 4693TIP3    H214086   6.323   5.046   4.952
 4694TIP3   OH214087   4.740   3.186   3.438
 4694TIP3    H114088   4.793   3.259   3.471
 4694TIP3    H214089   4.708   3.216   3.353
 4695TIP3   OH214090   4.672   1.002   2.554
 4695TIP3    H114091   4.701   1.013   2.644
 4695TIP3    H214092   4.697   0.912   2.532
 4696TIP3   OH214093   4.560   4.251   1.267
 4696TIP3    H114094   4.523   4.339   1.264
 4696TIP3    H214095   4.495   4.197   1.221
 4697TIP3   OH214096   2.729   0.763   4.973
 4697TIP3    H114097   2.780   0.748   4.893
 4697TIP3    H214098   2.678   0.683   4.984
 4698TIP3   OH214099   4.946   3.344   4.683
 4698TIP3    H114100   4.982   3.423   4.724
 4698TIP3    H214101   5.013   3.316   4.621
 4699TIP3   OH214102   4.386   1.341   2.372
 4699TIP3    H114103   4.373   1.373   2.461
 4699TIP3    H214104   4.304   1.360   2.327
 4700TIP3   OH214105   0.008   3.060   4.390
 4700TIP3    H114106   0.092   3.038   4.350
 4700TIP3    H214107   0.007   3.011   4.472
 4701TIP3   OH214108   5.506   0.139   0.490
 4701TIP3    H114109   5.582   0.098   0.531
 4701TIP3    H214110   5.498   0.095   0.405
 4702TIP3   OH214111   5.799   2.635   3.665
 4702TIP3    H114112   5.722   2.631   3.609
 4702TIP3    H214113   5.770   2.599   3.749
 4703TIP3   OH214114   5.439   1.011   1.095
 4703TIP3    H114115   5.375   0.970   1.037
 4703TIP3    H214116   5.448   0.948   1.168
 4704TIP3   OH214117   0.767   4.567   4.119
 4704TIP3    H114118   0.689   4.595   4.167
 4704TIP3    H214119   0.840   4.582   4.180
 4705TIP3   OH214120   5.642   0.605   3.093
 4705TIP3    H114121   5.611   0.548   3.023
 4705TIP3    H214122   5.727   0.637   3.062
 4706TIP3   OH214123   4.824   0.561   1.919
 4706TIP3    H114124   4.799   0.653   1.924
 4706TIP3    H214125   4.748   0.514   1.951
 4707TIP3   OH214126   0.420   5.351   2.414
 4707TIP3    H114127   0.327   5.365   2.394
 4707TIP3    H214128   0.420   5.279   2.478
 4708TIP3   OH214129   0.790   0.314   1.739
 4708TIP3    H114130   0.773   0.268   1.657
 4708TIP3    H214131   0.870   0.275   1.773
 4709TIP3   OH214132   1.307   0.783   5.042
 4709TIP3    H114133   1.265   0.772   5.127
 4709TIP3    H214134   1.334   0.875   5.041
 4710TIP3   OH214135   6.205   0.331   3.444
 4710TIP3    H114136   6.198   0.293   3.531
 4710TIP3    H214137   6.296   0.317   3.419
 4711TIP3   OH214138   1.933   5.502   4.398
 4711TIP3    H114139   2.028   5.512   4.394
 4711TIP3    H214140   1.902   5.524   4.310
 4712TIP3   OH214141   0.463   4.028   4.000
 4712TIP3    H114142   0.497   4.042   4.088
 4712TIP3    H214143   0.424   3.941   4.003
 4713TIP3   OH214144   1.327   1.785   4.887
 4713TIP3    H114145   1.283   1.797   4.803
 4713TIP3    H214146   1.419   1.771   4.864
 4714TIP3   OH214147   1.959   0.273   2.572
 4714TIP3    H114148   2.024   0.222   2.525
 4714TIP3    H214149   1.884   0.213   2.581
 4715TIP3   OH214150   2.447   0.564   1.598
 4715TIP3    H114151   2.363   0.530   1.629
 4715TIP3    H214152   2.505   0.488   1.600
 4716TIP3   OH214153   5.395   1.619   4.764
 4716TIP3    H114154   5.339   1.581   4.831
 4716TIP3    H214155   5.374   1.570   4.684
 4717TIP3   OH214156   0.064   3.059   3.651
 4717TIP3    H114157   0.127   3.101   3.710
 4717TIP3    H214158   0.070   3.109   3.570
 4718TIP3   OH214159   5.308   1.067   1.359
 4718TIP3    H114160   5.277   1.152   1.389
 4718TIP3    H214161   5.304   1.073   1.263
 4719TIP3   OH214162   4.497   3.558   0.195
 4719TIP3    H114163   4.417   3.510   0.175
 4719TIP3    H214164   4.501   3.557   0.291
 4720TIP3   OH214165   0.794   2.431   4.618
 4720TIP3    H114166   0.844   2.473   4.688
 4720TIP3    H214167   0.722   2.386   4.664
 4721TIP3   OH214168   3.514   1.697   4.799
 4721TIP3    H114169   3.471   1.692   4.884
 4721TIP3    H214170   3.532   1.606   4.775
 4722TIP3   OH214171   6.279   2.963   1.229
 4722TIP3    H114172   6.306   2.926   1.314
 4722TIP3    H214173   6.318   3.051   1.228
 4723TIP3   OH214174   3.614   5.990   1.551
 4723TIP3    H114175   3.618   5.915   1.492
 4723TIP3    H214176   3.528   5.984   1.592
 4724TIP3   OH214177   0.943   3.119   3.201
 4724TIP3    H114178   0.977   3.032   3.220
 4724TIP3    H214179   0.966   3.135   3.110
 4725TIP3   OH214180   6.140   3.750   2.584
 4725TIP3    H114181   6.221   3.731   2.536
 4725TIP3    H214182   6.088   3.803   2.524
 4726TIP3   OH214183   6.248   0.013   3.485
 4726TIP3    H114184   6.267   0.093   3.535
 4726TIP3    H214185   6.332  -0.032   3.480
 4727TIP3   OH214186   5.429   5.062   3.882
 4727TIP3    H114187   5.379   4.999   3.933
 4727TIP3    H214188   5.366   5.100   3.821
 4728TIP3   OH214189   5.748   4.948   2.974
 4728TIP3    H114190   5.743   4.963   3.068
 4728TIP3    H214191   5.661   4.973   2.941
 4729TIP3   OH214192   3.564   4.693   4.806
 4729TIP3    H114193   3.526   4.649   4.730
 4729TIP3    H214194   3.550   4.632   4.878
 4730TIP3   OH214195   3.216   2.357   0.912
 4730TIP3    H114196   3.245   2.361   0.821
 4730TIP3    H214197   3.278   2.297   0.954
 4731TIP3   OH214198   4.233   1.718   1.658
 4731TIP3    H114199   4.205   1.628   1.640
 4731TIP3    H214200   4.193   1.769   1.588
 4732TIP3   OH214201   1.579   5.431   1.469
 4732TIP3    H114202   1.656   5.376   1.483
 4732TIP3    H214203   1.598   5.480   1.389
 4733TIP3   OH214204   0.049   0.878   0.846
 4733TIP3    H114205   0.000   0.846   0.921
 4733TIP3    H214206   0.127   0.822   0.843
 4734TIP3   OH214207   0.682   3.780   4.196
 4734TIP3    H114208   0.681   3.684   4.196
 4734TIP3    H214209   0.717   3.803   4.110
 4735TIP3   OH214210   1.919   4.032   2.555
 4735TIP3    H114211   1.974   4.110   2.542
 4735TIP3    H214212   1.963   3.964   2.503
 4736TIP3   OH214213   1.944   3.978   2.852
 4736TIP3    H114214   1.922   4.030   2.774
 4736TIP3    H214215   1.895   3.896   2.840
 4737TIP3   OH214216   4.853   4.198   0.554
 4737TIP3    H114217   4.904   4.278   0.548
 4737TIP3    H214218   4.868   4.154   0.470
 4738TIP3   OH214219   4.381   2.385   1.884
 4738TIP3    H114220   4.325   2.445   1.933
 4738TIP3    H214221   4.457   2.371   1.940
 4739TIP3   OH214222   2.058   3.534   1.456
 4739TIP3    H114223   1.986   3.472   1.441
 4739TIP3    H214224   2.086   3.559   1.367
 4740TIP3   OH214225   5.391   4.620   4.342
 4740TIP3    H114226   5.333   4.672   4.286
 4740TIP3    H214227   5.408   4.540   4.292
 4741TIP3   OH214228   1.191   2.939   1.742
 4741TIP3    H114229   1.108   2.916   1.783
 4741TIP3    H214230   1.243   2.978   1.812
 4742TIP3   OH214231   1.327   3.113   1.347
 4742TIP3    H114232   1.293   3.090   1.433
 4742TIP3    H214233   1.421   3.098   1.353
 4743TIP3   OH214234   3.106   1.064   4.992
 4743TIP3    H114235   3.012   1.051   4.981
 4743TIP3    H214236   3.139   1.074   4.902
 4744TIP3   OH214237   4.837   1.684   4.181
 4744TIP3    H114238   4.863   1.758   4.127
 4744TIP3    H214239   4.752   1.709   4.217
 4745TIP3   OH214240   0.159   5.502   0.790
 4745TIP3    H114241   0.114   5.469   0.713
 4745TIP3    H214242   0.096   5.562   0.830
 4746TIP3   OH214243   1.254   2.534   1.342
 4746TIP3    H114244   1.217   2.478   1.274
 4746TIP3    H214245   1.219   2.499   1.424
 4747TIP3   OH214246   4.873   0.338   4.831
 4747TIP3    H114247   4.922   0.270   4.877
 4747TIP3    H214248   4.916   0.347   4.746
 4748TIP3   OH214249   5.633   4.885   3.812
 4748TIP3    H114250   5.648   4.823   3.883
 4748TIP3    H214251   5.594   4.961   3.854
 4749TIP3   OH214252   5.478   0.400   4.645
 4749TIP3    H114253   5.558   0.447   4.665
 4749TIP3    H214254   5.454   0.429   4.557
 4750TIP3   OH214255   4.491   5.026   4.295
 4750TIP3    H114256   4.560   4.967   4.327
 4750TIP3    H214257   4.449   4.977   4.225
 4751TIP3   OH214258   3.153   2.020   4.296
 4751TIP3    H114259   3.189   1.960   4.361
 4751TIP3    H214260   3.101   2.082   4.347
 4752TIP3   OH214261   2.300   5.769   0.778
 4752TIP3    H114262   2.280   5.755   0.685
 4752TIP3    H214263   2.220   5.805   0.815
 4753TIP3   OH214264   0.213   1.435   1.652
 4753TIP3    H114265   0.292   1.406   1.699
 4753TIP3    H214266   0.160   1.356   1.645
 4754TIP3   OH214267   2.187   1.035   2.630
 4754TIP3    H114268   2.181   1.128   2.608
 4754TIP3    H214269   2.274   1.026   2.670
 4755TIP3   OH214270   3.126   5.075   2.708
 4755TIP3    H114271   3.095   5.012   2.774
 4755TIP3    H214272   3.180   5.022   2.649
 4756TIP3   OH214273   2.230   0.637   4.208
 4756TIP3    H114274   2.170   0.564   4.226
 4756TIP3    H214275   2.173   0.711   4.187
 4757TIP3   OH214276   2.417   3.631   2.975
 4757TIP3    H114277   2.372   3.556   3.012
 4757TIP3    H214278   2.495   3.593   2.932
 4758TIP3   OH214279   3.048   0.318   3.326
 4758TIP3    H114280   3.136   0.291   3.351
 4758TIP3    H214281   3.054   0.335   3.232
 4759TIP3   OH214282   3.468   2.822   5.101
 4759TIP3    H114283   3.546   2.877   5.098
 4759TIP3    H214284   3.395   2.883   5.089
 4760TIP3   OH214285   4.748   4.865   4.011
 4760TIP3    H114286   4.827   4.811   4.022
 4760TIP3    H214287   4.780   4.955   4.014
 4761TIP3   OH214288   3.894   4.928   3.556
 4761TIP3    H114289   3.969   4.895   3.507
 4761TIP3    H214290   3.849   4.849   3.586
 4762TIP3   OH214291   0.718   5.779   1.462
 4762TIP3    H114292   0.651   5.743   1.405
 4762TIP3    H214293   0.722   5.872   1.437
 4763TIP3   OH214294   5.443   5.687   0.112
 4763TIP3    H114295   5.406   5.613   0.065
 4763TIP3    H214296   5.482   5.741   0.043
 4764TIP3   OH214297   3.840   1.919   1.372
 4764TIP3    H114298   3.812   1.939   1.282
 4764TIP3    H214299   3.759   1.915   1.422
 4765TIP3   OH214300   5.548  -0.016   2.063
 4765TIP3    H114301   5.533  -0.030   2.157
 4765TIP3    H214302   5.575   0.076   2.057
 4766TIP3   OH214303   3.366   2.794   3.844
 4766TIP3    H114304   3.389   2.880   3.877
 4766TIP3    H214305   3.272   2.787   3.856
 4767TIP3   OH214306   2.949   4.977   0.355
 4767TIP3    H114307   2.988   5.057   0.320
 4767TIP3    H214308   2.938   4.994   0.448
 4768TIP3   OH214309   5.556   5.964   1.798
 4768TIP3    H114310   5.536   5.955   1.705
 4768TIP3    H214311   5.632   6.021   1.801
 4769TIP3   OH214312   3.002   4.890   3.543
 4769TIP3    H114313   3.040   4.855   3.462
 4769TIP3    H214314   2.994   4.984   3.527
 4770TIP3   OH214315   0.319   1.298   2.471
 4770TIP3    H114316   0.254   1.228   2.473
 4770TIP3    H214317   0.300   1.350   2.549
 4771TIP3   OH214318   0.501   2.911   5.157
 4771TIP3    H114319   0.523   2.875   5.243
 4771TIP3    H214320   0.542   2.851   5.095
 4772TIP3   OH214321   0.156   2.846   1.114
 4772TIP3    H114322   0.085   2.905   1.140
 4772TIP3    H214323   0.236   2.890   1.145
 4773TIP3   OH214324   0.920   3.503   3.079
 4773TIP3    H114325   1.003   3.549   3.070
 4773TIP3    H214326   0.892   3.520   3.169
 4774TIP3   OH214327   3.366   2.329   4.593
 4774TIP3    H114328   3.414   2.352   4.673
 4774TIP3    H214329   3.382   2.403   4.534
 4775TIP3   OH214330   1.109   1.314   0.145
 4775TIP3    H114331   1.159   1.305   0.064
 4775TIP3    H214332   1.129   1.234   0.194
 4776TIP3   OH214333   5.775   2.751   0.338
 4776TIP3    H114334   5.781   2.810   0.413
 4776TIP3    H214335   5.720   2.679   0.369
 4777TIP3   OH214336   5.764   3.638   0.828
 4777TIP3    H114337   5.719   3.592   0.900
 4777TIP3    H214338   5.706   3.625   0.752
 4778TIP3   OH214339   1.432   4.446   4.245
 4778TIP3    H114340   1.408   4.525   4.198
 4778TIP3    H214341   1.511   4.469   4.293
 4779TIP3   OH214342   4.119   4.360   4.305
 4779TIP3    H114343   4.162   4.289   4.257
 4779TIP3    H214344   4.128   4.437   4.249
 4780TIP3   OH214345   2.699   4.576   4.529
 4780TIP3    H114346   2.779   4.579   4.581
 4780TIP3    H214347   2.728   4.589   4.439
 4781TIP3   OH214348   5.103   0.753   0.330
 4781TIP3    H114349   5.102   0.820   0.262
 4781TIP3    H214350   5.189   0.712   0.323
 4782TIP3   OH214351   6.218   2.963   4.200
 4782TIP3    H114352   6.277   3.020   4.250
 4782TIP3    H214353   6.240   2.875   4.229
 4783TIP3   OH214354   3.253   1.863   1.449
 4783TIP3    H114355   3.288   1.952   1.457
 4783TIP3    H214356   3.261   1.827   1.537
 4784TIP3   OH214357   3.874   4.110   3.309
 4784TIP3    H114358   3.788   4.116   3.266
 4784TIP3    H214359   3.864   4.039   3.372
 4785TIP3   OH214360   4.354   2.905   0.633
 4785TIP3    H114361   4.370   2.994   0.665
 4785TIP3    H214362   4.292   2.917   0.561
 4786TIP3   OH214363   0.876   4.111   3.968
 4786TIP3    H114364   0.853   4.165   4.043
 4786TIP3    H214365   0.837   4.155   3.892
 4787TIP3   OH214366   6.094   3.734   1.452
 4787TIP3    H114367   6.017   3.695   1.412
 4787TIP3    H214368   6.118   3.806   1.393
 4788TIP3   OH214369   6.150   2.385   4.294
 4788TIP3    H114370   6.178   2.356   4.207
 4788TIP3    H214371   6.133   2.304   4.342
 4789TIP3   OH214372   2.009   5.972   2.439
 4789TIP3    H114373   2.037   5.980   2.348
 4789TIP3    H214374   2.009   5.877   2.455
 4790TIP3   OH214375   1.191   2.892   2.974
 4790TIP3    H114376   1.176   2.886   3.068
 4790TIP3    H214377   1.269   2.840   2.958
 4791TIP3   OH214378   4.707   4.018   2.936
 4791TIP3    H114379   4.645   4.021   3.008
 4791TIP3    H214380   4.667   3.961   2.871
 4792TIP3   OH214381   4.405   2.800   1.965
 4792TIP3    H114382   4.415   2.889   1.932
 4792TIP3    H214383   4.313   2.794   1.991
 4793TIP3   OH214384   4.124   3.943   0.548
 4793TIP3    H114385   4.091   3.910   0.632
 4793TIP3    H214386   4.187   4.011   0.572
 4794TIP3   OH214387   0.188   5.422   3.022
 4794TIP3    H114388   0.116   5.436   3.083
 4794TIP3    H214389   0.238   5.349   3.059
 4795TIP3   OH214390   6.035   1.502   2.199
 4795TIP3    H114391   6.029   1.494   2.104
 4795TIP3    H214392   6.071   1.589   2.214
 4796TIP3   OH214393   0.933   0.068   1.288
 4796TIP3    H114394   0.994   0.054   1.360
 4796TIP3    H214395   0.969   0.017   1.215
 4797TIP3   OH214396   2.778   0.301   4.373
 4797TIP3    H114397   2.804   0.242   4.443
 4797TIP3    H214398   2.706   0.256   4.328
 4798TIP3   OH214399   0.427   2.700   0.513
 4798TIP3    H114400   0.417   2.607   0.490
 4798TIP3    H214401   0.338   2.733   0.519
 4799TIP3   OH214402   0.779   3.851   0.274
 4799TIP3    H114403   0.807   3.835   0.184
 4799TIP3    H214404   0.712   3.785   0.291
 4800TIP3   OH214405   3.839   0.263   2.802
 4800TIP3    H114406   3.820   0.296   2.715
 4800TIP3    H214407   3.911   0.317   2.834
 4801TIP3   OH214408   3.610   0.403   3.791
 4801TIP3    H114409   3.591   0.442   3.876
 4801TIP3    H214410   3.525   0.372   3.760
 4802TIP3   OH214411   1.119   0.660   1.004
 4802TIP3    H114412   1.091   0.626   1.088
 4802TIP3    H214413   1.095   0.753   1.006
 4803TIP3   OH214414   4.618   5.868   0.815
 4803TIP3    H114415   4.600   5.776   0.834
 4803TIP3    H214416   4.654   5.867   0.726
 4804TIP3   OH214417   5.826   3.785   4.641
 4804TIP3    H114418   5.801   3.711   4.697
 4804TIP3    H214419   5.920   3.797   4.659
 4805TIP3   OH214420   3.600   1.886   1.520
 4805TIP3    H114421   3.608   1.865   1.613
 4805TIP3    H214422   3.605   1.802   1.475
 4806TIP3   OH214423   1.925   5.364   1.018
 4806TIP3    H114424   1.871   5.443   1.020
 4806TIP3    H214425   1.876   5.303   0.963
 4807TIP3   OH214426   4.089   4.319   3.826
 4807TIP3    H114427   4.016   4.259   3.812
 4807TIP3    H214428   4.162   4.282   3.777
 4808TIP3   OH214429   3.803   2.829   0.609
 4808TIP3    H114430   3.814   2.735   0.625
 4808TIP3    H214431   3.775   2.834   0.517
 4809TIP3   OH214432   4.256   5.556   2.267
 4809TIP3    H114433   4.213   5.631   2.226
 4809TIP3    H214434   4.254   5.487   2.200
 4810TIP3   OH214435   0.724   4.499   0.330
 4810TIP3    H114436   0.743   4.438   0.401
 4810TIP3    H214437   0.658   4.455   0.277
 4811TIP3   OH214438   1.246   0.931   2.254
 4811TIP3    H114439   1.321   0.887   2.293
 4811TIP3    H214440   1.284   0.998   2.197
 4812TIP3   OH214441   5.129   2.093   0.611
 4812TIP3    H114442   5.147   2.131   0.698
 4812TIP3    H214443   5.170   2.007   0.613
 4813TIP3   OH214444   0.004   4.690   1.797
 4813TIP3    H114445   0.061   4.683   1.874
 4813TIP3    H214446  -0.083   4.708   1.833
 4814TIP3   OH214447   5.114   4.417   1.138
 4814TIP3    H114448   5.132   4.507   1.167
 4814TIP3    H214449   5.044   4.387   1.195
 4815TIP3   OH214450   5.712   3.013   2.012
 4815TIP3    H114451   5.730   2.973   2.097
 4815TIP3    H214452   5.618   3.029   2.012
 4816TIP3   OH214453   6.065   1.709   0.481
 4816TIP3    H114454   6.039   1.737   0.569
 4816TIP3    H214455   6.128   1.639   0.497
 4817TIP3   OH214456   5.210   3.792   0.674
 4817TIP3    H114457   5.130   3.845   0.672
 4817TIP3    H214458   5.192   3.720   0.613
 4818TIP3   OH214459   6.128   2.045   0.140
 4818TIP3    H114460   6.155   2.104   0.211
 4818TIP3    H214461   6.155   1.958   0.169
 4819TIP3   OH214462   0.461   0.519   3.197
 4819TIP3    H114463   0.456   0.450   3.264
 4819TIP3    H214464   0.454   0.600   3.247
 4820TIP3   OH214465   5.902   5.708   4.244
 4820TIP3    H114466   5.894   5.613   4.237
 4820TIP3    H214467   5.935   5.722   4.333
 4821TIP3   OH214468   1.965   3.751   5.101
 4821TIP3    H114469   2.003   3.698   5.172
 4821TIP3    H214470   1.876   3.718   5.092
 4822TIP3   OH214471   4.245   3.035   3.268
 4822TIP3    H114472   4.197   2.984   3.332
 4822TIP3    H214473   4.291   2.970   3.214
 4823TIP3   OH214474   3.524   3.041   0.909
 4823TIP3    H114475   3.570   3.085   0.980
 4823TIP3    H214476   3.550   2.950   0.916
 4824TIP3   OH214477   3.533   3.200   4.819
 4824TIP3    H114478   3.550   3.110   4.791
 4824TIP3    H214479   3.455   3.226   4.769
 4825TIP3   OH214480   5.510   4.233   0.671
 4825TIP3    H114481   5.421   4.198   0.663
 4825TIP3    H214482   5.536   4.212   0.760
 4826TIP3   OH214483   2.653   1.768   4.619
 4826TIP3    H114484   2.717   1.837   4.605
 4826TIP3    H214485   2.580   1.790   4.562
 4827TIP3   OH214486   4.928   5.618   1.330
 4827TIP3    H114487   4.870   5.627   1.406
 4827TIP3    H214488   4.990   5.550   1.356
 4828TIP3   OH214489   4.776   1.545   3.481
 4828TIP3    H114490   4.689   1.568   3.450
 4828TIP3    H214491   4.827   1.530   3.401
 4829TIP3   OH214492   1.124   0.438   2.816
 4829TIP3    H114493   1.103   0.503   2.883
 4829TIP3    H214494   1.219   0.441   2.809
 4830TIP3   OH214495   3.926   2.966   2.681
 4830TIP3    H114496   4.009   2.952   2.728
 4830TIP3    H214497   3.952   2.976   2.590
 4831TIP3   OH214498   4.070   0.803   3.007
 4831TIP3    H114499   4.071   0.817   2.913
 4831TIP3    H214500   4.085   0.709   3.017
 4832TIP3   OH214501   2.294   0.146   4.412
 4832TIP3    H114502   2.287   0.065   4.362
 4832TIP3    H214503   2.207   0.158   4.451
 4833TIP3   OH214504   4.002   4.877   0.770
 4833TIP3    H114505   4.069   4.859   0.836
 4833TIP3    H214506   4.034   4.955   0.725
 4834TIP3   OH214507   2.459   4.045   5.143
 4834TIP3    H114508   2.498   3.958   5.153
 4834TIP3    H214509   2.364   4.030   5.151
 4835TIP3   OH214510   1.598   4.950   0.536
 4835TIP3    H114511   1.539   4.968   0.462
 4835TIP3    H214512   1.539   4.943   0.611
 4836TIP3   OH214513   3.466   4.209   4.189
 4836TIP3    H114514   3.477   4.303   4.178
 4836TIP3    H214515   3.519   4.170   4.120
 4837TIP3   OH214516   6.107   4.086   0.628
 4837TIP3    H114517   6.075   4.038   0.551
 4837TIP3    H214518   6.188   4.042   0.652
 4838TIP3   OH214519   0.474   0.567   2.698
 4838TIP3    H114520   0.553   0.618   2.681
 4838TIP3    H214521   0.473   0.555   2.792
 4839TIP3   OH214522   4.817   3.446   1.098
 4839TIP3    H114523   4.827   3.429   1.191
 4839TIP3    H214524   4.847   3.365   1.055
 4840TIP3   OH214525   2.529   1.655   0.144
 4840TIP3    H114526   2.465   1.653   0.214
 4840TIP3    H214527   2.599   1.712   0.177
 4841TIP3   OH214528   1.091   3.948   3.646
 4841TIP3    H114529   1.032   3.924   3.574
 4841TIP3    H214530   1.158   3.880   3.645
 4842TIP3   OH214531   3.659   1.829   1.766
 4842TIP3    H114532   3.678   1.923   1.768
 4842TIP3    H214533   3.737   1.788   1.805
 4843TIP3   OH214534   0.533   4.565   4.269
 4843TIP3    H114535   0.499   4.478   4.289
 4843TIP3    H214536   0.468   4.625   4.306
 4844TIP3   OH214537   4.564   0.783   1.210
 4844TIP3    H114538   4.641   0.749   1.163
 4844TIP3    H214539   4.490   0.749   1.160
 4845TIP3   OH214540   5.773   5.219   3.407
 4845TIP3    H114541   5.776   5.151   3.475
 4845TIP3    H214542   5.863   5.224   3.375
 4846TIP3   OH214543   2.081   0.934   1.819
 4846TIP3    H114544   1.991   0.948   1.849
 4846TIP3    H214545   2.083   0.973   1.732
 4847TIP3   OH214546   0.393   0.199   4.202
 4847TIP3    H114547   0.398   0.295   4.210
 4847TIP3    H214548   0.367   0.170   4.289
 4848TIP3   OH214549   2.688   3.504   2.549
 4848TIP3    H114550   2.708   3.440   2.481
 4848TIP3    H214551   2.763   3.500   2.609
 4849TIP3   OH214552   0.439   4.089   2.454
 4849TIP3    H114553   0.465   4.018   2.513
 4849TIP3    H214554   0.514   4.098   2.394
 4850TIP3   OH214555   4.350   2.318   0.307
 4850TIP3    H114556   4.369   2.379   0.236
 4850TIP3    H214557   4.436   2.281   0.331
 4851TIP3   OH214558   2.976   1.031   1.610
 4851TIP3    H114559   2.885   1.032   1.580
 4851TIP3    H214560   3.025   0.991   1.538
 4852TIP3   OH214561   3.930   4.460   0.522
 4852TIP3    H114562   3.864   4.525   0.543
 4852TIP3    H214563   3.996   4.509   0.472
 4853TIP3   OH214564   5.528   5.341   2.920
 4853TIP3    H114565   5.476   5.375   2.993
 4853TIP3    H214566   5.546   5.250   2.944
 4854TIP3   OH214567   3.708   4.126   2.533
 4854TIP3    H114568   3.778   4.102   2.594
 4854TIP3    H214569   3.628   4.094   2.575
 4855TIP3   OH214570   4.145   5.633   3.346
 4855TIP3    H114571   4.233   5.607   3.375
 4855TIP3    H214572   4.088   5.565   3.381
 4856TIP3   OH214573   1.475   4.517   3.816
 4856TIP3    H114574   1.546   4.466   3.778
 4856TIP3    H214575   1.404   4.454   3.827
 4857TIP3   OH214576   2.997   5.165   4.090
 4857TIP3    H114577   2.949   5.147   4.009
 4857TIP3    H214578   2.936   5.217   4.143
 4858TIP3   OH214579   1.304   0.550   3.753
 4858TIP3    H114580   1.285   0.487   3.683
 4858TIP3    H214581   1.299   0.497   3.833
 4859TIP3   OH214582   0.562   4.346   0.185
 4859TIP3    H114583   0.557   4.288   0.108
 4859TIP3    H214584   0.528   4.292   0.257
 4860TIP3   OH214585   4.749   4.578   4.270
 4860TIP3    H114586   4.743   4.579   4.365
 4860TIP3    H214587   4.761   4.486   4.247
 4861TIP3   OH214588   6.249   1.176   3.960
 4861TIP3    H114589   6.263   1.270   3.973
 4861TIP3    H214590   6.216   1.144   4.044
 4862TIP3   OH214591   2.001   3.792   2.448
 4862TIP3    H114592   1.907   3.800   2.432
 4862TIP3    H214593   2.039   3.779   2.361
 4863TIP3   OH214594   2.195   1.025   1.330
 4863TIP3    H114595   2.136   1.067   1.268
 4863TIP3    H214596   2.200   0.934   1.302
 4864TIP3   OH214597   5.919   1.128   0.137
 4864TIP3    H114598   5.893   1.055   0.195
 4864TIP3    H214599   5.932   1.087   0.052
 4865TIP3   OH214600   1.272   4.308   1.327
 4865TIP3    H114601   1.366   4.292   1.328
 4865TIP3    H214602   1.235   4.235   1.375
 4866TIP3   OH214603   3.937   1.526   4.378
 4866TIP3    H114604   3.994   1.538   4.302
 4866TIP3    H214605   3.944   1.609   4.426
 4867TIP3   OH214606   3.541   4.364   0.420
 4867TIP3    H114607   3.449   4.336   0.424
 4867TIP3    H214608   3.537   4.458   0.438
 4868TIP3   OH214609   3.126   0.405   1.352
 4868TIP3    H114610   3.164   0.487   1.381
 4868TIP3    H214611   3.089   0.424   1.266
 4869TIP3   OH214612   1.996   1.051   4.700
 4869TIP3    H114613   1.997   0.969   4.749
 4869TIP3    H214614   1.926   1.103   4.740
 4870TIP3   OH214615   6.272   2.566   3.557
 4870TIP3    H114616   6.332   2.637   3.533
 4870TIP3    H214617   6.185   2.605   3.548
 4871TIP3   OH214618   0.882   3.156   3.470
 4871TIP3    H114619   0.916   3.146   3.381
 4871TIP3    H214620   0.852   3.068   3.493
 4872TIP3   OH214621   4.620   0.185   4.503
 4872TIP3    H114622   4.572   0.102   4.507
 4872TIP3    H214623   4.640   0.206   4.595
 4873TIP3   OH214624   2.930   2.739   1.405
 4873TIP3    H114625   2.963   2.666   1.457
 4873TIP3    H214626   3.008   2.786   1.376
 4874TIP3   OH214627   1.039   3.579   4.750
 4874TIP3    H114628   1.104   3.510   4.768
 4874TIP3    H214629   1.043   3.591   4.655
 4875TIP3   OH214630   3.655   5.424   3.964
 4875TIP3    H114631   3.676   5.517   3.974
 4875TIP3    H214632   3.625   5.397   4.050
 4876TIP3   OH214633   1.475   3.545   0.430
 4876TIP3    H114634   1.417   3.552   0.354
 4876TIP3    H214635   1.513   3.632   0.440
 4877TIP3   OH214636   5.512   3.927   3.189
 4877TIP3    H114637   5.420   3.907   3.172
 4877TIP3    H214638   5.560   3.856   3.147
 4878TIP3   OH214639   1.139   4.074   1.498
 4878TIP3    H114640   1.121   4.119   1.580
 4878TIP3    H214641   1.055   4.037   1.472
 4879TIP3   OH214642   5.948   4.580   2.228
 4879TIP3    H114643   5.857   4.607   2.241
 4879TIP3    H214644   5.999   4.646   2.274
 4880TIP3   OH214645   5.272   3.119   3.719
 4880TIP3    H114646   5.329   3.184   3.677
 4880TIP3    H214647   5.305   3.035   3.689
 4881TIP3   OH214648   5.877   0.583   4.233
 4881TIP3    H114649   5.831   0.520   4.288
 4881TIP3    H214650   5.885   0.540   4.148
 4882TIP3   OH214651   2.761   0.567   2.660
 4882TIP3    H114652   2.701   0.587   2.588
 4882TIP3    H214653   2.712   0.506   2.716
 4883TIP3   OH214654   3.061   3.242   3.246
 4883TIP3    H114655   3.103   3.251   3.161
 4883TIP3    H214656   2.988   3.304   3.244
 4884TIP3   OH214657   4.999   5.046   2.051
 4884TIP3    H114658   4.935   5.034   1.981
 4884TIP3    H214659   5.081   5.065   2.006
 4885TIP3   OH214660   1.087   5.456   3.256
 4885TIP3    H114661   1.005   5.417   3.286
 4885TIP3    H214662   1.152   5.386   3.266
 4886TIP3   OH214663   1.849   2.123   2.965
 4886TIP3    H114664   1.846   2.141   2.871
 4886TIP3    H214665   1.813   2.035   2.973
 4887TIP3   OH214666   4.558   1.619   1.212
 4887TIP3    H114667   4.583   1.666   1.133
 4887TIP3    H214668   4.630   1.557   1.227
 4888TIP3   OH214669   0.739   4.826   4.870
 4888TIP3    H114670   0.760   4.910   4.911
 4888TIP3    H214671   0.821   4.777   4.874
 4889TIP3   OH214672   0.426   0.673   1.882
 4889TIP3    H114673   0.472   0.724   1.948
 4889TIP3    H214674   0.447   0.582   1.903
 4890TIP3   OH214675   4.242   0.714   0.944
 4890TIP3    H114676   4.192   0.796   0.940
 4890TIP3    H214677   4.331   0.738   0.920
 4891TIP3   OH214678   4.152   2.035   3.910
 4891TIP3    H114679   4.074   2.055   3.961
 4891TIP3    H214680   4.214   2.000   3.973
 4892TIP3   OH214681   4.554   1.544   4.897
 4892TIP3    H114682   4.539   1.561   4.804
 4892TIP3    H214683   4.467   1.548   4.937
 4893TIP3   OH214684   0.200   0.045   1.462
 4893TIP3    H114685   0.145  -0.025   1.497
 4893TIP3    H214686   0.227   0.095   1.539
 4894TIP3   OH214687   4.811   4.546   3.098
 4894TIP3    H114688   4.771   4.604   3.033
 4894TIP3    H214689   4.862   4.483   3.045
 4895TIP3   OH214690   2.301   3.359   2.611
 4895TIP3    H114691   2.337   3.446   2.592
 4895TIP3    H214692   2.340   3.302   2.545
 4896TIP3   OH214693   5.218   1.054   4.701
 4896TIP3    H114694   5.307   1.021   4.711
 4896TIP3    H214695   5.224   1.146   4.726
 4897TIP3   OH214696   4.166   3.717   4.460
 4897TIP3    H114697   4.186   3.808   4.482
 4897TIP3    H214698   4.107   3.687   4.529
 4898TIP3   OH214699   4.723   5.010   2.448
 4898TIP3    H114700   4.671   4.931   2.462
 4898TIP3    H214701   4.798   4.981   2.395
 4899TIP3   OH214702   5.351   5.188   4.815
 4899TIP3    H114703   5.419   5.228   4.761
 4899TIP3    H214704   5.269   5.219   4.778
 4900TIP3   OH214705   0.822   5.047   0.394
 4900TIP3    H114706   0.869   5.082   0.318
 4900TIP3    H214707   0.837   5.112   0.463
 4901TIP3   OH214708   4.550   2.052   4.471
 4901TIP3    H114709   4.478   2.097   4.515
 4901TIP3    H214710   4.610   2.028   4.541
 4902TIP3   OH214711   4.843   3.401   4.293
 4902TIP3    H114712   4.824   3.492   4.312
 4902TIP3    H214713   4.905   3.404   4.220
 4903TIP3   OH214714   3.101   4.644   2.509
 4903TIP3    H114715   3.041   4.570   2.523
 4903TIP3    H214716   3.156   4.617   2.435
 4904TIP3   OH214717   3.021   3.824   2.110
 4904TIP3    H114718   3.088   3.769   2.070
 4904TIP3    H214719   2.958   3.762   2.148
 4905TIP3   OH214720   0.981   1.234   4.772
 4905TIP3    H114721   0.993   1.252   4.679
 4905TIP3    H214722   1.070   1.223   4.806
 4906TIP3   OH214723   4.568   3.118   0.344
 4906TIP3    H114724   4.651   3.132   0.300
 4906TIP3    H214725   4.526   3.047   0.294
 4907TIP3   OH214726   6.367   3.666   4.455
 4907TIP3    H114727   6.374   3.717   4.374
 4907TIP3    H214728   6.372   3.731   4.525
 4908TIP3   OH214729   4.169   3.777   2.788
 4908TIP3    H114730   4.216   3.715   2.843
 4908TIP3    H214731   4.163   3.857   2.841
 4909TIP3   OH214732   2.510   1.094   0.157
 4909TIP3    H114733   2.417   1.113   0.172
 4909TIP3    H214734   2.549   1.099   0.244
 4910TIP3   OH214735   5.278   2.614   1.515
 4910TIP3    H114736   5.349   2.587   1.458
 4910TIP3    H214737   5.313   2.604   1.604
 4911TIP3   OH214738   0.813   3.379   4.783
 4911TIP3    H114739   0.852   3.411   4.865
 4911TIP3    H214740   0.886   3.379   4.721
 4912TIP3   OH214741   6.020   4.449   3.511
 4912TIP3    H114742   5.955   4.512   3.541
 4912TIP3    H214743   5.976   4.401   3.440
 4913TIP3   OH214744   0.076   4.220   4.491
 4913TIP3    H114745   0.021   4.206   4.414
 4913TIP3    H214746   0.164   4.195   4.463
 4914TIP3   OH214747   4.191   2.387   1.036
 4914TIP3    H114748   4.115   2.346   1.077
 4914TIP3    H214749   4.165   2.404   0.946
 4915TIP3   OH214750   1.357   3.188   4.799
 4915TIP3    H114751   1.420   3.261   4.797
 4915TIP3    H214752   1.385   3.136   4.874
 4916TIP3   OH214753   2.271   1.316   2.601
 4916TIP3    H114754   2.268   1.295   2.507
 4916TIP3    H214755   2.361   1.344   2.616
 4917TIP3   OH214756   0.238   0.139   3.650
 4917TIP3    H114757   0.332   0.155   3.652
 4917TIP3    H214758   0.204   0.188   3.725
 4918TIP3   OH214759   4.866   3.275   4.939
 4918TIP3    H114760   4.852   3.298   4.847
 4918TIP3    H214761   4.949   3.316   4.962
 4919TIP3   OH214762   3.878   5.854   0.525
 4919TIP3    H114763   3.968   5.859   0.491
 4919TIP3    H214764   3.889   5.839   0.619
 4920TIP3   OH214765   5.027   0.012   4.017
 4920TIP3    H114766   4.958   0.061   4.060
 4920TIP3    H214767   5.095   0.001   4.084
 4921TIP3   OH214768   3.641   3.639   3.023
 4921TIP3    H114769   3.652   3.638   2.928
 4921TIP3    H214770   3.635   3.732   3.045
 4922TIP3   OH214771   0.668   0.445   5.010
 4922TIP3    H114772   0.670   0.521   5.068
 4922TIP3    H214773   0.575   0.430   4.993
 4923TIP3   OH214774   6.181   5.289   0.935
 4923TIP3    H114775   6.116   5.224   0.910
 4923TIP3    H214776   6.243   5.290   0.863
 4924TIP3   OH214777   3.800   1.288   2.292
 4924TIP3    H114778   3.853   1.281   2.372
 4924TIP3    H214779   3.799   1.382   2.272
 4925TIP3   OH214780   1.585   1.017   1.714
 4925TIP3    H114781   1.513   1.078   1.696
 4925TIP3    H214782   1.582   0.954   1.642
 4926TIP3   OH214783   4.653   5.553   2.746
 4926TIP3    H114784   4.728   5.611   2.756
 4926TIP3    H214785   4.663   5.488   2.816
 4927TIP3   OH214786   4.185   4.805   3.747
 4927TIP3    H114787   4.168   4.887   3.794
 4927TIP3    H214788   4.258   4.765   3.794
 4928TIP3   OH214789   2.714   5.755   2.164
 4928TIP3    H114790   2.684   5.695   2.232
 4928TIP3    H214791   2.693   5.842   2.197
 4929TIP3   OH214792   4.765   0.049   3.757
 4929TIP3    H114793   4.834  -0.009   3.788
 4929TIP3    H214794   4.761   0.119   3.823
 4930TIP3   OH214795   0.726   5.592   4.560
 4930TIP3    H114796   0.735   5.550   4.475
 4930TIP3    H214797   0.774   5.674   4.553
 4931TIP3   OH214798   2.046   5.332   2.738
 4931TIP3    H114799   2.015   5.342   2.828
 4931TIP3    H214800   2.084   5.245   2.735
 4932TIP3   OH214801   5.844   1.779   2.818
 4932TIP3    H114802   5.748   1.775   2.819
 4932TIP3    H214803   5.871   1.692   2.788
 4933TIP3   OH214804   3.546   3.517   2.293
 4933TIP3    H114805   3.498   3.473   2.363
 4933TIP3    H214806   3.637   3.488   2.304
 4934TIP3   OH214807   0.159   1.355   3.640
 4934TIP3    H114808   0.072   1.378   3.607
 4934TIP3    H214809   0.214   1.430   3.619
 4935TIP3   OH214810   0.335   1.788   0.325
 4935TIP3    H114811   0.294   1.755   0.245
 4935TIP3    H214812   0.428   1.764   0.315
 4936TIP3   OH214813   3.224   5.772   2.412
 4936TIP3    H114814   3.302   5.802   2.364
 4936TIP3    H214815   3.156   5.834   2.389
 4937TIP3   OH214816   5.663   1.219   3.467
 4937TIP3    H114817   5.699   1.307   3.458
 4937TIP3    H214818   5.569   1.230   3.454
 4938TIP3   OH214819   4.210   5.302   1.301
 4938TIP3    H114820   4.292   5.255   1.314
 4938TIP3    H214821   4.204   5.361   1.376
 4939TIP3   OH214822   4.636   0.966   3.314
 4939TIP3    H114823   4.599   1.000   3.395
 4939TIP3    H214824   4.560   0.955   3.256
 4940TIP3   OH214825   0.502   3.315   1.115
 4940TIP3    H114826   0.498   3.239   1.057
 4940TIP3    H214827   0.596   3.325   1.134
 4941TIP3   OH214828   4.732   3.065   1.427
 4941TIP3    H114829   4.785   2.986   1.425
 4941TIP3    H214830   4.784   3.127   1.478
 4942TIP3   OH214831   1.877   1.260   4.940
 4942TIP3    H114832   1.969   1.263   4.965
 4942TIP3    H214833   1.832   1.224   5.017
 4943TIP3   OH214834   1.941   4.540   4.438
 4943TIP3    H114835   2.003   4.568   4.371
 4943TIP3    H214836   1.989   4.474   4.489
 4944TIP3   OH214837   4.957   1.614   2.472
 4944TIP3    H114838   4.988   1.600   2.561
 4944TIP3    H214839   5.037   1.617   2.419
 4945TIP3   OH214840   1.034   5.788   2.156
 4945TIP3    H114841   1.109   5.732   2.172
 4945TIP3    H214842   1.061   5.845   2.084
 4946TIP3   OH214843   4.328   1.840   3.765
 4946TIP3    H114844   4.353   1.932   3.776
 4946TIP3    H214845   4.404   1.791   3.797
 4947TIP3   OH214846   0.883   0.804   4.688
 4947TIP3    H114847   0.835   0.806   4.771
 4947TIP3    H214848   0.964   0.851   4.706
 4948TIP3   OH214849   2.530   0.925   4.774
 4948TIP3    H114850   2.510   0.837   4.804
 4948TIP3    H214851   2.611   0.916   4.725
 4949TIP3   OH214852   3.453   4.332   2.766
 4949TIP3    H114853   3.385   4.336   2.833
 4949TIP3    H214854   3.534   4.312   2.814
 4950TIP3   OH214855   2.894   4.539   4.297
 4950TIP3    H114856   2.926   4.623   4.262
 4950TIP3    H214857   2.866   4.490   4.219
 4951TIP3   OH214858   5.047   4.124   3.192
 4951TIP3    H114859   5.098   4.161   3.264
 4951TIP3    H214860   5.100   4.052   3.159
 4952TIP3   OH214861   5.114   0.254   1.953
 4952TIP3    H114862   5.151   0.329   1.999
 4952TIP3    H214863   5.134   0.179   2.009
 4953TIP3   OH214864   5.631   3.345   0.428
 4953TIP3    H114865   5.690   3.418   0.447
 4953TIP3    H214866   5.569   3.345   0.501
 4954TIP3   OH214867   2.483   0.641   4.369
 4954TIP3    H114868   2.440   0.674   4.448
 4954TIP3    H214869   2.561   0.596   4.402
 4955TIP3   OH214870   2.492   4.215   1.952
 4955TIP3    H114871   2.452   4.251   1.873
 4955TIP3    H214872   2.578   4.258   1.958
 4956TIP3   OH214873   4.848   5.767   2.800
 4956TIP3    H114874   4.815   5.827   2.733
 4956TIP3    H214875   4.935   5.800   2.822
 4957TIP3   OH214876   3.264   2.479   0.412
 4957TIP3    H114877   3.321   2.462   0.337
 4957TIP3    H214878   3.194   2.534   0.377
 4958TIP3   OH214879   2.788   5.441   3.113
 4958TIP3    H114880   2.766   5.402   3.028
 4958TIP3    H214881   2.774   5.534   3.101
 4959TIP3   OH214882   2.743   4.207   0.079
 4959TIP3    H114883   2.824   4.165   0.047
 4959TIP3    H214884   2.685   4.207   0.002
 4960TIP3   OH214885   4.400   2.693   3.912
 4960TIP3    H114886   4.392   2.767   3.851
 4960TIP3    H214887   4.371   2.617   3.861
 4961TIP3   OH214888   5.269   4.284   4.161
 4961TIP3    H114889   5.294   4.192   4.157
 4961TIP3    H214890   5.345   4.327   4.199
 4962TIP3   OH214891   2.897   3.097   3.460
 4962TIP3    H114892   2.980   3.114   3.414
 4962TIP3    H214893   2.829   3.129   3.401
 4963TIP3   OH214894   6.148   3.471   1.536
 4963TIP3    H114895   6.067   3.431   1.505
 4963TIP3    H214896   6.140   3.564   1.516
 4964TIP3   OH214897   0.198   1.567   1.403
 4964TIP3    H114898   0.193   1.484   1.449
 4964TIP3    H214899   0.196   1.633   1.472
 4965TIP3   OH214900   1.712   0.446   0.714
 4965TIP3    H114901   1.663   0.458   0.633
 4965TIP3    H214902   1.723   0.534   0.750
 4966TIP3   OH214903   4.240   3.781   0.376
 4966TIP3    H114904   4.199   3.830   0.447
 4966TIP3    H214905   4.334   3.781   0.398
 4967TIP3   OH214906   0.698   4.062   0.432
 4967TIP3    H114907   0.702   3.986   0.490
 4967TIP3    H214908   0.719   4.027   0.345
 4968TIP3   OH214909   5.807   4.692   4.811
 4968TIP3    H114910   5.751   4.769   4.820
 4968TIP3    H214911   5.877   4.720   4.751
 4969TIP3   OH214912   5.183   4.196   0.295
 4969TIP3    H114913   5.155   4.207   0.204
 4969TIP3    H214914   5.256   4.135   0.291
 4970TIP3   OH214915   2.823   4.401   0.292
 4970TIP3    H114916   2.876   4.336   0.246
 4970TIP3    H214917   2.789   4.458   0.223
 4971TIP3   OH214918   1.952   4.638   1.032
 4971TIP3    H114919   1.894   4.570   1.065
 4971TIP3    H214920   1.986   4.681   1.111
 4972TIP3   OH214921   6.039   2.263   2.069
 4972TIP3    H114922   6.066   2.196   2.132
 4972TIP3    H214923   5.946   2.278   2.088
 4973TIP3   OH214924   2.146   2.854   3.668
 4973TIP3    H114925   2.077   2.788   3.657
 4973TIP3    H214926   2.167   2.882   3.579
 4974TIP3   OH214927   0.615   1.505   4.019
 4974TIP3    H114928   0.619   1.467   4.106
 4974TIP3    H214929   0.541   1.460   3.977
 4975TIP3   OH214930   5.189   6.098   0.335
 4975TIP3    H114931   5.186   6.111   0.430
 4975TIP3    H214932   5.243   6.020   0.324
 4976TIP3   OH214933   3.838   2.414   0.962
 4976TIP3    H114934   3.837   2.496   1.011
 4976TIP3    H214935   3.926   2.409   0.925
 4977TIP3   OH214936   4.671   5.458   3.637
 4977TIP3    H114937   4.630   5.497   3.714
 4977TIP3    H214938   4.612   5.387   3.612
 4978TIP3   OH214939   0.991   0.197   1.876
 4978TIP3    H114940   0.995   0.102   1.888
 4978TIP3    H214941   1.061   0.216   1.814
 4979TIP3   OH214942   1.519   2.936   2.254
 4979TIP3    H114943   1.424   2.935   2.243
 4979TIP3    H214944   1.537   3.017   2.302
 4980TIP3   OH214945   4.291   4.170   0.595
 4980TIP3    H114946   4.292   4.129   0.682
 4980TIP3    H214947   4.378   4.152   0.559
 4981TIP3   OH214948   3.158   4.777   1.913
 4981TIP3    H114949   3.244   4.774   1.871
 4981TIP3    H214950   3.126   4.687   1.909
 4982TIP3   OH214951   5.010   5.755   3.916
 4982TIP3    H114952   5.061   5.742   3.837
 4982TIP3    H214953   4.962   5.673   3.929
 4983TIP3   OH214954   1.386   3.469   2.888
 4983TIP3    H114955   1.444   3.533   2.930
 4983TIP3    H214956   1.442   3.419   2.830
 4984TIP3   OH214957   1.040   2.777   2.771
 4984TIP3    H114958   1.045   2.689   2.806
 4984TIP3    H214959   1.090   2.831   2.833
 4985TIP3   OH214960   2.224   4.443   3.769
 4985TIP3    H114961   2.231   4.354   3.735
 4985TIP3    H214962   2.313   4.479   3.759
 4986TIP3   OH214963   3.949   5.957   4.646
 4986TIP3    H114964   3.942   5.973   4.552
 4986TIP3    H214965   3.977   5.866   4.653
 4987TIP3   OH214966   1.104   1.384   1.411
 4987TIP3    H114967   1.025   1.436   1.393
 4987TIP3    H214968   1.173   1.449   1.420
 4988TIP3   OH214969   1.326   1.617   2.238
 4988TIP3    H114970   1.370   1.698   2.266
 4988TIP3    H214971   1.331   1.618   2.143
 4989TIP3   OH214972   0.371   0.037   0.154
 4989TIP3    H114973   0.295  -0.001   0.110
 4989TIP3    H214974   0.342   0.051   0.244
 4990TIP3   OH214975   4.780   2.343   0.465
 4990TIP3    H114976   4.823   2.283   0.526
 4990TIP3    H214977   4.845   2.412   0.449
 4991TIP3   OH214978   4.084   2.946   4.486
 4991TIP3    H114979   4.002   2.991   4.509
 4991TIP3    H214980   4.056   2.864   4.447
 4992TIP3   OH214981   5.842   0.420   1.669
 4992TIP3    H114982   5.819   0.347   1.611
 4992TIP3    H214983   5.859   0.378   1.754
 4993TIP3   OH214984   2.663   5.485   0.433
 4993TIP3    H114985   2.741   5.539   0.420
 4993TIP3    H214986   2.640   5.498   0.525
 4994TIP3   OH214987   3.465   4.545   4.067
 4994TIP3    H114988   3.536   4.509   4.119
 4994TIP3    H214989   3.497   4.541   3.977
 4995TIP3   OH214990   5.275   1.172   3.326
 4995TIP3    H114991   5.204   1.194   3.387
 4995TIP3    H214992   5.320   1.255   3.312
 4996TIP3   OH214993   3.170   5.011   3.116
 4996TIP3    H114994   3.245   4.981   3.066
 4996TIP3    H214995   3.194   5.098   3.148
 4997TIP3   OH214996   3.794   0.040   0.489
 4997TIP3    H114997   3.877   0.020   0.533
 4997TIP3    H214998   3.763  -0.045   0.457
 4998TIP3   OH214999   4.445   3.889   4.603
 4998TIP3    H115000   4.506   3.837   4.654
 4998TIP3    H215001   4.497   3.923   4.531
 4999TIP3   OH215002   5.291   0.211   4.695
 4999TIP3    H115003   5.290   0.139   4.631
 4999TIP3    H215004   5.347   0.277   4.654
 5000TIP3   OH215005   4.124   1.557   0.076
 5000TIP3    H115006   4.066   1.494   0.034
 5000TIP3    H215007   4.070   1.635   0.087
 5001TIP3   OH215008   2.038   3.726   0.536
 5001TIP3    H115009   1.957   3.687   0.502
 5001TIP3    H215010   2.028   3.723   0.631
 5002TIP3   OH215011   0.091   0.220   3.873
 5002TIP3    H115012   0.060   0.307   3.898
 5002TIP3    H215013   0.114   0.178   3.956
 5003TIP3   OH215014   4.218   5.250   5.052
 5003TIP3    H115015   4.299   5.284   5.091
 5003TIP3    H215016   4.210   5.162   5.089
 5004TIP3   OH215017   5.333   2.008   4.629
 5004TIP3    H115018   5.426   1.999   4.607
 5004TIP3    H215019   5.300   2.075   4.570
 5005TIP3   OH215020   1.880   5.596   5.080
 5005TIP3    H115021   1.861   5.504   5.058
 5005TIP3    H215022   1.810   5.646   5.037
 5006TIP3   OH215023   3.146   5.820   3.975
 5006TIP3    H115024   3.164   5.780   3.890
 5006TIP3    H215025   3.061   5.785   4.001
 5007TIP3   OH215026   6.127   0.420   1.657
 5007TIP3    H115027   6.049   0.424   1.712
 5007TIP3    H215028   6.108   0.478   1.584
 5008TIP3   OH215029   5.409   3.281   2.814
 5008TIP3    H115030   5.375   3.344   2.750
 5008TIP3    H215031   5.445   3.210   2.761
 5009TIP3   OH215032   5.805   1.430   0.981
 5009TIP3    H115033   5.852   1.361   0.934
 5009TIP3    H215034   5.714   1.402   0.979
 5010TIP3   OH215035   6.145   4.948   0.188
 5010TIP3    H115036   6.193   4.960   0.270
 5010TIP3    H215037   6.057   4.981   0.207
 5011TIP3   OH215038   1.995   3.543   3.854
 5011TIP3    H115039   1.939   3.603   3.903
 5011TIP3    H215040   1.968   3.555   3.763
 5012TIP3   OH215041   5.847   2.505   0.132
 5012TIP3    H115042   5.834   2.600   0.138
 5012TIP3    H215043   5.786   2.477   0.064
 5013TIP3   OH215044   4.613   2.945   4.987
 5013TIP3    H115045   4.603   3.019   4.927
 5013TIP3    H215046   4.701   2.955   5.024
 5014TIP3   OH215047   4.087   0.711   4.532
 5014TIP3    H115048   4.056   0.746   4.616
 5014TIP3    H215049   4.176   0.682   4.549
 5015TIP3   OH215050   4.251   5.510   1.013
 5015TIP3    H115051   4.208   5.514   1.098
 5015TIP3    H215052   4.260   5.601   0.986
 5016TIP3   OH215053   1.810   2.511   4.486
 5016TIP3    H115054   1.840   2.594   4.448
 5016TIP3    H215055   1.865   2.498   4.563
 5017TIP3   OH215056   0.826   2.803   3.155
 5017TIP3    H115057   0.788   2.863   3.090
 5017TIP3    H215058   0.869   2.735   3.103
 5018TIP3   OH215059   0.999   0.387   4.142
 5018TIP3    H115060   0.989   0.394   4.237
 5018TIP3    H215061   0.962   0.302   4.120
 5019TIP3   OH215062   5.397   2.401   4.184
 5019TIP3    H115063   5.302   2.412   4.189
 5019TIP3    H215064   5.410   2.307   4.175
 5020TIP3   OH215065   1.758   4.053   1.047
 5020TIP3    H115066   1.725   4.075   0.960
 5020TIP3    H215067   1.742   4.132   1.099
 5021TIP3   OH215068   4.162   2.279   3.441
 5021TIP3    H115069   4.122   2.221   3.376
 5021TIP3    H215070   4.177   2.361   3.394
 5022TIP3   OH215071   5.763   2.451   2.376
 5022TIP3    H115072   5.685   2.487   2.332
 5022TIP3    H215073   5.836   2.499   2.337
 5023TIP3   OH215074   4.417   1.627   2.878
 5023TIP3    H115075   4.359   1.594   2.808
 5023TIP3    H215076   4.505   1.603   2.849
 5024TIP3   OH215077   2.128   4.012   1.936
 5024TIP3    H115078   2.114   3.923   1.903
 5024TIP3    H215079   2.068   4.066   1.883
 5025TIP3   OH215080   0.155   1.029   2.792
 5025TIP3    H115081   0.153   1.061   2.882
 5025TIP3    H215082   0.178   0.936   2.800
 5026TIP3   OH215083   5.947   4.249   2.571
 5026TIP3    H115084   5.927   4.340   2.550
 5026TIP3    H215085   5.878   4.199   2.528
 5027TIP3   OH215086   2.317   1.725   4.582
 5027TIP3    H115087   2.231   1.687   4.560
 5027TIP3    H215088   2.322   1.719   4.678
 5028TIP3   OH215089   0.657   0.954   3.664
 5028TIP3    H115090   0.677   1.042   3.695
 5028TIP3    H215091   0.592   0.966   3.596
 5029TIP3   OH215092   2.999   5.554   1.703
 5029TIP3    H115093   3.023   5.461   1.696
 5029TIP3    H215094   3.049   5.586   1.778
 5030TIP3   OH215095   2.657   1.886   0.217
 5030TIP3    H115096   2.690   1.875   0.306
 5030TIP3    H215097   2.736   1.892   0.163
 5031TIP3   OH215098   4.855   3.687   0.498
 5031TIP3    H115099   4.937   3.652   0.463
 5031TIP3    H215100   4.883   3.747   0.567
 5032TIP3   OH215101   1.736   4.738   3.155
 5032TIP3    H115102   1.764   4.803   3.220
 5032TIP3    H215103   1.738   4.785   3.072
 5033TIP3   OH215104   3.134   5.319   1.859
 5033TIP3    H115105   3.209   5.369   1.892
 5033TIP3    H215106   3.170   5.233   1.840
 5034TIP3   OH215107   2.671   0.814   3.449
 5034TIP3    H115108   2.748   0.802   3.505
 5034TIP3    H215109   2.644   0.904   3.463
 5035TIP3   OH215110   0.074   4.262   0.562
 5035TIP3    H115111   0.055   4.185   0.615
 5035TIP3    H215112   0.132   4.230   0.492
 5036TIP3   OH215113   5.781   2.136   4.629
 5036TIP3    H115114   5.713   2.203   4.634
 5036TIP3    H215115   5.858   2.182   4.596
 5037TIP3   OH215116   4.845   0.104   0.426
 5037TIP3    H115117   4.783   0.168   0.462
 5037TIP3    H215118   4.925   0.155   0.411
 5038TIP3   OH215119   0.616   0.247   3.312
 5038TIP3    H115120   0.573   0.285   3.388
 5038TIP3    H215121   0.709   0.270   3.323
 5039TIP3   OH215122   5.143   5.977   0.597
 5039TIP3    H115123   5.195   5.951   0.673
 5039TIP3    H215124   5.084   6.044   0.631
 5040TIP3   OH215125   6.035   4.018   4.362
 5040TIP3    H115126   6.087   4.093   4.333
 5040TIP3    H215127   5.989   4.050   4.440
 5041TIP3   OH215128   2.814   2.923   2.679
 5041TIP3    H115129   2.887   2.978   2.706
 5041TIP3    H215130   2.854   2.843   2.645
 5042TIP3   OH215131   3.373   4.373   1.084
 5042TIP3    H115132   3.334   4.460   1.095
 5042TIP3    H215133   3.298   4.316   1.062
 5043TIP3   OH215134   5.529   5.942   0.961
 5043TIP3    H115135   5.603   5.907   0.911
 5043TIP3    H215136   5.547   5.916   1.051
 5044TIP3   OH215137   4.053   0.030   1.124
 5044TIP3    H115138   4.028  -0.058   1.151
 5044TIP3    H215139   4.147   0.023   1.105
 5045TIP3   OH215140   4.140   3.979   3.270
 5045TIP3    H115141   4.103   4.017   3.350
 5045TIP3    H215142   4.163   3.890   3.295
 5046TIP3   OH215143   2.447   1.123   4.579
 5046TIP3    H115144   2.462   1.082   4.664
 5046TIP3    H215145   2.471   1.215   4.592
 5047TIP3   OH215146   4.940   0.261   4.375
 5047TIP3    H115147   5.010   0.203   4.407
 5047TIP3    H215148   4.859   0.216   4.399
 5048TIP3   OH215149   3.850   5.655   4.319
 5048TIP3    H115150   3.880   5.564   4.330
 5048TIP3    H215151   3.793   5.670   4.394
 5049TIP3   OH215152   2.760   5.626   1.227
 5049TIP3    H115153   2.774   5.605   1.319
 5049TIP3    H215154   2.823   5.696   1.208
 5050TIP3   OH215155   4.293   1.538   1.251
 5050TIP3    H115156   4.226   1.580   1.197
 5050TIP3    H215157   4.373   1.587   1.233
 5051TIP3   OH215158   3.052   2.678   0.881
 5051TIP3    H115159   3.070   2.700   0.790
 5051TIP3    H215160   3.008   2.593   0.878
 5052TIP3   OH215161   2.123   4.963   3.201
 5052TIP3    H115162   2.037   4.927   3.180
 5052TIP3    H215163   2.133   5.039   3.145
 5053TIP3   OH215164   4.727   4.928   1.877
 5053TIP3    H115165   4.635   4.943   1.899
 5053TIP3    H215166   4.745   4.838   1.905
 5054TIP3   OH215167   6.292   5.026   0.451
 5054TIP3    H115168   6.373   5.035   0.501
 5054TIP3    H215169   6.224   5.058   0.510
 5055TIP3   OH215170   1.530   1.307   0.772
 5055TIP3    H115171   1.590   1.374   0.805
 5055TIP3    H215172   1.447   1.353   0.758
 5056TIP3   OH215173   6.225   5.742   4.399
 5056TIP3    H115174   6.314   5.771   4.380
 5056TIP3    H215175   6.227   5.647   4.384
 5057TIP3   OH215176   1.270   2.708   0.150
 5057TIP3    H115177   1.283   2.803   0.149
 5057TIP3    H215178   1.245   2.686   0.061
 5058TIP3   OH215179   1.510   2.781   2.687
 5058TIP3    H115180   1.440   2.814   2.631
 5058TIP3    H215181   1.547   2.707   2.638
 5059TIP3   OH215182   0.166   1.878   2.430
 5059TIP3    H115183   0.131   1.792   2.407
 5059TIP3    H215184   0.205   1.911   2.349
 5060TIP3   OH215185   2.830   1.029   4.943
 5060TIP3    H115186   2.762   1.086   4.980
 5060TIP3    H215187   2.796   0.941   4.952
 5061TIP3   OH215188   2.235   3.337   3.475
 5061TIP3    H115189   2.251   3.431   3.482
 5061TIP3    H215190   2.322   3.299   3.465
 5062TIP3   OH215191   1.984   5.083   0.398
 5062TIP3    H115192   2.025   5.033   0.468
 5062TIP3    H215193   1.901   5.113   0.436
 5063TIP3   OH215194   1.609   5.099   4.310
 5063TIP3    H115195   1.605   5.140   4.223
 5063TIP3    H215196   1.541   5.142   4.360
 5064TIP3   OH215197   3.883   5.195   3.986
 5064TIP3    H115198   3.940   5.177   3.911
 5064TIP3    H215199   3.804   5.234   3.947
 5065TIP3   OH215200   3.761   2.731   4.688
 5065TIP3    H115201   3.753   2.686   4.604
 5065TIP3    H215202   3.853   2.757   4.693
 5066TIP3   OH215203   2.201   0.132   2.134
 5066TIP3    H115204   2.203   0.226   2.150
 5066TIP3    H215205   2.250   0.120   2.053
 5067TIP3   OH215206   3.261   4.821   0.437
 5067TIP3    H115207   3.248   4.728   0.417
 5067TIP3    H215208   3.269   4.825   0.532
 5068TIP3   OH215209   5.887   2.253   4.375
 5068TIP3    H115210   5.909   2.312   4.303
 5068TIP3    H215211   5.956   2.187   4.374
 5069TIP3   OH215212   4.641   1.090   5.031
 5069TIP3    H115213   4.576   1.028   4.998
 5069TIP3    H215214   4.699   1.105   4.956
 5070TIP3   OH215215   6.220   5.535   5.167
 5070TIP3    H115216   6.147   5.579   5.209
 5070TIP3    H215217   6.234   5.584   5.086
 5071TIP3   OH215218   3.267   0.734   0.565
 5071TIP3    H115219   3.200   0.672   0.537
 5071TIP3    H215220   3.348   0.683   0.567
 5072TIP3   OH215221   1.853   1.663   1.396
 5072TIP3    H115222   1.933   1.613   1.411
 5072TIP3    H215223   1.794   1.602   1.354
 5073TIP3   OH215224   4.987   0.632   2.606
 5073TIP3    H115225   5.016   0.541   2.613
 5073TIP3    H215226   5.065   0.684   2.629
 5074TIP3   OH215227   4.526   1.992   4.837
 5074TIP3    H115228   4.601   2.009   4.780
 5074TIP3    H215229   4.564   1.965   4.920
 5075TIP3   OH215230   3.399   5.277   2.272
 5075TIP3    H115231   3.308   5.251   2.286
 5075TIP3    H215232   3.435   5.209   2.215
 5076TIP3   OH215233   3.128   5.472   1.392
 5076TIP3    H115234   3.051   5.415   1.401
 5076TIP3    H215235   3.093   5.560   1.403
 5077TIP3   OH215236   4.679   2.116   2.491
 5077TIP3    H115237   4.666   2.121   2.397
 5077TIP3    H215238   4.600   2.072   2.524
 5078TIP3   OH215239   0.983   1.309   3.134
 5078TIP3    H115240   0.914   1.364   3.098
 5078TIP3    H215241   1.029   1.273   3.058
 5079TIP3   OH215242   5.197   5.076   2.846
 5079TIP3    H115243   5.106   5.103   2.837
 5079TIP3    H215244   5.234   5.086   2.758
 5080TIP3   OH215245   3.030   3.255   3.969
 5080TIP3    H115246   2.957   3.265   4.030
 5080TIP3    H215247   2.996   3.200   3.899
 5081TIP3   OH215248   5.577   0.694   0.822
 5081TIP3    H115249   5.539   0.608   0.808
 5081TIP3    H215250   5.506   0.755   0.804
 5082TIP3   OH215251   2.666   5.065   0.123
 5082TIP3    H115252   2.631   4.978   0.141
 5082TIP3    H215253   2.691   5.099   0.210
 5083TIP3   OH215254   1.101   5.550   4.047
 5083TIP3    H115255   1.111   5.548   4.142
 5083TIP3    H215256   1.092   5.642   4.025
 5084TIP3   OH215257   3.132   4.107   2.842
 5084TIP3    H115258   3.070   4.143   2.779
 5084TIP3    H215259   3.140   4.174   2.910
 5085TIP3   OH215260   4.672   1.297   1.326
 5085TIP3    H115261   4.592   1.330   1.367
 5085TIP3    H215262   4.648   1.211   1.292
 5086TIP3   OH215263   1.937   2.901   4.245
 5086TIP3    H115264   2.005   2.838   4.270
 5086TIP3    H215265   1.979   2.956   4.179
 5087TIP3   OH215266   3.640   0.393   3.027
 5087TIP3    H115267   3.583   0.468   3.017
 5087TIP3    H215268   3.729   0.428   3.015
 5088TIP3   OH215269   4.853   4.046   2.187
 5088TIP3    H115270   4.915   3.983   2.224
 5088TIP3    H215271   4.901   4.128   2.183
 5089TIP3   OH215272   1.228   1.556   4.377
 5089TIP3    H115273   1.185   1.621   4.432
 5089TIP3    H215274   1.186   1.566   4.291
 5090TIP3   OH215275   2.785   0.525   3.214
 5090TIP3    H115276   2.850   0.584   3.252
 5090TIP3    H215277   2.765   0.563   3.128
 5091TIP3   OH215278   0.667   1.430   4.281
 5091TIP3    H115279   0.718   1.495   4.328
 5091TIP3    H215280   0.612   1.389   4.349
 5092TIP3   OH215281   5.681   5.293   2.005
 5092TIP3    H115282   5.645   5.317   2.091
 5092TIP3    H215283   5.723   5.373   1.974
 5093TIP3   OH215284   0.884   4.066   5.093
 5093TIP3    H115285   0.940   4.071   5.016
 5093TIP3    H215286   0.929   4.117   5.160
 5094TIP3   OH215287   4.623   1.797   3.517
 5094TIP3    H115288   4.559   1.760   3.457
 5094TIP3    H215289   4.582   1.876   3.550
 5095TIP3   OH215290   2.826   3.049   3.077
 5095TIP3    H115291   2.762   3.027   3.010
 5095TIP3    H215292   2.911   3.046   3.031
 5096TIP3   OH215293   2.658   1.620   3.513
 5096TIP3    H115294   2.619   1.708   3.518
 5096TIP3    H215295   2.747   1.635   3.481
 5097TIP3   OH215296   0.112   0.557   4.219
 5097TIP3    H115297   0.025   0.579   4.184
 5097TIP3    H215298   0.148   0.640   4.248
 5098TIP3   OH215299   4.532   3.993   2.709
 5098TIP3    H115300   4.498   4.012   2.622
 5098TIP3    H215301   4.474   4.040   2.768
 5099TIP3   OH215302   2.020   4.135   1.721
 5099TIP3    H115303   1.948   4.163   1.665
 5099TIP3    H215304   2.046   4.050   1.684
 5100TIP3   OH215305   0.231   5.297   3.992
 5100TIP3    H115306   0.197   5.382   4.020
 5100TIP3    H215307   0.314   5.288   4.039
 5101TIP3   OH215308   1.800   5.615   0.987
 5101TIP3    H115309   1.817   5.591   0.896
 5101TIP3    H215310   1.705   5.609   0.996
 5102TIP3   OH215311   2.312   4.963   0.910
 5102TIP3    H115312   2.304   5.056   0.887
 5102TIP3    H215313   2.381   4.930   0.852
 5103TIP3   OH215314   0.669   1.705   1.472
 5103TIP3    H115315   0.708   1.783   1.432
 5103TIP3    H215316   0.577   1.709   1.448
 5104TIP3   OH215317   2.445   2.547   2.212
 5104TIP3    H115318   2.399   2.576   2.291
 5104TIP3    H215319   2.415   2.608   2.144
 5105TIP3   OH215320   3.633   2.289   0.832
 5105TIP3    H115321   3.702   2.328   0.886
 5105TIP3    H215322   3.605   2.359   0.773
 5106TIP3   OH215323   4.127  -0.024   3.787
 5106TIP3    H115324   4.055  -0.056   3.842
 5106TIP3    H215325   4.090   0.050   3.740
 5107TIP3   OH215326   2.533   0.133   4.728
 5107TIP3    H115327   2.488   0.211   4.696
 5107TIP3    H215328   2.603   0.117   4.664
 5108TIP3   OH215329   5.284   1.674   2.996
 5108TIP3    H115330   5.250   1.685   3.085
 5108TIP3    H215331   5.341   1.598   3.001
 5109TIP3   OH215332   3.398   3.761   2.472
 5109TIP3    H115333   3.439   3.801   2.395
 5109TIP3    H215334   3.357   3.682   2.438
 5110TIP3   OH215335   1.695   0.649   2.632
 5110TIP3    H115336   1.605   0.660   2.663
 5110TIP3    H215337   1.723   0.737   2.607
 5111TIP3   OH215338   1.547   3.796   0.346
 5111TIP3    H115339   1.498   3.876   0.366
 5111TIP3    H215340   1.598   3.818   0.268
 5112TIP3   OH215341   1.018   5.711   3.352
 5112TIP3    H115342   1.095   5.746   3.307
 5112TIP3    H215343   1.030   5.616   3.349
 5113TIP3   OH215344   5.915   3.157   1.936
 5113TIP3    H115345   5.919   3.133   1.843
 5113TIP3    H215346   5.839   3.110   1.970
 5114TIP3   OH215347   3.783   2.289   0.535
 5114TIP3    H115348   3.774   2.200   0.570
 5114TIP3    H215349   3.866   2.287   0.487
 5115TIP3   OH215350   2.429   2.130   2.911
 5115TIP3    H115351   2.450   2.079   2.989
 5115TIP3    H215352   2.444   2.070   2.838
 5116TIP3   OH215353   3.237   4.404   4.314
 5116TIP3    H115354   3.331   4.399   4.301
 5116TIP3    H215355   3.200   4.351   4.243
 5117TIP3   OH215356   3.430   5.056   2.718
 5117TIP3    H115357   3.512   5.071   2.766
 5117TIP3    H215358   3.376   5.005   2.778
 5118TIP3   OH215359   0.443   2.244   2.283
 5118TIP3    H115360   0.388   2.167   2.268
 5118TIP3    H215361   0.415   2.277   2.369
 5119TIP3   OH215362   4.006   0.121   1.391
 5119TIP3    H115363   3.997   0.207   1.432
 5119TIP3    H215364   4.049   0.140   1.307
 5120TIP3   OH215365   5.858   0.724   4.975
 5120TIP3    H115366   5.794   0.653   4.973
 5120TIP3    H215367   5.831   0.784   4.906
 5121TIP3   OH215368   0.093   4.763   2.086
 5121TIP3    H115369   0.136   4.788   2.167
 5121TIP3    H215370   0.112   4.835   2.025
 5122TIP3   OH215371   3.156   3.524   3.875
 5122TIP3    H115372   3.148   3.436   3.912
 5122TIP3    H215373   3.224   3.517   3.808
 5123TIP3   OH215374   3.552   4.557   2.088
 5123TIP3    H115375   3.475   4.525   2.042
 5123TIP3    H215376   3.528   4.556   2.181
 5124TIP3   OH215377   3.420   1.654   0.207
 5124TIP3    H115378   3.504   1.645   0.163
 5124TIP3    H215379   3.390   1.742   0.187
 5125TIP3   OH215380   0.058   4.517   5.010
 5125TIP3    H115381   0.018   4.452   4.953
 5125TIP3    H215382   0.121   4.466   5.063
 5126TIP3   OH215383   2.491   2.430   2.830
 5126TIP3    H115384   2.562   2.453   2.891
 5126TIP3    H215385   2.475   2.337   2.847
 5127TIP3   OH215386   5.186   3.594   3.451
 5127TIP3    H115387   5.147   3.584   3.538
 5127TIP3    H215388   5.117   3.570   3.390
 5128TIP3   OH215389   4.716   3.007   0.058
 5128TIP3    H115390   4.694   2.918   0.030
 5128TIP3    H215391   4.689   3.063  -0.015
 5129TIP3   OH215392   1.450   3.553   2.529
 5129TIP3    H115393   1.535   3.570   2.487
 5129TIP3    H215394   1.466   3.477   2.585
 5130TIP3   OH215395   6.296   1.934   1.494
 5130TIP3    H115396   6.257   1.957   1.410
 5130TIP3    H215397   6.334   1.847   1.481
 5131TIP3   OH215398   1.593   4.167   0.811
 5131TIP3    H115399   1.576   4.246   0.862
 5131TIP3    H215400   1.538   4.100   0.851
 5132TIP3   OH215401   4.093   5.124   1.078
 5132TIP3    H115402   4.085   5.184   1.004
 5132TIP3    H215403   4.121   5.180   1.151
 5133TIP3   OH215404   0.213   3.026   1.417
 5133TIP3    H115405   0.133   3.033   1.469
 5133TIP3    H215406   0.204   3.092   1.349
 5134TIP3   OH215407   5.768   5.335   2.460
 5134TIP3    H115408   5.719   5.363   2.538
 5134TIP3    H215409   5.821   5.262   2.491
 5135TIP3   OH215410   4.332   1.916   2.232
 5135TIP3    H115411   4.238   1.899   2.220
 5135TIP3    H215412   4.375   1.841   2.191
 5136TIP3   OH215413   4.312   3.864   1.748
 5136TIP3    H115414   4.361   3.840   1.827
 5136TIP3    H215415   4.311   3.784   1.696
 5137TIP3   OH215416   0.229   5.598   4.002
 5137TIP3    H115417   0.232   5.669   4.066
 5137TIP3    H215418   0.297   5.620   3.939
 5138TIP3   OH215419   1.624   5.497   4.466
 5138TIP3    H115420   1.566   5.487   4.390
 5138TIP3    H215421   1.576   5.556   4.525
 5139TIP3   OH215422   6.211   1.680   4.635
 5139TIP3    H115423   6.185   1.717   4.719
 5139TIP3    H215424   6.233   1.756   4.580
 5140TIP3   OH215425   1.233   5.572   1.413
 5140TIP3    H115426   1.179   5.650   1.403
 5140TIP3    H215427   1.269   5.556   1.326
 5141TIP3   OH215428   2.941   3.102   0.595
 5141TIP3    H115429   2.926   3.070   0.506
 5141TIP3    H215430   3.006   3.042   0.632
 5142TIP3   OH215431   3.091   1.972   1.206
 5142TIP3    H115432   3.079   2.049   1.261
 5142TIP3    H215433   3.124   1.905   1.265
 5143TIP3   OH215434   6.070   1.420   3.187
 5143TIP3    H115435   6.103   1.463   3.109
 5143TIP3    H215436   6.147   1.378   3.226
 5144TIP3   OH215437   1.063   4.285   0.279
 5144TIP3    H115438   1.010   4.235   0.341
 5144TIP3    H215439   1.104   4.218   0.224
 5145TIP3   OH215440   6.048   0.176   2.840
 5145TIP3    H115441   6.013   0.223   2.765
 5145TIP3    H215442   5.999   0.093   2.842
 5146TIP3   OH215443   0.565   0.257   0.160
 5146TIP3    H115444   0.661   0.262   0.154
 5146TIP3    H215445   0.548   0.177   0.209
 5147TIP3   OH215446   3.806   1.438   4.601
 5147TIP3    H115447   3.828   1.467   4.512
 5147TIP3    H215448   3.884   1.458   4.652
 5148TIP3   OH215449   3.146   4.984   4.223
 5148TIP3    H115450   3.099   5.058   4.184
 5148TIP3    H215451   3.234   4.989   4.187
 5149TIP3   OH215452   0.215   3.806   2.684
 5149TIP3    H115453   0.150   3.736   2.695
 5149TIP3    H215454   0.198   3.867   2.756
 5150TIP3   OH215455   4.445   3.861   1.002
 5150TIP3    H115456   4.537   3.871   1.026
 5150TIP3    H215457   4.408   3.805   1.070
 5151TIP3   OH215458   2.470   2.650   0.348
 5151TIP3    H115459   2.384   2.663   0.308
 5151TIP3    H215460   2.452   2.594   0.423
 5152TIP3   OH215461   1.213   1.783   2.549
 5152TIP3    H115462   1.232   1.705   2.498
 5152TIP3    H215463   1.128   1.813   2.517
 5153TIP3   OH215464   5.586   2.587   1.368
 5153TIP3    H115465   5.573   2.538   1.286
 5153TIP3    H215466   5.614   2.521   1.431
 5154TIP3   OH215467   2.789   2.838   0.852
 5154TIP3    H115468   2.789   2.775   0.924
 5154TIP3    H215469   2.790   2.785   0.773
 5155TIP3   OH215470   5.819   5.439   4.664
 5155TIP3    H115471   5.901   5.393   4.683
 5155TIP3    H215472   5.820   5.514   4.723
 5156TIP3   OH215473   3.557   2.586   2.423
 5156TIP3    H115474   3.513   2.625   2.498
 5156TIP3    H215475   3.507   2.614   2.347
 5157TIP3   OH215476   1.400   2.098   0.405
 5157TIP3    H115477   1.357   2.046   0.473
 5157TIP3    H215478   1.350   2.180   0.402
 5158TIP3   OH215479   4.502   0.223   0.723
 5158TIP3    H115480   4.532   0.133   0.737
 5158TIP3    H215481   4.406   0.217   0.724
 5159TIP3   OH215482   5.099   5.765   4.319
 5159TIP3    H115483   5.040   5.799   4.387
 5159TIP3    H215484   5.049   5.696   4.276
 5160TIP3   OH215485   5.625   1.981   4.086
 5160TIP3    H115486   5.674   1.970   4.005
 5160TIP3    H215487   5.658   2.062   4.124
 5161TIP3   OH215488   0.892   3.766   0.581
 5161TIP3    H115489   0.972   3.723   0.549
 5161TIP3    H215490   0.924   3.842   0.629
 5162TIP3   OH215491   5.282   1.187   3.048
 5162TIP3    H115492   5.276   1.189   3.144
 5162TIP3    H215493   5.191   1.185   3.019
 5163TIP3   OH215494   4.950   4.970   3.824
 5163TIP3    H115495   4.863   4.931   3.820
 5163TIP3    H215496   4.976   4.982   3.733
 5164TIP3   OH215497   0.448   3.561   3.580
 5164TIP3    H115498   0.507   3.637   3.582
 5164TIP3    H215499   0.397   3.572   3.499
 5165TIP3   OH215500   4.438   4.201   3.667
 5165TIP3    H115501   4.532   4.188   3.658
 5165TIP3    H215502   4.425   4.295   3.650
 5166TIP3   OH215503   2.008   1.423   0.850
 5166TIP3    H115504   2.017   1.339   0.805
 5166TIP3    H215505   2.072   1.418   0.921
 5167TIP3   OH215506   0.223   3.776   0.659
 5167TIP3    H115507   0.287   3.744   0.723
 5167TIP3    H215508   0.276   3.804   0.584
 5168TIP3   OH215509   0.757   2.557   3.291
 5168TIP3    H115510   0.807   2.633   3.259
 5168TIP3    H215511   0.691   2.595   3.349
 5169TIP3   OH215512   3.479   1.956   0.329
 5169TIP3    H115513   3.483   1.934   0.422
 5169TIP3    H215514   3.394   1.999   0.319
 5170TIP3   OH215515   0.343   3.661   4.284
 5170TIP3    H115516   0.378   3.715   4.213
 5170TIP3    H215517   0.420   3.635   4.334
 5171TIP3   OH215518   0.409   1.990   3.125
 5171TIP3    H115519   0.481   1.982   3.062
 5171TIP3    H215520   0.331   1.967   3.075
 5172TIP3   OH215521   2.721   3.943   4.206
 5172TIP3    H115522   2.768   3.864   4.232
 5172TIP3    H215523   2.735   3.949   4.111
 5173TIP3   OH215524   3.590   1.293   1.298
 5173TIP3    H115525   3.517   1.252   1.251
 5173TIP3    H215526   3.572   1.274   1.390
 5174TIP3   OH215527   3.110   3.285  -0.028
 5174TIP3    H115528   3.152   3.340   0.038
 5174TIP3    H215529   3.049   3.230   0.022
 5175TIP3   OH215530   3.713   5.243   0.193
 5175TIP3    H115531   3.773   5.203   0.130
 5175TIP3    H215532   3.634   5.190   0.188
 5176TIP3   OH215533   5.797   5.961   2.474
 5176TIP3    H115534   5.793   5.957   2.378
 5176TIP3    H215535   5.770   5.874   2.502
 5177TIP3   OH215536   5.354   0.302   3.002
 5177TIP3    H115537   5.303   0.221   3.001
 5177TIP3    H215538   5.289   0.371   3.017
 5178TIP3   OH215539   3.340   1.582   2.018
 5178TIP3    H115540   3.260   1.599   1.968
 5178TIP3    H215541   3.411   1.601   1.957
 5179TIP3   OH215542   1.116   0.943   1.093
 5179TIP3    H115543   1.051   0.949   1.164
 5179TIP3    H215544   1.194   0.985   1.128
 5180TIP3   OH215545   4.065   3.575   2.318
 5180TIP3    H115546   4.149   3.553   2.278
 5180TIP3    H215547   4.087   3.607   2.405
 5181TIP3   OH215548   5.835   1.277   3.916
 5181TIP3    H115549   5.791   1.343   3.862
 5181TIP3    H215550   5.784   1.197   3.902
 5182TIP3   OH215551   2.190   5.220   4.851
 5182TIP3    H115552   2.285   5.209   4.843
 5182TIP3    H215553   2.166   5.272   4.774
 5183TIP3   OH215554   3.437   5.028   4.382
 5183TIP3    H115555   3.452   5.002   4.291
 5183TIP3    H215556   3.448   5.124   4.381
 5184TIP3   OH215557   4.115   1.107   4.280
 5184TIP3    H115558   4.034   1.153   4.303
 5184TIP3    H215559   4.152   1.158   4.208
 5185TIP3   OH215560   1.780   2.839   1.330
 5185TIP3    H115561   1.761   2.746   1.321
 5185TIP3    H215562   1.845   2.844   1.400
 5186TIP3   OH215563   2.089   0.687   3.671
 5186TIP3    H115564   2.107   0.683   3.577
 5186TIP3    H215565   2.002   0.727   3.677
 5187TIP3   OH215566   6.083   1.646   2.725
 5187TIP3    H115567   6.160   1.672   2.674
 5187TIP3    H215568   6.117   1.630   2.813
 5188TIP3   OH215569   2.540   3.280   0.042
 5188TIP3    H115570   2.504   3.355   0.091
 5188TIP3    H215571   2.464   3.241  -0.001
 5189TIP3   OH215572   6.236   4.597   3.397
 5189TIP3    H115573   6.142   4.580   3.388
 5189TIP3    H215574   6.262   4.550   3.476
 5190TIP3   OH215575   3.333   2.044   4.071
 5190TIP3    H115576   3.282   2.033   4.151
 5190TIP3    H215577   3.270   2.075   4.006
 5191TIP3   OH215578   5.330   0.272   3.549
 5191TIP3    H115579   5.390   0.335   3.589
 5191TIP3    H215580   5.372   0.247   3.467
 5192TIP3   OH215581   0.621   5.349   4.197
 5192TIP3    H115582   0.681   5.400   4.252
 5192TIP3    H215583   0.534   5.373   4.229
 5193TIP3   OH215584   4.462   4.508   4.411
 5193TIP3    H115585   4.443   4.513   4.505
 5193TIP3    H215586   4.552   4.475   4.407
 5194TIP3   OH215587   1.938   4.574   3.314
 5194TIP3    H115588   1.875   4.567   3.385
 5194TIP3    H215589   1.893   4.624   3.246
 5195TIP3   OH215590   4.261   0.991   2.923
 5195TIP3    H115591   4.181   1.016   2.876
 5195TIP3    H215592   4.307   0.932   2.863
 5196TIP3   OH215593   5.361   4.742   2.356
 5196TIP3    H115594   5.341   4.669   2.414
 5196TIP3    H215595   5.408   4.703   2.282
 5197TIP3   OH215596   1.129   5.637   4.412
 5197TIP3    H115597   1.109   5.551   4.448
 5197TIP3    H215598   1.060   5.694   4.446
 5198TIP3   OH215599   0.151   4.894   4.197
 5198TIP3    H115600   0.174   4.854   4.113
 5198TIP3    H215601   0.092   4.832   4.239
 5199TIP3   OH215602   2.974   3.122   4.669
 5199TIP3    H115603   3.011   3.039   4.640
 5199TIP3    H215604   2.880   3.103   4.680
 5200TIP3   OH215605   0.345   5.946   1.498
 5200TIP3    H115606   0.425   5.990   1.473
 5200TIP3    H215607   0.356   5.856   1.467
 5201TIP3   OH215608   1.578   3.363   4.818
 5201TIP3    H115609   1.660   3.321   4.791
 5201TIP3    H215610   1.605   3.423   4.888
 5202TIP3   OH215611   3.792   5.344   2.352
 5202TIP3    H115612   3.881   5.321   2.381
 5202TIP3    H215613   3.805   5.418   2.293
 5203TIP3   OH215614   0.424   2.830   0.267
 5203TIP3    H115615   0.468   2.786   0.194
 5203TIP3    H215616   0.438   2.772   0.342
 5204TIP3   OH215617   5.759   1.100   5.079
 5204TIP3    H115618   5.829   1.164   5.066
 5204TIP3    H215619   5.737   1.107   5.171
 5205TIP3   OH215620   4.401   0.936   0.639
 5205TIP3    H115621   4.435   1.019   0.605
 5205TIP3    H215622   4.334   0.962   0.702
 5206TIP3   OH215623   3.721   1.054   2.212
 5206TIP3    H115624   3.661   1.003   2.267
 5206TIP3    H215625   3.716   1.143   2.248
 5207TIP3   OH215626   2.512   4.587   3.086
 5207TIP3    H115627   2.549   4.556   3.003
 5207TIP3    H215628   2.455   4.515   3.115
 5208TIP3   OH215629   4.561   1.221   3.007
 5208TIP3    H115630   4.564   1.246   2.915
 5208TIP3    H215631   4.469   1.231   3.032
 5209TIP3   OH215632   0.333   5.048   1.091
 5209TIP3    H115633   0.335   5.122   1.031
 5209TIP3    H215634   0.385   5.076   1.166
 5210TIP3   OH215635   6.129   5.068   3.380
 5210TIP3    H115636   6.200   5.062   3.316
 5210TIP3    H215637   6.145   4.996   3.440
 5211TIP3   OH215638   5.533   2.203   0.248
 5211TIP3    H115639   5.497   2.117   0.271
 5211TIP3    H215640   5.622   2.185   0.218
 5212TIP3   OH215641   3.002   3.802   1.243
 5212TIP3    H115642   2.986   3.728   1.185
 5212TIP3    H215643   2.933   3.865   1.221
 5213TIP3   OH215644   5.763   3.153   0.297
 5213TIP3    H115645   5.854   3.167   0.321
 5213TIP3    H215646   5.713   3.206   0.358
 5214TIP3   OH215647   3.027   5.036   1.740
 5214TIP3    H115648   3.062   4.962   1.690
 5214TIP3    H215649   2.932   5.024   1.736
 5215TIP3   OH215650   2.856   0.937   2.167
 5215TIP3    H115651   2.897   0.862   2.211
 5215TIP3    H215652   2.930   0.984   2.127
 5216TIP3   OH215653   3.511   1.063   4.231
 5216TIP3    H115654   3.541   1.095   4.316
 5216TIP3    H215655   3.466   1.138   4.192
 5217TIP3   OH215656   0.299   3.381   0.849
 5217TIP3    H115657   0.293   3.286   0.860
 5217TIP3    H215658   0.326   3.393   0.758
 5218TIP3   OH215659   3.952   5.351   3.045
 5218TIP3    H115660   4.020   5.338   3.111
 5218TIP3    H215661   3.991   5.317   2.964
 5219TIP3   OH215662   3.171   3.859   3.387
 5219TIP3    H115663   3.148   3.767   3.402
 5219TIP3    H215664   3.088   3.902   3.370
 5220TIP3   OH215665   0.213   4.710   3.381
 5220TIP3    H115666   0.157   4.776   3.342
 5220TIP3    H215667   0.300   4.725   3.343
 5221TIP3   OH215668   5.962   5.704   2.388
 5221TIP3    H115669   5.870   5.728   2.381
 5221TIP3    H215670   5.993   5.700   2.297
 5222TIP3   OH215671   5.842   4.060   4.644
 5222TIP3    H115672   5.796   4.083   4.724
 5222TIP3    H215673   5.815   3.970   4.625
 5223TIP3   OH215674   5.624   1.217   0.127
 5223TIP3    H115675   5.707   1.173   0.148
 5223TIP3    H215676   5.646   1.279   0.058
 5224TIP3   OH215677   3.216   5.078   0.657
 5224TIP3    H115678   3.186   4.992   0.685
 5224TIP3    H215679   3.310   5.077   0.673
 5225TIP3   OH215680   4.518   1.416  -0.010
 5225TIP3    H115681   4.576   1.365   0.046
 5225TIP3    H215682   4.535   1.507   0.015
 5226TIP3   OH215683   0.664   3.077   4.383
 5226TIP3    H115684   0.755   3.062   4.408
 5226TIP3    H215685   0.666   3.076   4.287
 5227TIP3   OH215686   4.795   4.300   4.242
 5227TIP3    H115687   4.800   4.239   4.315
 5227TIP3    H215688   4.865   4.273   4.183
 5228TIP3   OH215689   2.567   3.317   2.171
 5228TIP3    H115690   2.586   3.339   2.262
 5228TIP3    H215691   2.645   3.270   2.141
 5229TIP3   OH215692   2.212   2.555   4.176
 5229TIP3    H115693   2.156   2.576   4.102
 5229TIP3    H215694   2.181   2.470   4.207
 5230TIP3   OH215695   4.317   3.947   3.729
 5230TIP3    H115696   4.309   3.899   3.647
 5230TIP3    H215697   4.338   4.037   3.702
 5231TIP3   OH215698   0.707   0.486   1.268
 5231TIP3    H115699   0.799   0.513   1.271
 5231TIP3    H215700   0.709   0.399   1.228
 5232TIP3   OH215701   4.940   4.687   4.087
 5232TIP3    H115702   4.987   4.607   4.064
 5232TIP3    H215703   4.858   4.656   4.126
 5233TIP3   OH215704   5.845   1.719   2.321
 5233TIP3    H115705   5.897   1.799   2.316
 5233TIP3    H215706   5.878   1.664   2.250
 5234TIP3   OH215707   2.355   2.856   4.004
 5234TIP3    H115708   2.347   2.949   3.981
 5234TIP3    H215709   2.371   2.812   3.921
 5235TIP3   OH215710   2.877   2.325   4.813
 5235TIP3    H115711   2.868   2.325   4.718
 5235TIP3    H215712   2.961   2.284   4.830
 5236TIP3   OH215713   2.079   2.534   0.062
 5236TIP3    H115714   2.127   2.453   0.047
 5236TIP3    H215715   2.147   2.599   0.083
 5237TIP3   OH215716   0.078   3.933   4.615
 5237TIP3    H115717   0.168   3.903   4.626
 5237TIP3    H215718   0.086   4.024   4.586
 5238TIP3   OH215719   0.364   5.941   2.199
 5238TIP3    H115720   0.350   6.020   2.146
 5238TIP3    H215721   0.430   5.967   2.263
 5239TIP3   OH215722   3.080   0.114   2.187
 5239TIP3    H115723   3.072   0.020   2.207
 5239TIP3    H215724   3.103   0.116   2.094
 5240TIP3   OH215725   1.334   4.467   1.895
 5240TIP3    H115726   1.414   4.519   1.899
 5240TIP3    H215727   1.263   4.531   1.897
 5241TIP3   OH215728   0.636   2.196   1.146
 5241TIP3    H115729   0.544   2.211   1.122
 5241TIP3    H215730   0.657   2.111   1.106
 5242TIP3   OH215731   6.180   5.468   4.372
 5242TIP3    H115732   6.122   5.465   4.296
 5242TIP3    H215733   6.217   5.380   4.378
 5243TIP3   OH215734   3.510   4.753   2.599
 5243TIP3    H115735   3.430   4.772   2.648
 5243TIP3    H215736   3.519   4.826   2.538
 5244TIP3   OH215737   5.773   4.264   0.577
 5244TIP3    H115738   5.681   4.278   0.600
 5244TIP3    H215739   5.822   4.295   0.653
 5245TIP3   OH215740   2.094   1.468   0.539
 5245TIP3    H115741   2.135   1.532   0.598
 5245TIP3    H215742   2.013   1.511   0.510
 5246TIP3   OH215743   1.465   5.676   4.607
 5246TIP3    H115744   1.370   5.672   4.599
 5246TIP3    H215745   1.483   5.767   4.631
 5247TIP3   OH215746   0.703   4.636   4.482
 5247TIP3    H115747   0.689   4.557   4.534
 5247TIP3    H215748   0.638   4.630   4.412
 5248TIP3   OH215749   1.639   3.853   4.687
 5248TIP3    H115750   1.692   3.924   4.652
 5248TIP3    H215751   1.664   3.777   4.634
 5249TIP3   OH215752   0.204   0.659   0.726
 5249TIP3    H115753   0.176   0.637   0.637
 5249TIP3    H215754   0.277   0.719   0.714
 5250TIP3   OH215755   4.646   4.001   3.843
 5250TIP3    H115756   4.558   3.988   3.808
 5250TIP3    H215757   4.685   4.067   3.785
 5251TIP3   OH215758   1.533   1.004   3.431
 5251TIP3    H115759   1.441   0.981   3.439
 5251TIP3    H215760   1.540   1.091   3.471
 5252TIP3   OH215761   5.312   2.190   0.829
 5252TIP3    H115762   5.323   2.117   0.890
 5252TIP3    H215763   5.235   2.237   0.861
 5253TIP3   OH215764   3.497   1.837   3.533
 5253TIP3    H115765   3.451   1.764   3.574
 5253TIP3    H215766   3.568   1.859   3.593
 5254TIP3   OH215767   2.893   2.714   0.315
 5254TIP3    H115768   2.825   2.724   0.381
 5254TIP3    H215769   2.919   2.804   0.294
 5255TIP3   OH215770   6.287   1.403   4.554
 5255TIP3    H115771   6.225   1.391   4.626
 5255TIP3    H215772   6.319   1.493   4.565
 5256TIP3   OH215773   0.726   1.019   0.206
 5256TIP3    H115774   0.634   1.023   0.232
 5256TIP3    H215775   0.767   0.964   0.272
 5257TIP3   OH215776   5.970   3.065   4.217
 5257TIP3    H115777   6.057   3.031   4.195
 5257TIP3    H215778   5.911   3.019   4.157
 5258TIP3   OH215779   1.788   3.772   2.746
 5258TIP3    H115780   1.717   3.770   2.811
 5258TIP3    H215781   1.768   3.699   2.687
 5259TIP3   OH215782   4.391   4.283   1.974
 5259TIP3    H115783   4.383   4.309   2.066
 5259TIP3    H215784   4.422   4.193   1.976
 5260TIP3   OH215785   0.548   0.135   4.704
 5260TIP3    H115786   0.602   0.067   4.664
 5260TIP3    H215787   0.519   0.188   4.630
 5261TIP3   OH215788   4.893   0.984   3.433
 5261TIP3    H115789   4.927   0.912   3.486
 5261TIP3    H215790   4.807   0.954   3.405
 5262TIP3   OH215791   3.454   0.656   0.754
 5262TIP3    H115792   3.500   0.728   0.798
 5262TIP3    H215793   3.524   0.607   0.711
 5263TIP3   OH215794   0.440   5.890   1.173
 5263TIP3    H115795   0.509   5.927   1.229
 5263TIP3    H215796   0.432   5.800   1.203
 5264TIP3   OH215797   5.077   0.700   0.026
 5264TIP3    H115798   5.128   0.769   0.069
 5264TIP3    H215799   5.115   0.695  -0.062
 5265TIP3   OH215800   5.777  -0.010   1.102
 5265TIP3    H115801   5.690   0.001   1.140
 5265TIP3    H215802   5.785   0.062   1.040
 5266TIP3   OH215803   6.275   2.407   1.837
 5266TIP3    H115804   6.238   2.338   1.892
 5266TIP3    H215805   6.335   2.361   1.778
 5267TIP3   OH215806   1.900   2.451   3.224
 5267TIP3    H115807   1.927   2.476   3.136
 5267TIP3    H215808   1.838   2.379   3.210
 5268TIP3   OH215809   2.226   1.162   3.139
 5268TIP3    H115810   2.208   1.078   3.095
 5268TIP3    H215811   2.163   1.165   3.211
 5269TIP3   OH215812   2.625   0.224   0.612
 5269TIP3    H115813   2.681   0.176   0.673
 5269TIP3    H215814   2.537   0.216   0.649
 5270TIP3   OH215815   0.467   4.111   0.715
 5270TIP3    H115816   0.385   4.077   0.679
 5270TIP3    H215817   0.531   4.042   0.697
 5271TIP3   OH215818   1.631   4.093   4.508
 5271TIP3    H115819   1.646   4.150   4.432
 5271TIP3    H215820   1.557   4.133   4.554
 5272TIP3   OH215821   3.487   4.003   1.362
 5272TIP3    H115822   3.497   4.049   1.444
 5272TIP3    H215823   3.515   4.065   1.295
 5273TIP3   OH215824   5.514   0.509   1.969
 5273TIP3    H115825   5.537   0.418   1.953
 5273TIP3    H215826   5.596   0.551   1.996
 5274TIP3   OH215827   5.207   0.110   2.682
 5274TIP3    H115828   5.179   0.023   2.711
 5274TIP3    H215829   5.181   0.168   2.754
 5275TIP3   OH215830   2.400   3.193   2.398
 5275TIP3    H115831   2.482   3.143   2.399
 5275TIP3    H215832   2.332   3.126   2.402
 5276TIP3   OH215833   3.779   2.476   3.189
 5276TIP3    H115834   3.850   2.416   3.168
 5276TIP3    H215835   3.733   2.434   3.262
 5277TIP3   OH215836   2.215   2.905   3.401
 5277TIP3    H115837   2.177   2.917   3.314
 5277TIP3    H215838   2.309   2.897   3.385
 5278TIP3   OH215839   0.898   4.658   3.880
 5278TIP3    H115840   0.841   4.646   3.955
 5278TIP3    H215841   0.966   4.591   3.891
 5279TIP3   OH215842   0.032   5.562   1.134
 5279TIP3    H115843   0.065   5.613   1.059
 5279TIP3    H215844  -0.059   5.545   1.113
 5280TIP3   OH215845   5.902   3.219   2.203
 5280TIP3    H115846   5.934   3.207   2.113
 5280TIP3    H215847   5.869   3.133   2.227
 5281TIP3   OH215848   5.725   5.020   0.908
 5281TIP3    H115849   5.636   5.056   0.907
 5281TIP3    H215850   5.720   4.942   0.852
 5282TIP3   OH215851   6.268   0.609   3.539
 5282TIP3    H115852   6.348   0.596   3.488
 5282TIP3    H215853   6.210   0.539   3.511
 5283TIP3   OH215854   4.338   3.662   1.558
 5283TIP3    H115855   4.326   3.570   1.582
 5283TIP3    H215856   4.292   3.671   1.475
 5284TIP3   OH215857   2.151   0.900   4.484
 5284TIP3    H115858   2.109   0.954   4.550
 5284TIP3    H215859   2.199   0.961   4.429
 5285TIP3   OH215860   1.800   4.833   2.842
 5285TIP3    H115861   1.709   4.806   2.827
 5285TIP3    H215862   1.830   4.863   2.757
 5286TIP3   OH215863   4.845   4.397   2.520
 5286TIP3    H115864   4.912   4.420   2.456
 5286TIP3    H215865   4.868   4.310   2.551
 5287TIP3   OH215866   5.159   4.612   3.015
 5287TIP3    H115867   5.241   4.570   2.992
 5287TIP3    H215868   5.092   4.562   2.968
 5288TIP3   OH215869   3.732   4.376   5.110
 5288TIP3    H115870   3.701   4.287   5.122
 5288TIP3    H215871   3.805   4.368   5.048
 5289TIP3   OH215872   0.041   5.942   1.607
 5289TIP3    H115873   0.089   6.016   1.571
 5289TIP3    H215874   0.047   5.874   1.540
 5290TIP3   OH215875   2.606   5.135   3.090
 5290TIP3    H115876   2.539   5.090   3.142
 5290TIP3    H215877   2.622   5.077   3.017
 5291TIP3   OH215878   1.094   1.223   2.882
 5291TIP3    H115879   1.129   1.254   2.798
 5291TIP3    H215880   1.172   1.200   2.933
 5292TIP3   OH215881   4.477   0.202   3.966
 5292TIP3    H115882   4.474   0.253   4.046
 5292TIP3    H215883   4.538   0.131   3.984
 5293TIP3   OH215884   2.179   0.588   4.721
 5293TIP3    H115885   2.103   0.633   4.682
 5293TIP3    H215886   2.143   0.541   4.796
 5294TIP3   OH215887   3.778   0.779   0.477
 5294TIP3    H115888   3.862   0.777   0.430
 5294TIP3    H215889   3.717   0.736   0.418
 5295TIP3   OH215890   2.508   4.945   1.190
 5295TIP3    H115891   2.449   5.016   1.218
 5295TIP3    H215892   2.461   4.902   1.118
 5296TIP3   OH215893   0.439   4.379   4.875
 5296TIP3    H115894   0.352   4.340   4.886
 5296TIP3    H215895   0.450   4.435   4.951
 5297TIP3   OH215896   5.348   0.887   5.068
 5297TIP3    H115897   5.309   0.826   5.005
 5297TIP3    H215898   5.377   0.961   5.015
 5298TIP3   OH215899   0.510   5.150   1.291
 5298TIP3    H115900   0.534   5.242   1.286
 5298TIP3    H215901   0.571   5.112   1.354
 5299TIP3   OH215902   4.622   5.451   4.622
 5299TIP3    H115903   4.634   5.366   4.665
 5299TIP3    H215904   4.526   5.460   4.616
 5300TIP3   OH215905   0.482   4.912   4.223
 5300TIP3    H115906   0.476   4.904   4.318
 5300TIP3    H215907   0.454   4.827   4.190
 5301TIP3   OH215908   5.630   5.770   4.144
 5301TIP3    H115909   5.583   5.775   4.227
 5301TIP3    H215910   5.721   5.753   4.168
 5302TIP3   OH215911   2.779   3.979   2.680
 5302TIP3    H115912   2.754   4.057   2.631
 5302TIP3    H215913   2.717   3.975   2.752
 5303TIP3   OH215914   0.996   5.237   1.107
 5303TIP3    H115915   0.963   5.159   1.151
 5303TIP3    H215916   0.999   5.214   1.015
 5304TIP3   OH215917   6.080   5.553   3.638
 5304TIP3    H115918   6.047   5.553   3.728
 5304TIP3    H215919   6.140   5.479   3.635
 5305TIP3   OH215920   4.437   0.857   4.417
 5305TIP3    H115921   4.354   0.846   4.370
 5305TIP3    H215922   4.504   0.846   4.349
 5306TIP3   OH215923   3.428   2.669   3.371
 5306TIP3    H115924   3.426   2.610   3.446
 5306TIP3    H215925   3.370   2.741   3.395
 5307TIP3   OH215926   5.695   5.031   2.656
 5307TIP3    H115927   5.621   4.971   2.653
 5307TIP3    H215928   5.657   5.116   2.677
 5308TIP3   OH215929   4.923   3.812   0.737
 5308TIP3    H115930   4.870   3.744   0.778
 5308TIP3    H215931   4.957   3.863   0.810
 5309TIP3   OH215932   0.455   2.083   4.999
 5309TIP3    H115933   0.491   2.115   5.082
 5309TIP3    H215934   0.398   2.154   4.969
 5310TIP3   OH215935   4.089   3.394   3.401
 5310TIP3    H115936   4.002   3.385   3.363
 5310TIP3    H215937   4.076   3.451   3.477
 5311TIP3   OH215938   0.149   5.869   4.290
 5311TIP3    H115939   0.206   5.825   4.228
 5311TIP3    H215940   0.073   5.896   4.238
 5312TIP3   OH215941   0.395   4.330   3.738
 5312TIP3    H115942   0.418   4.379   3.817
 5312TIP3    H215943   0.471   4.274   3.723
 5313TIP3   OH215944   5.771   0.299   2.218
 5313TIP3    H115945   5.841   0.353   2.252
 5313TIP3    H215946   5.691   0.336   2.256
 5314TIP3   OH215947   3.963   4.464   2.854
 5314TIP3    H115948   3.897   4.499   2.794
 5314TIP3    H215949   3.980   4.375   2.821
 5315TIP3   OH215950   4.671   5.656   0.553
 5315TIP3    H115951   4.709   5.635   0.468
 5315TIP3    H215952   4.727   5.727   0.587
 5316TIP3   OH215953   4.203   0.561   3.860
 5316TIP3    H115954   4.281   0.540   3.910
 5316TIP3    H215955   4.179   0.649   3.889
 5317TIP3   OH215956   0.222   4.099   1.159
 5317TIP3    H115957   0.217   4.056   1.245
 5317TIP3    H215958   0.221   4.192   1.179
 5318TIP3   OH215959   1.663   0.808   0.240
 5318TIP3    H115960   1.700   0.817   0.328
 5318TIP3    H215961   1.631   0.895   0.219
 5319TIP3   OH215962   2.618   5.527   1.682
 5319TIP3    H115963   2.665   5.604   1.651
 5319TIP3    H215964   2.666   5.499   1.760
 5320TIP3   OH215965   3.824   4.480   2.093
 5320TIP3    H115966   3.833   4.480   1.997
 5320TIP3    H215967   3.750   4.539   2.109
 5321TIP3   OH215968   3.665   0.562   2.430
 5321TIP3    H115969   3.678   0.473   2.461
 5321TIP3    H215970   3.610   0.603   2.497
 5322TIP3   OH215971   4.039   3.263   1.175
 5322TIP3    H115972   4.107   3.305   1.228
 5322TIP3    H215973   4.080   3.184   1.142
 5323TIP3   OH215974   5.951   1.361   0.274
 5323TIP3    H115975   5.951   1.299   0.201
 5323TIP3    H215976   5.916   1.311   0.347
 5324TIP3   OH215977   2.301   5.555   4.771
 5324TIP3    H115978   2.391   5.587   4.774
 5324TIP3    H215979   2.289   5.506   4.852
 5325TIP3   OH215980   4.441   3.180   4.887
 5325TIP3    H115981   4.400   3.221   4.963
 5325TIP3    H215982   4.430   3.244   4.817
 5326TIP3   OH215983   1.150   0.986   3.163
 5326TIP3    H115984   1.181   0.954   3.248
 5326TIP3    H215985   1.054   0.977   3.168
 5327TIP3   OH215986   5.597   3.956   4.124
 5327TIP3    H115987   5.660   3.994   4.185
 5327TIP3    H215988   5.599   3.862   4.143
 5328TIP3   OH215989   5.828   3.494   2.250
 5328TIP3    H115990   5.821   3.404   2.282
 5328TIP3    H215991   5.846   3.484   2.157
 5329TIP3   OH215992   4.635   1.946   0.236
 5329TIP3    H115993   4.625   2.029   0.284
 5329TIP3    H215994   4.601   1.880   0.297
 5330TIP3   OH215995   2.348   2.164   4.104
 5330TIP3    H115996   2.407   2.120   4.164
 5330TIP3    H215997   2.371   2.129   4.018
 5331TIP3   OH215998   2.644   2.542   2.388
 5331TIP3    H115999   2.574   2.533   2.323
 5331TIP3    H216000   2.618   2.618   2.440
 5332TIP3   OH216001   2.436   4.984   3.315
 5332TIP3    H116002   2.376   5.057   3.299
 5332TIP3    H216003   2.403   4.914   3.257
 5333TIP3   OH216004   2.796   1.887   2.653
 5333TIP3    H116005   2.767   1.955   2.714
 5333TIP3    H216006   2.715   1.852   2.616
 5334TIP3   OH216007   5.122   5.105   0.550
 5334TIP3    H116008   5.074   5.023   0.547
 5334TIP3    H216009   5.206   5.086   0.508
 5335TIP3   OH216010   3.429   5.800   1.444
 5335TIP3    H116011   3.470   5.715   1.459
 5335TIP3    H216012   3.352   5.801   1.501
 5336TIP3   OH216013   6.109   1.101   4.196
 5336TIP3    H116014   6.111   1.010   4.226
 5336TIP3    H216015   6.031   1.138   4.237
 5337TIP3   OH216016   2.190   1.562   2.197
 5337TIP3    H116017   2.104   1.538   2.232
 5337TIP3    H216018   2.221   1.482   2.154
 5338TIP3   OH216019   2.050   2.555   1.419
 5338TIP3    H116020   2.017   2.644   1.406
 5338TIP3    H216021   2.144   2.563   1.406
 5339TIP3   OH216022   5.119   5.108   1.802
 5339TIP3    H116023   5.132   5.203   1.799
 5339TIP3    H216024   5.207   5.072   1.816
 5340TIP3   OH216025   6.312   3.075   0.460
 5340TIP3    H116026   6.343   3.165   0.471
 5340TIP3    H216027   6.320   3.036   0.547
 5341TIP3   OH216028   0.814   1.655   0.053
 5341TIP3    H116029   0.719   1.665   0.058
 5341TIP3    H216030   0.837   1.600   0.128
 5342TIP3   OH216031   4.790   4.451   1.855
 5342TIP3    H116032   4.796   4.543   1.881
 5342TIP3    H216033   4.699   4.426   1.872
 5343TIP3   OH216034   2.436   2.957   4.766
 5343TIP3    H116035   2.416   3.050   4.772
 5343TIP3    H216036   2.464   2.945   4.675
 5344TIP3   OH216037   4.912   5.017   2.713
 5344TIP3    H116038   4.995   4.979   2.685
 5344TIP3    H216039   4.855   5.007   2.637
 5345TIP3   OH216040   2.236   0.430   0.722
 5345TIP3    H116041   2.184   0.425   0.802
 5345TIP3    H216042   2.180   0.476   0.660
 5346TIP3   OH216043   3.351   3.957   2.974
 5346TIP3    H116044   3.294   4.027   2.943
 5346TIP3    H216045   3.440   3.992   2.966
 5347TIP3   OH216046   1.899   3.436   0.563
 5347TIP3    H116047   1.870   3.508   0.507
 5347TIP3    H216048   1.822   3.379   0.570
 5348TIP3   OH216049   6.247   4.850   4.267
 5348TIP3    H116050   6.258   4.862   4.173
 5348TIP3    H216051   6.184   4.917   4.293
 5349TIP3   OH216052   1.571   3.850   3.212
 5349TIP3    H116053   1.609   3.915   3.153
 5349TIP3    H216054   1.492   3.891   3.247
 5350TIP3   OH216055   5.433   4.292   4.988
 5350TIP3    H116056   5.509   4.307   5.045
 5350TIP3    H216057   5.364   4.348   5.025
 5351TIP3   OH216058   3.948   4.878   0.283
 5351TIP3    H116059   4.002   4.952   0.257
 5351TIP3    H216060   3.981   4.805   0.230
 5352TIP3   OH216061   1.720   1.667   3.714
 5352TIP3    H116062   1.697   1.712   3.795
 5352TIP3    H216063   1.704   1.575   3.731
 5353TIP3   OH216064   2.405   1.635   5.111
 5353TIP3    H116065   2.485   1.653   5.061
 5353TIP3    H216066   2.387   1.715   5.159
 5354TIP3   OH216067   4.147   4.743   4.087
 5354TIP3    H116068   4.154   4.752   4.182
 5354TIP3    H216069   4.105   4.659   4.074
 5355TIP3   OH216070   2.097   1.364   2.845
 5355TIP3    H116071   2.186   1.330   2.848
 5355TIP3    H216072   2.079   1.391   2.935
 5356TIP3   OH216073   6.098   5.656   3.125
 5356TIP3    H116074   6.100   5.658   3.029
 5356TIP3    H216075   6.005   5.657   3.147
 5357TIP3   OH216076   3.486   3.447   0.704
 5357TIP3    H116077   3.417   3.388   0.734
 5357TIP3    H216078   3.494   3.429   0.610
 5358TIP3   OH216079   2.964   2.271   3.886
 5358TIP3    H116080   2.963   2.352   3.936
 5358TIP3    H216081   2.965   2.202   3.952
 5359TIP3   OH216082   2.385   5.786   3.942
 5359TIP3    H116083   2.345   5.853   3.887
 5359TIP3    H216084   2.322   5.772   4.013
 5360TIP3   OH216085   5.404   2.649   1.758
 5360TIP3    H116086   5.463   2.724   1.771
 5360TIP3    H216087   5.432   2.585   1.824
 5361TIP3   OH216088   2.501   1.440   4.279
 5361TIP3    H116089   2.443   1.364   4.281
 5361TIP3    H216090   2.445   1.513   4.303
 5362TIP3   OH216091   0.467   4.729   1.240
 5362TIP3    H116092   0.446   4.703   1.151
 5362TIP3    H216093   0.554   4.769   1.234
 5363TIP3   OH216094   2.108   3.776   2.201
 5363TIP3    H116095   2.122   3.683   2.183
 5363TIP3    H216096   2.075   3.812   2.119
 5364TIP3   OH216097   0.351   3.077   2.273
 5364TIP3    H116098   0.431   3.128   2.255
 5364TIP3    H216099   0.283   3.121   2.222
 5365TIP3   OH216100   2.449   4.635   3.935
 5365TIP3    H116101   2.432   4.568   4.002
 5365TIP3    H216102   2.510   4.592   3.874
 5366TIP3   OH216103   3.136   0.975   2.057
 5366TIP3    H116104   3.126   0.882   2.036
 5366TIP3    H216105   3.162   1.016   1.974
 5367TIP3   OH216106   1.176   0.788   2.954
 5367TIP3    H116107   1.163   0.870   3.002
 5367TIP3    H216108   1.173   0.720   3.020
 5368TIP3   OH216109   2.862   1.046   2.676
 5368TIP3    H116110   2.784   0.992   2.686
 5368TIP3    H216111   2.872   1.091   2.759
 5369TIP3   OH216112   4.230   1.788   4.943
 5369TIP3    H116113   4.175   1.839   5.003
 5369TIP3    H216114   4.294   1.850   4.910
 5370TIP3   OH216115   0.766   5.536   1.597
 5370TIP3    H116116   0.742   5.614   1.545
 5370TIP3    H216117   0.858   5.520   1.575
 5371TIP3   OH216118   5.198   1.693   4.117
 5371TIP3    H116119   5.138   1.640   4.066
 5371TIP3    H216120   5.243   1.748   4.052
 5372TIP3   OH216121   0.478   1.198   1.937
 5372TIP3    H116122   0.459   1.213   1.845
 5372TIP3    H216123   0.487   1.286   1.974
 5373TIP3   OH216124   4.399   4.922   2.278
 5373TIP3    H116125   4.313   4.962   2.260
 5373TIP3    H216126   4.414   4.938   2.371
 5374TIP3   OH216127   5.295   2.878   4.672
 5374TIP3    H116128   5.390   2.876   4.680
 5374TIP3    H216129   5.264   2.901   4.759
 5375TIP3   OH216130   0.730   1.150   3.038
 5375TIP3    H116131   0.788   1.112   2.972
 5375TIP3    H216132   0.772   1.233   3.061
 5376TIP3   OH216133   5.555   5.899   4.472
 5376TIP3    H116134   5.525   5.944   4.393
 5376TIP3    H216135   5.479   5.898   4.530
 5377TIP3   OH216136   3.540   2.484   1.165
 5377TIP3    H116137   3.592   2.406   1.146
 5377TIP3    H216138   3.504   2.511   1.081
 5378TIP3   OH216139   3.000   4.133   3.674
 5378TIP3    H116140   3.072   4.179   3.631
 5378TIP3    H216141   3.007   4.043   3.644
 5379TIP3   OH216142   6.044   2.768   3.984
 5379TIP3    H116143   6.045   2.858   3.953
 5379TIP3    H216144   6.093   2.770   4.067
 5380TIP3   OH216145   5.028   1.232   3.434
 5380TIP3    H116146   4.991   1.296   3.373
 5380TIP3    H216147   4.972   1.155   3.425
 5381TIP3   OH216148   4.754   2.830   0.318
 5381TIP3    H116149   4.678   2.822   0.376
 5381TIP3    H216150   4.717   2.835   0.230
 5382TIP3   OH216151   1.570   1.710   2.733
 5382TIP3    H116152   1.664   1.710   2.753
 5382TIP3    H216153   1.527   1.708   2.818
 5383TIP3   OH216154   1.367   4.625   2.645
 5383TIP3    H116155   1.275   4.633   2.619
 5383TIP3    H216156   1.366   4.627   2.740
 5384TIP3   OH216157   3.661   4.504   3.125
 5384TIP3    H116158   3.751   4.530   3.144
 5384TIP3    H216159   3.619   4.499   3.211
 5385TIP3   OH216160   2.471   0.816   3.092
 5385TIP3    H116161   2.479   0.793   3.000
 5385TIP3    H216162   2.524   0.896   3.102
 5386TIP3   OH216163   5.226   3.450   3.950
 5386TIP3    H116164   5.266   3.385   4.007
 5386TIP3    H216165   5.289   3.463   3.879
 5387TIP3   OH216166   1.508   5.210   2.293
 5387TIP3    H116167   1.523   5.128   2.247
 5387TIP3    H216168   1.432   5.249   2.250
 5388TIP3   OH216169   5.670   5.763   1.971
 5388TIP3    H116170   5.585   5.737   2.007
 5388TIP3    H216171   5.649   5.830   1.906
 5389TIP3   OH216172   2.745   2.380   1.971
 5389TIP3    H116173   2.750   2.457   1.915
 5389TIP3    H216174   2.812   2.321   1.937
 5390TIP3   OH216175   0.681   0.410   0.491
 5390TIP3    H116176   0.711   0.491   0.533
 5390TIP3    H216177   0.761   0.366   0.463
 5391TIP3   OH216178   0.847   0.287   0.168
 5391TIP3    H116179   0.888   0.218   0.219
 5391TIP3    H216180   0.912   0.310   0.101
 5392TIP3   OH216181   2.898   4.221   4.603
 5392TIP3    H116182   2.904   4.141   4.550
 5392TIP3    H216183   2.988   4.237   4.632
 5393TIP3   OH216184   5.044   5.796   1.530
 5393TIP3    H116185   5.077   5.757   1.449
 5393TIP3    H216186   4.949   5.799   1.518
 5394TIP3   OH216187   4.609   1.052   1.211
 5394TIP3    H116188   4.660   1.079   1.134
 5394TIP3    H216189   4.579   0.964   1.190
 5395TIP3   OH216190   4.041   3.633   1.363
 5395TIP3    H116191   3.961   3.639   1.310
 5395TIP3    H216192   4.093   3.566   1.320
 5396TIP3   OH216193   2.416   4.773   5.202
 5396TIP3    H116194   2.490   4.725   5.166
 5396TIP3    H216195   2.348   4.706   5.215
 5397TIP3   OH216196   3.678   4.297   2.934
 5397TIP3    H116197   3.757   4.251   2.962
 5397TIP3    H216198   3.657   4.355   3.007
 5398TIP3   OH216199   3.692   2.037   2.240
 5398TIP3    H116200   3.673   2.049   2.147
 5398TIP3    H216201   3.626   2.089   2.286
 5399TIP3   OH216202   5.419   3.562   1.619
 5399TIP3    H116203   5.387   3.650   1.639
 5399TIP3    H216204   5.348   3.522   1.569
 5400TIP3   OH216205   1.839   0.300   1.675
 5400TIP3    H116206   1.818   0.336   1.761
 5400TIP3    H216207   1.781   0.347   1.614
 5401TIP3   OH216208   3.309   2.882   3.478
 5401TIP3    H116209   3.224   2.916   3.450
 5401TIP3    H216210   3.326   2.926   3.561
 5402TIP3   OH216211   0.726   1.500   4.990
 5402TIP3    H116212   0.647   1.451   5.009
 5402TIP3    H216213   0.703   1.556   4.916
 5403TIP3   OH216214   5.042   0.065   0.106
 5403TIP3    H116215   5.072  -0.022   0.081
 5403TIP3    H216216   5.079   0.079   0.193
 5404TIP3   OH216217   1.843   4.036   0.015
 5404TIP3    H116218   1.818   4.123  -0.015
 5404TIP3    H216219   1.937   4.031  -0.002
 5405TIP3   OH216220   6.297   3.465   2.200
 5405TIP3    H116221   6.285   3.456   2.106
 5405TIP3    H216222   6.213   3.440   2.238
 5406TIP3   OH216223   0.716   4.550   1.823
 5406TIP3    H116224   0.751   4.627   1.779
 5406TIP3    H216225   0.639   4.526   1.772
 5407TIP3   OH216226   4.048   1.233   0.041
 5407TIP3    H116227   4.009   1.214  -0.044
 5407TIP3    H216228   3.993   1.185   0.104
 5408TIP3   OH216229   3.254   3.326   1.578
 5408TIP3    H116230   3.234   3.410   1.619
 5408TIP3    H216231   3.319   3.345   1.511
 5409TIP3   OH216232   5.275   0.189   0.699
 5409TIP3    H116233   5.359   0.187   0.655
 5409TIP3    H216234   5.290   0.143   0.782
 5410TIP3   OH216235   2.659   4.033   1.310
 5410TIP3    H116236   2.629   4.116   1.347
 5410TIP3    H216237   2.579   3.980   1.303
 5411TIP3   OH216238   4.080   3.948   4.206
 5411TIP3    H116239   4.022   4.018   4.177
 5411TIP3    H216240   4.086   3.959   4.301
 5412TIP3   OH216241   4.585   2.061   3.666
 5412TIP3    H116242   4.665   2.114   3.666
 5412TIP3    H216243   4.580   2.025   3.754
 5413TIP3   OH216244   1.827   4.661   1.855
 5413TIP3    H116245   1.856   4.742   1.897
 5413TIP3    H216246   1.908   4.613   1.838
 5414TIP3   OH216247   3.218   5.832   3.681
 5414TIP3    H116248   3.271   5.911   3.677
 5414TIP3    H216249   3.139   5.853   3.631
 5415TIP3   OH216250   5.134   3.102   4.873
 5415TIP3    H116251   5.102   3.176   4.820
 5415TIP3    H216252   5.219   3.131   4.906
 5416TIP3   OH216253   5.419   3.002   4.976
 5416TIP3    H116254   5.364   3.034   5.048
 5416TIP3    H216255   5.481   3.073   4.960
 5417TIP3   OH216256   5.951   5.442   4.189
 5417TIP3    H116257   6.028   5.385   4.178
 5417TIP3    H216258   5.896   5.397   4.252
 5418TIP3   OH216259   1.451   5.299   0.346
 5418TIP3    H116260   1.371   5.275   0.391
 5418TIP3    H216261   1.501   5.218   0.341
 5419TIP3   OH216262   0.109   3.727   4.153
 5419TIP3    H116263   0.196   3.724   4.192
 5419TIP3    H216264   0.106   3.812   4.109
 5420TIP3   OH216265   5.673   3.216   0.853
 5420TIP3    H116266   5.765   3.238   0.864
 5420TIP3    H216267   5.643   3.191   0.940
 5421TIP3   OH216268   5.501   0.905   1.804
 5421TIP3    H116269   5.575   0.846   1.813
 5421TIP3    H216270   5.538   0.986   1.770
 5422TIP3   OH216271   1.185   0.297   1.704
 5422TIP3    H116272   1.204   0.358   1.776
 5422TIP3    H216273   1.268   0.291   1.655
 5423TIP3   OH216274   3.067   2.121   2.134
 5423TIP3    H116275   2.987   2.163   2.166
 5423TIP3    H216276   3.137   2.158   2.188
 5424TIP3   OH216277   4.221   2.933   0.351
 5424TIP3    H116278   4.309   2.933   0.314
 5424TIP3    H216279   4.171   2.876   0.294
 5425TIP3   OH216280   5.472   5.250   5.074
 5425TIP3    H116281   5.561   5.252   5.039
 5425TIP3    H216282   5.423   5.195   5.013
 5426TIP3   OH216283   0.078   2.599   1.204
 5426TIP3    H116284   0.112   2.681   1.169
 5426TIP3    H216285   0.130   2.582   1.282
 5427TIP3   OH216286   2.774   1.403   4.389
 5427TIP3    H116287   2.685   1.378   4.361
 5427TIP3    H216288   2.764   1.428   4.481
 5428TIP3   OH216289   0.441   1.168   0.207
 5428TIP3    H116290   0.413   1.137   0.121
 5428TIP3    H216291   0.441   1.263   0.200
 5429TIP3   OH216292   3.145   1.307   3.902
 5429TIP3    H116293   3.055   1.317   3.871
 5429TIP3    H216294   3.192   1.273   3.826
 5430TIP3   OH216295   3.267   4.034   4.162
 5430TIP3    H116296   3.313   3.952   4.178
 5430TIP3    H216297   3.335   4.102   4.169
 5431TIP3   OH216298   5.231   2.360   3.612
 5431TIP3    H116299   5.140   2.389   3.621
 5431TIP3    H216300   5.253   2.378   3.521
 5432TIP3   OH216301   2.407   3.820   3.179
 5432TIP3    H116302   2.336   3.864   3.132
 5432TIP3    H216303   2.424   3.741   3.128
 5433TIP3   OH216304   4.753   5.338   1.535
 5433TIP3    H116305   4.684   5.329   1.600
 5433TIP3    H216306   4.795   5.422   1.555
 5434TIP3   OH216307   3.324   5.064   0.941
 5434TIP3    H116308   3.369   5.082   0.858
 5434TIP3    H216309   3.231   5.064   0.918
 5435TIP3   OH216310   3.332   1.206   1.211
 5435TIP3    H116311   3.297   1.289   1.246
 5435TIP3    H216312   3.317   1.143   1.282
 5436TIP3   OH216313   4.501   5.376   2.082
 5436TIP3    H116314   4.513   5.353   2.175
 5436TIP3    H216315   4.435   5.314   2.051
 5437TIP3   OH216316   2.580   3.784   1.042
 5437TIP3    H116317   2.494   3.742   1.034
 5437TIP3    H216318   2.627   3.729   1.104
 5438TIP3   OH216319   3.985   5.426   2.752
 5438TIP3    H116320   3.951   5.490   2.815
 5438TIP3    H216321   4.029   5.478   2.686
 5439TIP3   OH216322   4.896   5.559   4.876
 5439TIP3    H116323   4.977   5.605   4.899
 5439TIP3    H216324   4.906   5.538   4.783
 5440TIP3   OH216325   0.394   3.821   3.004
 5440TIP3    H116326   0.373   3.869   3.084
 5440TIP3    H216327   0.309   3.804   2.963
 5441TIP3   OH216328   2.105   3.728   1.905
 5441TIP3    H116329   2.142   3.718   1.817
 5441TIP3    H216330   2.117   3.643   1.946
 5442TIP3   OH216331   5.100   3.705   2.752
 5442TIP3    H116332   5.183   3.683   2.796
 5442TIP3    H216333   5.099   3.801   2.750
 5443TIP3   OH216334   5.303   5.228   1.006
 5443TIP3    H116335   5.282   5.165   0.938
 5443TIP3    H216336   5.398   5.242   0.998
 5444TIP3   OH216337   0.601   2.351   2.822
 5444TIP3    H116338   0.604   2.355   2.726
 5444TIP3    H216339   0.658   2.278   2.844
 5445TIP3   OH216340   4.663   5.166   4.669
 5445TIP3    H116341   4.648   5.097   4.605
 5445TIP3    H216342   4.732   5.133   4.725
 5446TIP3   OH216343   3.807   3.220   1.009
 5446TIP3    H116344   3.867   3.256   1.075
 5446TIP3    H216345   3.864   3.182   0.943
 5447TIP3   OH216346   2.031   2.983   4.713
 5447TIP3    H116347   2.021   2.970   4.808
 5447TIP3    H216348   1.943   2.973   4.678
 5448TIP3   OH216349   3.121   1.015   3.454
 5448TIP3    H116350   3.181   0.948   3.423
 5448TIP3    H216351   3.036   0.990   3.418
 5449TIP3   OH216352   1.264   4.950   4.631
 5449TIP3    H116353   1.305   4.880   4.681
 5449TIP3    H216354   1.324   5.025   4.641
 5450TIP3   OH216355   3.938   3.585   4.619
 5450TIP3    H116356   3.892   3.502   4.633
 5450TIP3    H216357   3.974   3.607   4.705
 5451TIP3   OH216358   4.022   1.868   4.271
 5451TIP3    H116359   3.988   1.821   4.195
 5451TIP3    H216360   4.007   1.809   4.345
 5452TIP3   OH216361   3.870   1.457   3.137
 5452TIP3    H116362   3.783   1.435   3.170
 5452TIP3    H216363   3.929   1.442   3.211
 5453TIP3   OH216364   1.742   4.022   1.363
 5453TIP3    H116365   1.819   4.023   1.306
 5453TIP3    H216366   1.759   3.951   1.425
 5454TIP3   OH216367   1.184   3.890   4.628
 5454TIP3    H116368   1.212   3.856   4.543
 5454TIP3    H216369   1.235   3.840   4.691
 5455TIP3   OH216370   4.934   0.776   0.773
 5455TIP3    H116371   4.925   0.686   0.741
 5455TIP3    H216372   4.964   0.826   0.697
 5456TIP3   OH216373   0.138   3.728   2.954
 5456TIP3    H116374   0.054   3.687   2.974
 5456TIP3    H216375   0.190   3.658   2.912
 5457TIP3   OH216376   0.726   1.955   4.691
 5457TIP3    H116377   0.804   1.973   4.745
 5457TIP3    H216378   0.661   1.922   4.753
 5458TIP3   OH216379   1.737   5.640   2.341
 5458TIP3    H116380   1.681   5.640   2.263
 5458TIP3    H216381   1.824   5.662   2.309
 5459TIP3   OH216382   1.746   5.759   3.455
 5459TIP3    H116383   1.713   5.766   3.365
 5459TIP3    H216384   1.724   5.844   3.494
 5460TIP3   OH216385   0.098   1.086   3.369
 5460TIP3    H116386   0.081   0.996   3.341
 5460TIP3    H216387   0.120   1.079   3.462
 5461TIP3   OH216388   0.938   0.407   4.928
 5461TIP3    H116389   0.973   0.348   4.995
 5461TIP3    H216390   0.843   0.403   4.939
 5462TIP3   OH216391   5.139   4.124   3.430
 5462TIP3    H116392   5.101   4.037   3.412
 5462TIP3    H216393   5.088   4.157   3.503
 5463TIP3   OH216394   4.784   0.777   0.058
 5463TIP3    H116395   4.751   0.767   0.147
 5463TIP3    H216396   4.878   0.763   0.066
 5464TIP3   OH216397   4.350   4.093   4.762
 5464TIP3    H116398   4.349   4.183   4.731
 5464TIP3    H216399   4.379   4.042   4.687
 5465TIP3   OH216400   1.486   0.221   4.105
 5465TIP3    H116401   1.543   0.147   4.084
 5465TIP3    H216402   1.545   0.296   4.111
 5466TIP3   OH216403   5.694   1.150   1.999
 5466TIP3    H116404   5.739   1.213   2.055
 5466TIP3    H216405   5.612   1.193   1.976
 5467TIP3   OH216406   3.588   2.531   0.659
 5467TIP3    H116407   3.494   2.516   0.662
 5467TIP3    H216408   3.605   2.563   0.570
 5468TIP3   OH216409   2.880   4.444   1.080
 5468TIP3    H116410   2.881   4.458   0.985
 5468TIP3    H216411   2.971   4.451   1.107
 5469TIP3   OH216412   4.353   1.625   0.608
 5469TIP3    H116413   4.408   1.559   0.565
 5469TIP3    H216414   4.263   1.597   0.588
 5470TIP3   OH216415   4.680   1.963   2.138
 5470TIP3    H116416   4.593   1.923   2.134
 5470TIP3    H216417   4.740   1.888   2.140
 5471TIP3   OH216418   4.309   0.914   3.597
 5471TIP3    H116419   4.292   0.957   3.513
 5471TIP3    H216420   4.333   0.825   3.574
 5472TIP3   OH216421   2.143   4.312   2.789
 5472TIP3    H116422   2.048   4.313   2.800
 5472TIP3    H216423   2.167   4.220   2.791
 5473TIP3   OH216424   5.147   4.532   3.692
 5473TIP3    H116425   5.232   4.492   3.673
 5473TIP3    H216426   5.161   4.580   3.774
 5474TIP3   OH216427   3.853   4.795   4.443
 5474TIP3    H116428   3.899   4.712   4.456
 5474TIP3    H216429   3.921   4.862   4.449
 5475TIP3   OH216430   0.842   1.489   2.547
 5475TIP3    H116431   0.801   1.435   2.480
 5475TIP3    H216432   0.833   1.439   2.628
 5476TIP3   OH216433   3.106   1.718   0.648
 5476TIP3    H116434   3.179   1.731   0.708
 5476TIP3    H216435   3.144   1.734   0.561
 5477TIP3   OH216436   3.463   1.575   5.091
 5477TIP3    H116437   3.383   1.627   5.081
 5477TIP3    H216438   3.526   1.635   5.131
 5478TIP3   OH216439   3.717   0.385   3.481
 5478TIP3    H116440   3.748   0.444   3.412
 5478TIP3    H216441   3.738   0.431   3.562
 5479TIP3   OH216442   5.333   0.538   1.762
 5479TIP3    H116443   5.390   0.542   1.839
 5479TIP3    H216444   5.249   0.570   1.794
 5480TIP3   OH216445   5.072   2.568   1.087
 5480TIP3    H116446   5.083   2.575   1.182
 5480TIP3    H216447   5.159   2.546   1.055
 5481TIP3   OH216448   2.929   0.678   2.380
 5481TIP3    H116449   3.009   0.687   2.328
 5481TIP3    H216450   2.953   0.619   2.451
 5482TIP3   OH216451   1.226   1.364   3.868
 5482TIP3    H116452   1.260   1.362   3.957
 5482TIP3    H216453   1.134   1.340   3.876
 5483TIP3   OH216454   0.316   3.589   4.675
 5483TIP3    H116455   0.409   3.604   4.693
 5483TIP3    H216456   0.284   3.673   4.643
 5484TIP3   OH216457   1.441   4.007   2.180
 5484TIP3    H116458   1.532   4.037   2.172
 5484TIP3    H216459   1.395   4.051   2.108
 5485TIP3   OH216460   3.721   0.751   1.059
 5485TIP3    H116461   3.661   0.700   1.004
 5485TIP3    H216462   3.754   0.688   1.124
 5486TIP3   OH216463   4.959   3.905   3.873
 5486TIP3    H116464   4.976   3.860   3.790
 5486TIP3    H216465   4.864   3.914   3.877
 5487TIP3   OH216466   2.998   2.049   1.659
 5487TIP3    H116467   2.977   1.958   1.642
 5487TIP3    H216468   3.078   2.066   1.609
 5488TIP3   OH216469   4.084   3.716   3.393
 5488TIP3    H116470   4.002   3.718   3.441
 5488TIP3    H216471   4.063   3.671   3.311
 5489TIP3   OH216472   0.848   0.685   2.959
 5489TIP3    H116473   0.875   0.770   2.993
 5489TIP3    H216474   0.866   0.623   3.030
 5490TIP3   OH216475   4.246   2.153   1.373
 5490TIP3    H116476   4.229   2.127   1.283
 5490TIP3    H216477   4.251   2.248   1.370
 5491TIP3   OH216478   4.589   2.367   1.291
 5491TIP3    H116479   4.545   2.408   1.216
 5491TIP3    H216480   4.649   2.303   1.252
 5492TIP3   OH216481   5.395   3.122   4.492
 5492TIP3    H116482   5.471   3.166   4.529
 5492TIP3    H216483   5.402   3.031   4.522
 5493TIP3   OH216484   4.246   3.996   0.828
 5493TIP3    H116485   4.164   4.036   0.856
 5493TIP3    H216486   4.256   3.919   0.885
 5494TIP3   OH216487   4.225   3.420   0.228
 5494TIP3    H116488   4.221   3.326   0.243
 5494TIP3    H216489   4.182   3.459   0.304
 5495TIP3   OH216490   1.079   2.424   1.980
 5495TIP3    H116491   1.123   2.509   1.988
 5495TIP3    H216492   0.992   2.439   2.016
 5496TIP3   OH216493   2.156   3.831   3.037
 5496TIP3    H116494   2.149   3.761   2.971
 5496TIP3    H216495   2.068   3.837   3.075
 5497TIP3   OH216496   3.767   3.359   4.658
 5497TIP3    H116497   3.743   3.293   4.592
 5497TIP3    H216498   3.842   3.320   4.704
 5498TIP3   OH216499   4.707   2.046   2.836
 5498TIP3    H116500   4.668   2.006   2.758
 5498TIP3    H216501   4.679   1.989   2.908
 5499TIP3   OH216502   5.041   3.595   2.254
 5499TIP3    H116503   5.004   3.522   2.304
 5499TIP3    H216504   5.099   3.639   2.316
 5500TIP3   OH216505   3.291   1.535   0.463
 5500TIP3    H116506   3.295   1.440   0.450
 5500TIP3    H216507   3.360   1.571   0.408
 5501TIP3   OH216508   0.907   0.362   4.395
 5501TIP3    H116509   0.816   0.334   4.394
 5501TIP3    H216510   0.941   0.330   4.479
 5502TIP3   OH216511   2.433   4.879   4.296
 5502TIP3    H116512   2.345   4.867   4.260
 5502TIP3    H216513   2.424   4.863   4.390
 5503TIP3   OH216514   6.334   1.706   4.283
 5503TIP3    H116515   6.301   1.768   4.349
 5503TIP3    H216516   6.332   1.755   4.201
 5504TIP3   OH216517   1.148   1.111   0.322
 5504TIP3    H116518   1.227   1.072   0.359
 5504TIP3    H216519   1.092   1.127   0.398
 5505TIP3   OH216520   5.410   2.972   0.996
 5505TIP3    H116521   5.497   2.998   1.029
 5505TIP3    H216522   5.391   2.890   1.041
 5506TIP3   OH216523   0.070   4.072   3.541
 5506TIP3    H116524   0.132   4.069   3.614
 5506TIP3    H216525  -0.002   4.127   3.572
 5507TIP3   OH216526   4.342   4.467   3.603
 5507TIP3    H116527   4.380   4.503   3.683
 5507TIP3    H216528   4.248   4.485   3.612
 5508TIP3   OH216529   1.921   0.500   2.715
 5508TIP3    H116530   1.837   0.534   2.686
 5508TIP3    H216531   1.933   0.419   2.666
 5509TIP3   OH216532   5.976   5.980   0.444
 5509TIP3    H116533   5.901   5.947   0.393
 5509TIP3    H216534   6.049   5.924   0.418
 5510TIP3   OH216535   4.959   0.184   1.600
 5510TIP3    H116536   5.027   0.250   1.583
 5510TIP3    H216537   4.894   0.230   1.653
 5511TIP3   OH216538   0.302   0.269   0.997
 5511TIP3    H116539   0.389   0.239   1.022
 5511TIP3    H216540   0.270   0.316   1.074
 5512TIP3   OH216541   4.449   5.528   0.660
 5512TIP3    H116542   4.472   5.579   0.737
 5512TIP3    H216543   4.502   5.566   0.589
 5513TIP3   OH216544   3.062   4.419   4.976
 5513TIP3    H116545   3.134   4.424   5.038
 5513TIP3    H216546   3.001   4.357   5.016
 5514TIP3   OH216547   3.768   5.696   4.991
 5514TIP3    H116548   3.861   5.715   4.978
 5514TIP3    H216549   3.766   5.629   5.059
 5515TIP3   OH216550   0.376   3.294   3.074
 5515TIP3    H116551   0.450   3.325   3.126
 5515TIP3    H216552   0.302   3.347   3.103
 5516TIP3   OH216553   2.386   0.370   4.245
 5516TIP3    H116554   2.323   0.338   4.310
 5516TIP3    H216555   2.415   0.291   4.200
 5517TIP3   OH216556   3.037   4.753   2.815
 5517TIP3    H116557   2.977   4.767   2.889
 5517TIP3    H216558   3.056   4.659   2.819
 5518TIP3   OH216559   6.091   3.359   2.345
 5518TIP3    H116560   6.106   3.267   2.367
 5518TIP3    H216561   6.010   3.358   2.293
 5519TIP3   OH216562   4.136   4.004   4.457
 5519TIP3    H116563   4.098   3.974   4.540
 5519TIP3    H216564   4.184   4.083   4.480
 5520TIP3   OH216565   0.591   4.905   2.097
 5520TIP3    H116566   0.507   4.950   2.099
 5520TIP3    H216567   0.616   4.904   2.004
 5521TIP3   OH216568   0.284   1.881   1.258
 5521TIP3    H116569   0.246   1.806   1.211
 5521TIP3    H216570   0.248   1.874   1.347
 5522TIP3   OH216571   3.227   2.835   1.403
 5522TIP3    H116572   3.253   2.757   1.355
 5522TIP3    H216573   3.237   2.907   1.340
 5523TIP3   OH216574   1.848   5.974   5.091
 5523TIP3    H116575   1.840   6.043   5.026
 5523TIP3    H216576   1.899   5.906   5.047
 5524TIP3   OH216577   3.649   1.618   0.911
 5524TIP3    H116578   3.711   1.598   0.841
 5524TIP3    H216579   3.697   1.598   0.991
 5525TIP3   OH216580   2.997   2.698   3.466
 5525TIP3    H116581   3.035   2.703   3.378
 5525TIP3    H216582   2.973   2.607   3.477
 5526TIP3   OH216583   0.170   0.912   3.143
 5526TIP3    H116584   0.171   0.818   3.125
 5526TIP3    H216585   0.262   0.937   3.139
 5527TIP3   OH216586   5.820   2.464   0.533
 5527TIP3    H116587   5.837   2.544   0.583
 5527TIP3    H216588   5.905   2.440   0.496
 5528TIP3   OH216589   2.270   1.103   4.358
 5528TIP3    H116590   2.272   1.198   4.346
 5528TIP3    H216591   2.340   1.085   4.421
 5529TIP3   OH216592   1.049   1.090   0.558
 5529TIP3    H116593   0.979   1.149   0.586
 5529TIP3    H216594   1.108   1.086   0.633
 5530TIP3   OH216595   3.970   2.631   2.115
 5530TIP3    H116596   3.938   2.687   2.186
 5530TIP3    H216597   3.917   2.552   2.121
 5531TIP3   OH216598   4.545   4.439   1.528
 5531TIP3    H116599   4.483   4.464   1.597
 5531TIP3    H216600   4.530   4.503   1.458
 5532TIP3   OH216601   0.553   4.979   0.057
 5532TIP3    H116602   0.476   4.957   0.004
 5532TIP3    H216603   0.606   5.035   0.001
 5533TIP3   OH216604   5.095   0.334   3.961
 5533TIP3    H116605   5.120   0.422   3.932
 5533TIP3    H216606   5.097   0.340   4.057
 5534TIP3   OH216607   1.815   3.551   2.130
 5534TIP3    H116608   1.813   3.618   2.062
 5534TIP3    H216609   1.906   3.551   2.161
 5535TIP3   OH216610   1.652   3.778   0.633
 5535TIP3    H116611   1.560   3.801   0.643
 5535TIP3    H216612   1.674   3.729   0.712
 5536TIP3   OH216613   5.122   2.023   2.708
 5536TIP3    H116614   5.054   2.010   2.643
 5536TIP3    H216615   5.075   2.042   2.789
 5537TIP3   OH216616   5.406   2.035   3.353
 5537TIP3    H116617   5.485   2.056   3.303
 5537TIP3    H216618   5.335   2.043   3.290
 5538TIP3   OH216619   5.247   1.328   4.748
 5538TIP3    H116620   5.253   1.400   4.811
 5538TIP3    H216621   5.265   1.368   4.663
 5539TIP3   OH216622   5.464   5.439   1.320
 5539TIP3    H116623   5.495   5.435   1.410
 5539TIP3    H216624   5.430   5.352   1.302
 5540TIP3   OH216625   2.722   5.193   0.704
 5540TIP3    H116626   2.787   5.263   0.694
 5540TIP3    H216627   2.711   5.184   0.798
 5541TIP3   OH216628   4.276   5.257   1.696
 5541TIP3    H116629   4.345   5.198   1.665
 5541TIP3    H216630   4.201   5.199   1.714
 5542TIP3   OH216631   3.181   2.705   0.623
 5542TIP3    H116632   3.273   2.719   0.603
 5542TIP3    H216633   3.148   2.793   0.645
 5543TIP3   OH216634   0.284   1.826   0.941
 5543TIP3    H116635   0.221   1.755   0.929
 5543TIP3    H216636   0.231   1.901   0.967
 5544TIP3   OH216637   3.206   1.908   1.966
 5544TIP3    H116638   3.185   1.995   2.003
 5544TIP3    H216639   3.283   1.923   1.912
 5545TIP3   OH216640   5.950   4.890   2.667
 5545TIP3    H116641   5.999   4.889   2.749
 5545TIP3    H216642   5.869   4.937   2.687
 5546TIP3   OH216643   5.831   1.534   1.794
 5546TIP3    H116644   5.913   1.543   1.842
 5546TIP3    H216645   5.765   1.521   1.861
 5547TIP3   OH216646   2.276   2.108   1.479
 5547TIP3    H116647   2.270   2.045   1.407
 5547TIP3    H216648   2.325   2.181   1.442
 5548TIP3   OH216649   4.567   5.014   3.375
 5548TIP3    H116650   4.649   4.976   3.405
 5548TIP3    H216651   4.509   4.940   3.360
 5549TIP3   OH216652   1.149   4.235   3.558
 5549TIP3    H116653   1.117   4.158   3.605
 5549TIP3    H216654   1.239   4.213   3.533
 5550TIP3   OH216655   1.930   3.940   4.751
 5550TIP3    H116656   1.846   3.899   4.771
 5550TIP3    H216657   1.991   3.905   4.816
 5551TIP3   OH216658   5.672   4.572   0.626
 5551TIP3    H116659   5.711   4.507   0.684
 5551TIP3    H216660   5.619   4.521   0.564
 5552TIP3   OH216661   5.931   3.776   4.286
 5552TIP3    H116662   5.962   3.854   4.332
 5552TIP3    H216663   6.009   3.721   4.276
 5553TIP3   OH216664   3.877   3.915   0.385
 5553TIP3    H116665   3.958   3.921   0.437
 5553TIP3    H216666   3.821   3.983   0.421
 5554TIP3   OH216667   4.885   1.066   4.882
 5554TIP3    H116668   4.950   1.011   4.837
 5554TIP3    H216669   4.929   1.095   4.961
 5555TIP3   OH216670   2.882   5.199   3.847
 5555TIP3    H116671   2.834   5.281   3.834
 5555TIP3    H216672   2.954   5.203   3.784
 5556TIP3   OH216673   6.135   1.488   0.718
 5556TIP3    H116674   6.086   1.570   0.731
 5556TIP3    H216675   6.068   1.422   0.702
 5557TIP3   OH216676   5.996   4.526   1.239
 5557TIP3    H116677   5.974   4.615   1.209
 5557TIP3    H216678   6.091   4.525   1.241
 5558TIP3   OH216679   5.153   4.638   3.442
 5558TIP3    H116680   5.098   4.576   3.395
 5558TIP3    H216681   5.154   4.606   3.532
 5559TIP3   OH216682   2.444   0.157   2.533
 5559TIP3    H116683   2.470   0.073   2.571
 5559TIP3    H216684   2.368   0.136   2.478
 5560TIP3   OH216685   5.178   3.876   1.405
 5560TIP3    H116686   5.228   3.939   1.457
 5560TIP3    H216687   5.207   3.890   1.315
 5561TIP3   OH216688   6.061   4.115   3.335
 5561TIP3    H116689   6.086   4.026   3.358
 5561TIP3    H216690   6.085   4.123   3.242
 5562TIP3   OH216691   2.304   4.358   3.009
 5562TIP3    H116692   2.252   4.352   2.929
 5562TIP3    H216693   2.272   4.286   3.064
 5563TIP3   OH216694   2.747   3.964   3.942
 5563TIP3    H116695   2.695   3.918   3.877
 5563TIP3    H216696   2.838   3.951   3.915
 5564TIP3   OH216697   4.421   3.719   4.323
 5564TIP3    H116698   4.451   3.797   4.369
 5564TIP3    H216699   4.334   3.702   4.358
 5565TIP3   OH216700   0.942   2.482   2.727
 5565TIP3    H116701   0.895   2.439   2.656
 5565TIP3    H216702   1.014   2.423   2.748
 5566TIP3   OH216703   4.803   3.795   0.248
 5566TIP3    H116704   4.895   3.817   0.232
 5566TIP3    H216705   4.800   3.770   0.340
 5567TIP3   OH216706   5.654   3.747   1.252
 5567TIP3    H116707   5.736   3.797   1.250
 5567TIP3    H216708   5.586   3.814   1.262
 5568TIP3   OH216709   4.094   2.908   3.444
 5568TIP3    H116710   4.154   2.952   3.505
 5568TIP3    H216711   4.023   2.970   3.431
 5569TIP3   OH216712   3.903   2.376   2.162
 5569TIP3    H116713   3.812   2.357   2.138
 5569TIP3    H216714   3.899   2.400   2.254
 5570TIP3   OH216715   1.212   3.345   1.463
 5570TIP3    H116716   1.166   3.284   1.520
 5570TIP3    H216717   1.243   3.291   1.390
 5571TIP3   OH216718   3.428   3.304   3.515
 5571TIP3    H116719   3.403   3.242   3.446
 5571TIP3    H216720   3.523   3.312   3.506
 5572TIP3   OH216721   3.529   5.685   0.366
 5572TIP3    H116722   3.520   5.592   0.385
 5572TIP3    H216723   3.624   5.698   0.359
 5573TIP3   OH216724   3.955   5.924   4.339
 5573TIP3    H116725   3.929   5.980   4.266
 5573TIP3    H216726   3.928   5.836   4.313
 5574TIP3   OH216727   3.733   2.895   0.350
 5574TIP3    H116728   3.706   2.817   0.303
 5574TIP3    H216729   3.732   2.965   0.284
 5575TIP3   OH216730   6.179   5.112   0.682
 5575TIP3    H116731   6.220   5.026   0.692
 5575TIP3    H216732   6.106   5.112   0.743
 5576TIP3   OH216733   5.693   4.688   0.977
 5576TIP3    H116734   5.671   4.698   0.884
 5576TIP3    H216735   5.786   4.706   0.982
 5577TIP3   OH216736   5.587   3.324   1.550
 5577TIP3    H116737   5.617   3.340   1.639
 5577TIP3    H216738   5.561   3.411   1.518
 5578TIP3   OH216739   5.844   1.620   0.262
 5578TIP3    H116740   5.902   1.667   0.202
 5578TIP3    H216741   5.875   1.529   0.260
 5579TIP3   OH216742   1.829   0.925   1.386
 5579TIP3    H116743   1.806   0.863   1.317
 5579TIP3    H216744   1.804   0.882   1.467
 5580TIP3   OH216745   0.189   5.764   3.128
 5580TIP3    H116746   0.162   5.674   3.143
 5580TIP3    H216747   0.188   5.774   3.032
 5581TIP3   OH216748   6.069   3.522   1.983
 5581TIP3    H116749   6.145   3.465   1.970
 5581TIP3    H216750   5.996   3.462   1.998
 5582TIP3   OH216751   1.413   3.857   0.714
 5582TIP3    H116752   1.403   3.925   0.781
 5582TIP3    H216753   1.386   3.900   0.633
 5583TIP3   OH216754   1.860   0.253   0.499
 5583TIP3    H116755   1.795   0.186   0.479
 5583TIP3    H216756   1.874   0.298   0.416
 5584TIP3   OH216757   3.022   0.939   2.492
 5584TIP3    H116758   2.962   0.981   2.554
 5584TIP3    H216759   2.972   0.866   2.456
 5585TIP3   OH216760   2.154   5.432   3.365
 5585TIP3    H116761   2.086   5.499   3.358
 5585TIP3    H216762   2.116   5.365   3.422
 5586TIP3   OH216763   4.270   5.161   4.198
 5586TIP3    H116764   4.268   5.088   4.136
 5586TIP3    H216765   4.353   5.151   4.244
 5587TIP3   OH216766   3.533   3.790   4.584
 5587TIP3    H116767   3.594   3.860   4.604
 5587TIP3    H216768   3.526   3.739   4.665
 5588TIP3   OH216769   5.579   3.463   2.952
 5588TIP3    H116770   5.655   3.481   2.896
 5588TIP3    H216771   5.524   3.405   2.899
 5589TIP3   OH216772   0.158   4.589   3.117
 5589TIP3    H116773   0.153   4.609   3.210
 5589TIP3    H216774   0.212   4.510   3.112
 5590TIP3   OH216775   2.574   1.136   0.428
 5590TIP3    H116776   2.491   1.151   0.474
 5590TIP3    H216777   2.606   1.054   0.464
 5591TIP3   OH216778   0.049   2.672   0.398
 5591TIP3    H116779  -0.020   2.663   0.463
 5591TIP3    H216780   0.089   2.757   0.418
 5592TIP3   OH216781   1.230   2.641   5.072
 5592TIP3    H116782   1.292   2.715   5.071
 5592TIP3    H216783   1.146   2.681   5.052
 5593TIP3   OH216784   4.226   5.832   3.807
 5593TIP3    H116785   4.312   5.873   3.792
 5593TIP3    H216786   4.244   5.760   3.867
 5594TIP3   OH216787   5.008   2.440   2.677
 5594TIP3    H116788   4.976   2.353   2.699
 5594TIP3    H216789   4.955   2.499   2.732
 5595TIP3   OH216790   2.338   0.351   4.945
 5595TIP3    H116791   2.274   0.386   5.007
 5595TIP3    H216792   2.286   0.295   4.887
 5596TIP3   OH216793   3.800   3.394   0.561
 5596TIP3    H116794   3.861   3.336   0.605
 5596TIP3    H216795   3.855   3.457   0.515
 5597TIP3   OH216796   1.699   2.747   0.821
 5597TIP3    H116797   1.747   2.668   0.846
 5597TIP3    H216798   1.766   2.814   0.808
 5598TIP3   OH216799   4.392   5.468   3.326
 5598TIP3    H116800   4.440   5.394   3.363
 5598TIP3    H216801   4.419   5.543   3.379
 5599TIP3   OH216802   4.755   1.319   0.148
 5599TIP3    H116803   4.850   1.328   0.154
 5599TIP3    H216804   4.741   1.233   0.108
 5600TIP3   OH216805   0.434   5.690   3.457
 5600TIP3    H116806   0.504   5.731   3.407
 5600TIP3    H216807   0.367   5.758   3.464
 5601TIP3   OH216808   6.010   2.602   1.723
 5601TIP3    H116809   5.999   2.605   1.628
 5601TIP3    H216810   6.022   2.509   1.742
 5602TIP3   OH216811   1.537   2.263   1.806
 5602TIP3    H116812   1.471   2.285   1.741
 5602TIP3    H216813   1.547   2.342   1.859
 5603TIP3   OH216814   5.345   5.006   2.402
 5603TIP3    H116815   5.358   4.913   2.383
 5603TIP3    H216816   5.411   5.050   2.348
 5604TIP3   OH216817   3.349   0.659   1.727
 5604TIP3    H116818   3.373   0.609   1.805
 5604TIP3    H216819   3.413   0.632   1.661
 5605TIP3   OH216820   0.340   3.007   3.056
 5605TIP3    H116821   0.348   3.100   3.079
 5605TIP3    H216822   0.302   3.007   2.969
 5606TIP3   OH216823   2.450   2.291   2.288
 5606TIP3    H116824   2.469   2.383   2.269
 5606TIP3    H216825   2.468   2.281   2.381
 5607TIP3   OH216826   0.794   5.498   0.636
 5607TIP3    H116827   0.816   5.527   0.547
 5607TIP3    H216828   0.762   5.576   0.680
 5608TIP3   OH216829   3.871   0.460   4.030
 5608TIP3    H116830   3.875   0.366   4.049
 5608TIP3    H216831   3.795   0.492   4.079
 5609TIP3   OH216832   0.192   0.505   2.690
 5609TIP3    H116833   0.254   0.542   2.627
 5609TIP3    H216834   0.240   0.502   2.773
 5610TIP3   OH216835   4.715   2.874   1.888
 5610TIP3    H116836   4.675   2.806   1.835
 5610TIP3    H216837   4.779   2.915   1.830
 5611TIP3   OH216838   1.455   1.372   2.334
 5611TIP3    H116839   1.472   1.400   2.424
 5611TIP3    H216840   1.407   1.444   2.295
 5612TIP3   OH216841   1.257   2.888   2.172
 5612TIP3    H116842   1.172   2.855   2.201
 5612TIP3    H216843   1.237   2.946   2.099
 5613TIP3   OH216844   3.337   3.320   4.222
 5613TIP3    H116845   3.395   3.355   4.155
 5613TIP3    H216846   3.290   3.396   4.257
 5614TIP3   OH216847   0.454   1.301   3.944
 5614TIP3    H116848   0.434   1.210   3.967
 5614TIP3    H216849   0.499   1.294   3.860
 5615TIP3   OH216850   0.161   4.823   2.980
 5615TIP3    H116851   0.069   4.844   2.994
 5615TIP3    H216852   0.173   4.736   3.020
 5616TIP3   OH216853   1.116   5.465   0.319
 5616TIP3    H116854   1.091   5.534   0.258
 5616TIP3    H216855   1.051   5.396   0.305
 5617TIP3   OH216856   2.962   1.633   4.530
 5617TIP3    H116857   3.035   1.571   4.534
 5617TIP3    H216858   2.891   1.591   4.578
 5618TIP3   OH216859   3.920   2.882   3.137
 5618TIP3    H116860   3.854   2.824   3.099
 5618TIP3    H216861   4.001   2.831   3.133
 5619TIP3   OH216862   4.823   3.814   1.865
 5619TIP3    H116863   4.899   3.806   1.808
 5619TIP3    H216864   4.748   3.811   1.806
 5620TIP3   OH216865   1.616   5.634   5.005
 5620TIP3    H116866   1.585   5.672   5.087
 5620TIP3    H216867   1.548   5.572   4.981
 5621TIP3   OH216868   0.210   4.515   4.684
 5621TIP3    H116869   0.183   4.581   4.747
 5621TIP3    H216870   0.136   4.506   4.624
 5622TIP3   OH216871   3.280   2.734   1.154
 5622TIP3    H116872   3.190   2.743   1.122
 5622TIP3    H216873   3.324   2.680   1.089
 5623TIP3   OH216874   5.023   2.006   2.962
 5623TIP3    H116875   5.004   2.098   2.944
 5623TIP3    H216876   5.042   2.004   3.056
 5624TIP3   OH216877   3.452   4.963   3.847
 5624TIP3    H116878   3.425   5.055   3.837
 5624TIP3    H216879   3.393   4.915   3.790
 5625TIP3   OH216880   0.210   5.599   1.907
 5625TIP3    H116881   0.292   5.619   1.952
 5625TIP3    H216882   0.141   5.635   1.963
 5626TIP3   OH216883   4.317   4.143   4.162
 5626TIP3    H116884   4.404   4.117   4.133
 5626TIP3    H216885   4.267   4.061   4.167
 5627TIP3   OH216886   1.561   0.459   2.473
 5627TIP3    H116887   1.639   0.415   2.439
 5627TIP3    H216888   1.595   0.532   2.525
 5628TIP3   OH216889   3.509   3.634   1.986
 5628TIP3    H116890   3.586   3.597   1.944
 5628TIP3    H216891   3.518   3.612   2.078
 5629TIP3   OH216892   5.344   4.912   3.233
 5629TIP3    H116893   5.393   4.986   3.269
 5629TIP3    H216894   5.384   4.835   3.274
 5630TIP3   OH216895   2.666   2.450   0.915
 5630TIP3    H116896   2.690   2.480   0.827
 5630TIP3    H216897   2.750   2.427   0.956
 5631TIP3   OH216898   2.860   1.447   1.531
 5631TIP3    H116899   2.833   1.521   1.476
 5631TIP3    H216900   2.789   1.436   1.594
 5632TIP3   OH216901   0.395   0.147   1.873
 5632TIP3    H116902   0.415   0.054   1.860
 5632TIP3    H216903   0.357   0.175   1.790
 5633TIP3   OH216904   3.373   3.470   0.017
 5633TIP3    H116905   3.351   3.398  -0.043
 5633TIP3    H216906   3.355   3.435   0.104
 5634TIP3   OH216907   2.429   5.567   3.417
 5634TIP3    H116908   2.484   5.575   3.495
 5634TIP3    H216909   2.471   5.499   3.364
 5635TIP3   OH216910   3.826   2.661   3.011
 5635TIP3    H116911   3.814   2.603   3.086
 5635TIP3    H216912   3.900   2.624   2.962
 5636TIP3   OH216913   0.228   3.307   3.782
 5636TIP3    H116914   0.223   3.226   3.833
 5636TIP3    H216915   0.173   3.369   3.830
 5637TIP3   OH216916   4.611   3.785   3.543
 5637TIP3    H116917   4.520   3.806   3.524
 5637TIP3    H216918   4.661   3.847   3.489
 5638TIP3   OH216919   1.909   0.751   0.815
 5638TIP3    H116920   1.969   0.699   0.869
 5638TIP3    H216921   1.823   0.714   0.831
 5639TIP3   OH216922   2.132   4.388   1.279
 5639TIP3    H116923   2.188   4.368   1.204
 5639TIP3    H216924   2.158   4.475   1.307
 5640TIP3   OH216925   5.697   0.508   5.017
 5640TIP3    H116926   5.760   0.452   5.062
 5640TIP3    H216927   5.690   0.472   4.929
 5641TIP3   OH216928   3.015   2.905   4.119
 5641TIP3    H116929   2.981   2.928   4.032
 5641TIP3    H216930   3.075   2.976   4.140
 5642TIP3   OH216931   2.875   4.012   1.127
 5642TIP3    H116932   2.838   4.049   1.047
 5642TIP3    H216933   2.809   4.029   1.194
 5643TIP3   OH216934   1.098   2.884   3.243
 5643TIP3    H116935   1.156   2.906   3.316
 5643TIP3    H216936   1.072   2.794   3.259
 5644TIP3   OH216937   5.117   1.576   1.253
 5644TIP3    H116938   5.037   1.590   1.304
 5644TIP3    H216939   5.145   1.487   1.276
 5645TIP3   OH216940   2.210   0.444   4.470
 5645TIP3    H116941   2.198   0.503   4.544
 5645TIP3    H216942   2.138   0.381   4.477
 5646TIP3   OH216943   3.811   1.600   0.698
 5646TIP3    H116944   3.733   1.595   0.642
 5646TIP3    H216945   3.850   1.685   0.677
 5647TIP3   OH216946   2.639   0.147   1.748
 5647TIP3    H116947   2.629   0.137   1.842
 5647TIP3    H216948   2.626   0.059   1.713
 5648TIP3   OH216949   4.036   1.411   4.765
 5648TIP3    H116950   4.003   1.327   4.796
 5648TIP3    H216951   4.117   1.390   4.719
 5649TIP3   OH216952   4.903   4.486   0.538
 5649TIP3    H116953   4.856   4.536   0.472
 5649TIP3    H216954   4.860   4.509   0.620
 5650TIP3   OH216955   1.169   2.324   0.371
 5650TIP3    H116956   1.085   2.298   0.331
 5650TIP3    H216957   1.162   2.295   0.462
 5651TIP3   OH216958   0.061   5.130   4.534
 5651TIP3    H116959   0.125   5.146   4.464
 5651TIP3    H216960   0.102   5.166   4.612
 5652TIP3   OH216961   3.265   1.014   1.471
 5652TIP3    H116962   3.321   1.091   1.473
 5652TIP3    H216963   3.303   0.954   1.535
 5653TIP3   OH216964   0.885   2.567   2.987
 5653TIP3    H116965   0.865   2.532   2.899
 5653TIP3    H216966   0.947   2.504   3.023
 5654TIP3   OH216967   1.885   0.080   2.301
 5654TIP3    H116968   1.916   0.144   2.237
 5654TIP3    H216969   1.794   0.105   2.318
 5655TIP3   OH216970   1.064  -0.067   3.405
 5655TIP3    H116971   1.095   0.022   3.390
 5655TIP3    H216972   1.104  -0.092   3.489
 5656TIP3   OH216973   1.934   3.704   1.057
 5656TIP3    H116974   1.999   3.700   0.987
 5656TIP3    H216975   1.933   3.616   1.093
 5657TIP3   OH216976   1.017   4.841   0.412
 5657TIP3    H116977   1.087   4.875   0.356
 5657TIP3    H216978   0.949   4.908   0.408
 5658TIP3   OH216979   2.325   2.820   2.689
 5658TIP3    H116980   2.353   2.758   2.756
 5658TIP3    H216981   2.305   2.900   2.736
 5659TIP3   OH216982  -0.033   2.433   0.704
 5659TIP3    H116983   0.011   2.385   0.633
 5659TIP3    H216984   0.038   2.471   0.755
 5660TIP3   OH216985   2.865  -0.040   3.107
 5660TIP3    H116986   2.836   0.040   3.151
 5660TIP3    H216987   2.785  -0.090   3.093
 5661TIP3   OH216988   1.250   1.122   1.255
 5661TIP3    H116989   1.187   1.093   1.321
 5661TIP3    H216990   1.336   1.097   1.291
 5662TIP3   OH216991   4.311   5.659   1.856
 5662TIP3    H116992   4.305   5.751   1.829
 5662TIP3    H216993   4.234   5.618   1.817
 5663TIP3   OH216994   5.695   5.912   1.543
 5663TIP3    H116995   5.785   5.895   1.517
 5663TIP3    H216996   5.642   5.885   1.468
 5664TIP3   OH216997   5.441   5.060   2.967
 5664TIP3    H116998   5.430   4.988   3.029
 5664TIP3    H216999   5.358   5.063   2.919
 5665TIP3   OH217000   3.415   4.106   3.475
 5665TIP3    H117001   3.327   4.131   3.503
 5665TIP3    H217002   3.402   4.058   3.394
 5666TIP3   OH217003   2.903   4.454   1.643
 5666TIP3    H117004   2.891   4.363   1.617
 5666TIP3    H217005   2.861   4.505   1.574
 5667TIP3   OH217006   3.888   0.693   2.695
 5667TIP3    H117007   3.891   0.690   2.600
 5667TIP3    H217008   3.926   0.778   2.718
 5668TIP3   OH217009   6.026   2.134   3.879
 5668TIP3    H117010   6.020   2.173   3.967
 5668TIP3    H217011   6.051   2.207   3.822
 5669TIP3   OH217012   0.892   2.091   3.111
 5669TIP3    H117013   0.920   2.036   3.037
 5669TIP3    H217014   0.832   2.035   3.161
 5670TIP3   OH217015   3.373   5.356   5.245
 5670TIP3    H117016   3.398   5.276   5.199
 5670TIP3    H217017   3.338   5.325   5.329
 5671TIP3   OH217018   3.830   5.267   5.103
 5671TIP3    H117019   3.754   5.317   5.132
 5671TIP3    H217020   3.849   5.207   5.176
 5672TIP3   OH217021   3.880   4.371   1.602
 5672TIP3    H117022   3.885   4.400   1.511
 5672TIP3    H217023   3.955   4.312   1.612
 5673TIP3   OH217024   2.459   3.520   1.769
 5673TIP3    H117025   2.471   3.605   1.727
 5673TIP3    H217026   2.481   3.535   1.861
 5674TIP3   OH217027   5.204   2.550   5.267
 5674TIP3    H117028   5.194   2.593   5.182
 5674TIP3    H217029   5.176   2.460   5.251
 5675TIP3   OH217030   0.654   3.963   4.543
 5675TIP3    H117031   0.697   3.879   4.556
 5675TIP3    H217032   0.722   4.028   4.564
 5676TIP3   OH217033   3.008   4.364   3.881
 5676TIP3    H117034   2.945   4.436   3.883
 5676TIP3    H217035   3.016   4.342   3.788
 5677TIP3   OH217036   4.535   5.558   3.860
 5677TIP3    H117037   4.503   5.648   3.859
 5677TIP3    H217038   4.487   5.516   3.931
 5678TIP3   OH217039   5.709   1.366   2.409
 5678TIP3    H117040   5.769   1.431   2.445
 5678TIP3    H217041   5.701   1.300   2.478
 5679TIP3   OH217042   0.707   2.092   2.820
 5679TIP3    H117043   0.751   2.013   2.851
 5679TIP3    H217044   0.710   2.086   2.725
 5680TIP3   OH217045   0.169   1.176   0.427
 5680TIP3    H117046   0.241   1.113   0.431
 5680TIP3    H217047   0.113   1.153   0.501
 5681TIP3   OH217048   3.643   0.969   0.237
 5681TIP3    H117049   3.685   0.887   0.212
 5681TIP3    H217050   3.614   1.007   0.154
 5682TIP3   OH217051   2.032   0.886   2.254
 5682TIP3    H117052   2.010   0.802   2.213
 5682TIP3    H217053   2.074   0.937   2.184
 5683TIP3   OH217054   5.935   4.591   2.883
 5683TIP3    H117055   5.973   4.504   2.889
 5683TIP3    H217056   5.975   4.630   2.806
 5684TIP3   OH217057   3.562   5.689   0.664
 5684TIP3    H117058   3.591   5.656   0.749
 5684TIP3    H217059   3.550   5.610   0.611
 5685TIP3   OH217060   1.641   2.290   1.136
 5685TIP3    H117061   1.720   2.343   1.135
 5685TIP3    H217062   1.641   2.245   1.052
 5686TIP3   OH217063   3.270   4.591   1.448
 5686TIP3    H117064   3.291   4.656   1.380
 5686TIP3    H217065   3.213   4.528   1.404
 5687TIP3   OH217066   0.895   0.907   3.141
 5687TIP3    H117067   0.866   0.951   3.061
 5687TIP3    H217068   0.837   0.941   3.209
 5688TIP3   OH217069   3.999   2.115   4.390
 5688TIP3    H117070   3.996   2.108   4.485
 5688TIP3    H217071   4.007   2.025   4.360
 5689TIP3   OH217072   1.802   1.014   1.881
 5689TIP3    H117073   1.777   0.940   1.936
 5689TIP3    H217074   1.727   1.026   1.821
 5690TIP3   OH217075   6.325   0.144   0.354
 5690TIP3    H117076   6.230   0.133   0.351
 5690TIP3    H217077   6.347   0.150   0.447
 5691TIP3   OH217078   3.454   2.050   4.496
 5691TIP3    H117079   3.493   2.093   4.420
 5691TIP3    H217080   3.421   2.122   4.549
 5692TIP3   OH217081   4.074   4.248   0.430
 5692TIP3    H117082   4.145   4.256   0.493
 5692TIP3    H217083   4.011   4.316   0.457
 5693TIP3   OH217084   1.929   4.360   3.124
 5693TIP3    H117085   1.875   4.420   3.073
 5693TIP3    H217086   1.932   4.399   3.211
 5694TIP3   OH217087   1.542   1.526   0.470
 5694TIP3    H117088   1.637   1.523   0.477
 5694TIP3    H217089   1.522   1.475   0.390
 5695TIP3   OH217090   5.606   0.505   3.866
 5695TIP3    H117091   5.585   0.592   3.899
 5695TIP3    H217092   5.583   0.508   3.773
 5696TIP3   OH217093   5.565   3.786   5.199
 5696TIP3    H117094   5.557   3.769   5.105
 5696TIP3    H217095   5.575   3.881   5.205
 5697TIP3   OH217096   0.084   1.075   2.156
 5697TIP3    H117097   0.161   1.020   2.170
 5697TIP3    H217098   0.068   1.116   2.241
 5698TIP3   OH217099   1.285   2.132   5.033
 5698TIP3    H117100   1.332   2.163   5.111
 5698TIP3    H217101   1.238   2.054   5.062
 5699TIP3   OH217102   2.767   3.875   1.564
 5699TIP3    H117103   2.734   3.831   1.642
 5699TIP3    H217104   2.716   3.956   1.558
 5700TIP3   OH217105   3.468   5.214   3.468
 5700TIP3    H117106   3.395   5.162   3.502
 5700TIP3    H217107   3.480   5.283   3.533
 5701TIP3   OH217108   3.292   3.767   5.131
 5701TIP3    H117109   3.315   3.674   5.143
 5701TIP3    H217110   3.222   3.782   5.195
 5702TIP3   OH217111   6.295   3.854   1.662
 5702TIP3    H117112   6.298   3.949   1.664
 5702TIP3    H217113   6.241   3.833   1.586
 5703TIP3   OH217114   0.492   0.529   0.747
 5703TIP3    H117115   0.482   0.624   0.739
 5703TIP3    H217116   0.574   0.510   0.702
 5704TIP3   OH217117   5.168   4.421   0.478
 5704TIP3    H117118   5.080   4.459   0.487
 5704TIP3    H217119   5.156   4.346   0.419
 5705TIP3   OH217120   2.275   2.282   4.470
 5705TIP3    H117121   2.277   2.190   4.496
 5705TIP3    H217122   2.185   2.296   4.440
 5706TIP3   OH217123   3.413   1.722   4.305
 5706TIP3    H117124   3.398   1.628   4.315
 5706TIP3    H217125   3.375   1.761   4.383
 5707TIP3   OH217126   4.627   3.326   2.959
 5707TIP3    H117127   4.696   3.374   3.006
 5707TIP3    H217128   4.661   3.314   2.871
 5708TIP3   OH217129   1.764   0.097   2.600
 5708TIP3    H117130   1.798   0.012   2.630
 5708TIP3    H217131   1.691   0.074   2.542
 5709TIP3   OH217132   4.968   5.901   1.969
 5709TIP3    H117133   4.945   5.993   1.986
 5709TIP3    H217134   5.063   5.902   1.961
 5710TIP3   OH217135   6.350   5.868   2.107
 5710TIP3    H117136   6.386   5.951   2.142
 5710TIP3    H217137   6.339   5.884   2.014
 5711TIP3   OH217138   1.963   1.119   4.295
 5711TIP3    H117139   2.050   1.145   4.324
 5711TIP3    H217140   1.977   1.080   4.209
 5712TIP3   OH217141   0.998   3.291   0.669
 5712TIP3    H117142   0.975   3.367   0.614
 5712TIP3    H217143   0.938   3.223   0.640
 5713TIP3   OH217144   3.850   5.745   2.868
 5713TIP3    H117145   3.945   5.733   2.860
 5713TIP3    H217146   3.815   5.708   2.787
 5714TIP3   OH217147   0.108   2.072   3.209
 5714TIP3    H117148   0.165   2.071   3.286
 5714TIP3    H217149   0.060   2.154   3.215
 5715TIP3   OH217150   0.816   3.856   2.054
 5715TIP3    H117151   0.903   3.818   2.064
 5715TIP3    H217152   0.790   3.833   1.964
 5716TIP3   OH217153   3.130   2.890   5.078
 5716TIP3    H117154   3.157   2.947   5.150
 5716TIP3    H217155   3.047   2.853   5.107
 5717TIP3   OH217156   4.721   0.581   3.413
 5717TIP3    H117157   4.643   0.536   3.381
 5717TIP3    H217158   4.790   0.514   3.412
 5718TIP3   OH217159   1.490   3.735   5.230
 5718TIP3    H117160   1.464   3.728   5.322
 5718TIP3    H217161   1.429   3.797   5.192
 5719TIP3   OH217162   3.922   3.224   1.617
 5719TIP3    H117163   3.873   3.237   1.698
 5719TIP3    H217164   3.893   3.138   1.585
 5720TIP3   OH217165   1.417   5.866   0.433
 5720TIP3    H117166   1.362   5.865   0.355
 5720TIP3    H217167   1.437   5.774   0.449
 5721TIP3   OH217168   2.399   1.656   0.377
 5721TIP3    H117169   2.397   1.750   0.396
 5721TIP3    H217170   2.342   1.617   0.443
 5722TIP3   OH217171   5.095   2.116   3.518
 5722TIP3    H117172   5.128   2.033   3.485
 5722TIP3    H217173   5.172   2.161   3.553
 5723TIP3   OH217174   0.133   2.079   3.770
 5723TIP3    H117175   0.150   2.154   3.826
 5723TIP3    H217176   0.063   2.030   3.814
 5724TIP3   OH217177   3.428   4.853   1.798
 5724TIP3    H117178   3.498   4.792   1.820
 5724TIP3    H217179   3.473   4.934   1.775
 5725TIP3   OH217180   1.669   4.074   2.700
 5725TIP3    H117181   1.744   4.046   2.647
 5725TIP3    H217182   1.611   4.118   2.639
 5726TIP3   OH217183   1.590   0.975   4.310
 5726TIP3    H117184   1.649   0.984   4.385
 5726TIP3    H217185   1.608   0.888   4.276
 5727TIP3   OH217186   2.635   2.021   0.681
 5727TIP3    H117187   2.691   2.086   0.640
 5727TIP3    H217188   2.659   2.023   0.773
 5728TIP3   OH217189   0.909   0.120   4.114
 5728TIP3    H117190   0.846   0.065   4.161
 5728TIP3    H217191   0.988   0.066   4.108
 5729TIP3   OH217192   1.692   0.703   1.223
 5729TIP3    H117193   1.604   0.667   1.238
 5729TIP3    H217194   1.681   0.763   1.149
 5730TIP3   OH217195   4.561   3.945   0.267
 5730TIP3    H117196   4.516   3.878   0.319
 5730TIP3    H217197   4.650   3.911   0.256
 5731TIP3   OH217198   4.740   4.095   4.752
 5731TIP3    H117199   4.694   4.076   4.834
 5731TIP3    H217200   4.775   4.011   4.723
 5732TIP3   OH217201   1.087   2.143   3.441
 5732TIP3    H117202   0.998   2.179   3.438
 5732TIP3    H217203   1.136   2.195   3.378
 5733TIP3   OH217204   5.446   4.711   3.385
 5733TIP3    H117205   5.378   4.646   3.367
 5733TIP3    H217206   5.447   4.719   3.481
 5734TIP3   OH217207   2.988   1.393   3.251
 5734TIP3    H117208   2.925   1.461   3.223
 5734TIP3    H217209   3.055   1.393   3.182
 5735TIP3   OH217210   2.421   4.921   0.479
 5735TIP3    H117211   2.435   5.015   0.467
 5735TIP3    H217212   2.369   4.895   0.403
 5736TIP3   OH217213  -0.005   0.586   1.262
 5736TIP3    H117214   0.078   0.562   1.304
 5736TIP3    H217215   0.019   0.605   1.171
 5737TIP3   OH217216   3.657   3.471   3.700
 5737TIP3    H117217   3.663   3.499   3.609
 5737TIP3    H217218   3.688   3.380   3.699
 5738TIP3   OH217219   0.224   3.745   1.594
 5738TIP3    H117220   0.213   3.719   1.503
 5738TIP3    H217221   0.152   3.805   1.611
 5739TIP3   OH217222   5.508   3.634   4.875
 5739TIP3    H117223   5.475   3.614   4.787
 5739TIP3    H217224   5.569   3.706   4.862
 5740TIP3   OH217225   2.704   1.507   4.634
 5740TIP3    H117226   2.620   1.467   4.658
 5740TIP3    H217227   2.689   1.601   4.646
 5741TIP3   OH217228   2.317   5.220   4.193
 5741TIP3    H117229   2.373   5.220   4.115
 5741TIP3    H217230   2.367   5.270   4.258
 5742TIP3   OH217231   0.700   0.662   0.621
 5742TIP3    H117232   0.728   0.721   0.692
 5742TIP3    H217233   0.633   0.712   0.574
 5743TIP3   OH217234   6.093   2.871   0.168
 5743TIP3    H117235   6.096   2.920   0.086
 5743TIP3    H217236   6.151   2.796   0.153
 5744TIP3   OH217237   3.480   1.431   3.761
 5744TIP3    H117238   3.460   1.437   3.855
 5744TIP3    H217239   3.442   1.511   3.723
 5745TIP3   OH217240   6.253   0.314   4.818
 5745TIP3    H117241   6.253   0.394   4.870
 5745TIP3    H217242   6.176   0.266   4.848
 5746TIP3   OH217243   1.722   1.899   1.094
 5746TIP3    H117244   1.747   1.904   1.002
 5746TIP3    H217245   1.752   1.982   1.131
 5747TIP3   OH217246   4.249  -0.001   4.068
 5747TIP3    H117247   4.250   0.095   4.067
 5747TIP3    H217248   4.185  -0.024   4.000
 5748TIP3   OH217249   0.585   5.470   1.804
 5748TIP3    H117250   0.653   5.518   1.757
 5748TIP3    H217251   0.606   5.481   1.896
 5749TIP3   OH217252   0.555   4.204   1.900
 5749TIP3    H117253   0.476   4.162   1.867
 5749TIP3    H217254   0.622   4.185   1.835
 5750TIP3   OH217255   1.059   3.346   1.205
 5750TIP3    H117256   1.063   3.347   1.109
 5750TIP3    H217257   1.011   3.426   1.228
 5751TIP3   OH217258   1.314   4.214   1.793
 5751TIP3    H117259   1.334   4.300   1.831
 5751TIP3    H217260   1.219   4.214   1.784
 5752TIP3   OH217261   3.382   3.141   1.272
 5752TIP3    H117262   3.287   3.149   1.272
 5752TIP3    H217263   3.415   3.230   1.282
 5753TIP3   OH217264   1.157   5.849   2.802
 5753TIP3    H117265   1.117   5.905   2.735
 5753TIP3    H217266   1.236   5.813   2.760
 5754TIP3   OH217267   6.015   4.954   4.874
 5754TIP3    H117268   6.100   4.990   4.900
 5754TIP3    H217269   5.970   4.937   4.957
 5755TIP3   OH217270   0.712   2.026   4.072
 5755TIP3    H117271   0.689   1.962   4.139
 5755TIP3    H217272   0.695   2.111   4.113
 5756TIP3   OH217273   0.628   3.941   2.239
 5756TIP3    H117274   0.664   4.016   2.287
 5756TIP3    H217275   0.682   3.934   2.160
 5757TIP3   OH217276   2.244   1.889   1.299
 5757TIP3    H117277   2.303   1.869   1.227
 5757TIP3    H217278   2.157   1.891   1.260
 5758TIP3   OH217279   0.395   2.937   1.220
 5758TIP3    H117280   0.488   2.915   1.227
 5758TIP3    H217281   0.373   2.976   1.304
 5759TIP3   OH217282   1.598   4.752   2.634
 5759TIP3    H117283   1.522   4.694   2.635
 5759TIP3    H217284   1.574   4.822   2.574
 5760TIP3   OH217285   0.360   4.799   0.982
 5760TIP3    H117286   0.310   4.806   0.901
 5760TIP3    H217287   0.326   4.870   1.037
 5761TIP3   OH217288   5.912   0.586   3.556
 5761TIP3    H117289   5.986   0.615   3.503
 5761TIP3    H217290   5.896   0.657   3.617
 5762TIP3   OH217291   5.480   3.340   0.687
 5762TIP3    H117292   5.543   3.313   0.755
 5762TIP3    H217293   5.399   3.295   0.710
 5763TIP3   OH217294   2.155   3.185   4.565
 5763TIP3    H117295   2.131   3.114   4.624
 5763TIP3    H217296   2.136   3.150   4.477
 5764TIP3   OH217297   4.930   2.573   0.433
 5764TIP3    H117298   4.966   2.567   0.345
 5764TIP3    H217299   4.906   2.665   0.444
 5765TIP3   OH217300   1.653   1.721   2.053
 5765TIP3    H117301   1.641   1.626   2.059
 5765TIP3    H217302   1.581   1.758   2.103
 5766TIP3   OH217303   0.132   3.226   5.103
 5766TIP3    H117304   0.228   3.228   5.104
 5766TIP3    H217305   0.106   3.287   5.172
 5767TIP3   OH217306   0.051   2.086   1.702
 5767TIP3    H117307   0.069   2.149   1.632
 5767TIP3    H217308   0.005   2.014   1.658
 5768TIP3   OH217309   2.216   4.826   3.935
 5768TIP3    H117310   2.282   4.774   3.981
 5768TIP3    H217311   2.241   4.917   3.953
 5769TIP3   OH217312   3.141   0.221   1.915
 5769TIP3    H117313   3.164   0.134   1.885
 5769TIP3    H217314   3.164   0.279   1.841
 5770TIP3   OH217315   2.998   5.934   0.856
 5770TIP3    H117316   3.034   5.898   0.775
 5770TIP3    H217317   2.913   5.969   0.830
 5771TIP3   OH217318   3.789   1.296   1.667
 5771TIP3    H117319   3.764   1.204   1.666
 5771TIP3    H217320   3.852   1.304   1.595
 5772TIP3   OH217321   2.065   4.052   4.529
 5772TIP3    H117322   2.153   4.023   4.552
 5772TIP3    H217323   2.007   3.997   4.583
 5773TIP3   OH217324   5.992   0.955   2.552
 5773TIP3    H117325   5.996   0.981   2.459
 5773TIP3    H217326   5.902   0.924   2.564
 5774TIP3   OH217327   0.825   2.906   2.671
 5774TIP3    H117328   0.900   2.868   2.717
 5774TIP3    H217329   0.759   2.836   2.671
 5775TIP3   OH217330   3.854   2.255   3.556
 5775TIP3    H117331   3.925   2.202   3.520
 5775TIP3    H217332   3.898   2.330   3.596
 5776TIP3   OH217333   2.100   4.596   4.234
 5776TIP3    H117334   2.152   4.563   4.160
 5776TIP3    H217335   2.106   4.691   4.227
 5777TIP3   OH217336   5.393   3.806   1.782
 5777TIP3    H117337   5.489   3.801   1.788
 5777TIP3    H217338   5.377   3.883   1.727
 5778TIP3   OH217339   0.188   5.434   0.150
 5778TIP3    H117340   0.180   5.362   0.212
 5778TIP3    H217341   0.114   5.422   0.090
 5779TIP3   OH217342   2.524   1.844   2.304
 5779TIP3    H117343   2.527   1.811   2.214
 5779TIP3    H217344   2.612   1.826   2.339
 5780TIP3   OH217345   6.240   1.975   3.830
 5780TIP3    H117346   6.227   1.910   3.899
 5780TIP3    H217347   6.163   2.032   3.835
 5781TIP3   OH217348   5.825   1.189   4.694
 5781TIP3    H117349   5.744   1.233   4.666
 5781TIP3    H217350   5.882   1.192   4.617
 5782TIP3   OH217351   3.412   4.499   2.551
 5782TIP3    H117352   3.451   4.585   2.565
 5782TIP3    H217353   3.438   4.448   2.627
 5783TIP3   OH217354   3.017   4.217   4.201
 5783TIP3    H117355   2.969   4.189   4.279
 5783TIP3    H217356   2.955   4.272   4.154
 5784TIP3   OH217357   1.904   4.342   0.908
 5784TIP3    H117358   1.871   4.419   0.862
 5784TIP3    H217359   1.937   4.285   0.839
 5785TIP3   OH217360   5.461   1.402   1.582
 5785TIP3    H117361   5.545   1.422   1.540
 5785TIP3    H217362   5.396   1.422   1.514
 5786TIP3   OH217363   0.524   0.039   0.999
 5786TIP3    H117364   0.553   0.126   0.969
 5786TIP3    H217365   0.500  -0.007   0.919
 5787TIP3   OH217366   2.989   2.658   2.996
 5787TIP3    H117367   3.042   2.607   3.057
 5787TIP3    H217368   2.992   2.610   2.914
 5788TIP3   OH217369   3.304   5.575   4.666
 5788TIP3    H117370   3.369   5.561   4.736
 5788TIP3    H217371   3.319   5.665   4.637
 5789TIP3   OH217372   3.557   1.449   4.705
 5789TIP3    H117373   3.648   1.448   4.674
 5789TIP3    H217374   3.551   1.372   4.761
 5790TIP3   OH217375   5.845   1.055   2.879
 5790TIP3    H117376   5.871   0.996   2.808
 5790TIP3    H217377   5.870   1.009   2.959
 5791TIP3   OH217378   2.645   4.497   2.362
 5791TIP3    H117379   2.571   4.442   2.390
 5791TIP3    H217380   2.640   4.497   2.266
 5792TIP3   OH217381   0.313   5.957   0.099
 5792TIP3    H117382   0.392   5.935   0.149
 5792TIP3    H217383   0.347   5.989   0.015
 5793TIP3   OH217384   3.139   0.690   2.215
 5793TIP3    H117385   3.211   0.631   2.239
 5793TIP3    H217386   3.103   0.653   2.135
 5794TIP3   OH217387   6.239   1.873   3.214
 5794TIP3    H117388   6.329   1.903   3.223
 5794TIP3    H217389   6.185   1.949   3.238
 5795TIP3   OH217390   2.762   3.897   0.498
 5795TIP3    H117391   2.761   3.968   0.434
 5795TIP3    H217392   2.841   3.913   0.550
 5796TIP3   OH217393   5.933   3.951   4.974
 5796TIP3    H117394   5.985   3.910   5.042
 5796TIP3    H217395   5.972   4.038   4.964
 5797TIP3   OH217396   2.157   5.708   1.966
 5797TIP3    H117397   2.161   5.731   1.873
 5797TIP3    H217398   2.228   5.645   1.978
 5798TIP3   OH217399   2.906   0.886   1.853
 5798TIP3    H117400   2.948   0.905   1.770
 5798TIP3    H217401   2.966   0.827   1.898
 5799TIP3   OH217402   3.378   0.093   1.567
 5799TIP3    H117403   3.470   0.119   1.578
 5799TIP3    H217404   3.356   0.123   1.479
 5800TIP3   OH217405   0.953   5.296   4.158
 5800TIP3    H117406   0.915   5.263   4.077
 5800TIP3    H217407   0.878   5.324   4.210
 5801TIP3   OH217408   2.907   5.083   5.073
 5801TIP3    H117409   2.988   5.033   5.063
 5801TIP3    H217410   2.842   5.019   5.101
 5802TIP3   OH217411   4.124   1.947   2.699
 5802TIP3    H117412   4.090   1.938   2.610
 5802TIP3    H217413   4.102   2.036   2.725
 5803TIP3   OH217414   1.987   5.903   3.284
 5803TIP3    H117415   1.990   5.996   3.262
 5803TIP3    H217416   2.076   5.873   3.271
 5804TIP3   OH217417   4.946   3.050   1.181
 5804TIP3    H117418   5.006   3.006   1.241
 5804TIP3    H217419   4.995   3.124   1.147
 5805TIP3   OH217420   2.620   5.778   0.829
 5805TIP3    H117421   2.706   5.819   0.819
 5805TIP3    H217422   2.606   5.777   0.924
 5806TIP3   OH217423   5.005   1.827   4.927
 5806TIP3    H117424   5.098   1.842   4.914
 5806TIP3    H217425   4.992   1.734   4.907
 5807TIP3   OH217426   4.888   0.362   3.433
 5807TIP3    H117427   4.966   0.361   3.488
 5807TIP3    H217428   4.876   0.270   3.407
 5808TIP3   OH217429   2.713   4.948   0.606
 5808TIP3    H117430   2.624   4.916   0.591
 5808TIP3    H217431   2.701   5.033   0.648
 5809TIP3   OH217432   4.950   4.302   0.939
 5809TIP3    H117433   4.976   4.351   0.861
 5809TIP3    H217434   4.979   4.356   1.012
 5810TIP3   OH217435   0.152   5.002   0.172
 5810TIP3    H117436   0.185   5.042   0.092
 5810TIP3    H217437   0.080   5.059   0.200
 5811TIP3   OH217438   4.302   3.776   5.016
 5811TIP3    H117439   4.303   3.839   5.088
 5811TIP3    H217440   4.380   3.722   5.030
 5812TIP3   OH217441   2.627   0.256   1.005
 5812TIP3    H117442   2.661   0.194   0.940
 5812TIP3    H217443   2.674   0.337   0.989
 5813TIP3   OH217444   0.730   2.423   3.975
 5813TIP3    H117445   0.774   2.477   4.041
 5813TIP3    H217446   0.673   2.365   4.026
 5814TIP3   OH217447   6.222   1.973   0.694
 5814TIP3    H117448   6.127   1.978   0.683
 5814TIP3    H217449   6.247   2.059   0.727
 5815TIP3   OH217450  -0.009   4.494   4.484
 5815TIP3    H117451  -0.007   4.398   4.481
 5815TIP3    H217452  -0.001   4.520   4.392
 5816TIP3   OH217453   5.553   3.368   2.528
 5816TIP3    H117454   5.566   3.347   2.436
 5816TIP3    H217455   5.626   3.325   2.573
 5817TIP3   OH217456   5.458   2.716   0.042
 5817TIP3    H117457   5.518   2.766   0.097
 5817TIP3    H217458   5.421   2.781  -0.018
 5818TIP3   OH217459   5.867   4.921   4.554
 5818TIP3    H117460   5.799   4.963   4.607
 5818TIP3    H217461   5.936   4.987   4.548
 5819TIP3   OH217462   4.360   5.068   3.025
 5819TIP3    H117463   4.293   5.013   2.984
 5819TIP3    H217464   4.443   5.036   2.990
 5820TIP3   OH217465   4.921   2.817   4.580
 5820TIP3    H117466   4.887   2.846   4.664
 5820TIP3    H217467   4.843   2.792   4.530
 5821TIP3   OH217468   2.917   4.239   3.213
 5821TIP3    H117469   2.993   4.248   3.156
 5821TIP3    H217470   2.872   4.323   3.208
 5822TIP3   OH217471   4.842   5.493   5.137
 5822TIP3    H117472   4.846   5.517   5.044
 5822TIP3    H217473   4.879   5.404   5.140
 5823TIP3   OH217474   6.025   1.203   1.820
 5823TIP3    H117475   5.954   1.187   1.758
 5823TIP3    H217476   6.054   1.292   1.801
 5824TIP3   OH217477   2.028   4.976   1.036
 5824TIP3    H117478   2.006   4.886   1.059
 5824TIP3    H217479   2.118   4.972   1.006
 5825TIP3   OH217480   3.274   4.151   0.659
 5825TIP3    H117481   3.301   4.234   0.698
 5825TIP3    H217482   3.324   4.085   0.706
 5826TIP3   OH217483   4.793   0.568   1.214
 5826TIP3    H117484   4.818   0.514   1.139
 5826TIP3    H217485   4.804   0.510   1.290
 5827TIP3   OH217486   1.025   0.558   2.507
 5827TIP3    H117487   1.008   0.639   2.459
 5827TIP3    H217488   0.953   0.500   2.483
 5828TIP3   OH217489   1.174   5.530   2.778
 5828TIP3    H117490   1.166   5.542   2.873
 5828TIP3    H217491   1.127   5.449   2.760
 5829TIP3   OH217492   2.166   2.275   2.145
 5829TIP3    H117493   2.099   2.263   2.212
 5829TIP3    H217494   2.247   2.290   2.193
 5830TIP3   OH217495   3.113   4.325   2.972
 5830TIP3    H117496   3.108   4.378   2.892
 5830TIP3    H217497   3.120   4.389   3.043
 5831TIP3   OH217498   6.069   3.669   1.167
 5831TIP3    H117499   6.023   3.715   1.097
 5831TIP3    H217500   6.162   3.677   1.146
 5832TIP3   OH217501   3.800   4.344   1.095
 5832TIP3    H117502   3.725   4.289   1.115
 5832TIP3    H217503   3.876   4.287   1.112
 5833TIP3   OH217504   6.244   4.702   1.267
 5833TIP3    H117505   6.189   4.761   1.319
 5833TIP3    H217506   6.314   4.759   1.234
 5834TIP3   OH217507   6.172   5.835   0.346
 5834TIP3    H117508   6.250   5.780   0.353
 5834TIP3    H217509   6.180   5.877   0.260
 5835TIP3   OH217510   2.203   0.196   4.754
 5835TIP3    H117511   2.202   0.114   4.706
 5835TIP3    H217512   2.178   0.262   4.689
 5836TIP3   OH217513   0.151   0.748   3.715
 5836TIP3    H117514   0.178   0.685   3.781
 5836TIP3    H217515   0.071   0.712   3.678
 5837TIP3   OH217516   0.787   3.339   1.043
 5837TIP3    H117517   0.866   3.286   1.030
 5837TIP3    H217518   0.804   3.387   1.124
 5838TIP3   OH217519   6.294   1.345   3.302
 5838TIP3    H117520   6.337   1.260   3.290
 5838TIP3    H217521   6.269   1.346   3.395
 5839TIP3   OH217522   1.598   4.560   1.922
 5839TIP3    H117523   1.613   4.553   2.016
 5839TIP3    H217524   1.673   4.611   1.890
 5840TIP3   OH217525   1.789   3.240   4.061
 5840TIP3    H117526   1.836   3.156   4.069
 5840TIP3    H217527   1.766   3.246   3.968
 5841TIP3   OH217528   3.271   0.950   0.303
 5841TIP3    H117529   3.339   0.985   0.245
 5841TIP3    H217530   3.312   0.944   0.389
 5842TIP3   OH217531   1.518   0.486   3.516
 5842TIP3    H117532   1.581   0.548   3.550
 5842TIP3    H217533   1.570   0.411   3.488
 5843TIP3   OH217534   3.565   1.220   4.484
 5843TIP3    H117535   3.512   1.162   4.539
 5843TIP3    H217536   3.517   1.302   4.480
 5844TIP3   OH217537   4.783   1.416   4.142
 5844TIP3    H117538   4.812   1.508   4.138
 5844TIP3    H217539   4.798   1.391   4.233
 5845TIP3   OH217540   4.227   0.291   0.926
 5845TIP3    H117541   4.322   0.279   0.924
 5845TIP3    H217542   4.193   0.216   0.879
 5846TIP3   OH217543   1.105   2.463   1.560
 5846TIP3    H117544   1.109   2.368   1.569
 5846TIP3    H217545   1.144   2.497   1.640
 5847TIP3   OH217546   2.084   2.217   1.887
 5847TIP3    H117547   2.099   2.237   1.979
 5847TIP3    H217548   2.170   2.223   1.846
 5848TIP3   OH217549   5.739   0.055   4.007
 5848TIP3    H117550   5.735   0.142   3.966
 5848TIP3    H217551   5.821   0.055   4.055
 5849TIP3   OH217552   6.230   4.321   4.199
 5849TIP3    H117553   6.280   4.240   4.210
 5849TIP3    H217554   6.188   4.335   4.283
 5850TIP3   OH217555  -0.008   3.688   2.418
 5850TIP3    H117556  -0.004   3.708   2.325
 5850TIP3    H217557   0.021   3.597   2.424
 5851TIP3   OH217558   4.271   1.079   4.532
 5851TIP3    H117559   4.221   1.081   4.451
 5851TIP3    H217560   4.355   1.040   4.508
 5852TIP3   OH217561   0.663  -0.023   1.289
 5852TIP3    H117562   0.754   0.004   1.275
 5852TIP3    H217563   0.659  -0.047   1.382
 5853TIP3   OH217564   0.151   4.615   0.529
 5853TIP3    H117565   0.185   4.531   0.500
 5853TIP3    H217566   0.180   4.677   0.462
 5854TIP3   OH217567   2.862   0.306   2.205
 5854TIP3    H117568   2.928   0.246   2.170
 5854TIP3    H217569   2.908   0.353   2.275
 5855TIP3   OH217570   2.723   3.597   3.833
 5855TIP3    H117571   2.795   3.646   3.875
 5855TIP3    H217572   2.722   3.513   3.878
 5856TIP3   OH217573   3.098   4.588   4.473
 5856TIP3    H117574   3.178   4.543   4.445
 5856TIP3    H217575   3.031   4.560   4.410
 5857TIP3   OH217576   6.109   1.955   2.759
 5857TIP3    H117577   6.161   1.885   2.720
 5857TIP3    H217578   6.029   1.912   2.790
 5858TIP3   OH217579   2.878   1.846   0.456
 5858TIP3    H117580   2.966   1.811   0.437
 5858TIP3    H217581   2.895   1.921   0.514
 5859TIP3   OH217582   0.905   2.195   1.403
 5859TIP3    H117583   0.933   2.280   1.438
 5859TIP3    H217584   0.851   2.218   1.327
 5860TIP3   OH217585   1.998   4.161   1.289
 5860TIP3    H117586   2.047   4.242   1.273
 5860TIP3    H217587   2.064   4.100   1.322
 5861TIP3   OH217588   3.242   5.121   3.576
 5861TIP3    H117589   3.154   5.134   3.542
 5861TIP3    H217590   3.237   5.150   3.667
 5862TIP3   OH217591   5.408   2.970   0.720
 5862TIP3    H117592   5.353   3.020   0.780
 5862TIP3    H217593   5.430   2.890   0.769
 5863TIP3   OH217594   4.078   0.796   1.796
 5863TIP3    H117595   4.026   0.756   1.726
 5863TIP3    H217596   4.102   0.722   1.852
 5864TIP3   OH217597   2.815   2.355   2.475
 5864TIP3    H117598   2.801   2.448   2.462
 5864TIP3    H217599   2.806   2.317   2.388
 5865TIP3   OH217600   5.843   3.820   0.025
 5865TIP3    H117601   5.907   3.847   0.091
 5865TIP3    H217602   5.768   3.879   0.039
 5866TIP3   OH217603   1.270   5.664   0.981
 5866TIP3    H117604   1.247   5.750   0.947
 5866TIP3    H217605   1.203   5.605   0.946
 5867TIP3   OH217606   3.730   3.102   2.557
 5867TIP3    H117607   3.819   3.068   2.566
 5867TIP3    H217608   3.739   3.197   2.564
 5868TIP3   OH217609   3.347   3.500   4.753
 5868TIP3    H117610   3.342   3.410   4.721
 5868TIP3    H217611   3.441   3.518   4.759
 5869TIP3   OH217612   1.272   0.656   2.516
 5869TIP3    H117613   1.345   0.715   2.497
 5869TIP3    H217614   1.222   0.701   2.584
 5870TIP3   OH217615   3.732   5.080   2.352
 5870TIP3    H117616   3.761   5.170   2.338
 5870TIP3    H217617   3.795   5.026   2.304
 5871TIP3   OH217618   5.301   5.917   1.899
 5871TIP3    H117619   5.373   5.934   1.838
 5871TIP3    H217620   5.266   5.833   1.871
 5872TIP3   OH217621   2.954   0.774   2.788
 5872TIP3    H117622   2.967   0.712   2.717
 5872TIP3    H217623   3.027   0.835   2.780
 5873TIP3   OH217624   1.729   5.207   0.479
 5873TIP3    H117625   1.723   5.120   0.518
 5873TIP3    H217626   1.643   5.247   0.496
 5874TIP3   OH217627   6.041   2.572   0.368
 5874TIP3    H117628   5.962   2.574   0.315
 5874TIP3    H217629   6.112   2.595   0.308
 5875TIP3   OH217630   2.888   3.430   3.001
 5875TIP3    H117631   2.919   3.463   2.916
 5875TIP3    H217632   2.910   3.500   3.063
 5876TIP3   OH217633   2.499   2.249   2.577
 5876TIP3    H117634   2.593   2.270   2.575
 5876TIP3    H217635   2.460   2.322   2.626
 5877TIP3   OH217636   4.013   2.986   0.137
 5877TIP3    H117637   3.927   3.027   0.138
 5877TIP3    H217638   4.069   3.049   0.183
 5878TIP3   OH217639   3.126   3.316   5.118
 5878TIP3    H117640   3.143   3.280   5.030
 5878TIP3    H217641   3.055   3.379   5.104
 5879TIP3   OH217642   2.003   5.174   1.821
 5879TIP3    H117643   1.990   5.179   1.727
 5879TIP3    H217644   2.008   5.080   1.840
 5880TIP3   OH217645   1.468   0.526   4.968
 5880TIP3    H117646   1.441   0.507   4.878
 5880TIP3    H217647   1.399   0.584   5.002
 5881TIP3   OH217648   2.589   4.309   3.109
 5881TIP3    H117649   2.589   4.230   3.163
 5881TIP3    H217650   2.540   4.285   3.031
 5882TIP3   OH217651   2.309   2.358   1.778
 5882TIP3    H117652   2.316   2.421   1.849
 5882TIP3    H217653   2.362   2.396   1.708
 5883TIP3   OH217654   0.617   5.394   1.187
 5883TIP3    H117655   0.618   5.381   1.092
 5883TIP3    H217656   0.531   5.433   1.205
 5884TIP3   OH217657   5.332   5.685   3.233
 5884TIP3    H117658   5.318   5.763   3.287
 5884TIP3    H217659   5.309   5.713   3.145
 5885TIP3   OH217660   3.322   2.382   2.636
 5885TIP3    H117661   3.402   2.407   2.683
 5885TIP3    H217662   3.284   2.465   2.608
 5886TIP3   OH217663   1.122   2.379   4.016
 5886TIP3    H117664   1.170   2.296   4.016
 5886TIP3    H217665   1.081   2.382   3.929
 5887TIP3   OH217666   4.521   2.919   1.550
 5887TIP3    H117667   4.589   2.982   1.525
 5887TIP3    H217668   4.496   2.944   1.639
 5888TIP3   OH217669   3.824   4.386   4.839
 5888TIP3    H117670   3.849   4.341   4.759
 5888TIP3    H217671   3.736   4.352   4.859
 5889TIP3   OH217672   3.099   5.918   0.570
 5889TIP3    H117673   3.112   6.007   0.604
 5889TIP3    H217674   3.111   5.927   0.476
 5890TIP3   OH217675   3.957   1.658   2.137
 5890TIP3    H117676   3.971   1.576   2.089
 5890TIP3    H217677   4.024   1.718   2.103
 5891TIP3   OH217678   0.903   2.370   0.729
 5891TIP3    H117679   0.842   2.369   0.655
 5891TIP3    H217680   0.847   2.373   0.807
 5892TIP3   OH217681   3.587   4.697   2.945
 5892TIP3    H117682   3.620   4.616   2.982
 5892TIP3    H217683   3.641   4.712   2.867
 5893TIP3   OH217684   0.210   4.227   4.918
 5893TIP3    H117685   0.168   4.209   5.002
 5893TIP3    H217686   0.146   4.280   4.871
 5894TIP3   OH217687   3.635   4.375   2.425
 5894TIP3    H117688   3.652   4.290   2.465
 5894TIP3    H217689   3.548   4.399   2.456
 5895TIP3   OH217690   1.931   1.349   3.353
 5895TIP3    H117691   1.874   1.341   3.276
 5895TIP3    H217692   1.960   1.260   3.370
 5896TIP3   OH217693   6.263   3.210   2.625
 5896TIP3    H117694   6.302   3.296   2.610
 5896TIP3    H217695   6.322   3.148   2.581
 5897TIP3   OH217696   2.366   3.957   2.489
 5897TIP3    H117697   2.288   3.916   2.527
 5897TIP3    H217698   2.392   3.898   2.419
 5898TIP3   OH217699   0.056   0.423   4.451
 5898TIP3    H117700   0.106   0.444   4.372
 5898TIP3    H217701   0.040   0.507   4.493
 5899TIP3   OH217702   0.859   0.978   3.412
 5899TIP3    H117703   0.950   0.988   3.439
 5899TIP3    H217704   0.824   1.067   3.411
 5900TIP3   OH217705   4.841   4.079   1.889
 5900TIP3    H117706   4.840   4.098   1.983
 5900TIP3    H217707   4.783   4.004   1.879
 5901TIP3   OH217708   6.270   0.848   5.052
 5901TIP3    H117709   6.187   0.875   5.013
 5901TIP3    H217710   6.330   0.919   5.032
 5902TIP3   OH217711   2.162   4.516   0.912
 5902TIP3    H117712   2.151   4.535   0.819
 5902TIP3    H217713   2.081   4.547   0.952
 5903TIP3   OH217714   5.753   2.753   4.339
 5903TIP3    H117715   5.766   2.848   4.332
 5903TIP3    H217716   5.833   2.721   4.380
 5904TIP3   OH217717   3.929   0.990   1.497
 5904TIP3    H117718   3.947   1.032   1.413
 5904TIP3    H217719   3.965   1.051   1.562
 5905TIP3   OH217720   5.287   3.729   3.779
 5905TIP3    H117721   5.349   3.662   3.749
 5905TIP3    H217722   5.314   3.808   3.733
 5906TIP3   OH217723   5.022   0.752   3.513
 5906TIP3    H117724   5.023   0.675   3.570
 5906TIP3    H217725   5.107   0.750   3.468
 5907TIP3   OH217726   3.049   3.089   1.034
 5907TIP3    H117727   3.025   3.165   0.980
 5907TIP3    H217728   3.049   3.122   1.124
 5908TIP3   OH217729   6.323   4.351   4.807
 5908TIP3    H117730   6.257   4.418   4.792
 5908TIP3    H217731   6.295   4.277   4.755
 5909TIP3   OH217732   0.806   3.275   1.419
 5909TIP3    H117733   0.881   3.222   1.394
 5909TIP3    H217734   0.828   3.364   1.390
 5910TIP3   OH217735   2.498   5.310   2.056
 5910TIP3    H117736   2.585   5.300   2.018
 5910TIP3    H217737   2.439   5.296   1.982
 5911TIP3   OH217738   1.430   2.789   0.755
 5911TIP3    H117739   1.517   2.754   0.774
 5911TIP3    H217740   1.378   2.765   0.832
 5912TIP3   OH217741   0.355   2.272   1.948
 5912TIP3    H117742   0.320   2.184   1.934
 5912TIP3    H217743   0.295   2.313   2.010
 5913TIP3   OH217744   2.513   1.194   2.000
 5913TIP3    H117745   2.521   1.106   2.038
 5913TIP3    H217746   2.599   1.211   1.962
 5914TIP3   OH217747   1.855   2.659   0.168
 5914TIP3    H117748   1.912   2.736   0.162
 5914TIP3    H217749   1.904   2.590   0.124
 5915TIP3   OH217750   3.933   0.459   3.655
 5915TIP3    H117751   4.019   0.499   3.641
 5915TIP3    H217752   3.931   0.384   3.595
 5916TIP3   OH217753   0.851   3.487   0.518
 5916TIP3    H117754   0.882   3.570   0.553
 5916TIP3    H217755   0.866   3.494   0.424
 5917TIP3   OH217756   1.439   5.457   0.093
 5917TIP3    H117757   1.441   5.553   0.094
 5917TIP3    H217758   1.439   5.432   0.185
 5918TIP3   OH217759   0.463   5.035   4.512
 5918TIP3    H117760   0.539   4.982   4.490
 5918TIP3    H217761   0.432   5.001   4.595
 5919TIP3   OH217762   2.766   3.729   2.291
 5919TIP3    H117763   2.804   3.665   2.232
 5919TIP3    H217764   2.762   3.685   2.376
 5920TIP3   OH217765   3.146   4.923   5.070
 5920TIP3    H117766   3.087   4.859   5.030
 5920TIP3    H217767   3.226   4.919   5.017
 5921TIP3   OH217768   2.031   2.223   2.380
 5921TIP3    H117769   1.972   2.285   2.424
 5921TIP3    H217770   2.037   2.149   2.440
 5922TIP3   OH217771   3.705   4.448   4.172
 5922TIP3    H117772   3.751   4.532   4.163
 5922TIP3    H217773   3.772   4.383   4.151
 5923TIP3   OH217774   3.493   2.691   2.679
 5923TIP3    H117775   3.568   2.732   2.722
 5923TIP3    H217776   3.438   2.660   2.751
 5924TIP3   OH217777   0.933   2.691   1.531
 5924TIP3    H117778   0.944   2.602   1.499
 5924TIP3    H217779   0.965   2.746   1.460
 5925TIP3   OH217780   3.252   5.077   1.205
 5925TIP3    H117781   3.305   5.150   1.235
 5925TIP3    H217782   3.263   5.077   1.110
 5926TIP3   OH217783   4.375   3.327   1.025
 5926TIP3    H117784   4.299   3.272   1.005
 5926TIP3    H217785   4.441   3.267   1.058
 5927TIP3   OH217786   3.878   1.235   4.372
 5927TIP3    H117787   3.901   1.328   4.367
 5927TIP3    H217788   3.795   1.233   4.419
 5928TIP3   OH217789   4.016   1.801   3.249
 5928TIP3    H117790   4.002   1.832   3.160
 5928TIP3    H217791   4.082   1.732   3.241
 5929TIP3   OH217792   1.377   0.248   1.528
 5929TIP3    H117793   1.405   0.196   1.452
 5929TIP3    H217794   1.439   0.225   1.596
 5930TIP3   OH217795   3.328   4.726   3.209
 5930TIP3    H117796   3.390   4.694   3.274
 5930TIP3    H217797   3.376   4.793   3.160
 5931TIP3   OH217798   2.477   5.612   2.881
 5931TIP3    H117799   2.395   5.600   2.929
 5931TIP3    H217800   2.492   5.528   2.837
 5932TIP3   OH217801   2.160   0.062   3.091
 5932TIP3    H117802   2.200   0.137   3.137
 5932TIP3    H217803   2.232   0.000   3.082
 5933TIP3   OH217804   2.414   0.824   2.113
 5933TIP3    H117805   2.396   0.738   2.150
 5933TIP3    H217806   2.466   0.868   2.180
 5934TIP3   OH217807   2.313   1.507   1.233
 5934TIP3    H117808   2.357   1.592   1.220
 5934TIP3    H217809   2.255   1.521   1.307
 5935TIP3   OH217810   4.013   1.459   3.366
 5935TIP3    H117811   3.963   1.522   3.417
 5935TIP3    H217812   4.105   1.480   3.387
 5936TIP3   OH217813   5.438   5.403   4.456
 5936TIP3    H117814   5.376   5.353   4.403
 5936TIP3    H217815   5.428   5.494   4.427
 5937TIP3   OH217816   5.297   0.499   2.766
 5937TIP3    H117817   5.220   0.476   2.818
 5937TIP3    H217818   5.311   0.592   2.783
 5938TIP3   OH217819   3.006   2.111   2.576
 5938TIP3    H117820   2.936   2.050   2.552
 5938TIP3    H217821   2.968   2.198   2.564
 5939TIP3   OH217822   0.164   3.463   4.867
 5939TIP3    H117823   0.207   3.529   4.812
 5939TIP3    H217824   0.205   3.380   4.841
 5940TIP3   OH217825   0.402   2.663   0.994
 5940TIP3    H117826   0.366   2.742   1.034
 5940TIP3    H217827   0.465   2.696   0.929
 5941TIP3   OH217828   3.497   2.851   3.077
 5941TIP3    H117829   3.496   2.756   3.060
 5941TIP3    H217830   3.562   2.862   3.146
 5942TIP3   OH217831   3.013   1.832   3.177
 5942TIP3    H117832   3.100   1.871   3.162
 5942TIP3    H217833   2.957   1.906   3.198
 5943TIP3   OH217834   1.557   5.669   2.144
 5943TIP3    H117835   1.577   5.756   2.110
 5943TIP3    H217836   1.564   5.612   2.067
 5944TIP3   OH217837   3.738   0.094   1.258
 5944TIP3    H117838   3.682   0.022   1.288
 5944TIP3    H217839   3.825   0.054   1.248
 5945TIP3   OH217840   0.454   3.494   2.661
 5945TIP3    H117841   0.423   3.537   2.581
 5945TIP3    H217842   0.544   3.525   2.672
 5946TIP3   OH217843   1.612   1.210   3.930
 5946TIP3    H117844   1.674   1.273   3.891
 5946TIP3    H217845   1.555   1.264   3.984
 5947TIP3   OH217846   6.009   0.046   4.074
 5947TIP3    H117847   6.024   0.138   4.095
 5947TIP3    H217848   6.060   0.031   3.994
 5948TIP3   OH217849   1.132   4.029   3.893
 5948TIP3    H117850   1.050   4.056   3.933
 5948TIP3    H217851   1.111   4.016   3.801
 5949TIP3   OH217852   0.043   3.397   4.408
 5949TIP3    H117853   0.020   3.484   4.442
 5949TIP3    H217854   0.118   3.369   4.460
 5950TIP3   OH217855   3.744   4.440   4.543
 5950TIP3    H117856   3.669   4.437   4.483
 5950TIP3    H217857   3.705   4.424   4.629
 5951TIP3   OH217858   0.175   2.002   0.118
 5951TIP3    H117859   0.117   2.014   0.043
 5951TIP3    H217860   0.233   1.930   0.092
 5952TIP3   OH217861   4.493   0.609   3.929
 5952TIP3    H117862   4.508   0.558   4.009
 5952TIP3    H217863   4.505   0.545   3.858
 5953TIP3   OH217864   0.937   2.514   4.167
 5953TIP3    H117865   1.003   2.471   4.113
 5953TIP3    H217866   0.960   2.490   4.257
 5954TIP3   OH217867   4.627   2.852   2.775
 5954TIP3    H117868   4.546   2.883   2.815
 5954TIP3    H217869   4.696   2.885   2.833
 5955TIP3   OH217870   1.023   4.078   4.844
 5955TIP3    H117871   0.991   4.036   4.764
 5955TIP3    H217872   1.118   4.077   4.835
 5956TIP3   OH217873   2.560   2.052   5.109
 5956TIP3    H117874   2.534   2.026   5.021
 5956TIP3    H217875   2.505   1.999   5.167
 5957TIP3   OH217876   2.324   1.651   3.084
 5957TIP3    H117877   2.357   1.621   3.168
 5957TIP3    H217878   2.393   1.628   3.021
 5958TIP3   OH217879   5.950   3.323   3.494
 5958TIP3    H117880   5.992   3.250   3.540
 5958TIP3    H217881   5.985   3.401   3.537
 5959TIP3   OH217882   4.405   5.924   3.489
 5959TIP3    H117883   4.435   5.986   3.554
 5959TIP3    H217884   4.464   5.937   3.414
 5960TIP3   OH217885   5.065   3.433   5.048
 5960TIP3    H117886   5.148   3.453   5.005
 5960TIP3    H217887   5.089   3.419   5.140
 5961TIP3   OH217888   1.693   0.914   2.500
 5961TIP3    H117889   1.787   0.917   2.517
 5961TIP3    H217890   1.658   0.992   2.541
 5962TIP3   OH217891   4.483   4.728   4.814
 5962TIP3    H117892   4.517   4.776   4.739
 5962TIP3    H217893   4.436   4.793   4.866
 5963TIP3   OH217894   4.458   1.468   1.902
 5963TIP3    H117895   4.500   1.554   1.900
 5963TIP3    H217896   4.473   1.431   1.815
 5964TIP3   OH217897   1.305   1.093   0.061
 5964TIP3    H117898   1.285   1.118  -0.029
 5964TIP3    H217899   1.236   1.032   0.086
 5965TIP3   OH217900   1.839   1.921   4.856
 5965TIP3    H117901   1.912   1.980   4.839
 5965TIP3    H217902   1.765   1.961   4.809
 5966TIP3   OH217903   4.528   5.557   4.364
 5966TIP3    H117904   4.576   5.475   4.361
 5966TIP3    H217905   4.461   5.543   4.432
 5967TIP3   OH217906   2.598   4.039   4.465
 5967TIP3    H117907   2.633   4.123   4.496
 5967TIP3    H217908   2.548   4.062   4.387
 5968TIP3   OH217909   1.656   0.447   4.149
 5968TIP3    H117910   1.709   0.471   4.073
 5968TIP3    H217911   1.686   0.506   4.219
 5969TIP3   OH217912   4.696   4.848   4.321
 5969TIP3    H117913   4.723   4.756   4.314
 5969TIP3    H217914   4.762   4.895   4.270
 5970TIP3   OH217915   0.942   0.518   0.807
 5970TIP3    H117916   0.894   0.597   0.781
 5970TIP3    H217917   0.986   0.543   0.888
 5971TIP3   OH217918   2.937   2.594   4.444
 5971TIP3    H117919   3.001   2.586   4.374
 5971TIP3    H217920   2.871   2.654   4.410
 5972TIP3   OH217921   2.785   2.693   1.090
 5972TIP3    H117922   2.828   2.617   1.129
 5972TIP3    H217923   2.834   2.768   1.124
 5973TIP3   OH217924   4.498   1.693   4.698
 5973TIP3    H117925   4.434   1.763   4.695
 5973TIP3    H217926   4.574   1.732   4.742
 5974TIP3   OH217927   1.859   4.214   3.945
 5974TIP3    H117928   1.918   4.203   3.871
 5974TIP3    H217929   1.880   4.301   3.980
 5975TIP3   OH217930   5.233   4.919   0.198
 5975TIP3    H117931   5.186   4.996   0.165
 5975TIP3    H217932   5.253   4.940   0.289
 5976TIP3   OH217933   3.043   3.428   1.309
 5976TIP3    H117934   3.026   3.445   1.216
 5976TIP3    H217935   3.118   3.484   1.330
 5977TIP3   OH217936   0.849   3.337   3.712
 5977TIP3    H117937   0.852   3.309   3.620
 5977TIP3    H217938   0.756   3.338   3.733
 5978TIP3   OH217939   1.408   1.822   3.033
 5978TIP3    H117940   1.404   1.761   3.106
 5978TIP3    H217941   1.355   1.781   2.964
 5979TIP3   OH217942   6.318   2.452   2.367
 5979TIP3    H117943   6.249   2.415   2.421
 5979TIP3    H217944   6.382   2.486   2.430
 5980TIP3   OH217945   1.248   2.266   3.241
 5980TIP3    H117946   1.300   2.208   3.186
 5980TIP3    H217947   1.248   2.349   3.193
 5981TIP3   OH217948   3.269   0.491   4.767
 5981TIP3    H117949   3.227   0.459   4.687
 5981TIP3    H217950   3.208   0.467   4.837
 5982TIP3   OH217951   5.003   0.399   5.081
 5982TIP3    H117952   5.051   0.374   5.003
 5982TIP3    H217953   4.925   0.444   5.049
 5983TIP3   OH217954   0.378   5.379   4.336
 5983TIP3    H117955   0.325   5.299   4.346
 5983TIP3    H217956   0.416   5.393   4.423
 5984TIP3   OH217957   5.816   5.521   0.370
 5984TIP3    H117958   5.891   5.540   0.426
 5984TIP3    H217959   5.743   5.506   0.431
 5985TIP3   OH217960   0.331   2.596   3.490
 5985TIP3    H117961   0.263   2.530   3.503
 5985TIP3    H217962   0.297   2.653   3.420
 5986TIP3   OH217963   4.719   5.027   0.240
 5986TIP3    H117964   4.643   5.083   0.221
 5986TIP3    H217965   4.681   4.949   0.281
 5987TIP3   OH217966   4.814   2.419   4.195
 5987TIP3    H117967   4.775   2.345   4.242
 5987TIP3    H217968   4.786   2.406   4.104
 5988TIP3   OH217969   4.853   4.746   0.716
 5988TIP3    H117970   4.769   4.699   0.716
 5988TIP3    H217971   4.917   4.680   0.741
 5989TIP3   OH217972   5.357   0.199   4.386
 5989TIP3    H117973   5.265   0.179   4.369
 5989TIP3    H217974   5.398   0.198   4.300
 5990TIP3   OH217975   3.581   5.483   4.266
 5990TIP3    H117976   3.607   5.563   4.310
 5990TIP3    H217977   3.620   5.413   4.319
 5991TIP3   OH217978   3.130   0.727   1.918
 5991TIP3    H117979   3.203   0.736   1.858
 5991TIP3    H217980   3.106   0.634   1.912
 5992TIP3   OH217981   1.322   3.120   1.955
 5992TIP3    H117982   1.330   3.145   2.047
 5992TIP3    H217983   1.297   3.201   1.910
 5993TIP3   OH217984   4.646   0.325   5.136
 5993TIP3    H117985   4.594   0.310   5.216
 5993TIP3    H217986   4.687   0.240   5.119
 5994TIP3   OH217987   2.969   1.690   2.642
 5994TIP3    H117988   2.903   1.756   2.620
 5994TIP3    H217989   2.955   1.620   2.578
 5995TIP3   OH217990   2.306   1.883   0.133
 5995TIP3    H117991   2.367   1.938   0.182
 5995TIP3    H217992   2.270   1.823   0.198
 5996TIP3   OH217993   6.280   0.807   1.551
 5996TIP3    H117994   6.279   0.887   1.603
 5996TIP3    H217995   6.296   0.737   1.614
 5997TIP3   OH217996   5.235   4.113   0.718
 5997TIP3    H117997   5.249   4.031   0.670
 5997TIP3    H217998   5.160   4.095   0.774
 5998TIP3   OH217999   1.982   3.411   4.620
 5998TIP3    H118000   2.072   3.433   4.597
 5998TIP3    H218001   1.944   3.377   4.539
 5999TIP3   OH218002   3.780   5.365   0.562
 5999TIP3    H118003   3.790   5.441   0.504
 5999TIP3    H218004   3.788   5.401   0.650
 6000TIP3   OH218005   5.720   5.561   4.894
 6000TIP3    H118006   5.742   5.654   4.905
 6000TIP3    H218007   5.650   5.545   4.957
 6001TIP3   OH218008   3.649   1.133   0.757
 6001TIP3    H118009   3.689   1.129   0.670
 6001TIP3    H218010   3.569   1.184   0.744
 6002TIP3   OH218011   3.514   0.998   3.940
 6002TIP3    H118012   3.533   0.998   4.033
 6002TIP3    H218013   3.539   0.911   3.910
 6003TIP3   OH218014   3.629   4.707   1.888
 6003TIP3    H118015   3.615   4.677   1.978
 6003TIP3    H218016   3.673   4.635   1.844
 6004TIP3   OH218017   2.496   5.058   5.055
 6004TIP3    H118018   2.460   5.087   4.972
 6004TIP3    H218019   2.435   4.990   5.085
 6005TIP3   OH218020   4.966   1.752   1.397
 6005TIP3    H118021   5.050   1.794   1.381
 6005TIP3    H218022   4.902   1.823   1.388
 6006TIP3   OH218023   1.656   3.510   5.042
 6006TIP3    H118024   1.618   3.598   5.039
 6006TIP3    H218025   1.687   3.501   5.132
 6007TIP3   OH218026   2.480   3.096   1.181
 6007TIP3    H118027   2.567   3.102   1.220
 6007TIP3    H218028   2.497   3.081   1.087
 6008TIP3   OH218029   1.571   3.007   0.642
 6008TIP3    H118030   1.625   3.039   0.715
 6008TIP3    H218031   1.508   2.948   0.683
 6009TIP3   OH218032   4.730   5.075   1.387
 6009TIP3    H118033   4.700   5.133   1.457
 6009TIP3    H218034   4.751   5.134   1.315
 6010TIP3   OH218035   0.050   1.930   2.732
 6010TIP3    H118036   0.065   1.877   2.654
 6010TIP3    H218037  -0.018   1.992   2.707
 6011TIP3   OH218038   1.377   6.007   2.305
 6011TIP3    H118039   1.301   6.052   2.343
 6011TIP3    H218040   1.376   5.921   2.347
 6012TIP3   OH218041   0.553   2.536   2.592
 6012TIP3    H118042   0.478   2.542   2.533
 6012TIP3    H218043   0.519   2.565   2.677
 6013TIP3   OH218044   1.732   3.392   3.376
 6013TIP3    H118045   1.749   3.313   3.324
 6013TIP3    H218046   1.663   3.438   3.330
 6014TIP3   OH218047   4.089   4.769   1.238
 6014TIP3    H118048   4.120   4.706   1.304
 6014TIP3    H218049   4.022   4.721   1.190
 6015TIP3   OH218050   4.638   0.446   2.340
 6015TIP3    H118051   4.717   0.423   2.292
 6015TIP3    H218052   4.668   0.462   2.430
 6016TIP3   OH218053   5.224   0.588   2.327
 6016TIP3    H118054   5.213   0.683   2.331
 6016TIP3    H218055   5.162   0.554   2.392
 6017TIP3   OH218056   5.104   0.214   4.898
 6017TIP3    H118057   5.145   0.212   4.985
 6017TIP3    H218058   5.175   0.233   4.838
 6018TIP3   OH218059   0.692   5.209   1.899
 6018TIP3    H118060   0.628   5.266   1.856
 6018TIP3    H218061   0.665   5.120   1.876
 6019TIP3   OH218062   3.316   0.654   3.695
 6019TIP3    H118063   3.372   0.732   3.704
 6019TIP3    H218064   3.319   0.613   3.781
 6020TIP3   OH218065   1.808   3.201   4.793
 6020TIP3    H118066   1.887   3.226   4.745
 6020TIP3    H218067   1.806   3.106   4.788
 6021TIP3   OH218068   4.034   0.140   3.432
 6021TIP3    H118069   3.950   0.135   3.478
 6021TIP3    H218070   4.095   0.094   3.489
 6022TIP3   OH218071   5.058   4.454   4.846
 6022TIP3    H118072   4.997   4.469   4.919
 6022TIP3    H218073   5.034   4.368   4.812
 6023TIP3   OH218074   2.789   5.151   1.247
 6023TIP3    H118075   2.872   5.159   1.201
 6023TIP3    H218076   2.802   5.078   1.308
 6024TIP3   OH218077   0.963   3.709   1.416
 6024TIP3    H118078   0.928   3.798   1.410
 6024TIP3    H218079   1.057   3.722   1.430
 6025TIP3   OH218080   5.657   3.713   3.844
 6025TIP3    H118081   5.720   3.780   3.815
 6025TIP3    H218082   5.683   3.693   3.934
 6026TIP3   OH218083   0.637   0.065   0.322
 6026TIP3    H118084   0.716   0.082   0.271
 6026TIP3    H218085   0.663   0.077   0.413
 6027TIP3   OH218086   3.108   2.116   3.387
 6027TIP3    H118087   3.131   2.068   3.308
 6027TIP3    H218088   3.049   2.186   3.356
 6028TIP3   OH218089   6.122   5.111   2.060
 6028TIP3    H118090   6.149   5.022   2.083
 6028TIP3    H218091   6.027   5.105   2.050
 6029TIP3   OH218092   4.352   0.326   4.982
 6029TIP3    H118093   4.353   0.257   5.048
 6029TIP3    H218094   4.263   0.360   4.983
 6030TIP3   OH218095   1.593   4.267   4.875
 6030TIP3    H118096   1.540   4.345   4.891
 6030TIP3    H218097   1.625   4.278   4.786
 6031TIP3   OH218098   0.525   3.294   4.371
 6031TIP3    H118099   0.534   3.316   4.463
 6031TIP3    H218100   0.578   3.215   4.359
 6032TIP3   OH218101   3.897   1.104   0.251
 6032TIP3    H118102   3.824   1.056   0.290
 6032TIP3    H218103   3.975   1.056   0.279
 6033TIP3   OH218104   4.339   1.426   3.238
 6033TIP3    H118105   4.250   1.459   3.227
 6033TIP3    H218106   4.356   1.376   3.158
 6034TIP3   OH218107   3.273   3.130   3.357
 6034TIP3    H118108   3.201   3.175   3.313
 6034TIP3    H218109   3.279   3.045   3.312
 6035TIP3   OH218110   2.859   2.690   3.838
 6035TIP3    H118111   2.892   2.634   3.909
 6035TIP3    H218112   2.782   2.644   3.805
 6036TIP3   OH218113   3.271   2.850   4.307
 6036TIP3    H118114   3.268   2.933   4.259
 6036TIP3    H218115   3.355   2.852   4.353
 6037TIP3   OH218116   2.279   5.670   2.240
 6037TIP3    H118117   2.328   5.643   2.162
 6037TIP3    H218118   2.226   5.594   2.263
 6038TIP3   OH218119   2.382   5.502   5.033
 6038TIP3    H118120   2.310   5.481   5.093
 6038TIP3    H218121   2.406   5.591   5.055
 6039TIP3   OH218122   3.914   0.274   3.219
 6039TIP3    H118123   3.873   0.352   3.255
 6039TIP3    H218124   3.947   0.226   3.295
 6040TIP3   OH218125   5.793   0.803   2.334
 6040TIP3    H118126   5.717   0.801   2.275
 6040TIP3    H218127   5.867   0.828   2.277
 6041TIP3   OH218128   1.835   1.789   3.927
 6041TIP3    H118129   1.914   1.779   3.873
 6041TIP3    H218130   1.868   1.819   4.012
 6042TIP3   OH218131   5.656   2.248   3.713
 6042TIP3    H118132   5.662   2.290   3.628
 6042TIP3    H218133   5.565   2.263   3.741
 6043TIP3   OH218134   0.460   4.383   4.609
 6043TIP3    H118135   0.440   4.376   4.703
 6043TIP3    H218136   0.375   4.401   4.568
 6044TIP3   OH218137  -0.044   1.551   0.505
 6044TIP3    H118138   0.003   1.607   0.567
 6044TIP3    H218139   0.023   1.523   0.443
 6045TIP3   OH218140   2.354   2.193   0.829
 6045TIP3    H118141   2.355   2.099   0.844
 6045TIP3    H218142   2.409   2.229   0.899
 6046TIP3   OH218143   2.398   4.833   3.097
 6046TIP3    H118144   2.448   4.753   3.082
 6046TIP3    H218145   2.392   4.874   3.011
 6047TIP3   OH218146   2.999   2.836   4.843
 6047TIP3    H118147   3.048   2.862   4.921
 6047TIP3    H218148   2.946   2.761   4.873
 6048TIP3   OH218149   2.635   4.325   1.010
 6048TIP3    H118150   2.719   4.367   1.027
 6048TIP3    H218151   2.658   4.242   0.968
 6049TIP3   OH218152   0.571   4.305   4.375
 6049TIP3    H118153   0.657   4.264   4.391
 6049TIP3    H218154   0.548   4.347   4.457
 6050TIP3   OH218155   1.907   1.818   2.008
 6050TIP3    H118156   1.934   1.774   1.927
 6050TIP3    H218157   1.830   1.770   2.037
 6051TIP3   OH218158   4.848   2.163   3.665
 6051TIP3    H118159   4.909   2.141   3.595
 6051TIP3    H218160   4.902   2.205   3.732
 6052TIP3   OH218161   1.985   2.732   2.995
 6052TIP3    H118162   1.963   2.640   2.979
 6052TIP3    H218163   1.960   2.776   2.914
 6053TIP3   OH218164   5.708   4.762   4.354
 6053TIP3    H118165   5.742   4.672   4.352
 6053TIP3    H218166   5.768   4.808   4.413
 6054TIP3   OH218167   0.701   5.535   2.613
 6054TIP3    H118168   0.780   5.579   2.646
 6054TIP3    H218169   0.704   5.548   2.518
 6055TIP3   OH218170   0.613   3.882   0.949
 6055TIP3    H118171   0.554   3.956   0.965
 6055TIP3    H218172   0.630   3.846   1.036
 6056TIP3   OH218173   6.278   4.234   1.919
 6056TIP3    H118174   6.239   4.174   1.982
 6056TIP3    H218175   6.363   4.256   1.957
 6057TIP3   OH218176   5.457   3.855   0.781
 6057TIP3    H118177   5.367   3.834   0.755
 6057TIP3    H218178   5.500   3.770   0.787
 6058TIP3   OH218179   1.205   3.032   5.159
 6058TIP3    H118180   1.149   3.109   5.170
 6058TIP3    H218181   1.144   2.960   5.144
 6059TIP3   OH218182   2.047   3.841   4.181
 6059TIP3    H118183   1.969   3.896   4.173
 6059TIP3    H218184   2.015   3.759   4.218
 6060TIP3   OH218185   1.108   3.298   3.350
 6060TIP3    H118186   1.158   3.338   3.278
 6060TIP3    H218187   1.028   3.267   3.309
 6061TIP3   OH218188   1.857   5.137   0.857
 6061TIP3    H118189   1.921   5.097   0.916
 6061TIP3    H218190   1.815   5.063   0.813
 6062TIP3   OH218191   1.747   5.802   3.161
 6062TIP3    H118192   1.734   5.880   3.108
 6062TIP3    H218193   1.830   5.817   3.205
 6063TIP3   OH218194   2.878   2.693   2.559
 6063TIP3    H118195   2.876   2.660   2.649
 6063TIP3    H218196   2.960   2.659   2.523
 6064TIP3   OH218197   3.685   3.832   3.205
 6064TIP3    H118198   3.717   3.898   3.266
 6064TIP3    H218199   3.616   3.786   3.253
 6065TIP3   OH218200   2.921   4.084   4.898
 6065TIP3    H118201   3.015   4.065   4.897
 6065TIP3    H218202   2.883   4.025   4.833
 6066TIP3   OH218203   3.573   2.390   2.799
 6066TIP3    H118204   3.611   2.478   2.796
 6066TIP3    H218205   3.604   2.353   2.882
 6067TIP3   OH218206   2.493   1.341   1.109
 6067TIP3    H118207   2.546   1.303   1.178
 6067TIP3    H218208   2.426   1.392   1.154
 6068TIP3   OH218209   1.020   0.986   0.082
 6068TIP3    H118210   1.018   1.038   0.163
 6068TIP3    H218211   0.931   0.954   0.071
 6069TIP3   OH218212   3.002   1.208   4.463
 6069TIP3    H118213   2.941   1.265   4.417
 6069TIP3    H218214   3.034   1.261   4.537
 6070TIP3   OH218215   1.573   2.865   4.941
 6070TIP3    H118216   1.553   2.776   4.971
 6070TIP3    H218217   1.531   2.922   5.006
 6071TIP3   OH218218   3.041   2.816   3.212
 6071TIP3    H118219   3.109   2.883   3.203
 6071TIP3    H218220   3.005   2.806   3.124
 6072TIP3   OH218221   2.322   0.105   4.110
 6072TIP3    H118222   2.382   0.039   4.074
 6072TIP3    H218223   2.236   0.066   4.102
 6073TIP3   OH218224   2.139   3.748   3.752
 6073TIP3    H118225   2.053   3.776   3.721
 6073TIP3    H218226   2.122   3.669   3.802
 6074TIP3   OH218227   2.402   5.221   0.781
 6074TIP3    H118228   2.489   5.257   0.766
 6074TIP3    H218229   2.351   5.246   0.703
 6075TIP3   OH218230   0.118   1.599   0.086
 6075TIP3    H118231   0.172   1.522   0.103
 6075TIP3    H218232   0.029   1.570   0.109
 6076TIP3   OH218233   0.442   0.852   1.450
 6076TIP3    H118234   0.363   0.800   1.463
 6076TIP3    H218235   0.513   0.789   1.455
 6077TIP3   OH218236   4.550   5.630   0.928
 6077TIP3    H118237   4.596   5.555   0.965
 6077TIP3    H218238   4.502   5.668   1.002
 6078TIP3   OH218239   1.370   5.730   0.104
 6078TIP3    H118240   1.329   5.734   0.018
 6078TIP3    H218241   1.357   5.816   0.142
 6079TIP3   OH218242   1.414   5.634   1.616
 6079TIP3    H118243   1.492   5.591   1.581
 6079TIP3    H218244   1.343   5.604   1.560
 6080TIP3   OH218245   2.429   3.882   1.709
 6080TIP3    H118246   2.487   3.852   1.779
 6080TIP3    H218247   2.432   3.812   1.644
 6081TIP3   OH218248   2.712   3.177   1.328
 6081TIP3    H118249   2.795   3.146   1.366
 6081TIP3    H218250   2.739   3.222   1.248
 6082TIP3   OH218251   1.040   1.029   3.756
 6082TIP3    H118252   1.094   1.067   3.825
 6082TIP3    H218253   1.103   0.989   3.696
 6083TIP3   OH218254   1.414   2.083   3.133
 6083TIP3    H118255   1.494   2.096   3.185
 6083TIP3    H218256   1.427   1.998   3.090
 6084TIP3   OH218257   1.384   1.331   4.705
 6084TIP3    H118258   1.446   1.368   4.768
 6084TIP3    H218259   1.434   1.264   4.659
 6085TIP3   OH218260   3.283   3.389   0.269
 6085TIP3    H118261   3.247   3.475   0.293
 6085TIP3    H218262   3.360   3.379   0.326
 6086TIP3   OH218263   1.024   3.369   4.996
 6086TIP3    H118264   1.047   3.462   5.002
 6086TIP3    H218265   1.048   3.333   5.082
 6087TIP3   OH218266   3.443   5.932   1.799
 6087TIP3    H118267   3.431   5.942   1.893
 6087TIP3    H218268   3.388   6.000   1.760
 6088TIP3   OH218269   1.297   1.175   2.185
 6088TIP3    H118270   1.331   1.239   2.123
 6088TIP3    H218271   1.354   1.183   2.261
 6089TIP3   OH218272   2.257   3.612   0.398
 6089TIP3    H118273   2.249   3.677   0.329
 6089TIP3    H218274   2.182   3.627   0.456
 6090TIP3   OH218275   3.522   4.615   0.080
 6090TIP3    H118276   3.584   4.663   0.134
 6090TIP3    H218277   3.572   4.541   0.046
 6091TIP3   OH218278   1.486   1.736   1.637
 6091TIP3    H118279   1.528   1.764   1.556
 6091TIP3    H218280   1.395   1.721   1.614
 6092TIP3   OH218281   0.137   5.323   2.741
 6092TIP3    H118282   0.089   5.250   2.781
 6092TIP3    H218283   0.134   5.392   2.806
 6093TIP3   OH218284   1.658   0.259   0.899
 6093TIP3    H118285   1.714   0.195   0.854
 6093TIP3    H218286   1.665   0.338   0.846
 6094TIP3   OH218287   5.098   1.627   2.712
 6094TIP3    H118288   5.171   1.688   2.727
 6094TIP3    H218289   5.139   1.541   2.710
 6095TIP3   OH218290   1.096   2.530   3.243
 6095TIP3    H118291   1.090   2.559   3.333
 6095TIP3    H218292   1.046   2.448   3.241
 6096TIP3   OH218293   4.980   2.903   2.450
 6096TIP3    H118294   4.962   2.965   2.379
 6096TIP3    H218295   4.893   2.873   2.477
 6097TIP3   OH218296   4.625   0.707   4.217
 6097TIP3    H118297   4.689   0.725   4.148
 6097TIP3    H218298   4.579   0.629   4.187
 6098TIP3   OH218299   6.142   5.061   2.390
 6098TIP3    H118300   6.052   5.094   2.390
 6098TIP3    H218301   6.141   4.987   2.329
 6099TIP3   OH218302   0.925   3.063   3.840
 6099TIP3    H118303   0.912   2.984   3.892
 6099TIP3    H218304   0.870   3.050   3.763
 6100TIP3   OH218305   2.360   5.971   2.179
 6100TIP3    H118306   2.352   6.017   2.262
 6100TIP3    H218307   2.356   5.878   2.203
 6101TIP3   OH218308   1.188   5.124   3.763
 6101TIP3    H118309   1.126   5.193   3.787
 6101TIP3    H218310   1.139   5.043   3.773
 6102TIP3   OH218311   3.623   4.161   3.235
 6102TIP3    H118312   3.609   4.249   3.270
 6102TIP3    H218313   3.535   4.130   3.213
 6103TIP3   OH218314   2.568   1.727   4.328
 6103TIP3    H118315   2.608   1.645   4.298
 6103TIP3    H218316   2.611   1.745   4.412
 6104TIP3   OH218317   4.979   3.024   3.494
 6104TIP3    H118318   4.903   3.077   3.468
 6104TIP3    H218319   5.042   3.035   3.423
 6105TIP3   OH218320   5.031   0.881   4.593
 6105TIP3    H118321   5.061   0.968   4.622
 6105TIP3    H218322   5.112   0.830   4.585
 6106TIP3   OH218323   6.112   3.026   3.508
 6106TIP3    H118324   6.107   3.064   3.596
 6106TIP3    H218325   6.195   3.056   3.473
 6107TIP3   OH218326   2.092   5.480   2.377
 6107TIP3    H118327   2.104   5.392   2.340
 6107TIP3    H218328   2.133   5.476   2.463
 6108TIP3   OH218329   4.219   5.802   1.497
 6108TIP3    H118330   4.136   5.848   1.491
 6108TIP3    H218331   4.252   5.823   1.584
 6109TIP3   OH218332   2.959   0.368   1.142
 6109TIP3    H118333   2.897   0.338   1.208
 6109TIP3    H218334   2.906   0.417   1.079
 6110TIP3   OH218335   6.303   5.333   4.878
 6110TIP3    H118336   6.304   5.428   4.870
 6110TIP3    H218337   6.390   5.310   4.911
 6111TIP3   OH218338   3.640   4.013   2.951
 6111TIP3    H118339   3.643   4.057   3.036
 6111TIP3    H218340   3.708   4.056   2.899
 6112TIP3   OH218341   4.208   1.098   4.796
 6112TIP3    H118342   4.228   1.067   4.708
 6112TIP3    H218343   4.275   1.164   4.814
 6113TIP3   OH218344   3.472   5.889   3.149
 6113TIP3    H118345   3.474   5.795   3.130
 6113TIP3    H218346   3.380   5.913   3.144
 6114TIP3   OH218347   5.882   0.946   4.475
 6114TIP3    H118348   5.929   1.020   4.513
 6114TIP3    H218349   5.939   0.914   4.406
 6115TIP3   OH218350   1.437   0.174   3.702
 6115TIP3    H118351   1.401   0.097   3.745
 6115TIP3    H218352   1.452   0.146   3.611
 6116TIP3   OH218353   3.837   2.528   4.527
 6116TIP3    H118354   3.826   2.435   4.545
 6116TIP3    H218355   3.905   2.556   4.588
 6117TIP3   OH218356   0.289   2.033   2.177
 6117TIP3    H118357   0.371   2.013   2.132
 6117TIP3    H218358   0.222   2.028   2.109
 6118TIP3   OH218359   5.471   0.428   5.147
 6118TIP3    H118360   5.551   0.474   5.119
 6118TIP3    H218361   5.465   0.446   5.241
 6119TIP3   OH218362   4.533   2.181   3.412
 6119TIP3    H118363   4.607   2.142   3.367
 6119TIP3    H218364   4.539   2.147   3.501
 6120TIP3   OH218365   3.306   4.802   4.640
 6120TIP3    H118366   3.301   4.717   4.683
 6120TIP3    H218367   3.375   4.791   4.574
 6121TIP3   OH218368   3.734   0.977   1.250
 6121TIP3    H118369   3.661   1.003   1.194
 6121TIP3    H218370   3.761   0.892   1.216
 6122TIP3   OH218371   5.856   4.292   3.334
 6122TIP3    H118372   5.928   4.229   3.340
 6122TIP3    H218373   5.800   4.258   3.264
 6123TIP3   OH218374   1.621   1.084   3.039
 6123TIP3    H118375   1.527   1.089   3.020
 6123TIP3    H218376   1.653   1.015   2.981
 6124TIP3   OH218377   4.901   5.935   4.111
 6124TIP3    H118378   4.809   5.906   4.111
 6124TIP3    H218379   4.940   5.889   4.037
 6125TIP3   OH218380   1.749   3.453   1.413
 6125TIP3    H118381   1.701   3.494   1.341
 6125TIP3    H218382   1.710   3.491   1.492
 6126TIP3   OH218383   5.739   2.501   3.907
 6126TIP3    H118384   5.793   2.475   3.982
 6126TIP3    H218385   5.653   2.462   3.925
 6127TIP3   OH218386   4.677   0.587   2.624
 6127TIP3    H118387   4.589   0.616   2.646
 6127TIP3    H218388   4.730   0.611   2.700
 6128TIP3   OH218389   1.918   2.744   4.649
 6128TIP3    H118390   1.848   2.795   4.690
 6128TIP3    H218391   1.999   2.788   4.675
 6129TIP3   OH218392   4.953   4.191   4.057
 6129TIP3    H118393   4.974   4.113   4.107
 6129TIP3    H218394   4.995   4.177   3.972
 6130TIP3   OH218395   3.511   1.346  -0.014
 6130TIP3    H118396   3.565   1.340   0.066
 6130TIP3    H218397   3.534   1.431  -0.051
 6131TIP3   OH218398   0.769   3.089   2.325
 6131TIP3    H118399   0.764   3.178   2.292
 6131TIP3    H218400   0.859   3.078   2.353
 6132TIP3   OH218401   0.518   0.380   1.919
 6132TIP3    H118402   0.560   0.424   1.845
 6132TIP3    H218403   0.488   0.296   1.883
 6133TIP3   OH218404   4.367   5.304   0.272
 6133TIP3    H118405   4.356   5.325   0.179
 6133TIP3    H218406   4.302   5.359   0.317
 6134TIP3   OH218407   5.954   2.757   4.600
 6134TIP3    H118408   6.049   2.758   4.618
 6134TIP3    H218409   5.919   2.693   4.662
 6135TIP3   OH218410   0.212   1.853   5.086
 6135TIP3    H118411   0.245   1.786   5.026
 6135TIP3    H218412   0.169   1.917   5.029
 6136TIP3   OH218413   2.488   5.850   3.338
 6136TIP3    H118414   2.442   5.766   3.346
 6136TIP3    H218415   2.580   5.826   3.328
 6137TIP3   OH218416   3.918   1.656   0.335
 6137TIP3    H118417   3.964   1.575   0.316
 6137TIP3    H218418   3.945   1.716   0.266
 6138TIP3   OH218419   1.563   2.589   4.966
 6138TIP3    H118420   1.648   2.556   4.995
 6138TIP3    H218421   1.501   2.520   4.989
 6139TIP3   OH218422   2.991   4.049   0.056
 6139TIP3    H118423   3.042   3.969   0.069
 6139TIP3    H218424   3.043   4.099  -0.007
 6140TIP3   OH218425   1.259   5.829   3.316
 6140TIP3    H118426   1.274   5.795   3.228
 6140TIP3    H218427   1.310   5.772   3.373
 6141TIP3   OH218428   5.127   0.019   3.574
 6141TIP3    H118429   5.159   0.102   3.611
 6141TIP3    H218430   5.089  -0.027   3.648
 6142TIP3   OH218431   0.280   4.804   2.595
 6142TIP3    H118432   0.344   4.736   2.613
 6142TIP3    H218433   0.285   4.862   2.671
 6143TIP3   OH218434   5.660   0.655   0.299
 6143TIP3    H118435   5.729   0.589   0.290
 6143TIP3    H218436   5.646   0.662   0.394
 6144TIP3   OH218437   5.296   1.431   3.255
 6144TIP3    H118438   5.372   1.480   3.285
 6144TIP3    H218439   5.224   1.494   3.258
 6145TIP3   OH218440   4.944   2.743   0.896
 6145TIP3    H118441   4.989   2.679   0.950
 6145TIP3    H218442   5.002   2.820   0.896
 6146TIP3   OH218443   2.278   3.987   3.682
 6146TIP3    H118444   2.309   4.018   3.767
 6146TIP3    H218445   2.263   3.893   3.695
 6147TIP3   OH218446   5.174   2.181   4.825
 6147TIP3    H118447   5.095   2.165   4.773
 6147TIP3    H218448   5.246   2.156   4.768
 6148TIP3   OH218449   6.019   0.571   0.368
 6148TIP3    H118450   5.970   0.644   0.407
 6148TIP3    H218451   6.095   0.560   0.425
 6149TIP3   OH218452   3.252   3.673   0.356
 6149TIP3    H118453   3.340   3.682   0.321
 6149TIP3    H218454   3.239   3.753   0.407
 6150TIP3   OH218455   0.523   5.034   2.498
 6150TIP3    H118456   0.601   5.082   2.526
 6150TIP3    H218457   0.450   5.081   2.537
 6151TIP3   OH218458   1.282   2.805   1.491
 6151TIP3    H118459   1.373   2.802   1.519
 6151TIP3    H218460   1.234   2.841   1.566
 6152TIP3   OH218461   4.146   4.742   0.061
 6152TIP3    H118462   4.109   4.758  -0.026
 6152TIP3    H218463   4.222   4.686   0.045
 6153TIP3   OH218464   4.227   4.380   1.070
 6153TIP3    H118465   4.306   4.392   1.016
 6153TIP3    H218466   4.204   4.469   1.098
 6154TIP3   OH218467   1.303   3.123   2.652
 6154TIP3    H118468   1.387   3.162   2.627
 6154TIP3    H218469   1.291   3.050   2.591
 6155TIP3   OH218470   3.790   3.247   1.870
 6155TIP3    H118471   3.842   3.199   1.934
 6155TIP3    H218472   3.702   3.210   1.879
 6156TIP3   OH218473   5.874   3.126   4.929
 6156TIP3    H118474   5.857   3.062   4.860
 6156TIP3    H218475   5.824   3.093   5.004
 6157TIP3   OH218476   5.248   3.297   3.194
 6157TIP3    H118477   5.196   3.329   3.267
 6157TIP3    H218478   5.334   3.337   3.206
 6158TIP3   OH218479   3.340   0.480   1.972
 6158TIP3    H118480   3.253   0.458   2.004
 6158TIP3    H218481   3.383   0.396   1.959
 6159TIP3   OH218482   5.175   1.694   3.670
 6159TIP3    H118483   5.171   1.599   3.657
 6159TIP3    H218484   5.084   1.723   3.659
 6160TIP3   OH218485   1.084   5.923   1.882
 6160TIP3    H118486   1.157   5.872   1.847
 6160TIP3    H218487   1.022   5.928   1.809
 6161TIP3   OH218488   4.129   1.011   3.781
 6161TIP3    H118489   4.202   0.985   3.726
 6161TIP3    H218490   4.086   1.082   3.734
 6162TIP3   OH218491   2.286   4.410   4.498
 6162TIP3    H118492   2.320   4.480   4.555
 6162TIP3    H218493   2.348   4.407   4.425
 6163TIP3   OH218494   0.336   1.309   0.747
 6163TIP3    H118495   0.300   1.227   0.781
 6163TIP3    H218496   0.264   1.371   0.755
 6164TIP3   OH218497   1.301   5.780   4.253
 6164TIP3    H118498   1.237   5.852   4.255
 6164TIP3    H218499   1.260   5.711   4.304
 6165TIP3   OH218500   5.162   3.820   0.370
 6165TIP3    H118501   5.176   3.907   0.331
 6165TIP3    H218502   5.110   3.773   0.306
 6166TIP3   OH218503   3.253   4.285   0.406
 6166TIP3    H118504   3.274   4.233   0.484
 6166TIP3    H218505   3.175   4.244   0.370
 6167TIP3   OH218506   1.537   4.208   1.313
 6167TIP3    H118507   1.588   4.143   1.360
 6167TIP3    H218508   1.597   4.282   1.300
 6168TIP3   OH218509   2.315   3.694   0.045
 6168TIP3    H118510   2.322   3.783   0.010
 6168TIP3    H218511   2.345   3.638  -0.026
 6169TIP3   OH218512   2.884   0.157   0.445
 6169TIP3    H118513   2.795   0.181   0.417
 6169TIP3    H218514   2.877   0.148   0.540
 6170TIP3   OH218515   2.555   4.063   3.257
 6170TIP3    H118516   2.537   4.028   3.345
 6170TIP3    H218517   2.517   3.999   3.197
 6171TIP3   OH218518   1.457   0.773   3.666
 6171TIP3    H118519   1.547   0.763   3.634
 6171TIP3    H218520   1.434   0.687   3.700
 6172TIP3   OH218521   4.125   0.184   4.770
 6172TIP3    H118522   4.058   0.228   4.823
 6172TIP3    H218523   4.190   0.253   4.753
 6173TIP3   OH218524   4.824   0.725   2.410
 6173TIP3    H118525   4.762   0.673   2.461
 6173TIP3    H218526   4.903   0.727   2.464
 6174TIP3   OH218527   3.312   2.847   1.984
 6174TIP3    H118528   3.274   2.926   2.021
 6174TIP3    H218529   3.326   2.867   1.891
 6175TIP3   OH218530   5.056   3.517   3.689
 6175TIP3    H118531   5.110   3.543   3.764
 6175TIP3    H218532   5.029   3.427   3.710
 6176TIP3   OH218533   0.978   2.299   4.968
 6176TIP3    H118534   0.900   2.245   4.955
 6176TIP3    H218535   1.030   2.251   5.032
 6177TIP3   OH218536   4.840   0.247   2.015
 6177TIP3    H118537   4.933   0.255   1.994
 6177TIP3    H218538   4.795   0.263   1.932
 6178TIP3   OH218539   4.281   5.926   2.304
 6178TIP3    H118540   4.219   5.990   2.269
 6178TIP3    H218541   4.249   5.842   2.273
 6179TIP3   OH218542   3.420   2.667   0.930
 6179TIP3    H118543   3.480   2.734   0.896
 6179TIP3    H218544   3.382   2.628   0.852
 6180TIP3   OH218545   1.694   2.263   3.141
 6180TIP3    H118546   1.682   2.208   3.219
 6180TIP3    H218547   1.748   2.209   3.083
 6181TIP3   OH218548   6.160   3.514   3.333
 6181TIP3    H118549   6.135   3.430   3.295
 6181TIP3    H218550   6.077   3.550   3.366
 6182TIP3   OH218551   3.606   3.092   5.126
 6182TIP3    H118552   3.593   3.123   5.037
 6182TIP3    H218553   3.692   3.125   5.151
 6183TIP3   OH218554   3.968   2.158   1.524
 6183TIP3    H118555   3.933   2.091   1.582
 6183TIP3    H218556   4.006   2.109   1.450
 6184TIP3   OH218557   2.044   5.855   0.868
 6184TIP3    H118558   2.034   5.790   0.937
 6184TIP3    H218559   1.954   5.882   0.847
 6185TIP3   OH218560   2.902   1.669   0.819
 6185TIP3    H118561   2.830   1.662   0.755
 6185TIP3    H218562   2.975   1.705   0.769
 6186TIP3   OH218563   6.380   5.228   0.285
 6186TIP3    H118564   6.359   5.159   0.348
 6186TIP3    H218565   6.295   5.255   0.251
 6187TIP3   OH218566   2.799   2.246   2.222
 6187TIP3    H118567   2.727   2.183   2.214
 6187TIP3    H218568   2.781   2.311   2.154
 6188TIP3   OH218569   5.313   2.440   2.992
 6188TIP3    H118570   5.327   2.438   2.897
 6188TIP3    H218571   5.281   2.529   3.009
 6189TIP3   OH218572   1.349   2.776   1.169
 6189TIP3    H118573   1.323   2.790   1.079
 6189TIP3    H218574   1.439   2.744   1.164
 6190TIP3   OH218575   4.981   4.015   0.912
 6190TIP3    H118576   4.984   4.111   0.913
 6190TIP3    H218577   4.964   3.990   1.003
 6191TIP3   OH218578   3.002   2.884   1.985
 6191TIP3    H118579   3.025   2.816   1.920
 6191TIP3    H218580   3.035   2.850   2.068
 6192TIP3   OH218581   3.408   1.916   0.039
 6192TIP3    H118582   3.463   1.987   0.006
 6192TIP3    H218583   3.387   1.942   0.128
 6193TIP3   OH218584   3.064   3.843   2.861
 6193TIP3    H118585   2.975   3.873   2.877
 6193TIP3    H218586   3.119   3.920   2.878
 6194TIP3   OH218587   6.014   5.294   1.729
 6194TIP3    H118588   6.056   5.288   1.643
 6194TIP3    H218589   6.087   5.309   1.789
 6195TIP3   OH218590   1.620   2.538   0.455
 6195TIP3    H118591   1.527   2.513   0.459
 6195TIP3    H218592   1.619   2.628   0.425
 6196TIP3   OH218593   0.585   3.385   1.764
 6196TIP3    H118594   0.561   3.424   1.680
 6196TIP3    H218595   0.674   3.351   1.750
 6197TIP3   OH218596   1.447   3.227   0.097
 6197TIP3    H118597   1.506   3.300   0.118
 6197TIP3    H218598   1.480   3.193   0.014
 6198TIP3   OH218599   6.361   0.623   1.773
 6198TIP3    H118600   6.288   0.567   1.800
 6198TIP3    H218601   6.371   0.686   1.844
 6199TIP3   OH218602   2.794   2.249   0.610
 6199TIP3    H118603   2.849   2.259   0.533
 6199TIP3    H218604   2.751   2.334   0.621
 6200TIP3   OH218605   4.978   5.133   1.543
 6200TIP3    H118606   5.019   5.138   1.630
 6200TIP3    H218607   4.895   5.180   1.553
 6201TIP3   OH218608   1.705   3.822   2.380
 6201TIP3    H118609   1.749   3.893   2.333
 6201TIP3    H218610   1.643   3.866   2.437
 6202TIP3   OH218611   4.465   1.075   0.930
 6202TIP3    H118612   4.398   1.095   0.865
 6202TIP3    H218613   4.457   1.145   0.995
 6203TIP3   OH218614   2.668   0.731   0.209
 6203TIP3    H118615   2.664   0.645   0.166
 6203TIP3    H218616   2.586   0.774   0.184
 6204TIP3   OH218617   1.772   5.294   2.934
 6204TIP3    H118618   1.786   5.375   2.983
 6204TIP3    H218619   1.678   5.292   2.918
 6205TIP3   OH218620   0.247   4.907   2.308
 6205TIP3    H118621   0.329   4.940   2.271
 6205TIP3    H218622   0.272   4.876   2.395
 6206TIP3   OH218623   1.072   0.067   2.356
 6206TIP3    H118624   0.981   0.046   2.336
 6206TIP3    H218625   1.099  -0.002   2.417
 6207TIP3   OH218626   3.111   4.276   1.011
 6207TIP3    H118627   3.074   4.273   0.922
 6207TIP3    H218628   3.053   4.220   1.063
 6208TIP3   OH218629   0.992   5.467   2.182
 6208TIP3    H118630   0.976   5.385   2.136
 6208TIP3    H218631   1.070   5.503   2.139
 6209TIP3   OH218632   3.248   3.681   2.010
 6209TIP3    H118633   3.341   3.663   1.999
 6209TIP3    H218634   3.204   3.605   1.973
 6210TIP3   OH218635   5.739   0.643   2.051
 6210TIP3    H118636   5.725   0.735   2.029
 6210TIP3    H218637   5.830   0.625   2.027
 6211TIP3   OH218638   3.571   2.322   0.357
 6211TIP3    H118639   3.515   2.246   0.341
 6211TIP3    H218640   3.624   2.297   0.433
 6212TIP3   OH218641   5.563   5.283   0.157
 6212TIP3    H118642   5.518   5.306   0.076
 6212TIP3    H218643   5.510   5.324   0.226
 6213TIP3   OH218644   0.523   2.836   4.201
 6213TIP3    H118645   0.511   2.748   4.235
 6213TIP3    H218646   0.609   2.834   4.160
 6214TIP3   OH218647   3.584   0.522   4.065
 6214TIP3    H118648   3.561   0.609   4.097
 6214TIP3    H218649   3.546   0.462   4.130
 6215TIP3   OH218650   4.252   5.776   3.154
 6215TIP3    H118651   4.209   5.717   3.215
 6215TIP3    H218652   4.336   5.797   3.195
 6216TIP3   OH218653   1.656   0.152   3.064
 6216TIP3    H118654   1.682   0.089   3.131
 6216TIP3    H218655   1.739   0.180   3.024
 6217TIP3   OH218656   0.769   1.828   0.427
 6217TIP3    H118657   0.744   1.822   0.519
 6217TIP3    H218658   0.862   1.804   0.426
 6218TIP3   OH218659   4.076   4.830   4.658
 6218TIP3    H118660   4.071   4.875   4.742
 6218TIP3    H218661   4.039   4.743   4.674
 6219TIP3   OH218662   0.365   0.435   0.161
 6219TIP3    H118663   0.288   0.398   0.118
 6219TIP3    H218664   0.436   0.374   0.142
 6220TIP3   OH218665   0.686   5.253   2.617
 6220TIP3    H118666   0.760   5.252   2.677
 6220TIP3    H218667   0.650   5.341   2.626
 6221TIP3   OH218668   1.294   2.593   2.396
 6221TIP3    H118669   1.218   2.563   2.348
 6221TIP3    H218670   1.297   2.537   2.474
 6222TIP3   OH218671   1.542   1.131   4.997
 6222TIP3    H118672   1.533   1.094   4.909
 6222TIP3    H218673   1.618   1.086   5.034
 6223TIP3   OH218674   5.111   5.631   3.430
 6223TIP3    H118675   5.113   5.543   3.394
 6223TIP3    H218676   5.098   5.689   3.355
 6224TIP3   OH218677   5.560   0.635   0.556
 6224TIP3    H118678   5.574   0.639   0.650
 6224TIP3    H218679   5.566   0.542   0.535
 6225TIP3   OH218680   4.147   0.839   4.288
 6225TIP3    H118681   4.088   0.915   4.292
 6225TIP3    H218682   4.127   0.790   4.368
 6226TIP3   OH218683   4.602   3.291   2.247
 6226TIP3    H118684   4.581   3.356   2.180
 6226TIP3    H218685   4.627   3.213   2.198
 6227TIP3   OH218686   3.288   2.899   4.831
 6227TIP3    H118687   3.249   2.872   4.914
 6227TIP3    H218688   3.238   2.850   4.765
 6228TIP3   OH218689   0.993   0.790   2.267
 6228TIP3    H118690   1.068   0.847   2.286
 6228TIP3    H218691   0.964   0.816   2.180
 6229TIP3   OH218692   5.577   1.563   2.762
 6229TIP3    H118693   5.526   1.507   2.819
 6229TIP3    H218694   5.570   1.650   2.801
 6230TIP3   OH218695   0.567   3.641   1.243
 6230TIP3    H118696   0.535   3.627   1.154
 6230TIP3    H218697   0.557   3.735   1.257
 6231TIP3   OH218698   0.186   1.746   1.592
 6231TIP3    H118699   0.236   1.826   1.575
 6231TIP3    H218700   0.225   1.710   1.672
 6232TIP3   OH218701   5.218   0.498   0.199
 6232TIP3    H118702   5.195   0.573   0.143
 6232TIP3    H218703   5.277   0.535   0.265
 6233TIP3   OH218704   1.356   4.959   2.820
 6233TIP3    H118705   1.400   4.979   2.738
 6233TIP3    H218706   1.425   4.963   2.887
 6234TIP3   OH218707   2.958   3.845   3.625
 6234TIP3    H118708   2.871   3.809   3.609
 6234TIP3    H218709   3.018   3.784   3.580
 6235TIP3   OH218710   2.023   3.463   3.196
 6235TIP3    H118711   1.938   3.500   3.170
 6235TIP3    H218712   2.051   3.516   3.270
 6236TIP3   OH218713   4.835   1.308   0.738
 6236TIP3    H118714   4.801   1.392   0.705
 6236TIP3    H218715   4.865   1.263   0.659
 6237TIP3   OH218716   1.622   3.027   3.857
 6237TIP3    H118717   1.650   3.113   3.826
 6237TIP3    H218718   1.555   2.999   3.794
 6238TIP3   OH218719   5.986   3.224   0.869
 6238TIP3    H118720   5.986   3.303   0.816
 6238TIP3    H218721   5.995   3.255   0.959
 6239TIP3   OH218722   1.599   3.038   1.402
 6239TIP3    H118723   1.678   3.070   1.358
 6239TIP3    H218724   1.625   2.955   1.440
 6240TIP3   OH218725   3.882   3.887   0.910
 6240TIP3    H118726   3.819   3.902   0.979
 6240TIP3    H218727   3.953   3.838   0.952
 6241TIP3   OH218728   2.046   3.669   0.102
 6241TIP3    H118729   2.029   3.728   0.029
 6241TIP3    H218730   2.140   3.653   0.099
 6242TIP3   OH218731   1.344   4.281   2.820
 6242TIP3    H118732   1.311   4.359   2.864
 6242TIP3    H218733   1.270   4.251   2.766
 6243TIP3   OH218734   4.751   2.856   1.133
 6243TIP3    H118735   4.812   2.925   1.156
 6243TIP3    H218736   4.806   2.779   1.118
 6244TIP3   OH218737   4.486   0.816   2.499
 6244TIP3    H118738   4.448   0.729   2.481
 6244TIP3    H218739   4.470   0.866   2.419
 6245TIP3   OH218740   4.205   5.475   3.593
 6245TIP3    H118741   4.122   5.517   3.613
 6245TIP3    H218742   4.269   5.546   3.589
 6246TIP3   OH218743   4.020   0.254   1.793
 6246TIP3    H118744   3.991   0.278   1.705
 6246TIP3    H218745   3.940   0.255   1.845
 6247TIP3   OH218746   0.866   2.750   1.794
 6247TIP3    H118747   0.807   2.824   1.782
 6247TIP3    H218748   0.894   2.727   1.705
 6248TIP3   OH218749   4.955   2.846   2.074
 6248TIP3    H118750   4.862   2.859   2.058
 6248TIP3    H218751   4.990   2.933   2.090
 6249TIP3   OH218752   0.048   5.194   3.368
 6249TIP3    H118753   0.066   5.179   3.276
 6249TIP3    H218754   0.107   5.135   3.415
 6250TIP3   OH218755   1.642   0.715   0.766
 6250TIP3    H118756   1.617   0.760   0.685
 6250TIP3    H218757   1.570   0.732   0.826
 6251TIP3   OH218758   2.839   4.579   3.847
 6251TIP3    H118759   2.794   4.559   3.765
 6251TIP3    H218760   2.906   4.643   3.823
 6252TIP3   OH218761   1.792   5.547   4.159
 6252TIP3    H118762   1.809   5.641   4.170
 6252TIP3    H218763   1.697   5.539   4.168
 6253TIP3   OH218764   2.501   4.926   4.583
 6253TIP3    H118765   2.583   4.933   4.533
 6253TIP3    H218766   2.525   4.874   4.660
 6254TIP3   OH218767   2.932   4.006   3.362
 6254TIP3    H118768   2.928   4.094   3.325
 6254TIP3    H218769   2.841   3.980   3.371
 6255TIP3   OH218770   5.728   0.219   3.086
 6255TIP3    H118771   5.689   0.274   3.017
 6255TIP3    H218772   5.789   0.278   3.131
 6256TIP3   OH218773   0.988   2.053   2.670
 6256TIP3    H118774   0.929   2.026   2.599
 6256TIP3    H218775   0.968   1.994   2.742
 6257TIP3   OH218776   4.598   0.126   2.428
 6257TIP3    H118777   4.543   0.202   2.412
 6257TIP3    H218778   4.605   0.121   2.524
 6258TIP3   OH218779   0.901   3.284   3.983
 6258TIP3    H118780   0.886   3.344   3.910
 6258TIP3    H218781   0.929   3.202   3.942
 6259TIP3   OH218782   4.008   1.749   4.519
 6259TIP3    H118783   3.984   1.738   4.611
 6259TIP3    H218784   4.089   1.801   4.522
 6260TIP3   OH218785   5.197   3.909   3.037
 6260TIP3    H118786   5.228   3.825   3.002
 6260TIP3    H218787   5.145   3.947   2.966
 6261TIP3   OH218788   2.848   5.657   2.672
 6261TIP3    H118789   2.858   5.735   2.618
 6261TIP3    H218790   2.761   5.623   2.648
 6262TIP3   OH218791   2.703   4.599   0.098
 6262TIP3    H118792   2.793   4.582   0.069
 6262TIP3    H218793   2.708   4.683   0.143
 6263TIP3   OH218794   2.053   1.901   0.637
 6263TIP3    H118795   2.001   1.837   0.685
 6263TIP3    H218796   2.106   1.944   0.704
 6264TIP3   OH218797   5.457   2.212   3.056
 6264TIP3    H118798   5.544   2.247   3.076
 6264TIP3    H218799   5.406   2.289   3.029
 6265TIP3   OH218800   0.564   3.949   2.686
 6265TIP3    H118801   0.658   3.962   2.690
 6265TIP3    H218802   0.553   3.860   2.653
 6266TIP3   OH218803   3.678   0.327   5.047
 6266TIP3    H118804   3.703   0.416   5.072
 6266TIP3    H218805   3.585   0.332   5.029
 6267TIP3   OH218806   3.972   4.552   4.449
 6267TIP3    H118807   4.029   4.487   4.408
 6267TIP3    H218808   3.900   4.500   4.487
 6268TIP3   OH218809   1.990   5.173   3.436
 6268TIP3    H118810   1.984   5.135   3.348
 6268TIP3    H218811   1.924   5.125   3.487
 6269TIP3   OH218812   3.610   1.293   3.536
 6269TIP3    H118813   3.574   1.367   3.585
 6269TIP3    H218814   3.623   1.225   3.601
 6270TIP3   OH218815   1.616   3.695   1.606
 6270TIP3    H118816   1.566   3.766   1.566
 6270TIP3    H218817   1.583   3.689   1.696
 6271TIP3   OH218818   2.439   5.448   1.276
 6271TIP3    H118819   2.402   5.459   1.363
 6271TIP3    H218820   2.364   5.456   1.217
 6272TIP3   OH218821   2.649   3.709   3.281
 6272TIP3    H118822   2.668   3.753   3.198
 6272TIP3    H218823   2.554   3.699   3.283
 6273TIP3   OH218824   4.765   1.839   3.276
 6273TIP3    H118825   4.742   1.931   3.277
 6273TIP3    H218826   4.708   1.799   3.341
 6274TIP3   OH218827   2.265   2.735   0.114
 6274TIP3    H118828   2.356   2.761   0.100
 6274TIP3    H218829   2.217   2.818   0.115
 6275TIP3   OH218830   1.282   3.357   1.782
 6275TIP3    H118831   1.196   3.386   1.810
 6275TIP3    H218832   1.280   3.364   1.686
 6276TIP3   OH218833   3.045   0.117   3.925
 6276TIP3    H118834   3.051   0.164   4.008
 6276TIP3    H218835   3.018   0.184   3.862
 6277TIP3   OH218836   4.086   1.664   0.556
 6277TIP3    H118837   4.107   1.753   0.584
 6277TIP3    H218838   4.018   1.675   0.490
 6278TIP3   OH218839   2.797   2.643   3.263
 6278TIP3    H118840   2.781   2.654   3.357
 6278TIP3    H218841   2.873   2.698   3.245
 6279TIP3   OH218842   3.624   1.157   1.969
 6279TIP3    H118843   3.539   1.170   2.012
 6279TIP3    H218844   3.680   1.120   2.037
 6280TIP3   OH218845   2.864   0.914   0.152
 6280TIP3    H118846   2.829   0.964   0.078
 6280TIP3    H218847   2.791   0.857   0.178
 6281TIP3   OH218848   2.931   5.547   4.783
 6281TIP3    H118849   3.022   5.546   4.755
 6281TIP3    H218850   2.922   5.470   4.838
 6282TIP3   OH218851   1.646   5.200   1.872
 6282TIP3    H118852   1.681   5.243   1.950
 6282TIP3    H218853   1.572   5.254   1.846
 6283TIP3   OH218854   4.509   1.608   1.479
 6283TIP3    H118855   4.511   1.593   1.384
 6283TIP3    H218856   4.454   1.686   1.489
 6284TIP3   OH218857   2.922   3.002   0.305
 6284TIP3    H118858   2.992   3.063   0.282
 6284TIP3    H218859   2.842   3.051   0.288
 6285TIP3   OH218860   5.942   0.299   2.616
 6285TIP3    H118861   5.886   0.230   2.651
 6285TIP3    H218862   6.003   0.254   2.558
 6286TIP3   OH218863   4.968   2.847   2.762
 6286TIP3    H118864   4.930   2.935   2.768
 6286TIP3    H218865   5.044   2.858   2.704
 6287TIP3   OH218866   1.311   4.957   3.363
 6287TIP3    H118867   1.330   4.870   3.399
 6287TIP3    H218868   1.361   5.017   3.419
 6288TIP3   OH218869   4.315   2.159   1.632
 6288TIP3    H118870   4.270   2.158   1.548
 6288TIP3    H218871   4.328   2.252   1.652
 6289TIP3   OH218872   1.730   0.271   3.412
 6289TIP3    H118873   1.738   0.190   3.463
 6289TIP3    H218874   1.820   0.294   3.391
 6290TIP3   OH218875   2.419   0.804   1.440
 6290TIP3    H118876   2.423   0.799   1.535
 6290TIP3    H218877   2.325   0.802   1.420
 6291TIP3   OH218878   5.134   4.886   3.061
 6291TIP3    H118879   5.203   4.915   3.121
 6291TIP3    H218880   5.151   4.793   3.047
 6292TIP3   OH218881   2.779   1.209   0.708
 6292TIP3    H118882   2.746   1.299   0.703
 6292TIP3    H218883   2.735   1.172   0.785
 6293TIP3   OH218884   2.781   2.787   4.365
 6293TIP3    H118885   2.774   2.815   4.456
 6293TIP3    H218886   2.692   2.762   4.341
 6294TIP3   OH218887   3.440   0.161   1.093
 6294TIP3    H118888   3.389   0.160   1.174
 6294TIP3    H218889   3.434   0.251   1.062
 6295TIP3   OH218890   3.833   2.101   2.716
 6295TIP3    H118891   3.770   2.148   2.661
 6295TIP3    H218892   3.906   2.163   2.726
 6296TIP3   OH218893   1.980   5.708   2.507
 6296TIP3    H118894   2.030   5.686   2.586
 6296TIP3    H218895   1.980   5.628   2.455
 6297TIP3   OH218896   4.786   1.033   4.129
 6297TIP3    H118897   4.760   0.948   4.095
 6297TIP3    H218898   4.777   1.093   4.055
 6298TIP3   OH218899   1.377   4.073   3.001
 6298TIP3    H118900   1.364   4.142   2.936
 6298TIP3    H218901   1.404   4.119   3.081
 6299TIP3   OH218902   6.013   2.885   1.741
 6299TIP3    H118903   6.014   2.801   1.695
 6299TIP3    H218904   6.026   2.862   1.833
 6300TIP3   OH218905   5.295   5.876   4.582
 6300TIP3    H118906   5.261   5.878   4.671
 6300TIP3    H218907   5.229   5.923   4.530
 6301TIP3   OH218908   1.584   5.481   3.332
 6301TIP3    H118909   1.527   5.415   3.291
 6301TIP3    H218910   1.585   5.554   3.271
 6302TIP3   OH218911   1.609   1.678   4.872
 6302TIP3    H118912   1.691   1.655   4.828
 6302TIP3    H218913   1.561   1.595   4.878
 6303TIP3   OH218914   6.058   4.469   4.798
 6303TIP3    H118915   5.995   4.429   4.736
 6303TIP3    H218916   6.046   4.563   4.787
 6304TIP3   OH218917   2.661   0.160   2.017
 6304TIP3    H118918   2.674   0.229   2.082
 6304TIP3    H218919   2.743   0.111   2.018
 6305TIP3   OH218920   1.506   2.488   0.897
 6305TIP3    H118921   1.436   2.498   0.832
 6305TIP3    H218922   1.491   2.403   0.937
 6306TIP3   OH218923   1.280   1.873   5.137
 6306TIP3    H118924   1.280   1.867   5.042
 6306TIP3    H218925   1.332   1.799   5.166
 6307TIP3   OH218926   5.100   5.375   3.346
 6307TIP3    H118927   5.014   5.342   3.371
 6307TIP3    H218928   5.115   5.340   3.258
 6308TIP3   OH218929   4.139   4.134   2.379
 6308TIP3    H118930   4.101   4.051   2.409
 6308TIP3    H218931   4.109   4.143   2.289
 6309TIP3   OH218932   1.271   2.029   1.215
 6309TIP3    H118933   1.306   2.119   1.222
 6309TIP3    H218934   1.323   1.990   1.145
 6310TIP3   OH218935   3.015   2.454   0.615
 6310TIP3    H118936   2.991   2.419   0.529
 6310TIP3    H218937   3.090   2.510   0.598
 6311TIP3   OH218938   5.971   4.999   1.742
 6311TIP3    H118939   5.981   5.087   1.708
 6311TIP3    H218940   5.976   5.010   1.837
 6312TIP3   OH218941   2.128   4.723   2.033
 6312TIP3    H118942   2.125   4.629   2.052
 6312TIP3    H218943   2.140   4.728   1.938
 6313TIP3   OH218944   2.719   1.103   1.785
 6313TIP3    H118945   2.689   1.085   1.695
 6313TIP3    H218946   2.775   1.029   1.806
 6314TIP3   OH218947   0.255   5.045   3.473
 6314TIP3    H118948   0.271   5.073   3.563
 6314TIP3    H218949   0.341   5.021   3.439
 6315TIP3   OH218950   6.253   3.314   1.941
 6315TIP3    H118951   6.297   3.293   1.859
 6315TIP3    H218952   6.250   3.231   1.989
 6316TIP3   OH218953   2.433   2.068   3.857
 6316TIP3    H118954   2.439   1.985   3.809
 6316TIP3    H218955   2.524   2.098   3.864
 6317TIP3   OH218956   6.040   2.724   3.637
 6317TIP3    H118957   6.031   2.766   3.551
 6317TIP3    H218958   5.965   2.664   3.642
 6318TIP3   OH218959   3.767   3.097   2.284
 6318TIP3    H118960   3.689   3.117   2.232
 6318TIP3    H218961   3.733   3.072   2.370
 6319TIP3   OH218962   2.947   2.699   1.721
 6319TIP3    H118963   2.993   2.620   1.748
 6319TIP3    H218964   2.854   2.674   1.721
 6320TIP3   OH218965   5.718   3.781   4.956
 6320TIP3    H118966   5.754   3.703   4.999
 6320TIP3    H218967   5.784   3.849   4.969
 6321TIP3   OH218968   3.804   5.793   3.762
 6321TIP3    H118969   3.730   5.762   3.814
 6321TIP3    H218970   3.764   5.851   3.696
 6322TIP3   OH218971   3.818   4.489   1.346
 6322TIP3    H118972   3.799   4.449   1.261
 6322TIP3    H218973   3.734   4.526   1.373
 6323TIP3   OH218974   2.010   0.686   2.062
 6323TIP3    H118975   2.044   0.605   2.024
 6323TIP3    H218976   1.921   0.694   2.028
 6324TIP3   OH218977   5.219   3.293   2.409
 6324TIP3    H118978   5.248   3.294   2.500
 6324TIP3    H218979   5.288   3.337   2.361
 6325TIP3   OH218980   0.891   3.317   0.143
 6325TIP3    H118981   0.839   3.236   0.143
 6325TIP3    H218982   0.887   3.347   0.052
 6326TIP3   OH218983   3.963   3.297   4.847
 6326TIP3    H118984   4.025   3.244   4.898
 6326TIP3    H218985   4.013   3.374   4.821
 6327TIP3   OH218986   4.258   3.099   4.157
 6327TIP3    H118987   4.327   3.122   4.219
 6327TIP3    H218988   4.207   3.180   4.147
 6328TIP3   OH218989   5.317   5.845   0.328
 6328TIP3    H118990   5.364   5.802   0.400
 6328TIP3    H218991   5.339   5.792   0.251
 6329TIP3   OH218992   4.789   2.124   1.951
 6329TIP3    H118993   4.748   2.101   2.034
 6329TIP3    H218994   4.864   2.065   1.944
 6330TIP3   OH218995   4.164   3.643   3.128
 6330TIP3    H118996   4.134   3.552   3.119
 6330TIP3    H218997   4.092   3.696   3.095
 6331TIP3   OH218998   2.473   1.283   3.787
 6331TIP3    H118999   2.461   1.196   3.748
 6331TIP3    H219000   2.564   1.283   3.817
 6332TIP3   OH219001   5.726   2.196   0.547
 6332TIP3    H119002   5.752   2.177   0.457
 6332TIP3    H219003   5.740   2.290   0.557
 6333TIP3   OH219004   4.826   1.000   2.260
 6333TIP3    H119005   4.765   1.068   2.290
 6333TIP3    H219006   4.804   0.923   2.312
 6334TIP3   OH219007   4.564   3.266   1.953
 6334TIP3    H119008   4.602   3.343   1.911
 6334TIP3    H219009   4.470   3.273   1.934
 6335TIP3   OH219010   6.026   0.799   1.778
 6335TIP3    H119011   6.062   0.883   1.751
 6335TIP3    H219012   5.956   0.781   1.716
 6336TIP3   OH219013   3.747   2.274   4.781
 6336TIP3    H119014   3.766   2.181   4.769
 6336TIP3    H219015   3.823   2.309   4.828
 6337TIP3   OH219016   2.712   2.162   3.807
 6337TIP3    H119017   2.681   2.218   3.736
 6337TIP3    H219018   2.799   2.196   3.829
 6338TIP3   OH219019   6.009   4.935   2.922
 6338TIP3    H119020   5.915   4.932   2.941
 6338TIP3    H219021   6.036   5.023   2.946
 6339TIP3   OH219022   1.676   3.672   0.880
 6339TIP3    H119023   1.759   3.637   0.913
 6339TIP3    H219024   1.664   3.754   0.926
 6340TIP3   OH219025   6.021   3.349   1.123
 6340TIP3    H119026   6.072   3.428   1.144
 6340TIP3    H219027   6.017   3.301   1.206
 6341TIP3   OH219028   4.716   4.207   3.361
 6341TIP3    H119029   4.748   4.229   3.273
 6341TIP3    H219030   4.621   4.202   3.351
 6342TIP3   OH219031   0.424   2.421   0.407
 6342TIP3    H119032   0.333   2.400   0.386
 6342TIP3    H219033   0.474   2.350   0.367
 6343TIP3   OH219034   0.176   0.288   1.273
 6343TIP3    H119035   0.207   0.374   1.303
 6343TIP3    H219036   0.221   0.225   1.330
 6344TIP3   OH219037   5.462   5.560   1.030
 6344TIP3    H119038   5.529   5.593   1.090
 6344TIP3    H219039   5.392   5.529   1.086
 6345TIP3   OH219040   0.533   4.377   1.117
 6345TIP3    H119041   0.596   4.343   1.180
 6345TIP3    H219042   0.573   4.457   1.083
 6346TIP3   OH219043   2.679   5.814   2.893
 6346TIP3    H119044   2.697   5.821   2.800
 6346TIP3    H219045   2.606   5.752   2.900
 6347TIP3   OH219046   0.469   1.365   2.223
 6347TIP3    H119047   0.560   1.340   2.205
 6347TIP3    H219048   0.450   1.323   2.307
 6348TIP3   OH219049   2.084   0.458   1.914
 6348TIP3    H119050   2.103   0.415   1.830
 6348TIP3    H219051   1.989   0.455   1.922
 6349TIP3   OH219052   5.290   5.891   3.971
 6349TIP3    H119053   5.319   5.801   3.987
 6349TIP3    H219054   5.207   5.881   3.923
 6350TIP3   OH219055   1.387   3.860   1.524
 6350TIP3    H119056   1.387   3.892   1.433
 6350TIP3    H219057   1.330   3.783   1.522
 6351TIP3   OH219058   5.268   2.890   1.558
 6351TIP3    H119059   5.292   2.800   1.538
 6351TIP3    H219060   5.202   2.882   1.627
 6352TIP3   OH219061   1.946   1.295   2.519
 6352TIP3    H119062   1.926   1.237   2.445
 6352TIP3    H219063   1.909   1.250   2.595
 6353TIP3   OH219064   6.128   2.843   3.110
 6353TIP3    H119065   6.082   2.927   3.101
 6353TIP3    H219066   6.204   2.851   3.052
 6354TIP3   OH219067   0.909   5.292   2.765
 6354TIP3    H119068   0.994   5.256   2.739
 6354TIP3    H219069   0.925   5.333   2.850
 6355TIP3   OH219070   2.798   4.926   4.792
 6355TIP3    H119071   2.845   5.006   4.769
 6355TIP3    H219072   2.830   4.904   4.879
 6356TIP3   OH219073   3.091   3.269   2.047
 6356TIP3    H119074   3.115   3.178   2.065
 6356TIP3    H219075   3.169   3.319   2.068
 6357TIP3   OH219076   0.843   1.210   0.739
 6357TIP3    H119077   0.782   1.263   0.789
 6357TIP3    H219078   0.875   1.145   0.801
 6358TIP3   OH219079   6.054   5.292   4.752
 6358TIP3    H119080   6.146   5.296   4.777
 6358TIP3    H219081   6.049   5.219   4.690
 6359TIP3   OH219082   6.241   5.524   0.565
 6359TIP3    H119083   6.309   5.457   0.566
 6359TIP3    H219084   6.268   5.584   0.495
 6360TIP3   OH219085   0.746   4.749   0.815
 6360TIP3    H119086   0.830   4.705   0.829
 6360TIP3    H219087   0.729   4.739   0.722
 6361TIP3   OH219088   4.708   3.912   1.095
 6361TIP3    H119089   4.664   3.915   1.179
 6361TIP3    H219090   4.708   4.003   1.065
 6362TIP3   OH219091   0.994   5.358   3.563
 6362TIP3    H119092   0.991   5.365   3.658
 6362TIP3    H219093   1.087   5.354   3.541
 6363TIP3   OH219094   5.090   3.555   4.342
 6363TIP3    H119095   5.145   3.629   4.317
 6363TIP3    H219096   5.022   3.593   4.398
 6364TIP3   OH219097   2.769   4.942   3.780
 6364TIP3    H119098   2.810   5.025   3.802
 6364TIP3    H219099   2.832   4.875   3.807
 6365TIP3   OH219100   3.660   5.769   4.746
 6365TIP3    H119101   3.680   5.862   4.758
 6365TIP3    H219102   3.701   5.726   4.820
 6366TIP3   OH219103   0.542   1.487   1.905
 6366TIP3    H119104   0.628   1.476   1.947
 6366TIP3    H219105   0.557   1.462   1.814
 6367TIP3   OH219106   0.200   4.778   4.807
 6367TIP3    H119107   0.112   4.780   4.845
 6367TIP3    H219108   0.186   4.801   4.715
 6368TIP3   OH219109   0.680   0.513   4.708
 6368TIP3    H119110   0.681   0.607   4.725
 6368TIP3    H219111   0.674   0.473   4.794
 6369TIP3   OH219112   2.017   3.247   2.947
 6369TIP3    H119113   2.065   3.215   3.023
 6369TIP3    H219114   1.961   3.174   2.921
 6370TIP3   OH219115   1.325   3.565   4.251
 6370TIP3    H119116   1.301   3.527   4.167
 6370TIP3    H219117   1.274   3.646   4.256
 6371TIP3   OH219118   1.694   2.712   4.313
 6371TIP3    H119119   1.693   2.672   4.226
 6371TIP3    H219120   1.758   2.783   4.306
 6372TIP3   OH219121   0.708   3.591   2.647
 6372TIP3    H119122   0.757   3.533   2.588
 6372TIP3    H219123   0.666   3.655   2.589
 6373TIP3   OH219124   0.389   5.129   0.249
 6373TIP3    H119125   0.309   5.077   0.241
 6373TIP3    H219126   0.444   5.100   0.176
 6374TIP3   OH219127   1.733   2.082   2.254
 6374TIP3    H119128   1.791   2.156   2.238
 6374TIP3    H219129   1.669   2.115   2.317
 6375TIP3   OH219130   1.658   0.421   1.507
 6375TIP3    H119131   1.566   0.442   1.489
 6375TIP3    H219132   1.698   0.412   1.421
 6376TIP3   OH219133   2.023   3.236   3.798
 6376TIP3    H119134   1.972   3.303   3.843
 6376TIP3    H219135   1.966   3.205   3.728
 6377TIP3   OH219136   1.667   3.555   2.346
 6377TIP3    H119137   1.663   3.649   2.364
 6377TIP3    H219138   1.735   3.547   2.278
 6378TIP3   OH219139   2.574   1.816   3.006
 6378TIP3    H119140   2.623   1.763   3.069
 6378TIP3    H219141   2.591   1.907   3.033
 6379TIP3   OH219142   4.095   2.991   3.812
 6379TIP3    H119143   4.045   2.910   3.826
 6379TIP3    H219144   4.186   2.967   3.832
 6380TIP3   OH219145   5.883   4.218   2.111
 6380TIP3    H119146   5.970   4.258   2.123
 6380TIP3    H219147   5.899   4.143   2.054
 6381TIP3   OH219148   1.244   4.921   0.293
 6381TIP3    H119149   1.284   4.838   0.321
 6381TIP3    H219150   1.264   4.926   0.199
 6382TIP3   OH219151   6.346   4.851   3.269
 6382TIP3    H119152   6.317   4.828   3.181
 6382TIP3    H219153   6.310   4.782   3.325
 6383TIP3   OH219154   1.074   4.955   0.933
 6383TIP3    H119155   1.052   4.929   0.843
 6383TIP3    H219156   1.005   4.915   0.987
 6384TIP3   OH219157   3.186   1.067   2.305
 6384TIP3    H119158   3.151   1.010   2.236
 6384TIP3    H219159   3.108   1.097   2.352
 6385TIP3   OH219160   0.456   0.465   4.535
 6385TIP3    H119161   0.430   0.556   4.517
 6385TIP3    H219162   0.514   0.471   4.611
 6386TIP3   OH219163   0.208   2.217   2.798
 6386TIP3    H119164   0.112   2.213   2.800
 6386TIP3    H219165   0.233   2.259   2.880
 6387TIP3   OH219166   4.371   4.924   4.068
 6387TIP3    H119167   4.285   4.883   4.055
 6387TIP3    H219168   4.433   4.860   4.033
 6388TIP3   OH219169   2.214   1.323   1.623
 6388TIP3    H119170   2.278   1.274   1.674
 6388TIP3    H219171   2.131   1.277   1.637
 6389TIP3   OH219172   0.502   2.915   4.546
 6389TIP3    H119173   0.555   2.931   4.469
 6389TIP3    H219174   0.564   2.891   4.614
 6390TIP3   OH219175   3.102   1.146   0.686
 6390TIP3    H119176   3.016   1.113   0.714
 6390TIP3    H219177   3.082   1.216   0.624
 6391TIP3   OH219178   2.676   4.982   2.847
 6391TIP3    H119179   2.697   4.922   2.776
 6391TIP3    H219180   2.762   5.010   2.880
 6392TIP3   OH219181   3.466   0.430   0.996
 6392TIP3    H119182   3.554   0.409   0.965
 6392TIP3    H219183   3.430   0.488   0.929
 6393TIP3   OH219184   6.172   4.468   3.122
 6393TIP3    H119185   6.105   4.509   3.177
 6393TIP3    H219186   6.253   4.512   3.146
 6394TIP3   OH219187   2.554   4.287   5.080
 6394TIP3    H119188   2.604   4.270   5.000
 6394TIP3    H219189   2.512   4.203   5.100
 6395TIP3   OH219190   1.412   4.313   4.635
 6395TIP3    H119191   1.347   4.260   4.589
 6395TIP3    H219192   1.360   4.378   4.683
 6396TIP3   OH219193   5.231   3.161   1.606
 6396TIP3    H119194   5.241   3.192   1.696
 6396TIP3    H219195   5.273   3.075   1.605
 6397TIP3   OH219196   5.081   4.641   0.121
 6397TIP3    H119197   5.049   4.559   0.083
 6397TIP3    H219198   5.002   4.688   0.146
 6398TIP3   OH219199   2.907   4.060   4.378
 6398TIP3    H119200   2.818   4.030   4.361
 6398TIP3    H219201   2.958   3.979   4.385
 6399TIP3   OH219202   4.357   2.591   4.278
 6399TIP3    H119203   4.331   2.515   4.225
 6399TIP3    H219204   4.430   2.630   4.231
 6400TIP3   OH219205   3.766   4.493   1.825
 6400TIP3    H119206   3.821   4.463   1.753
 6400TIP3    H219207   3.689   4.436   1.822
 6401TIP3   OH219208   1.479   0.705   3.334
 6401TIP3    H119209   1.486   0.621   3.381
 6401TIP3    H219210   1.493   0.771   3.401
 6402TIP3   OH219211   4.659   3.058   2.095
 6402TIP3    H119212   4.623   3.125   2.037
 6402TIP3    H219213   4.675   2.983   2.038
 6403TIP3   OH219214   0.191   3.739   5.218
 6403TIP3    H119215   0.209   3.773   5.131
 6403TIP3    H219216   0.240   3.657   5.223
 6404TIP3   OH219217   3.661   4.820   0.231
 6404TIP3    H119218   3.751   4.837   0.260
 6404TIP3    H219219   3.608   4.831   0.309
 6405TIP3   OH219220   3.216   4.598   1.155
 6405TIP3    H119221   3.173   4.682   1.173
 6405TIP3    H219222   3.176   4.537   1.217
 6406TIP3   OH219223   0.118   5.126   2.163
 6406TIP3    H119224   0.098   5.070   2.237
 6406TIP3    H219225   0.085   5.078   2.087
 6407TIP3   OH219226   0.363   4.574   1.413
 6407TIP3    H119227   0.329   4.495   1.372
 6407TIP3    H219228   0.369   4.638   1.342
 6408TIP3   OH219229   0.157   0.520   4.971
 6408TIP3    H119230   0.070   0.492   5.002
 6408TIP3    H219231   0.169   0.472   4.888
 6409TIP3   OH219232   0.901   5.757   3.633
 6409TIP3    H119233   0.904   5.710   3.550
 6409TIP3    H219234   0.951   5.837   3.616
 6410TIP3   OH219235   4.863   0.485   3.076
 6410TIP3    H119236   4.818   0.553   3.024
 6410TIP3    H219237   4.819   0.486   3.160
 6411TIP3   OH219238   0.023   3.960   0.163
 6411TIP3    H119239   0.069   4.011   0.229
 6411TIP3    H219240   0.091   3.932   0.102
 6412TIP3   OH219241   2.433   3.887   1.303
 6412TIP3    H119242   2.416   3.812   1.245
 6412TIP3    H219243   2.357   3.944   1.291
 6413TIP3   OH219244   0.728   2.201   2.295
 6413TIP3    H119245   0.769   2.117   2.276
 6413TIP3    H219246   0.636   2.189   2.271
 6414TIP3   OH219247   1.340   0.504   0.626
 6414TIP3    H119248   1.322   0.546   0.542
 6414TIP3    H219249   1.399   0.432   0.604
 6415TIP3   OH219250   0.375   5.904   4.923
 6415TIP3    H119251   0.303   5.841   4.922
 6415TIP3    H219252   0.375   5.943   4.835
 6416TIP3   OH219253   4.037   3.866   2.444
 6416TIP3    H119254   4.089   3.799   2.490
 6416TIP3    H219255   3.952   3.824   2.430
 6417TIP3   OH219256   3.357   3.493   3.699
 6417TIP3    H119257   3.379   3.422   3.638
 6417TIP3    H219258   3.431   3.554   3.693
 6418TIP3   OH219259   3.848   2.391   4.070
 6418TIP3    H119260   3.806   2.401   4.156
 6418TIP3    H219261   3.787   2.338   4.019
 6419TIP3   OH219262   3.674   3.910   1.080
 6419TIP3    H119263   3.644   3.973   1.014
 6419TIP3    H219264   3.609   3.915   1.150
 6420TIP3   OH219265   3.640   4.012   0.565
 6420TIP3    H119266   3.593   3.988   0.645
 6420TIP3    H219267   3.714   4.064   0.595
 6421TIP3   OH219268   3.809   3.708   2.417
 6421TIP3    H119269   3.731   3.759   2.395
 6421TIP3    H219270   3.802   3.629   2.363
 6422TIP3   OH219271   0.104   5.347   3.696
 6422TIP3    H119272   0.169   5.410   3.667
 6422TIP3    H219273   0.152   5.264   3.705
 6423TIP3   OH219274   1.901   4.830   0.226
 6423TIP3    H119275   1.837   4.762   0.207
 6423TIP3    H219276   1.944   4.802   0.306
 6424TIP3   OH219277   2.927   4.836   0.760
 6424TIP3    H119278   2.855   4.864   0.703
 6424TIP3    H219279   2.988   4.792   0.700
 6425TIP3   OH219280   5.140   5.301   3.067
 6425TIP3    H119281   5.105   5.215   3.042
 6425TIP3    H219282   5.233   5.296   3.043
 6426TIP3   OH219283   5.478   1.469   3.594
 6426TIP3    H119284   5.408   1.512   3.644
 6426TIP3    H219285   5.472   1.377   3.618
 6427TIP3   OH219286   2.636   4.784   2.410
 6427TIP3    H119287   2.622   4.690   2.401
 6427TIP3    H219288   2.727   4.798   2.383
 6428TIP3   OH219289   2.266   5.111   3.575
 6428TIP3    H119290   2.336   5.047   3.588
 6428TIP3    H219291   2.279   5.144   3.486
 6429TIP3   OH219292   1.195   0.752   4.193
 6429TIP3    H119293   1.142   0.778   4.118
 6429TIP3    H219294   1.284   0.749   4.159
 6430TIP3   OH219295   4.020   5.435   4.537
 6430TIP3    H119296   4.072   5.409   4.462
 6430TIP3    H219297   3.930   5.409   4.514
 6431TIP3   OH219298   5.248   1.899   4.879
 6431TIP3    H119299   5.244   1.951   4.799
 6431TIP3    H219300   5.332   1.854   4.874
 6432TIP3   OH219301   6.160   4.183   3.565
 6432TIP3    H119302   6.150   4.277   3.549
 6432TIP3    H219303   6.118   4.141   3.491
 6433TIP3   OH219304   3.791   1.963   1.076
 6433TIP3    H119305   3.874   1.942   1.033
 6433TIP3    H219306   3.738   2.004   1.008
 6434TIP3   OH219307   5.195   2.901   3.902
 6434TIP3    H119308   5.216   2.911   3.995
 6434TIP3    H219309   5.261   2.953   3.857
 6435TIP3   OH219310   1.081   1.352   4.521
 6435TIP3    H119311   1.141   1.424   4.499
 6435TIP3    H219312   1.027   1.342   4.443
 6436TIP3   OH219313   0.714   4.188   2.365
 6436TIP3    H119314   0.732   4.242   2.442
 6436TIP3    H219315   0.673   4.248   2.302
 6437TIP3   OH219316   0.716   5.137   0.834
 6437TIP3    H119317   0.637   5.133   0.781
 6437TIP3    H219318   0.717   5.054   0.882
 6438TIP3   OH219319   5.773   0.387   3.431
 6438TIP3    H119320   5.816   0.465   3.466
 6438TIP3    H219321   5.832   0.356   3.363
 6439TIP3   OH219322   5.979   5.299   1.363
 6439TIP3    H119323   5.954   5.232   1.300
 6439TIP3    H219324   5.908   5.363   1.359
 6440TIP3   OH219325   5.603   4.092   4.836
 6440TIP3    H119326   5.527   4.130   4.792
 6440TIP3    H219327   5.570   4.012   4.876
 6441TIP3   OH219328   2.878   3.416   3.372
 6441TIP3    H119329   2.920   3.425   3.457
 6441TIP3    H219330   2.788   3.391   3.392
 6442TIP3   OH219331  -0.009   2.086   2.231
 6442TIP3    H119332   0.083   2.059   2.224
 6442TIP3    H219333  -0.046   2.069   2.145
 6443TIP3   OH219334   2.029   3.288   4.280
 6443TIP3    H119335   1.947   3.275   4.327
 6443TIP3    H219336   2.060   3.199   4.261
 6444TIP3   OH219337   0.689   2.455   1.286
 6444TIP3    H119338   0.647   2.383   1.239
 6444TIP3    H219339   0.626   2.479   1.354
 6445TIP3   OH219340   2.475   3.600   2.051
 6445TIP3    H119341   2.459   3.653   2.129
 6445TIP3    H219342   2.439   3.514   2.073
 6446TIP3   OH219343   5.851   3.560   5.076
 6446TIP3    H119344   5.793   3.498   5.120
 6446TIP3    H219345   5.934   3.554   5.124
 6447TIP3   OH219346   5.870   3.587   1.758
 6447TIP3    H119347   5.931   3.656   1.784
 6447TIP3    H219348   5.851   3.605   1.666
 6448TIP3   OH219349   4.947   0.042   4.723
 6448TIP3    H119350   4.873   0.016   4.778
 6448TIP3    H219351   5.002   0.095   4.781
 6449TIP3   OH219352   3.534   3.666   2.710
 6449TIP3    H119353   3.535   3.673   2.614
 6449TIP3    H219354   3.448   3.630   2.731
 6450TIP3   OH219355   5.576   3.800   2.721
 6450TIP3    H119356   5.523   3.778   2.798
 6450TIP3    H219357   5.646   3.857   2.755
 6451TIP3   OH219358   1.099   1.430   2.195
 6451TIP3    H119359   1.183   1.476   2.189
 6451TIP3    H219360   1.082   1.400   2.106
 6452TIP3   OH219361   1.479   1.682   3.324
 6452TIP3    H119362   1.442   1.621   3.388
 6452TIP3    H219363   1.490   1.764   3.373
 6453TIP3   OH219364   3.523   0.387   0.024
 6453TIP3    H119365   3.486   0.461   0.071
 6453TIP3    H219366   3.569   0.336   0.091
 6454TIP3   OH219367   5.962   1.922   4.138
 6454TIP3    H119368   5.904   1.907   4.212
 6454TIP3    H219369   5.942   1.851   4.077
 6455TIP3   OH219370   0.270   0.334   0.727
 6455TIP3    H119371   0.292   0.277   0.800
 6455TIP3    H219372   0.336   0.404   0.730
 6456TIP3   OH219373   2.045   1.449   1.847
 6456TIP3    H119374   2.126   1.398   1.851
 6456TIP3    H219375   1.975   1.385   1.861
 6457TIP3   OH219376   2.973   1.623   2.179
 6457TIP3    H119377   2.951   1.710   2.146
 6457TIP3    H219378   2.964   1.566   2.103
 6458TIP3   OH219379   1.885   3.133   0.872
 6458TIP3    H119380   1.853   3.064   0.929
 6458TIP3    H219381   1.820   3.203   0.881
 6459TIP3   OH219382   2.239   0.546   2.855
 6459TIP3    H119383   2.155   0.570   2.893
 6459TIP3    H219384   2.245   0.451   2.868
 6460TIP3   OH219385   5.213   4.351   4.608
 6460TIP3    H119386   5.269   4.319   4.678
 6460TIP3    H219387   5.125   4.320   4.629
 6461TIP3   OH219388   5.776   0.224   0.957
 6461TIP3    H119389   5.686   0.242   0.985
 6461TIP3    H219390   5.829   0.289   1.002
 6462TIP3   OH219391   3.693   5.392   0.833
 6462TIP3    H119392   3.604   5.420   0.810
 6462TIP3    H219393   3.735   5.471   0.868
 6463TIP3   OH219394   3.459   0.603   3.287
 6463TIP3    H119395   3.533   0.656   3.258
 6463TIP3    H219396   3.424   0.563   3.208
 6464TIP3   OH219397   5.942   3.723   3.456
 6464TIP3    H119398   5.911   3.664   3.524
 6464TIP3    H219399   6.011   3.774   3.497
 6465TIP3   OH219400   4.688   1.230   4.785
 6465TIP3    H119401   4.720   1.306   4.738
 6465TIP3    H219402   4.752   1.161   4.765
 6466TIP3   OH219403   3.207   2.999   0.027
 6466TIP3    H119404   3.190   3.024   0.117
 6466TIP3    H219405   3.122   3.008  -0.017
 6467TIP3   OH219406   0.831   4.365   1.622
 6467TIP3    H119407   0.750   4.315   1.610
 6467TIP3    H219408   0.806   4.437   1.679
 6468TIP3   OH219409   1.872   2.237   4.699
 6468TIP3    H119410   1.891   2.331   4.706
 6468TIP3    H219411   1.797   2.224   4.757
 6469TIP3   OH219412   0.679   2.919   1.129
 6469TIP3    H119413   0.688   2.909   1.224
 6469TIP3    H219414   0.751   2.978   1.105
 6470TIP3   OH219415   0.286   0.162   2.127
 6470TIP3    H119416   0.315   0.162   2.036
 6470TIP3    H219417   0.324   0.241   2.164
 6471TIP3   OH219418   1.770   1.025   3.280
 6471TIP3    H119419   1.739   1.065   3.198
 6471TIP3    H219420   1.690   1.010   3.331
 6472TIP3   OH219421   1.182   5.330   0.072
 6472TIP3    H119422   1.276   5.344   0.056
 6472TIP3    H219423   1.157   5.399   0.133
 6473TIP3   OH219424   1.072   1.941   1.720
 6473TIP3    H119425   1.085   1.923   1.626
 6473TIP3    H219426   1.140   1.889   1.763
 6474TIP3   OH219427   1.983   1.704   3.663
 6474TIP3    H119428   1.976   1.792   3.626
 6474TIP3    H219429   1.894   1.670   3.663
 6475TIP3   OH219430   5.610   5.179   4.230
 6475TIP3    H119431   5.520   5.207   4.242
 6475TIP3    H219432   5.663   5.248   4.268
 6476TIP3   OH219433   4.162   5.577   2.554
 6476TIP3    H119434   4.231   5.536   2.607
 6476TIP3    H219435   4.189   5.562   2.464
 6477TIP3   OH219436   0.527   3.532   1.985
 6477TIP3    H119437   0.505   3.617   1.947
 6477TIP3    H219438   0.543   3.475   1.910
 6478TIP3   OH219439   2.484   2.846   3.456
 6478TIP3    H119440   2.451   2.842   3.546
 6478TIP3    H219441   2.579   2.846   3.465
 6479TIP3   OH219442   2.980   2.893   2.299
 6479TIP3    H119443   3.027   2.824   2.347
 6479TIP3    H219444   2.892   2.857   2.289
 6480TIP3   OH219445   3.762   4.712   4.202
 6480TIP3    H119446   3.800   4.722   4.289
 6480TIP3    H219447   3.781   4.795   4.158
 6481TIP3   OH219448   0.844   4.362   3.408
 6481TIP3    H119449   0.866   4.403   3.324
 6481TIP3    H219450   0.775   4.300   3.387
 6482TIP3   OH219451   4.573   2.793   0.514
 6482TIP3    H119452   4.639   2.851   0.553
 6482TIP3    H219453   4.491   2.816   0.559
 6483TIP3   OH219454   4.556   0.851   2.790
 6483TIP3    H119455   4.623   0.918   2.802
 6483TIP3    H219456   4.545   0.844   2.695
 6484TIP3   OH219457   2.820   0.665   2.023
 6484TIP3    H119458   2.815   0.760   2.024
 6484TIP3    H219459   2.742   0.637   1.975
 6485TIP3   OH219460   5.266   2.504   2.713
 6485TIP3    H119461   5.175   2.480   2.698
 6485TIP3    H219462   5.262   2.591   2.754
 6486TIP3   OH219463   4.099   4.052   3.532
 6486TIP3    H119464   4.083   4.030   3.624
 6486TIP3    H219465   4.024   4.107   3.507
 6487TIP3   OH219466   5.773   0.992   3.589
 6487TIP3    H119467   5.794   0.924   3.525
 6487TIP3    H219468   5.714   1.051   3.544
 6488TIP3   OH219469   2.162   0.088   0.021
 6488TIP3    H119470   2.226   0.024   0.051
 6488TIP3    H219471   2.180   0.166   0.073
 6489TIP3   OH219472   1.852   5.352   3.289
 6489TIP3    H119473   1.802   5.424   3.328
 6489TIP3    H219474   1.906   5.319   3.361
 6490TIP3   OH219475   6.032   5.209   2.943
 6490TIP3    H119476   6.003   5.256   2.865
 6490TIP3    H219477   5.979   5.244   3.014
 6491TIP3   OH219478   2.399   4.197   4.633
 6491TIP3    H119479   2.488   4.232   4.641
 6491TIP3    H219480   2.353   4.261   4.579
 6492TIP3   OH219481   0.579   3.762   2.460
 6492TIP3    H119482   0.488   3.771   2.434
 6492TIP3    H219483   0.628   3.812   2.394
 6493TIP3   OH219484   1.301   3.625   4.992
 6493TIP3    H119485   1.375   3.638   5.051
 6493TIP3    H219486   1.332   3.656   4.907
 6494TIP3   OH219487   4.278   1.414   3.555
 6494TIP3    H119488   4.297   1.344   3.618
 6494TIP3    H219489   4.328   1.391   3.477
 6495TIP3   OH219490   1.130   1.552   4.736
 6495TIP3    H119491   1.186   1.516   4.805
 6495TIP3    H219492   1.128   1.483   4.670
 6496TIP3   OH219493   2.724   3.821   4.936
 6496TIP3    H119494   2.643   3.786   4.974
 6496TIP3    H219495   2.776   3.847   5.012
 6497TIP3   OH219496   5.360   4.711   4.069
 6497TIP3    H119497   5.380   4.629   4.024
 6497TIP3    H219498   5.271   4.733   4.042
 6498TIP3   OH219499   0.765   1.192   1.372
 6498TIP3    H119500   0.846   1.140   1.367
 6498TIP3    H219501   0.696   1.131   1.347
 6499TIP3   OH219502   1.731   1.796   0.156
 6499TIP3    H119503   1.737   1.873   0.214
 6499TIP3    H219504   1.760   1.723   0.211
 6500TIP3   OH219505   5.389   1.571   0.527
 6500TIP3    H119506   5.442   1.575   0.448
 6500TIP3    H219507   5.320   1.636   0.514
 6501TIP3   OH219508   1.269   4.838   1.824
 6501TIP3    H119509   1.252   4.808   1.735
 6501TIP3    H219510   1.183   4.846   1.864
 6502TIP3   OH219511   5.365   5.671   4.397
 6502TIP3    H119512   5.363   5.729   4.474
 6502TIP3    H219513   5.295   5.704   4.341
 6503TIP3   OH219514   0.178   1.069   2.517
 6503TIP3    H119515   0.118   0.997   2.501
 6503TIP3    H219516   0.202   1.060   2.609
 6504TIP3   OH219517   2.210   2.888   1.936
 6504TIP3    H119518   2.227   2.947   1.863
 6504TIP3    H219519   2.288   2.895   1.992
 6505TIP3   OH219520   4.324   0.261   3.327
 6505TIP3    H119521   4.250   0.242   3.385
 6505TIP3    H219522   4.396   0.210   3.362
 6506TIP3   OH219523   1.337   1.084   2.718
 6506TIP3    H119524   1.315   1.159   2.774
 6506TIP3    H219525   1.392   1.122   2.649
 6507TIP3   OH219526   2.196   0.873   3.033
 6507TIP3    H119527   2.288   0.850   3.041
 6507TIP3    H219528   2.149   0.792   3.051
 6508TIP3   OH219529   0.869   3.647   2.349
 6508TIP3    H119530   0.786   3.645   2.301
 6508TIP3    H219531   0.873   3.563   2.394
 6509TIP3   OH219532   0.769   3.308   2.168
 6509TIP3    H119533   0.766   3.395   2.209
 6509TIP3    H219534   0.834   3.318   2.098
 6510TIP3   OH219535   0.866   2.282   3.329
 6510TIP3    H119536   0.866   2.223   3.253
 6510TIP3    H219537   0.815   2.357   3.300
 6511TIP3   OH219538   5.752   3.293   3.320
 6511TIP3    H119539   5.802   3.337   3.252
 6511TIP3    H219540   5.808   3.296   3.397
 6512TIP3   OH219541   3.391   0.929   1.707
 6512TIP3    H119542   3.484   0.931   1.729
 6512TIP3    H219543   3.369   0.836   1.705
 6513TIP3   OH219544   2.926   3.655   3.143
 6513TIP3    H119545   2.896   3.736   3.101
 6513TIP3    H219546   2.877   3.651   3.225
 6514TIP3   OH219547   4.709   3.471   3.644
 6514TIP3    H119548   4.694   3.397   3.702
 6514TIP3    H219549   4.622   3.499   3.617
 6515TIP3   OH219550   1.067   5.240   0.842
 6515TIP3    H119551   1.158   5.215   0.857
 6515TIP3    H219552   1.046   5.205   0.756
 6516TIP3   OH219553   3.117   1.717   3.424
 6516TIP3    H119554   3.208   1.707   3.395
 6516TIP3    H219555   3.081   1.785   3.367
 6517TIP3   OH219556   5.931   0.092   2.110
 6517TIP3    H119557   5.915  -0.002   2.114
 6517TIP3    H219558   5.858   0.131   2.159
 6518TIP3   OH219559   4.625   0.268   4.258
 6518TIP3    H119560   4.652   0.177   4.243
 6518TIP3    H219561   4.618   0.276   4.353
 6519TIP3   OH219562   1.718   4.791   4.266
 6519TIP3    H119563   1.657   4.785   4.193
 6519TIP3    H219564   1.800   4.823   4.226
 6520TIP3   OH219565   6.041   3.500   2.886
 6520TIP3    H119566   5.999   3.433   2.832
 6520TIP3    H219567   6.133   3.498   2.859
 6521TIP3   OH219568   4.692   3.721   4.282
 6521TIP3    H119569   4.596   3.716   4.284
 6521TIP3    H219570   4.715   3.704   4.191
 6522TIP3   OH219571   1.885   4.166   3.634
 6522TIP3    H119572   1.790   4.180   3.627
 6522TIP3    H219573   1.893   4.074   3.662
 6523TIP3   OH219574   6.290   1.690   0.956
 6523TIP3    H119575   6.291   1.785   0.970
 6523TIP3    H219576   6.204   1.662   0.987
 6524TIP3   OH219577   0.064   1.410   4.879
 6524TIP3    H119578  -0.030   1.398   4.870
 6524TIP3    H219579   0.073   1.481   4.943
 6525TIP3   OH219580   5.852   6.023   3.969
 6525TIP3    H119581   5.913   5.980   3.909
 6525TIP3    H219582   5.766   5.991   3.942
 6526TIP3   OH219583   3.724   1.560   2.339
 6526TIP3    H119584   3.786   1.626   2.370
 6526TIP3    H219585   3.639   1.605   2.336
 6527TIP3   OH219586   4.108   2.504   5.182
 6527TIP3    H119587   4.070   2.576   5.133
 6527TIP3    H219588   4.067   2.425   5.146
 6528TIP3   OH219589   0.968   1.287   1.120
 6528TIP3    H119590   0.991   1.302   1.212
 6528TIP3    H219591   0.881   1.247   1.124
 6529TIP3   OH219592   5.202   0.864   0.987
 6529TIP3    H119593   5.166   0.950   0.961
 6529TIP3    H219594   5.135   0.827   1.044
 6530TIP3   OH219595   4.761   0.176   1.008
 6530TIP3    H119596   4.833   0.207   1.064
 6530TIP3    H219597   4.721   0.105   1.059
 6531TIP3   OH219598   5.556   1.806   4.924
 6531TIP3    H119599   5.584   1.891   4.892
 6531TIP3    H219600   5.519   1.762   4.847
 6532TIP3   OH219601   3.724   0.725   0.135
 6532TIP3    H119602   3.647   0.722   0.077
 6532TIP3    H219603   3.711   0.650   0.194
 6533TIP3   OH219604   5.759   0.897   1.948
 6533TIP3    H119605   5.841   0.928   1.909
 6533TIP3    H219606   5.718   0.976   1.984
 6534TIP3   OH219607   1.815   3.025   3.215
 6534TIP3    H119608   1.879   3.094   3.235
 6534TIP3    H219609   1.839   2.952   3.273
 6535TIP3   OH219610   0.158   4.840   3.926
 6535TIP3    H119611   0.077   4.791   3.913
 6535TIP3    H219612   0.169   4.889   3.844
 6536TIP3   OH219613   4.360   2.455   0.080
 6536TIP3    H119614   4.271   2.487   0.069
 6536TIP3    H219615   4.382   2.415  -0.005
 6537TIP3   OH219616   5.870   1.131   1.563
 6537TIP3    H119617   5.904   1.221   1.566
 6537TIP3    H219618   5.783   1.139   1.524
 6538TIP3   OH219619   5.547   4.095   0.950
 6538TIP3    H119620   5.637   4.066   0.941
 6538TIP3    H219621   5.497   4.035   0.894
 6539TIP3   OH219622   3.972   1.297   1.484
 6539TIP3    H119623   4.057   1.338   1.469
 6539TIP3    H219624   3.963   1.233   1.413
 6540TIP3   OH219625   5.962   0.119   0.780
 6540TIP3    H119626   6.037   0.115   0.839
 6540TIP3    H219627   5.903   0.182   0.821
 6541TIP3   OH219628   0.039   5.147   4.080
 6541TIP3    H119629   0.099   5.196   4.023
 6541TIP3    H219630   0.085   5.065   4.099
 6542TIP3   OH219631   3.350   0.710   1.210
 6542TIP3    H119632   3.282   0.657   1.167
 6542TIP3    H219633   3.384   0.765   1.140
 6543TIP3   OH219634   0.874   5.694   3.014
 6543TIP3    H119635   0.849   5.780   3.048
 6543TIP3    H219636   0.811   5.633   3.052
 6544TIP3   OH219637   5.451   1.436   2.980
 6544TIP3    H119638   5.378   1.380   3.006
 6544TIP3    H219639   5.515   1.427   3.050
 6545TIP3   OH219640   4.052   4.962   2.347
 6545TIP3    H119641   4.020   4.877   2.317
 6545TIP3    H219642   4.019   5.024   2.282
 6546TIP3   OH219643   5.509   3.698   2.110
 6546TIP3    H119644   5.421   3.730   2.091
 6546TIP3    H219645   5.496   3.611   2.146
 6547TIP3   OH219646   5.907   4.404   0.399
 6547TIP3    H119647   5.990   4.412   0.446
 6547TIP3    H219648   5.856   4.342   0.451
 6548TIP3   OH219649   2.275   1.645   0.653
 6548TIP3    H119650   2.268   1.608   0.741
 6548TIP3    H219651   2.359   1.691   0.654
 6549TIP3   OH219652   4.366   1.918   3.467
 6549TIP3    H119653   4.327   1.903   3.553
 6549TIP3    H219654   4.375   2.013   3.461
 6550TIP3   OH219655   3.918   0.398   2.257
 6550TIP3    H119656   3.865   0.477   2.252
 6550TIP3    H219657   3.854   0.327   2.260
 6551TIP3   OH219658   3.527   0.181   0.423
 6551TIP3    H119659   3.591   0.129   0.472
 6551TIP3    H219660   3.565   0.189   0.335
 6552TIP3   OH219661   2.456   3.693   3.948
 6552TIP3    H119662   2.411   3.754   4.006
 6552TIP3    H219663   2.386   3.646   3.902
 6553TIP3   OH219664   0.606   2.749   0.772
 6553TIP3    H119665   0.660   2.680   0.733
 6553TIP3    H219666   0.574   2.799   0.697
 6554TIP3   OH219667   3.189   0.714   3.070
 6554TIP3    H119668   3.170   0.806   3.052
 6554TIP3    H219669   3.112   0.683   3.118
 6555TIP3   OH219670   5.480   4.567   1.121
 6555TIP3    H119671   5.557   4.577   1.065
 6555TIP3    H219672   5.420   4.512   1.069
 6556TIP3   OH219673   1.902   2.864   2.430
 6556TIP3    H119674   1.951   2.884   2.510
 6556TIP3    H219675   1.966   2.823   2.372
 6557TIP3   OH219676   5.588   1.817   2.922
 6557TIP3    H119677   5.493   1.828   2.925
 6557TIP3    H219678   5.622   1.883   2.983
 6558TIP3   OH219679   1.964   4.402   2.326
 6558TIP3    H119680   1.992   4.310   2.323
 6558TIP3    H219681   1.874   4.400   2.292
 6559TIP3   OH219682   5.114   1.675   0.699
 6559TIP3    H119683   5.185   1.732   0.670
 6559TIP3    H219684   5.159   1.597   0.733
 6560TIP3   OH219685   4.783   2.234   4.380
 6560TIP3    H119686   4.784   2.143   4.408
 6560TIP3    H219687   4.750   2.282   4.455
 6561TIP3   OH219688   2.415   0.446   3.823
 6561TIP3    H119689   2.351   0.397   3.874
 6561TIP3    H219690   2.448   0.383   3.758
 6562TIP3   OH219691   0.158   1.445   0.355
 6562TIP3    H119692   0.182   1.366   0.403
 6562TIP3    H219693   0.232   1.461   0.297
 6563TIP3   OH219694   0.405   3.266   4.088
 6563TIP3    H119695   0.330   3.324   4.097
 6563TIP3    H219696   0.450   3.272   4.173
 6564TIP3   OH219697   4.618   4.748   2.492
 6564TIP3    H119698   4.551   4.812   2.516
 6564TIP3    H219699   4.638   4.702   2.574
 6565TIP3   OH219700   4.379   4.336   3.050
 6565TIP3    H119701   4.431   4.346   3.129
 6565TIP3    H219702   4.298   4.294   3.079
 6566TIP3   OH219703   6.272   1.458   1.694
 6566TIP3    H119704   6.212   1.531   1.679
 6566TIP3    H219705   6.344   1.473   1.632
 6567TIP3   OH219706   5.257   3.388   0.280
 6567TIP3    H119707   5.292   3.300   0.293
 6567TIP3    H219708   5.184   3.376   0.219
 6568TIP3   OH219709   0.137   3.867   2.109
 6568TIP3    H119710   0.061   3.926   2.105
 6568TIP3    H219711   0.212   3.925   2.117
 6569TIP3   OH219712   1.813   0.024   0.838
 6569TIP3    H119713   1.875   0.090   0.809
 6569TIP3    H219714   1.849  -0.059   0.805
 6570TIP3   OH219715   3.083   4.077   3.933
 6570TIP3    H119716   3.045   4.123   3.858
 6570TIP3    H219717   3.153   4.024   3.895
 6571TIP3   OH219718   4.306   2.527   0.676
 6571TIP3    H119719   4.340   2.585   0.744
 6571TIP3    H219720   4.361   2.545   0.600
 6572TIP3   OH219721   2.754   3.682   3.522
 6572TIP3    H119722   2.733   3.700   3.431
 6572TIP3    H219723   2.704   3.603   3.543
 6573TIP3   OH219724   1.066   3.405   0.327
 6573TIP3    H119725   1.113   3.327   0.357
 6573TIP3    H219726   1.009   3.373   0.257
 6574TIP3   OH219727   4.211   0.096   1.913
 6574TIP3    H119728   4.152   0.150   1.859
 6574TIP3    H219729   4.275   0.061   1.850
 6575TIP3   OH219730   5.957   5.833   1.475
 6575TIP3    H119731   5.929   5.753   1.518
 6575TIP3    H219732   6.029   5.865   1.529
 6576TIP3   OH219733   5.890   1.355   4.440
 6576TIP3    H119734   5.929   1.439   4.418
 6576TIP3    H219735   5.849   1.325   4.359
 6577TIP3   OH219736   5.320   5.269   2.221
 6577TIP3    H119737   5.317   5.291   2.128
 6577TIP3    H219738   5.386   5.199   2.227
 6578TIP3   OH219739   5.098   2.636   4.715
 6578TIP3    H119740   5.173   2.690   4.693
 6578TIP3    H219741   5.028   2.667   4.658
 6579TIP3   OH219742   0.952   2.150   0.343
 6579TIP3    H119743   0.898   2.071   0.347
 6579TIP3    H219744   1.004   2.141   0.263
 6580TIP3   OH219745   1.682   4.553   2.214
 6580TIP3    H119746   1.726   4.636   2.197
 6580TIP3    H219747   1.609   4.575   2.271
 6581TIP3   OH219748   3.994   4.946   5.157
 6581TIP3    H119749   4.039   5.006   5.217
 6581TIP3    H219750   3.929   4.902   5.212
 6582TIP3   OH219751   5.236   2.129   2.484
 6582TIP3    H119752   5.225   2.082   2.567
 6582TIP3    H219753   5.295   2.201   2.505
 6583TIP3   OH219754   4.627   4.639   3.297
 6583TIP3    H119755   4.690   4.616   3.229
 6583TIP3    H219756   4.661   4.720   3.335
 6584TIP3   OH219757   4.033   5.242   2.456
 6584TIP3    H119758   4.096   5.245   2.384
 6584TIP3    H219759   4.022   5.149   2.474
 6585TIP3   OH219760   6.054   5.329   0.587
 6585TIP3    H119761   6.113   5.404   0.593
 6585TIP3    H219762   6.107   5.254   0.613
 6586TIP3   OH219763   3.220   0.867   2.765
 6586TIP3    H119764   3.242   0.949   2.719
 6586TIP3    H219765   3.266   0.874   2.848
 6587TIP3   OH219766   1.576   4.580   3.437
 6587TIP3    H119767   1.489   4.577   3.477
 6587TIP3    H219768   1.603   4.671   3.444
 6588TIP3   OH219769   4.904   1.417   3.273
 6588TIP3    H119770   4.861   1.344   3.227
 6588TIP3    H219771   4.877   1.495   3.225
 6589TIP3   OH219772   0.209   5.806   3.768
 6589TIP3    H119773   0.149   5.746   3.724
 6589TIP3    H219774   0.168   5.892   3.759
 6590TIP3   OH219775   0.160   4.605   4.219
 6590TIP3    H119776   0.110   4.585   4.140
 6590TIP3    H219777   0.249   4.620   4.187
 6591TIP3   OH219778   0.409   3.978   1.563
 6591TIP3    H119779   0.446   3.968   1.476
 6591TIP3    H219780   0.332   3.921   1.564
 6592TIP3   OH219781   3.515   4.512   4.380
 6592TIP3    H119782   3.565   4.514   4.299
 6592TIP3    H219783   3.502   4.604   4.403
 6593TIP3   OH219784   6.193   1.794   1.818
 6593TIP3    H119785   6.273   1.846   1.824
 6593TIP3    H219786   6.184   1.774   1.725
 6594TIP3   OH219787   0.883   5.219   0.619
 6594TIP3    H119788   0.834   5.197   0.698
 6594TIP3    H219789   0.886   5.314   0.618
 6595TIP3   OH219790   4.689   2.447   1.971
 6595TIP3    H119791   4.661   2.510   1.905
 6595TIP3    H219792   4.785   2.453   1.970
 6596TIP3   OH219793   2.825   1.633   3.166
 6596TIP3    H119794   2.830   1.618   3.071
 6596TIP3    H219795   2.871   1.715   3.179
 6597TIP3   OH219796   5.436   1.452   2.523
 6597TIP3    H119797   5.479   1.519   2.575
 6597TIP3    H219798   5.493   1.438   2.448
 6598TIP3   OH219799   4.392   4.771   1.313
 6598TIP3    H119800   4.459   4.811   1.257
 6598TIP3    H219801   4.327   4.736   1.252
 6599TIP3   OH219802   0.825   1.652   4.410
 6599TIP3    H119803   0.920   1.645   4.412
 6599TIP3    H219804   0.806   1.699   4.328
 6600TIP3   OH219805   5.958   0.344   4.693
 6600TIP3    H119806   6.003   0.351   4.609
 6600TIP3    H219807   5.959   0.251   4.713
 6601TIP3   OH219808   3.540   4.543   5.039
 6601TIP3    H119809   3.609   4.481   5.063
 6601TIP3    H219810   3.578   4.629   5.059
 6602TIP3   OH219811   5.954   3.941   2.070
 6602TIP3    H119812   5.971   3.888   1.993
 6602TIP3    H219813   5.892   3.890   2.122
 6603TIP3   OH219814   1.988   2.312   4.376
 6603TIP3    H119815   1.944   2.282   4.296
 6603TIP3    H219816   1.927   2.376   4.413
 6604TIP3   OH219817   1.215   0.562   2.252
 6604TIP3    H119818   1.211   0.657   2.244
 6604TIP3    H219819   1.168   0.529   2.175
 6605TIP3   OH219820   5.159   5.317   4.682
 6605TIP3    H119821   5.124   5.383   4.742
 6605TIP3    H219822   5.142   5.352   4.595
 6606TIP3   OH219823   4.728   0.785   2.119
 6606TIP3    H119824   4.737   0.736   2.201
 6606TIP3    H219825   4.752   0.875   2.143
 6607TIP3   OH219826   2.713   3.357   0.391
 6607TIP3    H119827   2.658   3.427   0.356
 6607TIP3    H219828   2.801   3.377   0.357
 6608TIP3   OH219829   2.340   5.709   1.731
 6608TIP3    H119830   2.412   5.734   1.790
 6608TIP3    H219831   2.346   5.770   1.658
 6609TIP3   OH219832   2.054   2.065   2.598
 6609TIP3    H119833   1.971   2.085   2.641
 6609TIP3    H219834   2.089   1.990   2.646
 6610TIP3   OH219835   0.276   2.228   4.240
 6610TIP3    H119836   0.320   2.187   4.314
 6610TIP3    H219837   0.301   2.320   4.245
 6611TIP3   OH219838   1.105   4.707   3.633
 6611TIP3    H119839   1.068   4.771   3.694
 6611TIP3    H219840   1.052   4.629   3.646
 6612TIP3   OH219841   5.076   5.340   4.027
 6612TIP3    H119842   5.133   5.390   3.967
 6612TIP3    H219843   4.991   5.382   4.020
 6613TIP3   OH219844   1.975   2.659   3.547
 6613TIP3    H119845   1.917   2.676   3.472
 6613TIP3    H219846   2.023   2.581   3.523
 6614TIP3   OH219847   6.081   1.120   2.328
 6614TIP3    H119848   6.069   1.193   2.390
 6614TIP3    H219849   6.107   1.162   2.246
 6615TIP3   OH219850   0.473   4.098   1.083
 6615TIP3    H119851   0.383   4.092   1.117
 6615TIP3    H219852   0.491   4.192   1.080
 6616TIP3   OH219853   3.844   1.073   0.910
 6616TIP3    H119854   3.778   1.119   0.858
 6616TIP3    H219855   3.862   0.993   0.860
 6617TIP3   OH219856   0.156   5.877   3.395
 6617TIP3    H119857   0.066   5.908   3.392
 6617TIP3    H219858   0.169   5.833   3.311
 6618TIP3   OH219859   0.216   3.337   1.971
 6618TIP3    H119860   0.234   3.403   2.037
 6618TIP3    H219861   0.220   3.384   1.887
 6619TIP3   OH219862   3.918   5.413   3.350
 6619TIP3    H119863   3.872   5.350   3.405
 6619TIP3    H219864   3.850   5.468   3.313
 6620TIP3   OH219865   4.862   3.140   0.331
 6620TIP3    H119866   4.904   3.100   0.255
 6620TIP3    H219867   4.926   3.129   0.402
 6621TIP3   OH219868   3.938   5.822   0.048
 6621TIP3    H119869   3.869   5.869   0.094
 6621TIP3    H219870   4.010   5.885   0.040
 6622TIP3   OH219871   3.819   3.658   1.199
 6622TIP3    H119872   3.739   3.627   1.242
 6622TIP3    H219873   3.807   3.752   1.189
 6623TIP3   OH219874   5.787   4.416   1.388
 6623TIP3    H119875   5.840   4.461   1.322
 6623TIP3    H219876   5.794   4.471   1.466
 6624TIP3   OH219877   0.437   1.625   4.448
 6624TIP3    H119878   0.380   1.644   4.373
 6624TIP3    H219879   0.487   1.706   4.461
 6625TIP3   OH219880   1.461   3.721   2.137
 6625TIP3    H119881   1.477   3.815   2.146
 6625TIP3    H219882   1.382   3.705   2.189
 6626TIP3   OH219883   3.089   2.924   4.511
 6626TIP3    H119884   3.162   2.924   4.449
 6626TIP3    H219885   3.053   2.836   4.506
 6627TIP3   OH219886   4.596   2.664   4.121
 6627TIP3    H119887   4.631   2.575   4.130
 6627TIP3    H219888   4.568   2.670   4.030
 6628TIP3   OH219889   4.976   4.578   1.664
 6628TIP3    H119890   4.987   4.673   1.658
 6628TIP3    H219891   4.891   4.566   1.706
 6629TIP3   OH219892   1.866   4.802   2.588
 6629TIP3    H119893   1.778   4.766   2.594
 6629TIP3    H219894   1.924   4.726   2.600
 6630TIP3   OH219895   5.423   1.814   3.568
 6630TIP3    H119896   5.334   1.793   3.597
 6630TIP3    H219897   5.411   1.880   3.500
 6631TIP3   OH219898   6.352   2.159   4.796
 6631TIP3    H119899   6.286   2.172   4.865
 6631TIP3    H219900   6.379   2.068   4.806
 6632TIP3   OH219901   2.391   4.364   1.742
 6632TIP3    H119902   2.300   4.359   1.772
 6632TIP3    H219903   2.387   4.338   1.650
 6633TIP3   OH219904   6.103   4.727   1.926
 6633TIP3    H119905   6.062   4.649   1.963
 6633TIP3    H219906   6.030   4.785   1.905
 6634TIP3   OH219907   0.625   5.766   4.938
 6634TIP3    H119908   0.651   5.806   5.021
 6634TIP3    H219909   0.534   5.794   4.926
 6635TIP3   OH219910   5.213   2.979   2.576
 6635TIP3    H119911   5.134   2.966   2.523
 6635TIP3    H219912   5.284   2.988   2.512
 6636TIP3   OH219913   3.549   4.543   1.464
 6636TIP3    H119914   3.462   4.558   1.427
 6636TIP3    H219915   3.553   4.449   1.480
 6637TIP3   OH219916   0.563   4.645   2.036
 6637TIP3    H119917   0.582   4.726   2.082
 6637TIP3    H219918   0.633   4.636   1.972
 6638TIP3   OH219919   2.003   0.188   3.631
 6638TIP3    H119920   2.007   0.251   3.703
 6638TIP3    H219921   2.009   0.241   3.552
 6639TIP3   OH219922   3.895   1.681   2.979
 6639TIP3    H119923   3.898   1.604   3.036
 6639TIP3    H219924   3.817   1.667   2.925
 6640TIP3   OH219925   3.112   3.165   4.909
 6640TIP3    H119926   3.078   3.156   4.820
 6640TIP3    H219927   3.142   3.077   4.932
 6641TIP3   OH219928   6.213   2.624   4.567
 6641TIP3    H119929   6.291   2.650   4.518
 6641TIP3    H219930   6.235   2.639   4.658
 6642TIP3   OH219931   3.813   3.265   3.381
 6642TIP3    H119932   3.835   3.211   3.457
 6642TIP3    H219933   3.743   3.217   3.337
 6643TIP3   OH219934   1.816   0.747   1.649
 6643TIP3    H119935   1.820   0.699   1.732
 6643TIP3    H219936   1.908   0.760   1.625
 6644TIP3   OH219937   5.198   0.350   1.257
 6644TIP3    H119938   5.243   0.266   1.258
 6644TIP3    H219939   5.180   0.367   1.165
 6645TIP3   OH219940   1.293   2.490   3.052
 6645TIP3    H119941   1.213   2.521   3.094
 6645TIP3    H219942   1.317   2.561   2.991
   6.34856   5.98548   5.18358   0.00000   0.00000  -2.11619   0.00000  -2.11619  -2.99274
